Protein in INSANE! Membrane UpperLeaflet>POPC=1.0 LowerLeaflet>POPC=1.0
248046
    1AU     AUC    1   9.427  24.121   7.495
    1AU     AUC    2   9.723  24.166   7.332
    1AU     AUC    3   9.693  24.136   7.666
    1AU     AUC    4   9.149  24.104   7.327
    1AU     AUC    5   9.148  24.105   7.675
    1AU     AUC    6   9.237  24.362   7.516
    1AU     AUC    7   9.571  24.393   7.501
    1AU     AUC    8   9.273  23.841   7.498
    1AU     AUC    9   9.625  23.890   7.485
    1AU     AUC   10   9.460  23.951   7.767
    1AU     AUC   11   9.405  24.273   7.770
    1AU     AUC   12   9.452  23.972   7.220
    1AU     AUC   13   9.446  24.307   7.233
    1AU     AUC   14  10.037  24.197   7.179
    1AU     AUC   15  10.073  24.184   7.501
    1AU     AUC   16  10.002  24.135   7.865
    1AU     AUC   17   8.845  24.077   7.149
    1AU     AUC   18   8.804  24.121   7.515
    1AU     AUC   19   8.856  24.094   7.850
    1AU     AUC   20   9.063  24.666   7.506
    1AU     AUC   21   9.397  24.735   7.500
    1AU     AUC   22   9.717  24.715   7.522
    1AU     AUC   23   9.095  23.518   7.498
    1AU     AUC   24   9.442  23.563   7.495
    1AU     AUC   25   9.830  23.606   7.455
    1AU     AUC   26   9.467  23.724   8.057
    1AU     AUC   27   9.423  24.044   8.100
    1AU     AUC   28   9.421  24.419   8.068
    1AU     AUC   29   9.451  23.776   6.927
    1AU     AUC   30   9.445  24.127   6.911
    1AU     AUC   31   9.463  24.484   6.935
    1AU     AUC   32   9.758  23.886   7.964
    1AU     AUC   33   9.726  24.252   8.016
    1AU     AUC   34   9.737  23.991   7.012
    1AU     AUC   35   9.765  24.358   7.008
    1AU     AUC   36   9.134  23.888   7.980
    1AU     AUC   37   9.129  24.244   7.986
    1AU     AUC   38   9.108  23.901   7.042
    1AU     AUC   39   9.115  24.281   7.017
    1AU     AUC   40   9.928  24.463   7.356
    1AU     AUC   41   9.868  24.418   7.714
    1AU     AUC   42   8.948  24.381   7.300
    1AU     AUC   43   8.925  24.410   7.696
    1AU     AUC   44   9.941  23.889   7.297
    1AU     AUC   45   9.945  23.850   7.628
    1AU     AUC   46   8.916  23.809   7.341
    1AU     AUC   47   8.944  23.821   7.663
    1AU     AUC   48   9.225  24.595   7.795
    1AU     AUC   49   9.560  24.598   7.811
    1AU     AUC   50   9.234  23.614   7.777
    1AU     AUC   51   9.651  23.624   7.795
    1AU     AUC   52   9.232  24.564   7.178
    1AU     AUC   53   9.627  24.611   7.185
    1AU     AUC   54   9.243  23.640   7.213
    1AU     AUC   55   9.624  23.668   7.167
    1AU    AUSL   56  10.013  24.026   8.241
    1AU    AUSL   57   9.882  23.552   8.097
    1AU     AUL   58  10.155  23.635   8.287
    1AU       S   59  10.287  23.241   8.084
    1AU     LIG   60  10.313  22.969   8.425
    1AU     LIG   61  10.506  22.738   8.786
    1AU       S   62  10.250  24.072   8.374
    1AU     LIG   63  10.284  24.286   8.760
    1AU     LIG   64  10.397  24.060   9.142
    1AU    AUSL   65   9.605  23.840   8.289
    1AU    AUSL   66   9.284  24.172   8.405
    1AU     AUL   67   9.458  24.027   8.645
    1AU       S   68   9.818  23.757   8.566
    1AU     LIG   69   9.902  23.990   8.931
    1AU     LIG   70   9.960  23.872   9.373
    1AU       S   71   8.750  23.974   8.665
    1AU     LIG   72   8.930  24.323   8.948
    1AU     LIG   73   8.928  24.285   9.418
    1AU    AUSL   74   9.624  24.269   8.168
    1AU    AUSL   75  10.043  24.454   8.146
    1AU     AUL   76   9.844  24.270   8.472
    1AU       S   77   9.464  24.529   8.634
    1AU     LIG   78   9.836  24.510   8.909
    1AU     LIG   79  10.031  24.382   9.288
    1AU       S   80  10.167  24.600   8.358
    1AU     LIG   81  10.583  24.573   8.435
    1AU     LIG   82  10.881  24.840   8.670
    1AU    AUSL   83  10.007  24.251   6.756
    1AU    AUSL   84   9.891  24.695   6.839
    1AU     AUL   85  10.038  24.530   6.516
    1AU       S   86   9.919  24.127   6.295
    1AU     LIG   87  10.286  24.223   6.028
    1AU     LIG   88  10.412  23.974   5.644
    1AU       S   89  10.239  24.820   6.816
    1AU     LIG   90  10.178  25.022   6.446
    1AU     LIG   91  10.352  25.417   6.279
    1AU    AUSL   92   9.650  24.005   6.726
    1AU    AUSL   93   9.974  23.915   7.039
    1AU     AUL   94  10.078  23.944   6.686
    1AU       S   95  10.038  23.159   6.649
    1AU     LIG   96  10.464  23.064   6.489
    1AU     LIG   97  10.732  22.769   6.237
    1AU       S   98   9.738  23.806   6.371
    1AU     LIG   99   9.691  23.562   5.953
    1AU     LIG  100  10.081  23.548   5.680
    1AU    AUSL  101   9.587  24.440   6.649
    1AU    AUSL  102   9.283  23.841   6.593
    1AU     AUL  103   9.462  24.172   6.417
    1AU       S  104   9.100  23.878   6.285
    1AU     LIG  105   9.197  23.756   5.841
    1AU     LIG  106   8.882  23.775   5.487
    1AU       S  107   9.993  23.846   6.213
    1AU     LIG  108   9.881  24.018   5.787
    1AU     LIG  109  10.060  24.309   5.463
    1AU    AUSL  110   8.930  24.055   8.169
    1AU    AUSL  111   9.159  24.484   8.136
    1AU     AUL  112   9.018  24.355   8.446
    1AU       S  113   8.668  24.047   8.376
    1AU     LIG  114   8.466  24.361   8.696
    1AU     LIG  115   8.499  24.128   9.137
    1AU       S  116   8.737  24.719   8.310
    1AU     LIG  117   8.521  24.952   8.633
    1AU     LIG  118   8.318  25.362   8.764
    1AU    AUSL  119   9.188  23.737   8.365
    1AU    AUSL  120   8.772  23.666   8.042
    1AU     AUL  121   8.874  23.634   8.322
    1AU       S  122   8.568  23.312   8.153
    1AU     LIG  123   8.173  23.147   8.301
    1AU     LIG  124   7.956  22.877   8.615
    1AU       S  125   8.982  23.910   8.671
    1AU     LIG  126   8.965  23.840   9.130
    1AU     LIG  127   8.798  23.783   9.565
    1AU    AUSL  128   8.897  23.999   6.732
    1AU    AUSL  129   9.171  23.700   6.989
    1AU     AUL  130   9.025  23.614   6.668
    1AU       S  131   8.726  23.916   6.448
    1AU     LIG  132   8.409  23.994   6.104
    1AU     LIG  133   8.426  24.030   5.634
    1AU       S  134   8.570  23.437   6.641
    1AU     LIG  135   8.602  23.005   6.455
    1AU     LIG  136   8.436  22.651   6.181
    1AU    AUSL  137   9.249  24.251   6.827
    1AU    AUSL  138   8.795  24.380   6.908
    1AU     AUL  139   8.998  24.287   6.547
    1AU       S  140   8.619  24.520   6.719
    1AU     LIG  141   8.264  24.829   6.645
    1AU     LIG  142   8.084  25.193   6.398
    1AU       S  143   8.844  23.765   6.221
    1AU     LIG  144   8.859  24.134   5.899
    1AU     LIG  145   8.813  24.305   5.440
    1AU    AUSL  146  10.120  24.742   7.565
    1AU    AUSL  147  10.108  24.454   7.127
    1AU     AUL  148  10.266  24.839   7.283
    1AU       S  149  10.365  24.511   6.938
    1AU     LIG  150  10.523  24.524   6.471
    1AU     LIG  151  10.666  24.944   6.313
    1AU       S  152  10.638  24.684   7.935
    1AU     LIG  153  10.971  24.961   7.703
    1AU     LIG  154  11.293  24.961   7.346
    1AU    AUSL  155  10.401  24.407   7.435
    1AU    AUSL  156  10.393  23.997   7.665
    1AU     AUL  157  10.693  24.183   7.537
    1AU       S  158  10.567  24.612   7.663
    1AU     LIG  159  10.897  24.597   7.332
    1AU     LIG  160  11.341  24.460   7.208
    1AU       S  161  10.621  23.707   7.503
    1AU     LIG  162  10.933  23.630   7.804
    1AU     LIG  163  11.400  23.568   7.769
    1AU    AUSL  164  10.116  24.322   7.749
    1AU    AUSL  165   9.788  24.635   7.820
    1AU     AUL  166  10.152  24.725   7.900
    1AU       S  167  10.145  24.913   8.357
    1AU     LIG  168  10.559  25.084   8.344
    1AU     LIG  169  10.859  25.372   8.562
    1AU       S  170  10.473  24.381   7.937
    1AU     LIG  171  10.950  24.298   7.934
    1AU     LIG  172  11.269  24.535   7.710
    1AU    AUSL  173   8.782  24.614   7.536
    1AU    AUSL  174   8.760  24.398   7.958
    1AU     AUL  175   8.498  24.745   7.793
    1AU       S  176   8.635  24.470   8.152
    1AU     LIG  177   8.233  24.673   8.284
    1AU     LIG  178   8.003  25.051   8.470
    1AU       S  179   8.727  25.036   7.500
    1AU     LIG  180   8.302  25.057   7.288
    1AU     LIG  181   7.873  25.293   7.268
    1AU    AUSL  182   8.701  24.244   7.296
    1AU    AUSL  183   8.828  24.763   7.135
    1AU     AUL  184   8.544  24.581   7.202
    1AU       S  185   8.401  24.122   6.927
    1AU     LIG  186   8.088  24.479   6.988
    1AU     LIG  187   7.622  24.618   6.948
    1AU       S  188   8.660  24.967   6.918
    1AU     LIG  189   8.392  25.347   6.799
    1AU     LIG  190   8.157  25.698   6.565
    1AU    AUSL  191   8.461  24.311   7.657
    1AU    AUSL  192   8.464  23.898   7.402
    1AU     AUL  193   8.305  24.205   7.375
    1AU       S  194   8.246  23.849   7.696
    1AU     LIG  195   7.915  23.673   7.431
    1AU     LIG  196   7.472  23.524   7.290
    1AU       S  197   8.198  24.370   7.831
    1AU     LIG  198   7.731  24.528   7.836
    1AU     LIG  199   7.246  24.535   7.917
    1AU    AUSL  200  10.122  23.729   7.439
    1AU    AUSL  201  10.015  23.874   7.843
    1AU     AUL  202  10.337  23.757   7.865
    1AU       S  203  10.434  23.552   7.441
    1AU     LIG  204  10.703  23.190   7.465
    1AU     LIG  205  11.023  23.103   7.770
    1AU       S  206  10.528  23.319   7.916
    1AU     LIG  207  10.785  23.117   8.222
    1AU     LIG  208  10.957  22.882   8.576
    1AU    AUSL  209  10.346  24.039   7.207
    1AU    AUSL  210  10.068  23.461   7.109
    1AU     AUL  211  10.289  23.722   7.038
    1AU       S  212  10.672  23.779   7.287
    1AU     LIG  213  11.083  23.543   7.330
    1AU     LIG  214  11.520  23.607   7.216
    1AU       S  215  10.183  23.296   6.859
    1AU     LIG  216  10.339  22.851   6.948
    1AU     LIG  217  10.423  22.537   6.611
    1AU    AUSL  218   8.841  23.662   7.487
    1AU    AUSL  219   8.738  23.811   7.078
    1AU     AUL  220   8.474  23.595   7.301
    1AU       S  221   8.574  23.655   6.850
    1AU     LIG  222   8.163  23.425   6.929
    1AU     LIG  223   8.102  23.097   6.608
    1AU       S  224   8.259  23.767   8.015
    1AU     LIG  225   8.118  23.363   7.815
    1AU     LIG  226   7.739  23.183   7.589
    1AU    AUSL  227   8.704  23.975   7.763
    1AU    AUSL  228   8.899  23.346   7.764
    1AU     AUL  229   8.599  23.543   7.752
    1AU       S  230   8.732  23.112   7.918
    1AU     LIG  231   8.397  22.806   7.988
    1AU     LIG  232   8.134  22.535   8.286
    1AU       S  233   8.378  23.932   7.925
    1AU     LIG  234   7.832  23.995   7.890
    1AU     LIG  235   7.508  23.663   7.783
    1AU    AUSL  236   9.391  24.812   7.966
    1AU    AUSL  237   8.953  24.791   7.895
    1AU     AUL  238   9.195  24.810   8.262
    1AU       S  239   8.830  24.986   8.029
    1AU     LIG  240   8.422  25.163   8.170
    1AU     LIG  241   8.176  25.559   8.305
    1AU       S  242   9.344  25.197   8.027
    1AU     LIG  243   9.531  25.429   8.356
    1AU     LIG  244   9.630  25.873   8.470
    1AU    AUSL  245   9.198  25.015   7.620
    1AU    AUSL  246   9.531  25.070   7.279
    1AU     AUL  247   9.229  25.275   7.398
    1AU       S  248   9.376  25.425   7.862
    1AU     LIG  249   9.350  25.838   8.029
    1AU     LIG  250   9.187  26.267   8.069
    1AU       S  251   9.486  25.296   6.988
    1AU     LIG  252   9.744  25.666   7.088
    1AU     LIG  253   9.876  26.132   7.019
    1AU    AUSL  254   9.668  25.017   7.683
    1AU    AUSL  255   9.676  24.682   8.258
    1AU     AUL  256   9.754  24.956   8.046
    1AU       S  257   9.899  24.773   8.485
    1AU     LIG  258  10.292  24.814   8.816
    1AU     LIG  259  10.611  25.154   8.973
    1AU       S  260   9.599  25.293   7.746
    1AU     LIG  261   9.836  25.648   8.005
    1AU     LIG  262  10.055  26.045   8.228
    1AU    AUSL  263   9.489  23.378   8.127
    1AU    AUSL  264  10.049  23.397   7.705
    1AU     AUL  265   9.814  23.195   8.013
    1AU       S  266   9.405  22.856   8.087
    1AU     LIG  267   9.052  22.604   8.237
    1AU     LIG  268   9.030  22.215   8.508
    1AU       S  269  10.250  23.247   7.777
    1AU     LIG  270  10.517  22.832   7.855
    1AU     LIG  271  10.649  22.626   8.253
    1AU    AUSL  272   9.305  23.210   7.754
    1AU    AUSL  273   9.206  23.636   7.949
    1AU     AUL  274   9.140  23.292   8.097
    1AU       S  275   9.228  22.911   7.832
    1AU     LIG  276   8.989  22.525   7.733
    1AU     LIG  277   9.020  22.131   7.992
    1AU       S  278   8.715  23.108   8.237
    1AU     LIG  279   8.583  22.735   8.460
    1AU     LIG  280   8.350  22.547   8.810
    1AU    AUSL  281   9.636  23.478   7.685
    1AU    AUSL  282   9.266  23.352   7.351
    1AU     AUL  283   9.582  23.118   7.548
    1AU       S  284   9.120  23.008   7.364
    1AU     LIG  285   8.823  22.672   7.253
    1AU     LIG  286   9.030  22.278   7.134
    1AU       S  287   9.467  22.720   7.846
    1AU     LIG  288   9.436  22.267   7.718
    1AU     LIG  289   9.509  21.828   7.900
    1AU    AUSL  290   9.489  24.792   6.947
    1AU    AUSL  291   9.797  24.726   7.284
    1AU     AUL  292   9.846  25.004   7.060
    1AU       S  293   9.507  25.004   6.723
    1AU     LIG  294   9.852  25.359   6.652
    1AU     LIG  295   9.763  25.820   6.600
    1AU       S  296  10.544  24.776   6.889
    1AU     LIG  297  10.555  25.236   6.743
    1AU     LIG  298  10.824  25.531   6.489
    1AU    AUSL  299   9.222  24.745   7.296
    1AU    AUSL  300   9.113  24.664   6.802
    1AU     AUL  301   9.121  24.979   7.014
    1AU       S  302   9.358  25.302   6.724
    1AU     LIG  303   9.260  25.751   6.886
    1AU     LIG  304   9.257  26.205   7.039
    1AU       S  305   8.853  24.786   6.644
    1AU     LIG  306   8.618  25.111   6.388
    1AU     LIG  307   8.448  25.518   6.180
    1AU    AUSL  308   9.413  23.352   6.925
    1AU    AUSL  309   8.883  23.391   7.152
    1AU     AUL  310   9.130  23.259   6.968
    1AU       S  311   8.662  23.349   6.920
    1AU     LIG  312   8.473  22.916   6.937
    1AU     LIG  313   8.233  22.595   6.662
    1AU       S  314   9.360  22.879   7.169
    1AU     LIG  315   9.120  22.671   6.827
    1AU     LIG  316   9.058  22.236   6.611
    1AU    AUSL  317   9.675  23.488   7.262
    1AU    AUSL  318   9.750  23.598   6.820
    1AU     AUL  319   9.741  23.231   7.036
    1AU       S  320   9.295  22.735   7.368
    1AU     LIG  321   9.537  22.379   7.212
    1AU     LIG  322   9.685  22.062   6.905
    1AU       S  323   9.949  23.460   6.642
    1AU     LIG  324  10.106  23.343   6.195
    1AU     LIG  325  10.268  22.928   6.028
    2AU     AUC  326   9.558  34.883   7.496
    2AU     AUC  327   9.855  34.919   7.327
    2AU     AUC  328   9.828  34.902   7.663
    2AU     AUC  329   9.273  34.871   7.334
    2AU     AUC  330   9.290  34.866   7.685
    2AU     AUC  331   9.365  35.124   7.525
    2AU     AUC  332   9.697  35.155   7.498
    2AU     AUC  333   9.403  34.605   7.497
    2AU     AUC  334   9.758  34.656   7.488
    2AU     AUC  335   9.603  34.715   7.769
    2AU     AUC  336   9.544  35.037   7.775
    2AU     AUC  337   9.583  34.735   7.218
    2AU     AUC  338   9.558  35.060   7.227
    2AU     AUC  339  10.171  34.940   7.169
    2AU     AUC  340  10.205  34.946   7.489
    2AU     AUC  341  10.146  34.909   7.857
    2AU     AUC  342   8.969  34.851   7.165
    2AU     AUC  343   8.938  34.870   7.534
    2AU     AUC  344   8.996  34.845   7.876
    2AU     AUC  345   9.183  35.427   7.527
    2AU     AUC  346   9.519  35.495   7.498
    2AU     AUC  347   9.841  35.479   7.508
    2AU     AUC  348   9.230  34.285   7.496
    2AU     AUC  349   9.569  34.328   7.496
    2AU     AUC  350   9.961  34.364   7.466
    2AU     AUC  351   9.616  34.490   8.060
    2AU     AUC  352   9.577  34.810   8.104
    2AU     AUC  353   9.569  35.187   8.070
    2AU     AUC  354   9.590  34.537   6.914
    2AU     AUC  355   9.570  34.881   6.921
    2AU     AUC  356   9.566  35.250   6.943
    2AU     AUC  357   9.903  34.658   7.964
    2AU     AUC  358   9.872  35.027   8.010
    2AU     AUC  359   9.882  34.714   7.010
    2AU     AUC  360   9.900  35.089   7.018
    2AU     AUC  361   9.283  34.648   7.992
    2AU     AUC  362   9.278  35.003   8.000
    2AU     AUC  363   9.248  34.702   7.031
    2AU     AUC  364   9.229  35.058   7.021
    2AU     AUC  365  10.049  35.222   7.338
    2AU     AUC  366  10.002  35.187   7.699
    2AU     AUC  367   9.065  35.142   7.326
    2AU     AUC  368   9.060  35.163   7.723
    2AU     AUC  369  10.072  34.638   7.307
    2AU     AUC  370  10.087  34.615   7.631
    2AU     AUC  371   9.053  34.575   7.339
    2AU     AUC  372   9.082  34.578   7.666
    2AU     AUC  373   9.360  35.355   7.805
    2AU     AUC  374   9.696  35.365   7.805
    2AU     AUC  375   9.376  34.378   7.778
    2AU     AUC  376   9.791  34.390   7.797
    2AU     AUC  377   9.339  35.328   7.190
    2AU     AUC  378   9.742  35.370   7.189
    2AU     AUC  379   9.362  34.415   7.199
    2AU     AUC  380   9.747  34.419   7.171
    2AU    AUSL  381  10.170  34.813   8.238
    2AU    AUSL  382  10.025  34.313   8.092
    2AU     AUL  383  10.252  34.434   8.299
    2AU       S  384  10.385  34.021   8.129
    2AU     LIG  385  10.172  33.886   8.483
    2AU     LIG  386  10.339  33.762   8.907
    2AU       S  387  10.434  34.858   8.389
    2AU     LIG  388  10.416  35.016   8.812
    2AU     LIG  389  10.508  34.768   9.199
    2AU    AUSL  390   9.773  34.614   8.290
    2AU    AUSL  391   9.448  34.930   8.412
    2AU     AUL  392   9.660  34.779   8.631
    2AU       S  393  10.105  34.644   8.678
    2AU     LIG  394   9.995  34.771   9.083
    2AU     LIG  395  10.098  34.696   9.527
    2AU       S  396   8.942  34.738   8.705
    2AU     LIG  397   8.973  34.998   9.094
    2AU     LIG  398   8.862  35.072   9.557
    2AU    AUSL  399   9.777  35.047   8.168
    2AU    AUSL  400  10.197  35.235   8.123
    2AU     AUL  401  10.019  35.067   8.457
    2AU       S  402   9.626  35.299   8.621
    2AU     LIG  403   9.961  35.256   8.913
    2AU     LIG  404  10.244  35.203   9.272
    2AU       S  405  10.353  35.387   8.328
    2AU     LIG  406  10.814  35.528   8.296
    2AU     LIG  407  11.176  35.825   8.435
    2AU    AUSL  408  10.173  34.957   6.747
    2AU    AUSL  409  10.001  35.462   6.816
    2AU     AUL  410  10.108  35.244   6.507
    2AU       S  411  10.079  34.813   6.287
    2AU     LIG  412  10.453  34.775   6.087
    2AU     LIG  413  10.584  34.913   5.674
    2AU       S  414  10.328  35.566   6.764
    2AU     LIG  415  10.432  35.945   6.533
    2AU     LIG  416  10.635  36.134   6.147
    2AU    AUSL  417   9.821  34.692   6.693
    2AU    AUSL  418  10.108  34.643   7.049
    2AU     AUL  419  10.238  34.643   6.686
    2AU       S  420  10.398  34.119   6.697
    2AU     LIG  421  10.621  34.040   6.323
    2AU     LIG  422  10.871  33.839   6.004
    2AU       S  423   9.857  34.536   6.409
    2AU     LIG  424  10.203  34.313   6.164
    2AU     LIG  425  10.329  34.424   5.704
    2AU    AUSL  426   9.755  35.110   6.796
    2AU    AUSL  427   9.408  34.678   6.595
    2AU     AUL  428   9.663  34.974   6.463
    2AU       S  429   9.271  34.722   6.307
    2AU     LIG  430   9.412  34.548   5.882
    2AU     LIG  431   9.110  34.479   5.532
    2AU       S  432   9.852  34.663   6.133
    2AU     LIG  433  10.051  34.863   5.755
    2AU     LIG  434  10.217  34.867   5.303
    2AU    AUSL  435   9.089  34.805   8.188
    2AU    AUSL  436   9.311  35.248   8.154
    2AU     AUL  437   9.190  35.105   8.466
    2AU       S  438   8.829  34.806   8.433
    2AU     LIG  439   8.531  34.973   8.806
    2AU     LIG  440   8.513  34.816   9.264
    2AU       S  441   8.900  35.458   8.351
    2AU     LIG  442   8.771  35.789   8.586
    2AU     LIG  443   8.676  36.210   8.682
    2AU    AUSL  444   9.360  34.493   8.378
    2AU    AUSL  445   8.909  34.424   8.069
    2AU     AUL  446   9.040  34.401   8.350
    2AU       S  447   8.714  34.098   8.181
    2AU     LIG  448   8.270  34.023   8.335
    2AU     LIG  449   7.972  33.722   8.553
    2AU       S  450   9.176  34.666   8.702
    2AU     LIG  451   9.115  34.508   9.141
    2AU     LIG  452   8.883  34.548   9.550
    2AU    AUSL  453   9.005  34.787   6.731
    2AU    AUSL  454   9.297  34.484   6.969
    2AU     AUL  455   9.162  34.412   6.656
    2AU       S  456   8.867  34.699   6.418
    2AU     LIG  457   8.587  34.714   6.014
    2AU     LIG  458   8.624  34.702   5.533
    2AU       S  459   8.704  34.242   6.641
    2AU     LIG  460   8.742  33.769   6.570
    2AU     LIG  461   8.420  33.485   6.352
    2AU    AUSL  462   9.334  35.076   6.790
    2AU    AUSL  463   8.904  35.154   6.945
    2AU     AUL  464   9.070  35.101   6.558
    2AU       S  465   8.700  35.313   6.772
    2AU     LIG  466   8.448  35.680   6.582
    2AU     LIG  467   8.432  36.044   6.286
    2AU       S  468   9.033  34.589   6.208
    2AU     LIG  469   9.035  34.895   5.844
    2AU     LIG  470   9.041  34.969   5.370
    2AU    AUSL  471  10.243  35.512   7.533
    2AU    AUSL  472  10.213  35.206   7.101
    2AU     AUL  473  10.377  35.601   7.235
    2AU       S  474  10.479  35.268   6.912
    2AU     LIG  475  10.591  35.172   6.463
    2AU     LIG  476  10.692  35.578   6.256
    2AU       S  477  10.761  35.538   7.788
    2AU     LIG  478  10.915  35.845   7.444
    2AU     LIG  479  11.236  35.760   7.076
    2AU    AUSL  480  10.520  35.173   7.400
    2AU    AUSL  481  10.532  34.774   7.666
    2AU     AUL  482  10.829  34.963   7.513
    2AU       S  483  10.692  35.396   7.595
    2AU     LIG  484  10.929  35.374   7.211
    2AU     LIG  485  11.373  35.260   7.121
    2AU       S  486  10.762  34.490   7.510
    2AU     LIG  487  11.019  34.325   7.815
    2AU     LIG  488  11.475  34.254   7.796
    2AU    AUSL  489  10.248  35.096   7.726
    2AU    AUSL  490   9.924  35.407   7.803
    2AU     AUL  491  10.282  35.507   7.871
    2AU       S  492  10.325  35.709   8.328
    2AU     LIG  493  10.706  36.046   8.310
    2AU     LIG  494  10.892  36.501   8.432
    2AU       S  495  10.627  35.197   7.887
    2AU     LIG  496  11.109  35.214   7.932
    2AU     LIG  497  11.548  35.388   8.016
    2AU    AUSL  498   8.909  35.363   7.579
    2AU    AUSL  499   8.912  35.148   7.988
    2AU     AUL  500   8.635  35.484   7.820
    2AU       S  501   8.796  35.230   8.193
    2AU     LIG  502   8.421  35.548   8.262
    2AU     LIG  503   8.262  35.907   8.533
    2AU       S  504   8.840  35.811   7.554
    2AU     LIG  505   8.374  35.765   7.438
    2AU     LIG  506   7.945  36.006   7.470
    2AU    AUSL  507   8.816  35.008   7.332
    2AU    AUSL  508   8.926  35.534   7.187
    2AU     AUL  509   8.657  35.344   7.258
    2AU       S  510   8.505  34.903   6.981
    2AU     LIG  511   8.195  35.276   7.112
    2AU     LIG  512   7.829  35.523   7.313
    2AU       S  513   8.747  35.758   6.989
    2AU     LIG  514   8.603  36.183   6.758
    2AU     LIG  515   8.518  36.579   6.447
    2AU    AUSL  516   8.597  35.043   7.712
    2AU    AUSL  517   8.597  34.647   7.420
    2AU     AUL  518   8.429  34.962   7.435
    2AU       S  519   8.392  34.573   7.702
    2AU     LIG  520   8.106  34.492   7.348
    2AU     LIG  521   7.785  34.232   7.134
    2AU       S  522   8.398  35.080   7.923
    2AU     LIG  523   8.155  35.356   7.681
    2AU     LIG  524   7.825  35.655   7.833
    2AU    AUSL  525  10.270  34.490   7.453
    2AU    AUSL  526  10.153  34.647   7.846
    2AU     AUL  527  10.474  34.517   7.877
    2AU       S  528  10.592  34.304   7.469
    2AU     LIG  529  10.809  33.926   7.550
    2AU     LIG  530  11.201  33.824   7.734
    2AU       S  531  10.635  34.083   8.056
    2AU     LIG  532  10.687  33.862   8.507
    2AU     LIG  533  10.802  33.509   8.848
    2AU    AUSL  534  10.479  34.790   7.198
    2AU    AUSL  535  10.184  34.177   7.176
    2AU     AUL  536  10.412  34.438   7.068
    2AU       S  537  10.806  34.546   7.281
    2AU     LIG  538  11.213  34.281   7.341
    2AU     LIG  539  11.688  34.382   7.332
    2AU       S  540  10.309  33.987   6.945
    2AU     LIG  541  10.545  33.607   6.878
    2AU     LIG  542  10.792  33.551   6.486
    2AU    AUSL  543   8.974  34.402   7.480
    2AU    AUSL  544   8.878  34.604   7.093
    2AU     AUL  545   8.613  34.359   7.301
    2AU       S  546   8.694  34.455   6.851
    2AU     LIG  547   8.277  34.242   6.911
    2AU     LIG  548   8.271  33.934   6.576
    2AU       S  549   8.340  34.399   7.943
    2AU     LIG  550   8.313  34.088   7.580
    2AU     LIG  551   7.930  33.929   7.541
    2AU    AUSL  552   8.863  34.715   7.766
    2AU    AUSL  553   9.043  34.113   7.784
    2AU     AUL  554   8.757  34.278   7.749
    2AU       S  555   8.880  33.863   7.944
    2AU     LIG  556   8.433  33.764   7.933
    2AU     LIG  557   8.157  33.504   8.120
    2AU       S  558   8.480  34.617   7.915
    2AU     LIG  559   7.927  34.633   7.817
    2AU     LIG  560   7.595  34.318   7.629
    2AU    AUSL  561   9.529  35.573   7.963
    2AU    AUSL  562   9.086  35.554   7.926
    2AU     AUL  563   9.346  35.582   8.266
    2AU       S  564   8.937  35.740   8.087
    2AU     LIG  565   8.592  36.072   8.168
    2AU     LIG  566   8.303  36.419   8.387
    2AU       S  567   9.477  35.971   8.021
    2AU     LIG  568   9.724  36.297   8.263
    2AU     LIG  569   9.651  36.691   8.492
    2AU    AUSL  570   9.313  35.768   7.626
    2AU    AUSL  571   9.643  35.824   7.261
    2AU     AUL  572   9.346  36.031   7.403
    2AU       S  573   9.449  36.198   7.852
    2AU     LIG  574   9.286  36.530   8.096
    2AU     LIG  575   9.246  36.949   8.305
    2AU       S  576   9.587  36.065   6.987
    2AU     LIG  577   9.878  36.471   7.074
    2AU     LIG  578   9.938  36.947   6.955
    2AU    AUSL  579   9.785  35.783   7.666
    2AU    AUSL  580   9.832  35.462   8.244
    2AU     AUL  581   9.889  35.732   8.028
    2AU       S  582  10.053  35.558   8.460
    2AU     LIG  583  10.378  35.541   8.806
    2AU     LIG  584  10.772  35.773   8.767
    2AU       S  585   9.706  36.055   7.732
    2AU     LIG  586   9.865  36.474   7.798
    2AU     LIG  587   9.753  36.850   8.020
    2AU    AUSL  588   9.630  34.143   8.124
    2AU    AUSL  589  10.191  34.150   7.708
    2AU     AUL  590   9.939  33.948   8.005
    2AU       S  591   9.548  33.625   8.090
    2AU     LIG  592   9.279  33.282   8.194
    2AU     LIG  593   9.359  32.840   8.293
    2AU       S  594  10.395  34.019   7.834
    2AU     LIG  595  10.614  33.591   7.982
    2AU     LIG  596  10.886  33.428   8.358
    2AU    AUSL  597   9.447  33.982   7.747
    2AU    AUSL  598   9.344  34.408   7.957
    2AU     AUL  599   9.285  34.060   8.104
    2AU       S  600   9.379  33.689   7.836
    2AU     LIG  601   9.091  33.369   7.723
    2AU     LIG  602   9.116  32.930   7.829
    2AU       S  603   8.848  33.864   8.224
    2AU     LIG  604   8.549  33.607   8.445
    2AU     LIG  605   8.366  33.626   8.880
    2AU    AUSL  606   9.781  34.247   7.686
    2AU    AUSL  607   9.376  34.111   7.343
    2AU     AUL  608   9.715  33.886   7.539
    2AU       S  609   9.225  33.788   7.363
    2AU     LIG  610   8.979  33.392   7.176
    2AU     LIG  611   9.104  32.934   7.079
    2AU       S  612   9.624  33.510   7.851
    2AU     LIG  613   9.600  33.078   7.843
    2AU     LIG  614   9.713  32.638   7.981
    2AU    AUSL  615   9.593  35.529   6.937
    2AU    AUSL  616   9.911  35.483   7.264
    2AU     AUL  617   9.945  35.759   7.031
    2AU       S  618   9.581  35.799   6.723
    2AU     LIG  619   9.830  36.230   6.583
    2AU     LIG  620   9.719  36.699   6.521
    2AU       S  621  10.625  35.518   6.815
    2AU     LIG  622  10.765  35.938   6.946
    2AU     LIG  623  11.097  36.256   6.816
    2AU    AUSL  624   9.336  35.503   7.297
    2AU    AUSL  625   9.186  35.477   6.831
    2AU     AUL  626   9.220  35.745   7.040
    2AU       S  627   9.380  36.092   6.741
    2AU     LIG  628   9.419  36.545   6.895
    2AU     LIG  629   9.482  36.855   7.213
    2AU       S  630   8.924  35.575   6.695
    2AU     LIG  631   8.941  35.957   6.445
    2AU     LIG  632   8.853  36.325   6.149
    2AU    AUSL  633   9.531  34.131   6.916
    2AU    AUSL  634   9.011  34.173   7.116
    2AU     AUL  635   9.254  34.034   6.950
    2AU       S  636   8.793  34.161   6.900
    2AU     LIG  637   8.527  33.817   7.047
    2AU     LIG  638   8.272  33.483   6.840
    2AU       S  639   9.462  33.648   7.170
    2AU     LIG  640   9.399  33.313   6.873
    2AU     LIG  641   9.375  32.922   6.589
    2AU    AUSL  642   9.779  34.261   7.262
    2AU    AUSL  643   9.918  34.302   6.835
    2AU     AUL  644   9.847  33.972   7.057
    2AU       S  645   9.412  33.531   7.374
    2AU     LIG  646   9.730  33.219   7.334
    2AU     LIG  647   9.672  32.897   7.006
    2AU       S  648  10.105  34.165   6.686
    2AU     LIG  649  10.178  33.789   6.393
    2AU     LIG  650  10.454  33.529   6.104
    3AU     AUC  651  25.714  44.513   7.494
    3AU     AUC  652  26.009  44.552   7.327
    3AU     AUC  653  25.983  44.528   7.661
    3AU     AUC  654  25.434  44.495   7.328
    3AU     AUC  655  25.438  44.502   7.678
    3AU     AUC  656  25.527  44.756   7.513
    3AU     AUC  657  25.861  44.784   7.493
    3AU     AUC  658  25.556  44.236   7.502
    3AU     AUC  659  25.909  44.280   7.484
    3AU     AUC  660  25.748  44.347   7.768
    3AU     AUC  661  25.698  44.670   7.766
    3AU     AUC  662  25.736  44.360   7.221
    3AU     AUC  663  25.731  44.694   7.228
    3AU     AUC  664  26.323  44.578   7.173
    3AU     AUC  665  26.361  44.566   7.492
    3AU     AUC  666  26.295  44.525   7.857
    3AU     AUC  667  25.130  44.469   7.154
    3AU     AUC  668  25.093  44.517   7.521
    3AU     AUC  669  25.146  44.496   7.860
    3AU     AUC  670  25.354   0.059   7.500
    3AU     AUC  671  25.689   0.127   7.488
    3AU     AUC  672  26.010   0.106   7.507
    3AU     AUC  673  25.373  43.915   7.509
    3AU     AUC  674  25.720  43.957   7.501
    3AU     AUC  675  26.109  43.992   7.457
    3AU     AUC  676  25.756  44.126   8.063
    3AU     AUC  677  25.719  44.448   8.101
    3AU     AUC  678  25.720  44.823   8.061
    3AU     AUC  679  25.730  44.160   6.929
    3AU     AUC  680  25.730  44.509   6.908
    3AU     AUC  681  25.748  44.866   6.928
    3AU     AUC  682  26.048  44.283   7.963
    3AU     AUC  683  26.022  44.652   8.008
    3AU     AUC  684  26.018  44.372   7.010
    3AU     AUC  685  26.051  44.741   7.002
    3AU     AUC  686  25.425  44.293   7.989
    3AU     AUC  687  25.426  44.648   7.987
    3AU     AUC  688  25.391  44.289   7.044
    3AU     AUC  689  25.400  44.665   7.014
    3AU     AUC  690  26.217  44.848   7.345
    3AU     AUC  691  26.162  44.810   7.702
    3AU     AUC  692  25.236  44.771   7.302
    3AU     AUC  693  25.218  44.809   7.697
    3AU     AUC  694  26.223  44.271   7.294
    3AU     AUC  695  26.231  44.237   7.626
    3AU     AUC  696  25.200  44.205   7.347
    3AU     AUC  697  25.228  44.221   7.671
    3AU     AUC  698  25.521  44.994   7.788
    3AU     AUC  699  25.856  44.995   7.798
    3AU     AUC  700  25.516  44.014   7.787
    3AU     AUC  701  25.933  44.019   7.799
    3AU     AUC  702  25.519  44.950   7.171
    3AU     AUC  703  25.914  44.997   7.175
    3AU     AUC  704  25.521  44.031   7.218
    3AU     AUC  705  25.902  44.051   7.170
    3AU    AUSL  706  26.311  44.428   8.234
    3AU    AUSL  707  26.167  43.944   8.099
    3AU     AUL  708  26.445  44.040   8.288
    3AU       S  709  26.551  43.631   8.105
    3AU     LIG  710  26.400  43.343   8.417
    3AU     LIG  711  26.374  43.323   8.882
    3AU       S  712  26.549  44.474   8.368
    3AU     LIG  713  26.580  44.692   8.750
    3AU     LIG  714  26.697  44.467   9.135
    3AU    AUSL  715  25.902  44.245   8.286
    3AU    AUSL  716  25.588  44.582   8.405
    3AU     AUL  717  25.761  44.447   8.647
    3AU       S  718  26.095  44.156   8.548
    3AU     LIG  719  26.221  44.370   8.905
    3AU     LIG  720  26.229  44.380   9.362
    3AU       S  721  25.060  44.412   8.681
    3AU     LIG  722  25.097  44.703   9.036
    3AU     LIG  723  25.056  44.658   9.510
    3AU    AUSL  724  25.923  44.673   8.160
    3AU    AUSL  725  26.343  44.853   8.131
    3AU     AUL  726  26.145  44.677   8.461
    3AU       S  727  25.762  44.949   8.620
    3AU     LIG  728  26.086  44.865   8.911
    3AU     LIG  729  26.391  44.863   9.233
    3AU       S  730  26.473   0.003   8.344
    3AU     LIG  731  26.883   0.047   8.496
    3AU     LIG  732  27.247   0.342   8.512
    3AU    AUSL  733  26.292  44.626   6.752
    3AU    AUSL  734  26.177   0.075   6.827
    3AU     AUL  735  26.325  44.905   6.507
    3AU       S  736  26.213  44.491   6.304
    3AU     LIG  737  26.595  44.520   6.041
    3AU     LIG  738  26.629  44.304   5.624
    3AU       S  739  26.504   0.219   6.793
    3AU     LIG  740  26.434   0.398   6.398
    3AU     LIG  741  26.598   0.550   5.985
    3AU    AUSL  742  25.934  44.384   6.724
    3AU    AUSL  743  26.255  44.291   7.038
    3AU     AUL  744  26.368  44.316   6.698
    3AU       S  745  26.483  43.843   6.609
    3AU     LIG  746  26.726  43.895   6.244
    3AU     LIG  747  27.098  43.695   6.045
    3AU       S  748  26.031  44.187   6.371
    3AU     LIG  749  25.967  43.947   5.933
    3AU     LIG  750  26.175  44.009   5.499
    3AU    AUSL  751  25.873  44.818   6.641
    3AU    AUSL  752  25.566  44.219   6.593
    3AU     AUL  753  25.749  44.549   6.413
    3AU       S  754  25.387  44.255   6.282
    3AU     LIG  755  25.505  44.161   5.837
    3AU     LIG  756  25.292  44.014   5.452
    3AU       S  757  26.277  44.186   6.233
    3AU     LIG  758  26.136  44.413   5.820
    3AU     LIG  759  26.225  44.530   5.377
    3AU    AUSL  760  25.229  44.464   8.178
    3AU    AUSL  761  25.462  44.892   8.134
    3AU     AUL  762  25.326  44.766   8.448
    3AU       S  763  24.957  44.470   8.411
    3AU     LIG  764  24.639  44.620   8.776
    3AU     LIG  765  24.694  44.419   9.214
    3AU       S  766  25.049   0.123   8.306
    3AU     LIG  767  24.938   0.308   8.674
    3AU     LIG  768  24.770   0.708   8.827
    3AU    AUSL  769  25.488  44.147   8.379
    3AU    AUSL  770  25.055  44.078   8.068
    3AU     AUL  771  25.175  44.063   8.351
    3AU       S  772  24.843  43.772   8.193
    3AU     LIG  773  24.460  43.791   8.447
    3AU     LIG  774  24.129  43.599   8.752
    3AU       S  775  25.286  44.341   8.698
    3AU     LIG  776  25.218  44.216   9.141
    3AU     LIG  777  25.016  44.135   9.549
    3AU    AUSL  778  25.181  44.380   6.728
    3AU    AUSL  779  25.451  44.089   6.991
    3AU     AUL  780  25.296  44.003   6.670
    3AU       S  781  25.002  44.301   6.436
    3AU     LIG  782  24.706  44.372   6.053
    3AU     LIG  783  24.746  44.435   5.577
    3AU       S  784  24.839  43.814   6.668
    3AU     LIG  785  24.880  43.430   6.398
    3AU     LIG  786  24.780  43.052   6.115
    3AU    AUSL  787  25.535  44.632   6.822
    3AU    AUSL  788  25.082  44.757   6.911
    3AU     AUL  789  25.288  44.662   6.543
    3AU       S  790  24.913  44.884   6.721
    3AU     LIG  791  24.567   0.143   6.608
    3AU     LIG  792  24.407   0.411   6.258
    3AU       S  793  25.136  44.159   6.212
    3AU     LIG  794  25.165  44.542   5.910
    3AU     LIG  795  25.138  44.760   5.480
    3AU    AUSL  796  26.418   0.126   7.546
    3AU    AUSL  797  26.396  44.838   7.118
    3AU     AUL  798  26.562   0.219   7.260
    3AU       S  799  26.648  44.891   6.924
    3AU     LIG  800  26.793  44.783   6.488
    3AU     LIG  801  26.878   0.174   6.252
    3AU       S  802  26.921   0.022   7.973
    3AU     LIG  803  27.252   0.343   7.824
    3AU     LIG  804  27.669   0.460   7.569
    3AU    AUSL  805  26.692  44.786   7.421
    3AU    AUSL  806  26.680  44.377   7.657
    3AU     AUL  807  26.981  44.567   7.522
    3AU       S  808  26.864  44.993   7.668
    3AU     LIG  809  27.264  44.975   7.454
    3AU     LIG  810  27.688   0.002   7.294
    3AU       S  811  26.900  44.101   7.483
    3AU     LIG  812  27.125  44.114   7.883
    3AU     LIG  813  27.411  43.772   8.075
    3AU    AUSL  814  26.409  44.708   7.737
    3AU    AUSL  815  26.086   0.030   7.804
    3AU     AUL  816  26.451   0.116   7.883
    3AU       S  817  26.447   0.314   8.345
    3AU     LIG  818  26.849   0.476   8.203
    3AU     LIG  819  27.212   0.776   8.213
    3AU       S  820  26.767  44.757   7.926
    3AU     LIG  821  27.276  44.684   7.898
    3AU     LIG  822  27.642  44.991   7.825
    3AU    AUSL  823  25.069   0.016   7.537
    3AU    AUSL  824  25.064  44.801   7.958
    3AU     AUL  825  24.797   0.148   7.802
    3AU       S  826  24.948  44.878   8.156
    3AU     LIG  827  24.577  44.992   8.392
    3AU     LIG  828  24.422   0.345   8.654
    3AU       S  829  25.013   0.425   7.489
    3AU     LIG  830  24.537   0.301   7.404
    3AU     LIG  831  24.072   0.337   7.510
    3AU    AUSL  832  24.987  44.643   7.306
    3AU    AUSL  833  25.115   0.145   7.129
    3AU     AUL  834  24.834  44.970   7.197
    3AU       S  835  24.672  44.521   6.950
    3AU     LIG  836  24.354  44.881   7.059
    3AU     LIG  837  23.896  44.971   7.177
    3AU       S  838  24.943   0.340   6.897
    3AU     LIG  839  24.748   0.642   6.585
    3AU     LIG  840  24.453   0.934   6.341
    3AU    AUSL  841  24.753  44.710   7.673
    3AU    AUSL  842  24.749  44.298   7.413
    3AU     AUL  843  24.596  44.611   7.398
    3AU       S  844  24.522  44.255   7.702
    3AU     LIG  845  24.266  44.220   7.306
    3AU     LIG  846  23.822  44.330   7.254
    3AU       S  847  24.527  44.767   7.867
    3AU     LIG  848  24.174  44.819   7.592
    3AU     LIG  849  23.725  44.937   7.666
    3AU    AUSL  850  26.404  44.107   7.439
    3AU    AUSL  851  26.302  44.263   7.841
    3AU     AUL  852  26.623  44.127   7.857
    3AU       S  853  26.730  43.901   7.451
    3AU     LIG  854  27.145  43.699   7.603
    3AU     LIG  855  27.568  43.593   7.606
    3AU       S  856  26.799  43.673   7.946
    3AU     LIG  857  26.933  43.919   8.305
    3AU     LIG  858  26.948  43.807   8.744
    3AU    AUSL  859  26.629  44.415   7.199
    3AU    AUSL  860  26.341  43.836   7.113
    3AU     AUL  861  26.573  44.085   7.052
    3AU       S  862  26.971  44.155   7.278
    3AU     LIG  863  27.376  43.903   7.204
    3AU     LIG  864  27.583  43.582   6.906
    3AU       S  865  26.448  43.668   6.841
    3AU     LIG  866  26.618  43.245   6.693
    3AU     LIG  867  26.973  42.918   6.650
    3AU    AUSL  868  25.122  44.054   7.493
    3AU    AUSL  869  25.023  44.215   7.087
    3AU     AUL  870  24.753  44.002   7.310
    3AU       S  871  24.844  44.053   6.854
    3AU     LIG  872  24.385  43.895   6.879
    3AU     LIG  873  24.091  43.683   6.547
    3AU       S  874  24.490  44.133   7.936
    3AU     LIG  875  24.388  43.789   7.596
    3AU     LIG  876  24.021  43.527   7.664
    3AU    AUSL  877  24.997  44.372   7.769
    3AU    AUSL  878  25.175  43.756   7.791
    3AU     AUL  879  24.884  43.943   7.760
    3AU       S  880  24.991  43.529   7.968
    3AU     LIG  881  24.521  43.486   7.963
    3AU     LIG  882  24.237  43.385   8.246
    3AU       S  883  24.656  44.318   7.939
    3AU     LIG  884  24.132  44.459   7.981
    3AU     LIG  885  23.647  44.420   7.916
    3AU    AUSL  886  25.693   0.214   7.951
    3AU    AUSL  887  25.253   0.194   7.889
    3AU     AUL  888  25.503   0.222   8.249
    3AU       S  889  25.133   0.396   8.022
    3AU     LIG  890  24.716   0.490   8.227
    3AU     LIG  891  24.449   0.820   8.427
    3AU       S  892  25.649   0.604   8.005
    3AU     LIG  893  25.941   0.833   8.260
    3AU     LIG  894  26.010   1.269   8.408
    3AU    AUSL  895  25.493   0.412   7.605
    3AU    AUSL  896  25.819   0.458   7.260
    3AU     AUL  897  25.515   0.665   7.378
    3AU       S  898  25.658   0.834   7.830
    3AU     LIG  899  25.602   1.218   8.069
    3AU     LIG  900  25.581   1.593   8.356
    3AU       S  901  25.770   0.678   6.970
    3AU     LIG  902  26.050   1.044   7.102
    3AU     LIG  903  26.349   1.421   7.003
    3AU    AUSL  904  25.966   0.411   7.661
    3AU    AUSL  905  25.980   0.087   8.241
    3AU     AUL  906  26.057   0.358   8.022
    3AU       S  907  26.184   0.172   8.463
    3AU     LIG  908  26.477   0.195   8.825
    3AU     LIG  909  26.829   0.478   8.793
    3AU       S  910  25.893   0.690   7.719
    3AU     LIG  911  26.080   1.126   7.853
    3AU     LIG  912  25.977   1.559   7.991
    3AU    AUSL  913  25.770  43.780   8.134
    3AU    AUSL  914  26.326  43.777   7.708
    3AU     AUL  915  26.085  43.586   8.019
    3AU       S  916  25.484  43.217   8.085
    3AU     LIG  917  25.545  42.934   8.409
    3AU     LIG  918  25.696  42.573   8.663
    3AU       S  919  26.539  43.599   7.813
    3AU     LIG  920  26.746  43.183   8.079
    3AU     LIG  921  26.998  42.904   8.327
    3AU    AUSL  922  25.578  43.616   7.765
    3AU    AUSL  923  25.488  44.045   7.962
    3AU     AUL  924  25.413  43.706   8.120
    3AU       S  925  25.495  43.347   7.833
    3AU     LIG  926  25.141  43.108   7.733
    3AU     LIG  927  25.092  42.862   8.102
    3AU       S  928  24.958  43.539   8.253
    3AU     LIG  929  25.064  43.180   8.502
    3AU     LIG  930  24.889  42.906   8.860
    3AU    AUSL  931  25.916  43.874   7.691
    3AU    AUSL  932  25.538  43.746   7.358
    3AU     AUL  933  25.863  43.515   7.561
    3AU       S  934  25.389  43.402   7.368
    3AU     LIG  935  25.175  42.966   7.231
    3AU     LIG  936  24.973  42.647   6.948
    3AU       S  937  25.688  43.153   7.887
    3AU     LIG  938  26.022  43.069   8.112
    3AU     LIG  939  25.951  42.658   8.218
    3AU    AUSL  940  25.774   0.171   6.936
    3AU    AUSL  941  26.088   0.116   7.272
    3AU     AUL  942  26.132   0.389   7.048
    3AU       S  943  25.792   0.381   6.711
    3AU     LIG  944  26.138   0.745   6.648
    3AU     LIG  945  26.079   1.222   6.608
    3AU       S  946  26.774   0.165   6.803
    3AU     LIG  947  26.858   0.614   6.643
    3AU     LIG  948  27.085   1.070   6.689
    3AU    AUSL  949  25.510   0.134   7.287
    3AU    AUSL  950  25.397   0.044   6.795
    3AU     AUL  951  25.405   0.361   7.002
    3AU       S  952  25.643   0.670   6.700
    3AU     LIG  953  25.611   1.132   6.831
    3AU     LIG  954  25.823   1.518   6.979
    3AU       S  955  25.140   0.153   6.636
    3AU     LIG  956  24.929   0.296   6.253
    3AU     LIG  957  24.776   0.672   6.003
    3AU    AUSL  958  25.685  43.734   6.934
    3AU    AUSL  959  25.157  43.789   7.153
    3AU     AUL  960  25.397  43.653   6.972
    3AU       S  961  24.927  43.755   6.936
    3AU     LIG  962  24.978  43.317   6.893
    3AU     LIG  963  24.749  42.966   6.625
    3AU       S  964  25.592  43.271   7.185
    3AU     LIG  965  25.733  43.175   6.776
    3AU     LIG  966  25.811  42.839   6.428
    3AU    AUSL  967  25.949  43.874   7.268
    3AU    AUSL  968  26.022  43.977   6.825
    3AU     AUL  969  26.015  43.607   7.046
    3AU       S  970  25.596  43.164   7.384
    3AU     LIG  971  26.041  43.074   7.228
    3AU     LIG  972  26.081  42.813   6.865
    3AU       S  973  26.185  43.835   6.656
    3AU     LIG  974  26.251  43.450   6.402
    3AU     LIG  975  26.657  43.369   6.185
    4AU     AUC  976  32.080  42.918   7.492
    4AU     AUC  977  32.373  42.965   7.327
    4AU     AUC  978  32.347  42.935   7.660
    4AU     AUC  979  31.803  42.897   7.326
    4AU     AUC  980  31.803  42.900   7.676
    4AU     AUC  981  31.888  43.158   7.514
    4AU     AUC  982  32.221  43.192   7.495
    4AU     AUC  983  31.930  42.638   7.498
    4AU     AUC  984  32.280  42.688   7.478
    4AU     AUC  985  32.117  42.750   7.764
    4AU     AUC  986  32.059  43.071   7.768
    4AU     AUC  987  32.105  42.768   7.217
    4AU     AUC  988  32.096  43.105   7.230
    4AU     AUC  989  32.686  43.000   7.172
    4AU     AUC  990  32.725  42.981   7.492
    4AU     AUC  991  32.658  42.937   7.855
    4AU     AUC  992  31.499  42.867   7.150
    4AU     AUC  993  31.458  42.914   7.518
    4AU     AUC  994  31.514  42.885   7.853
    4AU     AUC  995  31.709  43.458   7.505
    4AU     AUC  996  32.041  43.532   7.496
    4AU     AUC  997  32.363  43.517   7.515
    4AU     AUC  998  31.754  42.314   7.500
    4AU     AUC  999  32.100  42.360   7.495
    4AU     AUC 1000  32.486  42.405   7.448
    4AU     AUC 1001  32.129  42.525   8.057
    4AU     AUC 1002  32.085  42.843   8.098
    4AU     AUC 1003  32.077  43.218   8.065
    4AU     AUC 1004  32.103  42.573   6.927
    4AU     AUC 1005  32.099  42.922   6.905
    4AU     AUC 1006  32.111  43.282   6.933
    4AU     AUC 1007  32.416  42.689   7.958
    4AU     AUC 1008  32.383  43.056   8.009
    4AU     AUC 1009  32.385  42.794   7.004
    4AU     AUC 1010  32.411  43.161   7.003
    4AU     AUC 1011  31.794  42.683   7.981
    4AU     AUC 1012  31.786  43.038   7.987
    4AU     AUC 1013  31.763  42.691   7.042
    4AU     AUC 1014  31.767  43.070   7.015
    4AU     AUC 1015  32.575  43.264   7.349
    4AU     AUC 1016  32.520  43.220   7.705
    4AU     AUC 1017  31.601  43.172   7.301
    4AU     AUC 1018  31.576  43.203   7.699
    4AU     AUC 1019  32.592  42.689   7.287
    4AU     AUC 1020  32.602  42.649   7.620
    4AU     AUC 1021  31.572  42.603   7.343
    4AU     AUC 1022  31.601  42.616   7.664
    4AU     AUC 1023  31.874  43.389   7.793
    4AU     AUC 1024  32.210  43.397   7.805
    4AU     AUC 1025  31.893  42.412   7.779
    4AU     AUC 1026  32.308  42.423   7.793
    4AU     AUC 1027  31.880  43.358   7.174
    4AU     AUC 1028  32.274  43.412   7.179
    4AU     AUC 1029  31.900  42.433   7.215
    4AU     AUC 1030  32.278  42.464   7.165
    4AU    AUSL 1031  32.677  42.838   8.227
    4AU    AUSL 1032  32.540  42.350   8.089
    4AU     AUL 1033  32.776  42.462   8.284
    4AU       S 1034  32.927  42.056   8.108
    4AU     LIG 1035  32.908  41.664   8.367
    4AU     LIG 1036  33.109  41.318   8.644
    4AU       S 1037  32.938  42.889   8.382
    4AU     LIG 1038  32.907  43.031   8.809
    4AU     LIG 1039  32.973  42.793   9.201
    4AU    AUSL 1040  32.279  42.643   8.291
    4AU    AUSL 1041  31.949  42.968   8.404
    4AU     AUL 1042  32.155  42.810   8.629
    4AU       S 1043  32.597  42.657   8.658
    4AU     LIG 1044  32.470  42.784   9.053
    4AU     LIG 1045  32.552  42.668   9.498
    4AU       S 1046  31.436  42.765   8.676
    4AU     LIG 1047  31.551  43.087   8.986
    4AU     LIG 1048  31.568  43.017   9.453
    4AU    AUSL 1049  32.284  43.073   8.164
    4AU    AUSL 1050  32.702  43.265   8.133
    4AU     AUL 1051  32.520  43.090   8.458
    4AU       S 1052  32.132  43.325   8.628
    4AU     LIG 1053  32.482  43.296   8.919
    4AU     LIG 1054  32.651  43.173   9.339
    4AU       S 1055  32.847  43.418   8.347
    4AU     LIG 1056  33.236  43.572   8.511
    4AU     LIG 1057  33.377  43.986   8.687
    4AU    AUSL 1058  32.659  43.061   6.750
    4AU    AUSL 1059  32.536  43.500   6.837
    4AU     AUL 1060  32.677  43.353   6.512
    4AU       S 1061  32.573  42.946   6.292
    4AU     LIG 1062  32.864  43.025   5.950
    4AU     LIG 1063  32.967  42.762   5.582
    4AU       S 1064  32.904  43.618   6.816
    4AU     LIG 1065  32.777  44.000   6.646
    4AU     LIG 1066  32.807  44.148   6.192
    4AU    AUSL 1067  32.308  42.812   6.702
    4AU    AUSL 1068  32.620  42.720   7.029
    4AU     AUL 1069  32.725  42.749   6.678
    4AU       S 1070  32.825  42.281   6.558
    4AU     LIG 1071  33.138  41.932   6.475
    4AU     LIG 1072  33.399  41.599   6.273
    4AU       S 1073  32.394  42.619   6.352
    4AU     LIG 1074  32.349  42.341   5.950
    4AU     LIG 1075  32.536  42.441   5.514
    4AU    AUSL 1076  32.231  43.247   6.646
    4AU    AUSL 1077  31.942  42.626   6.596
    4AU     AUL 1078  32.108  42.974   6.409
    4AU       S 1079  31.767  42.653   6.289
    4AU     LIG 1080  31.885  42.561   5.846
    4AU     LIG 1081  31.593  42.569   5.477
    4AU       S 1082  32.629  42.656   6.207
    4AU     LIG 1083  32.394  42.834   5.832
    4AU     LIG 1084  32.520  42.961   5.400
    4AU    AUSL 1085  31.592  42.845   8.173
    4AU    AUSL 1086  31.814  43.278   8.138
    4AU     AUL 1087  31.680  43.147   8.450
    4AU       S 1088  31.330  42.835   8.406
    4AU     LIG 1089  31.066  43.057   8.760
    4AU     LIG 1090  31.143  42.841   9.188
    4AU       S 1091  31.394  43.507   8.316
    4AU     LIG 1092  31.506  43.902   8.521
    4AU     LIG 1093  31.282  44.246   8.723
    4AU    AUSL 1094  31.860  42.533   8.366
    4AU    AUSL 1095  31.434  42.455   8.047
    4AU     AUL 1096  31.543  42.432   8.329
    4AU       S 1097  31.259  42.096   8.155
    4AU     LIG 1098  30.843  41.960   8.202
    4AU     LIG 1099  30.627  41.695   8.513
    4AU       S 1100  31.670  42.699   8.681
    4AU     LIG 1101  31.626  42.596   9.134
    4AU     LIG 1102  31.419  42.514   9.547
    4AU    AUSL 1103  31.555  42.782   6.729
    4AU    AUSL 1104  31.826  42.487   6.992
    4AU     AUL 1105  31.684  42.394   6.674
    4AU       S 1106  31.398  42.690   6.431
    4AU     LIG 1107  31.072  42.750   6.104
    4AU     LIG 1108  31.090  42.797   5.636
    4AU       S 1109  31.213  42.268   6.656
    4AU     LIG 1110  31.241  41.872   6.465
    4AU     LIG 1111  31.056  41.632   6.108
    4AU    AUSL 1112  31.904  43.038   6.824
    4AU    AUSL 1113  31.447  43.161   6.908
    4AU     AUL 1114  31.649  43.070   6.546
    4AU       S 1115  31.273  43.298   6.721
    4AU     LIG 1116  30.963  43.603   6.579
    4AU     LIG 1117  30.846  43.955   6.310
    4AU       S 1118  31.513  42.514   6.209
    4AU     LIG 1119  31.520  42.907   5.917
    4AU     LIG 1120  31.499  43.086   5.471
    4AU    AUSL 1121  32.770  43.541   7.554
    4AU    AUSL 1122  32.751  43.259   7.126
    4AU     AUL 1123  32.909  43.647   7.281
    4AU       S 1124  33.011  43.312   6.940
    4AU     LIG 1125  33.161  43.324   6.482
    4AU     LIG 1126  33.144  43.769   6.342
    4AU       S 1127  33.277  43.471   7.968
    4AU     LIG 1128  33.496  43.838   7.727
    4AU     LIG 1129  33.743  43.941   7.328
    4AU    AUSL 1130  33.052  43.209   7.424
    4AU    AUSL 1131  33.047  42.798   7.655
    4AU     AUL 1132  33.346  42.992   7.519
    4AU       S 1133  33.222  43.417   7.659
    4AU     LIG 1134  33.687  43.415   7.484
    4AU     LIG 1135  34.154  43.370   7.285
    4AU       S 1136  33.285  42.513   7.501
    4AU     LIG 1137  33.558  42.409   7.857
    4AU     LIG 1138  33.818  42.076   8.135
    4AU    AUSL 1139  32.768  43.122   7.738
    4AU    AUSL 1140  32.438  43.438   7.809
    4AU     AUL 1141  32.802  43.532   7.884
    4AU       S 1142  32.794  43.725   8.330
    4AU     LIG 1143  33.129  43.995   8.224
    4AU     LIG 1144  33.275  44.414   8.388
    4AU       S 1145  33.127  43.184   7.921
    4AU     LIG 1146  33.621  43.105   7.911
    4AU     LIG 1147  34.075  43.158   7.753
    4AU    AUSL 1148  31.427  43.410   7.540
    4AU    AUSL 1149  31.415  43.186   7.963
    4AU     AUL 1150  31.144  43.529   7.813
    4AU       S 1151  31.288  43.240   8.155
    4AU     LIG 1152  30.903  43.466   8.263
    4AU     LIG 1153  30.973  43.863   8.500
    4AU       S 1154  31.351  43.811   7.498
    4AU     LIG 1155  30.863  43.672   7.419
    4AU     LIG 1156  30.399  43.828   7.480
    4AU    AUSL 1157  31.356  43.036   7.301
    4AU    AUSL 1158  31.475  43.545   7.133
    4AU     AUL 1159  31.195  43.364   7.202
    4AU       S 1160  31.048  42.911   6.932
    4AU     LIG 1161  30.765  43.299   6.977
    4AU     LIG 1162  30.349  43.527   7.051
    4AU       S 1163  31.304  43.748   6.917
    4AU     LIG 1164  31.232  44.144   6.663
    4AU     LIG 1165  30.917  44.444   6.487
    4AU    AUSL 1166  31.115  43.099   7.663
    4AU    AUSL 1167  31.121  42.689   7.406
    4AU     AUL 1168  30.961  42.989   7.380
    4AU       S 1169  30.904  42.642   7.715
    4AU     LIG 1170  30.573  42.627   7.441
    4AU     LIG 1171  30.266  42.301   7.307
    4AU       S 1172  30.849  43.148   7.830
    4AU     LIG 1173  30.576  43.515   7.850
    4AU     LIG 1174  30.118  43.659   7.908
    4AU    AUSL 1175  32.778  42.524   7.429
    4AU    AUSL 1176  32.671  42.673   7.833
    4AU     AUL 1177  32.993  42.548   7.860
    4AU       S 1178  33.080  42.352   7.431
    4AU     LIG 1179  33.318  41.984   7.484
    4AU     LIG 1180  33.716  41.976   7.651
    4AU       S 1181  33.173  42.094   7.955
    4AU     LIG 1182  33.388  41.787   8.249
    4AU     LIG 1183  33.489  41.680   8.699
    4AU    AUSL 1184  32.993  42.841   7.198
    4AU    AUSL 1185  32.718  42.271   7.086
    4AU     AUL 1186  32.940  42.524   7.025
    4AU       S 1187  33.316  42.583   7.279
    4AU     LIG 1188  33.670  42.290   7.236
    4AU     LIG 1189  34.120  42.286   7.101
    4AU       S 1190  32.808  42.119   6.809
    4AU     LIG 1191  32.907  41.638   6.845
    4AU     LIG 1192  33.256  41.321   6.732
    4AU    AUSL 1193  31.499  42.458   7.489
    4AU    AUSL 1194  31.393  42.604   7.080
    4AU     AUL 1195  31.129  42.389   7.306
    4AU       S 1196  31.231  42.451   6.857
    4AU     LIG 1197  30.807  42.216   6.930
    4AU     LIG 1198  30.721  41.901   6.588
    4AU       S 1199  30.914  42.523   8.021
    4AU     LIG 1200  30.623  42.217   7.769
    4AU     LIG 1201  30.282  41.882   7.649
    4AU    AUSL 1202  31.360  42.765   7.769
    4AU    AUSL 1203  31.564  42.141   7.762
    4AU     AUL 1204  31.260  42.333   7.754
    4AU       S 1205  31.409  41.893   7.884
    4AU     LIG 1206  31.066  41.551   7.941
    4AU     LIG 1207  30.819  41.289   8.244
    4AU       S 1208  31.039  42.720   7.943
    4AU     LIG 1209  30.494  42.751   7.954
    4AU     LIG 1210  30.148  42.475   7.777
    4AU    AUSL 1211  32.039  43.607   7.961
    4AU    AUSL 1212  31.600  43.582   7.900
    4AU     AUL 1213  31.849  43.607   8.259
    4AU       S 1214  31.485  43.783   8.020
    4AU     LIG 1215  31.244  44.154   8.155
    4AU     LIG 1216  31.233  44.593   8.339
    4AU       S 1217  31.986  44.001   8.025
    4AU     LIG 1218  32.211  44.298   8.315
    4AU     LIG 1219  32.105  44.708   8.525
    4AU    AUSL 1220  31.834  43.807   7.618
    4AU    AUSL 1221  32.169  43.873   7.276
    4AU     AUL 1222  31.848  44.061   7.395
    4AU       S 1223  31.967  44.239   7.853
    4AU     LIG 1224  31.997  44.669   8.013
    4AU     LIG 1225  31.667  44.924   8.249
    4AU       S 1226  32.131  44.101   7.013
    4AU     LIG 1227  32.487  44.328   7.140
    4AU     LIG 1228  32.534  44.778   7.110
    4AU    AUSL 1229  32.307  43.820   7.679
    4AU    AUSL 1230  32.333  43.488   8.248
    4AU     AUL 1231  32.400  43.761   8.034
    4AU       S 1232  32.561  43.593   8.477
    4AU     LIG 1233  32.847  43.925   8.765
    4AU     LIG 1234  33.052  44.358   8.863
    4AU       S 1235  32.213  44.089   7.738
    4AU     LIG 1236  32.446  44.424   7.878
    4AU     LIG 1237  32.490  44.747   8.188
    4AU    AUSL 1238  32.148  42.180   8.134
    4AU    AUSL 1239  32.706  42.192   7.699
    4AU     AUL 1240  32.466  41.993   8.011
    4AU       S 1241  32.059  41.654   8.115
    4AU     LIG 1242  31.952  41.212   8.194
    4AU     LIG 1243  32.021  40.788   8.382
    4AU       S 1244  32.902  42.056   7.790
    4AU     LIG 1245  33.091  41.611   7.840
    4AU     LIG 1246  33.175  41.280   8.136
    4AU    AUSL 1247  31.971  42.007   7.761
    4AU    AUSL 1248  31.866  42.435   7.948
    4AU     AUL 1249  31.798  42.089   8.098
    4AU       S 1250  31.925  41.708   7.852
    4AU     LIG 1251  31.643  41.364   7.802
    4AU     LIG 1252  31.677  40.891   7.872
    4AU       S 1253  31.373  41.873   8.182
    4AU     LIG 1254  31.225  41.556   8.437
    4AU     LIG 1255  30.962  41.372   8.764
    4AU    AUSL 1256  32.295  42.282   7.684
    4AU    AUSL 1257  31.923  42.151   7.359
    4AU     AUL 1258  32.249  41.921   7.553
    4AU       S 1259  31.774  41.803   7.385
    4AU     LIG 1260  31.557  41.546   7.073
    4AU     LIG 1261  31.768  41.125   7.046
    4AU       S 1262  32.193  41.562   7.882
    4AU     LIG 1263  32.136  41.172   7.710
    4AU     LIG 1264  32.224  40.814   7.916
    4AU    AUSL 1265  32.132  43.598   6.941
    4AU    AUSL 1266  32.439  43.532   7.281
    4AU     AUL 1267  32.491  43.806   7.054
    4AU       S 1268  32.153  43.823   6.715
    4AU     LIG 1269  32.366  44.218   6.438
    4AU     LIG 1270  32.368  44.673   6.314
    4AU       S 1271  33.220  43.521   6.930
    4AU     LIG 1272  33.281  43.968   6.822
    4AU     LIG 1273  33.178  44.302   6.513
    4AU    AUSL 1274  31.869  43.540   7.292
    4AU    AUSL 1275  31.762  43.449   6.801
    4AU     AUL 1276  31.766  43.770   7.004
    4AU       S 1277  32.062  44.102   6.792
    4AU     LIG 1278  32.196  44.561   6.785
    4AU     LIG 1279  32.106   0.006   6.819
    4AU       S 1280  31.503  43.563   6.642
    4AU     LIG 1281  31.356  43.814   6.291
    4AU     LIG 1282  31.239  44.237   6.121
    4AU    AUSL 1283  32.066  42.136   6.933
    4AU    AUSL 1284  31.538  42.182   7.158
    4AU     AUL 1285  31.783  42.044   6.983
    4AU       S 1286  31.316  42.144   6.923
    4AU     LIG 1287  31.061  41.746   6.948
    4AU     LIG 1288  30.702  41.432   6.830
    4AU       S 1289  32.024  41.679   7.207
    4AU     LIG 1290  32.050  41.511   6.829
    4AU     LIG 1291  32.219  41.110   6.687
    4AU    AUSL 1292  32.333  42.280   7.262
    4AU    AUSL 1293  32.379  42.407   6.821
    4AU     AUL 1294  32.399  42.026   7.033
    4AU       S 1295  31.952  41.521   7.392
    4AU     LIG 1296  32.266  41.197   7.205
    4AU     LIG 1297  32.459  40.791   7.018
    4AU       S 1298  32.535  42.265   6.638
    4AU     LIG 1299  32.606  41.833   6.443
    4AU     LIG 1300  32.898  41.481   6.350
    5AU     AUC 1301  15.873  39.010   7.494
    5AU     AUC 1302  16.166  39.052   7.325
    5AU     AUC 1303  16.142  39.023   7.659
    5AU     AUC 1304  15.594  38.992   7.328
    5AU     AUC 1305  15.599  38.999   7.680
    5AU     AUC 1306  15.685  39.250   7.517
    5AU     AUC 1307  16.018  39.280   7.495
    5AU     AUC 1308  15.718  38.733   7.502
    5AU     AUC 1309  16.068  38.777   7.478
    5AU     AUC 1310  15.907  38.842   7.768
    5AU     AUC 1311  15.857  39.165   7.769
    5AU     AUC 1312  15.894  38.859   7.218
    5AU     AUC 1313  15.887  39.194   7.230
    5AU     AUC 1314  16.478  39.083   7.166
    5AU     AUC 1315  16.519  39.064   7.485
    5AU     AUC 1316  16.455  39.018   7.851
    5AU     AUC 1317  15.289  38.965   7.155
    5AU     AUC 1318  15.252  39.011   7.523
    5AU     AUC 1319  15.306  38.989   7.864
    5AU     AUC 1320  15.511  39.556   7.509
    5AU     AUC 1321  15.845  39.626   7.495
    5AU     AUC 1322  16.167  39.601   7.511
    5AU     AUC 1323  15.537  38.412   7.509
    5AU     AUC 1324  15.882  38.454   7.499
    5AU     AUC 1325  16.267  38.492   7.448
    5AU     AUC 1326  15.917  38.621   8.063
    5AU     AUC 1327  15.879  38.941   8.102
    5AU     AUC 1328  15.881  39.316   8.065
    5AU     AUC 1329  15.888  38.662   6.928
    5AU     AUC 1330  15.887  39.011   6.904
    5AU     AUC 1331  15.901  39.367   6.931
    5AU     AUC 1332  16.208  38.777   7.959
    5AU     AUC 1333  16.183  39.143   8.008
    5AU     AUC 1334  16.172  38.879   7.003
    5AU     AUC 1335  16.204  39.245   7.000
    5AU     AUC 1336  15.585  38.787   7.990
    5AU     AUC 1337  15.586  39.141   7.991
    5AU     AUC 1338  15.552  38.787   7.044
    5AU     AUC 1339  15.556  39.164   7.016
    5AU     AUC 1340  16.374  39.347   7.344
    5AU     AUC 1341  16.321  39.304   7.702
    5AU     AUC 1342  15.393  39.269   7.305
    5AU     AUC 1343  15.376  39.302   7.701
    5AU     AUC 1344  16.379  38.773   7.284
    5AU     AUC 1345  16.389  38.734   7.618
    5AU     AUC 1346  15.363  38.700   7.346
    5AU     AUC 1347  15.393  38.719   7.670
    5AU     AUC 1348  15.681  39.490   7.793
    5AU     AUC 1349  16.016  39.488   7.802
    5AU     AUC 1350  15.675  38.511   7.789
    5AU     AUC 1351  16.091  38.516   7.796
    5AU     AUC 1352  15.672  39.448   7.178
    5AU     AUC 1353  16.066  39.497   7.181
    5AU     AUC 1354  15.687  38.527   7.218
    5AU     AUC 1355  16.062  38.551   7.166
    5AU    AUSL 1356  16.473  38.916   8.224
    5AU    AUSL 1357  16.327  38.442   8.092
    5AU     AUL 1358  16.600  38.528   8.271
    5AU       S 1359  16.726  38.128   8.078
    5AU     LIG 1360  16.767  37.801   8.397
    5AU     LIG 1361  16.791  37.544   8.806
    5AU       S 1362  16.719  38.960   8.363
    5AU     LIG 1363  16.744  39.155   8.757
    5AU     LIG 1364  16.845  38.923   9.146
    5AU    AUSL 1365  16.066  38.736   8.293
    5AU    AUSL 1366  15.749  39.074   8.407
    5AU     AUL 1367  15.933  38.927   8.642
    5AU       S 1368  16.313  38.674   8.590
    5AU     LIG 1369  16.347  38.887   8.959
    5AU     LIG 1370  16.411  38.751   9.395
    5AU       S 1371  15.247  38.897   8.695
    5AU     LIG 1372  15.301  39.148   9.086
    5AU     LIG 1373  15.275  39.130   9.565
    5AU    AUSL 1374  16.084  39.163   8.162
    5AU    AUSL 1375  16.506  39.343   8.129
    5AU     AUL 1376  16.316  39.167   8.459
    5AU       S 1377  15.941  39.429   8.629
    5AU     LIG 1378  16.317  39.413   8.898
    5AU     LIG 1379  16.490  39.263   9.291
    5AU       S 1380  16.645  39.492   8.346
    5AU     LIG 1381  17.000  39.608   8.589
    5AU     LIG 1382  17.159  39.990   8.806
    5AU    AUSL 1383  16.448  39.141   6.746
    5AU    AUSL 1384  16.325  39.584   6.832
    5AU     AUL 1385  16.476  39.423   6.509
    5AU       S 1386  16.359  39.020   6.282
    5AU     LIG 1387  16.717  39.098   5.997
    5AU     LIG 1388  16.814  38.861   5.597
    5AU       S 1389  16.665  39.729   6.799
    5AU     LIG 1390  16.690  39.976   6.435
    5AU     LIG 1391  16.997  40.274   6.254
    5AU    AUSL 1392  16.093  38.897   6.703
    5AU    AUSL 1393  16.406  38.802   7.025
    5AU     AUL 1394  16.507  38.829   6.673
    5AU       S 1395  16.594  38.354   6.560
    5AU     LIG 1396  16.921  38.063   6.430
    5AU     LIG 1397  17.161  37.837   6.091
    5AU       S 1398  16.179  38.696   6.348
    5AU     LIG 1399  16.157  38.420   5.933
    5AU     LIG 1400  16.467  38.438   5.560
    5AU    AUSL 1401  16.023  39.330   6.638
    5AU    AUSL 1402  15.725  38.717   6.594
    5AU     AUL 1403  15.898  39.057   6.409
    5AU       S 1404  15.548  38.749   6.288
    5AU     LIG 1405  15.707  38.695   5.857
    5AU     LIG 1406  15.467  38.725   5.449
    5AU       S 1407  16.433  38.724   6.203
    5AU     LIG 1408  16.299  38.889   5.783
    5AU     LIG 1409  16.449  39.212   5.487
    5AU    AUSL 1410  15.388  38.956   8.182
    5AU    AUSL 1411  15.621  39.385   8.138
    5AU     AUL 1412  15.486  39.264   8.451
    5AU       S 1413  15.128  38.957   8.432
    5AU     LIG 1414  14.836  39.106   8.832
    5AU     LIG 1415  14.861  38.951   9.292
    5AU       S 1416  15.201  39.630   8.308
    5AU     LIG 1417  14.929  39.929   8.577
    5AU     LIG 1418  14.614  40.215   8.835
    5AU    AUSL 1419  15.648  38.639   8.378
    5AU    AUSL 1420  15.216  38.571   8.066
    5AU     AUL 1421  15.333  38.547   8.347
    5AU       S 1422  14.969  38.283   8.185
    5AU     LIG 1423  14.554  38.148   8.285
    5AU     LIG 1424  14.432  37.799   8.570
    5AU       S 1425  15.460  38.819   8.697
    5AU     LIG 1426  15.395  38.649   9.140
    5AU     LIG 1427  15.205  38.606   9.576
    5AU    AUSL 1428  15.341  38.878   6.730
    5AU    AUSL 1429  15.613  38.583   6.992
    5AU     AUL 1430  15.462  38.494   6.674
    5AU       S 1431  15.175  38.790   6.429
    5AU     LIG 1432  14.862  38.806   6.061
    5AU     LIG 1433  14.931  38.829   5.590
    5AU       S 1434  14.986  38.373   6.674
    5AU     LIG 1435  14.982  37.952   6.532
    5AU     LIG 1436  14.713  37.692   6.261
    5AU    AUSL 1437  15.693  39.134   6.824
    5AU    AUSL 1438  15.237  39.254   6.915
    5AU     AUL 1439  15.439  39.161   6.547
    5AU       S 1440  15.065  39.386   6.725
    5AU     LIG 1441  14.735  39.678   6.593
    5AU     LIG 1442  14.573  40.008   6.306
    5AU       S 1443  15.306  38.622   6.208
    5AU     LIG 1444  15.307  39.009   5.912
    5AU     LIG 1445  15.274  39.213   5.479
    5AU    AUSL 1446  16.575  39.622   7.548
    5AU    AUSL 1447  16.552  39.345   7.115
    5AU     AUL 1448  16.714  39.724   7.267
    5AU       S 1449  16.801  39.404   6.921
    5AU     LIG 1450  16.960  39.359   6.471
    5AU     LIG 1451  17.152  39.762   6.331
    5AU       S 1452  17.093  39.535   7.902
    5AU     LIG 1453  17.290  39.879   7.639
    5AU     LIG 1454  17.477  40.265   7.619
    5AU    AUSL 1455  16.850  39.283   7.415
    5AU    AUSL 1456  16.839  38.872   7.643
    5AU     AUL 1457  17.148  39.049   7.514
    5AU       S 1458  17.018  39.473   7.631
    5AU     LIG 1459  17.486  39.434   7.454
    5AU     LIG 1460  17.816  39.278   7.141
    5AU       S 1461  17.045  38.586   7.464
    5AU     LIG 1462  17.313  38.489   7.788
    5AU     LIG 1463  17.662  38.205   7.760
    5AU    AUSL 1464  16.569  39.202   7.733
    5AU    AUSL 1465  16.245  39.522   7.806
    5AU     AUL 1466  16.615  39.605   7.881
    5AU       S 1467  16.611  39.805   8.331
    5AU     LIG 1468  16.916  40.125   8.375
    5AU     LIG 1469  17.102  40.505   8.583
    5AU       S 1470  16.932  39.250   7.913
    5AU     LIG 1471  17.444  39.197   7.907
    5AU     LIG 1472  17.774  39.559   7.930
    5AU    AUSL 1473  15.222  39.508   7.543
    5AU    AUSL 1474  15.220  39.295   7.965
    5AU     AUL 1475  14.955  39.634   7.805
    5AU       S 1476  15.098  39.367   8.167
    5AU     LIG 1477  14.688  39.598   8.241
    5AU     LIG 1478  14.425  39.938   8.428
    5AU       S 1479  15.175  39.921   7.500
    5AU     LIG 1480  14.707  40.003   7.584
    5AU     LIG 1481  14.265  40.118   7.499
    5AU    AUSL 1482  15.145  39.137   7.310
    5AU    AUSL 1483  15.273  39.639   7.137
    5AU     AUL 1484  14.987  39.466   7.205
    5AU       S 1485  14.830  39.014   6.954
    5AU     LIG 1486  14.403  39.219   7.065
    5AU     LIG 1487  14.052  39.536   7.004
    5AU       S 1488  15.100  39.839   6.905
    5AU     LIG 1489  14.954  40.185   6.620
    5AU     LIG 1490  14.668  40.524   6.433
    5AU    AUSL 1491  14.911  39.198   7.679
    5AU    AUSL 1492  14.911  38.789   7.414
    5AU     AUL 1493  14.753  39.102   7.401
    5AU       S 1494  14.690  38.734   7.697
    5AU     LIG 1495  14.414  38.719   7.348
    5AU     LIG 1496  14.063  38.448   7.287
    5AU       S 1497  14.679  39.247   7.864
    5AU     LIG 1498  14.406  39.611   7.777
    5AU     LIG 1499  14.164  39.937   7.983
    5AU    AUSL 1500  16.557  38.607   7.422
    5AU    AUSL 1501  16.464  38.756   7.829
    5AU     AUL 1502  16.787  38.626   7.845
    5AU       S 1503  16.864  38.419   7.420
    5AU     LIG 1504  17.194  38.106   7.431
    5AU     LIG 1505  17.538  38.038   7.146
    5AU       S 1506  16.944  38.148   7.873
    5AU     LIG 1507  17.221  38.064   8.230
    5AU     LIG 1508  17.214  37.873   8.666
    5AU    AUSL 1509  16.782  38.918   7.187
    5AU    AUSL 1510  16.499  38.351   7.082
    5AU     AUL 1511  16.721  38.603   7.019
    5AU       S 1512  17.105  38.647   7.264
    5AU     LIG 1513  17.524  38.530   7.325
    5AU     LIG 1514  17.857  38.775   7.204
    5AU       S 1515  16.600  38.190   6.814
    5AU     LIG 1516  16.808  37.734   6.834
    5AU     LIG 1517  16.982  37.274   6.715
    5AU    AUSL 1518  15.289  38.550   7.492
    5AU    AUSL 1519  15.185  38.709   7.087
    5AU     AUL 1520  14.919  38.490   7.314
    5AU       S 1521  15.012  38.560   6.865
    5AU     LIG 1522  14.580  38.362   6.969
    5AU     LIG 1523  14.464  37.998   6.692
    5AU       S 1524  14.611  38.546   7.866
    5AU     LIG 1525  14.519  38.238   7.531
    5AU     LIG 1526  14.225  37.939   7.319
    5AU    AUSL 1527  15.161  38.865   7.769
    5AU    AUSL 1528  15.338  38.249   7.787
    5AU     AUL 1529  15.057  38.435   7.759
    5AU       S 1530  15.149  38.019   7.958
    5AU     LIG 1531  14.712  37.847   7.906
    5AU     LIG 1532  14.462  37.505   8.129
    5AU       S 1533  14.805  38.794   7.931
    5AU     LIG 1534  14.300  38.892   7.977
    5AU     LIG 1535  14.078  38.478   7.835
    5AU    AUSL 1536  15.854  39.709   7.958
    5AU    AUSL 1537  15.415  39.685   7.890
    5AU     AUL 1538  15.662  39.718   8.251
    5AU       S 1539  15.295  39.883   8.014
    5AU     LIG 1540  14.873  40.054   8.079
    5AU     LIG 1541  14.718  40.370   8.364
    5AU       S 1542  15.829  40.110   8.018
    5AU     LIG 1543  16.060  40.408   8.319
    5AU     LIG 1544  16.157  40.812   8.543
    5AU    AUSL 1545  15.654  39.922   7.620
    5AU    AUSL 1546  15.976  39.958   7.265
    5AU     AUL 1547  15.693  40.176   7.382
    5AU       S 1548  15.878  40.350   7.833
    5AU     LIG 1549  15.876  40.808   7.980
    5AU     LIG 1550  15.562  41.151   8.146
    5AU       S 1551  15.922  40.167   6.944
    5AU     LIG 1552  16.106  40.534   7.075
    5AU     LIG 1553  16.026  40.981   6.933
    5AU    AUSL 1554  16.126  39.904   7.665
    5AU    AUSL 1555  16.143  39.576   8.245
    5AU     AUL 1556  16.222  39.846   8.025
    5AU       S 1557  16.363  39.669   8.462
    5AU     LIG 1558  16.616  39.881   8.817
    5AU     LIG 1559  16.766  40.318   8.919
    5AU       S 1560  16.072  40.171   7.714
    5AU     LIG 1561  16.386  40.420   7.938
    5AU     LIG 1562  16.418  40.857   8.116
    5AU    AUSL 1563  15.932  38.277   8.137
    5AU    AUSL 1564  16.482  38.280   7.697
    5AU     AUL 1565  16.250  38.092   8.021
    5AU       S 1566  15.857  37.765   8.114
    5AU     LIG 1567  15.602  37.448   8.287
    5AU     LIG 1568  15.688  37.025   8.452
    5AU       S 1569  16.661  38.136   7.763
    5AU     LIG 1570  16.541  37.702   7.899
    5AU     LIG 1571  16.714  37.343   8.123
    5AU    AUSL 1572  15.742  38.107   7.768
    5AU    AUSL 1573  15.648  38.537   7.961
    5AU     AUL 1574  15.575  38.190   8.112
    5AU       S 1575  15.689  37.807   7.855
    5AU     LIG 1576  15.566  37.373   7.781
    5AU     LIG 1577  15.731  36.965   7.928
    5AU       S 1578  15.099  38.079   8.218
    5AU     LIG 1579  15.144  37.766   8.503
    5AU     LIG 1580  14.893  37.670   8.880
    5AU    AUSL 1581  16.072  38.373   7.688
    5AU    AUSL 1582  15.703  38.248   7.364
    5AU     AUL 1583  16.025  38.013   7.565
    5AU       S 1584  15.568  37.902   7.381
    5AU     LIG 1585  15.339  37.698   7.048
    5AU     LIG 1586  15.606  37.340   6.934
    5AU       S 1587  15.976  37.652   7.894
    5AU     LIG 1588  16.101  37.260   7.690
    5AU     LIG 1589  16.209  36.800   7.773
    5AU    AUSL 1590  15.921  39.662   6.952
    5AU    AUSL 1591  16.243  39.614   7.278
    5AU     AUL 1592  16.282  39.889   7.050
    5AU       S 1593  15.929  39.862   6.716
    5AU     LIG 1594  16.201  40.152   6.483
    5AU     LIG 1595  16.140  40.603   6.571
    5AU       S 1596  16.956  39.678   6.841
    5AU     LIG 1597  17.032  40.139   6.791
    5AU     LIG 1598  17.001  40.603   6.740
    5AU    AUSL 1599  15.663  39.637   7.307
    5AU    AUSL 1600  15.547  39.544   6.796
    5AU     AUL 1601  15.556  39.861   7.021
    5AU       S 1602  15.763  40.171   6.705
    5AU     LIG 1603  15.646  40.620   6.848
    5AU     LIG 1604  15.351  41.016   6.848
    5AU       S 1605  15.299  39.655   6.645
    5AU     LIG 1606  15.107  39.845   6.269
    5AU     LIG 1607  14.959  40.250   6.065
    5AU    AUSL 1608  15.846  38.225   6.939
    5AU    AUSL 1609  15.322  38.281   7.156
    5AU     AUL 1610  15.564  38.144   6.980
    5AU       S 1611  15.099  38.257   6.930
    5AU     LIG 1612  14.841  37.913   7.039
    5AU     LIG 1613  14.734  37.553   6.764
    5AU       S 1614  15.816  37.778   7.193
    5AU     LIG 1615  15.985  37.681   6.793
    5AU     LIG 1616  16.000  37.257   6.593
    5AU    AUSL 1617  16.118  38.365   7.266
    5AU    AUSL 1618  16.161  38.491   6.821
    5AU     AUL 1619  16.181  38.113   7.033
    5AU       S 1620  15.759  37.619   7.382
    5AU     LIG 1621  16.112  37.344   7.164
    5AU     LIG 1622  16.295  36.954   6.952
    5AU       S 1623  16.317  38.332   6.631
    5AU     LIG 1624  16.409  37.857   6.501
    5AU     LIG 1625  16.765  37.584   6.330
    6AU     AUC 1626   6.187   5.628   7.501
    6AU     AUC 1627   6.483   5.672   7.336
    6AU     AUC 1628   6.452   5.644   7.670
    6AU     AUC 1629   5.909   5.608   7.334
    6AU     AUC 1630   5.909   5.612   7.684
    6AU     AUC 1631   5.997   5.867   7.523
    6AU     AUC 1632   6.330   5.900   7.504
    6AU     AUC 1633   6.033   5.349   7.507
    6AU     AUC 1634   6.385   5.398   7.490
    6AU     AUC 1635   6.220   5.460   7.774
    6AU     AUC 1636   6.166   5.782   7.777
    6AU     AUC 1637   6.214   5.478   7.227
    6AU     AUC 1638   6.204   5.811   7.237
    6AU     AUC 1639   6.798   5.703   7.184
    6AU     AUC 1640   6.833   5.690   7.504
    6AU     AUC 1641   6.763   5.644   7.868
    6AU     AUC 1642   5.606   5.581   7.157
    6AU     AUC 1643   5.564   5.627   7.525
    6AU     AUC 1644   5.617   5.601   7.862
    6AU     AUC 1645   5.820   6.169   7.512
    6AU     AUC 1646   6.153   6.241   7.502
    6AU     AUC 1647   6.474   6.223   7.522
    6AU     AUC 1648   5.855   5.027   7.508
    6AU     AUC 1649   6.201   5.071   7.504
    6AU     AUC 1650   6.589   5.114   7.462
    6AU     AUC 1651   6.229   5.235   8.066
    6AU     AUC 1652   6.186   5.556   8.107
    6AU     AUC 1653   6.185   5.931   8.073
    6AU     AUC 1654   6.213   5.280   6.935
    6AU     AUC 1655   6.207   5.629   6.915
    6AU     AUC 1656   6.221   5.985   6.938
    6AU     AUC 1657   6.520   5.398   7.970
    6AU     AUC 1658   6.489   5.765   8.019
    6AU     AUC 1659   6.498   5.495   7.018
    6AU     AUC 1660   6.524   5.863   7.013
    6AU     AUC 1661   5.895   5.397   7.991
    6AU     AUC 1662   5.892   5.753   7.995
    6AU     AUC 1663   5.871   5.404   7.049
    6AU     AUC 1664   5.875   5.780   7.021
    6AU     AUC 1665   6.686   5.970   7.357
    6AU     AUC 1666   6.627   5.927   7.714
    6AU     AUC 1667   5.709   5.882   7.309
    6AU     AUC 1668   5.685   5.917   7.705
    6AU     AUC 1669   6.702   5.394   7.303
    6AU     AUC 1670   6.706   5.357   7.633
    6AU     AUC 1671   5.678   5.317   7.349
    6AU     AUC 1672   5.704   5.328   7.672
    6AU     AUC 1673   5.985   6.103   7.800
    6AU     AUC 1674   6.320   6.108   7.812
    6AU     AUC 1675   5.992   5.124   7.788
    6AU     AUC 1676   6.410   5.133   7.803
    6AU     AUC 1677   5.989   6.064   7.182
    6AU     AUC 1678   6.383   6.116   7.187
    6AU     AUC 1679   6.003   5.147   7.222
    6AU     AUC 1680   6.385   5.173   7.176
    6AU    AUSL 1681   6.779   5.540   8.244
    6AU    AUSL 1682   6.645   5.058   8.101
    6AU     AUL 1683   6.920   5.139   8.308
    6AU       S 1684   7.044   4.758   8.080
    6AU     LIG 1685   6.930   4.527   8.408
    6AU     LIG 1686   7.153   4.304   8.737
    6AU       S 1687   7.011   5.580   8.340
    6AU     LIG 1688   7.028   5.716   8.766
    6AU     LIG 1689   7.144   5.454   9.137
    6AU    AUSL 1690   6.371   5.353   8.289
    6AU    AUSL 1691   6.051   5.684   8.410
    6AU     AUL 1692   6.226   5.553   8.650
    6AU       S 1693   6.559   5.264   8.546
    6AU     LIG 1694   6.632   5.441   8.955
    6AU     LIG 1695   6.714   5.304   9.399
    6AU       S 1696   5.527   5.487   8.699
    6AU     LIG 1697   5.644   5.783   9.051
    6AU     LIG 1698   5.621   5.866   9.521
    6AU    AUSL 1699   6.389   5.784   8.174
    6AU    AUSL 1700   6.807   5.968   8.143
    6AU     AUL 1701   6.617   5.788   8.472
    6AU       S 1702   6.235   6.047   8.633
    6AU     LIG 1703   6.611   6.007   8.911
    6AU     LIG 1704   6.806   5.814   9.274
    6AU       S 1705   6.950   6.115   8.358
    6AU     LIG 1706   7.371   6.209   8.495
    6AU     LIG 1707   7.572   6.516   8.782
    6AU    AUSL 1708   6.769   5.756   6.762
    6AU    AUSL 1709   6.647   6.200   6.842
    6AU     AUL 1710   6.798   6.036   6.520
    6AU       S 1711   6.689   5.633   6.297
    6AU     LIG 1712   7.025   5.620   5.941
    6AU     LIG 1713   7.192   5.382   5.560
    6AU       S 1714   6.983   6.334   6.817
    6AU     LIG 1715   6.887   6.541   6.452
    6AU     LIG 1716   7.143   6.838   6.198
    6AU    AUSL 1717   6.414   5.508   6.730
    6AU    AUSL 1718   6.736   5.419   7.045
    6AU     AUL 1719   6.837   5.445   6.689
    6AU       S 1720   6.803   4.671   6.647
    6AU     LIG 1721   7.209   4.631   6.408
    6AU     LIG 1722   7.490   4.438   6.077
    6AU       S 1723   6.495   5.296   6.375
    6AU     LIG 1724   6.421   5.083   5.924
    6AU     LIG 1725   6.706   5.167   5.540
    6AU    AUSL 1726   6.348   5.942   6.650
    6AU    AUSL 1727   6.050   5.336   6.599
    6AU     AUL 1728   6.228   5.668   6.420
    6AU       S 1729   5.869   5.368   6.282
    6AU     LIG 1730   5.920   5.229   5.812
    6AU     LIG 1731   5.644   5.116   5.428
    6AU       S 1732   6.692   5.366   6.223
    6AU     LIG 1733   6.529   5.568   5.823
    6AU     LIG 1734   6.778   5.686   5.446
    6AU    AUSL 1735   5.693   5.563   8.183
    6AU    AUSL 1736   5.923   5.996   8.145
    6AU     AUL 1737   5.787   5.864   8.458
    6AU       S 1738   5.428   5.562   8.420
    6AU     LIG 1739   5.196   5.834   8.782
    6AU     LIG 1740   5.182   5.687   9.265
    6AU       S 1741   5.504   6.224   8.319
    6AU     LIG 1742   5.275   6.383   8.671
    6AU     LIG 1743   5.025   6.696   8.907
    6AU    AUSL 1744   5.956   5.248   8.379
    6AU    AUSL 1745   5.532   5.175   8.057
    6AU     AUL 1746   5.634   5.152   8.338
    6AU       S 1747   5.341   4.815   8.165
    6AU     LIG 1748   4.917   4.692   8.314
    6AU     LIG 1749   4.658   4.578   8.674
    6AU       S 1750   5.757   5.424   8.687
    6AU     LIG 1751   5.863   5.326   9.115
    6AU     LIG 1752   5.660   5.358   9.538
    6AU    AUSL 1753   5.662   5.493   6.730
    6AU    AUSL 1754   5.933   5.205   6.997
    6AU     AUL 1755   5.791   5.114   6.676
    6AU       S 1756   5.492   5.409   6.438
    6AU     LIG 1757   5.160   5.392   6.078
    6AU     LIG 1758   5.205   5.380   5.596
    6AU       S 1759   5.328   4.956   6.656
    6AU     LIG 1760   5.412   4.501   6.582
    6AU     LIG 1761   5.216   4.141   6.347
    6AU    AUSL 1762   6.012   5.750   6.829
    6AU    AUSL 1763   5.557   5.869   6.915
    6AU     AUL 1764   5.763   5.778   6.549
    6AU       S 1765   5.384   6.005   6.726
    6AU     LIG 1766   5.066   6.317   6.593
    6AU     LIG 1767   4.946   6.703   6.362
    6AU       S 1768   5.613   5.241   6.230
    6AU     LIG 1769   5.591   5.600   5.912
    6AU     LIG 1770   5.645   5.642   5.446
    6AU    AUSL 1771   6.880   6.250   7.563
    6AU    AUSL 1772   6.867   5.963   7.132
    6AU     AUL 1773   7.025   6.348   7.283
    6AU       S 1774   7.119   6.017   6.947
    6AU     LIG 1775   7.270   5.925   6.511
    6AU     LIG 1776   7.333   6.329   6.291
    6AU       S 1777   7.383   6.209   7.979
    6AU     LIG 1778   7.569   6.564   7.720
    6AU     LIG 1779   7.902   6.587   7.388
    6AU    AUSL 1780   7.162   5.915   7.438
    6AU    AUSL 1781   7.154   5.506   7.676
    6AU     AUL 1782   7.455   5.693   7.547
    6AU       S 1783   7.325   6.119   7.681
    6AU     LIG 1784   7.751   6.114   7.506
    6AU     LIG 1785   8.173   6.059   7.302
    6AU       S 1786   7.393   5.212   7.523
    6AU     LIG 1787   7.721   4.938   7.685
    6AU     LIG 1788   8.189   4.908   7.688
    6AU    AUSL 1789   6.873   5.830   7.747
    6AU    AUSL 1790   6.548   6.146   7.817
    6AU     AUL 1791   6.907   6.237   7.896
    6AU       S 1792   6.932   6.440   8.332
    6AU     LIG 1793   7.337   6.708   8.349
    6AU     LIG 1794   7.711   7.005   8.470
    6AU       S 1795   7.237   5.899   7.939
    6AU     LIG 1796   7.732   5.858   7.950
    6AU     LIG 1797   8.165   6.029   7.833
    6AU    AUSL 1798   5.537   6.124   7.547
    6AU    AUSL 1799   5.525   5.904   7.967
    6AU     AUL 1800   5.257   6.249   7.814
    6AU       S 1801   5.406   5.971   8.164
    6AU     LIG 1802   5.006   6.092   8.331
    6AU     LIG 1803   4.758   6.441   8.524
    6AU       S 1804   5.475   6.528   7.503
    6AU     LIG 1805   5.007   6.415   7.409
    6AU     LIG 1806   4.581   6.601   7.352
    6AU    AUSL 1807   5.461   5.752   7.310
    6AU    AUSL 1808   5.584   6.253   7.139
    6AU     AUL 1809   5.306   6.076   7.207
    6AU       S 1810   5.153   5.627   6.944
    6AU     LIG 1811   4.867   6.004   7.003
    6AU     LIG 1812   4.468   6.110   7.222
    6AU       S 1813   5.411   6.457   6.923
    6AU     LIG 1814   5.233   6.879   6.814
    6AU     LIG 1815   4.857   7.124   6.669
    6AU    AUSL 1816   5.221   5.816   7.672
    6AU    AUSL 1817   5.225   5.405   7.411
    6AU     AUL 1818   5.062   5.711   7.391
    6AU       S 1819   5.009   5.354   7.707
    6AU     LIG 1820   4.704   5.193   7.409
    6AU     LIG 1821   4.268   5.029   7.260
    6AU       S 1822   4.973   5.868   7.850
    6AU     LIG 1823   4.543   5.969   7.726
    6AU     LIG 1824   4.189   6.103   8.010
    6AU    AUSL 1825   6.887   5.235   7.447
    6AU    AUSL 1826   6.773   5.383   7.848
    6AU     AUL 1827   7.092   5.252   7.876
    6AU       S 1828   7.193   5.061   7.451
    6AU     LIG 1829   7.336   4.650   7.410
    6AU     LIG 1830   7.677   4.416   7.601
    6AU       S 1831   7.290   4.801   7.914
    6AU     LIG 1832   7.448   4.606   8.338
    6AU     LIG 1833   7.667   4.398   8.707
    6AU    AUSL 1834   7.107   5.545   7.214
    6AU    AUSL 1835   6.827   4.966   7.119
    6AU     AUL 1836   7.049   5.226   7.044
    6AU       S 1837   7.427   5.290   7.296
    6AU     LIG 1838   7.709   4.926   7.180
    6AU     LIG 1839   8.139   4.703   7.213
    6AU       S 1840   6.948   4.798   6.862
    6AU     LIG 1841   7.188   4.388   6.859
    6AU     LIG 1842   7.344   4.110   6.497
    6AU    AUSL 1843   5.600   5.168   7.495
    6AU    AUSL 1844   5.504   5.328   7.088
    6AU     AUL 1845   5.235   5.105   7.311
    6AU       S 1846   5.335   5.170   6.860
    6AU     LIG 1847   4.918   4.959   6.943
    6AU     LIG 1848   4.885   4.591   6.660
    6AU       S 1849   5.018   5.273   8.028
    6AU     LIG 1850   4.854   4.883   7.823
    6AU     LIG 1851   4.606   4.687   7.483
    6AU    AUSL 1852   5.467   5.480   7.772
    6AU    AUSL 1853   5.660   4.857   7.776
    6AU     AUL 1854   5.360   5.047   7.762
    6AU       S 1855   5.504   4.611   7.895
    6AU     LIG 1856   5.069   4.412   7.921
    6AU     LIG 1857   4.782   4.182   8.251
    6AU       S 1858   5.133   5.428   7.929
    6AU     LIG 1859   4.571   5.441   7.872
    6AU     LIG 1860   4.296   5.055   7.768
    6AU    AUSL 1861   6.152   6.322   7.967
    6AU    AUSL 1862   5.713   6.299   7.903
    6AU     AUL 1863   5.961   6.325   8.264
    6AU       S 1864   5.590   6.497   8.036
    6AU     LIG 1865   5.151   6.587   8.199
    6AU     LIG 1866   4.935   6.924   8.452
    6AU       S 1867   6.103   6.716   8.023
    6AU     LIG 1868   6.421   6.963   8.243
    6AU     LIG 1869   6.464   7.420   8.326
    6AU    AUSL 1870   5.952   6.523   7.622
    6AU    AUSL 1871   6.282   6.576   7.276
    6AU     AUL 1872   5.974   6.779   7.394
    6AU       S 1873   6.088   6.976   7.846
    6AU     LIG 1874   6.075   7.461   7.946
    6AU     LIG 1875   6.169   7.842   8.233
    6AU       S 1876   6.227   6.786   6.985
    6AU     LIG 1877   6.464   7.101   7.161
    6AU     LIG 1878   6.835   7.333   6.991
    6AU    AUSL 1879   6.423   6.528   7.680
    6AU    AUSL 1880   6.444   6.199   8.256
    6AU     AUL 1881   6.512   6.472   8.041
    6AU       S 1882   6.682   6.297   8.481
    6AU     LIG 1883   7.041   6.506   8.798
    6AU     LIG 1884   7.296   6.938   8.830
    6AU       S 1885   6.340   6.809   7.741
    6AU     LIG 1886   6.521   7.249   7.824
    6AU     LIG 1887   6.549   7.714   7.897
    6AU    AUSL 1888   6.250   4.890   8.138
    6AU    AUSL 1889   6.803   4.898   7.705
    6AU     AUL 1890   6.570   4.702   8.019
    6AU       S 1891   6.166   4.368   8.112
    6AU     LIG 1892   5.988   3.961   8.244
    6AU     LIG 1893   5.896   3.541   8.439
    6AU       S 1894   7.007   4.740   7.788
    6AU     LIG 1895   7.251   4.305   7.955
    6AU     LIG 1896   7.441   4.087   8.353
    6AU    AUSL 1897   6.065   4.720   7.767
    6AU    AUSL 1898   5.965   5.149   7.961
    6AU     AUL 1899   5.895   4.805   8.111
    6AU       S 1900   6.004   4.424   7.858
    6AU     LIG 1901   5.779   4.031   7.777
    6AU     LIG 1902   5.838   3.571   7.913
    6AU       S 1903   5.468   4.586   8.190
    6AU     LIG 1904   5.252   4.277   8.407
    6AU     LIG 1905   4.954   4.159   8.742
    6AU    AUSL 1906   6.393   4.991   7.694
    6AU    AUSL 1907   6.022   4.861   7.362
    6AU     AUL 1908   6.340   4.628   7.557
    6AU       S 1909   5.861   4.522   7.387
    6AU     LIG 1910   5.525   4.194   7.294
    6AU     LIG 1911   5.453   3.817   7.017
    6AU       S 1912   6.252   4.252   7.864
    6AU     LIG 1913   6.282   3.814   7.841
    6AU     LIG 1914   6.297   3.463   8.131
    6AU    AUSL 1915   6.242   6.290   6.951
    6AU    AUSL 1916   6.553   6.235   7.287
    6AU     AUL 1917   6.598   6.511   7.063
    6AU       S 1918   6.258   6.507   6.726
    6AU     LIG 1919   6.584   6.898   6.674
    6AU     LIG 1920   6.411   7.348   6.704
    6AU       S 1921   7.266   6.278   6.854
    6AU     LIG 1922   7.323   6.712   6.679
    6AU     LIG 1923   7.491   7.130   6.516
    6AU    AUSL 1924   5.977   6.248   7.301
    6AU    AUSL 1925   5.868   6.160   6.804
    6AU     AUL 1926   5.870   6.474   7.016
    6AU       S 1927   6.091   6.805   6.728
    6AU     LIG 1928   5.977   7.214   6.967
    6AU     LIG 1929   6.088   7.670   6.997
    6AU       S 1930   5.612   6.270   6.648
    6AU     LIG 1931   5.467   6.642   6.421
    6AU     LIG 1932   5.294   7.079   6.334
    6AU    AUSL 1933   6.173   4.854   6.937
    6AU    AUSL 1934   5.642   4.902   7.156
    6AU     AUL 1935   5.889   4.762   6.983
    6AU       S 1936   5.428   4.880   6.926
    6AU     LIG 1937   5.214   4.543   7.071
    6AU     LIG 1938   5.118   4.168   6.854
    6AU       S 1939   6.118   4.388   7.191
    6AU     LIG 1940   5.810   4.257   6.877
    6AU     LIG 1941   5.775   3.883   6.603
    6AU    AUSL 1942   6.434   4.993   7.272
    6AU    AUSL 1943   6.508   5.102   6.830
    6AU     AUL 1944   6.504   4.736   7.043
    6AU       S 1945   6.009   4.277   7.387
    6AU     LIG 1946   6.251   3.900   7.333
    6AU     LIG 1947   6.490   3.536   7.157
    6AU       S 1948   6.711   4.963   6.652
    6AU     LIG 1949   6.808   4.867   6.188
    6AU     LIG 1950   6.986   4.505   5.934
    7AU     AUC 1951  22.555  13.606   7.493
    7AU     AUC 1952  22.853  13.646   7.327
    7AU     AUC 1953  22.822  13.619   7.661
    7AU     AUC 1954  22.274  13.592   7.324
    7AU     AUC 1955  22.284  13.596   7.677
    7AU     AUC 1956  22.367  13.847   7.517
    7AU     AUC 1957  22.703  13.877   7.495
    7AU     AUC 1958  22.390  13.330   7.496
    7AU     AUC 1959  22.748  13.375   7.482
    7AU     AUC 1960  22.587  13.437   7.767
    7AU     AUC 1961  22.539  13.763   7.768
    7AU     AUC 1962  22.580  13.459   7.218
    7AU     AUC 1963  22.573  13.789   7.228
    7AU     AUC 1964  23.169  13.672   7.178
    7AU     AUC 1965  23.203  13.657   7.494
    7AU     AUC 1966  23.136  13.613   7.857
    7AU     AUC 1967  21.974  13.570   7.150
    7AU     AUC 1968  21.935  13.602   7.516
    7AU     AUC 1969  21.985  13.583   7.865
    7AU     AUC 1970  22.191  14.153   7.507
    7AU     AUC 1971  22.530  14.220   7.492
    7AU     AUC 1972  22.852  14.197   7.509
    7AU     AUC 1973  22.209  13.012   7.498
    7AU     AUC 1974  22.553  13.053   7.493
    7AU     AUC 1975  22.945  13.085   7.453
    7AU     AUC 1976  22.591  13.216   8.060
    7AU     AUC 1977  22.562  13.538   8.102
    7AU     AUC 1978  22.564  13.915   8.063
    7AU     AUC 1979  22.578  13.261   6.920
    7AU     AUC 1980  22.576  13.613   6.904
    7AU     AUC 1981  22.592  13.963   6.928
    7AU     AUC 1982  22.886  13.371   7.961
    7AU     AUC 1983  22.863  13.741   8.007
    7AU     AUC 1984  22.866  13.468   7.012
    7AU     AUC 1985  22.899  13.837   7.006
    7AU     AUC 1986  22.263  13.386   7.991
    7AU     AUC 1987  22.271  13.738   7.992
    7AU     AUC 1988  22.240  13.395   7.032
    7AU     AUC 1989  22.243  13.767   7.013
    7AU     AUC 1990  23.061  13.942   7.347
    7AU     AUC 1991  23.003  13.901   7.704
    7AU     AUC 1992  22.075  13.867   7.308
    7AU     AUC 1993  22.060  13.897   7.701
    7AU     AUC 1994  23.066  13.363   7.297
    7AU     AUC 1995  23.068  13.326   7.625
    7AU     AUC 1996  22.044  13.299   7.330
    7AU     AUC 1997  22.066  13.312   7.658
    7AU     AUC 1998  22.364  14.087   7.791
    7AU     AUC 1999  22.698  14.087   7.800
    7AU     AUC 2000  22.345  13.110   7.782
    7AU     AUC 2001  22.762  13.111   7.794
    7AU     AUC 2002  22.359  14.044   7.178
    7AU     AUC 2003  22.756  14.089   7.180
    7AU     AUC 2004  22.362  13.131   7.202
    7AU     AUC 2005  22.744  13.149   7.166
    7AU    AUSL 2006  23.155  13.515   8.229
    7AU    AUSL 2007  22.998  13.027   8.093
    7AU     AUL 2008  23.283  13.121   8.278
    7AU       S 2009  23.367  12.707   8.092
    7AU     LIG 2010  23.267  12.387   8.409
    7AU     LIG 2011  23.365  12.127   8.794
    7AU       S 2012  23.394  13.556   8.350
    7AU     LIG 2013  23.400  13.713   8.763
    7AU     LIG 2014  23.496  13.491   9.162
    7AU    AUSL 2015  22.746  13.334   8.285
    7AU    AUSL 2016  22.436  13.670   8.406
    7AU     AUL 2017  22.610  13.535   8.646
    7AU       S 2018  22.955  13.252   8.557
    7AU     LIG 2019  23.012  13.425   8.959
    7AU     LIG 2020  23.068  13.281   9.394
    7AU       S 2021  21.923  13.495   8.690
    7AU     LIG 2022  22.003  13.802   9.017
    7AU     LIG 2023  22.025  13.727   9.482
    7AU    AUSL 2024  22.768  13.762   8.160
    7AU    AUSL 2025  23.188  13.942   8.130
    7AU     AUL 2026  22.994  13.764   8.458
    7AU       S 2027  22.619  14.033   8.626
    7AU     LIG 2028  22.954  13.944   8.916
    7AU     LIG 2029  23.130  13.812   9.313
    7AU       S 2030  23.326  14.083   8.339
    7AU     LIG 2031  23.772  14.040   8.383
    7AU     LIG 2032  24.217  14.246   8.421
    7AU    AUSL 2033  23.140  13.721   6.762
    7AU    AUSL 2034  23.022  14.173   6.835
    7AU     AUL 2035  23.198  13.994   6.529
    7AU       S 2036  23.059  13.608   6.297
    7AU     LIG 2037  23.444  13.621   6.023
    7AU     LIG 2038  23.539  13.439   5.597
    7AU       S 2039  23.348  14.325   6.809
    7AU     LIG 2040  23.349  14.643   6.517
    7AU     LIG 2041  23.587  15.005   6.361
    7AU    AUSL 2042  22.778  13.480   6.734
    7AU    AUSL 2043  23.102  13.383   7.041
    7AU     AUL 2044  23.207  13.412   6.687
    7AU       S 2045  23.191  12.607   6.686
    7AU     LIG 2046  23.644  12.574   6.545
    7AU     LIG 2047  24.002  12.327   6.377
    7AU       S 2048  22.867  13.269   6.375
    7AU     LIG 2049  22.864  13.023   5.931
    7AU     LIG 2050  23.147  13.063   5.544
    7AU    AUSL 2051  22.731  13.913   6.635
    7AU    AUSL 2052  22.414  13.334   6.575
    7AU     AUL 2053  22.602  13.647   6.411
    7AU       S 2054  22.226  13.375   6.262
    7AU     LIG 2055  22.278  13.286   5.792
    7AU     LIG 2056  22.020  13.434   5.416
    7AU       S 2057  23.056  13.363   6.219
    7AU     LIG 2058  23.010  13.515   5.772
    7AU     LIG 2059  23.169  13.722   5.363
    7AU    AUSL 2060  22.076  13.551   8.184
    7AU    AUSL 2061  22.311  13.987   8.142
    7AU     AUL 2062  22.186  13.853   8.459
    7AU       S 2063  21.813  13.565   8.429
    7AU     LIG 2064  21.522  13.728   8.812
    7AU     LIG 2065  21.617  13.511   9.230
    7AU       S 2066  21.903  14.208   8.312
    7AU     LIG 2067  21.779  14.428   8.670
    7AU     LIG 2068  21.586  14.711   8.988
    7AU    AUSL 2069  22.333  13.234   8.384
    7AU    AUSL 2070  21.872  13.183   8.072
    7AU     AUL 2071  22.009  13.147   8.349
    7AU       S 2072  21.638  12.891   8.189
    7AU     LIG 2073  21.291  12.629   8.363
    7AU     LIG 2074  21.099  12.263   8.595
    7AU       S 2075  22.141  13.416   8.697
    7AU     LIG 2076  22.110  13.314   9.151
    7AU     LIG 2077  21.935  13.204   9.571
    7AU    AUSL 2078  22.029  13.490   6.715
    7AU    AUSL 2079  22.302  13.200   6.973
    7AU     AUL 2080  22.153  13.115   6.650
    7AU       S 2081  21.850  13.424   6.434
    7AU     LIG 2082  21.549  13.576   6.098
    7AU     LIG 2083  21.566  13.630   5.620
    7AU       S 2084  21.688  12.971   6.634
    7AU     LIG 2085  21.714  12.515   6.554
    7AU     LIG 2086  21.466  12.220   6.306
    7AU    AUSL 2087  22.382  13.745   6.816
    7AU    AUSL 2088  21.929  13.855   6.919
    7AU     AUL 2089  22.140  13.776   6.540
    7AU       S 2090  21.754  13.982   6.719
    7AU     LIG 2091  21.378  14.247   6.658
    7AU     LIG 2092  21.128  14.552   6.408
    7AU       S 2093  21.963  13.298   6.203
    7AU     LIG 2094  22.005  13.699   5.916
    7AU     LIG 2095  21.969  13.949   5.499
    7AU    AUSL 2096  23.261  14.218   7.550
    7AU    AUSL 2097  23.245  13.937   7.125
    7AU     AUL 2098  23.406  14.318   7.271
    7AU       S 2099  23.499  13.985   6.944
    7AU     LIG 2100  23.970  13.897   6.864
    7AU     LIG 2101  24.196  14.082   6.497
    7AU       S 2102  23.777  14.150   7.841
    7AU     LIG 2103  23.867  14.569   7.638
    7AU     LIG 2104  23.982  14.883   7.274
    7AU    AUSL 2105  23.540  13.877   7.429
    7AU    AUSL 2106  23.521  13.467   7.666
    7AU     AUL 2107  23.836  13.644   7.551
    7AU       S 2108  23.707  14.082   7.612
    7AU     LIG 2109  23.917  14.258   7.229
    7AU     LIG 2110  24.308  14.502   7.118
    7AU       S 2111  23.743  13.178   7.479
    7AU     LIG 2112  24.036  13.102   7.776
    7AU     LIG 2113  24.486  13.017   7.725
    7AU    AUSL 2114  23.246  13.797   7.736
    7AU    AUSL 2115  22.928  14.122   7.806
    7AU     AUL 2116  23.298  14.204   7.880
    7AU       S 2117  23.320  14.395   8.338
    7AU     LIG 2118  23.760  14.517   8.191
    7AU     LIG 2119  24.155  14.753   8.305
    7AU       S 2120  23.621  13.861   7.924
    7AU     LIG 2121  24.133  13.891   8.028
    7AU     LIG 2122  24.329  14.324   7.930
    7AU    AUSL 2123  21.893  14.108   7.547
    7AU    AUSL 2124  21.918  13.885   7.957
    7AU     AUL 2125  21.632  14.220   7.820
    7AU       S 2126  21.816  13.978   8.178
    7AU     LIG 2127  21.436  14.062   8.409
    7AU     LIG 2128  21.267  14.384   8.696
    7AU       S 2129  21.835  14.506   7.506
    7AU     LIG 2130  21.351  14.360   7.429
    7AU     LIG 2131  20.881  14.435   7.489
    7AU    AUSL 2132  21.821  13.742   7.312
    7AU    AUSL 2133  21.956  14.240   7.142
    7AU     AUL 2134  21.674  14.067   7.196
    7AU       S 2135  21.510  13.631   6.965
    7AU     LIG 2136  21.186  13.977   7.051
    7AU     LIG 2137  20.805  14.283   6.993
    7AU       S 2138  21.782  14.439   6.902
    7AU     LIG 2139  21.579  14.733   6.601
    7AU     LIG 2140  21.285  15.052   6.405
    7AU    AUSL 2141  21.595  13.781   7.692
    7AU    AUSL 2142  21.592  13.387   7.397
    7AU     AUL 2143  21.431  13.724   7.415
    7AU       S 2144  21.356  13.326   7.646
    7AU     LIG 2145  21.136  13.342   7.215
    7AU     LIG 2146  20.704  13.160   7.181
    7AU       S 2147  21.432  13.802   7.928
    7AU     LIG 2148  21.048  13.890   7.811
    7AU     LIG 2149  20.677  14.137   7.888
    7AU    AUSL 2150  23.252  13.199   7.438
    7AU    AUSL 2151  23.137  13.347   7.837
    7AU     AUL 2152  23.463  13.208   7.850
    7AU       S 2153  23.569  12.997   7.437
    7AU     LIG 2154  23.904  12.658   7.504
    7AU     LIG 2155  24.370  12.516   7.481
    7AU       S 2156  23.616  12.741   7.917
    7AU     LIG 2157  23.781  12.485   8.277
    7AU     LIG 2158  23.831  12.346   8.709
    7AU    AUSL 2159  23.474  13.511   7.205
    7AU    AUSL 2160  23.181  12.925   7.117
    7AU     AUL 2161  23.410  13.184   7.042
    7AU       S 2162  23.801  13.267   7.269
    7AU     LIG 2163  24.197  13.025   7.289
    7AU     LIG 2164  24.627  12.941   7.177
    7AU       S 2165  23.308  12.748   6.890
    7AU     LIG 2166  23.568  12.355   7.004
    7AU     LIG 2167  23.870  12.045   6.806
    7AU    AUSL 2168  21.959  13.126   7.470
    7AU    AUSL 2169  21.875  13.325   7.076
    7AU     AUL 2170  21.603  13.081   7.291
    7AU       S 2171  21.692  13.180   6.846
    7AU     LIG 2172  21.268  12.974   6.892
    7AU     LIG 2173  21.197  12.618   6.612
    7AU       S 2174  21.252  13.124   7.675
    7AU     LIG 2175  21.074  12.839   7.369
    7AU     LIG 2176  20.666  12.625   7.262
    7AU    AUSL 2177  21.855  13.450   7.745
    7AU    AUSL 2178  22.002  12.861   7.800
    7AU     AUL 2179  21.727  13.031   7.750
    7AU       S 2180  21.800  12.645   8.009
    7AU     LIG 2181  21.509  12.286   8.049
    7AU     LIG 2182  21.404  11.945   8.329
    7AU       S 2183  21.416  13.342   7.869
    7AU     LIG 2184  20.959  13.277   8.027
    7AU     LIG 2185  20.630  13.060   7.734
    7AU    AUSL 2186  22.537  14.310   7.954
    7AU    AUSL 2187  22.098  14.281   7.889
    7AU     AUL 2188  22.351  14.321   8.249
    7AU       S 2189  21.977  14.475   8.017
    7AU     LIG 2190  21.553  14.550   8.212
    7AU     LIG 2191  21.400  14.855   8.520
    7AU       S 2192  22.509  14.706   8.009
    7AU     LIG 2193  22.755  15.031   8.273
    7AU     LIG 2194  22.732  15.474   8.470
    7AU    AUSL 2195  22.332  14.513   7.611
    7AU    AUSL 2196  22.659  14.550   7.258
    7AU     AUL 2197  22.368  14.769   7.377
    7AU       S 2198  22.516  14.940   7.828
    7AU     LIG 2199  22.429  15.346   8.036
    7AU     LIG 2200  22.671  15.712   8.025
    7AU       S 2201  22.601  14.751   6.952
    7AU     LIG 2202  22.795  15.107   7.085
    7AU     LIG 2203  23.030  15.407   6.855
    7AU    AUSL 2204  22.808  14.502   7.659
    7AU    AUSL 2205  22.824  14.176   8.243
    7AU     AUL 2206  22.907  14.445   8.025
    7AU       S 2207  23.043  14.261   8.468
    7AU     LIG 2208  23.385  14.236   8.808
    7AU     LIG 2209  23.803  14.436   8.712
    7AU       S 2210  22.739  14.767   7.714
    7AU     LIG 2211  23.024  15.097   7.828
    7AU     LIG 2212  23.116  15.435   8.115
    7AU    AUSL 2213  22.596  12.873   8.121
    7AU    AUSL 2214  23.151  12.868   7.697
    7AU     AUL 2215  22.904  12.671   8.005
    7AU       S 2216  22.498  12.355   8.107
    7AU     LIG 2217  22.439  12.070   8.502
    7AU     LIG 2218  22.480  11.601   8.636
    7AU       S 2219  23.342  12.704   7.776
    7AU     LIG 2220  23.465  12.234   7.947
    7AU     LIG 2221  23.602  11.986   8.344
    7AU    AUSL 2222  22.400  12.713   7.750
    7AU    AUSL 2223  22.313  13.147   7.964
    7AU     AUL 2224  22.246  12.795   8.109
    7AU       S 2225  22.326  12.426   7.829
    7AU     LIG 2226  22.025  12.185   8.040
    7AU     LIG 2227  22.043  11.805   8.257
    7AU       S 2228  21.803  12.670   8.298
    7AU     LIG 2229  21.789  12.245   8.495
    7AU     LIG 2230  21.628  11.892   8.786
    7AU    AUSL 2231  22.743  12.967   7.682
    7AU    AUSL 2232  22.371  12.845   7.342
    7AU     AUL 2233  22.680  12.605   7.542
    7AU       S 2234  22.227  12.515   7.349
    7AU     LIG 2235  21.977  12.277   7.017
    7AU     LIG 2236  21.962  11.796   7.004
    7AU       S 2237  22.548  12.226   7.851
    7AU     LIG 2238  22.548  11.833   8.083
    7AU     LIG 2239  22.726  11.435   8.221
    7AU    AUSL 2240  22.615  14.249   6.946
    7AU    AUSL 2241  22.930  14.210   7.278
    7AU     AUL 2242  22.970  14.483   7.056
    7AU       S 2243  22.629  14.471   6.717
    7AU     LIG 2244  22.902  14.901   6.599
    7AU     LIG 2245  22.641  15.301   6.560
    7AU       S 2246  23.596  14.222   6.798
    7AU     LIG 2247  23.758  14.659   6.862
    7AU     LIG 2248  23.981  15.067   6.750
    7AU    AUSL 2249  22.352  14.228   7.299
    7AU    AUSL 2250  22.231  14.154   6.799
    7AU     AUL 2251  22.240  14.454   7.018
    7AU       S 2252  22.438  14.750   6.689
    7AU     LIG 2253  22.303  15.152   6.925
    7AU     LIG 2254  22.503  15.560   7.028
    7AU       S 2255  21.976  14.257   6.647
    7AU     LIG 2256  21.715  14.349   6.282
    7AU     LIG 2257  21.491  14.700   6.058
    7AU    AUSL 2258  22.529  12.840   6.920
    7AU    AUSL 2259  22.006  12.893   7.110
    7AU     AUL 2260  22.251  12.754   6.947
    7AU       S 2261  21.789  12.881   6.895
    7AU     LIG 2262  21.524  12.554   7.032
    7AU     LIG 2263  21.366  12.173   6.819
    7AU       S 2264  22.471  12.361   7.153
    7AU     LIG 2265  22.412  12.002   6.825
    7AU     LIG 2266  22.544  11.665   6.493
    7AU    AUSL 2267  22.786  12.972   7.261
    7AU    AUSL 2268  22.878  13.071   6.818
    7AU     AUL 2269  22.851  12.710   7.032
    7AU       S 2270  22.353  12.242   7.362
    7AU     LIG 2271  22.574  11.831   7.276
    7AU     LIG 2272  22.856  11.627   6.945
    7AU       S 2273  23.095  12.918   6.641
    7AU     LIG 2274  23.260  12.721   6.213
    7AU     LIG 2275  23.488  12.275   6.152
    8AU     AUC 2276  22.174  26.480   7.499
    8AU     AUC 2277  22.474  26.512   7.332
    8AU     AUC 2278  22.444  26.495   7.669
    8AU     AUC 2279  21.892  26.468   7.333
    8AU     AUC 2280  21.902  26.466   7.686
    8AU     AUC 2281  21.982  26.723   7.524
    8AU     AUC 2282  22.313  26.749   7.502
    8AU     AUC 2283  22.020  26.203   7.499
    8AU     AUC 2284  22.375  26.252   7.493
    8AU     AUC 2285  22.213  26.313   7.773
    8AU     AUC 2286  22.156  26.635   7.777
    8AU     AUC 2287  22.203  26.329   7.221
    8AU     AUC 2288  22.177  26.655   7.230
    8AU     AUC 2289  22.793  26.532   7.179
    8AU     AUC 2290  22.824  26.538   7.498
    8AU     AUC 2291  22.758  26.500   7.866
    8AU     AUC 2292  21.590  26.450   7.161
    8AU     AUC 2293  21.552  26.476   7.532
    8AU     AUC 2294  21.606  26.450   7.872
    8AU     AUC 2295  21.802  27.027   7.524
    8AU     AUC 2296  22.138  27.092   7.497
    8AU     AUC 2297  22.460  27.072   7.512
    8AU     AUC 2298  21.844  25.884   7.497
    8AU     AUC 2299  22.185  25.924   7.501
    8AU     AUC 2300  22.578  25.960   7.475
    8AU     AUC 2301  22.221  26.089   8.065
    8AU     AUC 2302  22.181  26.409   8.107
    8AU     AUC 2303  22.179  26.786   8.071
    8AU     AUC 2304  22.215  26.130   6.919
    8AU     AUC 2305  22.195  26.473   6.923
    8AU     AUC 2306  22.188  26.841   6.946
    8AU     AUC 2307  22.514  26.254   7.972
    8AU     AUC 2308  22.483  26.621   8.016
    8AU     AUC 2309  22.505  26.304   7.018
    8AU     AUC 2310  22.523  26.681   7.025
    8AU     AUC 2311  21.889  26.249   7.991
    8AU     AUC 2312  21.886  26.606   7.999
    8AU     AUC 2313  21.872  26.301   7.029
    8AU     AUC 2314  21.853  26.653   7.018
    8AU     AUC 2315  22.668  26.814   7.346
    8AU     AUC 2316  22.617  26.779   7.706
    8AU     AUC 2317  21.684  26.740   7.324
    8AU     AUC 2318  21.675  26.768   7.720
    8AU     AUC 2319  22.693  26.230   7.316
    8AU     AUC 2320  22.703  26.209   7.639
    8AU     AUC 2321  21.670  26.177   7.339
    8AU     AUC 2322  21.694  26.180   7.666
    8AU     AUC 2323  21.976  26.957   7.803
    8AU     AUC 2324  22.312  26.961   7.807
    8AU     AUC 2325  21.986  25.978   7.780
    8AU     AUC 2326  22.403  25.989   7.805
    8AU     AUC 2327  21.958  26.922   7.188
    8AU     AUC 2328  22.360  26.963   7.194
    8AU     AUC 2329  21.982  26.010   7.203
    8AU     AUC 2330  22.367  26.012   7.179
    8AU    AUSL 2331  22.772  26.397   8.249
    8AU    AUSL 2332  22.637  25.915   8.106
    8AU     AUL 2333  22.914  25.998   8.309
    8AU       S 2334  23.018  25.591   8.114
    8AU     LIG 2335  23.017  25.272   8.477
    8AU     LIG 2336  23.134  24.912   8.775
    8AU       S 2337  23.006  26.439   8.349
    8AU     LIG 2338  23.011  26.587   8.769
    8AU     LIG 2339  23.118  26.331   9.144
    8AU    AUSL 2340  22.365  26.210   8.290
    8AU    AUSL 2341  22.046  26.531   8.410
    8AU     AUL 2342  22.221  26.409   8.650
    8AU       S 2343  22.557  26.121   8.555
    8AU     LIG 2344  22.622  26.301   8.959
    8AU     LIG 2345  22.688  26.164   9.403
    8AU       S 2346  21.549  26.340   8.700
    8AU     LIG 2347  21.622  26.596   9.086
    8AU     LIG 2348  21.629  26.553   9.563
    8AU    AUSL 2349  22.382  26.641   8.172
    8AU    AUSL 2350  22.801  26.821   8.134
    8AU     AUL 2351  22.607  26.644   8.470
    8AU       S 2352  22.222  26.905   8.621
    8AU     LIG 2353  22.564  26.833   8.918
    8AU     LIG 2354  22.773  26.679   9.289
    8AU       S 2355  22.935  26.962   8.335
    8AU     LIG 2356  23.371  26.972   8.389
    8AU     LIG 2357  23.767  27.230   8.369
    8AU    AUSL 2358  22.802  26.548   6.757
    8AU    AUSL 2359  22.624  27.053   6.824
    8AU     AUL 2360  22.732  26.847   6.520
    8AU       S 2361  22.743  26.424   6.302
    8AU     LIG 2362  22.929  26.464   5.880
    8AU     LIG 2363  23.088  26.336   5.457
    8AU       S 2364  22.962  27.157   6.783
    8AU     LIG 2365  22.965  27.398   6.426
    8AU     LIG 2366  23.251  27.679   6.184
    8AU    AUSL 2367  22.454  26.281   6.694
    8AU    AUSL 2368  22.730  26.235   7.060
    8AU     AUL 2369  22.866  26.232   6.702
    8AU       S 2370  23.041  25.727   6.689
    8AU     LIG 2371  23.364  25.494   6.418
    8AU     LIG 2372  23.623  25.206   6.116
    8AU       S 2373  22.484  26.115   6.410
    8AU     LIG 2374  22.422  25.883   5.971
    8AU     LIG 2375  22.678  26.060   5.623
    8AU    AUSL 2376  22.382  26.696   6.804
    8AU    AUSL 2377  22.040  26.269   6.601
    8AU     AUL 2378  22.305  26.555   6.464
    8AU       S 2379  21.919  26.302   6.307
    8AU     LIG 2380  21.961  26.094   5.871
    8AU     LIG 2381  21.664  26.144   5.514
    8AU       S 2382  22.697  26.173   6.241
    8AU     LIG 2383  22.408  26.394   5.919
    8AU     LIG 2384  22.576  26.556   5.499
    8AU    AUSL 2385  21.689  26.409   8.184
    8AU    AUSL 2386  21.923  26.854   8.154
    8AU     AUL 2387  21.792  26.707   8.463
    8AU       S 2388  21.426  26.412   8.436
    8AU     LIG 2389  21.151  26.559   8.854
    8AU     LIG 2390  21.187  26.411   9.321
    8AU       S 2391  21.518  27.073   8.347
    8AU     LIG 2392  21.393  27.391   8.636
    8AU     LIG 2393  21.254  27.824   8.774
    8AU    AUSL 2394  21.953  26.095   8.379
    8AU    AUSL 2395  21.518  26.025   8.059
    8AU     AUL 2396  21.631  26.004   8.340
    8AU       S 2397  21.343  25.666   8.163
    8AU     LIG 2398  20.919  25.549   8.252
    8AU     LIG 2399  20.690  25.277   8.559
    8AU       S 2400  21.762  26.261   8.698
    8AU     LIG 2401  21.722  26.101   9.147
    8AU     LIG 2402  21.517  26.041   9.573
    8AU    AUSL 2403  21.634  26.380   6.726
    8AU    AUSL 2404  21.917  26.078   6.973
    8AU     AUL 2405  21.783  26.008   6.654
    8AU       S 2406  21.518  26.287   6.386
    8AU     LIG 2407  21.314  26.194   5.949
    8AU     LIG 2408  21.178  26.333   5.520
    8AU       S 2409  21.324  25.822   6.645
    8AU     LIG 2410  21.441  25.362   6.557
    8AU     LIG 2411  21.428  24.910   6.365
    8AU    AUSL 2412  21.961  26.673   6.780
    8AU    AUSL 2413  21.529  26.746   6.940
    8AU     AUL 2414  21.691  26.695   6.558
    8AU       S 2415  21.319  26.911   6.761
    8AU     LIG 2416  21.033  27.257   6.580
    8AU     LIG 2417  20.731  27.627   6.431
    8AU       S 2418  21.708  26.399   6.172
    8AU     LIG 2419  21.829  26.574   5.762
    8AU     LIG 2420  21.793  26.611   5.289
    8AU    AUSL 2421  22.863  27.103   7.543
    8AU    AUSL 2422  22.836  26.799   7.111
    8AU     AUL 2423  22.999  27.193   7.252
    8AU       S 2424  23.101  26.863   6.925
    8AU     LIG 2425  23.218  26.808   6.460
    8AU     LIG 2426  23.425  27.195   6.300
    8AU       S 2427  23.383  27.091   7.891
    8AU     LIG 2428  23.684  27.373   7.634
    8AU     LIG 2429  23.657  27.757   7.344
    8AU    AUSL 2430  23.140  26.764   7.413
    8AU    AUSL 2431  23.150  26.367   7.677
    8AU     AUL 2432  23.444  26.558   7.527
    8AU       S 2433  23.309  26.985   7.642
    8AU     LIG 2434  23.556  27.019   7.271
    8AU     LIG 2435  23.968  27.187   7.138
    8AU       S 2436  23.398  26.077   7.532
    8AU     LIG 2437  23.683  25.752   7.702
    8AU     LIG 2438  24.135  25.797   7.745
    8AU    AUSL 2439  22.864  26.688   7.736
    8AU    AUSL 2440  22.540  27.001   7.809
    8AU     AUL 2441  22.896  27.097   7.881
    8AU       S 2442  22.922  27.279   8.341
    8AU     LIG 2443  23.338  27.484   8.236
    8AU     LIG 2444  23.718  27.783   8.351
    8AU       S 2445  23.230  26.771   7.915
    8AU     LIG 2446  23.704  26.734   7.955
    8AU     LIG 2447  24.021  27.082   7.918
    8AU    AUSL 2448  21.526  26.969   7.575
    8AU    AUSL 2449  21.524  26.758   7.985
    8AU     AUL 2450  21.253  27.097   7.821
    8AU       S 2451  21.409  26.840   8.192
    8AU     LIG 2452  21.041  27.162   8.278
    8AU     LIG 2453  20.883  27.504   8.568
    8AU       S 2454  21.466  27.410   7.543
    8AU     LIG 2455  21.009  27.325   7.442
    8AU     LIG 2456  20.604  27.427   7.269
    8AU    AUSL 2457  21.437  26.611   7.329
    8AU    AUSL 2458  21.543  27.127   7.179
    8AU     AUL 2459  21.277  26.940   7.245
    8AU       S 2460  21.125  26.504   6.977
    8AU     LIG 2461  20.803  26.870   7.094
    8AU     LIG 2462  20.371  27.048   7.019
    8AU       S 2463  21.363  27.351   6.981
    8AU     LIG 2464  21.101  27.718   6.783
    8AU     LIG 2465  20.931  28.121   6.581
    8AU    AUSL 2466  21.210  26.657   7.704
    8AU    AUSL 2467  21.211  26.254   7.411
    8AU     AUL 2468  21.043  26.569   7.429
    8AU       S 2469  20.992  26.179   7.687
    8AU     LIG 2470  20.623  26.126   7.411
    8AU     LIG 2471  20.157  26.102   7.242
    8AU       S 2472  21.024  26.696   7.916
    8AU     LIG 2473  20.716  26.971   7.914
    8AU     LIG 2474  20.531  27.324   7.767
    8AU    AUSL 2475  22.893  26.082   7.462
    8AU    AUSL 2476  22.769  26.241   7.853
    8AU     AUL 2477  23.091  26.108   7.883
    8AU       S 2478  23.218  25.904   7.482
    8AU     LIG 2479  23.316  25.530   7.325
    8AU     LIG 2480  23.619  25.182   7.377
    8AU       S 2481  23.251  25.620   7.917
    8AU     LIG 2482  23.472  25.487   8.303
    8AU     LIG 2483  23.489  25.282   8.721
    8AU    AUSL 2484  23.101  26.382   7.207
    8AU    AUSL 2485  22.804  25.766   7.189
    8AU     AUL 2486  23.031  26.022   7.082
    8AU       S 2487  23.425  26.143   7.289
    8AU     LIG 2488  23.755  25.792   7.208
    8AU     LIG 2489  24.203  25.606   7.267
    8AU       S 2490  22.937  25.572   6.945
    8AU     LIG 2491  23.241  25.239   6.868
    8AU     LIG 2492  23.362  24.983   6.505
    8AU    AUSL 2493  21.589  26.012   7.482
    8AU    AUSL 2494  21.498  26.205   7.089
    8AU     AUL 2495  21.230  25.963   7.301
    8AU       S 2496  21.317  26.051   6.847
    8AU     LIG 2497  20.915  25.803   6.954
    8AU     LIG 2498  20.833  25.430   6.710
    8AU       S 2499  20.920  26.047   7.911
    8AU     LIG 2500  20.917  25.677   7.622
    8AU     LIG 2501  20.754  25.265   7.510
    8AU    AUSL 2502  21.467  26.323   7.765
    8AU    AUSL 2503  21.652  25.713   7.775
    8AU     AUL 2504  21.359  25.890   7.752
    8AU       S 2505  21.495  25.461   7.903
    8AU     LIG 2506  21.102  25.243   7.893
    8AU     LIG 2507  20.938  24.973   8.218
    8AU       S 2508  21.098  26.237   7.914
    8AU     LIG 2509  20.605  26.448   7.827
    8AU     LIG 2510  20.174  26.300   7.783
    8AU    AUSL 2511  22.147  27.174   7.961
    8AU    AUSL 2512  21.705  27.160   7.920
    8AU     AUL 2513  21.964  27.190   8.260
    8AU       S 2514  21.554  27.349   8.089
    8AU     LIG 2515  21.238  27.682   8.234
    8AU     LIG 2516  21.002  28.096   8.379
    8AU       S 2517  22.098  27.580   8.015
    8AU     LIG 2518  22.322  27.895   8.277
    8AU     LIG 2519  22.314  28.353   8.402
    8AU    AUSL 2520  21.939  27.374   7.623
    8AU    AUSL 2521  22.267  27.417   7.259
    8AU     AUL 2522  21.982  27.636   7.399
    8AU       S 2523  22.077  27.835   7.841
    8AU     LIG 2524  22.019  28.285   7.987
    8AU     LIG 2525  21.864  28.755   7.997
    8AU       S 2526  22.207  27.632   6.968
    8AU     LIG 2527  22.291  28.012   7.254
    8AU     LIG 2528  22.319  28.494   7.236
    8AU    AUSL 2529  22.409  27.378   7.664
    8AU    AUSL 2530  22.442  27.056   8.248
    8AU     AUL 2531  22.503  27.329   8.029
    8AU       S 2532  22.652  27.140   8.468
    8AU     LIG 2533  22.998  27.113   8.806
    8AU     LIG 2534  23.391  27.358   8.744
    8AU       S 2535  22.334  27.679   7.743
    8AU     LIG 2536  22.497  28.150   7.862
    8AU     LIG 2537  22.654  28.580   8.096
    8AU    AUSL 2538  22.240  25.745   8.131
    8AU    AUSL 2539  22.801  25.749   7.720
    8AU     AUL 2540  22.556  25.557   8.026
    8AU       S 2541  21.896  25.169   8.083
    8AU     LIG 2542  21.960  24.745   8.235
    8AU     LIG 2543  22.024  24.279   8.339
    8AU       S 2544  22.990  25.568   7.785
    8AU     LIG 2545  23.140  25.113   8.011
    8AU     LIG 2546  23.305  24.768   8.310
    8AU    AUSL 2547  22.057  25.582   7.754
    8AU    AUSL 2548  21.954  26.006   7.959
    8AU     AUL 2549  21.890  25.659   8.103
    8AU       S 2550  21.971  25.285   7.820
    8AU     LIG 2551  21.815  24.872   7.697
    8AU     LIG 2552  21.869  24.460   7.831
    8AU       S 2553  21.462  25.437   8.204
    8AU     LIG 2554  21.227  25.242   8.547
    8AU     LIG 2555  20.987  24.889   8.750
    8AU    AUSL 2556  22.393  25.846   7.696
    8AU    AUSL 2557  21.995  25.703   7.346
    8AU     AUL 2558  22.336  25.486   7.562
    8AU       S 2559  21.884  25.392   7.348
    8AU     LIG 2560  21.625  25.039   7.256
    8AU     LIG 2561  21.925  24.688   7.141
    8AU       S 2562  22.182  25.196   8.026
    8AU     LIG 2563  22.305  24.819   7.815
    8AU     LIG 2564  22.407  24.443   8.042
    8AU    AUSL 2565  22.214  27.112   6.943
    8AU    AUSL 2566  22.533  27.075   7.272
    8AU     AUL 2567  22.572  27.347   7.038
    8AU       S 2568  22.212  27.328   6.723
    8AU     LIG 2569  22.533  27.650   6.598
    8AU     LIG 2570  22.361  28.075   6.729
    8AU       S 2571  23.263  27.094   6.851
    8AU     LIG 2572  23.377  27.511   6.731
    8AU     LIG 2573  23.679  27.759   6.484
    8AU    AUSL 2574  21.952  27.103   7.299
    8AU    AUSL 2575  21.808  27.072   6.829
    8AU     AUL 2576  21.837  27.341   7.043
    8AU       S 2577  22.040  27.621   6.702
    8AU     LIG 2578  21.863  27.996   6.952
    8AU     LIG 2579  21.696  28.430   7.046
    8AU       S 2580  21.542  27.169   6.691
    8AU     LIG 2581  21.503  27.572   6.506
    8AU     LIG 2582  21.190  27.812   6.249
    8AU    AUSL 2583  22.154  25.726   6.922
    8AU    AUSL 2584  21.629  25.772   7.124
    8AU     AUL 2585  21.872  25.635   6.945
    8AU       S 2586  21.415  25.759   6.905
    8AU     LIG 2587  21.244  25.357   7.033
    8AU     LIG 2588  21.122  24.996   6.769
    8AU       S 2589  22.087  25.241   7.144
    8AU     LIG 2590  21.818  25.067   6.793
    8AU     LIG 2591  21.778  24.630   6.631
    8AU    AUSL 2592  22.399  25.855   7.272
    8AU    AUSL 2593  22.544  25.892   6.846
    8AU     AUL 2594  22.471  25.564   7.069
    8AU       S 2595  22.098  25.120   7.364
    8AU     LIG 2596  22.433  24.843   7.224
    8AU     LIG 2597  22.375  24.467   6.981
    8AU       S 2598  22.738  25.742   6.694
    8AU     LIG 2599  22.885  25.308   6.467
    8AU     LIG 2600  23.113  25.156   6.068
    9AU     AUC 2601  31.171  24.680   7.498
    9AU     AUC 2602  31.471  24.729   7.341
    9AU     AUC 2603  31.431  24.699   7.674
    9AU     AUC 2604  30.898  24.657   7.322
    9AU     AUC 2605  30.892  24.660   7.674
    9AU     AUC 2606  30.976  24.917   7.515
    9AU     AUC 2607  31.310  24.954   7.505
    9AU     AUC 2608  31.021  24.399   7.499
    9AU     AUC 2609  31.373  24.452   7.492
    9AU     AUC 2610  31.199  24.511   7.773
    9AU     AUC 2611  31.141  24.834   7.772
    9AU     AUC 2612  31.208  24.531   7.225
    9AU     AUC 2613  31.192  24.864   7.235
    9AU     AUC 2614  31.789  24.767   7.202
    9AU     AUC 2615  31.816  24.751   7.519
    9AU     AUC 2616  31.740  24.703   7.879
    9AU     AUC 2617  30.602  24.623   7.139
    9AU     AUC 2618  30.550  24.661   7.505
    9AU     AUC 2619  30.591  24.640   7.849
    9AU     AUC 2620  30.794  25.215   7.500
    9AU     AUC 2621  31.127  25.293   7.498
    9AU     AUC 2622  31.448  25.280   7.526
    9AU     AUC 2623  30.848  24.073   7.497
    9AU     AUC 2624  31.191  24.124   7.502
    9AU     AUC 2625  31.580  24.172   7.468
    9AU     AUC 2626  31.204  24.290   8.067
    9AU     AUC 2627  31.159  24.609   8.106
    9AU     AUC 2628  31.150  24.984   8.069
    9AU     AUC 2629  31.219  24.334   6.932
    9AU     AUC 2630  31.208  24.684   6.912
    9AU     AUC 2631  31.215  25.040   6.937
    9AU     AUC 2632  31.496  24.453   7.975
    9AU     AUC 2633  31.457  24.821   8.023
    9AU     AUC 2634  31.497  24.553   7.026
    9AU     AUC 2635  31.520  24.922   7.021
    9AU     AUC 2636  30.871  24.447   7.985
    9AU     AUC 2637  30.864  24.801   7.986
    9AU     AUC 2638  30.874  24.454   7.033
    9AU     AUC 2639  30.870  24.829   7.011
    9AU     AUC 2640  31.669  25.031   7.368
    9AU     AUC 2641  31.601  24.986   7.723
    9AU     AUC 2642  30.692  24.926   7.295
    9AU     AUC 2643  30.660  24.957   7.690
    9AU     AUC 2644  31.695  24.453   7.315
    9AU     AUC 2645  31.691  24.415   7.643
    9AU     AUC 2646  30.676  24.358   7.328
    9AU     AUC 2647  30.690  24.374   7.654
    9AU     AUC 2648  30.955  25.153   7.791
    9AU     AUC 2649  31.289  25.162   7.812
    9AU     AUC 2650  30.971  24.176   7.783
    9AU     AUC 2651  31.389  24.189   7.805
    9AU     AUC 2652  30.973  25.115   7.174
    9AU     AUC 2653  31.367  25.171   7.190
    9AU     AUC 2654  31.005  24.197   7.210
    9AU     AUC 2655  31.385  24.226   7.179
    9AU    AUSL 2656  31.749  24.602   8.250
    9AU    AUSL 2657  31.621  24.115   8.108
    9AU     AUL 2658  31.892  24.213   8.314
    9AU       S 2659  32.027  23.839   8.087
    9AU     LIG 2660  31.878  23.709   8.464
    9AU     LIG 2661  32.091  23.535   8.837
    9AU       S 2662  31.985  24.654   8.366
    9AU     LIG 2663  31.904  24.625   8.800
    9AU     LIG 2664  32.119  24.494   9.191
    9AU    AUSL 2665  31.344  24.408   8.295
    9AU    AUSL 2666  31.017  24.737   8.406
    9AU     AUL 2667  31.188  24.606   8.648
    9AU       S 2668  31.538  24.330   8.566
    9AU     LIG 2669  31.476  24.413   9.009
    9AU     LIG 2670  31.649  24.561   9.402
    9AU       S 2671  30.503  24.534   8.687
    9AU     LIG 2672  30.637  24.861   8.999
    9AU     LIG 2673  30.606  24.902   9.469
    9AU    AUSL 2674  31.357  24.837   8.172
    9AU    AUSL 2675  31.769  25.032   8.156
    9AU     AUL 2676  31.576  24.845   8.478
    9AU       S 2677  31.189  25.098   8.640
    9AU     LIG 2678  31.503  24.940   8.955
    9AU     LIG 2679  31.898  24.969   9.191
    9AU       S 2680  31.898  25.178   8.365
    9AU     LIG 2681  32.335  25.203   8.464
    9AU     LIG 2682  32.728  25.464   8.506
    9AU    AUSL 2683  31.771  24.818   6.784
    9AU    AUSL 2684  31.641  25.262   6.854
    9AU     AUL 2685  31.817  25.087   6.548
    9AU       S 2686  31.706  24.688   6.326
    9AU     LIG 2687  32.044  24.739   6.025
    9AU     LIG 2688  32.017  24.447   5.650
    9AU       S 2689  31.965  25.418   6.831
    9AU     LIG 2690  31.890  25.559   6.407
    9AU     LIG 2691  32.137  25.786   6.088
    9AU    AUSL 2692  31.422  24.567   6.736
    9AU    AUSL 2693  31.735  24.478   7.061
    9AU     AUL 2694  31.857  24.521   6.722
    9AU       S 2695  32.015  24.065   6.621
    9AU     LIG 2696  32.416  23.868   6.532
    9AU     LIG 2697  32.662  23.733   6.168
    9AU       S 2698  31.535  24.384   6.393
    9AU     LIG 2699  31.417  24.144   6.003
    9AU     LIG 2700  31.473  24.244   5.542
    9AU    AUSL 2701  31.354  24.999   6.651
    9AU    AUSL 2702  31.065  24.394   6.586
    9AU     AUL 2703  31.237  24.732   6.416
    9AU       S 2704  30.893  24.423   6.268
    9AU     LIG 2705  30.965  24.292   5.805
    9AU     LIG 2706  30.591  24.247   5.532
    9AU       S 2707  31.775  24.383   6.251
    9AU     LIG 2708  31.562  24.619   5.866
    9AU     LIG 2709  31.650  24.751   5.427
    9AU    AUSL 2710  30.666  24.608   8.170
    9AU    AUSL 2711  30.889  25.046   8.136
    9AU     AUL 2712  30.755  24.913   8.449
    9AU       S 2713  30.401  24.609   8.408
    9AU     LIG 2714  30.169  24.872   8.771
    9AU     LIG 2715  30.205  24.673   9.215
    9AU       S 2716  30.466  25.258   8.297
    9AU     LIG 2717  30.348  25.405   8.681
    9AU     LIG 2718  30.193  25.830   8.790
    9AU    AUSL 2719  30.928  24.299   8.376
    9AU    AUSL 2720  30.498  24.224   8.048
    9AU     AUL 2721  30.609  24.199   8.329
    9AU       S 2722  30.269  23.914   8.152
    9AU     LIG 2723  29.990  23.786   8.499
    9AU     LIG 2724  29.830  23.465   8.815
    9AU       S 2725  30.724  24.471   8.678
    9AU     LIG 2726  30.883  24.418   9.090
    9AU     LIG 2727  30.637  24.382   9.485
    9AU    AUSL 2728  30.672  24.543   6.711
    9AU    AUSL 2729  30.943  24.256   6.980
    9AU     AUL 2730  30.806  24.163   6.656
    9AU       S 2731  30.511  24.456   6.414
    9AU     LIG 2732  30.197  24.527   6.049
    9AU     LIG 2733  30.190  24.579   5.569
    9AU       S 2734  30.342  23.983   6.627
    9AU     LIG 2735  30.217  23.536   6.487
    9AU     LIG 2736  29.852  23.319   6.263
    9AU    AUSL 2737  31.014  24.805   6.821
    9AU    AUSL 2738  30.554  24.911   6.903
    9AU     AUL 2739  30.769  24.831   6.537
    9AU       S 2740  30.382  25.040   6.710
    9AU     LIG 2741  30.010  25.295   6.624
    9AU     LIG 2742  29.779  25.527   6.293
    9AU       S 2743  30.634  24.310   6.197
    9AU     LIG 2744  30.646  24.677   5.874
    9AU     LIG 2745  30.541  24.975   5.526
    9AU    AUSL 2746  31.852  25.313   7.578
    9AU    AUSL 2747  31.860  25.032   7.152
    9AU     AUL 2748  32.008  25.414   7.298
    9AU       S 2749  32.118  25.078   6.978
    9AU     LIG 2750  32.255  24.851   6.598
    9AU     LIG 2751  32.246  25.178   6.262
    9AU       S 2752  32.347  25.248   7.959
    9AU     LIG 2753  32.684  25.517   7.815
    9AU     LIG 2754  32.970  25.546   7.473
    9AU    AUSL 2755  32.146  24.983   7.467
    9AU    AUSL 2756  32.136  24.574   7.701
    9AU     AUL 2757  32.444  24.777   7.609
    9AU       S 2758  32.302  25.210   7.680
    9AU     LIG 2759  32.572  25.186   7.287
    9AU     LIG 2760  33.023  25.148   7.116
    9AU       S 2761  32.384  24.310   7.527
    9AU     LIG 2762  32.608  24.137   7.864
    9AU     LIG 2763  32.955  23.816   7.832
    9AU    AUSL 2764  31.846  24.891   7.763
    9AU    AUSL 2765  31.515  25.204   7.825
    9AU     AUL 2766  31.874  25.302   7.907
    9AU       S 2767  31.888  25.494   8.360
    9AU     LIG 2768  32.323  25.684   8.256
    9AU     LIG 2769  32.589  26.024   8.480
    9AU       S 2770  32.204  24.968   7.973
    9AU     LIG 2771  32.708  24.950   8.081
    9AU     LIG 2772  33.061  25.285   8.084
    9AU    AUSL 2773  30.507  25.159   7.529
    9AU    AUSL 2774  30.501  24.941   7.944
    9AU     AUL 2775  30.224  25.276   7.781
    9AU       S 2776  30.379  25.019   8.148
    9AU     LIG 2777  29.988  25.147   8.361
    9AU     LIG 2778  29.831  25.471   8.660
    9AU       S 2779  30.443  25.570   7.485
    9AU     LIG 2780  29.990  25.524   7.292
    9AU     LIG 2781  29.562  25.781   7.273
    9AU    AUSL 2782  30.443  24.788   7.292
    9AU    AUSL 2783  30.565  25.298   7.125
    9AU     AUL 2784  30.285  25.112   7.188
    9AU       S 2785  30.147  24.667   6.928
    9AU     LIG 2786  29.828  25.034   7.031
    9AU     LIG 2787  29.454  25.286   7.172
    9AU       S 2788  30.393  25.491   6.903
    9AU     LIG 2789  30.094  25.797   6.735
    9AU     LIG 2790  29.749  25.999   6.520
    9AU    AUSL 2791  30.198  24.837   7.656
    9AU    AUSL 2792  30.218  24.430   7.379
    9AU     AUL 2793  30.049  24.740   7.376
    9AU       S 2794  29.986  24.355   7.649
    9AU     LIG 2795  29.665  24.231   7.361
    9AU     LIG 2796  29.203  24.177   7.311
    9AU       S 2797  29.988  24.868   7.859
    9AU     LIG 2798  29.772  25.135   7.568
    9AU     LIG 2799  29.450  25.447   7.667
    9AU    AUSL 2800  31.889  24.295   7.461
    9AU    AUSL 2801  31.753  24.439   7.856
    9AU     AUL 2802  32.079  24.304   7.884
    9AU       S 2803  32.212  24.123   7.470
    9AU     LIG 2804  32.551  23.807   7.476
    9AU     LIG 2805  32.959  23.719   7.285
    9AU       S 2806  32.237  23.807   7.893
    9AU     LIG 2807  32.486  23.863   8.293
    9AU     LIG 2808  32.589  23.685   8.707
    9AU    AUSL 2809  32.099  24.617   7.235
    9AU    AUSL 2810  31.830  24.026   7.131
    9AU     AUL 2811  32.049  24.281   7.070
    9AU       S 2812  32.410  24.416   7.312
    9AU     LIG 2813  32.520  24.095   7.043
    9AU     LIG 2814  32.916  24.115   6.873
    9AU       S 2815  31.942  23.879   6.836
    9AU     LIG 2816  32.061  23.511   6.601
    9AU     LIG 2817  32.464  23.320   6.435
    9AU    AUSL 2818  30.597  24.197   7.467
    9AU    AUSL 2819  30.509  24.370   7.063
    9AU     AUL 2820  30.243  24.138   7.273
    9AU       S 2821  30.347  24.213   6.826
    9AU     LIG 2822  29.924  24.045   6.910
    9AU     LIG 2823  29.758  23.746   6.616
    9AU       S 2824  29.902  24.138   7.826
    9AU     LIG 2825  29.948  23.817   7.490
    9AU     LIG 2826  29.690  23.632   7.127
    9AU    AUSL 2827  30.458  24.510   7.740
    9AU    AUSL 2828  30.642  23.908   7.775
    9AU     AUL 2829  30.363  24.076   7.726
    9AU       S 2830  30.463  23.667   7.940
    9AU     LIG 2831  30.036  23.493   7.982
    9AU     LIG 2832  29.758  23.377   8.328
    9AU       S 2833  30.069  24.405   7.873
    9AU     LIG 2834  29.544  24.457   7.873
    9AU     LIG 2835  29.193  24.124   7.838
    9AU    AUSL 2836  31.114  25.378   7.962
    9AU    AUSL 2837  30.677  25.342   7.885
    9AU     AUL 2838  30.916  25.378   8.252
    9AU       S 2839  30.539  25.534   8.022
    9AU     LIG 2840  30.141  25.649   8.261
    9AU     LIG 2841  29.811  25.946   8.440
    9AU       S 2842  31.064  25.769   8.015
    9AU     LIG 2843  31.394  26.015   8.238
    9AU     LIG 2844  31.532  26.464   8.309
    9AU    AUSL 2845  30.920  25.571   7.611
    9AU    AUSL 2846  31.256  25.629   7.275
    9AU     AUL 2847  30.945  25.826   7.385
    9AU       S 2848  31.086  26.004   7.835
    9AU     LIG 2849  31.100  26.426   8.033
    9AU     LIG 2850  31.202  26.884   8.160
    9AU       S 2851  31.215  25.851   6.987
    9AU     LIG 2852  31.510  26.192   7.137
    9AU     LIG 2853  31.670  26.658   7.131
    9AU    AUSL 2854  31.391  25.583   7.680
    9AU    AUSL 2855  31.395  25.251   8.260
    9AU     AUL 2856  31.473  25.527   8.047
    9AU       S 2857  31.607  25.346   8.487
    9AU     LIG 2858  31.932  25.345   8.833
    9AU     LIG 2859  32.299  25.632   8.774
    9AU       S 2860  31.317  25.854   7.732
    9AU     LIG 2861  31.542  26.286   7.800
    9AU     LIG 2862  31.604  26.773   7.859
    9AU    AUSL 2863  31.225  23.946   8.135
    9AU    AUSL 2864  31.783  23.959   7.710
    9AU     AUL 2865  31.551  23.760   8.025
    9AU       S 2866  31.147  23.428   8.114
    9AU     LIG 2867  30.860  23.115   8.277
    9AU     LIG 2868  30.840  22.668   8.381
    9AU       S 2869  31.955  23.812   7.758
    9AU     LIG 2870  31.969  23.373   7.988
    9AU     LIG 2871  32.265  23.380   8.357
    9AU    AUSL 2872  31.047  23.772   7.761
    9AU    AUSL 2873  30.938  24.203   7.958
    9AU     AUL 2874  30.876  23.857   8.107
    9AU       S 2875  30.985  23.481   7.856
    9AU     LIG 2876  30.651  23.194   7.820
    9AU     LIG 2877  30.461  22.825   8.050
    9AU       S 2878  30.426  23.718   8.227
    9AU     LIG 2879  30.369  23.297   8.322
    9AU     LIG 2880  30.212  23.100   8.708
    9AU    AUSL 2881  31.374  24.047   7.698
    9AU    AUSL 2882  31.019  23.912   7.355
    9AU     AUL 2883  31.327  23.679   7.559
    9AU       S 2884  30.849  23.566   7.376
    9AU     LIG 2885  30.560  23.159   7.312
    9AU     LIG 2886  30.540  22.747   7.089
    9AU       S 2887  31.207  23.295   7.870
    9AU     LIG 2888  31.050  22.869   7.862
    9AU     LIG 2889  31.256  22.533   8.081
    9AU    AUSL 2890  31.231  25.342   6.948
    9AU    AUSL 2891  31.532  25.294   7.294
    9AU     AUL 2892  31.578  25.570   7.077
    9AU       S 2893  31.251  25.555   6.727
    9AU     LIG 2894  31.604  25.903   6.674
    9AU     LIG 2895  31.575  26.384   6.660
    9AU       S 2896  32.225  25.301   6.830
    9AU     LIG 2897  32.328  25.714   6.612
    9AU     LIG 2898  32.280  26.158   6.441
    9AU    AUSL 2899  30.956  25.297   7.291
    9AU    AUSL 2900  30.858  25.212   6.797
    9AU     AUL 2901  30.855  25.525   7.003
    9AU       S 2902  31.104  25.854   6.724
    9AU     LIG 2903  31.087  26.328   6.864
    9AU     LIG 2904  31.195  26.793   6.977
    9AU       S 2905  30.593  25.317   6.633
    9AU     LIG 2906  30.328  25.575   6.329
    9AU     LIG 2907  30.060  25.917   6.109
    9AU    AUSL 2908  31.185  23.904   6.935
    9AU    AUSL 2909  30.653  23.944   7.122
    9AU     AUL 2910  30.905  23.810   6.969
    9AU       S 2911  30.441  23.914   6.892
    9AU     LIG 2912  30.168  23.581   6.992
    9AU     LIG 2913  29.837  23.275   6.783
    9AU       S 2914  31.101  23.423   7.190
    9AU     LIG 2915  30.851  23.143   6.895
    9AU     LIG 2916  30.682  22.805   6.601
    9AU    AUSL 2917  31.434  24.045   7.278
    9AU    AUSL 2918  31.515  24.162   6.837
    9AU     AUL 2919  31.517  23.791   7.047
    9AU       S 2920  31.015  23.317   7.398
    9AU     LIG 2921  31.026  22.884   7.315
    9AU     LIG 2922  31.046  22.618   6.949
    9AU       S 2923  31.702  24.033   6.667
    9AU     LIG 2924  31.783  23.821   6.259
    9AU     LIG 2925  32.156  23.584   6.087
   10AU     AUC 2926   5.243  14.578   7.494
   10AU     AUC 2927   5.537  14.626   7.328
   10AU     AUC 2928   5.509  14.599   7.661
   10AU     AUC 2929   4.963  14.554   7.329
   10AU     AUC 2930   4.966  14.560   7.678
   10AU     AUC 2931   5.050  14.815   7.516
   10AU     AUC 2932   5.383  14.852   7.496
   10AU     AUC 2933   5.093  14.297   7.501
   10AU     AUC 2934   5.444  14.350   7.481
   10AU     AUC 2935   5.280  14.411   7.766
   10AU     AUC 2936   5.221  14.733   7.767
   10AU     AUC 2937   5.269  14.427   7.220
   10AU     AUC 2938   5.256  14.761   7.230
   10AU     AUC 2939   5.850  14.662   7.174
   10AU     AUC 2940   5.888  14.649   7.494
   10AU     AUC 2941   5.822  14.602   7.859
   10AU     AUC 2942   4.658  14.520   7.155
   10AU     AUC 2943   4.620  14.567   7.522
   10AU     AUC 2944   4.674  14.545   7.859
   10AU     AUC 2945   4.870  15.116   7.505
   10AU     AUC 2946   5.204  15.191   7.493
   10AU     AUC 2947   5.525  15.177   7.513
   10AU     AUC 2948   4.919  13.970   7.506
   10AU     AUC 2949   5.265  14.020   7.497
   10AU     AUC 2950   5.651  14.070   7.451
   10AU     AUC 2951   5.293  14.187   8.059
   10AU     AUC 2952   5.245  14.508   8.100
   10AU     AUC 2953   5.239  14.883   8.064
   10AU     AUC 2954   5.268  14.229   6.929
   10AU     AUC 2955   5.257  14.578   6.909
   10AU     AUC 2956   5.268  14.934   6.932
   10AU     AUC 2957   5.581  14.351   7.961
   10AU     AUC 2958   5.545  14.719   8.010
   10AU     AUC 2959   5.551  14.450   7.009
   10AU     AUC 2960   5.574  14.817   7.003
   10AU     AUC 2961   4.957  14.346   7.986
   10AU     AUC 2962   4.948  14.702   7.988
   10AU     AUC 2963   4.925  14.349   7.045
   10AU     AUC 2964   4.924  14.726   7.017
   10AU     AUC 2965   5.738  14.927   7.348
   10AU     AUC 2966   5.682  14.884   7.706
   10AU     AUC 2967   4.759  14.826   7.303
   10AU     AUC 2968   4.738  14.860   7.699
   10AU     AUC 2969   5.759  14.352   7.293
   10AU     AUC 2970   5.766  14.314   7.624
   10AU     AUC 2971   4.736  14.258   7.348
   10AU     AUC 2972   4.765  14.274   7.669
   10AU     AUC 2973   5.038  15.053   7.792
   10AU     AUC 2974   5.373  15.061   7.804
   10AU     AUC 2975   5.055  14.073   7.783
   10AU     AUC 2976   5.474  14.087   7.794
   10AU     AUC 2977   5.036  15.013   7.176
   10AU     AUC 2978   5.430  15.067   7.180
   10AU     AUC 2979   5.066  14.092   7.218
   10AU     AUC 2980   5.446  14.124   7.167
   10AU    AUSL 2981   5.838  14.497   8.236
   10AU    AUSL 2982   5.712  14.016   8.091
   10AU     AUL 2983   5.984  14.111   8.306
   10AU       S 2984   6.111  13.741   8.068
   10AU     LIG 2985   5.918  13.623   8.442
   10AU     LIG 2986   6.005  13.454   8.859
   10AU       S 2987   6.071  14.551   8.345
   10AU     LIG 2988   6.082  14.706   8.760
   10AU     LIG 2989   6.194  14.439   9.129
   10AU    AUSL 2990   5.432  14.305   8.283
   10AU    AUSL 2991   5.109  14.636   8.404
   10AU     AUL 2992   5.279  14.505   8.648
   10AU       S 2993   5.606  14.216   8.527
   10AU     LIG 2994   5.703  14.405   8.925
   10AU     LIG 2995   5.748  14.315   9.381
   10AU       S 2996   4.572  14.439   8.678
   10AU     LIG 2997   4.691  14.772   8.992
   10AU     LIG 2998   4.634  14.794   9.465
   10AU    AUSL 2999   5.445  14.735   8.162
   10AU    AUSL 3000   5.860  14.925   8.136
   10AU     AUL 3001   5.663  14.737   8.465
   10AU       S 3002   5.275  15.003   8.625
   10AU     LIG 3003   5.600  14.917   8.915
   10AU     LIG 3004   5.876  14.819   9.246
   10AU       S 3005   5.979  15.068   8.345
   10AU     LIG 3006   6.376  15.044   8.474
   10AU     LIG 3007   6.668  15.332   8.677
   10AU    AUSL 3008   5.816  14.713   6.750
   10AU    AUSL 3009   5.691  15.154   6.831
   10AU     AUL 3010   5.842  14.979   6.507
   10AU       S 3011   5.733  14.572   6.286
   10AU     LIG 3012   6.145  14.598   6.060
   10AU     LIG 3013   6.224  14.282   5.706
   10AU       S 3014   6.010  15.298   6.795
   10AU     LIG 3015   5.968  15.439   6.370
   10AU     LIG 3016   6.188  15.760   6.122
   10AU    AUSL 3017   5.464  14.462   6.722
   10AU    AUSL 3018   5.790  14.379   7.036
   10AU     AUL 3019   5.893  14.412   6.685
   10AU       S 3020   6.042  13.952   6.587
   10AU     LIG 3021   6.290  13.723   6.274
   10AU     LIG 3022   6.524  13.490   5.942
   10AU       S 3023   5.559  14.264   6.364
   10AU     LIG 3024   5.467  14.059   5.924
   10AU     LIG 3025   5.764  14.008   5.543
   10AU    AUSL 3026   5.391  14.894   6.642
   10AU    AUSL 3027   5.100  14.284   6.596
   10AU     AUL 3028   5.273  14.620   6.415
   10AU       S 3029   4.920  14.314   6.285
   10AU     LIG 3030   4.962  14.191   5.815
   10AU     LIG 3031   4.694  14.058   5.447
   10AU       S 3032   5.808  14.267   6.219
   10AU     LIG 3033   5.734  14.469   5.780
   10AU     LIG 3034   5.907  14.488   5.338
   10AU    AUSL 3035   4.753  14.512   8.177
   10AU    AUSL 3036   4.978  14.947   8.136
   10AU     AUL 3037   4.840  14.817   8.449
   10AU       S 3038   4.488  14.508   8.391
   10AU     LIG 3039   4.241  14.786   8.720
   10AU     LIG 3040   4.241  14.596   9.175
   10AU       S 3041   4.556  15.178   8.309
   10AU     LIG 3042   4.415  15.512   8.586
   10AU     LIG 3043   4.188  15.840   8.843
   10AU    AUSL 3044   5.018  14.200   8.373
   10AU    AUSL 3045   4.597  14.119   8.059
   10AU     AUL 3046   4.704  14.100   8.339
   10AU       S 3047   4.415  13.759   8.178
   10AU     LIG 3048   4.032  13.601   8.423
   10AU     LIG 3049   3.650  13.311   8.538
   10AU       S 3050   4.808  14.383   8.683
   10AU     LIG 3051   4.793  14.290   9.135
   10AU     LIG 3052   4.535  14.280   9.523
   10AU    AUSL 3053   4.712  14.437   6.734
   10AU    AUSL 3054   4.988  14.148   6.994
   10AU     AUL 3055   4.837  14.059   6.674
   10AU       S 3056   4.528  14.357   6.458
   10AU     LIG 3057   4.230  14.422   6.079
   10AU     LIG 3058   4.320  14.388   5.611
   10AU       S 3059   4.387  13.867   6.695
   10AU     LIG 3060   4.564  13.430   6.596
   10AU     LIG 3061   4.506  13.179   6.216
   10AU    AUSL 3062   5.060  14.697   6.825
   10AU    AUSL 3063   4.604  14.814   6.914
   10AU     AUL 3064   4.811  14.723   6.547
   10AU       S 3065   4.432  14.941   6.725
   10AU     LIG 3066   4.135  15.244   6.553
   10AU     LIG 3067   4.030  15.570   6.240
   10AU       S 3068   4.663  14.232   6.236
   10AU     LIG 3069   4.686  14.601   5.933
   10AU     LIG 3070   4.810  14.605   5.478
   10AU    AUSL 3071   5.930  15.211   7.553
   10AU    AUSL 3072   5.918  14.920   7.118
   10AU     AUL 3073   6.072  15.307   7.262
   10AU       S 3074   6.167  14.978   6.928
   10AU     LIG 3075   6.319  14.875   6.494
   10AU     LIG 3076   6.437  15.264   6.264
   10AU       S 3077   6.442  15.121   7.961
   10AU     LIG 3078   6.854  15.313   7.813
   10AU     LIG 3079   7.256  15.287   7.585
   10AU    AUSL 3080   6.213  14.878   7.425
   10AU    AUSL 3081   6.212  14.467   7.663
   10AU     AUL 3082   6.502  14.661   7.532
   10AU       S 3083   6.388  15.095   7.653
   10AU     LIG 3084   6.800  15.025   7.388
   10AU     LIG 3085   7.186  15.107   7.112
   10AU       S 3086   6.449  14.184   7.507
   10AU     LIG 3087   6.759  13.933   7.712
   10AU     LIG 3088   7.211  13.878   7.688
   10AU    AUSL 3089   5.931  14.790   7.739
   10AU    AUSL 3090   5.601  15.101   7.810
   10AU     AUL 3091   5.967  15.195   7.888
   10AU       S 3092   5.961  15.371   8.363
   10AU     LIG 3093   6.088  15.742   8.137
   10AU     LIG 3094   6.313  16.171   8.122
   10AU       S 3095   6.295  14.854   7.929
   10AU     LIG 3096   6.822  14.809   7.894
   10AU     LIG 3097   7.284  14.956   7.994
   10AU    AUSL 3098   4.588  15.061   7.539
   10AU    AUSL 3099   4.580  14.850   7.962
   10AU     AUL 3100   4.310  15.190   7.792
   10AU       S 3101   4.457  14.928   8.158
   10AU     LIG 3102   4.061  15.120   8.331
   10AU     LIG 3103   3.896  15.501   8.568
   10AU       S 3104   4.530  15.480   7.495
   10AU     LIG 3105   4.071  15.404   7.384
   10AU     LIG 3106   3.622  15.567   7.453
   10AU    AUSL 3107   4.511  14.688   7.306
   10AU    AUSL 3108   4.629  15.200   7.134
   10AU     AUL 3109   4.350  15.013   7.207
   10AU       S 3110   4.201  14.567   6.951
   10AU     LIG 3111   3.874  14.946   7.080
   10AU     LIG 3112   3.442  15.139   7.231
   10AU       S 3113   4.455  15.391   6.918
   10AU     LIG 3114   4.375  15.731   6.616
   10AU     LIG 3115   4.117  16.065   6.417
   10AU    AUSL 3116   4.276  14.751   7.672
   10AU    AUSL 3117   4.282  14.338   7.414
   10AU     AUL 3118   4.116  14.643   7.399
   10AU       S 3119   4.068  14.281   7.708
   10AU     LIG 3120   3.779  14.191   7.381
   10AU     LIG 3121   3.394  14.089   7.138
   10AU       S 3122   4.043  14.801   7.862
   10AU     LIG 3123   3.765  15.113   7.695
   10AU     LIG 3124   3.539  15.432   7.946
   10AU    AUSL 3125   5.945  14.195   7.437
   10AU    AUSL 3126   5.835  14.342   7.839
   10AU     AUL 3127   6.153  14.210   7.866
   10AU       S 3128   6.256  14.027   7.441
   10AU     LIG 3129   6.471  13.665   7.386
   10AU     LIG 3130   6.918  13.549   7.383
   10AU       S 3131   6.334  13.736   7.909
   10AU     LIG 3132   6.464  13.688   8.394
   10AU     LIG 3133   6.522  13.468   8.798
   10AU    AUSL 3134   6.162  14.507   7.202
   10AU    AUSL 3135   5.893  13.930   7.102
   10AU     AUL 3136   6.114  14.194   7.037
   10AU       S 3137   6.503  14.254   7.282
   10AU     LIG 3138   6.951  14.058   7.237
   10AU     LIG 3139   7.382  13.844   7.197
   10AU       S 3140   5.999  13.784   6.821
   10AU     LIG 3141   5.976  13.423   6.557
   10AU     LIG 3142   6.266  13.186   6.285
   10AU    AUSL 3143   4.665  14.110   7.494
   10AU    AUSL 3144   4.554  14.257   7.086
   10AU     AUL 3145   4.297  14.037   7.321
   10AU       S 3146   4.387  14.100   6.868
   10AU     LIG 3147   3.953  13.898   6.967
   10AU     LIG 3148   3.687  13.511   6.817
   10AU       S 3149   4.033  14.156   7.975
   10AU     LIG 3150   3.975  13.782   7.657
   10AU     LIG 3151   3.656  13.662   7.324
   10AU    AUSL 3152   4.527  14.420   7.771
   10AU    AUSL 3153   4.725  13.801   7.778
   10AU     AUL 3154   4.432  13.986   7.768
   10AU       S 3155   4.572  13.553   7.911
   10AU     LIG 3156   4.134  13.388   7.977
   10AU     LIG 3157   4.061  13.087   8.333
   10AU       S 3158   4.188  14.357   7.932
   10AU     LIG 3159   3.643  14.454   7.858
   10AU     LIG 3160   3.210  14.223   7.825
   10AU    AUSL 3161   5.204  15.276   7.958
   10AU    AUSL 3162   4.765  15.245   7.891
   10AU     AUL 3163   5.011  15.275   8.255
   10AU       S 3164   4.644  15.435   8.017
   10AU     LIG 3165   4.213  15.566   8.115
   10AU     LIG 3166   4.075  15.937   8.334
   10AU       S 3167   5.156  15.660   8.014
   10AU     LIG 3168   5.429  15.849   8.298
   10AU     LIG 3169   5.507  16.301   8.316
   10AU    AUSL 3170   5.003  15.474   7.613
   10AU    AUSL 3171   5.328  15.525   7.267
   10AU     AUL 3172   5.031  15.732   7.385
   10AU       S 3173   5.203  15.898   7.839
   10AU     LIG 3174   5.004  16.213   8.111
   10AU     LIG 3175   4.681  16.573   8.201
   10AU       S 3176   5.272  15.741   6.962
   10AU     LIG 3177   5.633  15.975   7.112
   10AU     LIG 3178   5.944  16.318   6.962
   10AU    AUSL 3179   5.475  15.479   7.668
   10AU    AUSL 3180   5.491  15.149   8.248
   10AU     AUL 3181   5.568  15.421   8.035
   10AU       S 3182   5.698  15.234   8.475
   10AU     LIG 3183   6.013  15.216   8.838
   10AU     LIG 3184   6.305  15.533   8.997
   10AU       S 3185   5.407  15.740   7.722
   10AU     LIG 3186   5.719  16.037   7.913
   10AU     LIG 3187   5.912  16.473   8.013
   10AU    AUSL 3188   5.319  13.842   8.130
   10AU    AUSL 3189   5.866  13.856   7.692
   10AU     AUL 3190   5.639  13.660   8.012
   10AU       S 3191   4.988  13.277   8.110
   10AU     LIG 3192   5.013  12.890   8.275
   10AU     LIG 3193   5.036  12.515   8.473
   10AU       S 3194   6.054  13.707   7.757
   10AU     LIG 3195   6.025  13.275   8.007
   10AU     LIG 3196   6.230  13.211   8.429
   10AU    AUSL 3197   5.131  13.670   7.761
   10AU    AUSL 3198   5.030  14.097   7.956
   10AU     AUL 3199   4.967  13.759   8.110
   10AU       S 3200   5.067  13.388   7.836
   10AU     LIG 3201   4.869  13.044   7.701
   10AU     LIG 3202   4.794  12.674   7.868
   10AU       S 3203   4.549  13.526   8.201
   10AU     LIG 3204   4.467  13.307   8.559
   10AU     LIG 3205   4.216  13.059   8.855
   10AU    AUSL 3206   5.456  13.944   7.686
   10AU    AUSL 3207   5.093  13.806   7.355
   10AU     AUL 3208   5.415  13.580   7.557
   10AU       S 3209   4.961  13.459   7.365
   10AU     LIG 3210   4.736  13.150   7.094
   10AU     LIG 3211   5.044  12.810   6.942
   10AU       S 3212   5.277  13.267   8.008
   10AU     LIG 3213   5.316  12.816   7.874
   10AU     LIG 3214   5.563  12.436   7.967
   10AU    AUSL 3215   5.287  15.237   6.944
   10AU    AUSL 3216   5.603  15.188   7.277
   10AU     AUL 3217   5.638  15.463   7.055
   10AU       S 3218   5.297  15.431   6.715
   10AU     LIG 3219   5.655  15.740   6.635
   10AU     LIG 3220   5.518  16.180   6.653
   10AU       S 3221   6.289  15.248   6.814
   10AU     LIG 3222   6.324  15.690   6.636
   10AU     LIG 3223   6.353  16.141   6.466
   10AU    AUSL 3224   5.023  15.197   7.295
   10AU    AUSL 3225   4.912  15.106   6.799
   10AU     AUL 3226   4.916  15.424   7.012
   10AU       S 3227   5.151  15.721   6.692
   10AU     LIG 3228   4.996  16.153   6.853
   10AU     LIG 3229   4.780  16.575   6.963
   10AU       S 3230   4.660  15.214   6.644
   10AU     LIG 3231   4.537  15.414   6.250
   10AU     LIG 3232   4.438  15.839   6.060
   10AU    AUSL 3233   5.237  13.805   6.929
   10AU    AUSL 3234   4.706  13.838   7.161
   10AU     AUL 3235   4.952  13.711   6.972
   10AU       S 3236   4.482  13.792   6.954
   10AU     LIG 3237   4.196  13.443   6.948
   10AU     LIG 3238   4.077  13.116   6.621
   10AU       S 3239   5.210  13.345   7.158
   10AU     LIG 3240   5.058  13.267   6.716
   10AU     LIG 3241   4.990  12.884   6.427
   10AU    AUSL 3242   5.502  13.942   7.263
   10AU    AUSL 3243   5.567  14.059   6.820
   10AU     AUL 3244   5.577  13.690   7.030
   10AU       S 3245   5.166  13.205   7.355
   10AU     LIG 3246   5.488  12.924   7.186
   10AU     LIG 3247   5.540  12.624   6.852
   10AU       S 3248   5.748  13.923   6.641
   10AU     LIG 3249   5.775  13.749   6.204
   10AU     LIG 3250   5.999  13.451   5.919
   11POPC   NC3 3251  33.479  34.785   9.617
   11POPC   PO4 3252  34.033  34.328   9.505
   11POPC   GL1 3253  33.761  34.504   9.216
   11POPC   GL2 3254  33.801  34.876   9.232
   11POPC   C1A 3255  33.837  34.516   8.760
   11POPC   D2A 3256  34.027  34.443   8.362
   11POPC   C3A 3257  33.792  34.623   8.033
   11POPC   C4A 3258  33.875  34.735   7.618
   11POPC   C1B 3259  33.469  34.805   8.911
   11POPC   C2B 3260  33.498  34.874   8.438
   11POPC   C3B 3261  33.286  34.885   8.010
   11POPC   C4B 3262  33.440  34.952   7.558
   12POPC   NC3 3263  25.166  25.597   9.479
   12POPC   PO4 3264  25.047  24.831   9.483
   12POPC   GL1 3265  25.262  24.989   9.114
   12POPC   GL2 3266  25.110  25.276   9.111
   12POPC   C1A 3267  25.374  25.221   8.683
   12POPC   D2A 3268  25.550  25.378   8.291
   12POPC   C3A 3269  25.397  25.240   7.897
   12POPC   C4A 3270  25.448  25.398   7.449
   12POPC   C1B 3271  24.916  25.427   8.772
   12POPC   C2B 3272  24.934  25.188   8.417
   12POPC   C3B 3273  24.897  25.183   7.979
   12POPC   C4B 3274  24.973  25.369   7.607
   13POPC   NC3 3275  30.816  14.108   9.375
   13POPC   PO4 3276  30.512  14.776   9.362
   13POPC   GL1 3277  30.686  14.499   9.072
   13POPC   GL2 3278  31.058  14.538   9.092
   13POPC   C1A 3279  30.765  14.248   8.683
   13POPC   D2A 3280  30.709  14.396   8.251
   13POPC   C3A 3281  30.662  14.141   7.859
   13POPC   C4A 3282  30.951  14.009   7.547
   13POPC   C1B 3283  30.913  14.740   8.693
   13POPC   C2B 3284  30.974  14.851   8.271
   13POPC   C3B 3285  30.816  14.715   7.876
   13POPC   C4B 3286  30.843  14.503   7.456
   14POPC   NC3 3287  18.783  21.582   9.534
   14POPC   PO4 3288  18.219  21.322   9.806
   14POPC   GL1 3289  18.347  21.319   9.272
   14POPC   GL2 3290  18.464  21.580   9.150
   14POPC   C1A 3291  18.198  21.326   8.783
   14POPC   D2A 3292  18.137  21.127   8.358
   14POPC   C3A 3293  18.143  21.403   7.990
   14POPC   C4A 3294  17.972  21.805   7.897
   14POPC   C1B 3295  18.699  21.496   8.795
   14POPC   C2B 3296  18.598  21.391   8.390
   14POPC   C3B 3297  18.665  21.365   7.972
   14POPC   C4B 3298  18.476  21.340   7.576
   15POPC   NC3 3299  40.992  41.862   9.541
   15POPC   PO4 3300  40.539  41.309   9.439
   15POPC   GL1 3301  40.737  41.458   9.111
   15POPC   GL2 3302  41.063  41.595   9.117
   15POPC   C1A 3303  40.616  41.617   8.717
   15POPC   D2A 3304  40.486  41.413   8.327
   15POPC   C3A 3305  40.522  41.644   8.000
   15POPC   C4A 3306  40.797  41.546   7.681
   15POPC   C1B 3307  41.049  41.348   8.733
   15POPC   C2B 3308  40.975  41.565   8.368
   15POPC   C3B 3309  41.041  41.804   8.040
   15POPC   C4B 3310  41.259  41.446   7.905
   16POPC   NC3 3311   8.876  30.151   9.556
   16POPC   PO4 3312   9.402  29.790   9.352
   16POPC   GL1 3313   8.980  29.756   9.212
   16POPC   GL2 3314   9.023  30.079   9.070
   16POPC   C1A 3315   8.728  29.659   8.856
   16POPC   D2A 3316   8.892  29.623   8.447
   16POPC   C3A 3317   8.712  29.601   8.036
   16POPC   C4A 3318   9.047  29.749   7.778
   16POPC   C1B 3319   8.940  30.100   8.644
   16POPC   C2B 3320   8.621  30.054   8.334
   16POPC   C3B 3321   8.684  30.118   7.918
   16POPC   C4B 3322   8.738  30.517   7.735
   17POPC   NC3 3323  20.767  42.846   9.756
   17POPC   PO4 3324  20.795  42.278   9.383
   17POPC   GL1 3325  20.593  42.362   9.063
   17POPC   GL2 3326  20.289  42.530   9.187
   17POPC   C1A 3327  20.721  42.396   8.662
   17POPC   D2A 3328  20.590  42.173   8.336
   17POPC   C3A 3329  20.811  42.370   8.060
   17POPC   C4A 3330  20.826  42.304   7.651
   17POPC   C1B 3331  20.197  42.435   8.747
   17POPC   C2B 3332  20.302  42.628   8.354
   17POPC   C3B 3333  20.306  42.432   7.962
   17POPC   C4B 3334  20.381  42.568   7.575
   18POPC   NC3 3335  28.093   7.681   9.554
   18POPC   PO4 3336  28.639   7.384   9.362
   18POPC   GL1 3337  28.290   7.249   9.143
   18POPC   GL2 3338  28.227   7.587   9.064
   18POPC   C1A 3339  28.221   7.150   8.693
   18POPC   D2A 3340  28.056   7.318   8.267
   18POPC   C3A 3341  28.400   7.362   7.965
   18POPC   C4A 3342  28.441   7.148   7.596
   18POPC   C1B 3343  27.884   7.787   8.861
   18POPC   C2B 3344  27.878   7.808   8.441
   18POPC   C3B 3345  28.166   7.821   8.079
   18POPC   C4B 3346  28.074   7.971   7.686
   19POPC   NC3 3347   5.489  18.643   9.416
   19POPC   PO4 3348   5.064  19.034   9.592
   19POPC   GL1 3349   5.156  18.952   9.150
   19POPC   GL2 3350   5.358  19.203   8.978
   19POPC   C1A 3351   4.957  19.018   8.740
   19POPC   D2A 3352   5.015  19.313   8.469
   19POPC   C3A 3353   5.081  19.155   8.090
   19POPC   C4A 3354   4.783  19.055   7.812
   19POPC   C1B 3355   5.469  18.849   8.760
   19POPC   C2B 3356   5.316  18.790   8.380
   19POPC   C3B 3357   5.438  18.806   7.952
   19POPC   C4B 3358   5.238  18.983   7.607
   20POPC   NC3 3359   3.210  16.864   9.440
   20POPC   PO4 3360   3.739  16.428   9.616
   20POPC   GL1 3361   3.560  16.550   9.194
   20POPC   GL2 3362   3.566  16.904   9.056
   20POPC   C1A 3363   3.482  16.497   8.738
   20POPC   D2A 3364   3.491  16.798   8.382
   20POPC   C3A 3365   3.720  16.832   8.013
   20POPC   C4A 3366   3.717  16.462   7.767
   20POPC   C1B 3367   3.180  16.936   8.764
   20POPC   C2B 3368   3.133  17.146   8.338
   20POPC   C3B 3369   3.219  16.953   7.907
   20POPC   C4B 3370   3.511  16.880   7.528
   21POPC   NC3 3371  21.708  19.053   9.619
   21POPC   PO4 3372  21.147  19.377   9.432
   21POPC   GL1 3373  21.402  19.155   9.169
   21POPC   GL2 3374  21.399  18.806   9.208
   21POPC   C1A 3375  21.337  19.099   8.755
   21POPC   D2A 3376  21.666  19.053   8.465
   21POPC   C3A 3377  21.475  19.266   8.160
   21POPC   C4A 3378  21.372  19.216   7.759
   21POPC   C1B 3379  21.591  18.667   8.835
   21POPC   C2B 3380  21.420  18.607   8.437
   21POPC   C3B 3381  21.474  18.776   8.034
   21POPC   C4B 3382  21.115  18.757   7.796
   22POPC   NC3 3383  36.014  37.429   9.444
   22POPC   PO4 3384  35.864  38.142   9.523
   22POPC   GL1 3385  35.964  37.860   9.179
   22POPC   GL2 3386  35.676  37.798   9.104
   22POPC   C1A 3387  36.185  37.681   8.806
   22POPC   D2A 3388  36.096  37.564   8.372
   22POPC   C3A 3389  36.329  37.763   8.055
   22POPC   C4A 3390  36.270  37.844   7.645
   22POPC   C1B 3391  35.688  37.583   8.730
   22POPC   C2B 3392  35.584  37.644   8.305
   22POPC   C3B 3393  35.809  37.756   7.943
   22POPC   C4B 3394  35.829  37.594   7.540
   23POPC   NC3 3395  34.395  36.697   9.435
   23POPC   PO4 3396  34.934  37.026   9.464
   23POPC   GL1 3397  34.695  36.942   9.105
   23POPC   GL2 3398  34.440  37.188   9.138
   23POPC   C1A 3399  34.576  36.907   8.682
   23POPC   D2A 3400  34.831  36.765   8.353
   23POPC   C3A 3401  34.562  36.675   8.028
   23POPC   C4A 3402  34.231  36.638   7.704
   23POPC   C1B 3403  34.727  37.386   8.832
   23POPC   C2B 3404  34.753  37.378   8.394
   23POPC   C3B 3405  34.443  37.315   8.081
   23POPC   C4B 3406  34.510  37.078   7.710
   24POPC   NC3 3407  21.110   4.197   9.424
   24POPC   PO4 3408  21.709   4.495   9.617
   24POPC   GL1 3409  21.710   4.415   9.181
   24POPC   GL2 3410  21.777   4.046   9.153
   24POPC   C1A 3411  21.486   4.580   8.792
   24POPC   D2A 3412  21.139   4.556   8.481
   24POPC   C3A 3413  21.259   4.416   8.060
   24POPC   C4A 3414  21.023   4.165   7.778
   24POPC   C1B 3415  21.465   4.047   8.840
   24POPC   C2B 3416  21.302   4.047   8.440
   24POPC   C3B 3417  21.376   3.898   8.038
   24POPC   C4B 3418  21.558   3.863   7.620
   25POPC   NC3 3419  24.169  23.987   9.451
   25POPC   PO4 3420  24.148  24.696   9.532
   25POPC   GL1 3421  24.492  24.444   9.285
   25POPC   GL2 3422  24.861  24.392   9.273
   25POPC   C1A 3423  24.447  24.399   8.837
   25POPC   D2A 3424  24.300  24.522   8.413
   25POPC   C3A 3425  24.405  24.430   7.968
   25POPC   C4A 3426  24.226  24.318   7.552
   25POPC   C1B 3427  24.947  24.317   8.837
   25POPC   C2B 3428  24.755  24.283   8.420
   25POPC   C3B 3429  24.936  24.402   8.049
   25POPC   C4B 3430  24.828  24.723   7.741
   26POPC   NC3 3431   5.586  19.847   9.420
   26POPC   PO4 3432   6.085  20.275   9.482
   26POPC   GL1 3433   5.977  19.971   9.141
   26POPC   GL2 3434   6.115  19.650   9.154
   26POPC   C1A 3435   5.837  19.749   8.750
   26POPC   D2A 3436   5.955  19.562   8.359
   26POPC   C3A 3437   5.824  19.750   8.005
   26POPC   C4A 3438   5.649  19.759   7.619
   26POPC   C1B 3439   6.304  19.453   8.749
   26POPC   C2B 3440   6.292  19.188   8.353
   26POPC   C3B 3441   6.174  19.339   7.925
   26POPC   C4B 3442   6.183  19.712   7.663
   27POPC   NC3 3443  15.690  33.225   9.573
   27POPC   PO4 3444  16.244  32.979   9.344
   27POPC   GL1 3445  15.974  33.132   9.077
   27POPC   GL2 3446  15.639  33.032   9.109
   27POPC   C1A 3447  16.093  33.229   8.685
   27POPC   D2A 3448  16.287  32.983   8.402
   27POPC   C3A 3449  16.154  32.909   8.000
   27POPC   C4A 3450  16.126  33.235   7.719
   27POPC   C1B 3451  15.717  32.804   8.742
   27POPC   C2B 3452  15.782  32.914   8.349
   27POPC   C3B 3453  15.651  33.056   7.964
   27POPC   C4B 3454  15.800  32.838   7.633
   28POPC   NC3 3455   8.475  36.900   9.513
   28POPC   PO4 3456   7.921  36.593   9.558
   28POPC   GL1 3457   8.078  36.842   9.160
   28POPC   GL2 3458   7.866  37.120   9.044
   28POPC   C1A 3459   8.176  36.963   8.683
   28POPC   D2A 3460   8.103  36.912   8.253
   28POPC   C3A 3461   8.404  36.688   7.965
   28POPC   C4A 3462   8.305  36.378   7.643
   28POPC   C1B 3463   7.842  37.365   8.680
   28POPC   C2B 3464   8.072  37.428   8.339
   28POPC   C3B 3465   8.263  37.311   7.953
   28POPC   C4B 3466   8.060  36.978   7.746
   29POPC   NC3 3467   1.805  20.761   9.601
   29POPC   PO4 3468   2.435  20.629   9.526
   29POPC   GL1 3469   2.168  20.775   9.209
   29POPC   GL2 3470   1.902  20.557   9.108
   29POPC   C1A 3471   2.135  20.968   8.821
   29POPC   D2A 3472   2.406  20.980   8.422
   29POPC   C3A 3473   2.198  20.780   8.067
   29POPC   C4A 3474   2.414  20.698   7.670
   29POPC   C1B 3475   1.973  20.513   8.657
   29POPC   C2B 3476   1.717  20.578   8.278
   29POPC   C3B 3477   1.733  20.344   7.897
   29POPC   C4B 3478   2.162  20.230   7.841
   30POPC   NC3 3479  18.948   2.849   9.740
   30POPC   PO4 3480  19.120   2.524   9.244
   30POPC   GL1 3481  18.975   2.809   8.992
   30POPC   GL2 3482  18.839   3.031   9.244
   30POPC   C1A 3483  19.044   2.636   8.581
   30POPC   D2A 3484  19.389   2.602   8.301
   30POPC   C3A 3485  19.150   2.662   7.994
   30POPC   C4A 3486  18.898   2.330   7.822
   30POPC   C1B 3487  18.616   3.160   8.855
   30POPC   C2B 3488  18.715   3.007   8.478
   30POPC   C3B 3489  18.770   3.089   8.069
   30POPC   C4B 3490  18.824   2.885   7.685
   31POPC   NC3 3491  19.043  24.815   9.407
   31POPC   PO4 3492  18.821  25.448   9.638
   31POPC   GL1 3493  18.777  25.243   9.227
   31POPC   GL2 3494  19.121  25.265   9.141
   31POPC   C1A 3495  18.775  25.344   8.756
   31POPC   D2A 3496  18.968  25.399   8.338
   31POPC   C3A 3497  18.924  25.072   8.026
   31POPC   C4A 3498  18.781  25.349   7.791
   31POPC   C1B 3499  19.220  25.125   8.729
   31POPC   C2B 3500  19.317  25.025   8.341
   31POPC   C3B 3501  19.377  25.291   8.001
   31POPC   C4B 3502  19.369  25.141   7.618
   32POPC   NC3 3503  44.363   0.635   9.390
   32POPC   PO4 3504  44.979   0.383   9.471
   32POPC   GL1 3505  44.781   0.434   9.094
   32POPC   GL2 3506  44.992   0.714   9.086
   32POPC   C1A 3507  44.616   0.459   8.663
   32POPC   D2A 3508  44.446   0.387   8.232
   32POPC   C3A 3509  44.727   0.526   7.925
   32POPC   C4A 3510  44.413   0.793   7.792
   32POPC   C1B 3511   0.119   0.575   8.723
   32POPC   C2B 3512   0.025   0.641   8.331
   32POPC   C3B 3513   0.205   0.778   7.975
   32POPC   C4B 3514   0.121   0.625   7.587
   33POPC   NC3 3515   0.583  43.462   9.570
   33POPC   PO4 3516   0.132  42.961   9.694
   33POPC   GL1 3517   0.377  43.023   9.294
   33POPC   GL2 3518   0.319  43.346   9.148
   33POPC   C1A 3519   0.441  42.972   8.834
   33POPC   D2A 3520   0.480  43.082   8.422
   33POPC   C3A 3521   0.404  42.756   8.160
   33POPC   C4A 3522   0.470  42.738   7.750
   33POPC   C1B 3523   0.246  43.457   8.712
   33POPC   C2B 3524   0.197  43.478   8.246
   33POPC   C3B 3525   0.295  43.217   7.893
   33POPC   C4B 3526   0.447  43.312   7.467
   34POPC   NC3 3527  36.211  21.850   9.440
   34POPC   PO4 3528  35.660  21.402   9.478
   34POPC   GL1 3529  35.844  21.612   9.151
   34POPC   GL2 3530  35.903  21.268   9.032
   34POPC   C1A 3531  36.059  21.664   8.747
   34POPC   D2A 3532  35.976  21.462   8.371
   34POPC   C3A 3533  36.193  21.535   7.972
   34POPC   C4A 3534  36.287  21.259   7.630
   34POPC   C1B 3535  35.740  20.933   8.774
   34POPC   C2B 3536  35.833  20.817   8.355
   34POPC   C3B 3537  35.788  20.955   7.946
   34POPC   C4B 3538  35.925  20.926   7.534
   35POPC   NC3 3539   2.927  44.802   9.516
   35POPC   PO4 3540   2.604  44.194   9.325
   35POPC   GL1 3541   2.840  44.499   9.111
   35POPC   GL2 3542   2.726  44.887   9.051
   35POPC   C1A 3543   2.849  44.434   8.702
   35POPC   D2A 3544   2.744  44.708   8.417
   35POPC   C3A 3545   2.916  44.564   8.033
   35POPC   C4A 3546   2.991  44.902   7.794
   35POPC   C1B 3547   2.386  44.705   8.811
   35POPC   C2B 3548   2.197  44.602   8.409
   35POPC   C3B 3549   2.443  44.757   8.021
   35POPC   C4B 3550   2.522  44.605   7.575
   36POPC   NC3 3551  44.896  35.585   9.262
   36POPC   PO4 3552  44.511  36.107   9.479
   36POPC   GL1 3553  44.446  36.135   9.071
   36POPC   GL2 3554  44.508  35.794   8.991
   36POPC   C1A 3555  44.202  36.074   8.705
   36POPC   D2A 3556  44.423  35.851   8.401
   36POPC   C3A 3557  44.729  36.114   8.224
   36POPC   C4A 3558  44.690  36.176   7.786
   36POPC   C1B 3559  44.808  35.956   8.722
   36POPC   C2B 3560   0.103  35.766   8.477
   36POPC   C3B 3561   0.249  35.763   8.064
   36POPC   C4B 3562   0.099  35.886   7.639
   37POPC   NC3 3563  10.930  12.898   9.392
   37POPC   PO4 3564  10.295  13.144   9.392
   37POPC   GL1 3565  10.532  12.953   9.078
   37POPC   GL2 3566  10.582  12.580   9.003
   37POPC   C1A 3567  10.520  12.991   8.673
   37POPC   D2A 3568  10.537  12.683   8.392
   37POPC   C3A 3569  10.334  12.831   8.079
   37POPC   C4A 3570  10.412  12.817   7.655
   37POPC   C1B 3571  10.943  12.603   8.681
   37POPC   C2B 3572  11.071  12.578   8.257
   37POPC   C3B 3573  10.821  12.714   7.933
   37POPC   C4B 3574  10.834  12.535   7.544
   38POPC   NC3 3575   4.700  11.259   9.473
   38POPC   PO4 3576   5.365  11.159   9.526
   38POPC   GL1 3577   5.132  11.242   9.187
   38POPC   GL2 3578   5.112  11.550   9.324
   38POPC   C1A 3579   4.788  11.255   8.839
   38POPC   D2A 3580   4.954  11.260   8.433
   38POPC   C3A 3581   4.841  11.254   7.992
   38POPC   C4A 3582   5.125  11.142   7.656
   38POPC   C1B 3583   5.161  11.622   8.873
   38POPC   C2B 3584   5.251  11.674   8.457
   38POPC   C3B 3585   5.320  11.441   8.081
   38POPC   C4B 3586   5.343  11.602   7.652
   39POPC   NC3 3587  33.116  40.268   9.452
   39POPC   PO4 3588  32.515  40.390   9.540
   39POPC   GL1 3589  32.767  40.570   9.159
   39POPC   GL2 3590  33.134  40.690   9.179
   39POPC   C1A 3591  32.747  40.758   8.712
   39POPC   D2A 3592  32.794  40.936   8.273
   39POPC   C3A 3593  32.736  40.689   7.887
   39POPC   C4A 3594  32.544  40.853   7.511
   39POPC   C1B 3595  33.255  40.835   8.784
   39POPC   C2B 3596  33.285  40.812   8.361
   39POPC   C3B 3597  33.236  40.787   7.931
   39POPC   C4B 3598  33.014  41.093   7.654
   40POPC   NC3 3599  38.453  20.358   9.530
   40POPC   PO4 3600  38.881  20.891   9.483
   40POPC   GL1 3601  38.585  20.669   9.141
   40POPC   GL2 3602  38.215  20.525   9.130
   40POPC   C1A 3603  38.478  20.562   8.696
   40POPC   D2A 3604  38.707  20.530   8.346
   40POPC   C3A 3605  38.549  20.691   7.983
   40POPC   C4A 3606  38.761  20.493   7.659
   40POPC   C1B 3607  38.183  20.915   8.908
   40POPC   C2B 3608  38.063  20.834   8.484
   40POPC   C3B 3609  38.106  20.517   8.171
   40POPC   C4B 3610  38.122  20.526   7.723
   41POPC   NC3 3611  31.421  36.249   9.276
   41POPC   PO4 3612  32.063  36.195   9.610
   41POPC   GL1 3613  32.221  36.267   9.199
   41POPC   GL2 3614  31.994  36.488   9.167
   41POPC   C1A 3615  32.414  36.265   8.803
   41POPC   D2A 3616  32.276  36.119   8.411
   41POPC   C3A 3617  32.358  36.342   8.035
   41POPC   C4A 3618  32.254  36.145   7.645
   41POPC   C1B 3619  32.086  36.677   8.774
   41POPC   C2B 3620  31.968  36.554   8.392
   41POPC   C3B 3621  31.871  36.592   7.984
   41POPC   C4B 3622  31.790  36.358   7.620
   42POPC   NC3 3623   2.339  29.537   9.505
   42POPC   PO4 3624   1.823  29.975   9.608
   42POPC   GL1 3625   2.070  30.010   9.252
   42POPC   GL2 3626   1.996  29.659   9.159
   42POPC   C1A 3627   2.037  29.995   8.802
   42POPC   D2A 3628   2.081  29.991   8.369
   42POPC   C3A 3629   1.839  29.979   8.001
   42POPC   C4A 3630   2.017  29.943   7.612
   42POPC   C1B 3631   2.226  29.476   8.800
   42POPC   C2B 3632   2.360  29.541   8.369
   42POPC   C3B 3633   2.209  29.616   7.954
   42POPC   C4B 3634   2.272  29.528   7.512
   43POPC   NC3 3635  21.395  37.276   9.248
   43POPC   PO4 3636  21.308  37.853   9.571
   43POPC   GL1 3637  21.176  37.778   9.161
   43POPC   GL2 3638  21.527  37.782   9.104
   43POPC   C1A 3639  21.247  37.635   8.720
   43POPC   D2A 3640  21.403  37.854   8.395
   43POPC   C3A 3641  21.230  37.811   8.003
   43POPC   C4A 3642  21.330  37.627   7.634
   43POPC   C1B 3643  21.792  37.661   8.771
   43POPC   C2B 3644  21.956  37.459   8.403
   43POPC   C3B 3645  21.722  37.578   8.069
   43POPC   C4B 3646  21.787  37.838   7.727
   44POPC   NC3 3647  41.285   7.961   9.762
   44POPC   PO4 3648  40.641   7.894   9.418
   44POPC   GL1 3649  40.704   8.030   8.998
   44POPC   GL2 3650  40.732   8.364   9.048
   44POPC   C1A 3651  40.963   8.169   8.645
   44POPC   D2A 3652  40.921   8.401   8.288
   44POPC   C3A 3653  40.717   8.088   8.075
   44POPC   C4A 3654  40.663   7.970   7.693
   44POPC   C1B 3655  40.515   8.482   8.684
   44POPC   C2B 3656  40.405   8.456   8.279
   44POPC   C3B 3657  40.579   8.509   7.887
   44POPC   C4B 3658  40.314   8.471   7.599
   45POPC   NC3 3659   1.584  35.967   9.453
   45POPC   PO4 3660   1.050  36.330   9.336
   45POPC   GL1 3661   1.408  36.181   9.030
   45POPC   GL2 3662   1.570  36.448   8.828
   45POPC   C1A 3663   1.427  35.936   8.674
   45POPC   D2A 3664   1.102  35.858   8.360
   45POPC   C3A 3665   1.109  36.015   7.947
   45POPC   C4A 3666   1.324  36.052   7.567
   45POPC   C1B 3667   1.148  36.420   8.645
   45POPC   C2B 3668   1.060  36.482   8.225
   45POPC   C3B 3669   1.005  36.496   7.830
   45POPC   C4B 3670   1.286  36.569   7.555
   46POPC   NC3 3671  36.037  33.554   9.565
   46POPC   PO4 3672  36.335  34.081   9.406
   46POPC   GL1 3673  36.165  33.942   9.079
   46POPC   GL2 3674  36.230  33.572   9.079
   46POPC   C1A 3675  36.379  33.947   8.698
   46POPC   D2A 3676  36.330  33.689   8.353
   46POPC   C3A 3677  36.258  33.993   8.040
   46POPC   C4A 3678  36.175  33.936   7.625
   46POPC   C1B 3679  35.953  33.657   8.715
   46POPC   C2B 3680  35.834  33.850   8.329
   46POPC   C3B 3681  35.756  33.766   7.911
   46POPC   C4B 3682  35.626  33.442   7.649
   47POPC   NC3 3683  16.805   5.591   9.365
   47POPC   PO4 3684  16.508   6.229   9.308
   47POPC   GL1 3685  16.771   6.027   9.044
   47POPC   GL2 3686  16.512   5.783   8.993
   47POPC   C1A 3687  17.003   5.795   8.738
   47POPC   D2A 3688  16.831   5.667   8.350
   47POPC   C3A 3689  16.947   5.882   7.988
   47POPC   C4A 3690  16.641   6.071   7.721
   47POPC   C1B 3691  16.291   5.653   8.645
   47POPC   C2B 3692  16.172   5.514   8.257
   47POPC   C3B 3693  16.174   5.709   7.851
   47POPC   C4B 3694  16.488   5.547   7.614
   48POPC   NC3 3695  34.838  25.547   9.312
   48POPC   PO4 3696  34.239  25.190   9.462
   48POPC   GL1 3697  34.433  25.267   9.101
   48POPC   GL2 3698  34.489  25.569   8.939
   48POPC   C1A 3699  34.528  24.999   8.795
   48POPC   D2A 3700  34.541  24.970   8.390
   48POPC   C3A 3701  34.415  25.250   8.035
   48POPC   C4A 3702  34.745  25.077   7.731
   48POPC   C1B 3703  34.781  25.398   8.638
   48POPC   C2B 3704  34.887  25.305   8.213
   48POPC   C3B 3705  34.829  25.555   7.838
   48POPC   C4B 3706  34.795  25.542   7.362
   49POPC   NC3 3707  28.687  34.666   9.464
   49POPC   PO4 3708  28.012  34.825   9.562
   49POPC   GL1 3709  28.231  34.557   9.239
   49POPC   GL2 3710  28.099  34.229   9.108
   49POPC   C1A 3711  28.426  34.591   8.802
   49POPC   D2A 3712  28.745  34.605   8.448
   49POPC   C3A 3713  28.715  34.482   8.007
   49POPC   C4A 3714  28.636  34.756   7.654
   49POPC   C1B 3715  28.206  34.133   8.679
   49POPC   C2B 3716  28.254  34.420   8.328
   49POPC   C3B 3717  28.221  34.607   7.908
   49POPC   C4B 3718  27.954  34.485   7.496
   50POPC   NC3 3719   2.367  11.149   9.484
   50POPC   PO4 3720   1.637  11.068   9.428
   50POPC   GL1 3721   1.816  11.158   9.024
   50POPC   GL2 3722   1.885  11.527   8.912
   50POPC   C1A 3723   1.601  11.132   8.632
   50POPC   D2A 3724   1.736  11.297   8.282
   50POPC   C3A 3725   1.643  11.120   7.927
   50POPC   C4A 3726   1.782  11.424   7.624
   50POPC   C1B 3727   2.272  11.430   8.748
   50POPC   C2B 3728   2.280  11.252   8.339
   50POPC   C3B 3729   2.180  11.328   7.922
   50POPC   C4B 3730   2.515  11.206   7.654
   51POPC   NC3 3731   7.572  40.236   9.595
   51POPC   PO4 3732   7.132  39.685   9.513
   51POPC   GL1 3733   7.273  40.011   9.210
   51POPC   GL2 3734   7.638  40.019   9.111
   51POPC   C1A 3735   7.102  40.122   8.806
   51POPC   D2A 3736   7.284  40.274   8.393
   51POPC   C3A 3737   7.136  40.166   8.001
   51POPC   C4A 3738   7.280  39.997   7.646
   51POPC   C1B 3739   7.545  39.915   8.677
   51POPC   C2B 3740   7.729  40.051   8.283
   51POPC   C3B 3741   7.736  39.970   7.859
   51POPC   C4B 3742   7.723  39.889   7.400
   52POPC   NC3 3743   3.766  30.962   9.441
   52POPC   PO4 3744   3.064  30.860   9.376
   52POPC   GL1 3745   3.404  30.810   9.111
   52POPC   GL2 3746   3.661  30.557   9.145
   52POPC   C1A 3747   3.695  30.904   8.750
   52POPC   D2A 3748   3.586  30.755   8.333
   52POPC   C3A 3749   3.822  30.766   7.940
   52POPC   C4A 3750   3.639  30.879   7.537
   52POPC   C1B 3751   3.446  30.460   8.742
   52POPC   C2B 3752   3.729  30.286   8.402
   52POPC   C3B 3753   3.520  30.333   8.025
   52POPC   C4B 3754   3.230  30.304   7.710
   53POPC   NC3 3755  12.701  27.236   9.488
   53POPC   PO4 3756  12.993  27.794   9.404
   53POPC   GL1 3757  12.744  27.611   9.143
   53POPC   GL2 3758  12.586  27.889   9.001
   53POPC   C1A 3759  12.758  27.335   8.818
   53POPC   D2A 3760  12.574  27.514   8.427
   53POPC   C3A 3761  12.622  27.334   8.016
   53POPC   C4A 3762  12.837  27.387   7.618
   53POPC   C1B 3763  12.930  27.810   8.706
   53POPC   C2B 3764  12.999  27.867   8.281
   53POPC   C3B 3765  12.911  27.803   7.878
   53POPC   C4B 3766  12.908  27.923   7.425
   54POPC   NC3 3767   3.272  34.365   9.903
   54POPC   PO4 3768   3.765  34.612   9.479
   54POPC   GL1 3769   3.517  34.527   9.168
   54POPC   GL2 3770   3.744  34.749   8.991
   54POPC   C1A 3771   3.345  34.448   8.788
   54POPC   D2A 3772   3.476  34.677   8.458
   54POPC   C3A 3773   3.205  34.644   8.156
   54POPC   C4A 3774   3.275  34.482   7.776
   54POPC   C1B 3775   3.854  34.449   8.736
   54POPC   C2B 3776   3.973  34.331   8.329
   54POPC   C3B 3777   3.736  34.523   8.023
   54POPC   C4B 3778   3.730  34.783   7.682
   55POPC   NC3 3779  12.873   1.441   9.626
   55POPC   PO4 3780  12.426   1.030   9.461
   55POPC   GL1 3781  12.695   1.249   9.146
   55POPC   GL2 3782  12.982   1.486   9.138
   55POPC   C1A 3783  12.797   1.063   8.746
   55POPC   D2A 3784  12.652   1.200   8.391
   55POPC   C3A 3785  12.747   0.948   8.060
   55POPC   C4A 3786  12.644   0.866   7.659
   55POPC   C1B 3787  12.867   1.560   8.726
   55POPC   C2B 3788  13.031   1.720   8.348
   55POPC   C3B 3789  12.888   1.476   8.021
   55POPC   C4B 3790  12.987   1.247   7.699
   56POPC   NC3 3791   6.939  32.573   9.443
   56POPC   PO4 3792   6.554  31.995   9.520
   56POPC   GL1 3793   6.532  32.159   9.065
   56POPC   GL2 3794   6.616  32.451   9.077
   56POPC   C1A 3795   6.677  32.188   8.611
   56POPC   D2A 3796   6.851  31.951   8.273
   56POPC   C3A 3797   6.680  32.129   7.884
   56POPC   C4A 3798   6.732  31.924   7.484
   56POPC   C1B 3799   6.609  32.659   8.742
   56POPC   C2B 3800   6.350  32.779   8.453
   56POPC   C3B 3801   6.499  32.863   8.057
   56POPC   C4B 3802   6.794  32.637   7.827
   57POPC   NC3 3803  35.810  12.609   9.541
   57POPC   PO4 3804  36.461  12.846   9.460
   57POPC   GL1 3805  36.195  13.036   9.155
   57POPC   GL2 3806  36.411  13.260   8.972
   57POPC   C1A 3807  35.954  12.872   8.812
   57POPC   D2A 3808  36.051  12.694   8.401
   57POPC   C3A 3809  36.327  12.976   8.162
   57POPC   C4A 3810  36.222  13.236   7.794
   57POPC   C1B 3811  36.460  12.910   8.689
   57POPC   C2B 3812  36.577  12.553   8.425
   57POPC   C3B 3813  36.366  12.486   8.051
   57POPC   C4B 3814  36.324  12.752   7.705
   58POPC   NC3 3815   3.198  35.169   9.745
   58POPC   PO4 3816   2.818  35.663   9.462
   58POPC   GL1 3817   2.699  35.502   9.125
   58POPC   GL2 3818   2.932  35.217   9.187
   58POPC   C1A 3819   2.558  35.431   8.731
   58POPC   D2A 3820   2.395  35.311   8.344
   58POPC   C3A 3821   2.579  35.465   7.989
   58POPC   C4A 3822   2.428  35.526   7.578
   58POPC   C1B 3823   3.062  35.406   8.790
   58POPC   C2B 3824   2.939  35.569   8.384
   58POPC   C3B 3825   3.105  35.395   7.998
   58POPC   C4B 3826   2.917  35.357   7.607
   59POPC   NC3 3827  42.892   1.676   9.490
   59POPC   PO4 3828  43.161   2.301   9.690
   59POPC   GL1 3829  43.313   2.103   9.260
   59POPC   GL2 3830  43.347   1.770   9.211
   59POPC   C1A 3831  43.246   2.193   8.804
   59POPC   D2A 3832  43.389   2.114   8.420
   59POPC   C3A 3833  43.106   2.163   8.103
   59POPC   C4A 3834  43.096   2.184   7.655
   59POPC   C1B 3835  43.070   1.729   8.816
   59POPC   C2B 3836  43.154   1.593   8.384
   59POPC   C3B 3837  43.082   1.677   7.933
   59POPC   C4B 3838  43.130   1.463   7.537
   60POPC   NC3 3839   2.288  13.598   9.520
   60POPC   PO4 3840   1.673  14.010   9.442
   60POPC   GL1 3841   1.852  13.714   9.176
   60POPC   GL2 3842   2.129  13.921   9.125
   60POPC   C1A 3843   1.850  13.410   8.830
   60POPC   D2A 3844   1.902  13.244   8.410
   60POPC   C3A 3845   2.163  13.489   8.151
   60POPC   C4A 3846   2.188  13.540   7.715
   60POPC   C1B 3847   1.913  14.007   8.721
   60POPC   C2B 3848   1.763  13.746   8.360
   60POPC   C3B 3849   1.719  13.620   7.914
   60POPC   C4B 3850   1.848  13.893   7.545
   61POPC   NC3 3851  32.433   3.883   9.398
   61POPC   PO4 3852  31.993   3.350   9.401
   61POPC   GL1 3853  32.231   3.523   9.044
   61POPC   GL2 3854  32.520   3.732   8.932
   61POPC   C1A 3855  32.055   3.799   8.733
   61POPC   D2A 3856  31.731   3.722   8.443
   61POPC   C3A 3857  31.930   3.399   8.181
   61POPC   C4A 3858  32.265   3.580   7.942
   61POPC   C1B 3859  32.569   3.399   8.642
   61POPC   C2B 3860  32.492   3.221   8.232
   61POPC   C3B 3861  32.647   3.191   7.792
   61POPC   C4B 3862  32.459   3.167   7.398
   62POPC   NC3 3863  40.029  18.451   9.409
   62POPC   PO4 3864  39.760  17.833   9.508
   62POPC   GL1 3865  39.934  17.869   9.081
   62POPC   GL2 3866  40.242  18.080   9.053
   62POPC   C1A 3867  39.982  17.973   8.619
   62POPC   D2A 3868  39.910  18.396   8.463
   62POPC   C3A 3869  39.774  18.440   8.055
   62POPC   C4A 3870  39.697  18.160   7.703
   62POPC   C1B 3871  40.385  18.279   8.658
   62POPC   C2B 3872  40.377  18.447   8.246
   62POPC   C3B 3873  40.211  18.225   7.881
   62POPC   C4B 3874  40.076  18.401   7.476
   63POPC   NC3 3875   1.724  39.095   9.631
   63POPC   PO4 3876   1.859  39.746   9.543
   63POPC   GL1 3877   1.835  39.427   9.202
   63POPC   GL2 3878   1.874  39.033   9.164
   63POPC   C1A 3879   2.055  39.344   8.806
   63POPC   D2A 3880   2.134  39.144   8.393
   63POPC   C3A 3881   2.004  39.341   7.994
   63POPC   C4A 3882   2.250  39.519   7.666
   63POPC   C1B 3883   1.919  38.844   8.761
   63POPC   C2B 3884   1.716  38.858   8.358
   63POPC   C3B 3885   1.926  38.823   8.015
   63POPC   C4B 3886   1.996  38.966   7.634
   64POPC   NC3 3887  29.114  31.706   9.373
   64POPC   PO4 3888  29.642  31.274   9.533
   64POPC   GL1 3889  29.476  31.416   9.152
   64POPC   GL2 3890  29.619  31.697   9.119
   64POPC   C1A 3891  29.339  31.308   8.726
   64POPC   D2A 3892  29.095  31.084   8.425
   64POPC   C3A 3893  29.087  31.168   7.995
   64POPC   C4A 3894  28.745  31.475   7.911
   64POPC   C1B 3895  29.431  31.800   8.727
   64POPC   C2B 3896  29.280  31.634   8.296
   64POPC   C3B 3897  29.252  31.627   7.827
   64POPC   C4B 3898  29.547  31.770   7.511
   65POPC   NC3 3899  43.605  11.666   9.539
   65POPC   PO4 3900  44.145  12.072   9.425
   65POPC   GL1 3901  44.055  11.798   9.123
   65POPC   GL2 3902  43.726  11.898   9.082
   65POPC   C1A 3903  44.062  11.936   8.700
   65POPC   D2A 3904  43.743  11.884   8.397
   65POPC   C3A 3905  43.873  12.047   7.991
   65POPC   C4A 3906  43.955  12.335   7.654
   65POPC   C1B 3907  43.599  12.244   8.806
   65POPC   C2B 3908  43.674  12.389   8.392
   65POPC   C3B 3909  43.615  12.494   7.982
   65POPC   C4B 3910  43.455  12.209   7.698
   66POPC   NC3 3911  27.747  30.895   9.563
   66POPC   PO4 3912  27.209  30.493   9.368
   66POPC   GL1 3913  27.600  30.593   9.167
   66POPC   GL2 3914  27.591  30.951   9.085
   66POPC   C1A 3915  27.820  30.549   8.783
   66POPC   D2A 3916  27.599  30.554   8.379
   66POPC   C3A 3917  27.798  30.480   8.031
   66POPC   C4A 3918  27.671  30.457   7.649
   66POPC   C1B 3919  27.385  30.857   8.727
   66POPC   C2B 3920  27.430  31.032   8.318
   66POPC   C3B 3921  27.411  30.834   7.941
   66POPC   C4B 3922  27.674  30.971   7.612
   67POPC   NC3 3923  44.823  43.213   9.477
   67POPC   PO4 3924  44.194  43.467   9.387
   67POPC   GL1 3925  44.474  43.211   9.098
   67POPC   GL2 3926  44.826  43.296   8.990
   67POPC   C1A 3927  44.466  43.127   8.667
   67POPC   D2A 3928  44.400  43.211   8.275
   67POPC   C3A 3929  44.500  42.844   8.048
   67POPC   C4A 3930  44.523  42.908   7.622
   67POPC   C1B 3931  44.968  43.050   8.679
   67POPC   C2B 3932  44.941  43.009   8.274
   67POPC   C3B 3933  44.792  43.250   7.932
   67POPC   C4B 3934  44.946  43.206   7.490
   68POPC   NC3 3935  36.361   9.101   9.402
   68POPC   PO4 3936  35.849   9.351   9.709
   68POPC   GL1 3937  35.865   8.961   9.269
   68POPC   GL2 3938  36.153   8.758   9.103
   68POPC   C1A 3939  35.802   8.913   8.796
   68POPC   D2A 3940  35.967   9.109   8.396
   68POPC   C3A 3941  35.853   8.971   7.972
   68POPC   C4A 3942  36.002   9.199   7.620
   68POPC   C1B 3943  36.328   8.987   8.754
   68POPC   C2B 3944  36.487   8.937   8.349
   68POPC   C3B 3945  36.362   8.968   7.945
   68POPC   C4B 3946  36.475   9.322   7.716
   69POPC   NC3 3947  12.973   5.895   9.653
   69POPC   PO4 3948  12.441   5.659   9.389
   69POPC   GL1 3949  12.725   5.935   9.204
   69POPC   GL2 3950  13.069   5.794   9.160
   69POPC   C1A 3951  12.799   6.013   8.779
   69POPC   D2A 3952  12.915   5.842   8.372
   69POPC   C3A 3953  12.693   5.926   7.998
   69POPC   C4A 3954  12.754   6.204   7.660
   69POPC   C1B 3955  13.245   5.694   8.752
   69POPC   C2B 3956  13.267   5.477   8.324
   69POPC   C3B 3957  13.207   5.735   7.938
   69POPC   C4B 3958  13.248   6.006   7.588
   70POPC   NC3 3959  19.482   7.609   9.391
   70POPC   PO4 3960  18.863   7.537   9.548
   70POPC   GL1 3961  19.033   7.510   9.112
   70POPC   GL2 3962  19.288   7.254   9.060
   70POPC   C1A 3963  19.050   7.398   8.654
   70POPC   D2A 3964  18.771   7.437   8.328
   70POPC   C3A 3965  18.943   7.532   7.944
   70POPC   C4A 3966  18.965   7.773   7.548
   70POPC   C1B 3967  19.546   7.139   8.730
   70POPC   C2B 3968  19.472   7.295   8.353
   70POPC   C3B 3969  19.274   7.113   8.027
   70POPC   C4B 3970  19.275   7.284   7.627
   71POPC   NC3 3971  26.682  26.406   9.467
   71POPC   PO4 3972  26.615  27.103   9.542
   71POPC   GL1 3973  26.728  26.848   9.199
   71POPC   GL2 3974  27.051  26.701   9.335
   71POPC   C1A 3975  26.762  26.726   8.768
   71POPC   D2A 3976  26.834  26.932   8.349
   71POPC   C3A 3977  26.698  26.735   7.932
   71POPC   C4A 3978  26.785  26.728   7.454
   71POPC   C1B 3979  27.223  26.587   8.963
   71POPC   C2B 3980  27.231  26.662   8.550
   71POPC   C3B 3981  27.175  26.624   8.125
   71POPC   C4B 3982  27.160  26.533   7.724
   72POPC   NC3 3983  12.652  37.959   9.197
   72POPC   PO4 3984  12.720  37.377   9.512
   72POPC   GL1 3985  12.761  37.418   9.064
   72POPC   GL2 3986  13.043  37.566   9.047
   72POPC   C1A 3987  12.823  37.459   8.596
   72POPC   D2A 3988  13.178  37.339   8.328
   72POPC   C3A 3989  13.055  37.401   7.905
   72POPC   C4A 3990  12.967  37.615   7.559
   72POPC   C1B 3991  13.103  37.862   8.678
   72POPC   C2B 3992  13.062  37.824   8.215
   72POPC   C3B 3993  12.867  38.015   7.863
   72POPC   C4B 3994  13.111  38.394   7.776
   73POPC   NC3 3995  44.704  25.805   9.536
   73POPC   PO4 3996  44.992  26.456   9.408
   73POPC   GL1 3997  44.765  26.168   9.151
   73POPC   GL2 3998  44.859  25.826   9.073
   73POPC   C1A 3999  44.597  26.097   8.733
   73POPC   D2A 4000  44.388  26.062   8.373
   73POPC   C3A 4001  44.523  25.884   8.015
   73POPC   C4A 4002  44.563  25.894   7.556
   73POPC   C1B 4003   0.080  25.958   8.736
   73POPC   C2B 4004  44.944  26.077   8.301
   73POPC   C3B 4005  44.969  26.031   7.834
   73POPC   C4B 4006   0.031  25.696   7.553
   74POPC   NC3 4007  38.267   9.273   9.207
   74POPC   PO4 4008  37.906   8.867   9.613
   74POPC   GL1 4009  37.816   9.032   9.212
   74POPC   GL2 4010  37.660   8.733   9.126
   74POPC   C1A 4011  37.707   9.243   8.818
   74POPC   D2A 4012  37.568   9.080   8.433
   74POPC   C3A 4013  37.789   9.179   8.073
   74POPC   C4A 4014  37.679   9.142   7.662
   74POPC   C1B 4015  37.562   8.644   8.695
   74POPC   C2B 4016  37.805   8.639   8.310
   74POPC   C3B 4017  37.715   8.692   7.870
   74POPC   C4B 4018  37.896   8.703   7.428
   75POPC   NC3 4019  41.556  33.415   9.460
   75POPC   PO4 4020  41.882  32.802   9.426
   75POPC   GL1 4021  41.587  33.018   9.150
   75POPC   GL2 4022  41.199  33.100   9.223
   75POPC   C1A 4023  41.437  32.924   8.774
   75POPC   D2A 4024  41.431  32.617   8.494
   75POPC   C3A 4025  41.356  32.865   8.142
   75POPC   C4A 4026  41.640  32.861   7.803
   75POPC   C1B 4027  41.170  33.359   8.829
   75POPC   C2B 4028  41.418  33.341   8.442
   75POPC   C3B 4029  41.208  33.366   8.073
   75POPC   C4B 4030  41.218  33.136   7.719
   76POPC   NC3 4031  20.526   6.508   9.361
   76POPC   PO4 4032  20.590   7.161   9.246
   76POPC   GL1 4033  20.586   6.771   8.938
   76POPC   GL2 4034  20.813   6.454   8.953
   76POPC   C1A 4035  20.542   6.570   8.520
   76POPC   D2A 4036  20.397   6.886   8.273
   76POPC   C3A 4037  20.456   6.864   7.862
   76POPC   C4A 4038  20.349   7.127   7.588
   76POPC   C1B 4039  21.034   6.706   8.662
   76POPC   C2B 4040  21.017   6.795   8.220
   76POPC   C3B 4041  20.908   6.685   7.820
   76POPC   C4B 4042  20.697   6.352   7.634
   77POPC   NC3 4043   5.241  27.354   9.442
   77POPC   PO4 4044   4.782  27.784   9.381
   77POPC   GL1 4045   4.979  27.578   9.066
   77POPC   GL2 4046   4.925  27.207   9.055
   77POPC   C1A 4047   4.887  27.594   8.659
   77POPC   D2A 4048   4.846  27.863   8.334
   77POPC   C3A 4049   5.015  27.664   8.012
   77POPC   C4A 4050   5.013  27.809   7.602
   77POPC   C1B 4051   5.267  27.258   8.753
   77POPC   C2B 4052   5.547  27.275   8.437
   77POPC   C3B 4053   5.535  27.370   8.006
   77POPC   C4B 4054   5.222  27.344   7.688
   78POPC   NC3 4055   0.793   3.370   9.508
   78POPC   PO4 4056   0.274   3.931   9.529
   78POPC   GL1 4057   0.235   3.694   9.171
   78POPC   GL2 4058   0.499   3.482   9.099
   78POPC   C1A 4059   0.173   3.685   8.717
   78POPC   D2A 4060   0.499   3.751   8.374
   78POPC   C3A 4061   0.351   3.649   7.966
   78POPC   C4A 4062   0.447   3.872   7.582
   78POPC   C1B 4063   0.709   3.175   8.848
   78POPC   C2B 4064   0.867   3.288   8.477
   78POPC   C3B 4065   0.754   3.335   8.096
   78POPC   C4B 4066   0.755   3.039   7.785
   79POPC   NC3 4067   2.816  36.763   9.567
   79POPC   PO4 4068   3.031  37.384   9.395
   79POPC   GL1 4069   2.825  37.073   9.117
   79POPC   GL2 4070   2.802  36.694   9.067
   79POPC   C1A 4071   2.528  37.115   8.783
   79POPC   D2A 4072   2.383  36.990   8.402
   79POPC   C3A 4073   2.347  37.246   8.027
   79POPC   C4A 4074   2.537  37.332   7.642
   79POPC   C1B 4075   2.724  36.657   8.609
   79POPC   C2B 4076   2.713  36.735   8.128
   79POPC   C3B 4077   2.888  36.802   7.709
   79POPC   C4B 4078   3.034  36.601   7.320
   80POPC   NC3 4079  44.700  36.535   9.503
   80POPC   PO4 4080  44.270  37.065   9.545
   80POPC   GL1 4081  44.584  36.938   9.212
   80POPC   GL2 4082  44.427  36.645   9.078
   80POPC   C1A 4083  44.872  36.838   8.848
   80POPC   D2A 4084  44.968  36.687   8.424
   80POPC   C3A 4085  44.692  36.745   8.076
   80POPC   C4A 4086  44.755  36.999   7.678
   80POPC   C1B 4087  44.571  36.447   8.691
   80POPC   C2B 4088  44.338  36.424   8.335
   80POPC   C3B 4089  44.217  36.454   7.935
   80POPC   C4B 4090  44.447  36.591   7.620
   81POPC   NC3 4091  39.014  31.073   9.378
   81POPC   PO4 4092  39.439  31.422   9.617
   81POPC   GL1 4093  39.299  31.461   9.221
   81POPC   GL2 4094  39.223  31.800   9.196
   81POPC   C1A 4095  39.215  31.243   8.808
   81POPC   D2A 4096  39.238  31.399   8.402
   81POPC   C3A 4097  39.396  31.287   7.984
   81POPC   C4A 4098  39.234  31.290   7.566
   81POPC   C1B 4099  39.459  31.703   8.808
   81POPC   C2B 4100  39.514  31.848   8.415
   81POPC   C3B 4101  39.225  31.791   8.101
   81POPC   C4B 4102  39.175  31.803   7.675
   82POPC   NC3 4103   2.509  41.758   9.798
   82POPC   PO4 4104   1.901  41.461   9.603
   82POPC   GL1 4105   1.767  41.359   9.186
   82POPC   GL2 4106   2.065  41.245   9.032
   82POPC   C1A 4107   1.737  41.487   8.737
   82POPC   D2A 4108   1.988  41.327   8.422
   82POPC   C3A 4109   1.790  41.464   8.073
   82POPC   C4A 4110   1.928  41.567   7.677
   82POPC   C1B 4111   2.292  41.025   8.717
   82POPC   C2B 4112   2.483  41.120   8.352
   82POPC   C3B 4113   2.247  41.124   8.025
   82POPC   C4B 4114   2.313  41.240   7.673
   83POPC   NC3 4115  23.039   4.242   9.541
   83POPC   PO4 4116  23.306   4.794   9.382
   83POPC   GL1 4117  23.049   4.522   9.115
   83POPC   GL2 4118  22.734   4.311   9.155
   83POPC   C1A 4119  23.154   4.183   8.844
   83POPC   D2A 4120  23.215   4.372   8.459
   83POPC   C3A 4121  23.196   4.196   8.079
   83POPC   C4A 4122  23.189   4.377   7.697
   83POPC   C1B 4123  22.679   4.375   8.732
   83POPC   C2B 4124  22.736   4.200   8.342
   83POPC   C3B 4125  22.716   4.315   7.918
   83POPC   C4B 4126  22.749   4.598   7.560
   84POPC   NC3 4127   4.249   9.501   9.548
   84POPC   PO4 4128   4.159  10.191   9.681
   84POPC   GL1 4129   4.137  10.064   9.231
   84POPC   GL2 4130   4.431   9.835   9.165
   84POPC   C1A 4131   4.067   9.938   8.795
   84POPC   D2A 4132   4.041   9.597   8.518
   84POPC   C3A 4133   3.972   9.719   8.091
   84POPC   C4A 4134   4.105   9.656   7.728
   84POPC   C1B 4135   4.582   9.801   8.725
   84POPC   C2B 4136   4.457   9.777   8.283
   84POPC   C3B 4137   4.458   9.966   7.873
   84POPC   C4B 4138   4.584   9.578   7.624
   85POPC   NC3 4139   7.056  17.887   9.476
   85POPC   PO4 4140   7.488  17.455   9.558
   85POPC   GL1 4141   7.454  17.303   9.155
   85POPC   GL2 4142   7.783  17.249   9.143
   85POPC   C1A 4143   7.250  17.264   8.748
   85POPC   D2A 4144   7.304  17.388   8.298
   85POPC   C3A 4145   7.194  17.745   8.032
   85POPC   C4A 4146   7.206  17.493   7.735
   85POPC   C1B 4147   7.714  17.472   8.741
   85POPC   C2B 4148   7.850  17.637   8.372
   85POPC   C3B 4149   7.717  17.591   7.952
   85POPC   C4B 4150   7.678  17.350   7.594
   86POPC   NC3 4151  26.102  32.990   9.567
   86POPC   PO4 4152  25.463  32.774   9.375
   86POPC   GL1 4153  25.778  33.013   9.103
   86POPC   GL2 4154  26.117  33.033   9.078
   86POPC   C1A 4155  25.839  33.235   8.723
   86POPC   D2A 4156  25.994  32.995   8.407
   86POPC   C3A 4157  26.017  33.186   8.029
   86POPC   C4A 4158  25.938  32.947   7.676
   86POPC   C1B 4159  26.358  32.768   8.804
   86POPC   C2B 4160  26.486  32.886   8.396
   86POPC   C3B 4161  26.397  32.772   7.998
   86POPC   C4B 4162  26.436  32.925   7.616
   87POPC   NC3 4163   7.125  30.964   9.301
   87POPC   PO4 4164   7.681  30.653   9.441
   87POPC   GL1 4165   7.597  30.611   9.028
   87POPC   GL2 4166   7.234  30.560   9.024
   87POPC   C1A 4167   7.758  30.869   8.670
   87POPC   D2A 4168   7.870  30.748   8.235
   87POPC   C3A 4169   7.581  30.821   7.879
   87POPC   C4A 4170   7.288  30.487   7.713
   87POPC   C1B 4171   7.249  30.784   8.645
   87POPC   C2B 4172   7.232  30.671   8.219
   87POPC   C3B 4173   7.086  30.919   7.875
   87POPC   C4B 4174   7.061  30.995   7.425
   88POPC   NC3 4175  13.761  17.728   9.707
   88POPC   PO4 4176  13.310  17.270   9.460
   88POPC   GL1 4177  13.633  17.462   9.180
   88POPC   GL2 4178  13.705  17.839   9.197
   88POPC   C1A 4179  13.778  17.387   8.774
   88POPC   D2A 4180  13.673  17.464   8.351
   88POPC   C3A 4181  13.955  17.266   8.041
   88POPC   C4A 4182  13.984  17.317   7.600
   88POPC   C1B 4183  13.798  17.897   8.801
   88POPC   C2B 4184  13.739  17.978   8.392
   88POPC   C3B 4185  13.814  17.768   7.967
   88POPC   C4B 4186  14.185  17.757   7.749
   89POPC   NC3 4187  11.127  28.487   9.909
   89POPC   PO4 4188  11.519  28.082   9.577
   89POPC   GL1 4189  11.392  28.315   9.236
   89POPC   GL2 4190  11.703  28.347   9.102
   89POPC   C1A 4191  11.202  28.318   8.824
   89POPC   D2A 4192  11.149  28.103   8.433
   89POPC   C3A 4193  11.097  28.309   8.028
   89POPC   C4A 4194  11.164  28.610   7.708
   89POPC   C1B 4195  11.625  28.600   8.755
   89POPC   C2B 4196  11.488  28.498   8.360
   89POPC   C3B 4197  11.633  28.325   8.004
   89POPC   C4B 4198  11.493  28.244   7.604
   90POPC   NC3 4199  19.792   3.360   9.702
   90POPC   PO4 4200  19.332   3.784   9.388
   90POPC   GL1 4201  19.700   3.732   9.143
   90POPC   GL2 4202  19.805   3.382   9.156
   90POPC   C1A 4203  20.002   3.886   8.817
   90POPC   D2A 4204  20.014   4.087   8.399
   90POPC   C3A 4205  19.913   3.855   8.025
   90POPC   C4A 4206  20.107   3.566   7.739
   90POPC   C1B 4207  19.758   3.130   8.785
   90POPC   C2B 4208  19.813   2.946   8.383
   90POPC   C3B 4209  19.818   3.250   8.045
   90POPC   C4B 4210  19.584   3.530   7.781
   91POPC   NC3 4211  42.390  38.926   9.531
   91POPC   PO4 4212  42.600  39.628   9.496
   91POPC   GL1 4213  42.425  39.338   9.165
   91POPC   GL2 4214  42.641  39.027   9.110
   91POPC   C1A 4215  42.177  39.426   8.772
   91POPC   D2A 4216  42.328  39.431   8.322
   91POPC   C3A 4217  42.131  39.498   7.893
   91POPC   C4A 4218  42.210  39.297   7.467
   91POPC   C1B 4219  42.657  39.222   8.714
   91POPC   C2B 4220  42.632  39.034   8.314
   91POPC   C3B 4221  42.622  39.239   7.921
   91POPC   C4B 4222  42.671  39.052   7.533
   92POPC   NC3 4223  16.862   1.217   9.555
   92POPC   PO4 4224  16.324   1.552   9.298
   92POPC   GL1 4225  16.625   1.277   9.084
   92POPC   GL2 4226  16.972   1.362   9.086
   92POPC   C1A 4227  16.626   1.197   8.645
   92POPC   D2A 4228  16.449   1.488   8.337
   92POPC   C3A 4229  16.583   1.391   7.936
   92POPC   C4A 4230  16.770   0.950   7.841
   92POPC   C1B 4231  17.137   1.309   8.686
   92POPC   C2B 4232  17.041   1.103   8.305
   92POPC   C3B 4233  17.074   1.349   7.960
   92POPC   C4B 4234  17.132   1.650   7.718
   93POPC   NC3 4235  33.761  36.370   9.472
   93POPC   PO4 4236  34.392  35.917   9.546
   93POPC   GL1 4237  34.225  35.874   9.097
   93POPC   GL2 4238  33.846  35.947   9.136
   93POPC   C1A 4239  34.062  36.034   8.682
   93POPC   D2A 4240  33.822  35.954   8.291
   93POPC   C3A 4241  34.050  35.952   7.899
   93POPC   C4A 4242  34.082  36.188   7.533
   93POPC   C1B 4243  33.499  36.059   8.829
   93POPC   C2B 4244  33.304  35.921   8.424
   93POPC   C3B 4245  33.396  36.087   7.999
   93POPC   C4B 4246  33.592  36.084   7.587
   94POPC   NC3 4247  37.478  34.175   9.489
   94POPC   PO4 4248  37.789  34.834   9.395
   94POPC   GL1 4249  37.750  34.558   9.070
   94POPC   GL2 4250  37.460  34.342   9.006
   94POPC   C1A 4251  37.798  34.705   8.658
   94POPC   D2A 4252  37.785  34.923   8.276
   94POPC   C3A 4253  37.802  34.604   8.012
   94POPC   C4A 4254  37.991  34.576   7.655
   94POPC   C1B 4255  37.298  34.609   8.708
   94POPC   C2B 4256  37.349  34.665   8.268
   94POPC   C3B 4257  37.314  34.542   7.844
   94POPC   C4B 4258  37.075  34.780   7.550
   95POPC   NC3 4259  18.023  26.609   9.236
   95POPC   PO4 4260  17.526  26.962   9.584
   95POPC   GL1 4261  17.576  26.857   9.147
   95POPC   GL2 4262  17.413  26.551   9.071
   95POPC   C1A 4263  17.755  27.032   8.744
   95POPC   D2A 4264  17.781  26.869   8.297
   95POPC   C3A 4265  17.458  26.837   7.972
   95POPC   C4A 4266  17.664  26.908   7.602
   95POPC   C1B 4267  17.448  26.639   8.662
   95POPC   C2B 4268  17.237  26.532   8.325
   95POPC   C3B 4269  17.151  26.367   7.940
   95POPC   C4B 4270  17.245  26.538   7.545
   96POPC   NC3 4271   4.543  30.347   9.578
   96POPC   PO4 4272   4.236  30.982   9.520
   96POPC   GL1 4273   4.374  30.829   9.149
   96POPC   GL2 4274   4.178  30.544   9.187
   96POPC   C1A 4275   4.284  30.904   8.717
   96POPC   D2A 4276   4.021  31.064   8.380
   96POPC   C3A 4277   4.229  31.069   8.014
   96POPC   C4A 4278   4.451  30.867   7.720
   96POPC   C1B 4279   4.093  30.408   8.754
   96POPC   C2B 4280   4.276  30.540   8.314
   96POPC   C3B 4281   4.546  30.419   7.927
   96POPC   C4B 4282   4.689  30.491   7.462
   97POPC   NC3 4283  36.209  29.995   9.711
   97POPC   PO4 4284  35.600  30.110   9.634
   97POPC   GL1 4285  35.861  30.090   9.207
   97POPC   GL2 4286  36.149  29.884   9.219
   97POPC   C1A 4287  35.840  30.078   8.753
   97POPC   D2A 4288  35.951  29.723   8.481
   97POPC   C3A 4289  35.979  29.837   8.070
   97POPC   C4A 4290  36.027  29.922   7.643
   97POPC   C1B 4291  36.331  29.905   8.810
   97POPC   C2B 4292  36.300  30.103   8.396
   97POPC   C3B 4293  36.431  30.066   7.939
   97POPC   C4B 4294  36.469  29.667   7.683
   98POPC   NC3 4295  19.670  31.928   9.377
   98POPC   PO4 4296  20.038  32.481   9.439
   98POPC   GL1 4297  20.022  32.221   9.101
   98POPC   GL2 4298  19.660  32.283   9.032
   98POPC   C1A 4299  19.933  32.082   8.673
   98POPC   D2A 4300  19.633  32.288   8.431
   98POPC   C3A 4301  19.824  32.313   8.049
   98POPC   C4A 4302  19.985  32.279   7.639
   98POPC   C1B 4303  19.400  31.996   8.785
   98POPC   C2B 4304  19.177  31.985   8.429
   98POPC   C3B 4305  19.354  32.086   8.037
   98POPC   C4B 4306  19.525  32.021   7.646
   99POPC   NC3 4307  23.525  16.257   9.491
   99POPC   PO4 4308  23.949  16.861   9.481
   99POPC   GL1 4309  23.637  16.669   9.203
   99POPC   GL2 4310  23.865  16.434   9.111
   99POPC   C1A 4311  23.437  16.578   8.788
   99POPC   D2A 4312  23.341  16.845   8.421
   99POPC   C3A 4313  23.529  16.834   8.045
   99POPC   C4A 4314  23.669  16.529   7.840
   99POPC   C1B 4315  23.922  16.729   8.751
   99POPC   C2B 4316  23.973  16.751   8.307
   99POPC   C3B 4317  24.084  16.802   7.891
   99POPC   C4B 4318  23.942  16.761   7.459
  100POPC   NC3 4319  15.243  42.018   9.540
  100POPC   PO4 4320  15.069  42.676   9.586
  100POPC   GL1 4321  14.941  42.456   9.175
  100POPC   GL2 4322  14.960  42.086   9.119
  100POPC   C1A 4323  15.110  42.407   8.729
  100POPC   D2A 4324  15.277  42.529   8.316
  100POPC   C3A 4325  15.039  42.602   7.932
  100POPC   C4A 4326  15.248  42.580   7.535
  100POPC   C1B 4327  15.082  41.900   8.714
  100POPC   C2B 4328  15.325  41.996   8.335
  100POPC   C3B 4329  15.284  42.138   7.903
  100POPC   C4B 4330  14.910  42.191   7.648
  101POPC   NC3 4331   3.384  21.218   9.564
  101POPC   PO4 4332   3.505  21.865   9.596
  101POPC   GL1 4333   3.484  21.583   9.219
  101POPC   GL2 4334   3.133  21.548   9.208
  101POPC   C1A 4335   3.628  21.598   8.782
  101POPC   D2A 4336   3.738  21.558   8.356
  101POPC   C3A 4337   3.839  21.167   8.188
  101POPC   C4A 4338   3.738  21.131   7.771
  101POPC   C1B 4339   3.290  21.222   8.908
  101POPC   C2B 4340   3.328  21.242   8.457
  101POPC   C3B 4341   3.285  21.197   8.007
  101POPC   C4B 4342   3.334  20.791   7.796
  102POPC   NC3 4343  23.671  31.164   9.427
  102POPC   PO4 4344  23.712  31.904   9.281
  102POPC   GL1 4345  23.571  31.537   9.087
  102POPC   GL2 4346  23.874  31.390   9.031
  102POPC   C1A 4347  23.504  31.297   8.704
  102POPC   D2A 4348  23.670  31.506   8.351
  102POPC   C3A 4349  23.428  31.471   8.007
  102POPC   C4A 4350  23.448  31.589   7.605
  102POPC   C1B 4351  24.046  31.649   8.697
  102POPC   C2B 4352  24.131  31.773   8.252
  102POPC   C3B 4353  23.894  31.660   7.869
  102POPC   C4B 4354  23.925  31.552   7.411
  103POPC   NC3 4355  41.974  18.248   9.804
  103POPC   PO4 4356  41.481  18.539   9.459
  103POPC   GL1 4357  41.633  18.257   9.200
  103POPC   GL2 4358  41.969  18.156   9.168
  103POPC   C1A 4359  41.638  18.332   8.794
  103POPC   D2A 4360  41.367  18.352   8.456
  103POPC   C3A 4361  41.439  18.559   8.092
  103POPC   C4A 4362  41.542  18.421   7.675
  103POPC   C1B 4363  42.081  18.103   8.731
  103POPC   C2B 4364  41.743  17.983   8.442
  103POPC   C3B 4365  41.674  18.100   8.065
  103POPC   C4B 4366  41.936  18.104   7.719
  104POPC   NC3 4367  29.735  32.482   9.483
  104POPC   PO4 4368  30.183  32.097   9.705
  104POPC   GL1 4369  30.137  32.259   9.270
  104POPC   GL2 4370  29.823  32.163   9.121
  104POPC   C1A 4371  30.171  32.292   8.782
  104POPC   D2A 4372  30.255  32.409   8.343
  104POPC   C3A 4373  29.932  32.350   8.044
  104POPC   C4A 4374  30.015  32.282   7.613
  104POPC   C1B 4375  29.678  32.266   8.701
  104POPC   C2B 4376  29.576  32.088   8.341
  104POPC   C3B 4377  29.423  32.081   7.984
  104POPC   C4B 4378  29.511  32.243   7.665
  105POPC   NC3 4379   1.407   0.387   9.515
  105POPC   PO4 4380   0.819   0.443   9.735
  105POPC   GL1 4381   1.005   0.350   9.238
  105POPC   GL2 4382   1.235   0.695   9.164
  105POPC   C1A 4383   1.117   0.351   8.783
  105POPC   D2A 4384   0.963   0.290   8.365
  105POPC   C3A 4385   1.161   0.392   7.987
  105POPC   C4A 4386   0.998   0.738   7.744
  105POPC   C1B 4387   1.421   0.786   8.804
  105POPC   C2B 4388   1.444   0.624   8.385
  105POPC   C3B 4389   1.474   0.812   7.952
  105POPC   C4B 4390   1.744   0.708   7.596
  106POPC   NC3 4391   4.619  19.061   9.678
  106POPC   PO4 4392   4.128  18.699   9.482
  106POPC   GL1 4393   4.354  18.869   9.128
  106POPC   GL2 4394   4.655  19.056   9.149
  106POPC   C1A 4395   4.473  18.724   8.724
  106POPC   D2A 4396   4.396  18.943   8.351
  106POPC   C3A 4397   4.428  18.722   7.947
  106POPC   C4A 4398   4.426  18.831   7.522
  106POPC   C1B 4399   4.500  19.279   8.760
  106POPC   C2B 4400   4.529  19.435   8.328
  106POPC   C3B 4401   4.339  19.264   7.963
  106POPC   C4B 4402   4.445  19.347   7.565
  107POPC   NC3 4403  21.550  10.009   9.690
  107POPC   PO4 4404  20.910   9.795   9.524
  107POPC   GL1 4405  21.221   9.811   9.196
  107POPC   GL2 4406  21.479   9.523   9.144
  107POPC   C1A 4407  21.288   9.808   8.755
  107POPC   D2A 4408  21.635   9.797   8.458
  107POPC   C3A 4409  21.430   9.824   8.073
  107POPC   C4A 4410  21.270  10.124   7.769
  107POPC   C1B 4411  21.550   9.361   8.710
  107POPC   C2B 4412  21.741   9.326   8.283
  107POPC   C3B 4413  21.608   9.387   7.849
  107POPC   C4B 4414  21.283   9.601   7.610
  108POPC   NC3 4415   9.445  18.722   9.308
  108POPC   PO4 4416   9.400  18.123   9.387
  108POPC   GL1 4417   9.782  18.081   9.149
  108POPC   GL2 4418   9.747  18.401   9.043
  108POPC   C1A 4419   9.932  18.067   8.703
  108POPC   D2A 4420   9.753  18.296   8.346
  108POPC   C3A 4421   9.859  18.076   7.993
  108POPC   C4A 4422  10.232  17.964   7.787
  108POPC   C1B 4423   9.540  18.620   8.685
  108POPC   C2B 4424   9.539  18.774   8.268
  108POPC   C3B 4425   9.425  18.507   7.942
  108POPC   C4B 4426   9.435  18.149   7.715
  109POPC   NC3 4427  26.748  30.248   9.378
  109POPC   PO4 4428  27.039  29.636   9.430
  109POPC   GL1 4429  26.929  29.854   9.102
  109POPC   GL2 4430  26.649  29.734   9.061
  109POPC   C1A 4431  26.887  30.116   8.758
  109POPC   D2A 4432  26.725  30.273   8.402
  109POPC   C3A 4433  26.823  30.041   8.055
  109POPC   C4A 4434  26.713  30.148   7.660
  109POPC   C1B 4435  26.807  29.552   8.724
  109POPC   C2B 4436  26.665  29.620   8.348
  109POPC   C3B 4437  26.850  29.500   7.997
  109POPC   C4B 4438  26.688  29.622   7.628
  110POPC   NC3 4439  33.361  25.872   9.574
  110POPC   PO4 4440  33.522  26.434   9.211
  110POPC   GL1 4441  33.363  26.074   8.955
  110POPC   GL2 4442  33.468  25.721   9.074
  110POPC   C1A 4443  33.130  25.938   8.570
  110POPC   D2A 4444  32.923  25.797   8.178
  110POPC   C3A 4445  32.841  26.110   7.861
  110POPC   C4A 4446  32.936  26.087   7.416
  110POPC   C1B 4447  33.636  25.733   8.641
  110POPC   C2B 4448  33.414  25.633   8.245
  110POPC   C3B 4449  33.289  25.846   7.831
  110POPC   C4B 4450  33.421  25.754   7.401
  111POPC   NC3 4451  42.887  37.287   9.465
  111POPC   PO4 4452  43.367  37.815   9.396
  111POPC   GL1 4453  43.060  37.612   9.106
  111POPC   GL2 4454  42.734  37.706   9.021
  111POPC   C1A 4455  43.086  37.535   8.679
  111POPC   D2A 4456  42.957  37.514   8.270
  111POPC   C3A 4457  43.283  37.532   7.955
  111POPC   C4A 4458  43.572  37.797   7.743
  111POPC   C1B 4459  42.606  37.920   8.690
  111POPC   C2B 4460  42.567  37.835   8.277
  111POPC   C3B 4461  42.667  37.645   7.879
  111POPC   C4B 4462  42.978  37.817   7.664
  112POPC   NC3 4463  19.191  23.992   9.620
  112POPC   PO4 4464  18.747  24.458   9.445
  112POPC   GL1 4465  19.065  24.409   9.083
  112POPC   GL2 4466  18.832  24.342   8.838
  112POPC   C1A 4467  19.276  24.522   8.679
  112POPC   D2A 4468  19.060  24.583   8.288
  112POPC   C3A 4469  19.248  24.655   7.875
  112POPC   C4A 4470  19.367  24.315   7.589
  112POPC   C1B 4471  18.830  24.794   8.786
  112POPC   C2B 4472  18.681  24.900   8.417
  112POPC   C3B 4473  18.578  24.560   8.111
  112POPC   C4B 4474  18.781  24.472   7.713
  113POPC   NC3 4475   3.178  38.479   9.342
  113POPC   PO4 4476   2.592  38.761   9.456
  113POPC   GL1 4477   2.780  38.705   9.085
  113POPC   GL2 4478   2.754  38.359   8.998
  113POPC   C1A 4479   2.980  38.688   8.701
  113POPC   D2A 4480   2.878  38.429   8.362
  113POPC   C3A 4481   2.847  38.647   7.973
  113POPC   C4A 4482   2.799  38.631   7.529
  113POPC   C1B 4483   3.127  38.177   8.762
  113POPC   C2B 4484   3.237  38.048   8.341
  113POPC   C3B 4485   3.063  38.183   7.931
  113POPC   C4B 4486   2.995  38.132   7.481
  114POPC   NC3 4487  39.436  21.961   9.420
  114POPC   PO4 4488  39.144  22.528   9.700
  114POPC   GL1 4489  39.106  22.335   9.197
  114POPC   GL2 4490  38.796  22.230   9.055
  114POPC   C1A 4491  39.214  22.093   8.789
  114POPC   D2A 4492  39.433  21.876   8.443
  114POPC   C3A 4493  39.304  22.039   8.058
  114POPC   C4A 4494  39.436  22.335   7.786
  114POPC   C1B 4495  38.598  22.368   8.672
  114POPC   C2B 4496  38.802  22.516   8.315
  114POPC   C3B 4497  38.914  22.377   7.923
  114POPC   C4B 4498  39.004  22.578   7.565
  115POPC   NC3 4499  44.162  21.855   9.446
  115POPC   PO4 4500  43.753  21.386   9.581
  115POPC   GL1 4501  43.894  21.342   9.121
  115POPC   GL2 4502  44.183  21.506   9.072
  115POPC   C1A 4503  43.869  21.327   8.675
  115POPC   D2A 4504  43.846  21.635   8.342
  115POPC   C3A 4505  43.823  21.447   7.958
  115POPC   C4A 4506  43.853  21.614   7.554
  115POPC   C1B 4507  44.252  21.676   8.664
  115POPC   C2B 4508  44.348  21.592   8.221
  115POPC   C3B 4509  44.353  21.569   7.749
  115POPC   C4B 4510  44.497  21.666   7.305
  116POPC   NC3 4511   5.424   8.426   9.580
  116POPC   PO4 4512   6.055   8.335   9.577
  116POPC   GL1 4513   5.946   8.311   9.159
  116POPC   GL2 4514   5.618   8.238   9.137
  116POPC   C1A 4515   5.970   8.200   8.681
  116POPC   D2A 4516   6.073   8.357   8.246
  116POPC   C3A 4517   6.201   8.164   7.817
  116POPC   C4A 4518   5.901   8.286   7.488
  116POPC   C1B 4519   5.445   8.226   8.710
  116POPC   C2B 4520   5.572   8.178   8.245
  116POPC   C3B 4521   5.775   7.917   7.916
  116POPC   C4B 4522   5.981   7.760   7.520
  117POPC   NC3 4523   5.190  36.646   9.375
  117POPC   PO4 4524   4.960  37.270   9.491
  117POPC   GL1 4525   5.041  37.252   9.102
  117POPC   GL2 4526   4.746  37.427   9.011
  117POPC   C1A 4527   5.118  37.001   8.724
  117POPC   D2A 4528   4.906  36.807   8.359
  117POPC   C3A 4529   5.088  36.632   7.974
  117POPC   C4A 4530   4.857  36.706   7.558
  117POPC   C1B 4531   5.051  37.521   8.677
  117POPC   C2B 4532   5.263  37.323   8.334
  117POPC   C3B 4533   5.053  37.133   7.962
  117POPC   C4B 4534   4.974  37.216   7.526
  118POPC   NC3 4535   3.861   7.367   9.581
  118POPC   PO4 4536   4.490   7.543   9.573
  118POPC   GL1 4537   4.192   7.444   9.213
  118POPC   GL2 4538   3.899   7.700   9.187
  118POPC   C1A 4539   4.240   7.232   8.814
  118POPC   D2A 4540   4.195   7.408   8.409
  118POPC   C3A 4541   4.307   7.240   7.993
  118POPC   C4A 4542   4.651   7.160   7.701
  118POPC   C1B 4543   4.188   7.774   8.829
  118POPC   C2B 4544   4.214   7.936   8.401
  118POPC   C3B 4545   4.254   7.751   8.010
  118POPC   C4B 4546   4.272   7.608   7.598
  119POPC   NC3 4547  44.951  35.611   9.790
  119POPC   PO4 4548  44.360  35.389   9.434
  119POPC   GL1 4549  44.525  35.283   9.057
  119POPC   GL2 4550  44.836  35.077   9.042
  119POPC   C1A 4551  44.732  35.414   8.669
  119POPC   D2A 4552  44.932  35.316   8.318
  119POPC   C3A 4553  44.756  35.628   8.056
  119POPC   C4A 4554  44.948  35.413   7.772
  119POPC   C1B 4555  44.557  34.912   8.732
  119POPC   C2B 4556  44.384  35.118   8.408
  119POPC   C3B 4557  44.540  35.134   8.017
  119POPC   C4B 4558  44.365  35.414   7.800
  120POPC   NC3 4559   0.819  42.214   9.433
  120POPC   PO4 4560   1.480  42.350   9.428
  120POPC   GL1 4561   1.218  42.403   9.039
  120POPC   GL2 4562   0.904  42.268   8.948
  120POPC   C1A 4563   1.231  42.414   8.586
  120POPC   D2A 4564   1.388  42.156   8.247
  120POPC   C3A 4565   1.349  42.415   7.898
  120POPC   C4A 4566   0.981  42.640   7.818
  120POPC   C1B 4567   0.740  41.997   8.670
  120POPC   C2B 4568   0.922  41.898   8.310
  120POPC   C3B 4569   0.987  42.074   7.915
  120POPC   C4B 4570   1.135  42.150   7.517
  121POPC   NC3 4571  37.922  25.132   9.448
  121POPC   PO4 4572  37.504  25.670   9.512
  121POPC   GL1 4573  37.672  25.495   9.128
  121POPC   GL2 4574  38.027  25.495   9.058
  121POPC   C1A 4575  37.644  25.592   8.680
  121POPC   D2A 4576  37.798  25.483   8.272
  121POPC   C3A 4577  37.553  25.579   7.934
  121POPC   C4A 4578  37.588  25.398   7.529
  121POPC   C1B 4579  37.917  25.172   8.738
  121POPC   C2B 4580  37.691  24.983   8.367
  121POPC   C3B 4581  37.748  25.091   7.924
  121POPC   C4B 4582  38.082  25.366   7.742
  122POPC   NC3 4583  21.399  11.810   9.628
  122POPC   PO4 4584  21.697  11.135   9.551
  122POPC   GL1 4585  21.671  10.996   9.112
  122POPC   GL2 4586  21.343  11.141   9.005
  122POPC   C1A 4587  21.681  11.110   8.657
  122POPC   D2A 4588  21.504  11.454   8.422
  122POPC   C3A 4589  21.531  11.475   7.958
  122POPC   C4A 4590  21.346  11.481   7.496
  122POPC   C1B 4591  21.108  11.151   8.631
  122POPC   C2B 4592  21.166  11.099   8.196
  122POPC   C3B 4593  21.316  11.038   7.781
  122POPC   C4B 4594  21.418  10.890   7.354
  123POPC   NC3 4595  34.968  14.460   9.422
  123POPC   PO4 4596  35.558  14.676   9.484
  123POPC   GL1 4597  35.409  14.349   9.125
  123POPC   GL2 4598  35.065  14.171   9.026
  123POPC   C1A 4599  35.483  14.223   8.679
  123POPC   D2A 4600  35.612  14.445   8.307
  123POPC   C3A 4601  35.352  14.471   7.985
  123POPC   C4A 4602  35.375  14.230   7.638
  123POPC   C1B 4603  35.075  14.505   8.725
  123POPC   C2B 4604  34.957  14.349   8.337
  123POPC   C3B 4605  34.923  14.147   7.948
  123POPC   C4B 4606  34.936  14.478   7.659
  124POPC   NC3 4607  27.023  36.835   9.612
  124POPC   PO4 4608  26.421  36.769   9.431
  124POPC   GL1 4609  26.698  36.947   9.174
  124POPC   GL2 4610  27.037  36.907   9.118
  124POPC   C1A 4611  26.585  36.849   8.759
  124POPC   D2A 4612  26.770  36.926   8.398
  124POPC   C3A 4613  26.581  36.915   7.999
  124POPC   C4A 4614  26.743  36.979   7.613
  124POPC   C1B 4615  27.201  36.879   8.730
  124POPC   C2B 4616  27.183  36.624   8.381
  124POPC   C3B 4617  27.084  36.862   8.010
  124POPC   C4B 4618  27.085  36.615   7.692
  125POPC   NC3 4619  37.267  19.267   9.457
  125POPC   PO4 4620  37.736  18.861   9.457
  125POPC   GL1 4621  37.589  19.046   9.088
  125POPC   GL2 4622  37.462  19.411   9.028
  125POPC   C1A 4623  37.728  18.850   8.737
  125POPC   D2A 4624  37.669  18.635   8.395
  125POPC   C3A 4625  37.930  18.849   8.152
  125POPC   C4A 4626  37.838  19.033   7.787
  125POPC   C1B 4627  37.761  19.370   8.722
  125POPC   C2B 4628  37.628  19.192   8.355
  125POPC   C3B 4629  37.549  19.380   8.001
  125POPC   C4B 4630  37.917  19.562   7.824
  126POPC   NC3 4631  16.647  35.942   9.251
  126POPC   PO4 4632  16.524  36.675   9.432
  126POPC   GL1 4633  16.582  36.406   9.084
  126POPC   GL2 4634  16.952  36.340   9.112
  126POPC   C1A 4635  16.513  36.346   8.638
  126POPC   D2A 4636  16.632  36.214   8.239
  126POPC   C3A 4637  16.533  36.390   7.856
  126POPC   C4A 4638  16.603  36.068   7.587
  126POPC   C1B 4639  16.974  36.110   8.686
  126POPC   C2B 4640  17.132  36.137   8.279
  126POPC   C3B 4641  17.038  35.963   7.868
  126POPC   C4B 4642  17.065  36.154   7.428
  127POPC   NC3 4643  28.376  11.173   9.505
  127POPC   PO4 4644  27.904  11.694   9.596
  127POPC   GL1 4645  28.147  11.520   9.211
  127POPC   GL2 4646  28.524  11.402   9.101
  127POPC   C1A 4647  28.151  11.275   8.810
  127POPC   D2A 4648  28.195  11.118   8.429
  127POPC   C3A 4649  28.083  11.328   8.068
  127POPC   C4A 4650  28.124  11.211   7.655
  127POPC   C1B 4651  28.664  11.251   8.707
  127POPC   C2B 4652  28.565  11.442   8.307
  127POPC   C3B 4653  28.573  11.337   7.888
  127POPC   C4B 4654  28.854  11.016   7.849
  128POPC   NC3 4655  29.324  37.142   9.579
  128POPC   PO4 4656  28.809  36.801   9.478
  128POPC   GL1 4657  29.073  36.948   9.191
  128POPC   GL2 4658  29.433  36.801   9.228
  128POPC   C1A 4659  28.887  36.892   8.816
  128POPC   D2A 4660  28.779  36.941   8.433
  128POPC   C3A 4661  28.943  36.708   8.100
  128POPC   C4A 4662  28.967  36.973   7.763
  128POPC   C1B 4663  29.458  37.015   8.856
  128POPC   C2B 4664  29.325  36.886   8.469
  128POPC   C3B 4665  29.397  36.978   8.069
  128POPC   C4B 4666  29.431  36.850   7.658
  129POPC   NC3 4667  33.366  20.161   9.415
  129POPC   PO4 4668  32.959  20.704   9.559
  129POPC   GL1 4669  33.073  20.637   9.162
  129POPC   GL2 4670  32.852  20.419   9.117
  129POPC   C1A 4671  33.201  20.747   8.758
  129POPC   D2A 4672  32.949  20.735   8.384
  129POPC   C3A 4673  33.132  20.736   7.974
  129POPC   C4A 4674  32.889  20.690   7.600
  129POPC   C1B 4675  32.879  20.322   8.691
  129POPC   C2B 4676  32.848  20.143   8.274
  129POPC   C3B 4677  32.970  20.263   7.866
  129POPC   C4B 4678  32.909  20.222   7.395
  130POPC   NC3 4679  35.082  27.417   9.504
  130POPC   PO4 4680  35.678  27.732   9.429
  130POPC   GL1 4681  35.400  27.574   9.147
  130POPC   GL2 4682  35.096  27.738   9.111
  130POPC   C1A 4683  35.328  27.359   8.801
  130POPC   D2A 4684  35.593  27.488   8.504
  130POPC   C3A 4685  35.497  27.451   8.087
  130POPC   C4A 4686  35.570  27.701   7.752
  130POPC   C1B 4687  35.251  27.865   8.699
  130POPC   C2B 4688  35.193  27.811   8.249
  130POPC   C3B 4689  35.216  28.046   7.863
  130POPC   C4B 4690  35.025  27.979   7.458
  131POPC   NC3 4691  43.719  20.275   9.589
  131POPC   PO4 4692  43.905  19.660   9.442
  131POPC   GL1 4693  43.830  19.990   9.171
  131POPC   GL2 4694  44.112  20.029   8.974
  131POPC   C1A 4695  43.638  19.987   8.774
  131POPC   D2A 4696  43.833  19.920   8.395
  131POPC   C3A 4697  43.607  19.869   8.063
  131POPC   C4A 4698  43.938  20.040   7.820
  131POPC   C1B 4699  43.989  19.608   8.756
  131POPC   C2B 4700  44.146  19.461   8.380
  131POPC   C3B 4701  44.072  19.576   7.969
  131POPC   C4B 4702  44.141  19.349   7.612
  132POPC   NC3 4703  40.554  12.517   9.454
  132POPC   PO4 4704  40.978  11.882   9.401
  132POPC   GL1 4705  40.684  11.931   9.114
  132POPC   GL2 4706  40.776  12.260   9.084
  132POPC   C1A 4707  40.783  11.863   8.700
  132POPC   D2A 4708  40.609  11.729   8.328
  132POPC   C3A 4709  40.837  11.921   8.026
  132POPC   C4A 4710  41.024  12.001   7.657
  132POPC   C1B 4711  40.607  12.361   8.707
  132POPC   C2B 4712  40.885  12.278   8.385
  132POPC   C3B 4713  40.981  12.430   8.004
  132POPC   C4B 4714  40.818  12.446   7.585
  133POPC   NC3 4715  20.629  17.150   9.793
  133POPC   PO4 4716  20.510  16.469   9.629
  133POPC   GL1 4717  20.470  16.608   9.081
  133POPC   GL2 4718  20.801  16.705   8.911
  133POPC   C1A 4719  20.400  16.895   8.712
  133POPC   D2A 4720  20.356  16.735   8.314
  133POPC   C3A 4721  20.547  16.844   7.935
  133POPC   C4A 4722  20.384  16.591   7.584
  133POPC   C1B 4723  20.643  16.450   8.613
  133POPC   C2B 4724  20.853  16.614   8.294
  133POPC   C3B 4725  21.116  16.742   8.014
  133POPC   C4B 4726  21.046  17.073   7.792
  134POPC   NC3 4727  34.879  37.570   9.442
  134POPC   PO4 4728  34.227  37.606   9.343
  134POPC   GL1 4729  34.571  37.792   9.122
  134POPC   GL2 4730  34.347  37.930   8.970
  134POPC   C1A 4731  34.789  37.896   8.732
  134POPC   D2A 4732  34.538  37.856   8.384
  134POPC   C3A 4733  34.726  37.748   8.007
  134POPC   C4A 4734  34.526  37.578   7.640
  134POPC   C1B 4735  34.105  38.008   8.689
  134POPC   C2B 4736  34.075  38.073   8.288
  134POPC   C3B 4737  34.205  37.802   7.955
  134POPC   C4B 4738  34.046  37.741   7.515
  135POPC   NC3 4739   4.867  16.963   9.706
  135POPC   PO4 4740   5.418  17.312   9.553
  135POPC   GL1 4741   5.297  17.444   9.124
  135POPC   GL2 4742   5.465  17.755   8.964
  135POPC   C1A 4743   5.193  17.386   8.713
  135POPC   D2A 4744   5.145  17.639   8.388
  135POPC   C3A 4745   4.962  17.462   8.050
  135POPC   C4A 4746   4.844  17.668   7.677
  135POPC   C1B 4747   5.621  17.719   8.579
  135POPC   C2B 4748   5.503  17.914   8.191
  135POPC   C3B 4749   5.303  17.788   7.855
  135POPC   C4B 4750   5.397  17.412   7.633
  136POPC   NC3 4751   6.833  38.983   9.852
  136POPC   PO4 4752   6.536  39.432   9.463
  136POPC   GL1 4753   6.672  39.180   9.161
  136POPC   GL2 4754   6.798  38.912   9.328
  136POPC   C1A 4755   6.558  39.099   8.753
  136POPC   D2A 4756   6.233  39.072   8.481
  136POPC   C3A 4757   6.386  39.414   8.245
  136POPC   C4A 4758   6.451  39.416   7.804
  136POPC   C1B 4759   6.913  38.770   8.919
  136POPC   C2B 4760   6.924  38.831   8.468
  136POPC   C3B 4761   6.872  39.168   8.166
  136POPC   C4B 4762   6.833  39.080   7.736
  137POPC   NC3 4763   2.363  38.340   9.485
  137POPC   PO4 4764   1.784  38.642   9.693
  137POPC   GL1 4765   1.887  38.522   9.269
  137POPC   GL2 4766   2.226  38.631   9.096
  137POPC   C1A 4767   1.834  38.342   8.879
  137POPC   D2A 4768   1.951  38.412   8.472
  137POPC   C3A 4769   1.751  38.361   8.114
  137POPC   C4A 4770   1.815  38.449   7.696
  137POPC   C1B 4771   2.404  38.508   8.676
  137POPC   C2B 4772   2.390  38.452   8.212
  137POPC   C3B 4773   2.519  38.249   7.838
  137POPC   C4B 4774   2.304  38.555   7.630
  138POPC   NC3 4775  23.731  31.684   9.681
  138POPC   PO4 4776  23.825  32.403   9.680
  138POPC   GL1 4777  23.703  32.404   9.257
  138POPC   GL2 4778  24.031  32.457   9.143
  138POPC   C1A 4779  23.606  32.363   8.819
  138POPC   D2A 4780  23.808  32.099   8.501
  138POPC   C3A 4781  23.623  32.143   8.090
  138POPC   C4A 4782  23.600  32.055   7.658
  138POPC   C1B 4783  24.068  32.551   8.728
  138POPC   C2B 4784  23.795  32.623   8.405
  138POPC   C3B 4785  23.876  32.590   7.983
  138POPC   C4B 4786  23.978  32.516   7.546
  139POPC   NC3 4787  26.258  17.573   9.465
  139POPC   PO4 4788  25.602  17.710   9.541
  139POPC   GL1 4789  25.915  17.663   9.121
  139POPC   GL2 4790  25.903  17.920   8.857
  139POPC   C1A 4791  26.067  17.418   8.732
  139POPC   D2A 4792  25.977  17.565   8.320
  139POPC   C3A 4793  26.222  17.340   8.012
  139POPC   C4A 4794  26.056  17.241   7.606
  139POPC   C1B 4795  26.323  17.845   8.725
  139POPC   C2B 4796  26.475  17.680   8.368
  139POPC   C3B 4797  26.352  17.883   8.033
  139POPC   C4B 4798  25.988  17.756   7.813
  140POPC   NC3 4799  21.823  24.488   9.719
  140POPC   PO4 4800  21.215  24.325   9.495
  140POPC   GL1 4801  21.456  24.266   9.113
  140POPC   GL2 4802  21.351  24.589   9.005
  140POPC   C1A 4803  21.546  24.230   8.653
  140POPC   D2A 4804  21.536  24.436   8.241
  140POPC   C3A 4805  21.398  24.275   7.881
  140POPC   C4A 4806  21.639  24.028   7.598
  140POPC   C1B 4807  21.485  24.778   8.617
  140POPC   C2B 4808  21.454  24.932   8.196
  140POPC   C3B 4809  21.329  24.806   7.813
  140POPC   C4B 4810  21.150  24.967   7.391
  141POPC   NC3 4811   4.941  22.785   9.674
  141POPC   PO4 4812   5.381  23.141   9.302
  141POPC   GL1 4813   5.180  22.899   9.044
  141POPC   GL2 4814   4.836  22.943   9.190
  141POPC   C1A 4815   5.154  22.972   8.604
  141POPC   D2A 4816   5.110  23.245   8.251
  141POPC   C3A 4817   5.342  23.137   7.909
  141POPC   C4A 4818   5.321  22.810   7.594
  141POPC   C1B 4819   4.736  22.742   8.813
  141POPC   C2B 4820   4.892  22.559   8.445
  141POPC   C3B 4821   5.065  22.742   8.091
  141POPC   C4B 4822   4.855  23.024   7.815
  142POPC   NC3 4823  43.577  16.415   9.502
  142POPC   PO4 4824  43.929  15.870   9.747
  142POPC   GL1 4825  43.954  15.970   9.263
  142POPC   GL2 4826  43.661  16.081   9.131
  142POPC   C1A 4827  44.105  16.134   8.848
  142POPC   D2A 4828  44.236  16.006   8.427
  142POPC   C3A 4829  44.210  16.121   7.985
  142POPC   C4A 4830  44.070  15.721   7.770
  142POPC   C1B 4831  43.561  16.083   8.712
  142POPC   C2B 4832  43.477  15.929   8.307
  142POPC   C3B 4833  43.695  16.103   7.960
  142POPC   C4B 4834  43.902  16.155   7.557
  143POPC   NC3 4835   2.811  31.940   9.498
  143POPC   PO4 4836   2.305  32.327   9.503
  143POPC   GL1 4837   2.566  32.307   9.163
  143POPC   GL2 4838   2.945  32.297   9.159
  143POPC   C1A 4839   2.605  32.213   8.737
  143POPC   D2A 4840   2.555  32.421   8.366
  143POPC   C3A 4841   2.663  32.271   7.948
  143POPC   C4A 4842   2.629  32.643   7.704
  143POPC   C1B 4843   3.109  32.128   8.778
  143POPC   C2B 4844   3.028  32.188   8.340
  143POPC   C3B 4845   3.152  32.022   7.937
  143POPC   C4B 4846   2.949  32.014   7.560
  144POPC   NC3 4847  14.307   6.080   9.568
  144POPC   PO4 4848  14.605   5.478   9.415
  144POPC   GL1 4849  14.466   5.753   9.120
  144POPC   GL2 4850  14.181   5.998   9.083
  144POPC   C1A 4851  14.694   5.734   8.739
  144POPC   D2A 4852  14.528   5.849   8.359
  144POPC   C3A 4853  14.728   5.806   7.995
  144POPC   C4A 4854  14.604   5.988   7.617
  144POPC   C1B 4855  14.150   5.774   8.714
  144POPC   C2B 4856  14.001   5.907   8.322
  144POPC   C3B 4857  14.200   5.954   7.960
  144POPC   C4B 4858  14.296   5.605   7.762
  145POPC   NC3 4859   0.243  22.749   9.381
  145POPC   PO4 4860   0.685  23.264   9.528
  145POPC   GL1 4861   0.578  23.049   9.157
  145POPC   GL2 4862   0.237  23.206   9.182
  145POPC   C1A 4863   0.527  22.905   8.745
  145POPC   D2A 4864   0.659  22.630   8.459
  145POPC   C3A 4865   0.621  22.870   8.092
  145POPC   C4A 4866   0.660  22.857   7.664
  145POPC   C1B 4867   0.259  23.319   8.789
  145POPC   C2B 4868   0.451  23.309   8.371
  145POPC   C3B 4869   0.219  23.250   7.981
  145POPC   C4B 4870   0.140  22.882   7.756
  146POPC   NC3 4871  13.313  13.544   9.532
  146POPC   PO4 4872  13.954  13.321   9.517
  146POPC   GL1 4873  13.734  13.652   9.245
  146POPC   GL2 4874  13.529  13.432   9.094
  146POPC   C1A 4875  13.728  13.837   8.802
  146POPC   D2A 4876  13.739  13.670   8.364
  146POPC   C3A 4877  13.590  13.856   7.991
  146POPC   C4A 4878  13.507  13.789   7.529
  146POPC   C1B 4879  13.716  13.317   8.750
  146POPC   C2B 4880  13.580  13.162   8.359
  146POPC   C3B 4881  13.676  13.298   7.990
  146POPC   C4B 4882  13.959  13.552   7.815
  147POPC   NC3 4883  32.834  18.620   9.446
  147POPC   PO4 4884  33.384  18.987   9.499
  147POPC   GL1 4885  33.259  19.012   9.096
  147POPC   GL2 4886  33.481  19.285   9.049
  147POPC   C1A 4887  32.864  18.946   8.833
  147POPC   D2A 4888  32.713  18.810   8.422
  147POPC   C3A 4889  33.057  18.680   8.210
  147POPC   C4A 4890  33.100  18.634   7.785
  147POPC   C1B 4891  33.162  19.357   8.718
  147POPC   C2B 4892  33.036  19.209   8.314
  147POPC   C3B 4893  32.885  19.104   7.907
  147POPC   C4B 4894  32.832  19.397   7.540
  148POPC   NC3 4895  40.435   7.493   9.520
  148POPC   PO4 4896  41.107   7.528   9.618
  148POPC   GL1 4897  41.001   7.380   9.202
  148POPC   GL2 4898  40.705   7.198   9.196
  148POPC   C1A 4899  40.881   7.560   8.795
  148POPC   D2A 4900  40.759   7.750   8.431
  148POPC   C3A 4901  40.924   7.635   8.018
  148POPC   C4A 4902  40.938   7.491   7.598
  148POPC   C1B 4903  40.603   7.142   8.752
  148POPC   C2B 4904  40.630   7.047   8.314
  148POPC   C3B 4905  40.720   7.147   7.895
  148POPC   C4B 4906  40.656   7.111   7.411
  149POPC   NC3 4907   7.722  30.190   9.482
  149POPC   PO4 4908   7.003  29.918   9.460
  149POPC   GL1 4909   7.307  30.079   9.174
  149POPC   GL2 4910   7.526  29.805   9.111
  149POPC   C1A 4911   7.439  30.178   8.756
  149POPC   D2A 4912   7.495  29.914   8.429
  149POPC   C3A 4913   7.288  30.091   8.075
  149POPC   C4A 4914   7.355  29.964   7.667
  149POPC   C1B 4915   7.150  29.730   8.801
  149POPC   C2B 4916   6.961  29.787   8.365
  149POPC   C3B 4917   6.977  29.719   7.897
  149POPC   C4B 4918   7.086  29.575   7.441
  150POPC   NC3 4919   1.008  37.458   9.505
  150POPC   PO4 4920   1.289  37.998   9.616
  150POPC   GL1 4921   1.170  37.874   9.235
  150POPC   GL2 4922   1.377  37.608   9.181
  150POPC   C1A 4923   1.158  37.924   8.812
  150POPC   D2A 4924   1.120  37.671   8.466
  150POPC   C3A 4925   1.075  37.880   8.132
  150POPC   C4A 4926   0.966  37.841   7.762
  150POPC   C1B 4927   1.406  37.412   8.815
  150POPC   C2B 4928   1.583  37.462   8.446
  150POPC   C3B 4929   1.384  37.430   8.088
  150POPC   C4B 4930   1.515  37.613   7.726
  151POPC   NC3 4931  41.951   8.078   9.522
  151POPC   PO4 4932  42.520   8.520   9.490
  151POPC   GL1 4933  42.216   8.410   9.201
  151POPC   GL2 4934  42.259   8.072   9.106
  151POPC   C1A 4935  42.261   8.427   8.757
  151POPC   D2A 4936  42.499   8.328   8.406
  151POPC   C3A 4937  42.285   8.339   8.030
  151POPC   C4A 4938  42.534   8.228   7.715
  151POPC   C1B 4939  42.126   7.886   8.705
  151POPC   C2B 4940  41.986   7.845   8.282
  151POPC   C3B 4941  42.175   7.853   7.876
  151POPC   C4B 4942  42.211   7.967   7.426
  152POPC   NC3 4943  41.705  21.869   9.484
  152POPC   PO4 4944  41.405  22.442   9.503
  152POPC   GL1 4945  41.592  22.271   9.141
  152POPC   GL2 4946  41.428  21.958   9.064
  152POPC   C1A 4947  41.580  22.337   8.697
  152POPC   D2A 4948  41.795  22.458   8.318
  152POPC   C3A 4949  41.571  22.376   7.923
  152POPC   C4A 4950  41.159  22.491   7.838
  152POPC   C1B 4951  41.188  21.978   8.685
  152POPC   C2B 4952  41.280  22.107   8.270
  152POPC   C3B 4953  41.431  21.839   7.943
  152POPC   C4B 4954  41.781  21.772   7.683
  153POPC   NC3 4955  28.233  22.629   9.404
  153POPC   PO4 4956  28.323  23.249   9.566
  153POPC   GL1 4957  28.257  23.079   9.118
  153POPC   GL2 4958  28.236  22.732   8.926
  153POPC   C1A 4959  28.512  23.102   8.740
  153POPC   D2A 4960  28.506  22.779   8.438
  153POPC   C3A 4961  28.246  22.995   8.160
  153POPC   C4A 4962  28.299  23.043   7.727
  153POPC   C1B 4963  27.936  22.696   8.611
  153POPC   C2B 4964  27.750  22.618   8.238
  153POPC   C3B 4965  28.029  22.601   7.914
  153POPC   C4B 4966  28.481  22.584   7.921
  154POPC   NC3 4967   5.989  44.523   9.640
  154POPC   PO4 4968   5.584   0.061   9.527
  154POPC   GL1 4969   5.804  44.968   9.154
  154POPC   GL2 4970   5.890  44.620   9.151
  154POPC   C1A 4971   5.943  44.965   8.717
  154POPC   D2A 4972   5.771  44.732   8.342
  154POPC   C3A 4973   5.870  44.892   7.961
  154POPC   C4A 4974   5.954  44.747   7.558
  154POPC   C1B 4975   5.717  44.490   8.779
  154POPC   C2B 4976   5.899  44.239   8.450
  154POPC   C3B 4977   5.981  44.354   8.029
  154POPC   C4B 4978   5.810  44.262   7.617
  155POPC   NC3 4979  14.207  34.576   9.434
  155POPC   PO4 4980  13.525  34.567   9.470
  155POPC   GL1 4981  13.478  34.718   9.091
  155POPC   GL2 4982  13.852  34.698   8.990
  155POPC   C1A 4983  13.423  34.556   8.706
  155POPC   D2A 4984  13.680  34.728   8.369
  155POPC   C3A 4985  13.575  34.698   7.933
  155POPC   C4A 4986  13.345  34.805   7.523
  155POPC   C1B 4987  13.879  34.327   8.671
  155POPC   C2B 4988  13.951  34.325   8.213
  155POPC   C3B 4989  13.835  34.210   7.825
  155POPC   C4B 4990  13.794  34.495   7.470
  156POPC   NC3 4991  44.928   3.268   9.438
  156POPC   PO4 4992  44.505   2.704   9.359
  156POPC   GL1 4993  44.612   2.497   9.039
  156POPC   GL2 4994  44.940   2.395   9.065
  156POPC   C1A 4995  44.588   2.728   8.649
  156POPC   D2A 4996  44.961   2.890   8.442
  156POPC   C3A 4997   0.047   2.675   8.071
  156POPC   C4A 4998  44.812   2.765   7.735
  156POPC   C1B 4999  44.890   2.320   8.613
  156POPC   C2B 5000  44.890   2.208   8.174
  156POPC   C3B 5001  44.713   2.263   7.757
  156POPC   C4B 5002  44.860   2.423   7.344
  157POPC   NC3 5003  23.326  20.960   9.256
  157POPC   PO4 5004  23.657  21.500   9.490
  157POPC   GL1 5005  23.808  21.283   9.125
  157POPC   GL2 5006  23.506  21.338   8.973
  157POPC   C1A 5007  23.979  21.235   8.693
  157POPC   D2A 5008  23.902  21.401   8.263
  157POPC   C3A 5009  24.159  21.209   7.938
  157POPC   C4A 5010  24.075  21.323   7.490
  157POPC   C1B 5011  23.447  21.170   8.557
  157POPC   C2B 5012  23.636  20.980   8.189
  157POPC   C3B 5013  23.674  21.211   7.796
  157POPC   C4B 5014  23.459  21.530   7.902
  158POPC   NC3 5015  39.306  26.518   9.482
  158POPC   PO4 5016  38.884  27.033   9.501
  158POPC   GL1 5017  39.166  26.863   9.132
  158POPC   GL2 5018  39.507  26.652   9.044
  158POPC   C1A 5019  39.327  27.031   8.747
  158POPC   D2A 5020  39.151  27.177   8.378
  158POPC   C3A 5021  39.399  27.108   8.061
  158POPC   C4A 5022  39.431  27.214   7.684
  158POPC   C1B 5023  39.290  26.515   8.697
  158POPC   C2B 5024  39.335  26.659   8.312
  158POPC   C3B 5025  39.599  26.635   7.954
  158POPC   C4B 5026  39.367  26.706   7.653
  159POPC   NC3 5027   9.495  41.772   9.530
  159POPC   PO4 5028   9.945  41.407   9.328
  159POPC   GL1 5029   9.696  41.640   9.096
  159POPC   GL2 5030   9.917  41.936   9.214
  159POPC   C1A 5031   9.608  41.513   8.705
  159POPC   D2A 5032   9.788  41.194   8.435
  159POPC   C3A 5033   9.758  41.413   8.041
  159POPC   C4A 5034   9.993  41.529   7.705
  159POPC   C1B 5035   9.934  41.912   8.761
  159POPC   C2B 5036  10.020  41.664   8.410
  159POPC   C3B 5037  10.059  41.892   8.038
  159POPC   C4B 5038   9.832  42.026   7.678
  160POPC   NC3 5039  24.907  32.550   9.389
  160POPC   PO4 5040  25.249  31.997   9.429
  160POPC   GL1 5041  25.209  32.272   9.083
  160POPC   GL2 5042  25.500  32.451   9.000
  160POPC   C1A 5043  25.119  32.445   8.680
  160POPC   D2A 5044  25.337  32.500   8.292
  160POPC   C3A 5045  25.079  32.345   7.961
  160POPC   C4A 5046  25.105  31.916   7.816
  160POPC   C1B 5047  25.588  32.111   8.745
  160POPC   C2B 5048  25.749  32.165   8.337
  160POPC   C3B 5049  25.562  32.180   7.928
  160POPC   C4B 5050  25.715  32.220   7.540
  161POPC   NC3 5051  11.004  36.623   9.474
  161POPC   PO4 5052  11.324  37.251   9.555
  161POPC   GL1 5053  11.180  37.028   9.213
  161POPC   GL2 5054  11.444  36.803   9.197
  161POPC   C1A 5055  11.068  36.866   8.797
  161POPC   D2A 5056  11.004  37.080   8.394
  161POPC   C3A 5057  11.256  37.122   8.004
  161POPC   C4A 5058  11.238  37.120   7.548
  161POPC   C1B 5059  11.541  36.736   8.751
  161POPC   C2B 5060  11.361  36.716   8.300
  161POPC   C3B 5061  11.365  36.674   7.811
  161POPC   C4B 5062  11.569  36.572   7.404
  162POPC   NC3 5063  37.087  11.516   9.519
  162POPC   PO4 5064  36.591  11.030   9.539
  162POPC   GL1 5065  36.857  11.112   9.200
  162POPC   GL2 5066  37.018  11.400   9.034
  162POPC   C1A 5067  36.717  11.052   8.789
  162POPC   D2A 5068  36.873  11.176   8.427
  162POPC   C3A 5069  36.674  11.076   8.058
  162POPC   C4A 5070  37.018  11.227   7.817
  162POPC   C1B 5071  36.718  11.577   8.734
  162POPC   C2B 5072  36.527  11.571   8.313
  162POPC   C3B 5073  36.631  11.557   7.874
  162POPC   C4B 5074  36.873  11.576   7.482
  163POPC   NC3 5075  43.618   9.662   9.517
  163POPC   PO4 5076  44.277   9.591   9.292
  163POPC   GL1 5077  43.926   9.926   9.158
  163POPC   GL2 5078  43.534  10.002   9.148
  163POPC   C1A 5079  43.804   9.932   8.733
  163POPC   D2A 5080  44.057   9.690   8.483
  163POPC   C3A 5081  44.089   9.848   8.095
  163POPC   C4A 5082  43.895   9.727   7.732
  163POPC   C1B 5083  43.465   9.590   8.901
  163POPC   C2B 5084  43.571   9.470   8.487
  163POPC   C3B 5085  43.583   9.603   8.096
  163POPC   C4B 5086  43.600   9.281   7.777
  164POPC   NC3 5087  37.296  36.718   9.408
  164POPC   PO4 5088  36.711  37.070   9.433
  164POPC   GL1 5089  36.877  36.812   9.139
  164POPC   GL2 5090  37.114  37.080   9.086
  164POPC   C1A 5091  36.781  36.552   8.797
  164POPC   D2A 5092  36.735  36.768   8.379
  164POPC   C3A 5093  36.919  36.620   8.006
  164POPC   C4A 5094  36.911  36.680   7.589
  164POPC   C1B 5095  37.117  36.926   8.673
  164POPC   C2B 5096  37.242  36.982   8.244
  164POPC   C3B 5097  37.031  37.095   7.866
  164POPC   C4B 5098  36.742  37.162   7.513
  165POPC   NC3 5099  22.522  21.854   9.571
  165POPC   PO4 5100  21.942  22.220   9.527
  165POPC   GL1 5101  22.111  22.169   9.137
  165POPC   GL2 5102  22.450  22.063   9.126
  165POPC   C1A 5103  22.164  22.408   8.787
  165POPC   D2A 5104  21.879  22.397   8.452
  165POPC   C3A 5105  21.895  22.105   8.135
  165POPC   C4A 5106  22.092  22.264   7.761
  165POPC   C1B 5107  22.366  21.916   8.730
  165POPC   C2B 5108  22.339  22.157   8.366
  165POPC   C3B 5109  22.550  22.202   8.007
  165POPC   C4B 5110  22.703  21.901   7.767
  166POPC   NC3 5111  37.995  27.465   9.300
  166POPC   PO4 5112  37.447  27.866   9.493
  166POPC   GL1 5113  37.505  27.794   9.100
  166POPC   GL2 5114  37.804  27.951   9.082
  166POPC   C1A 5115  37.499  27.610   8.693
  166POPC   D2A 5116  37.554  27.783   8.287
  166POPC   C3A 5117  37.566  27.463   7.972
  166POPC   C4A 5118  37.488  27.262   7.585
  166POPC   C1B 5119  37.955  27.853   8.691
  166POPC   C2B 5120  38.097  27.931   8.282
  166POPC   C3B 5121  37.883  27.869   7.877
  166POPC   C4B 5122  37.575  27.802   7.539
  167POPC   NC3 5123  42.638  43.559   9.459
  167POPC   PO4 5124  42.481  44.256   9.338
  167POPC   GL1 5125  42.407  43.858   9.102
  167POPC   GL2 5126  42.574  43.999   8.823
  167POPC   C1A 5127  42.260  43.620   8.720
  167POPC   D2A 5128  42.233  43.815   8.274
  167POPC   C3A 5129  42.308  43.573   7.870
  167POPC   C4A 5130  42.299  43.542   7.400
  167POPC   C1B 5131  42.133  44.129   8.717
  167POPC   C2B 5132  41.894  44.225   8.349
  167POPC   C3B 5133  41.997  44.294   7.905
  167POPC   C4B 5134  42.139  43.988   7.617
  168POPC   NC3 5135  12.958  24.109   9.473
  168POPC   PO4 5136  12.549  24.600   9.692
  168POPC   GL1 5137  12.657  24.673   9.193
  168POPC   GL2 5138  12.970  24.458   9.099
  168POPC   C1A 5139  12.695  24.659   8.726
  168POPC   D2A 5140  12.915  24.529   8.344
  168POPC   C3A 5141  12.728  24.766   8.014
  168POPC   C4A 5142  12.569  24.775   7.606
  168POPC   C1B 5143  12.862  24.146   8.713
  168POPC   C2B 5144  12.648  24.105   8.295
  168POPC   C3B 5145  12.606  24.287   7.896
  168POPC   C4B 5146  12.982  24.427   7.723
  169POPC   NC3 5147   5.827  22.361   9.864
  169POPC   PO4 5148   5.393  22.183   9.415
  169POPC   GL1 5149   5.612  22.285   9.054
  169POPC   GL2 5150   5.947  22.138   9.087
  169POPC   C1A 5151   5.769  22.209   8.627
  169POPC   D2A 5152   5.968  21.974   8.320
  169POPC   C3A 5153   5.804  22.208   7.982
  169POPC   C4A 5154   5.627  22.386   7.598
  169POPC   C1B 5155   6.250  22.398   8.773
  169POPC   C2B 5156   6.412  22.421   8.331
  169POPC   C3B 5157   6.329  22.149   7.970
  169POPC   C4B 5158   6.068  21.837   7.766
  170POPC   NC3 5159  43.811  23.546   9.667
  170POPC   PO4 5160  44.274  23.991   9.458
  170POPC   GL1 5161  44.068  23.624   9.210
  170POPC   GL2 5162  43.723  23.470   9.175
  170POPC   C1A 5163  44.185  23.475   8.790
  170POPC   D2A 5164  44.096  23.713   8.409
  170POPC   C3A 5165  44.247  23.668   7.989
  170POPC   C4A 5166  44.058  23.716   7.555
  170POPC   C1B 5167  43.715  23.703   8.790
  170POPC   C2B 5168  43.617  23.545   8.384
  170POPC   C3B 5169  43.712  23.583   7.952
  170POPC   C4B 5170  43.570  23.477   7.546
  171POPC   NC3 5171  28.010   2.253   9.176
  171POPC   PO4 5172  27.478   2.009   9.550
  171POPC   GL1 5173  27.527   2.067   9.123
  171POPC   GL2 5174  27.418   2.346   9.096
  171POPC   C1A 5175  27.631   2.043   8.677
  171POPC   D2A 5176  27.587   2.370   8.359
  171POPC   C3A 5177  27.761   2.240   7.960
  171POPC   C4A 5178  27.907   1.853   7.741
  171POPC   C1B 5179  27.200   2.307   8.705
  171POPC   C2B 5180  27.028   2.425   8.289
  171POPC   C3B 5181  27.240   2.287   7.904
  171POPC   C4B 5182  27.390   1.875   7.810
  172POPC   NC3 5183  23.241  18.808   9.476
  172POPC   PO4 5184  23.903  18.975   9.513
  172POPC   GL1 5185  23.770  19.091   9.102
  172POPC   GL2 5186  23.429  19.178   9.182
  172POPC   C1A 5187  23.800  19.003   8.666
  172POPC   D2A 5188  23.747  18.784   8.237
  172POPC   C3A 5189  23.968  19.022   7.940
  172POPC   C4A 5190  23.920  19.390   7.723
  172POPC   C1B 5191  23.376  19.312   8.770
  172POPC   C2B 5192  23.364  19.053   8.423
  172POPC   C3B 5193  23.311  18.970   8.047
  172POPC   C4B 5194  23.503  19.049   7.715
  173POPC   NC3 5195  33.606  15.327   9.749
  173POPC   PO4 5196  33.132  14.929   9.380
  173POPC   GL1 5197  33.208  15.063   8.993
  173POPC   GL2 5198  32.974  14.841   8.885
  173POPC   C1A 5199  33.330  15.127   8.575
  173POPC   D2A 5200  33.112  15.338   8.238
  173POPC   C3A 5201  33.254  15.166   7.876
  173POPC   C4A 5202  33.454  15.029   7.506
  173POPC   C1B 5203  32.796  15.125   8.639
  173POPC   C2B 5204  32.735  15.009   8.240
  173POPC   C3B 5205  32.715  15.194   7.861
  173POPC   C4B 5206  32.408  15.237   7.531
  174POPC   NC3 5207  35.401  40.258   9.420
  174POPC   PO4 5208  35.160  40.858   9.465
  174POPC   GL1 5209  35.497  40.859   9.167
  174POPC   GL2 5210  35.731  40.575   9.099
  174POPC   C1A 5211  35.409  40.921   8.734
  174POPC   D2A 5212  35.176  41.043   8.366
  174POPC   C3A 5213  35.469  41.085   8.031
  174POPC   C4A 5214  35.385  40.823   7.698
  174POPC   C1B 5215  35.854  40.654   8.657
  174POPC   C2B 5216  35.688  40.613   8.213
  174POPC   C3B 5217  35.739  40.475   7.796
  174POPC   C4B 5218  35.571  40.439   7.351
  175POPC   NC3 5219  34.701   9.256   9.357
  175POPC   PO4 5220  34.507   8.625   9.470
  175POPC   GL1 5221  34.484   8.857   9.129
  175POPC   GL2 5222  34.217   9.090   9.199
  175POPC   C1A 5223  34.719   8.954   8.751
  175POPC   D2A 5224  34.863   8.794   8.360
  175POPC   C3A 5225  34.780   8.957   7.950
  175POPC   C4A 5226  34.819   9.117   7.540
  175POPC   C1B 5227  34.339   9.305   8.810
  175POPC   C2B 5228  34.461   9.200   8.376
  175POPC   C3B 5229  34.280   9.160   7.962
  175POPC   C4B 5230  34.344   8.891   7.607
  176POPC   NC3 5231  37.281   7.991   9.391
  176POPC   PO4 5232  36.908   7.512   9.764
  176POPC   GL1 5233  37.018   7.465   9.268
  176POPC   GL2 5234  36.910   7.199   9.131
  176POPC   C1A 5235  36.901   7.589   8.793
  176POPC   D2A 5236  36.843   7.384   8.383
  176POPC   C3A 5237  36.816   7.587   7.956
  176POPC   C4A 5238  36.731   7.590   7.499
  176POPC   C1B 5239  37.188   7.133   8.803
  176POPC   C2B 5240  37.168   6.967   8.394
  176POPC   C3B 5241  37.001   7.076   8.013
  176POPC   C4B 5242  37.066   7.218   7.595
  177POPC   NC3 5243  40.098  16.428   9.394
  177POPC   PO4 5244  40.012  16.964   9.852
  177POPC   GL1 5245  39.875  16.898   9.323
  177POPC   GL2 5246  40.130  16.727   9.016
  177POPC   C1A 5247  39.732  16.930   8.843
  177POPC   D2A 5248  39.722  16.546   8.522
  177POPC   C3A 5249  39.945  16.546   8.106
  177POPC   C4A 5250  40.002  16.841   7.760
  177POPC   C1B 5251  40.207  16.950   8.646
  177POPC   C2B 5252  40.355  16.828   8.258
  177POPC   C3B 5253  40.420  17.080   7.925
  177POPC   C4B 5254  40.347  17.046   7.440
  178POPC   NC3 5255  13.117   0.452   9.655
  178POPC   PO4 5256  13.762   0.241   9.532
  178POPC   GL1 5257  13.666   0.378   9.141
  178POPC   GL2 5258  13.418   0.086   9.149
  178POPC   C1A 5259  13.726   0.645   8.745
  178POPC   D2A 5260  13.577   0.921   8.394
  178POPC   C3A 5261  13.733   0.750   7.993
  178POPC   C4A 5262  13.752   0.303   7.820
  178POPC   C1B 5263  13.366   0.265   8.755
  178POPC   C2B 5264  13.466   0.416   8.332
  178POPC   C3B 5265  13.273   0.220   7.982
  178POPC   C4B 5266  13.293   0.336   7.568
  179POPC   NC3 5267  34.529   7.512   9.581
  179POPC   PO4 5268  34.656   6.807   9.630
  179POPC   GL1 5269  34.701   7.192   9.242
  179POPC   GL2 5270  34.974   7.417   9.197
  179POPC   C1A 5271  34.430   7.525   8.936
  179POPC   D2A 5272  34.418   7.693   8.487
  179POPC   C3A 5273  34.211   7.520   8.130
  179POPC   C4A 5274  34.363   7.416   7.727
  179POPC   C1B 5275  34.889   7.465   8.741
  179POPC   C2B 5276  34.940   7.616   8.323
  179POPC   C3B 5277  34.950   7.502   7.868
  179POPC   C4B 5278  34.801   7.398   7.439
  180POPC   NC3 5279  35.453  21.888   9.460
  180POPC   PO4 5280  35.142  22.515   9.452
  180POPC   GL1 5281  35.326  22.259   9.143
  180POPC   GL2 5282  35.071  22.046   9.115
  180POPC   C1A 5283  35.362  22.353   8.702
  180POPC   D2A 5284  35.268  22.200   8.340
  180POPC   C3A 5285  35.512  22.300   7.997
  180POPC   C4A 5286  35.481  22.400   7.572
  180POPC   C1B 5287  35.212  21.858   8.737
  180POPC   C2B 5288  35.282  21.676   8.349
  180POPC   C3B 5289  35.301  21.843   7.967
  180POPC   C4B 5290  35.204  21.945   7.532
  181POPC   NC3 5291   0.093  42.606   9.409
  181POPC   PO4 5292   0.795  42.654   9.301
  181POPC   GL1 5293   0.479  42.533   9.056
  181POPC   GL2 5294   0.396  42.225   9.111
  181POPC   C1A 5295   0.567  42.497   8.620
  181POPC   D2A 5296   0.799  42.405   8.266
  181POPC   C3A 5297   0.526  42.282   7.927
  181POPC   C4A 5298   0.243  42.327   7.509
  181POPC   C1B 5299   0.240  42.054   8.732
  181POPC   C2B 5300   0.392  41.885   8.288
  181POPC   C3B 5301   0.207  41.918   7.844
  181POPC   C4B 5302   0.215  41.839   7.349
  182POPC   NC3 5303  12.536  13.251   9.206
  182POPC   PO4 5304  12.822  13.733   9.526
  182POPC   GL1 5305  12.787  13.683   9.127
  182POPC   GL2 5306  13.017  13.432   9.118
  182POPC   C1A 5307  12.778  13.652   8.677
  182POPC   D2A 5308  12.748  13.887   8.294
  182POPC   C3A 5309  12.595  13.642   7.985
  182POPC   C4A 5310  12.752  13.437   7.708
  182POPC   C1B 5311  13.224  13.797   8.924
  182POPC   C2B 5312  13.303  13.574   8.595
  182POPC   C3B 5313  13.232  13.517   8.192
  182POPC   C4B 5314  13.099  13.786   7.908
  183POPC   NC3 5315  12.887   6.837   9.329
  183POPC   PO4 5316  12.630   6.251   9.655
  183POPC   GL1 5317  12.586   6.430   9.244
  183POPC   GL2 5318  12.941   6.401   9.081
  183POPC   C1A 5319  12.432   6.385   8.822
  183POPC   D2A 5320  12.542   6.248   8.388
  183POPC   C3A 5321  12.701   6.592   8.103
  183POPC   C4A 5322  12.620   6.710   7.676
  183POPC   C1B 5323  13.098   6.712   8.736
  183POPC   C2B 5324  13.081   6.888   8.329
  183POPC   C3B 5325  13.134   6.821   7.904
  183POPC   C4B 5326  13.117   7.063   7.580
  184POPC   NC3 5327  11.413  39.566   9.471
  184POPC   PO4 5328  10.915  39.963   9.337
  184POPC   GL1 5329  11.055  39.676   9.050
  184POPC   GL2 5330  11.364  39.872   8.978
  184POPC   C1A 5331  11.141  39.655   8.583
  184POPC   D2A 5332  11.406  39.920   8.377
  184POPC   C3A 5333  11.536  39.802   8.015
  184POPC   C4A 5334  11.260  40.034   7.819
  184POPC   C1B 5335  11.029  40.129   8.706
  184POPC   C2B 5336  10.969  40.184   8.250
  184POPC   C3B 5337  10.844  40.332   7.852
  184POPC   C4B 5338  10.979  40.194   7.410
  185POPC   NC3 5339   8.560  42.356   9.333
  185POPC   PO4 5340   7.858  42.647   9.446
  185POPC   GL1 5341   8.160  42.570   9.121
  185POPC   GL2 5342   8.141  42.206   9.089
  185POPC   C1A 5343   8.362  42.458   8.712
  185POPC   D2A 5344   8.274  42.225   8.344
  185POPC   C3A 5345   8.518  42.372   8.006
  185POPC   C4A 5346   8.600  42.099   7.701
  185POPC   C1B 5347   7.843  42.321   8.791
  185POPC   C2B 5348   7.758  42.226   8.388
  185POPC   C3B 5349   7.851  42.419   8.025
  185POPC   C4B 5350   8.087  42.260   7.734
  186POPC   NC3 5351   2.480  19.815   9.558
  186POPC   PO4 5352   3.059  19.865   9.692
  186POPC   GL1 5353   3.011  19.748   9.154
  186POPC   GL2 5354   2.678  19.665   9.100
  186POPC   C1A 5355   2.914  19.939   8.717
  186POPC   D2A 5356   2.555  19.858   8.431
  186POPC   C3A 5357   2.587  19.973   8.000
  186POPC   C4A 5358   2.591  20.201   7.588
  186POPC   C1B 5359   2.633  19.422   8.758
  186POPC   C2B 5360   2.538  19.362   8.352
  186POPC   C3B 5361   2.706  19.478   7.928
  186POPC   C4B 5362   2.912  19.816   7.625
  187POPC   NC3 5363   8.256  40.569   9.477
  187POPC   PO4 5364   7.686  41.019   9.358
  187POPC   GL1 5365   8.063  41.064   9.115
  187POPC   GL2 5366   8.416  40.954   9.138
  187POPC   C1A 5367   8.117  40.842   8.730
  187POPC   D2A 5368   7.930  40.948   8.355
  187POPC   C3A 5369   8.177  40.851   8.042
  187POPC   C4A 5370   7.997  40.772   7.682
  187POPC   C1B 5371   8.565  40.624   8.844
  187POPC   C2B 5372   8.561  40.698   8.432
  187POPC   C3B 5373   8.668  40.694   8.035
  187POPC   C4B 5374   8.448  40.532   7.713
  188POPC   NC3 5375  15.743  29.131   9.525
  188POPC   PO4 5376  15.034  29.126   9.470
  188POPC   GL1 5377  15.197  29.047   9.100
  188POPC   GL2 5378  15.520  28.915   9.122
  188POPC   C1A 5379  15.040  29.135   8.717
  188POPC   D2A 5380  14.899  29.195   8.303
  188POPC   C3A 5381  14.994  29.333   7.895
  188POPC   C4A 5382  14.859  29.058   7.577
  188POPC   C1B 5383  15.547  29.088   8.737
  188POPC   C2B 5384  15.429  29.348   8.431
  188POPC   C3B 5385  15.466  29.191   8.060
  188POPC   C4B 5386  15.446  29.187   7.653
  189POPC   NC3 5387  20.285  39.909   9.287
  189POPC   PO4 5388  20.728  40.096   9.731
  189POPC   GL1 5389  20.777  39.995   9.265
  189POPC   GL2 5390  20.598  40.278   9.095
  189POPC   C1A 5391  20.685  39.831   8.797
  189POPC   D2A 5392  20.391  39.748   8.440
  189POPC   C3A 5393  20.585  39.766   8.054
  189POPC   C4A 5394  20.824  39.955   7.704
  189POPC   C1B 5395  20.315  40.325   8.733
  189POPC   C2B 5396  20.419  40.218   8.313
  189POPC   C3B 5397  20.384  40.198   7.863
  189POPC   C4B 5398  20.204  40.366   7.515
  190POPC   NC3 5399  15.349  24.925   9.327
  190POPC   PO4 5400  15.567  24.247   9.345
  190POPC   GL1 5401  15.299  24.487   9.038
  190POPC   GL2 5402  14.937  24.578   9.120
  190POPC   C1A 5403  15.242  24.339   8.626
  190POPC   D2A 5404  15.361  24.562   8.265
  190POPC   C3A 5405  15.317  24.328   7.917
  190POPC   C4A 5406  15.116  24.621   7.624
  190POPC   C1B 5407  14.772  24.439   8.742
  190POPC   C2B 5408  14.825  24.573   8.338
  190POPC   C3B 5409  14.805  24.373   7.982
  190POPC   C4B 5410  14.915  24.166   7.640
  191POPC   NC3 5411  24.595  39.057   9.806
  191POPC   PO4 5412  24.705  39.529   9.413
  191POPC   GL1 5413  24.686  39.215   9.152
  191POPC   GL2 5414  24.592  39.484   8.915
  191POPC   C1A 5415  24.708  39.034   8.752
  191POPC   D2A 5416  24.604  39.306   8.403
  191POPC   C3A 5417  24.640  39.040   8.080
  191POPC   C4A 5418  24.748  38.790   7.718
  191POPC   C1B 5419  24.227  39.594   8.733
  191POPC   C2B 5420  24.152  39.574   8.298
  191POPC   C3B 5421  24.403  39.507   7.944
  191POPC   C4B 5422  24.341  39.514   7.505
  192POPC   NC3 5423   9.955  30.316   9.538
  192POPC   PO4 5424   9.516  30.692   9.201
  192POPC   GL1 5425   9.942  30.764   9.072
  192POPC   GL2 5426   9.971  30.416   9.056
  192POPC   C1A 5427   9.998  30.668   8.621
  192POPC   D2A 5428   9.669  30.430   8.416
  192POPC   C3A 5429   9.589  30.655   8.035
  192POPC   C4A 5430   9.913  30.888   7.797
  192POPC   C1B 5431  10.072  30.164   8.730
  192POPC   C2B 5432  10.181  30.224   8.316
  192POPC   C3B 5433   9.867  30.172   8.009
  192POPC   C4B 5434   9.713  30.374   7.639
  193POPC   NC3 5435  12.941  24.806   9.567
  193POPC   PO4 5436  12.534  25.258   9.419
  193POPC   GL1 5437  12.832  25.302   9.068
  193POPC   GL2 5438  12.990  24.990   9.029
  193POPC   C1A 5439  12.865  25.230   8.601
  193POPC   D2A 5440  12.815  25.462   8.248
  193POPC   C3A 5441  12.980  25.338   7.880
  193POPC   C4A 5442  12.913  25.133   7.485
  193POPC   C1B 5443  13.199  24.835   8.664
  193POPC   C2B 5444  13.149  24.975   8.215
  193POPC   C3B 5445  13.263  24.887   7.767
  193POPC   C4B 5446  13.392  24.969   7.299
  194POPC   NC3 5447   6.553  30.176   9.484
  194POPC   PO4 5448   6.699  30.831   9.385
  194POPC   GL1 5449   6.714  30.520   9.107
  194POPC   GL2 5450   6.414  30.333   9.008
  194POPC   C1A 5451   6.747  30.689   8.708
  194POPC   D2A 5452   6.824  30.952   8.360
  194POPC   C3A 5453   6.649  30.715   8.046
  194POPC   C4A 5454   6.644  30.629   7.625
  194POPC   C1B 5455   6.225  30.646   8.735
  194POPC   C2B 5456   6.293  31.031   8.506
  194POPC   C3B 5457   6.381  31.178   8.124
  194POPC   C4B 5458   6.270  30.958   7.770
  195POPC   NC3 5459  42.461  26.979   9.648
  195POPC   PO4 5460  42.200  26.378   9.574
  195POPC   GL1 5461  42.435  26.614   9.283
  195POPC   GL2 5462  42.183  26.870   9.229
  195POPC   C1A 5463  42.538  26.778   8.865
  195POPC   D2A 5464  42.449  26.927   8.425
  195POPC   C3A 5465  42.471  26.653   8.051
  195POPC   C4A 5466  42.495  26.897   7.677
  195POPC   C1B 5467  42.096  27.012   8.804
  195POPC   C2B 5468  41.942  27.140   8.421
  195POPC   C3B 5469  42.099  27.002   8.039
  195POPC   C4B 5470  41.922  26.956   7.676
  196POPC   NC3 5471  39.575  11.316   9.379
  196POPC   PO4 5472  40.232  11.236   9.563
  196POPC   GL1 5473  40.092  11.424   9.152
  196POPC   GL2 5474  39.874  11.164   8.976
  196POPC   C1A 5475  40.052  11.515   8.683
  196POPC   D2A 5476  39.995  11.171   8.389
  196POPC   C3A 5477  39.952  11.354   7.997
  196POPC   C4A 5478  40.309  11.574   7.817
  196POPC   C1B 5479  39.667  10.871   8.660
  196POPC   C2B 5480  39.695  10.723   8.254
  196POPC   C3B 5481  39.613  10.975   7.898
  196POPC   C4B 5482  39.758  11.140   7.481
  197POPC   NC3 5483  40.237  20.368   9.651
  197POPC   PO4 5484  39.752  20.887   9.581
  197POPC   GL1 5485  39.903  20.634   9.261
  197POPC   GL2 5486  39.780  20.315   9.363
  197POPC   C1A 5487  40.019  20.683   8.827
  197POPC   D2A 5488  40.168  20.663   8.401
  197POPC   C3A 5489  39.953  20.889   8.080
  197POPC   C4A 5490  39.972  20.776   7.648
  197POPC   C1B 5491  39.766  20.237   8.906
  197POPC   C2B 5492  39.802  20.272   8.438
  197POPC   C3B 5493  39.909  20.378   7.979
  197POPC   C4B 5494  39.760  20.335   7.521
  198POPC   NC3 5495  40.569  33.829   9.639
  198POPC   PO4 5496  41.152  33.625   9.412
  198POPC   GL1 5497  40.860  33.969   9.196
  198POPC   GL2 5498  40.449  33.963   9.164
  198POPC   C1A 5499  41.019  34.011   8.771
  198POPC   D2A 5500  41.080  33.732   8.469
  198POPC   C3A 5501  41.004  33.925   8.141
  198POPC   C4A 5502  40.939  33.763   7.776
  198POPC   C1B 5503  40.484  34.198   8.772
  198POPC   C2B 5504  40.666  34.234   8.349
  198POPC   C3B 5505  40.515  33.974   8.010
  198POPC   C4B 5506  40.458  33.837   7.596
  199POPC   NC3 5507  18.828  41.796   9.568
  199POPC   PO4 5508  18.215  41.897   9.508
  199POPC   GL1 5509  18.299  41.557   9.175
  199POPC   GL2 5510  18.631  41.425   9.213
  199POPC   C1A 5511  18.251  41.478   8.707
  199POPC   D2A 5512  17.998  41.625   8.350
  199POPC   C3A 5513  18.119  41.584   7.923
  199POPC   C4A 5514  18.269  41.428   7.516
  199POPC   C1B 5515  18.699  41.672   8.820
  199POPC   C2B 5516  18.492  41.851   8.419
  199POPC   C3B 5517  18.571  41.838   7.939
  199POPC   C4B 5518  18.638  42.074   7.513
  200POPC   NC3 5519  27.584  24.067   9.578
  200POPC   PO4 5520  27.499  24.747   9.484
  200POPC   GL1 5521  27.547  24.669   9.071
  200POPC   GL2 5522  27.455  24.335   9.031
  200POPC   C1A 5523  27.487  24.696   8.630
  200POPC   D2A 5524  27.632  24.853   8.254
  200POPC   C3A 5525  27.430  24.650   7.938
  200POPC   C4A 5526  27.508  24.596   7.471
  200POPC   C1B 5527  27.478  24.139   8.648
  200POPC   C2B 5528  27.605  24.154   8.226
  200POPC   C3B 5529  27.596  24.206   7.795
  200POPC   C4B 5530  27.592  24.137   7.310
  201POPC   NC3 5531  15.433  31.166   9.459
  201POPC   PO4 5532  15.243  31.827   9.636
  201POPC   GL1 5533  15.220  31.586   9.230
  201POPC   GL2 5534  15.432  31.813   9.143
  201POPC   C1A 5535  15.008  31.436   8.819
  201POPC   D2A 5536  14.881  31.555   8.363
  201POPC   C3A 5537  14.797  31.203   8.018
  201POPC   C4A 5538  14.956  31.212   7.597
  201POPC   C1B 5539  15.227  31.888   8.767
  201POPC   C2B 5540  15.389  32.010   8.388
  201POPC   C3B 5541  15.386  31.860   7.996
  201POPC   C4B 5542  15.070  31.618   7.859
  202POPC   NC3 5543   2.417   9.383   9.474
  202POPC   PO4 5544   2.778   9.960   9.485
  202POPC   GL1 5545   2.774   9.666   9.170
  202POPC   GL2 5546   2.670   9.985   8.981
  202POPC   C1A 5547   2.829   9.528   8.760
  202POPC   D2A 5548   2.739   9.702   8.341
  202POPC   C3A 5549   2.969   9.543   7.976
  202POPC   C4A 5550   2.790   9.553   7.543
  202POPC   C1B 5551   3.042   9.988   8.741
  202POPC   C2B 5552   3.235   9.898   8.324
  202POPC   C3B 5553   3.126  10.032   7.933
  202POPC   C4B 5554   2.707   9.980   7.832
  203POPC   NC3 5555  12.966  38.470   9.519
  203POPC   PO4 5556  12.392  38.853   9.482
  203POPC   GL1 5557  12.689  38.727   9.147
  203POPC   GL2 5558  12.813  38.400   9.027
  203POPC   C1A 5559  12.768  38.789   8.717
  203POPC   D2A 5560  12.910  38.590   8.346
  203POPC   C3A 5561  12.968  38.876   8.022
  203POPC   C4A 5562  12.932  38.846   7.597
  203POPC   C1B 5563  12.689  38.201   8.614
  203POPC   C2B 5564  12.446  38.274   8.266
  203POPC   C3B 5565  12.632  38.469   7.924
  203POPC   C4B 5566  12.657  38.388   7.488
  204POPC   NC3 5567  23.561  15.642   9.840
  204POPC   PO4 5568  23.999  16.041   9.498
  204POPC   GL1 5569  23.855  15.929   9.103
  204POPC   GL2 5570  23.529  15.847   9.184
  204POPC   C1A 5571  23.640  16.121   8.742
  204POPC   D2A 5572  23.693  16.304   8.323
  204POPC   C3A 5573  23.649  16.036   7.932
  204POPC   C4A 5574  23.813  16.181   7.513
  204POPC   C1B 5575  23.449  15.658   8.797
  204POPC   C2B 5576  23.616  15.739   8.373
  204POPC   C3B 5577  23.619  15.537   7.976
  204POPC   C4B 5578  23.335  15.630   7.663
  205POPC   NC3 5579  41.948  18.624   9.377
  205POPC   PO4 5580  42.417  18.208   9.706
  205POPC   GL1 5581  42.478  18.204   9.218
  205POPC   GL2 5582  42.296  18.506   9.023
  205POPC   C1A 5583  42.612  18.246   8.768
  205POPC   D2A 5584  42.397  18.465   8.435
  205POPC   C3A 5585  42.264  18.190   8.117
  205POPC   C4A 5586  42.506  18.201   7.728
  205POPC   C1B 5587  42.033  18.664   8.729
  205POPC   C2B 5588  41.878  18.481   8.361
  205POPC   C3B 5589  41.943  18.550   7.941
  205POPC   C4B 5590  41.980  18.640   7.473
  206POPC   NC3 5591  23.039  17.103   9.550
  206POPC   PO4 5592  23.097  16.465   9.582
  206POPC   GL1 5593  23.099  16.634   9.189
  206POPC   GL2 5594  22.778  16.777   9.228
  206POPC   C1A 5595  23.057  16.917   8.830
  206POPC   D2A 5596  22.811  16.844   8.424
  206POPC   C3A 5597  23.000  16.620   8.090
  206POPC   C4A 5598  23.164  16.737   7.701
  206POPC   C1B 5599  22.683  16.555   8.831
  206POPC   C2B 5600  22.409  16.526   8.447
  206POPC   C3B 5601  22.476  16.660   8.034
  206POPC   C4B 5602  22.660  16.586   7.660
  207POPC   NC3 5603  24.910  17.366   9.472
  207POPC   PO4 5604  24.337  17.693   9.436
  207POPC   GL1 5605  24.395  17.759   9.030
  207POPC   GL2 5606  24.680  17.505   9.050
  207POPC   C1A 5607  24.456  17.526   8.611
  207POPC   D2A 5608  24.235  17.162   8.475
  207POPC   C3A 5609  24.271  17.261   8.068
  207POPC   C4A 5610  24.690  17.415   7.992
  207POPC   C1B 5611  24.820  17.844   8.811
  207POPC   C2B 5612  24.792  18.068   8.457
  207POPC   C3B 5613  24.900  17.991   8.044
  207POPC   C4B 5614  24.825  17.765   7.664
  208POPC   NC3 5615  41.199  12.329   9.394
  208POPC   PO4 5616  41.856  12.355   9.465
  208POPC   GL1 5617  41.634  12.183   9.131
  208POPC   GL2 5618  41.734  11.880   9.147
  208POPC   C1A 5619  41.388  11.991   8.783
  208POPC   D2A 5620  41.434  12.222   8.415
  208POPC   C3A 5621  41.387  12.113   7.999
  208POPC   C4A 5622  41.337  12.407   7.642
  208POPC   C1B 5623  41.895  11.850   8.707
  208POPC   C2B 5624  41.726  11.795   8.275
  208POPC   C3B 5625  41.660  11.729   7.825
  208POPC   C4B 5626  41.395  11.761   7.454
  209POPC   NC3 5627   2.361  25.503   9.586
  209POPC   PO4 5628   2.781  24.928   9.531
  209POPC   GL1 5629   2.714  24.985   9.105
  209POPC   GL2 5630   2.860  25.314   9.076
  209POPC   C1A 5631   2.823  24.976   8.669
  209POPC   D2A 5632   2.713  25.270   8.349
  209POPC   C3A 5633   2.685  25.055   7.971
  209POPC   C4A 5634   2.869  25.063   7.563
  209POPC   C1B 5635   3.115  25.389   8.709
  209POPC   C2B 5636   3.194  25.513   8.299
  209POPC   C3B 5637   3.005  25.464   7.924
  209POPC   C4B 5638   2.594  25.597   7.848
  210POPC   NC3 5639  29.199  20.270   9.517
  210POPC   PO4 5640  29.225  20.965   9.450
  210POPC   GL1 5641  29.166  20.644   9.127
  210POPC   GL2 5642  28.878  20.482   9.175
  210POPC   C1A 5643  29.335  20.520   8.732
  210POPC   D2A 5644  29.511  20.768   8.410
  210POPC   C3A 5645  29.326  20.599   8.075
  210POPC   C4A 5646  29.146  20.717   7.740
  210POPC   C1B 5647  28.842  20.303   8.760
  210POPC   C2B 5648  28.916  20.491   8.377
  210POPC   C3B 5649  28.744  20.501   7.974
  210POPC   C4B 5650  28.618  20.172   7.724
  211POPC   NC3 5651   5.644  35.594   9.553
  211POPC   PO4 5652   6.303  35.532   9.669
  211POPC   GL1 5653   6.005  35.532   9.193
  211POPC   GL2 5654   5.592  35.574   9.064
  211POPC   C1A 5655   5.949  35.249   8.806
  211POPC   D2A 5656   5.945  35.032   8.390
  211POPC   C3A 5657   5.910  35.199   7.977
  211POPC   C4A 5658   6.167  35.347   7.628
  211POPC   C1B 5659   5.826  35.740   8.746
  211POPC   C2B 5660   5.979  35.580   8.383
  211POPC   C3B 5661   5.947  35.696   8.015
  211POPC   C4B 5662   5.669  35.584   7.703
  212POPC   NC3 5663  27.723  17.851   9.346
  212POPC   PO4 5664  27.354  17.309   9.526
  212POPC   GL1 5665  27.464  17.439   9.125
  212POPC   GL2 5666  27.228  17.740   9.076
  212POPC   C1A 5667  27.670  17.267   8.722
  212POPC   D2A 5668  27.902  17.455   8.377
  212POPC   C3A 5669  27.733  17.287   8.011
  212POPC   C4A 5670  27.598  17.229   7.597
  212POPC   C1B 5671  27.449  17.726   8.655
  212POPC   C2B 5672  27.485  17.766   8.184
  212POPC   C3B 5673  27.767  17.751   7.795
  212POPC   C4B 5674  27.719  17.644   7.341
  213POPC   NC3 5675  10.842  26.551   9.468
  213POPC   PO4 5676  10.201  26.732   9.461
  213POPC   GL1 5677  10.498  26.814   9.100
  213POPC   GL2 5678  10.841  26.703   8.986
  213POPC   C1A 5679  10.404  26.832   8.685
  213POPC   D2A 5680  10.537  26.976   8.293
  213POPC   C3A 5681  10.631  26.836   7.880
  213POPC   C4A 5682  10.541  26.664   7.505
  213POPC   C1B 5683  10.736  26.426   8.656
  213POPC   C2B 5684  10.713  26.450   8.206
  213POPC   C3B 5685  10.877  26.384   7.775
  213POPC   C4B 5686  10.787  26.249   7.285
  214POPC   NC3 5687  20.142  15.130   9.534
  214POPC   PO4 5688  19.947  15.711   9.301
  214POPC   GL1 5689  19.724  15.428   9.024
  214POPC   GL2 5690  19.746  15.070   9.110
  214POPC   C1A 5691  19.872  15.413   8.593
  214POPC   D2A 5692  19.965  15.663   8.222
  214POPC   C3A 5693  20.159  15.384   7.937
  214POPC   C4A 5694  20.091  14.939   7.887
  214POPC   C1B 5695  19.474  15.109   8.726
  214POPC   C2B 5696  19.592  15.110   8.273
  214POPC   C3B 5697  19.668  15.251   7.871
  214POPC   C4B 5698  19.558  15.314   7.456
  215POPC   NC3 5699  29.621   0.453   9.780
  215POPC   PO4 5700  28.935   0.277   9.641
  215POPC   GL1 5701  29.145   0.302   9.222
  215POPC   GL2 5702  29.048   0.616   9.185
  215POPC   C1A 5703  29.366   0.260   8.770
  215POPC   D2A 5704  29.420   0.199   8.306
  215POPC   C3A 5705  29.060   0.216   8.006
  215POPC   C4A 5706  28.775   0.570   7.841
  215POPC   C1B 5707  29.142   0.730   8.772
  215POPC   C2B 5708  29.049   0.612   8.356
  215POPC   C3B 5709  29.234   0.678   7.959
  215POPC   C4B 5710  29.154   0.671   7.498
  216POPC   NC3 5711  17.963  16.161   9.340
  216POPC   PO4 5712  18.353  15.630   9.506
  216POPC   GL1 5713  18.166  15.737   9.138
  216POPC   GL2 5714  18.342  16.010   9.055
  216POPC   C1A 5715  18.002  15.743   8.732
  216POPC   D2A 5716  17.929  15.944   8.356
  216POPC   C3A 5717  18.176  16.132   8.080
  216POPC   C4A 5718  18.110  16.088   7.671
  216POPC   C1B 5719  18.275  16.185   8.672
  216POPC   C2B 5720  18.568  16.274   8.388
  216POPC   C3B 5721  18.588  16.426   8.006
  216POPC   C4B 5722  18.590  16.216   7.632
  217POPC   NC3 5723  38.892   5.233   9.245
  217POPC   PO4 5724  38.384   4.881   9.646
  217POPC   GL1 5725  38.380   5.149   9.247
  217POPC   GL2 5726  38.541   4.941   9.011
  217POPC   C1A 5727  38.394   5.353   8.779
  217POPC   D2A 5728  38.237   5.277   8.355
  217POPC   C3A 5729  38.270   4.901   8.123
  217POPC   C4A 5730  38.464   4.918   7.745
  217POPC   C1B 5731  38.829   4.898   8.647
  217POPC   C2B 5732  38.784   5.012   8.190
  217POPC   C3B 5733  38.924   5.129   7.776
  217POPC   C4B 5734  38.860   4.905   7.366
  218POPC   NC3 5735  44.112  14.409   9.761
  218POPC   PO4 5736  44.030  14.144   9.085
  218POPC   GL1 5737  44.075  14.570   8.849
  218POPC   GL2 5738  43.755  14.763   8.839
  218POPC   C1A 5739  43.946  14.514   8.430
  218POPC   D2A 5740  43.973  14.103   8.240
  218POPC   C3A 5741  44.126  14.245   7.889
  218POPC   C4A 5742  44.123  14.691   7.939
  218POPC   C1B 5743  43.528  14.337   8.709
  218POPC   C2B 5744  43.485  14.187   8.292
  218POPC   C3B 5745  43.633  14.466   8.009
  218POPC   C4B 5746  43.735  14.441   7.624
  219POPC   NC3 5747  19.447  11.131   9.481
  219POPC   PO4 5748  20.119  11.415   9.486
  219POPC   GL1 5749  19.984  11.598   9.120
  219POPC   GL2 5750  19.744  11.344   9.111
  219POPC   C1A 5751  20.094  11.526   8.695
  219POPC   D2A 5752  19.976  11.304   8.339
  219POPC   C3A 5753  19.796  11.542   8.020
  219POPC   C4A 5754  20.096  11.492   7.716
  219POPC   C1B 5755  19.633  11.273   8.711
  219POPC   C2B 5756  19.521  11.029   8.350
  219POPC   C3B 5757  19.739  11.033   7.961
  219POPC   C4B 5758  19.464  11.056   7.660
  220POPC   NC3 5759  40.922  35.803   9.858
  220POPC   PO4 5760  40.451  36.119   9.496
  220POPC   GL1 5761  40.730  36.151   9.084
  220POPC   GL2 5762  40.959  36.415   9.048
  220POPC   C1A 5763  40.952  35.991   8.679
  220POPC   D2A 5764  41.058  35.791   8.277
  220POPC   C3A 5765  40.883  35.945   7.889
  220POPC   C4A 5766  40.501  36.031   7.603
  220POPC   C1B 5767  40.731  36.423   8.661
  220POPC   C2B 5768  40.851  36.323   8.249
  220POPC   C3B 5769  40.767  36.440   7.829
  220POPC   C4B 5770  40.926  36.262   7.463
  221POPC   NC3 5771   2.737   8.621   9.805
  221POPC   PO4 5772   2.866   9.152   9.357
  221POPC   GL1 5773   2.985   9.066   8.988
  221POPC   GL2 5774   3.155   8.732   9.052
  221POPC   C1A 5775   2.692   9.068   8.632
  221POPC   D2A 5776   2.360   9.292   8.409
  221POPC   C3A 5777   2.561   9.237   8.051
  221POPC   C4A 5778   2.607   8.833   7.910
  221POPC   C1B 5779   3.064   8.726   8.622
  221POPC   C2B 5780   2.991   8.932   8.233
  221POPC   C3B 5781   3.113   8.695   7.883
  221POPC   C4B 5782   3.062   8.642   7.448
  222POPC   NC3 5783  39.061  15.364   9.743
  222POPC   PO4 5784  39.590  15.087   9.427
  222POPC   GL1 5785  39.337  15.354   9.120
  222POPC   GL2 5786  39.118  15.107   8.904
  222POPC   C1A 5787  39.199  15.590   8.759
  222POPC   D2A 5788  38.988  15.513   8.381
  222POPC   C3A 5789  39.227  15.389   8.065
  222POPC   C4A 5790  39.365  15.366   7.653
  222POPC   C1B 5791  39.318  14.738   8.765
  222POPC   C2B 5792  39.360  14.909   8.387
  222POPC   C3B 5793  39.009  14.950   8.153
  222POPC   C4B 5794  39.018  15.005   7.745
  223POPC   NC3 5795   0.940  40.632   9.486
  223POPC   PO4 5796   1.582  40.617   9.565
  223POPC   GL1 5797   1.336  40.806   9.183
  223POPC   GL2 5798   0.963  40.974   9.113
  223POPC   C1A 5799   1.321  40.720   8.751
  223POPC   D2A 5800   1.566  40.577   8.401
  223POPC   C3A 5801   1.359  40.525   8.030
  223POPC   C4A 5802   1.366  40.759   7.677
  223POPC   C1B 5803   0.823  40.684   8.799
  223POPC   C2B 5804   0.993  40.639   8.367
  223POPC   C3B 5805   0.892  40.741   7.960
  223POPC   C4B 5806   0.739  41.107   7.745
  224POPC   NC3 5807   9.142  11.404   9.645
  224POPC   PO4 5808   8.710  10.889   9.445
  224POPC   GL1 5809   8.897  11.192   9.186
  224POPC   GL2 5810   9.241  11.196   9.177
  224POPC   C1A 5811   8.876  11.420   8.804
  224POPC   D2A 5812   8.882  11.266   8.383
  224POPC   C3A 5813   8.791  11.511   8.002
  224POPC   C4A 5814   8.923  11.238   7.693
  224POPC   C1B 5815   9.370  11.449   8.863
  224POPC   C2B 5816   9.371  11.591   8.448
  224POPC   C3B 5817   9.314  11.480   8.027
  224POPC   C4B 5818   9.220  11.687   7.647
  225POPC   NC3 5819  35.343   5.792   9.701
  225POPC   PO4 5820  35.796   5.934   9.227
  225POPC   GL1 5821  35.538   6.037   8.942
  225POPC   GL2 5822  35.238   6.057   9.087
  225POPC   C1A 5823  35.443   5.811   8.610
  225POPC   D2A 5824  35.381   5.979   8.256
  225POPC   C3A 5825  35.268   5.732   7.936
  225POPC   C4A 5826  35.099   5.602   7.575
  225POPC   C1B 5827  34.988   6.020   8.683
  225POPC   C2B 5828  34.985   6.280   8.332
  225POPC   C3B 5829  35.114   6.247   7.920
  225POPC   C4B 5830  35.188   6.132   7.511
  226POPC   NC3 5831  23.183  42.280   9.438
  226POPC   PO4 5832  22.607  41.865   9.257
  226POPC   GL1 5833  22.768  42.278   9.080
  226POPC   GL2 5834  23.029  42.568   9.038
  226POPC   C1A 5835  22.725  42.386   8.640
  226POPC   D2A 5836  22.895  42.127   8.312
  226POPC   C3A 5837  22.745  42.176   7.891
  226POPC   C4A 5838  22.410  42.220   7.640
  226POPC   C1B 5839  23.214  42.307   8.768
  226POPC   C2B 5840  23.302  42.458   8.372
  226POPC   C3B 5841  23.247  42.287   7.975
  226POPC   C4B 5842  23.051  42.429   7.555
  227POPC   NC3 5843  33.363  21.005   9.388
  227POPC   PO4 5844  33.842  20.386   9.379
  227POPC   GL1 5845  33.578  20.569   9.095
  227POPC   GL2 5846  33.741  20.894   9.058
  227POPC   C1A 5847  33.654  20.461   8.669
  227POPC   D2A 5848  34.023  20.602   8.403
  227POPC   C3A 5849  33.868  20.603   8.002
  227POPC   C4A 5850  33.517  20.279   7.979
  227POPC   C1B 5851  33.673  20.964   8.619
  227POPC   C2B 5852  33.489  21.217   8.285
  227POPC   C3B 5853  33.476  21.085   7.834
  227POPC   C4B 5854  33.532  20.694   7.621
  228POPC   NC3 5855  26.497   9.327   9.400
  228POPC   PO4 5856  26.927   9.772   9.653
  228POPC   GL1 5857  26.876   9.891   9.192
  228POPC   GL2 5858  26.872   9.584   9.086
  228POPC   C1A 5859  26.618   9.888   8.788
  228POPC   D2A 5860  26.624  10.177   8.440
  228POPC   C3A 5861  26.527  10.067   8.028
  228POPC   C4A 5862  26.747   9.855   7.714
  228POPC   C1B 5863  27.107   9.811   8.696
  228POPC   C2B 5864  26.916   9.747   8.269
  228POPC   C3B 5865  26.861   9.419   7.914
  228POPC   C4B 5866  26.588   9.405   7.516
  229POPC   NC3 5867  33.219  32.530   9.469
  229POPC   PO4 5868  32.789  32.965   9.333
  229POPC   GL1 5869  33.165  32.965   9.106
  229POPC   GL2 5870  33.295  32.641   8.988
  229POPC   C1A 5871  33.100  33.169   8.713
  229POPC   D2A 5872  32.706  33.305   8.480
  229POPC   C3A 5873  32.916  33.309   8.120
  229POPC   C4A 5874  33.182  33.119   7.816
  229POPC   C1B 5875  32.982  32.657   8.731
  229POPC   C2B 5876  32.943  32.837   8.347
  229POPC   C3B 5877  32.812  32.639   8.030
  229POPC   C4B 5878  32.859  32.746   7.684
  230POPC   NC3 5879  35.407  16.715   9.556
  230POPC   PO4 5880  34.826  16.913   9.286
  230POPC   GL1 5881  35.212  16.950   9.129
  230POPC   GL2 5882  35.352  16.611   9.063
  230POPC   C1A 5883  35.152  16.975   8.722
  230POPC   D2A 5884  34.949  16.694   8.482
  230POPC   C3A 5885  35.037  16.880   8.137
  230POPC   C4A 5886  35.301  16.862   7.825
  230POPC   C1B 5887  35.458  16.595   8.630
  230POPC   C2B 5888  35.551  16.669   8.216
  230POPC   C3B 5889  35.578  16.447   7.803
  230POPC   C4B 5890  35.728  16.475   7.345
  231POPC   NC3 5891  42.004  20.233   9.383
  231POPC   PO4 5892  42.415  20.701   9.526
  231POPC   GL1 5893  42.394  20.550   9.138
  231POPC   GL2 5894  42.509  20.227   9.213
  231POPC   C1A 5895  42.391  20.753   8.752
  231POPC   D2A 5896  42.183  20.738   8.406
  231POPC   C3A 5897  42.417  20.716   8.047
  231POPC   C4A 5898  42.708  20.918   7.759
  231POPC   C1B 5899  42.520  20.220   8.741
  231POPC   C2B 5900  42.660  20.131   8.303
  231POPC   C3B 5901  42.629  20.288   7.882
  231POPC   C4B 5902  42.228  20.364   7.710
  232POPC   NC3 5903  16.248  22.302   9.511
  232POPC   PO4 5904  15.805  21.908   9.611
  232POPC   GL1 5905  15.716  21.914   9.175
  232POPC   GL2 5906  15.836  22.263   9.186
  232POPC   C1A 5907  15.544  21.887   8.766
  232POPC   D2A 5908  15.650  22.014   8.347
  232POPC   C3A 5909  16.007  22.199   8.114
  232POPC   C4A 5910  15.907  22.027   7.715
  232POPC   C1B 5911  15.890  22.262   8.756
  232POPC   C2B 5912  15.801  22.532   8.434
  232POPC   C3B 5913  15.811  22.707   8.047
  232POPC   C4B 5914  15.980  22.528   7.688
  233POPC   NC3 5915  10.328  13.691   9.487
  233POPC   PO4 5916  11.022  13.822   9.499
  233POPC   GL1 5917  10.688  13.863   9.174
  233POPC   GL2 5918  10.555  13.492   9.069
  233POPC   C1A 5919  10.604  13.877   8.752
  233POPC   D2A 5920  10.726  13.534   8.486
  233POPC   C3A 5921  10.657  13.730   8.106
  233POPC   C4A 5922  10.779  13.732   7.689
  233POPC   C1B 5923  10.250  13.453   8.707
  233POPC   C2B 5924  10.282  13.344   8.256
  233POPC   C3B 5925  10.601  13.247   7.939
  233POPC   C4B 5926  10.539  13.298   7.518
  234POPC   NC3 5927  43.271  33.338   9.495
  234POPC   PO4 5928  42.684  33.122   9.694
  234POPC   GL1 5929  42.888  33.019   9.238
  234POPC   GL2 5930  43.086  33.286   9.035
  234POPC   C1A 5931  42.936  32.867   8.806
  234POPC   D2A 5932  43.206  32.683   8.499
  234POPC   C3A 5933  43.011  32.638   8.092
  234POPC   C4A 5934  42.911  32.970   7.797
  234POPC   C1B 5935  43.170  33.333   8.625
  234POPC   C2B 5936  43.110  33.154   8.253
  234POPC   C3B 5937  43.231  33.347   7.895
  234POPC   C4B 5938  43.352  33.641   7.612
  235POPC   NC3 5939   1.148  11.032   9.492
  235POPC   PO4 5940   1.436  10.398   9.592
  235POPC   GL1 5941   1.381  10.553   9.190
  235POPC   GL2 5942   1.033  10.614   9.125
  235POPC   C1A 5943   1.445  10.574   8.762
  235POPC   D2A 5944   1.199  10.483   8.397
  235POPC   C3A 5945   1.405  10.298   8.052
  235POPC   C4A 5946   1.481  10.426   7.629
  235POPC   C1B 5947   1.067  10.234   8.832
  235POPC   C2B 5948   0.829  10.151   8.418
  235POPC   C3B 5949   0.897  10.276   7.957
  235POPC   C4B 5950   0.949  10.329   7.460
  236POPC   NC3 5951   9.446  16.728   9.445
  236POPC   PO4 5952  10.173  16.605   9.568
  236POPC   GL1 5953   9.865  16.460   9.230
  236POPC   GL2 5954   9.732  16.704   9.033
  236POPC   C1A 5955   9.708  16.308   8.755
  236POPC   D2A 5956   9.665  16.404   8.327
  236POPC   C3A 5957   9.900  16.655   8.075
  236POPC   C4A 5958   9.610  16.744   7.765
  236POPC   C1B 5959   9.861  16.778   8.632
  236POPC   C2B 5960   9.591  16.951   8.369
  236POPC   C3B 5961   9.660  17.150   8.043
  236POPC   C4B 5962   9.906  17.113   7.666
  237POPC   NC3 5963  29.663  33.223   9.414
  237POPC   PO4 5964  30.119  32.753   9.403
  237POPC   GL1 5965  29.931  32.666   9.027
  237POPC   GL2 5966  29.726  32.898   9.030
  237POPC   C1A 5967  29.935  32.717   8.580
  237POPC   D2A 5968  30.223  32.938   8.283
  237POPC   C3A 5969  30.096  32.820   7.868
  237POPC   C4A 5970  29.711  32.697   7.717
  237POPC   C1B 5971  30.034  33.161   8.781
  237POPC   C2B 5972  29.853  33.338   8.398
  237POPC   C3B 5973  29.830  33.469   7.969
  237POPC   C4B 5974  29.939  33.220   7.600
  238POPC   NC3 5975   5.091   8.457  10.206
  238POPC   PO4 5976   4.965   8.313   9.567
  238POPC   GL1 5977   5.106   8.312   9.167
  238POPC   GL2 5978   5.201   7.965   9.259
  238POPC   C1A 5979   4.958   8.412   8.749
  238POPC   D2A 5980   5.151   8.490   8.378
  238POPC   C3A 5981   5.084   8.324   7.990
  238POPC   C4A 5982   5.443   8.279   7.751
  238POPC   C1B 5983   5.030   7.917   8.829
  238POPC   C2B 5984   5.132   7.954   8.376
  238POPC   C3B 5985   5.263   7.830   7.949
  238POPC   C4B 5986   5.465   7.818   7.532
  239POPC   NC3 5987  25.816  33.963   9.401
  239POPC   PO4 5988  25.803  33.352   9.536
  239POPC   GL1 5989  25.968  33.537   9.131
  239POPC   GL2 5990  26.336  33.569   9.127
  239POPC   C1A 5991  25.951  33.892   8.790
  239POPC   D2A 5992  26.064  34.061   8.388
  239POPC   C3A 5993  26.099  33.725   8.067
  239POPC   C4A 5994  25.832  33.893   7.789
  239POPC   C1B 5995  26.441  33.792   8.710
  239POPC   C2B 5996  26.532  33.923   8.276
  239POPC   C3B 5997  26.572  33.696   7.863
  239POPC   C4B 5998  26.325  33.411   7.696
  240POPC   NC3 5999  28.658  18.170   9.494
  240POPC   PO4 6000  27.975  18.268   9.528
  240POPC   GL1 6001  28.237  18.210   9.186
  240POPC   GL2 6002  28.335  18.560   9.166
  240POPC   C1A 6003  28.462  18.039   8.809
  240POPC   D2A 6004  28.298  17.923   8.394
  240POPC   C3A 6005  28.511  18.050   8.019
  240POPC   C4A 6006  28.305  18.080   7.669
  240POPC   C1B 6007  28.154  18.452   8.743
  240POPC   C2B 6008  28.316  18.437   8.371
  240POPC   C3B 6009  28.202  18.484   8.002
  240POPC   C4B 6010  28.528  18.532   7.768
  241POPC   NC3 6011  35.684  30.513   9.410
  241POPC   PO4 6012  35.248  31.038   9.516
  241POPC   GL1 6013  35.376  30.829   9.106
  241POPC   GL2 6014  35.256  31.000   8.800
  241POPC   C1A 6015  35.520  30.523   8.762
  241POPC   D2A 6016  35.552  30.352   8.342
  241POPC   C3A 6017  35.358  30.621   8.077
  241POPC   C4A 6018  35.603  30.589   7.723
  241POPC   C1B 6019  35.716  30.998   8.734
  241POPC   C2B 6020  35.741  30.913   8.307
  241POPC   C3B 6021  35.595  31.078   7.935
  241POPC   C4B 6022  35.358  31.017   7.596
  242POPC   NC3 6023  35.058  12.526   9.373
  242POPC   PO4 6024  35.346  11.917   9.534
  242POPC   GL1 6025  35.498  12.024   9.145
  242POPC   GL2 6026  35.180  12.129   9.079
  242POPC   C1A 6027  35.508  12.120   8.691
  242POPC   D2A 6028  35.334  11.939   8.338
  242POPC   C3A 6029  35.375  12.062   7.922
  242POPC   C4A 6030  35.586  11.775   7.677
  242POPC   C1B 6031  34.991  11.922   8.751
  242POPC   C2B 6032  34.834  12.051   8.360
  242POPC   C3B 6033  34.861  11.936   7.933
  242POPC   C4B 6034  35.058  12.027   7.511
  243POPC   NC3 6035  18.151   2.258   9.741
  243POPC   PO4 6036  18.417   1.818   9.329
  243POPC   GL1 6037  18.337   2.158   9.056
  243POPC   GL2 6038  18.063   2.321   9.241
  243POPC   C1A 6039  18.383   2.141   8.591
  243POPC   D2A 6040  18.119   1.866   8.329
  243POPC   C3A 6041  18.065   1.862   7.888
  243POPC   C4A 6042  18.299   1.655   7.622
  243POPC   C1B 6043  18.019   2.467   8.822
  243POPC   C2B 6044  17.910   2.301   8.445
  243POPC   C3B 6045  18.002   2.376   8.025
  243POPC   C4B 6046  17.932   2.302   7.595
  244POPC   NC3 6047  27.830  19.372   9.528
  244POPC   PO4 6048  27.266  19.708   9.394
  244POPC   GL1 6049  27.430  19.525   9.052
  244POPC   GL2 6050  27.757  19.648   9.101
  244POPC   C1A 6051  27.482  19.558   8.611
  244POPC   D2A 6052  27.608  19.868   8.330
  244POPC   C3A 6053  27.433  19.800   7.935
  244POPC   C4A 6054  27.402  19.826   7.521
  244POPC   C1B 6055  27.924  19.852   8.761
  244POPC   C2B 6056  28.113  19.712   8.421
  244POPC   C3B 6057  27.981  19.697   8.022
  244POPC   C4B 6058  27.870  19.711   7.622
  245POPC   NC3 6059  24.203  35.673   9.562
  245POPC   PO4 6060  24.467  36.308   9.500
  245POPC   GL1 6061  24.407  36.074   9.172
  245POPC   GL2 6062  24.732  35.945   9.183
  245POPC   C1A 6063  24.430  36.269   8.791
  245POPC   D2A 6064  24.375  36.419   8.394
  245POPC   C3A 6065  24.271  36.091   8.127
  245POPC   C4A 6066  24.348  36.205   7.735
  245POPC   C1B 6067  24.898  36.096   8.830
  245POPC   C2B 6068  24.872  36.301   8.456
  245POPC   C3B 6069  24.756  36.273   8.034
  245POPC   C4B 6070  24.767  35.919   7.743
  246POPC   NC3 6071   7.576  32.887   9.531
  246POPC   PO4 6072   6.986  33.053   9.527
  246POPC   GL1 6073   7.189  32.904   9.143
  246POPC   GL2 6074   7.505  33.069   9.050
  246POPC   C1A 6075   7.169  32.796   8.707
  246POPC   D2A 6076   7.451  32.957   8.404
  246POPC   C3A 6077   7.512  32.799   7.992
  246POPC   C4A 6078   7.245  32.908   7.680
  246POPC   C1B 6079   7.693  33.298   8.698
  246POPC   C2B 6080   7.691  33.392   8.268
  246POPC   C3B 6081   7.828  33.202   7.876
  246POPC   C4B 6082   7.727  32.967   7.509
  247POPC   NC3 6083  27.252  20.174   9.378
  247POPC   PO4 6084  27.812  20.530   9.560
  247POPC   GL1 6085  27.621  20.490   9.175
  247POPC   GL2 6086  27.769  20.164   9.153
  247POPC   C1A 6087  27.592  20.714   8.774
  247POPC   D2A 6088  27.415  21.028   8.489
  247POPC   C3A 6089  27.251  20.919   8.115
  247POPC   C4A 6090  27.382  20.811   7.716
  247POPC   C1B 6091  27.524  20.183   8.759
  247POPC   C2B 6092  27.593  20.392   8.370
  247POPC   C3B 6093  27.629  20.268   7.970
  247POPC   C4B 6094  27.325  20.291   7.680
  248POPC   NC3 6095  12.381   9.199   9.348
  248POPC   PO4 6096  11.752   9.386   9.481
  248POPC   GL1 6097  11.930   9.113   9.150
  248POPC   GL2 6098  12.084   8.782   9.241
  248POPC   C1A 6099  12.170   9.018   8.750
  248POPC   D2A 6100  12.100   9.120   8.298
  248POPC   C3A 6101  12.283   8.923   7.935
  248POPC   C4A 6102  12.109   9.013   7.529
  248POPC   C1B 6103  11.779   8.677   8.908
  248POPC   C2B 6104  11.812   8.520   8.506
  248POPC   C3B 6105  11.926   8.600   8.095
  248POPC   C4B 6106  11.846   8.578   7.652
  249POPC   NC3 6107  10.071   3.956   9.460
  249POPC   PO4 6108   9.507   4.336   9.516
  249POPC   GL1 6109   9.801   4.485   9.168
  249POPC   GL2 6110  10.155   4.562   9.303
  249POPC   C1A 6111   9.696   4.527   8.721
  249POPC   D2A 6112   9.380   4.600   8.374
  249POPC   C3A 6113   9.561   4.582   7.970
  249POPC   C4A 6114   9.661   4.458   7.565
  249POPC   C1B 6115  10.235   4.634   8.856
  249POPC   C2B 6116  10.117   4.594   8.401
  249POPC   C3B 6117  10.072   4.470   7.968
  249POPC   C4B 6118  10.023   4.127   7.689
  250POPC   NC3 6119  34.426  19.010   9.439
  250POPC   PO4 6120  35.016  19.234   9.488
  250POPC   GL1 6121  34.814  19.025   9.096
  250POPC   GL2 6122  34.485  19.177   8.973
  250POPC   C1A 6123  34.804  18.999   8.627
  250POPC   D2A 6124  34.537  19.241   8.299
  250POPC   C3A 6125  34.509  19.253   7.832
  250POPC   C4A 6126  34.587  18.928   7.504
  250POPC   C1B 6127  34.213  18.830   8.796
  250POPC   C2B 6128  33.985  18.795   8.380
  250POPC   C3B 6129  34.152  18.943   7.990
  250POPC   C4B 6130  34.100  19.066   7.534
  251POPC   NC3 6131   1.469   7.794   9.296
  251POPC   PO4 6132   1.410   8.357   9.600
  251POPC   GL1 6133   1.205   8.265   9.207
  251POPC   GL2 6134   1.018   7.929   9.127
  251POPC   C1A 6135   1.328   8.468   8.829
  251POPC   D2A 6136   1.544   8.482   8.441
  251POPC   C3A 6137   1.183   8.463   8.185
  251POPC   C4A 6138   1.106   8.219   7.826
  251POPC   C1B 6139   0.970   7.786   8.692
  251POPC   C2B 6140   1.092   7.926   8.267
  251POPC   C3B 6141   1.277   7.741   7.879
  251POPC   C4B 6142   0.973   7.745   7.534
  252POPC   NC3 6143  40.458  18.910   9.216
  252POPC   PO4 6144  40.968  19.326   9.504
  252POPC   GL1 6145  40.901  19.122   9.073
  252POPC   GL2 6146  40.926  18.769   9.026
  252POPC   C1A 6147  40.763  19.238   8.631
  252POPC   D2A 6148  41.008  19.368   8.243
  252POPC   C3A 6149  40.764  19.290   7.847
  252POPC   C4A 6150  40.542  19.040   7.515
  252POPC   C1B 6151  40.670  18.711   8.644
  252POPC   C2B 6152  40.623  18.907   8.259
  252POPC   C3B 6153  40.675  18.748   7.890
  252POPC   C4B 6154  40.546  18.524   7.569
  253POPC   NC3 6155   1.655  28.847   9.469
  253POPC   PO4 6156   1.097  29.293   9.526
  253POPC   GL1 6157   1.229  29.072   9.176
  253POPC   GL2 6158   0.889  29.072   9.081
  253POPC   C1A 6159   1.360  29.133   8.737
  253POPC   D2A 6160   1.323  29.379   8.357
  253POPC   C3A 6161   1.345  29.176   7.939
  253POPC   C4A 6162   1.518  29.122   7.523
  253POPC   C1B 6163   0.977  28.796   8.776
  253POPC   C2B 6164   1.124  28.858   8.353
  253POPC   C3B 6165   0.859  28.994   8.035
  253POPC   C4B 6166   0.742  28.871   7.652
  254POPC   NC3 6167  42.883   6.036   9.969
  254POPC   PO4 6168  42.970   5.566   9.533
  254POPC   GL1 6169  43.105   5.832   9.216
  254POPC   GL2 6170  42.857   5.732   8.963
  254POPC   C1A 6171  43.249   6.002   8.816
  254POPC   D2A 6172  42.955   5.906   8.451
  254POPC   C3A 6173  43.079   6.165   8.122
  254POPC   C4A 6174  43.332   6.303   7.775
  254POPC   C1B 6175  43.204   5.506   8.674
  254POPC   C2B 6176  43.263   5.521   8.198
  254POPC   C3B 6177  43.306   5.807   7.816
  254POPC   C4B 6178  43.366   6.013   7.368
  255POPC   NC3 6179  23.963  20.171   9.462
  255POPC   PO4 6180  23.485  20.545   9.308
  255POPC   GL1 6181  23.754  20.726   9.032
  255POPC   GL2 6182  23.943  20.417   9.020
  255POPC   C1A 6183  23.664  20.650   8.609
  255POPC   D2A 6184  23.512  20.333   8.314
  255POPC   C3A 6185  23.528  20.552   7.951
  255POPC   C4A 6186  23.914  20.766   7.820
  255POPC   C1B 6187  24.150  20.384   8.651
  255POPC   C2B 6188  24.027  20.498   8.269
  255POPC   C3B 6189  23.939  20.264   7.952
  255POPC   C4B 6190  24.145  20.362   7.624
  256POPC   NC3 6191  33.709  44.275   9.647
  256POPC   PO4 6192  34.045  44.709   9.406
  256POPC   GL1 6193  33.702  44.561   9.185
  256POPC   GL2 6194  33.830  44.245   9.121
  256POPC   C1A 6195  33.495  44.644   8.818
  256POPC   D2A 6196  33.521  44.944   8.493
  256POPC   C3A 6197  33.515  44.781   8.106
  256POPC   C4A 6198  33.757  44.743   7.769
  256POPC   C1B 6199  34.030  44.515   8.771
  256POPC   C2B 6200  33.983  44.669   8.338
  256POPC   C3B 6201  34.236  44.716   7.950
  256POPC   C4B 6202  34.160  44.651   7.485
  257POPC   NC3 6203  10.474  41.798   9.749
  257POPC   PO4 6204  10.237  41.245   9.822
  257POPC   GL1 6205  10.422  41.533   9.340
  257POPC   GL2 6206  10.580  41.858   9.233
  257POPC   C1A 6207  10.337  41.582   8.855
  257POPC   D2A 6208  10.406  41.338   8.484
  257POPC   C3A 6209  10.422  41.512   8.071
  257POPC   C4A 6210  10.420  41.270   7.696
  257POPC   C1B 6211  10.781  41.810   8.786
  257POPC   C2B 6212  10.851  41.635   8.337
  257POPC   C3B 6213  10.918  41.696   7.875
  257POPC   C4B 6214  10.980  41.724   7.401
  258POPC   NC3 6215  33.975  17.159   9.408
  258POPC   PO4 6216  33.548  16.552   9.466
  258POPC   GL1 6217  33.813  16.697   9.137
  258POPC   GL2 6218  33.622  16.943   9.069
  258POPC   C1A 6219  33.872  16.782   8.666
  258POPC   D2A 6220  34.202  16.741   8.366
  258POPC   C3A 6221  33.950  16.855   8.008
  258POPC   C4A 6222  33.734  16.945   7.622
  258POPC   C1B 6223  33.323  16.979   8.773
  258POPC   C2B 6224  33.449  16.845   8.390
  258POPC   C3B 6225  33.416  16.982   8.010
  258POPC   C4B 6226  33.286  16.734   7.668
  259POPC   NC3 6227  29.471  21.327   9.593
  259POPC   PO4 6228  28.914  21.721   9.527
  259POPC   GL1 6229  29.102  21.400   9.219
  259POPC   GL2 6230  28.903  21.101   9.023
  259POPC   C1A 6231  29.348  21.285   8.849
  259POPC   D2A 6232  29.359  21.414   8.446
  259POPC   C3A 6233  29.421  21.170   8.095
  259POPC   C4A 6234  29.154  21.236   7.744
  259POPC   C1B 6235  29.047  20.944   8.607
  259POPC   C2B 6236  28.945  20.951   8.149
  259POPC   C3B 6237  28.702  20.970   7.753
  259POPC   C4B 6238  28.930  21.001   7.334
  260POPC   NC3 6239  12.444   3.547   9.454
  260POPC   PO4 6240  13.048   3.378   9.501
  260POPC   GL1 6241  12.922   3.356   9.070
  260POPC   GL2 6242  12.637   3.152   9.135
  260POPC   C1A 6243  12.931   3.658   8.704
  260POPC   D2A 6244  12.913   3.809   8.264
  260POPC   C3A 6245  12.977   3.492   7.961
  260POPC   C4A 6246  13.113   3.810   7.662
  260POPC   C1B 6247  12.461   3.421   8.803
  260POPC   C2B 6248  12.465   3.689   8.444
  260POPC   C3B 6249  12.457   3.434   8.076
  260POPC   C4B 6250  12.556   3.286   7.682
  261POPC   NC3 6251  35.714   1.178   9.649
  261POPC   PO4 6252  36.401   1.288   9.559
  261POPC   GL1 6253  36.283   1.372   9.146
  261POPC   GL2 6254  35.940   1.240   9.140
  261POPC   C1A 6255  36.335   1.598   8.756
  261POPC   D2A 6256  36.169   1.507   8.347
  261POPC   C3A 6257  36.164   1.157   8.049
  261POPC   C4A 6258  36.235   1.200   7.591
  261POPC   C1B 6259  35.823   1.457   8.747
  261POPC   C2B 6260  35.680   1.342   8.328
  261POPC   C3B 6261  35.812   1.511   7.945
  261POPC   C4B 6262  35.768   1.395   7.540
  262POPC   NC3 6263  16.317   9.809   9.874
  262POPC   PO4 6264  15.732   9.924   9.473
  262POPC   GL1 6265  16.026   9.745   9.182
  262POPC   GL2 6266  15.975  10.021   8.988
  262POPC   C1A 6267  15.993   9.501   8.795
  262POPC   D2A 6268  15.800   9.385   8.393
  262POPC   C3A 6269  15.984   9.577   8.052
  262POPC   C4A 6270  16.115   9.671   7.628
  262POPC   C1B 6271  16.259  10.151   8.731
  262POPC   C2B 6272  16.385  10.001   8.378
  262POPC   C3B 6273  16.149  10.064   8.026
  262POPC   C4B 6274  16.122  10.178   7.648
  263POPC   NC3 6275   3.503  31.633   9.434
  263POPC   PO4 6276   3.066  31.241   9.790
  263POPC   GL1 6277   3.086  31.368   9.300
  263POPC   GL2 6278   3.107  31.701   9.108
  263POPC   C1A 6279   3.355  31.274   8.906
  263POPC   D2A 6280   3.264  31.127   8.479
  263POPC   C3A 6281   3.563  31.211   8.122
  263POPC   C4A 6282   3.614  31.385   7.730
  263POPC   C1B 6283   3.450  31.748   8.757
  263POPC   C2B 6284   3.479  31.951   8.340
  263POPC   C3B 6285   3.663  31.898   7.927
  263POPC   C4B 6286   3.464  31.824   7.530
  264POPC   NC3 6287  32.766   5.643   9.243
  264POPC   PO4 6288  32.215   5.808   9.590
  264POPC   GL1 6289  32.033   5.951   9.219
  264POPC   GL2 6290  32.377   5.955   9.085
  264POPC   C1A 6291  31.992   5.857   8.769
  264POPC   D2A 6292  32.293   5.882   8.377
  264POPC   C3A 6293  32.160   5.864   7.914
  264POPC   C4A 6294  32.194   5.949   7.446
  264POPC   C1B 6295  32.694   6.144   8.816
  264POPC   C2B 6296  32.902   6.067   8.424
  264POPC   C3B 6297  32.705   6.033   8.012
  264POPC   C4B 6298  32.653   5.789   7.630
  265POPC   NC3 6299  43.272  30.098   9.529
  265POPC   PO4 6300  43.221  29.459   9.459
  265POPC   GL1 6301  43.269  29.728   9.113
  265POPC   GL2 6302  43.271  30.069   9.034
  265POPC   C1A 6303  43.227  29.631   8.683
  265POPC   D2A 6304  43.145  29.298   8.383
  265POPC   C3A 6305  43.158  29.578   8.062
  265POPC   C4A 6306  43.379  29.822   7.758
  265POPC   C1B 6307  43.114  30.340   8.732
  265POPC   C2B 6308  43.092  30.295   8.295
  265POPC   C3B 6309  43.107  30.419   7.887
  265POPC   C4B 6310  42.944  30.110   7.655
  266POPC   NC3 6311   6.792  33.469   9.547
  266POPC   PO4 6312   7.016  34.052   9.534
  266POPC   GL1 6313   7.163  33.747   9.242
  266POPC   GL2 6314   7.076  33.416   9.138
  266POPC   C1A 6315   7.102  33.814   8.816
  266POPC   D2A 6316   7.425  33.775   8.537
  266POPC   C3A 6317   7.270  33.902   8.152
  266POPC   C4A 6318   7.501  33.792   7.813
  266POPC   C1B 6319   7.183  33.316   8.716
  266POPC   C2B 6320   7.170  33.408   8.308
  266POPC   C3B 6321   7.329  33.329   7.919
  266POPC   C4B 6322   7.220  33.442   7.495
  267POPC   NC3 6323  26.140  16.580   9.491
  267POPC   PO4 6324  25.983  17.199   9.322
  267POPC   GL1 6325  26.060  16.881   9.060
  267POPC   GL2 6326  26.427  16.895   9.174
  267POPC   C1A 6327  25.868  16.584   8.751
  267POPC   D2A 6328  25.762  16.485   8.292
  267POPC   C3A 6329  25.877  16.839   8.014
  267POPC   C4A 6330  25.922  16.721   7.580
  267POPC   C1B 6331  26.409  16.599   8.816
  267POPC   C2B 6332  26.244  16.693   8.410
  267POPC   C3B 6333  26.241  16.498   8.034
  267POPC   C4B 6334  26.362  16.846   7.800
  268POPC   NC3 6335  40.920  15.988   9.448
  268POPC   PO4 6336  40.289  16.052   9.552
  268POPC   GL1 6337  40.468  16.096   9.164
  268POPC   GL2 6338  40.622  15.752   9.104
  268POPC   C1A 6339  40.711  16.186   8.799
  268POPC   D2A 6340  40.862  15.888   8.527
  268POPC   C3A 6341  40.843  15.973   8.081
  268POPC   C4A 6342  40.674  16.095   7.668
  268POPC   C1B 6343  40.624  15.485   8.725
  268POPC   C2B 6344  40.515  15.557   8.291
  268POPC   C3B 6345  40.499  15.668   7.861
  268POPC   C4B 6346  40.470  15.616   7.386
  269POPC   NC3 6347  40.818   3.067   9.498
  269POPC   PO4 6348  40.343   2.500   9.684
  269POPC   GL1 6349  40.563   2.487   9.234
  269POPC   GL2 6350  40.902   2.621   9.234
  269POPC   C1A 6351  40.601   2.685   8.780
  269POPC   D2A 6352  40.743   2.983   8.453
  269POPC   C3A 6353  40.815   2.848   8.031
  269POPC   C4A 6354  40.681   2.819   7.577
  269POPC   C1B 6355  41.072   2.869   8.880
  269POPC   C2B 6356  41.212   2.777   8.462
  269POPC   C3B 6357  41.207   2.516   8.096
  269POPC   C4B 6358  41.003   2.468   7.724
  270POPC   NC3 6359  44.836   4.043   9.349
  270POPC   PO4 6360  44.463   3.476   9.459
  270POPC   GL1 6361  44.481   3.759   9.124
  270POPC   GL2 6362  44.769   3.572   9.046
  270POPC   C1A 6363  44.639   3.869   8.679
  270POPC   D2A 6364  44.793   3.547   8.390
  270POPC   C3A 6365  44.662   3.642   7.992
  270POPC   C4A 6366  44.557   3.438   7.602
  270POPC   C1B 6367  44.650   3.247   8.783
  270POPC   C2B 6368  44.425   3.193   8.417
  270POPC   C3B 6369  44.485   3.114   7.990
  270POPC   C4B 6370  44.189   3.060   7.653
  271POPC   NC3 6371  19.192  33.285   9.411
  271POPC   PO4 6372  18.795  32.812   9.491
  271POPC   GL1 6373  18.996  32.934   9.076
  271POPC   GL2 6374  19.329  33.086   8.977
  271POPC   C1A 6375  19.023  32.907   8.627
  271POPC   D2A 6376  19.022  33.081   8.251
  271POPC   C3A 6377  19.255  33.021   7.906
  271POPC   C4A 6378  18.955  33.022   7.589
  271POPC   C1B 6379  19.553  32.922   8.621
  271POPC   C2B 6380  19.518  32.739   8.233
  271POPC   C3B 6381  19.622  32.692   7.797
  271POPC   C4B 6382  19.430  32.851   7.421
  272POPC   NC3 6383   4.722  24.338   9.604
  272POPC   PO4 6384   5.273  24.689   9.373
  272POPC   GL1 6385   4.954  24.591   9.107
  272POPC   GL2 6386   4.854  24.240   9.103
  272POPC   C1A 6387   4.969  24.595   8.679
  272POPC   D2A 6388   5.275  24.711   8.363
  272POPC   C3A 6389   5.129  24.558   7.988
  272POPC   C4A 6390   4.859  24.680   7.691
  272POPC   C1B 6391   5.255  24.198   8.823
  272POPC   C2B 6392   5.393  24.211   8.360
  272POPC   C3B 6393   5.294  24.055   7.923
  272POPC   C4B 6394   4.946  24.177   7.633
  273POPC   NC3 6395   7.874  12.077   9.519
  273POPC   PO4 6396   7.413  11.681   9.402
  273POPC   GL1 6397   7.677  11.777   9.075
  273POPC   GL2 6398   7.613  12.138   9.090
  273POPC   C1A 6399   7.583  11.856   8.641
  273POPC   D2A 6400   7.462  12.214   8.355
  273POPC   C3A 6401   7.316  12.063   7.950
  273POPC   C4A 6402   6.925  12.122   7.768
  273POPC   C1B 6403   7.855  12.267   8.756
  273POPC   C2B 6404   7.957  12.129   8.339
  273POPC   C3B 6405   7.806  12.191   7.932
  273POPC   C4B 6406   7.763  11.919   7.624
  274POPC   NC3 6407  34.879  44.010   9.576
  274POPC   PO4 6408  34.489  43.489   9.693
  274POPC   GL1 6409  34.577  43.699   9.259
  274POPC   GL2 6410  34.922  43.672   9.186
  274POPC   C1A 6411  34.544  43.785   8.771
  274POPC   D2A 6412  34.435  43.440   8.429
  274POPC   C3A 6413  34.367  43.530   7.970
  274POPC   C4A 6414  34.093  43.725   7.651
  274POPC   C1B 6415  34.996  44.023   8.876
  274POPC   C2B 6416  34.895  44.221   8.485
  274POPC   C3B 6417  34.963  44.152   8.039
  274POPC   C4B 6418  34.717  43.871   7.787
  275POPC   NC3 6419  18.238  24.277   9.496
  275POPC   PO4 6420  18.262  24.931   9.322
  275POPC   GL1 6421  18.428  24.596   9.053
  275POPC   GL2 6422  18.354  24.244   9.019
  275POPC   C1A 6423  18.388  24.534   8.602
  275POPC   D2A 6424  18.158  24.835   8.318
  275POPC   C3A 6425  17.988  24.691   7.952
  275POPC   C4A 6426  18.253  24.462   7.722
  275POPC   C1B 6427  18.151  24.033   8.720
  275POPC   C2B 6428  18.225  24.135   8.299
  275POPC   C3B 6429  17.966  24.140   7.970
  275POPC   C4B 6430  18.068  24.031   7.545
  276POPC   NC3 6431  25.590  34.898   9.464
  276POPC   PO4 6432  25.515  35.576   9.509
  276POPC   GL1 6433  25.359  35.286   9.197
  276POPC   GL2 6434  24.993  35.292   9.207
  276POPC   C1A 6435  25.386  35.282   8.758
  276POPC   D2A 6436  25.382  35.587   8.422
  276POPC   C3A 6437  25.485  35.454   7.992
  276POPC   C4A 6438  25.375  35.128   7.737
  276POPC   C1B 6439  24.958  35.594   8.856
  276POPC   C2B 6440  24.923  35.786   8.428
  276POPC   C3B 6441  24.986  35.578   8.052
  276POPC   C4B 6442  24.996  35.478   7.614
  277POPC   NC3 6443  19.367  44.112   9.518
  277POPC   PO4 6444  18.868  43.673   9.434
  277POPC   GL1 6445  19.031  43.954   9.175
  277POPC   GL2 6446  19.355  43.743   9.189
  277POPC   C1A 6447  18.960  44.255   8.851
  277POPC   D2A 6448  18.671  44.286   8.484
  277POPC   C3A 6449  18.844  44.149   8.064
  277POPC   C4A 6450  18.852  43.743   7.833
  277POPC   C1B 6451  19.177  43.669   8.808
  277POPC   C2B 6452  19.135  43.925   8.464
  277POPC   C3B 6453  19.287  43.863   8.062
  277POPC   C4B 6454  19.389  43.667   7.692
  278POPC   NC3 6455  23.999  11.827   9.503
  278POPC   PO4 6456  24.667  12.001   9.408
  278POPC   GL1 6457  24.397  11.877   9.089
  278POPC   GL2 6458  24.117  12.099   9.093
  278POPC   C1A 6459  24.491  12.092   8.698
  278POPC   D2A 6460  24.623  12.413   8.396
  278POPC   C3A 6461  24.758  12.260   7.999
  278POPC   C4A 6462  24.701  11.860   7.878
  278POPC   C1B 6463  24.025  11.880   8.692
  278POPC   C2B 6464  24.119  12.090   8.280
  278POPC   C3B 6465  24.142  12.137   7.813
  278POPC   C4B 6466  23.948  12.139   7.373
  279POPC   NC3 6467  21.198  41.999   9.444
  279POPC   PO4 6468  21.195  42.705   9.582
  279POPC   GL1 6469  21.286  42.463   9.201
  279POPC   GL2 6470  21.578  42.645   9.106
  279POPC   C1A 6471  21.195  42.192   8.800
  279POPC   D2A 6472  21.109  42.001   8.368
  279POPC   C3A 6473  21.245  42.128   7.943
  279POPC   C4A 6474  21.551  42.318   7.718
  279POPC   C1B 6475  21.327  42.673   8.736
  279POPC   C2B 6476  21.261  42.486   8.338
  279POPC   C3B 6477  21.223  42.646   7.923
  279POPC   C4B 6478  21.197  42.609   7.483
  280POPC   NC3 6479  21.677  17.255   9.521
  280POPC   PO4 6480  21.000  17.222   9.522
  280POPC   GL1 6481  21.266  17.318   9.170
  280POPC   GL2 6482  21.434  17.639   9.259
  280POPC   C1A 6483  21.307  17.297   8.724
  280POPC   D2A 6484  21.161  17.584   8.426
  280POPC   C3A 6485  21.323  17.399   8.079
  280POPC   C4A 6486  21.220  17.523   7.658
  280POPC   C1B 6487  21.414  17.779   8.834
  280POPC   C2B 6488  21.666  17.689   8.438
  280POPC   C3B 6489  21.607  17.794   7.980
  280POPC   C4B 6490  21.672  17.734   7.513
  281POPC   NC3 6491  21.987  31.326   9.521
  281POPC   PO4 6492  22.475  31.798   9.493
  281POPC   GL1 6493  22.523  31.615   9.076
  281POPC   GL2 6494  22.352  31.306   9.115
  281POPC   C1A 6495  22.381  31.572   8.655
  281POPC   D2A 6496  21.982  31.554   8.439
  281POPC   C3A 6497  22.123  31.547   8.034
  281POPC   C4A 6498  22.094  31.396   7.624
  281POPC   C1B 6499  22.246  31.069   8.757
  281POPC   C2B 6500  22.300  31.151   8.332
  281POPC   C3B 6501  22.450  31.102   7.936
  281POPC   C4B 6502  22.331  30.904   7.571
  282POPC   NC3 6503  37.917   6.632   9.408
  282POPC   PO4 6504  37.284   7.018   9.464
  282POPC   GL1 6505  37.546   6.845   9.099
  282POPC   GL2 6506  37.864   7.011   9.051
  282POPC   C1A 6507  37.834   6.574   8.778
  282POPC   D2A 6508  38.018   6.576   8.360
  282POPC   C3A 6509  37.796   6.586   7.954
  282POPC   C4A 6510  37.802   6.715   7.531
  282POPC   C1B 6511  37.662   7.027   8.631
  282POPC   C2B 6512  37.655   7.011   8.198
  282POPC   C3B 6513  37.480   7.016   7.788
  282POPC   C4B 6514  37.424   7.025   7.297
  283POPC   NC3 6515  19.089   7.127   9.509
  283POPC   PO4 6516  19.095   6.441   9.467
  283POPC   GL1 6517  19.129   6.771   9.148
  283POPC   GL2 6518  18.774   6.909   9.164
  283POPC   C1A 6519  19.094   6.878   8.708
  283POPC   D2A 6520  19.068   6.490   8.443
  283POPC   C3A 6521  19.002   6.570   7.997
  283POPC   C4A 6522  19.225   6.759   7.657
  283POPC   C1B 6523  18.635   6.689   8.795
  283POPC   C2B 6524  18.677   6.823   8.376
  283POPC   C3B 6525  18.743   7.035   8.009
  283POPC   C4B 6526  18.719   6.843   7.652
  284POPC   NC3 6527   8.665  43.407   9.448
  284POPC   PO4 6528   9.091  43.916   9.455
  284POPC   GL1 6529   8.963  43.712   9.100
  284POPC   GL2 6530   8.697  43.917   9.044
  284POPC   C1A 6531   9.041  43.840   8.675
  284POPC   D2A 6532   9.212  44.164   8.420
  284POPC   C3A 6533   9.246  44.012   7.985
  284POPC   C4A 6534   9.177  43.756   7.616
  284POPC   C1B 6535   8.571  43.627   8.732
  284POPC   C2B 6536   8.708  43.571   8.300
  284POPC   C3B 6537   8.756  43.786   7.905
  284POPC   C4B 6538   8.728  43.766   7.407
  285POPC   NC3 6539  21.720   3.406   9.463
  285POPC   PO4 6540  21.126   3.730   9.334
  285POPC   GL1 6541  21.238   3.367   9.136
  285POPC   GL2 6542  21.532   3.547   9.022
  285POPC   C1A 6543  21.054   3.311   8.741
  285POPC   D2A 6544  21.130   3.552   8.385
  285POPC   C3A 6545  20.966   3.446   8.010
  285POPC   C4A 6546  21.082   3.668   7.662
  285POPC   C1B 6547  21.590   3.252   8.730
  285POPC   C2B 6548  21.616   3.386   8.336
  285POPC   C3B 6549  21.463   3.402   7.917
  285POPC   C4B 6550  21.802   3.379   7.672
  286POPC   NC3 6551  10.286  11.208   9.452
  286POPC   PO4 6552   9.578  11.401   9.498
  286POPC   GL1 6553   9.794  11.269   9.149
  286POPC   GL2 6554  10.023  11.582   9.200
  286POPC   C1A 6555   9.758  11.132   8.693
  286POPC   D2A 6556   9.750  11.282   8.291
  286POPC   C3A 6557   9.688  11.098   7.912
  286POPC   C4A 6558   9.426  11.230   7.585
  286POPC   C1B 6559  10.192  11.334   8.837
  286POPC   C2B 6560  10.242  11.216   8.443
  286POPC   C3B 6561  10.232  11.418   8.075
  286POPC   C4B 6562  10.108  11.321   7.696
  287POPC   NC3 6563  13.887   8.613   9.469
  287POPC   PO4 6564  13.956   9.318   9.402
  287POPC   GL1 6565  13.701   9.131   9.075
  287POPC   GL2 6566  13.556   8.826   9.117
  287POPC   C1A 6567  13.460   9.167   8.681
  287POPC   D2A 6568  13.503   9.005   8.242
  287POPC   C3A 6569  13.537   9.092   7.775
  287POPC   C4A 6570  13.742   8.768   7.476
  287POPC   C1B 6571  13.518   8.663   8.688
  287POPC   C2B 6572  13.233   8.580   8.297
  287POPC   C3B 6573  13.329   8.619   7.831
  287POPC   C4B 6574  13.227   8.756   7.412
  288POPC   NC3 6575  17.040   7.906   9.323
  288POPC   PO4 6576  16.649   8.485   9.576
  288POPC   GL1 6577  16.741   8.290   9.158
  288POPC   GL2 6578  16.499   8.386   8.928
  288POPC   C1A 6579  16.969   8.146   8.747
  288POPC   D2A 6580  17.107   8.360   8.393
  288POPC   C3A 6581  16.994   8.129   8.018
  288POPC   C4A 6582  17.013   8.004   7.580
  288POPC   C1B 6583  16.588   8.344   8.492
  288POPC   C2B 6584  16.585   7.934   8.301
  288POPC   C3B 6585  16.572   7.854   7.871
  288POPC   C4B 6586  16.426   8.218   7.630
  289POPC   NC3 6587  15.359  15.958   9.549
  289POPC   PO4 6588  14.923  16.366   9.478
  289POPC   GL1 6589  15.096  16.119   9.144
  289POPC   GL2 6590  15.462  16.256   9.142
  289POPC   C1A 6591  15.053  15.841   8.774
  289POPC   D2A 6592  15.147  15.738   8.318
  289POPC   C3A 6593  14.786  15.678   8.031
  289POPC   C4A 6594  14.792  15.653   7.582
  289POPC   C1B 6595  15.547  15.985   8.788
  289POPC   C2B 6596  15.508  16.134   8.358
  289POPC   C3B 6597  15.406  16.123   7.909
  289POPC   C4B 6598  15.427  16.248   7.466
  290POPC   NC3 6599   9.293  31.485   9.873
  290POPC   PO4 6600   8.773  31.200   9.496
  290POPC   GL1 6601   8.987  31.381   9.172
  290POPC   GL2 6602   8.882  31.655   9.099
  290POPC   C1A 6603   9.143  31.259   8.749
  290POPC   D2A 6604   8.841  31.044   8.427
  290POPC   C3A 6605   8.790  31.212   8.003
  290POPC   C4A 6606   9.095  31.381   7.725
  290POPC   C1B 6607   8.948  31.716   8.690
  290POPC   C2B 6608   9.030  31.539   8.322
  290POPC   C3B 6609   8.880  31.747   7.988
  290POPC   C4B 6610   9.110  32.038   7.768
  291POPC   NC3 6611  24.183  10.064   9.543
  291POPC   PO4 6612  24.444   9.393   9.439
  291POPC   GL1 6613  24.425   9.659   9.105
  291POPC   GL2 6614  24.137   9.824   9.098
  291POPC   C1A 6615  24.492   9.681   8.663
  291POPC   D2A 6616  24.616   9.839   8.270
  291POPC   C3A 6617  24.452   9.622   7.930
  291POPC   C4A 6618  24.606   9.387   7.625
  291POPC   C1B 6619  24.163  10.096   8.703
  291POPC   C2B 6620  24.320  10.286   8.347
  291POPC   C3B 6621  24.310  10.130   7.948
  291POPC   C4B 6622  24.042   9.827   7.731
  292POPC   NC3 6623   8.298  21.707   9.516
  292POPC   PO4 6624   8.285  22.264   9.486
  292POPC   GL1 6625   8.089  22.085   9.129
  292POPC   GL2 6626   8.394  21.919   9.060
  292POPC   C1A 6627   8.072  22.155   8.677
  292POPC   D2A 6628   8.216  22.019   8.282
  292POPC   C3A 6629   8.070  22.199   7.912
  292POPC   C4A 6630   7.978  22.639   7.776
  292POPC   C1B 6631   8.574  22.039   8.692
  292POPC   C2B 6632   8.695  21.877   8.313
  292POPC   C3B 6633   8.567  21.872   7.908
  292POPC   C4B 6634   8.337  21.918   7.525
  293POPC   NC3 6635  22.070  30.411   9.465
  293POPC   PO4 6636  22.398  31.031   9.547
  293POPC   GL1 6637  22.210  30.813   9.204
  293POPC   GL2 6638  21.900  30.968   9.161
  293POPC   C1A 6639  22.083  30.557   8.830
  293POPC   D2A 6640  22.162  30.668   8.421
  293POPC   C3A 6641  22.009  30.487   8.071
  293POPC   C4A 6642  22.146  30.470   7.709
  293POPC   C1B 6643  21.732  30.913   8.740
  293POPC   C2B 6644  21.796  31.048   8.321
  293POPC   C3B 6645  21.941  30.954   7.892
  293POPC   C4B 6646  21.864  30.940   7.420
  294POPC   NC3 6647  35.098  41.325   9.400
  294POPC   PO4 6648  35.787  41.270   9.402
  294POPC   GL1 6649  35.499  41.361   9.051
  294POPC   GL2 6650  35.334  41.691   9.099
  294POPC   C1A 6651  35.307  41.470   8.644
  294POPC   D2A 6652  35.392  41.886   8.403
  294POPC   C3A 6653  35.394  41.738   7.954
  294POPC   C4A 6654  35.687  41.744   7.554
  294POPC   C1B 6655  35.018  41.862   8.788
  294POPC   C2B 6656  34.903  41.810   8.333
  294POPC   C3B 6657  34.802  41.588   7.946
  294POPC   C4B 6658  35.027  41.228   7.831
  295POPC   NC3 6659  30.377  38.356   9.420
  295POPC   PO4 6660  31.054  38.651   9.359
  295POPC   GL1 6661  30.680  38.596   9.094
  295POPC   GL2 6662  30.658  38.233   9.012
  295POPC   C1A 6663  30.442  38.567   8.687
  295POPC   D2A 6664  30.504  38.250   8.356
  295POPC   C3A 6665  30.517  38.452   7.933
  295POPC   C4A 6666  30.701  38.392   7.498
  295POPC   C1B 6667  30.918  38.333   8.673
  295POPC   C2B 6668  30.903  38.575   8.291
  295POPC   C3B 6669  31.034  38.571   7.859
  295POPC   C4B 6670  31.118  38.687   7.413
  296POPC   NC3 6671  38.877  17.144   9.525
  296POPC   PO4 6672  38.814  17.848   9.483
  296POPC   GL1 6673  38.902  17.641   9.100
  296POPC   GL2 6674  39.121  17.368   9.106
  296POPC   C1A 6675  38.980  17.564   8.654
  296POPC   D2A 6676  39.330  17.719   8.422
  296POPC   C3A 6677  39.290  17.459   8.084
  296POPC   C4A 6678  38.990  17.412   7.752
  296POPC   C1B 6679  39.334  17.216   8.727
  296POPC   C2B 6680  39.516  17.002   8.366
  296POPC   C3B 6681  39.625  17.105   7.955
  296POPC   C4B 6682  39.451  17.304   7.595
  297POPC   NC3 6683  31.661  13.552   9.512
  297POPC   PO4 6684  31.048  13.298   9.512
  297POPC   GL1 6685  31.237  13.627   9.188
  297POPC   GL2 6686  31.611  13.787   9.071
  297POPC   C1A 6687  31.338  13.519   8.751
  297POPC   D2A 6688  31.440  13.522   8.351
  297POPC   C3A 6689  31.209  13.377   8.009
  297POPC   C4A 6690  31.278  13.817   7.892
  297POPC   C1B 6691  31.866  13.531   8.760
  297POPC   C2B 6692  31.907  13.365   8.312
  297POPC   C3B 6693  31.695  13.460   7.908
  297POPC   C4B 6694  31.698  13.771   7.560
  298POPC   NC3 6695   2.073  43.439   9.273
  298POPC   PO4 6696   1.775  42.850   9.268
  298POPC   GL1 6697   1.621  43.114   9.006
  298POPC   GL2 6698   1.453  42.834   8.836
  298POPC   C1A 6699   1.772  43.368   8.648
  298POPC   D2A 6700   1.947  43.537   8.247
  298POPC   C3A 6701   2.337  43.346   8.102
  298POPC   C4A 6702   2.224  43.070   7.795
  298POPC   C1B 6703   1.883  42.831   8.640
  298POPC   C2B 6704   1.998  43.003   8.261
  298POPC   C3B 6705   1.747  43.096   7.908
  298POPC   C4B 6706   1.465  42.859   7.655
  299POPC   NC3 6707  37.681  40.995   9.326
  299POPC   PO4 6708  37.432  40.390   9.505
  299POPC   GL1 6709  37.557  40.549   9.105
  299POPC   GL2 6710  37.955  40.595   9.121
  299POPC   C1A 6711  37.463  40.780   8.699
  299POPC   D2A 6712  37.595  40.714   8.265
  299POPC   C3A 6713  37.277  40.762   7.928
  299POPC   C4A 6714  37.322  41.056   7.585
  299POPC   C1B 6715  37.943  40.917   8.750
  299POPC   C2B 6716  37.726  41.193   8.470
  299POPC   C3B 6717  37.572  41.206   8.051
  299POPC   C4B 6718  37.788  40.918   7.787
  300POPC   NC3 6719  26.674  39.712   9.334
  300POPC   PO4 6720  26.853  38.986   9.338
  300POPC   GL1 6721  26.892  39.267   8.942
  300POPC   GL2 6722  26.697  39.598   8.866
  300POPC   C1A 6723  26.924  39.423   8.476
  300POPC   D2A 6724  26.608  39.554   8.198
  300POPC   C3A 6725  26.751  39.298   7.881
  300POPC   C4A 6726  27.078  38.940   7.870
  300POPC   C1B 6727  27.225  39.615   8.843
  300POPC   C2B 6728  27.390  39.643   8.382
  300POPC   C3B 6729  27.212  39.529   7.923
  300POPC   C4B 6730  27.383  39.615   7.490
  301POPC   NC3 6731  38.493  40.515   9.657
  301POPC   PO4 6732  38.129  41.114   9.463
  301POPC   GL1 6733  38.418  40.850   9.160
  301POPC   GL2 6734  38.592  40.496   9.143
  301POPC   C1A 6735  38.356  40.652   8.737
  301POPC   D2A 6736  38.124  40.584   8.385
  301POPC   C3A 6737  38.338  40.825   8.118
  301POPC   C4A 6738  38.303  40.937   7.743
  301POPC   C1B 6739  38.809  40.464   8.718
  301POPC   C2B 6740  38.715  40.503   8.268
  301POPC   C3B 6741  38.563  40.464   7.806
  301POPC   C4B 6742  38.593  40.236   7.388
  302POPC   NC3 6743  26.470  39.869   9.826
  302POPC   PO4 6744  27.074  39.945   9.460
  302POPC   GL1 6745  27.004  40.063   9.053
  302POPC   GL2 6746  26.734  40.218   9.155
  302POPC   C1A 6747  26.959  39.957   8.610
  302POPC   D2A 6748  26.977  39.906   8.183
  302POPC   C3A 6749  26.812  39.826   7.790
  302POPC   C4A 6750  26.878  39.727   7.398
  302POPC   C1B 6751  26.559  40.225   8.761
  302POPC   C2B 6752  26.498  40.010   8.415
  302POPC   C3B 6753  26.471  40.100   8.034
  302POPC   C4B 6754  26.484  40.191   7.617
  303POPC   NC3 6755  40.683   9.888   9.412
  303POPC   PO4 6756  41.152   9.279   9.452
  303POPC   GL1 6757  40.932   9.530   9.149
  303POPC   GL2 6758  40.587   9.484   9.061
  303POPC   C1A 6759  40.881   9.766   8.759
  303POPC   D2A 6760  41.011   9.792   8.343
  303POPC   C3A 6761  40.692   9.796   8.031
  303POPC   C4A 6762  40.845   9.695   7.629
  303POPC   C1B 6763  40.439   9.483   8.635
  303POPC   C2B 6764  40.595   9.331   8.258
  303POPC   C3B 6765  40.561   9.311   7.809
  303POPC   C4B 6766  40.434   9.286   7.358
  304POPC   NC3 6767  44.453  32.007   9.471
  304POPC   PO4 6768  44.862  31.412   9.493
  304POPC   GL1 6769  44.654  31.503   9.148
  304POPC   GL2 6770  44.787  31.834   9.130
  304POPC   C1A 6771  44.600  31.277   8.762
  304POPC   D2A 6772  44.630  31.468   8.360
  304POPC   C3A 6773  44.502  31.227   8.020
  304POPC   C4A 6774  44.736  31.152   7.675
  304POPC   C1B 6775  44.513  31.914   8.767
  304POPC   C2B 6776  44.609  32.060   8.347
  304POPC   C3B 6777  44.885  31.966   8.038
  304POPC   C4B 6778  44.590  31.693   7.820
  305POPC   NC3 6779  36.521  42.223   9.537
  305POPC   PO4 6780  35.900  42.254   9.545
  305POPC   GL1 6781  36.138  42.233   9.168
  305POPC   GL2 6782  36.313  42.547   9.199
  305POPC   C1A 6783  35.961  42.187   8.746
  305POPC   D2A 6784  35.781  42.300   8.347
  305POPC   C3A 6785  35.823  42.005   8.010
  305POPC   C4A 6786  36.053  42.071   7.640
  305POPC   C1B 6787  36.346  42.533   8.771
  305POPC   C2B 6788  36.348  42.288   8.388
  305POPC   C3B 6789  36.173  42.389   8.012
  305POPC   C4B 6790  36.244  42.650   7.681
  306POPC   NC3 6791  23.229   5.886   9.272
  306POPC   PO4 6792  22.937   5.357   9.607
  306POPC   GL1 6793  22.662   5.632   9.173
  306POPC   GL2 6794  22.787   5.957   9.044
  306POPC   C1A 6795  22.579   5.606   8.708
  306POPC   D2A 6796  22.992   5.481   8.498
  306POPC   C3A 6797  23.078   5.675   8.123
  306POPC   C4A 6798  22.696   5.593   7.871
  306POPC   C1B 6799  22.925   5.979   8.629
  306POPC   C2B 6800  22.675   5.979   8.267
  306POPC   C3B 6801  22.674   6.090   7.826
  306POPC   C4B 6802  23.081   5.920   7.675
  307POPC   NC3 6803  42.028   1.141   9.375
  307POPC   PO4 6804  42.707   1.175   9.509
  307POPC   GL1 6805  42.474   1.280   9.098
  307POPC   GL2 6806  42.159   1.508   9.068
  307POPC   C1A 6807  42.309   1.258   8.652
  307POPC   D2A 6808  42.061   1.087   8.300
  307POPC   C3A 6809  42.334   1.181   7.954
  307POPC   C4A 6810  42.665   1.425   7.771
  307POPC   C1B 6811  41.855   1.490   8.715
  307POPC   C2B 6812  42.053   1.593   8.330
  307POPC   C3B 6813  42.254   1.693   7.964
  307POPC   C4B 6814  42.064   1.592   7.594
  308POPC   NC3 6815  24.170   8.307   9.425
  308POPC   PO4 6816  24.794   8.495   9.462
  308POPC   GL1 6817  24.604   8.238   9.179
  308POPC   GL2 6818  24.449   8.546   9.063
  308POPC   C1A 6819  24.394   8.072   8.822
  308POPC   D2A 6820  24.556   8.015   8.418
  308POPC   C3A 6821  24.360   8.161   8.060
  308POPC   C4A 6822  24.357   7.959   7.704
  308POPC   C1B 6823  24.350   8.626   8.656
  308POPC   C2B 6824  24.547   8.694   8.266
  308POPC   C3B 6825  24.610   8.564   7.850
  308POPC   C4B 6826  24.204   8.506   7.648
  309POPC   NC3 6827  23.402  40.594   9.354
  309POPC   PO4 6828  23.962  41.009   9.479
  309POPC   GL1 6829  23.803  40.915   9.082
  309POPC   GL2 6830  23.461  41.034   9.056
  309POPC   C1A 6831  23.740  40.669   8.648
  309POPC   D2A 6832  23.965  40.583   8.280
  309POPC   C3A 6833  23.694  40.626   7.914
  309POPC   C4A 6834  23.337  40.863   7.770
  309POPC   C1B 6835  23.709  41.164   8.669
  309POPC   C2B 6836  23.625  41.002   8.263
  309POPC   C3B 6837  23.760  41.135   7.899
  309POPC   C4B 6838  24.056  41.268   7.652
  310POPC   NC3 6839  32.801  33.415   9.277
  310POPC   PO4 6840  33.134  33.965   9.261
  310POPC   GL1 6841  32.776  33.920   8.988
  310POPC   GL2 6842  32.435  34.080   9.075
  310POPC   C1A 6843  32.892  33.847   8.535
  310POPC   D2A 6844  33.253  33.855   8.214
  310POPC   C3A 6845  33.145  33.630   7.818
  310POPC   C4A 6846  32.840  33.713   7.532
  310POPC   C1B 6847  32.549  34.310   8.708
  310POPC   C2B 6848  32.743  34.285   8.310
  310POPC   C3B 6849  32.799  33.975   8.018
  310POPC   C4B 6850  32.489  33.991   7.741
  311POPC   NC3 6851  30.720  18.013   9.138
  311POPC   PO4 6852  31.226  18.081   9.607
  311POPC   GL1 6853  31.071  18.385   9.130
  311POPC   GL2 6854  30.779  18.600   9.043
  311POPC   C1A 6855  30.951  18.355   8.641
  311POPC   D2A 6856  30.507  18.177   8.491
  311POPC   C3A 6857  30.487  18.164   8.041
  311POPC   C4A 6858  30.874  18.192   7.823
  311POPC   C1B 6859  30.535  18.678   8.648
  311POPC   C2B 6860  30.686  18.588   8.248
  311POPC   C3B 6861  30.646  18.670   7.845
  311POPC   C4B 6862  30.833  18.601   7.464
  312POPC   NC3 6863   6.991  42.628   9.987
  312POPC   PO4 6864   6.583  42.223   9.607
  312POPC   GL1 6865   6.551  42.272   9.171
  312POPC   GL2 6866   6.620  41.943   9.061
  312POPC   C1A 6867   6.455  42.617   8.849
  312POPC   D2A 6868   6.405  42.891   8.467
  312POPC   C3A 6869   6.522  42.699   8.087
  312POPC   C4A 6870   6.543  42.455   7.730
  312POPC   C1B 6871   6.837  42.081   8.760
  312POPC   C2B 6872   6.643  42.164   8.388
  312POPC   C3B 6873   6.730  42.039   7.958
  312POPC   C4B 6874   7.010  42.193   7.683
  313POPC   NC3 6875  15.244  28.699   9.477
  313POPC   PO4 6876  14.967  28.091   9.473
  313POPC   GL1 6877  15.116  28.264   9.122
  313POPC   GL2 6878  15.448  28.370   9.146
  313POPC   C1A 6879  15.284  28.146   8.728
  313POPC   D2A 6880  15.318  28.301   8.372
  313POPC   C3A 6881  15.237  28.047   8.051
  313POPC   C4A 6882  15.126  28.319   7.752
  313POPC   C1B 6883  15.276  28.646   8.773
  313POPC   C2B 6884  15.252  28.817   8.354
  313POPC   C3B 6885  15.171  28.806   7.906
  313POPC   C4B 6886  15.400  28.690   7.524
  314POPC   NC3 6887  11.096  35.670   9.762
  314POPC   PO4 6888  11.389  36.254   9.508
  314POPC   GL1 6889  11.495  36.296   9.048
  314POPC   GL2 6890  11.647  35.975   9.015
  314POPC   C1A 6891  11.437  36.270   8.554
  314POPC   D2A 6892  11.220  36.253   8.124
  314POPC   C3A 6893  11.415  36.172   7.719
  314POPC   C4A 6894  11.263  36.203   7.296
  314POPC   C1B 6895  11.761  35.875   8.588
  314POPC   C2B 6896  11.615  35.915   8.153
  314POPC   C3B 6897  11.218  35.761   7.925
  314POPC   C4B 6898  11.284  35.525   7.555
  315POPC   NC3 6899  24.324  16.581   9.464
  315POPC   PO4 6900  25.014  16.886   9.424
  315POPC   GL1 6901  24.690  16.967   9.143
  315POPC   GL2 6902  24.644  16.629   9.052
  315POPC   C1A 6903  24.706  17.071   8.693
  315POPC   D2A 6904  24.974  17.077   8.321
  315POPC   C3A 6905  24.881  16.978   7.864
  315POPC   C4A 6906  24.500  17.008   7.698
  315POPC   C1B 6907  24.417  16.664   8.656
  315POPC   C2B 6908  24.522  16.787   8.224
  315POPC   C3B 6909  24.528  16.518   7.854
  315POPC   C4B 6910  24.294  16.392   7.475
  316POPC   NC3 6911  30.586  13.275   9.624
  316POPC   PO4 6912  30.391  13.887   9.379
  316POPC   GL1 6913  30.683  13.593   9.233
  316POPC   GL2 6914  30.500  13.289   9.141
  316POPC   C1A 6915  30.842  13.522   8.849
  316POPC   D2A 6916  30.923  13.405   8.450
  316POPC   C3A 6917  30.847  13.714   8.150
  316POPC   C4A 6918  30.822  13.548   7.734
  316POPC   C1B 6919  30.306  13.525   8.828
  316POPC   C2B 6920  30.392  13.455   8.405
  316POPC   C3B 6921  30.383  13.593   8.000
  316POPC   C4B 6922  30.341  13.306   7.725
  317POPC   NC3 6923   4.450  33.421   9.600
  317POPC   PO4 6924   4.245  34.079   9.505
  317POPC   GL1 6925   4.234  33.943   9.103
  317POPC   GL2 6926   4.103  33.633   9.224
  317POPC   C1A 6927   4.521  33.904   8.749
  317POPC   D2A 6928   4.720  33.766   8.390
  317POPC   C3A 6929   4.383  33.913   8.130
  317POPC   C4A 6930   4.414  33.910   7.729
  317POPC   C1B 6931   4.112  33.543   8.815
  317POPC   C2B 6932   4.259  33.493   8.416
  317POPC   C3B 6933   4.092  33.490   7.995
  317POPC   C4B 6934   4.246  33.455   7.608
  318POPC   NC3 6935   0.074  10.668   9.513
  318POPC   PO4 6936  44.470  10.467   9.551
  318POPC   GL1 6937  44.652  10.364   9.142
  318POPC   GL2 6938  44.815  10.676   9.074
  318POPC   C1A 6939  44.707  10.419   8.669
  318POPC   D2A 6940  44.539  10.762   8.428
  318POPC   C3A 6941  44.441  10.729   8.025
  318POPC   C4A 6942  44.567  10.609   7.636
  318POPC   C1B 6943  44.891  10.981   8.718
  318POPC   C2B 6944  44.977  11.004   8.250
  318POPC   C3B 6945  44.839  11.005   7.807
  318POPC   C4B 6946  44.820  10.992   7.342
  319POPC   NC3 6947   2.326  20.255   9.275
  319POPC   PO4 6948   2.019  19.720   9.529
  319POPC   GL1 6949   2.144  19.786   9.146
  319POPC   GL2 6950   1.857  20.038   9.128
  319POPC   C1A 6951   2.146  19.683   8.720
  319POPC   D2A 6952   1.975  19.500   8.344
  319POPC   C3A 6953   2.140  19.707   7.988
  319POPC   C4A 6954   2.358  19.754   7.600
  319POPC   C1B 6955   1.636  20.121   8.733
  319POPC   C2B 6956   1.773  20.005   8.305
  319POPC   C3B 6957   1.634  19.828   7.906
  319POPC   C4B 6958   1.867  19.939   7.552
  320POPC   NC3 6959   6.332  18.292   9.466
  320POPC   PO4 6960   6.949  18.204   9.171
  320POPC   GL1 6961   6.806  18.502   8.933
  320POPC   GL2 6962   6.439  18.476   8.979
  320POPC   C1A 6963   6.842  18.473   8.511
  320POPC   D2A 6964   6.946  18.072   8.349
  320POPC   C3A 6965   6.784  18.086   7.944
  320POPC   C4A 6966   6.779  18.443   7.630
  320POPC   C1B 6967   6.500  18.077   8.732
  320POPC   C2B 6968   6.451  17.924   8.321
  320POPC   C3B 6969   6.326  17.914   7.879
  320POPC   C4B 6970   6.534  18.046   7.476
  321POPC   NC3 6971  23.278  36.097   9.431
  321POPC   PO4 6972  22.696  36.127   9.767
  321POPC   GL1 6973  22.868  36.285   9.231
  321POPC   GL2 6974  22.757  36.571   9.051
  321POPC   C1A 6975  22.925  36.217   8.763
  321POPC   D2A 6976  22.901  35.928   8.442
  321POPC   C3A 6977  23.022  36.071   8.026
  321POPC   C4A 6978  22.984  36.056   7.528
  321POPC   C1B 6979  22.684  36.699   8.635
  321POPC   C2B 6980  22.580  36.345   8.392
  321POPC   C3B 6981  22.486  36.334   7.999
  321POPC   C4B 6982  22.820  36.471   7.808
  322POPC   NC3 6983  13.069   4.862   9.589
  322POPC   PO4 6984  13.763   5.014   9.510
  322POPC   GL1 6985  13.434   4.977   9.199
  322POPC   GL2 6986  13.709   5.061   8.995
  322POPC   C1A 6987  13.269   5.147   8.783
  322POPC   D2A 6988  13.237   4.970   8.360
  322POPC   C3A 6989  13.499   5.119   7.987
  322POPC   C4A 6990  13.982   5.199   7.882
  322POPC   C1B 6991  13.669   4.846   8.620
  322POPC   C2B 6992  13.865   4.811   8.227
  322POPC   C3B 6993  13.649   4.625   7.899
  322POPC   C4B 6994  13.273   4.659   7.707
  323POPC   NC3 6995  13.434  36.506   9.494
  323POPC   PO4 6996  13.697  37.176   9.446
  323POPC   GL1 6997  13.454  36.921   9.185
  323POPC   GL2 6998  13.701  36.740   9.117
  323POPC   C1A 6999  13.349  36.646   8.776
  323POPC   D2A 7000  13.532  36.720   8.372
  323POPC   C3A 7001  13.425  36.526   7.987
  323POPC   C4A 7002  13.434  36.796   7.626
  323POPC   C1B 7003  13.686  37.039   8.759
  323POPC   C2B 7004  13.957  37.072   8.413
  323POPC   C3B 7005  14.025  37.241   7.988
  323POPC   C4B 7006  13.815  37.111   7.657
  324POPC   NC3 7007  36.411   2.027   9.861
  324POPC   PO4 7008  37.070   2.029   9.621
  324POPC   GL1 7009  37.052   1.980   9.182
  324POPC   GL2 7010  36.817   2.247   9.177
  324POPC   C1A 7011  36.816   1.925   8.784
  324POPC   D2A 7012  36.810   1.589   8.505
  324POPC   C3A 7013  36.882   1.741   8.104
  324POPC   C4A 7014  36.901   1.935   7.715
  324POPC   C1B 7015  36.745   2.430   8.782
  324POPC   C2B 7016  36.672   2.214   8.356
  324POPC   C3B 7017  36.747   2.369   7.946
  324POPC   C4B 7018  36.564   2.407   7.561
  325POPC   NC3 7019  12.439  40.858   9.629
  325POPC   PO4 7020  11.883  41.145   9.600
  325POPC   GL1 7021  12.129  41.013   9.232
  325POPC   GL2 7022  12.204  40.652   9.222
  325POPC   C1A 7023  11.951  41.022   8.836
  325POPC   D2A 7024  11.984  40.837   8.459
  325POPC   C3A 7025  12.180  41.097   8.159
  325POPC   C4A 7026  12.104  40.980   7.778
  325POPC   C1B 7027  12.047  40.489   8.842
  325POPC   C2B 7028  12.187  40.331   8.454
  325POPC   C3B 7029  12.122  40.546   8.055
  325POPC   C4B 7030  12.198  40.521   7.606
  326POPC   NC3 7031  23.171  21.449   9.533
  326POPC   PO4 7032  22.491  21.385   9.510
  326POPC   GL1 7033  22.666  21.546   9.125
  326POPC   GL2 7034  22.980  21.353   9.075
  326POPC   C1A 7035  22.754  21.585   8.672
  326POPC   D2A 7036  22.562  21.703   8.298
  326POPC   C3A 7037  22.574  21.452   8.013
  326POPC   C4A 7038  22.950  21.472   7.873
  326POPC   C1B 7039  22.908  21.082   8.702
  326POPC   C2B 7040  22.877  21.105   8.240
  326POPC   C3B 7041  23.203  21.055   7.887
  326POPC   C4B 7042  23.238  21.285   7.481
  327POPC   NC3 7043  34.939   8.417   9.461
  327POPC   PO4 7044  34.957   7.742   9.600
  327POPC   GL1 7045  34.742   7.902   9.225
  327POPC   GL2 7046  34.498   8.201   9.181
  327POPC   C1A 7047  34.719   7.976   8.782
  327POPC   D2A 7048  34.722   8.159   8.385
  327POPC   C3A 7049  34.647   7.902   8.016
  327POPC   C4A 7050  34.806   8.108   7.710
  327POPC   C1B 7051  34.529   8.474   8.806
  327POPC   C2B 7052  34.399   8.571   8.390
  327POPC   C3B 7053  34.567   8.489   8.005
  327POPC   C4B 7054  34.355   8.336   7.678
  328POPC   NC3 7055  11.828  32.921   9.442
  328POPC   PO4 7056  12.378  32.709   9.505
  328POPC   GL1 7057  12.279  32.863   9.102
  328POPC   GL2 7058  11.952  32.803   8.967
  328POPC   C1A 7059  12.322  33.021   8.687
  328POPC   D2A 7060  12.340  32.738   8.358
  328POPC   C3A 7061  12.193  32.963   8.052
  328POPC   C4A 7062  12.024  33.110   7.679
  328POPC   C1B 7063  11.877  32.668   8.549
  328POPC   C2B 7064  11.723  32.984   8.254
  328POPC   C3B 7065  11.558  33.116   7.833
  328POPC   C4B 7066  11.561  32.947   7.405
  329POPC   NC3 7067  36.553  26.825   9.582
  329POPC   PO4 7068  36.949  26.384   9.498
  329POPC   GL1 7069  36.814  26.625   9.181
  329POPC   GL2 7070  37.119  26.718   9.098
  329POPC   C1A 7071  36.716  26.753   8.761
  329POPC   D2A 7072  36.623  27.159   8.586
  329POPC   C3A 7073  36.445  27.100   8.189
  329POPC   C4A 7074  36.630  27.023   7.813
  329POPC   C1B 7075  37.203  26.803   8.677
  329POPC   C2B 7076  36.971  26.781   8.279
  329POPC   C3B 7077  37.045  26.729   7.840
  329POPC   C4B 7078  37.278  26.812   7.467
  330POPC   NC3 7079  22.118  22.697   9.449
  330POPC   PO4 7080  22.384  23.385   9.616
  330POPC   GL1 7081  22.342  23.134   9.248
  330POPC   GL2 7082  21.995  23.160   9.250
  330POPC   C1A 7083  22.406  22.970   8.814
  330POPC   D2A 7084  22.182  22.808   8.443
  330POPC   C3A 7085  22.395  22.876   8.047
  330POPC   C4A 7086  22.216  22.829   7.659
  330POPC   C1B 7087  21.901  23.010   8.848
  330POPC   C2B 7088  21.833  23.225   8.453
  330POPC   C3B 7089  21.911  23.083   8.037
  330POPC   C4B 7090  21.866  23.210   7.615
  331POPC   NC3 7091  38.210   9.190   9.789
  331POPC   PO4 7092  38.467   8.626   9.568
  331POPC   GL1 7093  38.465   8.800   9.171
  331POPC   GL2 7094  38.163   8.647   9.141
  331POPC   C1A 7095  38.548   8.959   8.729
  331POPC   D2A 7096  38.805   8.961   8.361
  331POPC   C3A 7097  38.598   9.130   8.039
  331POPC   C4A 7098  38.642   9.011   7.621
  331POPC   C1B 7099  38.039   8.830   8.765
  331POPC   C2B 7100  38.143   9.031   8.408
  331POPC   C3B 7101  38.171   8.855   8.019
  331POPC   C4B 7102  38.157   9.070   7.692
  332POPC   NC3 7103  14.957  44.270   9.534
  332POPC   PO4 7104  15.463  43.863   9.456
  332POPC   GL1 7105  15.273  44.090   9.138
  332POPC   GL2 7106  14.965  43.900   9.184
  332POPC   C1A 7107  15.400  44.122   8.692
  332POPC   D2A 7108  15.318  44.291   8.271
  332POPC   C3A 7109  15.285  43.960   7.962
  332POPC   C4A 7110  15.101  43.555   8.031
  332POPC   C1B 7111  14.873  44.084   8.791
  332POPC   C2B 7112  14.921  43.960   8.355
  332POPC   C3B 7113  14.782  44.020   7.923
  332POPC   C4B 7114  14.987  43.959   7.524
  333POPC   NC3 7115  44.415   9.153   9.192
  333POPC   PO4 7116  44.965   8.838   9.450
  333POPC   GL1 7117  44.829   8.834   9.055
  333POPC   GL2 7118  44.912   9.151   9.036
  333POPC   C1A 7119  44.722   8.970   8.631
  333POPC   D2A 7120  44.640   9.243   8.297
  333POPC   C3A 7121  44.404   8.962   8.036
  333POPC   C4A 7122  44.715   8.830   7.771
  333POPC   C1B 7123   0.115   9.307   8.678
  333POPC   C2B 7124   0.125   9.551   8.296
  333POPC   C3B 7125   0.092   9.353   7.883
  333POPC   C4B 7126  44.975   9.266   7.452
  334POPC   NC3 7127  33.235  16.961   9.462
  334POPC   PO4 7128  32.714  16.582   9.414
  334POPC   GL1 7129  32.859  16.846   9.149
  334POPC   GL2 7130  33.160  16.618   9.092
  334POPC   C1A 7131  32.782  17.007   8.775
  334POPC   D2A 7132  32.984  17.061   8.385
  334POPC   C3A 7133  32.990  16.718   8.088
  334POPC   C4A 7134  32.794  16.610   7.698
  334POPC   C1B 7135  33.489  16.464   8.813
  334POPC   C2B 7136  33.506  16.311   8.412
  334POPC   C3B 7137  33.425  16.427   8.050
  334POPC   C4B 7138  33.296  16.220   7.702
  335POPC   NC3 7139  14.318  21.169   9.644
  335POPC   PO4 7140  14.276  21.767   9.570
  335POPC   GL1 7141  14.252  21.484   9.169
  335POPC   GL2 7142  14.568  21.319   9.186
  335POPC   C1A 7143  14.125  21.406   8.724
  335POPC   D2A 7144  14.304  21.290   8.303
  335POPC   C3A 7145  14.189  21.564   7.935
  335POPC   C4A 7146  14.217  21.656   7.463
  335POPC   C1B 7147  14.562  21.080   8.804
  335POPC   C2B 7148  14.588  20.868   8.409
  335POPC   C3B 7149  14.695  21.022   7.995
  335POPC   C4B 7150  14.478  21.243   7.659
  336POPC   NC3 7151   1.477   4.099   9.539
  336POPC   PO4 7152   0.988   4.561   9.388
  336POPC   GL1 7153   1.273   4.332   9.097
  336POPC   GL2 7154   1.635   4.209   9.084
  336POPC   C1A 7155   1.444   4.549   8.744
  336POPC   D2A 7156   1.608   4.606   8.350
  336POPC   C3A 7157   1.300   4.566   8.049
  336POPC   C4A 7158   1.144   4.507   7.641
  336POPC   C1B 7159   1.506   3.998   8.754
  336POPC   C2B 7160   1.613   4.080   8.382
  336POPC   C3B 7161   1.413   4.061   8.050
  336POPC   C4B 7162   1.456   4.112   7.663
  337POPC   NC3 7163  26.639  14.110   9.408
  337POPC   PO4 7164  27.251  14.352   9.573
  337POPC   GL1 7165  26.972  14.443   9.181
  337POPC   GL2 7166  26.620  14.580   9.161
  337POPC   C1A 7167  26.916  14.682   8.780
  337POPC   D2A 7168  26.785  14.514   8.381
  337POPC   C3A 7169  26.975  14.573   7.975
  337POPC   C4A 7170  26.884  14.240   7.700
  337POPC   C1B 7171  26.446  14.382   8.773
  337POPC   C2B 7172  26.252  14.469   8.361
  337POPC   C3B 7173  26.461  14.479   7.963
  337POPC   C4B 7174  26.378  14.277   7.583
  338POPC   NC3 7175  34.889   3.451   9.584
  338POPC   PO4 7176  35.478   3.703   9.450
  338POPC   GL1 7177  35.157   3.663   9.185
  338POPC   GL2 7178  35.202   3.306   9.149
  338POPC   C1A 7179  35.087   3.766   8.768
  338POPC   D2A 7180  35.150   3.472   8.411
  338POPC   C3A 7181  35.086   3.720   8.063
  338POPC   C4A 7182  35.174   3.808   7.642
  338POPC   C1B 7183  35.485   3.444   8.806
  338POPC   C2B 7184  35.702   3.441   8.405
  338POPC   C3B 7185  35.574   3.550   7.977
  338POPC   C4B 7186  35.266   3.293   7.764
  339POPC   NC3 7187  20.277  18.396   9.463
  339POPC   PO4 7188  20.895  18.068   9.344
  339POPC   GL1 7189  20.609  18.214   9.104
  339POPC   GL2 7190  20.703  18.519   9.016
  339POPC   C1A 7191  20.512  18.149   8.689
  339POPC   D2A 7192  20.442  17.828   8.381
  339POPC   C3A 7193  20.559  18.028   7.964
  339POPC   C4A 7194  20.747  17.795   7.656
  339POPC   C1B 7195  21.037  18.676   8.784
  339POPC   C2B 7196  20.909  18.558   8.416
  339POPC   C3B 7197  20.732  18.502   8.056
  339POPC   C4B 7198  20.412  18.536   7.741
  340POPC   NC3 7199  16.594  18.667   9.359
  340POPC   PO4 7200  16.874  18.108   9.474
  340POPC   GL1 7201  16.709  18.217   9.104
  340POPC   GL2 7202  16.389  18.192   9.174
  340POPC   C1A 7203  16.619  18.068   8.706
  340POPC   D2A 7204  16.852  18.090   8.360
  340POPC   C3A 7205  16.797  18.502   8.225
  340POPC   C4A 7206  16.768  18.483   7.800
  340POPC   C1B 7207  16.305  18.451   8.800
  340POPC   C2B 7208  16.250  18.397   8.354
  340POPC   C3B 7209  16.373  18.192   7.971
  340POPC   C4B 7210  16.404  18.241   7.523
  341POPC   NC3 7211  19.542  41.582   9.369
  341POPC   PO4 7212  20.013  41.634   9.894
  341POPC   GL1 7213  20.035  41.590   9.314
  341POPC   GL2 7214  19.787  41.860   9.048
  341POPC   C1A 7215  20.060  41.543   8.808
  341POPC   D2A 7216  20.228  41.794   8.450
  341POPC   C3A 7217  19.958  41.703   8.077
  341POPC   C4A 7218  19.997  41.311   7.832
  341POPC   C1B 7219  19.746  41.939   8.598
  341POPC   C2B 7220  19.491  41.720   8.296
  341POPC   C3B 7221  19.509  41.361   8.046
  341POPC   C4B 7222  19.575  41.600   7.711
  342POPC   NC3 7223   0.147  44.159   9.482
  342POPC   PO4 7224   0.759  43.899   9.553
  342POPC   GL1 7225   0.487  43.867   9.198
  342POPC   GL2 7226   0.503  44.224   9.129
  342POPC   C1A 7227   0.423  43.917   8.745
  342POPC   D2A 7228   0.631  43.703   8.445
  342POPC   C3A 7229   0.582  43.936   8.095
  342POPC   C4A 7230   0.353  43.730   7.783
  342POPC   C1B 7231   0.107  44.300   8.809
  342POPC   C2B 7232   0.044  44.122   8.350
  342POPC   C3B 7233   0.211  44.221   7.914
  342POPC   C4B 7234   0.344  44.165   7.495
  343POPC   NC3 7235  28.311   5.345   9.552
  343POPC   PO4 7236  28.211   4.712   9.312
  343POPC   GL1 7237  28.275   5.054   9.059
  343POPC   GL2 7238  28.608   5.157   9.184
  343POPC   C1A 7239  28.187   4.932   8.594
  343POPC   D2A 7240  28.363   4.728   8.203
  343POPC   C3A 7241  28.234   4.942   7.844
  343POPC   C4A 7242  28.279   5.367   7.925
  343POPC   C1B 7243  28.674   5.016   8.751
  343POPC   C2B 7244  28.587   5.191   8.335
  343POPC   C3B 7245  28.719   5.042   7.941
  343POPC   C4B 7246  28.699   5.037   7.484
  344POPC   NC3 7247  39.953  15.741   9.493
  344POPC   PO4 7248  39.694  16.358   9.177
  344POPC   GL1 7249  39.977  16.229   8.908
  344POPC   GL2 7250  39.995  15.888   9.012
  344POPC   C1A 7251  39.907  16.051   8.502
  344POPC   D2A 7252  40.003  15.634   8.401
  344POPC   C3A 7253  40.005  15.721   8.021
  344POPC   C4A 7254  39.746  16.082   7.873
  344POPC   C1B 7255  40.324  15.880   8.713
  344POPC   C2B 7256  40.427  16.136   8.359
  344POPC   C3B 7257  40.266  16.170   7.959
  344POPC   C4B 7258  40.153  15.949   7.597
  345POPC   NC3 7259   1.381  19.968   9.433
  345POPC   PO4 7260   0.607  20.077   9.380
  345POPC   GL1 7261   0.970  20.017   9.111
  345POPC   GL2 7262   1.187  20.297   9.085
  345POPC   C1A 7263   1.175  19.846   8.742
  345POPC   D2A 7264   0.910  19.961   8.388
  345POPC   C3A 7265   0.884  19.834   7.959
  345POPC   C4A 7266   1.196  19.540   7.788
  345POPC   C1B 7267   1.126  20.345   8.658
  345POPC   C2B 7268   1.312  20.247   8.243
  345POPC   C3B 7269   1.217  20.192   7.810
  345POPC   C4B 7270   1.390  20.044   7.426
  346POPC   NC3 7271  42.903  12.178   9.581
  346POPC   PO4 7272  43.532  12.065   9.756
  346POPC   GL1 7273  43.277  11.982   9.291
  346POPC   GL2 7274  43.001  12.171   9.096
  346POPC   C1A 7275  43.258  11.846   8.817
  346POPC   D2A 7276  43.270  12.083   8.420
  346POPC   C3A 7277  43.151  11.958   8.039
  346POPC   C4A 7278  43.310  11.688   7.745
  346POPC   C1B 7279  42.981  12.368   8.710
  346POPC   C2B 7280  42.776  12.314   8.324
  346POPC   C3B 7281  42.905  12.357   7.892
  346POPC   C4B 7282  42.996  12.116   7.526
  347POPC   NC3 7283  18.721  27.289   9.446
  347POPC   PO4 7284  19.277  26.886   9.506
  347POPC   GL1 7285  19.104  26.745   9.084
  347POPC   GL2 7286  18.814  26.951   9.076
  347POPC   C1A 7287  19.096  26.793   8.658
  347POPC   D2A 7288  19.114  27.044   8.332
  347POPC   C3A 7289  19.242  26.806   8.031
  347POPC   C4A 7290  19.415  26.728   7.651
  347POPC   C1B 7291  18.638  26.979   8.638
  347POPC   C2B 7292  18.649  27.237   8.279
  347POPC   C3B 7293  18.722  26.946   7.949
  347POPC   C4B 7294  18.917  26.679   7.679
  348POPC   NC3 7295   6.069  43.760   9.255
  348POPC   PO4 7296   5.641  44.218   9.481
  348POPC   GL1 7297   5.741  44.078   9.051
  348POPC   GL2 7298   6.076  44.168   8.934
  348POPC   C1A 7299   5.812  43.766   8.684
  348POPC   D2A 7300   5.657  43.618   8.335
  348POPC   C3A 7301   5.641  43.940   8.061
  348POPC   C4A 7302   5.669  43.787   7.690
  348POPC   C1B 7303   6.307  43.916   8.624
  348POPC   C2B 7304   6.130  43.841   8.213
  348POPC   C3B 7305   6.160  43.925   7.772
  348POPC   C4B 7306   6.400  43.813   7.383
  349POPC   NC3 7307  41.287  44.775   9.571
  349POPC   PO4 7308  40.748  44.406   9.483
  349POPC   GL1 7309  40.679  44.610   9.109
  349POPC   GL2 7310  40.959  44.833   9.140
  349POPC   C1A 7311  40.619  44.433   8.705
  349POPC   D2A 7312  40.925  44.344   8.401
  349POPC   C3A 7313  40.809  44.442   8.035
  349POPC   C4A 7314  40.716  44.550   7.646
  349POPC   C1B 7315  40.831  44.891   8.720
  349POPC   C2B 7316  40.990  44.857   8.336
  349POPC   C3B 7317  40.865  44.949   7.938
  349POPC   C4B 7318  41.111  44.864   7.553
  350POPC   NC3 7319  42.718   8.113   9.453
  350POPC   PO4 7320  43.309   7.840   9.394
  350POPC   GL1 7321  43.115   8.213   9.106
  350POPC   GL2 7322  42.731   8.366   9.035
  350POPC   C1A 7323  43.029   8.267   8.658
  350POPC   D2A 7324  42.961   8.002   8.329
  350POPC   C3A 7325  42.997   8.233   7.965
  350POPC   C4A 7326  43.337   8.193   7.724
  350POPC   C1B 7327  42.626   7.972   8.761
  350POPC   C2B 7328  42.491   7.834   8.313
  350POPC   C3B 7329  42.719   7.797   7.906
  350POPC   C4B 7330  42.766   7.860   7.453
  351POPC   NC3 7331  11.439  41.101   9.520
  351POPC   PO4 7332  10.895  41.565   9.596
  351POPC   GL1 7333  10.973  41.511   9.162
  351POPC   GL2 7334  11.258  41.313   9.100
  351POPC   C1A 7335  11.269  41.745   8.811
  351POPC   D2A 7336  11.291  41.901   8.392
  351POPC   C3A 7337  11.537  41.721   8.110
  351POPC   C4A 7338  11.440  41.958   7.780
  351POPC   C1B 7339  11.020  41.307   8.718
  351POPC   C2B 7340  11.279  41.367   8.398
  351POPC   C3B 7341  11.215  41.272   8.023
  351POPC   C4B 7342  11.340  41.481   7.678
  352POPC   NC3 7343   0.498  25.466   9.578
  352POPC   PO4 7344   0.838  24.908   9.336
  352POPC   GL1 7345   0.566  25.207   9.114
  352POPC   GL2 7346   0.184  25.127   9.123
  352POPC   C1A 7347   0.490  25.298   8.679
  352POPC   D2A 7348   0.737  25.516   8.345
  352POPC   C3A 7349   0.583  25.332   7.989
  352POPC   C4A 7350   0.606  25.209   7.580
  352POPC   C1B 7351   0.007  25.416   8.827
  352POPC   C2B 7352   0.092  25.554   8.446
  352POPC   C3B 7353   0.054  25.580   8.066
  352POPC   C4B 7354   0.123  25.244   7.815
  353POPC   NC3 7355   9.502  10.875   9.477
  353POPC   PO4 7356  10.100  10.786   9.391
  353POPC   GL1 7357   9.808  10.601   9.105
  353POPC   GL2 7358   9.549  10.800   8.985
  353POPC   C1A 7359   9.634  10.353   8.760
  353POPC   D2A 7360   9.404  10.368   8.376
  353POPC   C3A 7361   9.553  10.485   7.988
  353POPC   C4A 7362   9.619  10.200   7.608
  353POPC   C1B 7363   9.237  10.969   8.703
  353POPC   C2B 7364   9.097  10.796   8.307
  353POPC   C3B 7365   9.209  10.838   7.860
  353POPC   C4B 7366   9.568  10.746   7.562
  354POPC   NC3 7367  19.960  19.342   9.392
  354POPC   PO4 7368  19.928  18.715   9.490
  354POPC   GL1 7369  19.777  18.942   9.119
  354POPC   GL2 7370  19.494  19.180   9.130
  354POPC   C1A 7371  19.849  19.232   8.741
  354POPC   D2A 7372  20.150  19.296   8.395
  354POPC   C3A 7373  20.108  19.430   7.956
  354POPC   C4A 7374  19.979  19.205   7.556
  354POPC   C1B 7375  19.446  18.891   8.748
  354POPC   C2B 7376  19.572  18.995   8.348
  354POPC   C3B 7377  19.654  19.128   7.939
  354POPC   C4B 7378  19.514  19.019   7.538
  355POPC   NC3 7379  19.627  30.758   9.425
  355POPC   PO4 7380  19.834  30.151   9.628
  355POPC   GL1 7381  19.978  30.505   9.165
  355POPC   GL2 7382  19.936  30.884   9.015
  355POPC   C1A 7383  19.741  30.601   8.679
  355POPC   D2A 7384  19.462  30.752   8.399
  355POPC   C3A 7385  19.638  30.666   7.998
  355POPC   C4A 7386  19.642  30.917   7.645
  355POPC   C1B 7387  20.212  30.808   8.675
  355POPC   C2B 7388  20.058  30.771   8.281
  355POPC   C3B 7389  20.101  30.946   7.877
  355POPC   C4B 7390  20.132  30.794   7.461
  356POPC   NC3 7391  38.946  34.028   9.499
  356POPC   PO4 7392  39.572  33.668   9.451
  356POPC   GL1 7393  39.345  33.904   9.175
  356POPC   GL2 7394  39.075  33.671   9.155
  356POPC   C1A 7395  39.265  33.906   8.723
  356POPC   D2A 7396  39.561  33.956   8.395
  356POPC   C3A 7397  39.484  33.814   7.953
  356POPC   C4A 7398  39.496  33.878   7.499
  356POPC   C1B 7399  38.924  33.504   8.768
  356POPC   C2B 7400  39.071  33.505   8.376
  356POPC   C3B 7401  38.988  33.657   8.002
  356POPC   C4B 7402  39.130  33.495   7.631
  357POPC   NC3 7403  12.327  18.113   9.312
  357POPC   PO4 7404  11.888  18.473   9.638
  357POPC   GL1 7405  11.895  18.450   9.128
  357POPC   GL2 7406  11.988  18.124   8.894
  357POPC   C1A 7407  11.635  18.417   8.706
  357POPC   D2A 7408  11.847  18.351   8.323
  357POPC   C3A 7409  11.909  18.113   7.975
  357POPC   C4A 7410  12.100  18.325   7.683
  357POPC   C1B 7411  12.298  18.259   8.582
  357POPC   C2B 7412  12.382  18.251   8.134
  357POPC   C3B 7413  12.408  17.946   7.796
  357POPC   C4B 7414  12.376  18.044   7.339
  358POPC   NC3 7415  25.425  18.134   9.480
  358POPC   PO4 7416  24.814  18.489   9.524
  358POPC   GL1 7417  25.113  18.501   9.179
  358POPC   GL2 7418  25.115  18.173   9.047
  358POPC   C1A 7419  25.152  18.571   8.726
  358POPC   D2A 7420  25.187  18.363   8.358
  358POPC   C3A 7421  25.076  18.490   7.986
  358POPC   C4A 7422  25.170  18.162   7.644
  358POPC   C1B 7423  25.277  17.962   8.649
  358POPC   C2B 7424  25.544  17.864   8.327
  358POPC   C3B 7425  25.549  17.974   7.917
  358POPC   C4B 7426  25.632  18.032   7.477
  359POPC   NC3 7427  34.209   6.729   9.505
  359POPC   PO4 7428  34.056   7.445   9.505
  359POPC   GL1 7429  33.809   7.377   9.157
  359POPC   GL2 7430  33.675   7.026   9.183
  359POPC   C1A 7431  33.755   7.674   8.824
  359POPC   D2A 7432  33.868   7.840   8.422
  359POPC   C3A 7433  33.701   7.687   8.059
  359POPC   C4A 7434  33.827   7.490   7.690
  359POPC   C1B 7435  33.953   7.047   8.820
  359POPC   C2B 7436  33.878   7.317   8.478
  359POPC   C3B 7437  33.810   7.174   8.081
  359POPC   C4B 7438  33.438   7.169   7.847
  360POPC   NC3 7439  38.412   2.367   9.229
  360POPC   PO4 7440  38.654   1.789   9.506
  360POPC   GL1 7441  38.509   1.847   9.142
  360POPC   GL2 7442  38.842   2.043   9.115
  360POPC   C1A 7443  38.269   1.936   8.766
  360POPC   D2A 7444  38.457   1.794   8.410
  360POPC   C3A 7445  38.387   2.074   8.114
  360POPC   C4A 7446  38.248   1.895   7.781
  360POPC   C1B 7447  38.805   1.942   8.737
  360POPC   C2B 7448  38.854   2.106   8.350
  360POPC   C3B 7449  38.828   1.857   7.964
  360POPC   C4B 7450  38.682   2.129   7.672
  361POPC   NC3 7451  14.332  14.727   9.399
  361POPC   PO4 7452  14.471  14.080   9.444
  361POPC   GL1 7453  14.407  14.230   8.996
  361POPC   GL2 7454  14.262  14.587   8.924
  361POPC   C1A 7455  14.653  14.407   8.630
  361POPC   D2A 7456  14.704  14.561   8.220
  361POPC   C3A 7457  14.585  14.274   7.953
  361POPC   C4A 7458  14.672  14.133   7.582
  361POPC   C1B 7459  14.302  14.765   8.510
  361POPC   C2B 7460  14.180  14.473   8.163
  361POPC   C3B 7461  14.205  14.507   7.682
  361POPC   C4B 7462  14.138  14.696   7.214
  362POPC   NC3 7463   1.809  10.633   9.466
  362POPC   PO4 7464   1.911  10.065   9.239
  362POPC   GL1 7465   1.897  10.426   9.002
  362POPC   GL2 7466   2.237  10.510   9.016
  362POPC   C1A 7467   1.915  10.692   8.625
  362POPC   D2A 7468   1.616  10.741   8.281
  362POPC   C3A 7469   1.850  10.611   7.949
  362POPC   C4A 7470   2.263  10.804   7.990
  362POPC   C1B 7471   2.250  10.208   8.679
  362POPC   C2B 7472   2.195  10.328   8.260
  362POPC   C3B 7473   2.125  10.157   7.875
  362POPC   C4B 7474   2.391  10.290   7.585
  363POPC   NC3 7475  23.103  39.012   9.400
  363POPC   PO4 7476  22.476  39.326   9.516
  363POPC   GL1 7477  22.682  39.373   9.135
  363POPC   GL2 7478  22.610  39.024   9.081
  363POPC   C1A 7479  22.946  39.240   8.765
  363POPC   D2A 7480  23.025  39.063   8.345
  363POPC   C3A 7481  22.896  39.402   8.060
  363POPC   C4A 7482  23.035  39.467   7.651
  363POPC   C1B 7483  22.548  38.901   8.662
  363POPC   C2B 7484  22.527  39.055   8.244
  363POPC   C3B 7485  22.691  39.014   7.813
  363POPC   C4B 7486  22.910  38.920   7.407
  364POPC   NC3 7487  31.794  15.323   9.576
  364POPC   PO4 7488  31.375  14.855   9.399
  364POPC   GL1 7489  31.348  15.119   9.066
  364POPC   GL2 7490  31.404  15.446   9.232
  364POPC   C1A 7491  31.671  15.131   8.766
  364POPC   D2A 7492  31.818  14.940   8.406
  364POPC   C3A 7493  31.466  14.864   8.147
  364POPC   C4A 7494  31.395  15.124   7.814
  364POPC   C1B 7495  31.406  15.563   8.788
  364POPC   C2B 7496  31.429  15.387   8.355
  364POPC   C3B 7497  31.304  15.597   7.966
  364POPC   C4B 7498  31.074  15.554   7.539
  365POPC   NC3 7499  33.880  11.439   9.677
  365POPC   PO4 7500  33.501  10.915   9.550
  365POPC   GL1 7501  33.790  11.171   9.225
  365POPC   GL2 7502  33.864  11.556   9.164
  365POPC   C1A 7503  33.831  11.224   8.772
  365POPC   D2A 7504  33.568  11.341   8.428
  365POPC   C3A 7505  33.716  11.256   8.027
  365POPC   C4A 7506  33.578  11.591   7.788
  365POPC   C1B 7507  34.065  11.704   8.776
  365POPC   C2B 7508  34.037  11.531   8.381
  365POPC   C3B 7509  34.029  11.686   7.983
  365POPC   C4B 7510  34.106  11.450   7.617
  366POPC   NC3 7511   8.901  27.145   9.561
  366POPC   PO4 7512   9.350  26.655   9.613
  366POPC   GL1 7513   9.193  26.946   9.185
  366POPC   GL2 7514   8.807  27.095   9.077
  366POPC   C1A 7515   9.182  26.865   8.711
  366POPC   D2A 7516   9.011  26.717   8.302
  366POPC   C3A 7517   9.150  26.718   7.842
  366POPC   C4A 7518   9.119  26.387   7.539
  366POPC   C1B 7519   8.645  26.945   8.690
  366POPC   C2B 7520   8.488  26.701   8.343
  366POPC   C3B 7521   8.666  26.829   7.952
  366POPC   C4B 7522   8.647  26.683   7.558
  367POPC   NC3 7523  12.956  41.812   9.828
  367POPC   PO4 7524  12.826  42.267   9.383
  367POPC   GL1 7525  12.869  42.273   8.987
  367POPC   GL2 7526  12.845  42.636   9.001
  367POPC   C1A 7527  12.636  42.368   8.623
  367POPC   D2A 7528  12.341  42.347   8.299
  367POPC   C3A 7529  12.692  42.367   7.992
  367POPC   C4A 7530  12.673  42.281   7.556
  367POPC   C1B 7531  13.138  42.605   8.718
  367POPC   C2B 7532  13.011  42.682   8.338
  367POPC   C3B 7533  13.164  42.690   7.965
  367POPC   C4B 7534  12.897  42.738   7.665
  368POPC   NC3 7535  17.887   9.856   9.517
  368POPC   PO4 7536  18.505  10.097   9.430
  368POPC   GL1 7537  18.378   9.863   9.090
  368POPC   GL2 7538  18.095   9.693   9.077
  368POPC   C1A 7539  18.459   9.796   8.672
  368POPC   D2A 7540  18.226   9.875   8.322
  368POPC   C3A 7541  18.403   9.886   7.970
  368POPC   C4A 7542  18.266  10.071   7.626
  368POPC   C1B 7543  17.989   9.555   8.661
  368POPC   C2B 7544  17.769   9.669   8.287
  368POPC   C3B 7545  17.954   9.632   7.929
  368POPC   C4B 7546  17.965   9.305   7.666
  369POPC   NC3 7547  13.299  22.356   9.304
  369POPC   PO4 7548  12.716  22.631   9.428
  369POPC   GL1 7549  12.810  22.266   9.153
  369POPC   GL2 7550  12.980  22.451   8.906
  369POPC   C1A 7551  12.997  21.949   8.808
  369POPC   D2A 7552  12.834  21.867   8.374
  369POPC   C3A 7553  12.936  22.220   8.076
  369POPC   C4A 7554  13.109  22.192   7.654
  369POPC   C1B 7555  12.620  22.269   8.673
  369POPC   C2B 7556  12.454  22.264   8.278
  369POPC   C3B 7557  12.489  22.209   7.821
  369POPC   C4B 7558  12.630  22.279   7.413
  370POPC   NC3 7559  12.643  30.706   9.470
  370POPC   PO4 7560  13.203  31.070   9.564
  370POPC   GL1 7561  13.058  30.892   9.194
  370POPC   GL2 7562  13.035  30.532   9.158
  370POPC   C1A 7563  13.160  30.857   8.777
  370POPC   D2A 7564  13.036  30.571   8.467
  370POPC   C3A 7565  13.085  30.700   8.103
  370POPC   C4A 7566  13.044  30.523   7.751
  370POPC   C1B 7567  12.686  30.626   8.834
  370POPC   C2B 7568  12.561  30.389   8.459
  370POPC   C3B 7569  12.590  30.530   8.046
  370POPC   C4B 7570  12.343  30.454   7.714
  371POPC   NC3 7571  11.120   7.564   9.524
  371POPC   PO4 7572  11.583   7.124   9.578
  371POPC   GL1 7573  11.322   7.181   9.198
  371POPC   GL2 7574  11.422   7.524   9.100
  371POPC   C1A 7575  11.131   7.294   8.779
  371POPC   D2A 7576  11.243   7.587   8.461
  371POPC   C3A 7577  11.169   7.412   8.063
  371POPC   C4A 7578  10.930   7.520   7.728
  371POPC   C1B 7579  11.546   7.861   8.760
  371POPC   C2B 7580  11.602   8.045   8.379
  371POPC   C3B 7581  11.383   7.879   8.041
  371POPC   C4B 7582  11.424   7.650   7.684
  372POPC   NC3 7583  34.507  21.575   9.540
  372POPC   PO4 7584  34.595  20.913   9.558
  372POPC   GL1 7585  34.518  21.151   9.210
  372POPC   GL2 7586  34.812  21.357   9.170
  372POPC   C1A 7587  34.343  21.282   8.814
  372POPC   D2A 7588  34.480  21.531   8.458
  372POPC   C3A 7589  34.393  21.464   8.053
  372POPC   C4A 7590  34.289  21.569   7.637
  372POPC   C1B 7591  34.741  21.712   8.845
  372POPC   C2B 7592  34.827  21.882   8.374
  372POPC   C3B 7593  34.803  21.727   7.922
  372POPC   C4B 7594  34.728  21.362   7.639
  373POPC   NC3 7595   4.446  23.566   9.557
  373POPC   PO4 7596   4.379  24.206   9.343
  373POPC   GL1 7597   4.439  23.861   9.110
  373POPC   GL2 7598   4.127  23.697   9.151
  373POPC   C1A 7599   4.375  23.696   8.698
  373POPC   D2A 7600   4.288  23.440   8.346
  373POPC   C3A 7601   4.542  23.464   7.948
  373POPC   C4A 7602   4.672  23.718   7.549
  373POPC   C1B 7603   3.999  24.019   8.836
  373POPC   C2B 7604   3.867  24.035   8.401
  373POPC   C3B 7605   4.167  23.902   8.097
  373POPC   C4B 7606   4.156  23.713   7.696
  374POPC   NC3 7607  20.265   1.062   9.669
  374POPC   PO4 7608  20.753   1.534   9.454
  374POPC   GL1 7609  20.486   1.352   9.117
  374POPC   GL2 7610  20.357   0.995   9.155
  374POPC   C1A 7611  20.483   1.490   8.663
  374POPC   D2A 7612  20.804   1.386   8.374
  374POPC   C3A 7613  20.730   1.422   7.926
  374POPC   C4A 7614  20.350   1.531   7.680
  374POPC   C1B 7615  20.495   0.996   8.703
  374POPC   C2B 7616  20.393   1.082   8.231
  374POPC   C3B 7617  20.554   0.915   7.827
  374POPC   C4B 7618  20.752   0.732   7.433
  375POPC   NC3 7619   3.155  39.871   9.295
  375POPC   PO4 7620   3.801  39.960   9.434
  375POPC   GL1 7621   3.592  40.011   9.070
  375POPC   GL2 7622   3.437  40.317   9.020
  375POPC   C1A 7623   3.368  39.974   8.670
  375POPC   D2A 7624   3.405  40.206   8.300
  375POPC   C3A 7625   3.368  39.884   8.019
  375POPC   C4A 7626   3.477  39.799   7.613
  375POPC   C1B 7627   3.774  40.293   8.698
  375POPC   C2B 7628   3.951  40.138   8.283
  375POPC   C3B 7629   3.762  40.169   7.874
  375POPC   C4B 7630   3.377  40.326   7.762
  376POPC   NC3 7631  12.368  15.521   9.501
  376POPC   PO4 7632  12.312  16.100   9.619
  376POPC   GL1 7633  12.024  16.019   9.272
  376POPC   GL2 7634  11.921  15.676   9.204
  376POPC   C1A 7635  12.024  16.045   8.826
  376POPC   D2A 7636  12.099  15.904   8.411
  376POPC   C3A 7637  12.141  16.205   8.072
  376POPC   C4A 7638  11.949  16.302   7.676
  376POPC   C1B 7639  12.173  15.540   8.822
  376POPC   C2B 7640  12.255  15.405   8.399
  376POPC   C3B 7641  12.134  15.587   8.000
  376POPC   C4B 7642  12.304  15.883   7.730
  377POPC   NC3 7643  17.848  23.611   9.360
  377POPC   PO4 7644  17.102  23.662   9.495
  377POPC   GL1 7645  17.386  23.714   9.172
  377POPC   GL2 7646  17.420  23.344   9.209
  377POPC   C1A 7647  17.615  23.932   8.808
  377POPC   D2A 7648  17.619  24.167   8.407
  377POPC   C3A 7649  17.522  23.897   8.023
  377POPC   C4A 7650  17.636  23.742   7.605
  377POPC   C1B 7651  17.486  23.423   8.766
  377POPC   C2B 7652  17.528  23.397   8.332
  377POPC   C3B 7653  17.573  23.335   7.925
  377POPC   C4B 7654  17.229  23.432   7.668
  378POPC   NC3 7655  38.541   8.247   9.814
  378POPC   PO4 7656  38.768   7.679   9.458
  378POPC   GL1 7657  38.545   7.975   9.194
  378POPC   GL2 7658  38.586   8.290   9.203
  378POPC   C1A 7659  38.356   7.962   8.804
  378POPC   D2A 7660  38.542   8.046   8.418
  378POPC   C3A 7661  38.307   7.879   8.091
  378POPC   C4A 7662  38.469   7.963   7.703
  378POPC   C1B 7663  38.475   8.456   8.788
  378POPC   C2B 7664  38.403   8.575   8.385
  378POPC   C3B 7665  38.598   8.604   7.989
  378POPC   C4B 7666  38.380   8.585   7.601
  379POPC   NC3 7667  12.606  39.205   9.288
  379POPC   PO4 7668  13.192  38.913   9.533
  379POPC   GL1 7669  13.127  39.159   9.127
  379POPC   GL2 7670  12.967  39.504   9.102
  379POPC   C1A 7671  13.010  39.231   8.680
  379POPC   D2A 7672  12.710  39.188   8.347
  379POPC   C3A 7673  12.895  39.447   8.058
  379POPC   C4A 7674  13.174  39.280   7.771
  379POPC   C1B 7675  12.585  39.501   8.731
  379POPC   C2B 7676  12.464  39.653   8.324
  379POPC   C3B 7677  12.385  39.419   7.985
  379POPC   C4B 7678  12.661  39.287   7.632
  380POPC   NC3 7679  15.112  35.983   9.559
  380POPC   PO4 7680  15.609  36.295   9.544
  380POPC   GL1 7681  15.355  36.148   9.149
  380POPC   GL2 7682  14.978  36.222   9.136
  380POPC   C1A 7683  15.282  36.173   8.711
  380POPC   D2A 7684  15.068  36.071   8.337
  380POPC   C3A 7685  15.195  36.290   7.966
  380POPC   C4A 7686  15.171  35.914   7.786
  380POPC   C1B 7687  14.764  36.116   8.758
  380POPC   C2B 7688  14.587  36.299   8.369
  380POPC   C3B 7689  14.711  36.169   7.950
  380POPC   C4B 7690  14.857  36.193   7.494
  381POPC   NC3 7691  40.242  13.497   9.864
  381POPC   PO4 7692  40.006  14.067   9.599
  381POPC   GL1 7693  39.996  13.686   9.320
  381POPC   GL2 7694  39.937  13.909   9.087
  381POPC   C1A 7695  39.925  13.426   8.900
  381POPC   D2A 7696  40.155  13.262   8.505
  381POPC   C3A 7697  40.080  13.488   8.088
  381POPC   C4A 7698  39.849  13.502   7.721
  381POPC   C1B 7699  40.066  14.028   8.733
  381POPC   C2B 7700  39.890  14.047   8.350
  381POPC   C3B 7701  40.031  14.042   7.931
  381POPC   C4B 7702  39.944  14.058   7.479
  382POPC   NC3 7703  21.185   1.777   9.483
  382POPC   PO4 7704  21.667   2.258   9.553
  382POPC   GL1 7705  21.588   1.973   9.189
  382POPC   GL2 7706  21.248   2.004   9.040
  382POPC   C1A 7707  21.638   1.781   8.783
  382POPC   D2A 7708  21.490   1.821   8.383
  382POPC   C3A 7709  21.779   1.947   8.098
  382POPC   C4A 7710  21.685   2.084   7.713
  382POPC   C1B 7711  21.472   2.292   8.784
  382POPC   C2B 7712  21.382   2.366   8.368
  382POPC   C3B 7713  21.279   2.173   7.980
  382POPC   C4B 7714  21.105   2.153   7.539
  383POPC   NC3 7715  42.371   4.013   9.476
  383POPC   PO4 7716  42.560   4.657   9.459
  383POPC   GL1 7717  42.275   4.432   9.166
  383POPC   GL2 7718  42.323   4.113   8.992
  383POPC   C1A 7719  42.289   4.573   8.761
  383POPC   D2A 7720  42.385   4.343   8.409
  383POPC   C3A 7721  42.212   4.440   8.008
  383POPC   C4A 7722  42.526   4.492   7.722
  383POPC   C1B 7723  42.283   3.849   8.637
  383POPC   C2B 7724  42.463   3.874   8.232
  383POPC   C3B 7725  42.328   3.969   7.787
  383POPC   C4B 7726  42.231   3.902   7.312
  384POPC   NC3 7727  17.868  41.566   9.515
  384POPC   PO4 7728  17.237  41.809   9.405
  384POPC   GL1 7729  17.480  41.543   9.139
  384POPC   GL2 7730  17.811  41.496   9.017
  384POPC   C1A 7731  17.351  41.442   8.739
  384POPC   D2A 7732  17.135  41.432   8.338
  384POPC   C3A 7733  17.366  41.535   7.967
  384POPC   C4A 7734  17.381  41.492   7.545
  384POPC   C1B 7735  17.797  41.255   8.644
  384POPC   C2B 7736  17.630  41.224   8.249
  384POPC   C3B 7737  17.758  41.241   7.777
  384POPC   C4B 7738  17.814  41.335   7.317
  385POPC   NC3 7739  34.171   3.509   9.229
  385POPC   PO4 7740  34.521   3.885   9.674
  385POPC   GL1 7741  34.642   3.784   9.241
  385POPC   GL2 7742  34.828   4.087   9.139
  385POPC   C1A 7743  34.700   3.463   8.874
  385POPC   D2A 7744  34.477   3.300   8.494
  385POPC   C3A 7745  34.762   3.256   8.136
  385POPC   C4A 7746  34.787   3.462   7.738
  385POPC   C1B 7747  34.528   4.008   8.789
  385POPC   C2B 7748  34.276   3.796   8.479
  385POPC   C3B 7749  34.499   3.723   8.101
  385POPC   C4B 7750  34.715   4.016   7.814
  386POPC   NC3 7751  44.399  13.988   9.305
  386POPC   PO4 7752  44.743  14.451   9.715
  386POPC   GL1 7753  44.768  14.442   9.276
  386POPC   GL2 7754   0.058  14.665   9.187
  386POPC   C1A 7755  44.639  14.514   8.863
  386POPC   D2A 7756  44.468  14.559   8.465
  386POPC   C3A 7757  44.620  14.365   8.111
  386POPC   C4A 7758  44.541  14.483   7.699
  386POPC   C1B 7759   0.146  14.589   8.760
  386POPC   C2B 7760   0.006  14.736   8.373
  386POPC   C3B 7761   0.086  14.612   7.973
  386POPC   C4B 7762   0.007  14.328   7.642
  387POPC   NC3 7763   2.687  15.405   9.685
  387POPC   PO4 7764   2.958  14.810   9.792
  387POPC   GL1 7765   2.860  14.938   9.313
  387POPC   GL2 7766   2.747  15.263   9.189
  387POPC   C1A 7767   2.947  14.958   8.831
  387POPC   D2A 7768   2.939  14.866   8.366
  387POPC   C3A 7769   3.038  15.226   8.045
  387POPC   C4A 7770   3.152  15.382   7.615
  387POPC   C1B 7771   2.453  15.062   8.878
  387POPC   C2B 7772   2.438  14.993   8.459
  387POPC   C3B 7773   2.576  14.997   8.038
  387POPC   C4B 7774   2.609  15.382   7.780
  388POPC   NC3 7775  21.686  44.415   9.523
  388POPC   PO4 7776  22.379  44.619   9.526
  388POPC   GL1 7777  22.178  44.705   9.123
  388POPC   GL2 7778  21.838  44.554   9.071
  388POPC   C1A 7779  22.147  44.609   8.688
  388POPC   D2A 7780  22.024  44.661   8.291
  388POPC   C3A 7781  22.193  44.285   8.072
  388POPC   C4A 7782  22.364  44.347   7.641
  388POPC   C1B 7783  21.680  44.832   8.769
  388POPC   C2B 7784  21.557  44.938   8.361
  388POPC   C3B 7785  21.693  44.900   7.940
  388POPC   C4B 7786  21.990  44.649   7.780
  389POPC   NC3 7787   9.371   3.972   9.779
  389POPC   PO4 7788   8.882   4.297   9.562
  389POPC   GL1 7789   9.090   4.337   9.193
  389POPC   GL2 7790   8.820   4.181   9.005
  389POPC   C1A 7791   9.243   4.266   8.752
  389POPC   D2A 7792   8.926   4.334   8.414
  389POPC   C3A 7793   9.061   4.334   8.002
  389POPC   C4A 7794   8.818   4.216   7.612
  389POPC   C1B 7795   8.889   4.638   8.823
  389POPC   C2B 7796   8.918   4.854   8.419
  389POPC   C3B 7797   8.891   4.828   7.959
  389POPC   C4B 7798   9.147   4.640   7.620
  390POPC   NC3 7799  34.941  23.238   9.808
  390POPC   PO4 7800  34.631  22.704   9.583
  390POPC   GL1 7801  34.437  22.883   9.220
  390POPC   GL2 7802  34.582  23.195   9.108
  390POPC   C1A 7803  34.466  22.765   8.793
  390POPC   D2A 7804  34.600  22.884   8.403
  390POPC   C3A 7805  34.462  22.813   8.048
  390POPC   C4A 7806  34.628  22.734   7.664
  390POPC   C1B 7807  34.802  23.190   8.739
  390POPC   C2B 7808  34.866  23.321   8.305
  390POPC   C3B 7809  34.893  23.088   7.919
  390POPC   C4B 7810  34.806  23.168   7.470
  391POPC   NC3 7811  33.433  10.463   9.455
  391POPC   PO4 7812  34.155  10.417   9.381
  391POPC   GL1 7813  33.894  10.526   9.107
  391POPC   GL2 7814  33.675  10.266   9.057
  391POPC   C1A 7815  33.896  10.718   8.726
  391POPC   D2A 7816  33.647  10.828   8.374
  391POPC   C3A 7817  33.836  10.722   7.996
  391POPC   C4A 7818  34.074  10.370   7.963
  391POPC   C1B 7819  33.558  10.333   8.628
  391POPC   C2B 7820  33.352  10.400   8.239
  391POPC   C3B 7821  33.476  10.398   7.844
  391POPC   C4B 7822  33.587  10.543   7.445
  392POPC   NC3 7823  17.751  33.652   9.396
  392POPC   PO4 7824  17.238  34.002   9.596
  392POPC   GL1 7825  17.529  34.059   9.195
  392POPC   GL2 7826  17.466  33.771   9.000
  392POPC   C1A 7827  17.707  34.156   8.734
  392POPC   D2A 7828  17.648  34.145   8.265
  392POPC   C3A 7829  17.818  33.940   7.884
  392POPC   C4A 7830  17.553  34.119   7.542
  392POPC   C1B 7831  17.383  33.804   8.584
  392POPC   C2B 7832  17.587  33.642   8.244
  392POPC   C3B 7833  17.352  33.780   7.897
  392POPC   C4B 7834  16.980  33.703   7.731
  393POPC   NC3 7835  12.573  36.177   9.453
  393POPC   PO4 7836  13.155  36.230   9.742
  393POPC   GL1 7837  12.982  35.966   9.261
  393POPC   GL2 7838  12.738  36.181   8.984
  393POPC   C1A 7839  12.866  35.726   8.858
  393POPC   D2A 7840  12.737  36.012   8.487
  393POPC   C3A 7841  12.754  35.886   8.060
  393POPC   C4A 7842  12.631  35.954   7.627
  393POPC   C1B 7843  12.838  36.509   8.681
  393POPC   C2B 7844  12.979  36.455   8.284
  393POPC   C3B 7845  12.828  36.411   7.877
  393POPC   C4B 7846  13.112  36.389   7.566
  394POPC   NC3 7847   0.040  22.247   9.624
  394POPC   PO4 7848  44.421  22.116   9.726
  394POPC   GL1 7849  44.576  22.199   9.269
  394POPC   GL2 7850  44.532  21.893   9.080
  394POPC   C1A 7851  44.810  22.261   8.831
  394POPC   D2A 7852  44.654  22.264   8.349
  394POPC   C3A 7853  44.854  22.409   7.936
  394POPC   C4A 7854   0.066  22.164   7.643
  394POPC   C1B 7855  44.322  22.159   8.777
  394POPC   C2B 7856  44.098  22.111   8.385
  394POPC   C3B 7857  44.200  22.012   7.974
  394POPC   C4B 7858  44.571  22.037   7.735
  395POPC   NC3 7859   7.274  26.093   9.563
  395POPC   PO4 7860   7.598  25.467   9.478
  395POPC   GL1 7861   7.581  25.866   9.201
  395POPC   GL2 7862   7.252  26.027   9.076
  395POPC   C1A 7863   7.661  26.210   8.860
  395POPC   D2A 7864   7.421  26.253   8.479
  395POPC   C3A 7865   7.595  26.256   8.071
  395POPC   C4A 7866   7.707  26.200   7.645
  395POPC   C1B 7867   7.383  25.798   8.723
  395POPC   C2B 7868   7.185  25.803   8.311
  395POPC   C3B 7869   7.323  25.850   7.882
  395POPC   C4B 7870   7.319  25.905   7.450
  396POPC   NC3 7871  36.986  33.481   9.421
  396POPC   PO4 7872  37.088  34.082   9.723
  396POPC   GL1 7873  37.037  33.979   9.239
  396POPC   GL2 7874  36.695  33.843   9.111
  396POPC   C1A 7875  37.089  33.759   8.805
  396POPC   D2A 7876  36.840  33.822   8.434
  396POPC   C3A 7877  37.099  33.722   8.054
  396POPC   C4A 7878  36.977  33.859   7.632
  396POPC   C1B 7879  36.623  33.494   8.764
  396POPC   C2B 7880  36.728  33.354   8.310
  396POPC   C3B 7881  36.604  33.615   7.925
  396POPC   C4B 7882  36.564  33.573   7.463
  397POPC   NC3 7883  30.581  34.781   9.633
  397POPC   PO4 7884  30.621  35.509   9.622
  397POPC   GL1 7885  30.740  35.550   9.153
  397POPC   GL2 7886  30.840  35.222   9.019
  397POPC   C1A 7887  30.538  35.576   8.731
  397POPC   D2A 7888  30.489  35.806   8.340
  397POPC   C3A 7889  30.631  35.653   7.937
  397POPC   C4A 7890  30.742  35.894   7.581
  397POPC   C1B 7891  30.589  35.046   8.677
  397POPC   C2B 7892  30.420  35.242   8.299
  397POPC   C3B 7893  30.393  35.187   7.860
  397POPC   C4B 7894  30.690  35.236   7.522
  398POPC   NC3 7895  43.682   4.664   9.571
  398POPC   PO4 7896  43.939   5.299   9.545
  398POPC   GL1 7897  43.894   5.294   9.149
  398POPC   GL2 7898  44.197   5.424   9.099
  398POPC   C1A 7899  43.730   5.011   8.855
  398POPC   D2A 7900  43.586   5.096   8.452
  398POPC   C3A 7901  43.849   4.998   8.142
  398POPC   C4A 7902  43.735   5.035   7.749
  398POPC   C1B 7903  44.197   5.303   8.685
  398POPC   C2B 7904  44.353   5.256   8.260
  398POPC   C3B 7905  44.154   5.311   7.853
  398POPC   C4B 7906  44.014   5.253   7.396
  399POPC   NC3 7907   8.457  20.594   9.450
  399POPC   PO4 7908   7.829  20.805   9.200
  399POPC   GL1 7909   8.173  20.648   9.033
  399POPC   GL2 7910   8.420  20.915   9.069
  399POPC   C1A 7911   8.169  20.472   8.646
  399POPC   D2A 7912   8.068  20.724   8.312
  399POPC   C3A 7913   7.987  20.489   8.011
  399POPC   C4A 7914   8.075  20.346   7.643
  399POPC   C1B 7915   8.581  20.765   8.652
  399POPC   C2B 7916   8.527  20.519   8.248
  399POPC   C3B 7917   8.452  20.690   7.825
  399POPC   C4B 7918   8.683  20.963   7.498
  400POPC   NC3 7919  37.797  41.962   9.287
  400POPC   PO4 7920  37.839  42.610   9.580
  400POPC   GL1 7921  37.673  42.466   9.167
  400POPC   GL2 7922  37.333  42.349   9.263
  400POPC   C1A 7923  37.700  42.218   8.731
  400POPC   D2A 7924  37.935  42.189   8.376
  400POPC   C3A 7925  37.719  42.326   8.033
  400POPC   C4A 7926  37.905  42.287   7.683
  400POPC   C1B 7927  37.267  42.452   8.831
  400POPC   C2B 7928  37.362  42.446   8.399
  400POPC   C3B 7929  37.225  42.498   7.983
  400POPC   C4B 7930  37.392  42.388   7.604
  401POPC   NC3 7931  28.324  25.820   9.683
  401POPC   PO4 7932  28.021  26.425   9.748
  401POPC   GL1 7933  28.304  26.167   9.328
  401POPC   GL2 7934  28.584  25.983   9.215
  401POPC   C1A 7935  28.241  26.092   8.825
  401POPC   D2A 7936  28.252  26.376   8.446
  401POPC   C3A 7937  28.242  26.163   8.057
  401POPC   C4A 7938  28.398  26.258   7.645
  401POPC   C1B 7939  28.741  26.119   8.803
  401POPC   C2B 7940  28.606  25.982   8.383
  401POPC   C3B 7941  28.734  26.018   7.944
  401POPC   C4B 7942  28.677  25.809   7.548
  402POPC   NC3 7943  33.121  28.487   9.514
  402POPC   PO4 7944  32.660  28.119   9.673
  402POPC   GL1 7945  32.806  28.257   9.193
  402POPC   GL2 7946  32.807  28.585   9.113
  402POPC   C1A 7947  32.984  28.256   8.759
  402POPC   D2A 7948  32.854  28.180   8.336
  402POPC   C3A 7949  33.189  28.133   8.032
  402POPC   C4A 7950  33.110  28.078   7.605
  402POPC   C1B 7951  32.836  28.755   8.703
  402POPC   C2B 7952  32.907  28.849   8.288
  402POPC   C3B 7953  32.857  28.528   7.948
  402POPC   C4B 7954  32.979  28.564   7.513
  403POPC   NC3 7955  34.684  12.884   9.667
  403POPC   PO4 7956  35.383  12.796   9.546
  403POPC   GL1 7957  35.283  13.012   9.191
  403POPC   GL2 7958  35.574  13.225   9.130
  403POPC   C1A 7959  35.261  12.819   8.769
  403POPC   D2A 7960  35.482  12.900   8.363
  403POPC   C3A 7961  35.283  12.831   7.939
  403POPC   C4A 7962  35.204  12.490   7.644
  403POPC   C1B 7963  35.655  13.267   8.714
  403POPC   C2B 7964  35.902  13.187   8.348
  403POPC   C3B 7965  35.817  12.983   7.948
  403POPC   C4B 7966  35.681  13.238   7.584
  404POPC   NC3 7967  42.914  15.684   9.341
  404POPC   PO4 7968  43.129  16.334   9.365
  404POPC   GL1 7969  43.152  16.027   9.024
  404POPC   GL2 7970  43.344  15.678   9.015
  404POPC   C1A 7971  43.045  15.999   8.601
  404POPC   D2A 7972  43.039  16.272   8.245
  404POPC   C3A 7973  43.157  16.056   7.902
  404POPC   C4A 7974  43.406  15.829   7.644
  404POPC   C1B 7975  43.035  15.457   8.737
  404POPC   C2B 7976  42.759  15.509   8.409
  404POPC   C3B 7977  42.544  15.506   8.021
  404POPC   C4B 7978  42.738  15.794   7.756
  405POPC   NC3 7979  36.418   7.782   9.584
  405POPC   PO4 7980  36.305   8.487   9.500
  405POPC   GL1 7981  36.371   8.298   9.132
  405POPC   GL2 7982  36.286   7.980   9.119
  405POPC   C1A 7983  36.073   8.280   8.764
  405POPC   D2A 7984  36.201   8.206   8.360
  405POPC   C3A 7985  36.134   8.510   8.069
  405POPC   C4A 7986  36.030   8.206   7.794
  405POPC   C1B 7987  36.405   7.821   8.723
  405POPC   C2B 7988  36.643   7.897   8.359
  405POPC   C3B 7989  36.507   8.043   7.954
  405POPC   C4B 7990  36.289   7.781   7.680
  406POPC   NC3 7991   7.381   3.849   9.888
  406POPC   PO4 7992   7.670   3.359   9.593
  406POPC   GL1 7993   7.819   3.461   9.160
  406POPC   GL2 7994   7.561   3.271   9.062
  406POPC   C1A 7995   7.736   3.606   8.706
  406POPC   D2A 7996   7.528   3.436   8.314
  406POPC   C3A 7997   7.490   3.751   7.981
  406POPC   C4A 7998   7.416   3.966   7.569
  406POPC   C1B 7999   7.165   3.238   8.798
  406POPC   C2B 8000   7.055   3.202   8.349
  406POPC   C3B 8001   7.135   3.383   7.927
  406POPC   C4B 8002   6.850   3.435   7.553
  407POPC   NC3 8003  37.041  27.622   9.423
  407POPC   PO4 8004  37.018  26.965   9.551
  407POPC   GL1 8005  36.841  27.143   9.149
  407POPC   GL2 8006  36.684  27.456   9.082
  407POPC   C1A 8007  37.083  27.279   8.778
  407POPC   D2A 8008  37.294  27.211   8.364
  407POPC   C3A 8009  37.075  27.256   7.972
  407POPC   C4A 8010  37.134  27.605   7.691
  407POPC   C1B 8011  36.530  27.662   8.696
  407POPC   C2B 8012  36.474  27.623   8.271
  407POPC   C3B 8013  36.365  27.919   7.970
  407POPC   C4B 8014  36.569  28.014   7.601
  408POPC   NC3 8015  33.067   2.538   9.563
  408POPC   PO4 8016  33.327   1.948   9.585
  408POPC   GL1 8017  33.099   1.900   9.183
  408POPC   GL2 8018  32.847   2.165   9.149
  408POPC   C1A 8019  32.959   1.707   8.788
  408POPC   D2A 8020  32.894   1.855   8.388
  408POPC   C3A 8021  32.629   1.739   8.073
  408POPC   C4A 8022  32.793   1.855   7.673
  408POPC   C1B 8023  33.102   2.209   8.766
  408POPC   C2B 8024  33.135   2.330   8.342
  408POPC   C3B 8025  33.200   2.196   7.893
  408POPC   C4B 8026  33.017   2.275   7.455
  409POPC   NC3 8027  12.101   4.616   9.552
  409POPC   PO4 8028  12.296   3.990   9.511
  409POPC   GL1 8029  12.036   4.197   9.163
  409POPC   GL2 8030  11.854   4.535   9.123
  409POPC   C1A 8031  12.096   4.296   8.713
  409POPC   D2A 8032  12.014   4.030   8.362
  409POPC   C3A 8033  11.992   4.204   7.952
  409POPC   C4A 8034  12.349   4.503   7.841
  409POPC   C1B 8035  11.664   4.586   8.716
  409POPC   C2B 8036  11.866   4.573   8.304
  409POPC   C3B 8037  11.866   4.696   7.875
  409POPC   C4B 8038  11.535   4.661   7.557
  410POPC   NC3 8039  31.889  10.433   9.642
  410POPC   PO4 8040  32.609  10.485   9.692
  410POPC   GL1 8041  32.361  10.632   9.265
  410POPC   GL2 8042  32.063  10.450   9.136
  410POPC   C1A 8043  32.332  10.711   8.787
  410POPC   D2A 8044  32.145  10.475   8.428
  410POPC   C3A 8045  32.337  10.430   8.018
  410POPC   C4A 8046  32.452  10.765   7.781
  410POPC   C1B 8047  31.809  10.272   8.767
  410POPC   C2B 8048  31.789  10.132   8.290
  410POPC   C3B 8049  31.868  10.274   7.837
  410POPC   C4B 8050  32.180  10.278   7.537
  411POPC   NC3 8051  14.126  39.724   9.535
  411POPC   PO4 8052  13.514  40.052   9.628
  411POPC   GL1 8053  13.421  40.141   9.178
  411POPC   GL2 8054  13.347  40.507   9.168
  411POPC   C1A 8055  13.515  39.966   8.757
  411POPC   D2A 8056  13.878  39.958   8.451
  411POPC   C3A 8057  13.657  39.916   8.073
  411POPC   C4A 8058  13.281  39.763   7.906
  411POPC   C1B 8059  13.590  40.461   8.764
  411POPC   C2B 8060  13.721  40.409   8.315
  411POPC   C3B 8061  13.850  40.335   7.848
  411POPC   C4B 8062  13.790  40.346   7.360
  412POPC   NC3 8063  43.477   5.411   9.471
  412POPC   PO4 8064  43.655   6.115   9.523
  412POPC   GL1 8065  43.887   5.813   9.265
  412POPC   GL2 8066  43.609   5.738   9.081
  412POPC   C1A 8067  44.080   5.827   8.826
  412POPC   D2A 8068  43.942   6.007   8.465
  412POPC   C3A 8069  44.083   5.884   8.065
  412POPC   C4A 8070  43.776   6.049   7.793
  412POPC   C1B 8071  43.711   5.513   8.719
  412POPC   C2B 8072  43.886   5.493   8.315
  412POPC   C3B 8073  43.718   5.535   7.907
  412POPC   C4B 8074  43.639   5.616   7.461
  413POPC   NC3 8075  35.598   8.959   9.675
  413POPC   PO4 8076  35.155   9.351   9.327
  413POPC   GL1 8077  35.325   8.974   9.145
  413POPC   GL2 8078  35.036   8.747   9.098
  413POPC   C1A 8079  35.309   8.872   8.689
  413POPC   D2A 8080  35.578   8.761   8.357
  413POPC   C3A 8081  35.349   8.895   7.992
  413POPC   C4A 8082  35.275   9.240   7.711
  413POPC   C1B 8083  35.027   8.446   8.743
  413POPC   C2B 8084  35.198   8.436   8.309
  413POPC   C3B 8085  35.112   8.477   7.865
  413POPC   C4B 8086  35.243   8.758   7.494
  414POPC   NC3 8087  31.761   6.410   9.466
  414POPC   PO4 8088  31.566   7.028   9.685
  414POPC   GL1 8089  31.418   6.860   9.272
  414POPC   GL2 8090  31.327   6.497   9.202
  414POPC   C1A 8091  31.492   6.893   8.827
  414POPC   D2A 8092  31.854   6.739   8.529
  414POPC   C3A 8093  31.707   6.574   8.116
  414POPC   C4A 8094  31.404   6.857   7.914
  414POPC   C1B 8095  31.579   6.391   8.824
  414POPC   C2B 8096  31.330   6.516   8.467
  414POPC   C3B 8097  31.181   6.414   8.061
  414POPC   C4B 8098  31.445   6.364   7.708
  415POPC   NC3 8099   8.110  38.938   9.771
  415POPC   PO4 8100   8.215  38.301   9.493
  415POPC   GL1 8101   8.273  38.472   9.098
  415POPC   GL2 8102   8.078  38.766   9.192
  415POPC   C1A 8103   8.222  38.346   8.659
  415POPC   D2A 8104   8.196  38.388   8.223
  415POPC   C3A 8105   8.555  38.437   8.051
  415POPC   C4A 8106   8.628  38.163   7.705
  415POPC   C1B 8107   8.208  38.880   8.786
  415POPC   C2B 8108   8.406  38.791   8.423
  415POPC   C3B 8109   8.212  38.863   8.021
  415POPC   C4B 8110   8.090  38.692   7.625
  416POPC   NC3 8111  40.687  35.731   9.352
  416POPC   PO4 8112  40.928  35.153   9.694
  416POPC   GL1 8113  40.798  35.219   9.257
  416POPC   GL2 8114  41.050  35.112   9.061
  416POPC   C1A 8115  40.601  35.328   8.835
  416POPC   D2A 8116  40.523  35.185   8.378
  416POPC   C3A 8117  40.631  35.479   8.037
  416POPC   C4A 8118  40.693  35.572   7.601
  416POPC   C1B 8119  40.904  34.974   8.669
  416POPC   C2B 8120  40.913  34.793   8.294
  416POPC   C3B 8121  40.929  34.926   7.872
  416POPC   C4B 8122  40.620  35.080   7.668
  417POPC   NC3 8123  29.973  42.998   9.575
  417POPC   PO4 8124  30.034  42.339   9.374
  417POPC   GL1 8125  29.768  42.766   9.155
  417POPC   GL2 8126  29.947  43.118   9.090
  417POPC   C1A 8127  29.608  43.030   8.749
  417POPC   D2A 8128  29.694  42.974   8.312
  417POPC   C3A 8129  29.799  43.227   7.952
  417POPC   C4A 8130  29.690  43.091   7.543
  417POPC   C1B 8131  30.081  43.184   8.630
  417POPC   C2B 8132  30.259  43.210   8.196
  417POPC   C3B 8133  30.253  43.137   7.759
  417POPC   C4B 8134  30.505  43.192   7.415
  418POPC   NC3 8135  42.109  11.934   9.517
  418POPC   PO4 8136  42.560  12.504   9.528
  418POPC   GL1 8137  42.491  12.155   9.228
  418POPC   GL2 8138  42.159  12.155   9.064
  418POPC   C1A 8139  42.569  11.946   8.829
  418POPC   D2A 8140  42.340  12.012   8.434
  418POPC   C3A 8141  42.577  11.930   8.048
  418POPC   C4A 8142  42.605  11.741   7.658
  418POPC   C1B 8143  41.979  12.358   8.708
  418POPC   C2B 8144  41.932  12.272   8.254
  418POPC   C3B 8145  41.957  12.164   7.823
  418POPC   C4B 8146  42.173  11.963   7.460
  419POPC   NC3 8147  13.386  10.209   9.794
  419POPC   PO4 8148  12.748  10.498   9.549
  419POPC   GL1 8149  12.729  10.537   9.109
  419POPC   GL2 8150  12.423  10.740   9.111
  419POPC   C1A 8151  12.814  10.285   8.710
  419POPC   D2A 8152  12.986  10.191   8.303
  419POPC   C3A 8153  12.801  10.295   7.897
  419POPC   C4A 8154  13.052  10.637   7.733
  419POPC   C1B 8155  12.561  10.741   8.668
  419POPC   C2B 8156  12.611  10.664   8.209
  419POPC   C3B 8157  12.482  10.715   7.766
  419POPC   C4B 8158  12.323  10.847   7.347
  420POPC   NC3 8159  27.749  42.604   9.439
  420POPC   PO4 8160  27.708  43.249   9.611
  420POPC   GL1 8161  27.645  43.040   9.199
  420POPC   GL2 8162  27.956  42.930   9.075
  420POPC   C1A 8163  27.550  43.157   8.777
  420POPC   D2A 8164  27.583  43.363   8.373
  420POPC   C3A 8165  27.735  43.301   7.980
  420POPC   C4A 8166  27.512  43.077   7.640
  420POPC   C1B 8167  27.917  42.857   8.605
  420POPC   C2B 8168  27.929  42.669   8.207
  420POPC   C3B 8169  27.997  42.920   7.791
  420POPC   C4B 8170  27.863  42.765   7.392
  421POPC   NC3 8171  12.165  17.376   9.416
  421POPC   PO4 8172  11.887  17.998   9.366
  421POPC   GL1 8173  11.845  17.648   9.101
  421POPC   GL2 8174  12.217  17.659   8.993
  421POPC   C1A 8175  11.877  17.542   8.650
  421POPC   D2A 8176  12.150  17.769   8.348
  421POPC   C3A 8177  12.009  17.619   7.969
  421POPC   C4A 8178  11.600  17.649   7.798
  421POPC   C1B 8179  12.279  17.238   8.768
  421POPC   C2B 8180  12.206  17.228   8.317
  421POPC   C3B 8181  12.336  17.240   7.880
  421POPC   C4B 8182  12.384  17.534   7.490
  422POPC   NC3 8183  27.723   9.167   9.229
  422POPC   PO4 8184  27.183   8.813   9.535
  422POPC   GL1 8185  27.386   8.777   9.106
  422POPC   GL2 8186  27.718   8.793   8.860
  422POPC   C1A 8187  27.260   8.871   8.678
  422POPC   D2A 8188  27.519   8.695   8.376
  422POPC   C3A 8189  27.683   8.968   8.124
  422POPC   C4A 8190  27.629   8.889   7.747
  422POPC   C1B 8191  27.726   9.198   8.578
  422POPC   C2B 8192  27.823   9.459   8.184
  422POPC   C3B 8193  27.981   9.250   7.750
  422POPC   C4B 8194  27.786   9.196   7.321
  423POPC   NC3 8195  17.567  35.953   9.661
  423POPC   PO4 8196  17.088  35.864   9.276
  423POPC   GL1 8197  17.468  36.114   9.146
  423POPC   GL2 8198  17.827  36.219   9.286
  423POPC   C1A 8199  17.626  35.974   8.756
  423POPC   D2A 8200  17.542  35.831   8.336
  423POPC   C3A 8201  17.548  36.122   7.992
  423POPC   C4A 8202  17.534  36.082   7.587
  423POPC   C1B 8203  17.894  36.383   8.857
  423POPC   C2B 8204  17.738  36.344   8.439
  423POPC   C3B 8205  17.921  36.445   8.080
  423POPC   C4B 8206  17.824  36.497   7.667
  424POPC   NC3 8207  30.344   0.459   9.792
  424POPC   PO4 8208  30.830   0.571   9.413
  424POPC   GL1 8209  30.681   0.384   9.063
  424POPC   GL2 8210  30.841   0.051   9.076
  424POPC   C1A 8211  30.565   0.604   8.670
  424POPC   D2A 8212  30.415   0.751   8.288
  424POPC   C3A 8213  30.623   0.640   7.932
  424POPC   C4A 8214  30.853   0.562   7.552
  424POPC   C1B 8215  30.755   0.122   8.642
  424POPC   C2B 8216  30.578   0.237   8.267
  424POPC   C3B 8217  30.716   0.140   7.850
  424POPC   C4B 8218  30.539  44.865   7.547
  425POPC   NC3 8219  27.063  37.788   9.635
  425POPC   PO4 8220  26.792  37.232   9.658
  425POPC   GL1 8221  27.041  37.393   9.293
  425POPC   GL2 8222  26.712  37.463   9.194
  425POPC   C1A 8223  27.038  37.735   8.923
  425POPC   D2A 8224  26.652  37.812   8.647
  425POPC   C3A 8225  26.609  37.925   8.200
  425POPC   C4A 8226  26.885  37.908   7.838
  425POPC   C1B 8227  26.841  37.286   8.786
  425POPC   C2B 8228  26.855  37.436   8.356
  425POPC   C3B 8229  26.856  37.383   7.912
  425POPC   C4B 8230  26.533  37.570   7.618
  426POPC   NC3 8231  13.912  23.449   9.436
  426POPC   PO4 8232  13.406  23.997   9.495
  426POPC   GL1 8233  13.643  23.952   9.134
  426POPC   GL2 8234  13.617  23.628   9.072
  426POPC   C1A 8235  13.789  24.080   8.736
  426POPC   D2A 8236  13.770  23.791   8.454
  426POPC   C3A 8237  13.559  23.826   8.108
  426POPC   C4A 8238  13.898  23.893   7.846
  426POPC   C1B 8239  13.392  23.335   8.816
  426POPC   C2B 8240  13.416  23.419   8.403
  426POPC   C3B 8241  13.184  23.410   8.058
  426POPC   C4B 8242  13.357  23.303   7.676
  427POPC   NC3 8243  21.394  33.594   9.672
  427POPC   PO4 8244  21.243  34.230   9.476
  427POPC   GL1 8245  21.478  33.875   9.226
  427POPC   GL2 8246  21.385  33.531   9.171
  427POPC   C1A 8247  21.439  33.884   8.781
  427POPC   D2A 8248  21.503  34.032   8.405
  427POPC   C3A 8249  21.319  33.839   8.069
  427POPC   C4A 8250  21.432  34.006   7.703
  427POPC   C1B 8251  21.721  33.484   8.852
  427POPC   C2B 8252  21.622  33.523   8.391
  427POPC   C3B 8253  21.779  33.611   7.967
  427POPC   C4B 8254  21.712  33.643   7.530
  428POPC   NC3 8255  31.115  38.181   9.336
  428POPC   PO4 8256  31.629  38.077   9.865
  428POPC   GL1 8257  31.638  38.245   9.432
  428POPC   GL2 8258  31.700  37.984   9.227
  428POPC   C1A 8259  31.611  38.528   9.041
  428POPC   D2A 8260  31.664  38.598   8.596
  428POPC   C3A 8261  31.433  38.560   8.214
  428POPC   C4A 8262  31.376  38.230   7.910
  428POPC   C1B 8263  31.792  38.113   8.799
  428POPC   C2B 8264  32.014  38.301   8.390
  428POPC   C3B 8265  31.918  38.324   7.954
  428POPC   C4B 8266  31.654  38.639   7.746
  429POPC   NC3 8267  44.667  42.080   9.375
  429POPC   PO4 8268  44.638  42.772   9.360
  429POPC   GL1 8269  44.707  42.474   9.064
  429POPC   GL2 8270  44.645  42.701   8.834
  429POPC   C1A 8271  44.692  42.220   8.687
  429POPC   D2A 8272  44.628  42.378   8.265
  429POPC   C3A 8273  44.677  42.028   7.952
  429POPC   C4A 8274  44.802  42.070   7.524
  429POPC   C1B 8275   0.072  42.556   8.706
  429POPC   C2B 8276   0.152  42.332   8.323
  429POPC   C3B 8277   0.015  42.419   7.938
  429POPC   C4B 8278  44.982  42.803   7.797
  430POPC   NC3 8279  17.494  18.728   9.310
  430POPC   PO4 8280  17.729  18.055   9.391
  430POPC   GL1 8281  17.567  18.254   9.088
  430POPC   GL2 8282  17.238  18.134   9.117
  430POPC   C1A 8283  17.697  18.428   8.703
  430POPC   D2A 8284  17.800  18.293   8.288
  430POPC   C3A 8285  17.690  18.484   7.894
  430POPC   C4A 8286  17.938  18.748   7.651
  430POPC   C1B 8287  17.105  18.316   8.767
  430POPC   C2B 8288  17.289  18.380   8.397
  430POPC   C3B 8289  17.221  18.308   8.006
  430POPC   C4B 8290  16.984  17.982   7.878
  431POPC   NC3 8291  23.543  33.562   9.699
  431POPC   PO4 8292  23.187  34.120   9.386
  431POPC   GL1 8293  22.875  33.892   9.096
  431POPC   GL2 8294  22.563  33.701   9.092
  431POPC   C1A 8295  22.959  33.822   8.683
  431POPC   D2A 8296  23.027  34.227   8.557
  431POPC   C3A 8297  22.958  34.241   8.151
  431POPC   C4A 8298  23.042  33.971   7.769
  431POPC   C1B 8299  22.575  33.494   8.669
  431POPC   C2B 8300  22.762  33.491   8.237
  431POPC   C3B 8301  22.666  33.620   7.783
  431POPC   C4B 8302  22.557  33.442   7.357
  432POPC   NC3 8303  16.950   6.374   9.395
  432POPC   PO4 8304  16.490   6.865   9.464
  432POPC   GL1 8305  16.651   6.684   9.103
  432POPC   GL2 8306  16.999   6.723   9.024
  432POPC   C1A 8307  16.607   6.829   8.702
  432POPC   D2A 8308  16.499   6.717   8.317
  432POPC   C3A 8309  16.769   6.863   8.008
  432POPC   C4A 8310  16.655   6.591   7.690
  432POPC   C1B 8311  16.936   6.430   8.661
  432POPC   C2B 8312  16.862   6.364   8.187
  432POPC   C3B 8313  17.086   6.372   7.786
  432POPC   C4B 8314  17.089   6.636   7.410
  433POPC   NC3 8315  37.323  17.669   9.358
  433POPC   PO4 8316  37.043  17.100   9.617
  433POPC   GL1 8317  36.937  17.246   9.183
  433POPC   GL2 8318  37.178  17.437   8.919
  433POPC   C1A 8319  36.754  17.171   8.786
  433POPC   D2A 8320  36.756  17.478   8.474
  433POPC   C3A 8321  36.929  17.313   8.118
  433POPC   C4A 8322  36.980  17.512   7.741
  433POPC   C1B 8323  37.153  17.787   8.596
  433POPC   C2B 8324  37.120  17.782   8.174
  433POPC   C3B 8325  37.243  17.986   7.819
  433POPC   C4B 8326  37.315  17.784   7.435
  434POPC   NC3 8327  13.783  22.341   9.663
  434POPC   PO4 8328  13.383  21.888   9.380
  434POPC   GL1 8329  13.675  22.053   9.113
  434POPC   GL2 8330  13.960  22.015   9.269
  434POPC   C1A 8331  13.659  22.219   8.704
  434POPC   D2A 8332  13.405  22.085   8.353
  434POPC   C3A 8333  13.432  22.389   8.021
  434POPC   C4A 8334  13.604  22.240   7.635
  434POPC   C1B 8335  14.116  21.929   8.855
  434POPC   C2B 8336  14.117  22.205   8.481
  434POPC   C3B 8337  13.914  22.209   8.092
  434POPC   C4B 8338  14.071  22.078   7.701
  435POPC   NC3 8339   7.895  44.030   9.308
  435POPC   PO4 8340   8.263  43.543   9.629
  435POPC   GL1 8341   8.260  43.708   9.156
  435POPC   GL2 8342   7.972  43.597   9.023
  435POPC   C1A 8343   8.310  44.050   8.714
  435POPC   D2A 8344   8.549  44.083   8.335
  435POPC   C3A 8345   8.282  44.057   7.990
  435POPC   C4A 8346   8.281  43.711   7.719
  435POPC   C1B 8347   8.043  43.660   8.584
  435POPC   C2B 8348   7.764  43.537   8.259
  435POPC   C3B 8349   7.841  43.418   7.796
  435POPC   C4B 8350   7.909  43.605   7.357
  436POPC   NC3 8351   0.592   4.348   9.455
  436POPC   PO4 8352  44.984   4.477   9.334
  436POPC   GL1 8353   0.249   4.228   9.109
  436POPC   GL2 8354   0.423   4.497   8.942
  436POPC   C1A 8355   0.532   4.026   8.811
  436POPC   D2A 8356   0.535   4.276   8.422
  436POPC   C3A 8357   0.399   4.185   8.012
  436POPC   C4A 8358   0.531   4.387   7.664
  436POPC   C1B 8359   0.867   4.422   8.782
  436POPC   C2B 8360   1.110   4.239   8.453
  436POPC   C3B 8361   0.916   4.227   8.045
  436POPC   C4B 8362   0.926   4.064   7.644
  437POPC   NC3 8363  44.145  24.355   9.217
  437POPC   PO4 8364  43.637  24.757   9.366
  437POPC   GL1 8365  43.781  24.545   8.962
  437POPC   GL2 8366  43.688  24.177   8.998
  437POPC   C1A 8367  43.926  24.212   8.562
  437POPC   D2A 8368  43.875  24.055   8.101
  437POPC   C3A 8369  43.940  24.440   7.888
  437POPC   C4A 8370  44.191  24.801   8.045
  437POPC   C1B 8371  43.461  24.419   8.639
  437POPC   C2B 8372  43.520  24.385   8.234
  437POPC   C3B 8373  43.394  24.237   7.848
  437POPC   C4B 8374  43.494  24.605   7.667
  438POPC   NC3 8375  14.989  18.632   9.535
  438POPC   PO4 8376  15.155  18.016   9.496
  438POPC   GL1 8377  15.197  18.182   9.112
  438POPC   GL2 8378  14.959  18.463   9.070
  438POPC   C1A 8379  15.119  18.171   8.659
  438POPC   D2A 8380  15.290  18.227   8.247
  438POPC   C3A 8381  15.018  18.257   7.917
  438POPC   C4A 8382  15.038  17.829   7.735
  438POPC   C1B 8383  15.324  18.597   8.855
  438POPC   C2B 8384  15.469  18.660   8.443
  438POPC   C3B 8385  15.363  18.685   8.017
  438POPC   C4B 8386  15.421  18.493   7.620
  439POPC   NC3 8387   3.977  26.549   9.419
  439POPC   PO4 8388   4.599  26.842   9.662
  439POPC   GL1 8389   4.454  26.729   9.272
  439POPC   GL2 8390   4.222  26.956   9.145
  439POPC   C1A 8391   4.554  26.719   8.847
  439POPC   D2A 8392   4.603  26.764   8.419
  439POPC   C3A 8393   4.268  26.702   8.205
  439POPC   C4A 8394   4.007  26.638   7.840
  439POPC   C1B 8395   4.019  27.150   8.805
  439POPC   C2B 8396   3.948  27.265   8.375
  439POPC   C3B 8397   4.072  27.123   7.957
  439POPC   C4B 8398   4.452  26.883   7.764
  440POPC   NC3 8399  34.895  31.350   9.613
  440POPC   PO4 8400  34.479  31.891   9.372
  440POPC   GL1 8401  34.646  31.610   9.114
  440POPC   GL2 8402  34.604  31.314   9.183
  440POPC   C1A 8403  34.511  31.592   8.696
  440POPC   D2A 8404  34.737  31.810   8.390
  440POPC   C3A 8405  34.791  31.634   8.022
  440POPC   C4A 8406  34.457  31.520   7.770
  440POPC   C1B 8407  34.714  31.137   8.795
  440POPC   C2B 8408  34.496  31.046   8.460
  440POPC   C3B 8409  34.595  31.133   8.076
  440POPC   C4B 8410  34.509  30.994   7.673
  441POPC   NC3 8411  31.138  17.634   9.498
  441POPC   PO4 8412  30.517  17.446   9.300
  441POPC   GL1 8413  30.737  17.525   8.964
  441POPC   GL2 8414  31.063  17.357   9.082
  441POPC   C1A 8415  30.430  17.676   8.641
  441POPC   D2A 8416  30.260  17.753   8.238
  441POPC   C3A 8417  30.616  17.660   7.945
  441POPC   C4A 8418  30.683  17.309   7.665
  441POPC   C1B 8419  31.119  17.420   8.653
  441POPC   C2B 8420  30.924  17.331   8.274
  441POPC   C3B 8421  31.116  17.435   7.915
  441POPC   C4B 8422  31.064  17.766   7.652
  442POPC   NC3 8423  16.739  16.976   9.828
  442POPC   PO4 8424  17.083  16.542   9.389
  442POPC   GL1 8425  16.790  16.752   9.126
  442POPC   GL2 8426  16.596  16.982   9.327
  442POPC   C1A 8427  16.824  16.841   8.689
  442POPC   D2A 8428  16.767  16.581   8.347
  442POPC   C3A 8429  16.688  16.725   7.951
  442POPC   C4A 8430  16.945  16.550   7.625
  442POPC   C1B 8431  16.410  17.071   8.898
  442POPC   C2B 8432  16.336  16.912   8.468
  442POPC   C3B 8433  16.085  16.921   8.114
  442POPC   C4B 8434  16.170  16.948   7.725
  443POPC   NC3 8435  31.884  29.436   9.465
  443POPC   PO4 8436  31.477  28.912   9.443
  443POPC   GL1 8437  31.536  29.013   9.045
  443POPC   GL2 8438  31.558  29.375   9.059
  443POPC   C1A 8439  31.515  29.054   8.613
  443POPC   D2A 8440  31.547  29.263   8.261
  443POPC   C3A 8441  31.433  28.997   7.951
  443POPC   C4A 8442  31.732  28.859   7.687
  443POPC   C1B 8443  31.164  29.365   8.809
  443POPC   C2B 8444  31.079  29.430   8.361
  443POPC   C3B 8445  31.241  29.489   7.931
  443POPC   C4B 8446  31.646  29.434   7.755
  444POPC   NC3 8447  14.249  27.214   9.410
  444POPC   PO4 8448  14.595  27.682   9.795
  444POPC   GL1 8449  14.595  27.735   9.324
  444POPC   GL2 8450  14.528  28.069   9.169
  444POPC   C1A 8451  14.504  27.620   8.892
  444POPC   D2A 8452  14.577  27.533   8.456
  444POPC   C3A 8453  14.210  27.616   8.209
  444POPC   C4A 8454  14.236  27.742   7.791
  444POPC   C1B 8455  14.736  28.203   8.786
  444POPC   C2B 8456  14.828  28.026   8.373
  444POPC   C3B 8457  14.722  28.033   7.911
  444POPC   C4B 8458  14.724  28.173   7.459
  445POPC   NC3 8459  10.070  36.867   9.735
  445POPC   PO4 8460  10.667  36.940   9.468
  445POPC   GL1 8461  10.652  37.041   9.063
  445POPC   GL2 8462  10.300  37.111   9.022
  445POPC   C1A 8463  10.593  36.902   8.643
  445POPC   D2A 8464  10.553  36.922   8.222
  445POPC   C3A 8465  10.873  36.779   7.972
  445POPC   C4A 8466  10.790  36.858   7.536
  445POPC   C1B 8467  10.104  36.812   8.707
  445POPC   C2B 8468  10.143  36.633   8.265
  445POPC   C3B 8469  10.243  36.816   7.822
  445POPC   C4B 8470   9.926  36.879   7.472
  446POPC   NC3 8471  13.384  26.279   9.406
  446POPC   PO4 8472  13.640  25.640   9.303
  446POPC   GL1 8473  13.668  25.865   8.940
  446POPC   GL2 8474  13.787  26.191   9.013
  446POPC   C1A 8475  13.360  26.123   8.694
  446POPC   D2A 8476  13.194  26.337   8.296
  446POPC   C3A 8477  13.370  26.157   7.931
  446POPC   C4A 8478  13.493  25.727   7.948
  446POPC   C1B 8479  13.863  26.199   8.571
  446POPC   C2B 8480  13.929  26.120   8.130
  446POPC   C3B 8481  14.134  26.240   7.747
  446POPC   C4B 8482  13.934  26.416   7.393
  447POPC   NC3 8483  32.558  31.710   9.390
  447POPC   PO4 8484  32.116  31.285   9.667
  447POPC   GL1 8485  32.248  31.289   9.209
  447POPC   GL2 8486  31.926  31.371   9.040
  447POPC   C1A 8487  32.540  31.335   8.824
  447POPC   D2A 8488  32.450  31.578   8.453
  447POPC   C3A 8489  32.608  31.697   8.034
  447POPC   C4A 8490  32.575  31.478   7.634
  447POPC   C1B 8491  31.962  31.456   8.618
  447POPC   C2B 8492  32.011  31.687   8.244
  447POPC   C3B 8493  32.145  31.481   7.903
  447POPC   C4B 8494  32.201  31.111   7.672
  448POPC   NC3 8495   5.424  37.404   9.469
  448POPC   PO4 8496   5.898  37.928   9.464
  448POPC   GL1 8497   5.714  37.699   9.132
  448POPC   GL2 8498   6.006  37.671   8.954
  448POPC   C1A 8499   5.571  37.519   8.738
  448POPC   D2A 8500   5.797  37.335   8.385
  448POPC   C3A 8501   5.735  37.582   8.056
  448POPC   C4A 8502   5.812  37.603   7.643
  448POPC   C1B 8503   6.225  37.481   8.653
  448POPC   C2B 8504   6.237  37.660   8.271
  448POPC   C3B 8505   6.247  37.490   7.898
  448POPC   C4B 8506   6.303  37.707   7.556
  449POPC   NC3 8507  23.808  32.834   9.499
  449POPC   PO4 8508  23.265  33.214   9.510
  449POPC   GL1 8509  23.436  33.143   9.057
  449POPC   GL2 8510  23.674  32.856   9.002
  449POPC   C1A 8511  23.422  33.008   8.567
  449POPC   D2A 8512  23.731  33.085   8.180
  449POPC   C3A 8513  23.532  32.942   7.810
  449POPC   C4A 8514  23.480  32.533   7.682
  449POPC   C1B 8515  23.890  33.095   8.691
  449POPC   C2B 8516  24.130  33.373   8.416
  449POPC   C3B 8517  24.156  33.352   7.983
  449POPC   C4B 8518  24.107  32.987   7.787
  450POPC   NC3 8519  15.272   6.163   9.461
  450POPC   PO4 8520  15.078   6.830   9.507
  450POPC   GL1 8521  15.359   6.679   9.230
  450POPC   GL2 8522  15.083   6.479   9.095
  450POPC   C1A 8523  15.456   6.866   8.837
  450POPC   D2A 8524  15.311   6.755   8.433
  450POPC   C3A 8525  15.523   6.917   8.109
  450POPC   C4A 8526  15.713   6.630   7.820
  450POPC   C1B 8527  14.892   6.601   8.693
  450POPC   C2B 8528  14.963   6.428   8.256
  450POPC   C3B 8529  15.193   6.613   7.882
  450POPC   C4B 8530  15.073   6.806   7.477
  451POPC   NC3 8531  24.486  33.013   9.574
  451POPC   PO4 8532  23.872  33.305   9.481
  451POPC   GL1 8533  24.165  33.013   9.130
  451POPC   GL2 8534  24.537  32.918   9.085
  451POPC   C1A 8535  24.355  32.963   8.650
  451POPC   D2A 8536  24.244  32.849   8.278
  451POPC   C3A 8537  24.553  33.063   8.088
  451POPC   C4A 8538  24.587  33.241   7.715
  451POPC   C1B 8539  24.574  32.518   8.801
  451POPC   C2B 8540  24.691  32.440   8.403
  451POPC   C3B 8541  24.637  32.587   8.029
  451POPC   C4B 8542  24.872  32.811   7.716
  452POPC   NC3 8543  30.173  35.371   9.946
  452POPC   PO4 8544  29.789  34.934   9.684
  452POPC   GL1 8545  29.984  35.275   9.348
  452POPC   GL2 8546  29.998  35.670   9.248
  452POPC   C1A 8547  30.152  35.272   8.901
  452POPC   D2A 8548  30.012  35.019   8.531
  452POPC   C3A 8549  29.944  35.148   8.105
  452POPC   C4A 8550  29.905  35.252   7.677
  452POPC   C1B 8551  30.064  35.799   8.798
  452POPC   C2B 8552  30.034  35.566   8.426
  452POPC   C3B 8553  30.100  35.651   8.003
  452POPC   C4B 8554  29.823  35.758   7.672
  453POPC   NC3 8555  34.874  30.518   9.471
  453POPC   PO4 8556  34.436  31.022   9.605
  453POPC   GL1 8557  34.513  30.808   9.231
  453POPC   GL2 8558  34.872  30.887   9.170
  453POPC   C1A 8559  34.374  30.656   8.826
  453POPC   D2A 8560  34.522  30.530   8.413
  453POPC   C3A 8561  34.298  30.689   8.047
  453POPC   C4A 8562  34.208  30.567   7.618
  453POPC   C1B 8563  34.906  30.627   8.800
  453POPC   C2B 8564  34.956  30.796   8.405
  453POPC   C3B 8565  34.829  30.681   7.987
  453POPC   C4B 8566  35.077  30.585   7.649
  454POPC   NC3 8567  27.408  10.930   9.441
  454POPC   PO4 8568  27.765  10.250   9.547
  454POPC   GL1 8569  27.579  10.284   9.152
  454POPC   GL2 8570  27.622  10.626   9.107
  454POPC   C1A 8571  27.497  10.209   8.729
  454POPC   D2A 8572  27.606  10.488   8.399
  454POPC   C3A 8573  27.556  10.336   7.994
  454POPC   C4A 8574  27.535  10.067   7.715
  454POPC   C1B 8575  27.275  10.663   8.812
  454POPC   C2B 8576  27.239  10.860   8.425
  454POPC   C3B 8577  27.336  10.769   8.006
  454POPC   C4B 8578  27.706  10.759   7.724
  455POPC   NC3 8579  22.378   9.313   9.789
  455POPC   PO4 8580  21.870   9.698   9.589
  455POPC   GL1 8581  21.920   9.786   9.145
  455POPC   GL2 8582  22.259   9.874   9.090
  455POPC   C1A 8583  22.026   9.588   8.738
  455POPC   D2A 8584  22.204   9.776   8.374
  455POPC   C3A 8585  21.974   9.719   8.036
  455POPC   C4A 8586  22.105   9.487   7.668
  455POPC   C1B 8587  22.498   9.981   8.728
  455POPC   C2B 8588  22.649  10.087   8.318
  455POPC   C3B 8589  22.626   9.877   7.904
  455POPC   C4B 8590  22.667   9.964   7.426
  456POPC   NC3 8591  36.654  32.542   9.329
  456POPC   PO4 8592  37.033  31.976   9.493
  456POPC   GL1 8593  36.969  32.174   9.119
  456POPC   GL2 8594  37.138  32.517   9.091
  456POPC   C1A 8595  36.870  32.003   8.707
  456POPC   D2A 8596  37.012  32.172   8.329
  456POPC   C3A 8597  36.754  32.163   7.945
  456POPC   C4A 8598  37.088  32.171   7.637
  456POPC   C1B 8599  36.896  32.536   8.709
  456POPC   C2B 8600  36.735  32.594   8.278
  456POPC   C3B 8601  36.972  32.645   7.898
  456POPC   C4B 8602  37.017  32.649   7.441
  457POPC   NC3 8603   2.700  40.719   9.564
  457POPC   PO4 8604   2.718  41.400   9.599
  457POPC   GL1 8605   2.918  41.067   9.205
  457POPC   GL2 8606   2.802  40.667   9.092
  457POPC   C1A 8607   2.835  40.976   8.718
  457POPC   D2A 8608   2.554  40.625   8.537
  457POPC   C3A 8609   2.501  40.655   8.115
  457POPC   C4A 8610   2.739  40.961   7.836
  457POPC   C1B 8611   2.994  40.438   8.738
  457POPC   C2B 8612   3.064  40.616   8.321
  457POPC   C3B 8613   2.926  40.480   7.904
  457POPC   C4B 8614   2.810  40.565   7.471
  458POPC   NC3 8615  19.158  39.508   9.468
  458POPC   PO4 8616  18.697  39.098   9.583
  458POPC   GL1 8617  18.924  38.991   9.204
  458POPC   GL2 8618  19.296  39.049   9.108
  458POPC   C1A 8619  18.908  39.151   8.794
  458POPC   D2A 8620  19.170  39.109   8.446
  458POPC   C3A 8621  19.018  38.843   8.174
  458POPC   C4A 8622  18.840  38.987   7.808
  458POPC   C1B 8623  19.428  39.380   8.787
  458POPC   C2B 8624  19.377  39.566   8.332
  458POPC   C3B 8625  19.179  39.581   7.956
  458POPC   C4B 8626  19.052  39.412   7.566
  459POPC   NC3 8627  11.542  14.958   9.475
  459POPC   PO4 8628  12.196  15.108   9.555
  459POPC   GL1 8629  12.109  15.157   9.136
  459POPC   GL2 8630  11.793  15.194   9.100
  459POPC   C1A 8631  12.031  15.009   8.692
  459POPC   D2A 8632  11.986  14.784   8.309
  459POPC   C3A 8633  11.930  15.103   8.050
  459POPC   C4A 8634  11.951  15.218   7.640
  459POPC   C1B 8635  11.656  15.463   8.771
  459POPC   C2B 8636  11.767  15.512   8.361
  459POPC   C3B 8637  11.602  15.480   7.944
  459POPC   C4B 8638  11.816  15.707   7.619
  460POPC   NC3 8639  43.904  25.143   9.479
  460POPC   PO4 8640  44.233  25.718   9.462
  460POPC   GL1 8641  43.868  25.583   9.153
  460POPC   GL2 8642  43.627  25.237   9.094
  460POPC   C1A 8643  43.856  25.474   8.722
  460POPC   D2A 8644  43.723  25.275   8.359
  460POPC   C3A 8645  44.070  25.308   8.069
  460POPC   C4A 8646  44.184  25.608   7.752
  460POPC   C1B 8647  43.556  24.961   8.755
  460POPC   C2B 8648  43.801  24.756   8.447
  460POPC   C3B 8649  43.676  24.863   8.052
  460POPC   C4B 8650  43.698  25.174   7.743
  461POPC   NC3 8651  30.940  20.049   9.435
  461POPC   PO4 8652  30.462  19.602   9.396
  461POPC   GL1 8653  30.788  19.663   9.124
  461POPC   GL2 8654  30.663  20.005   9.016
  461POPC   C1A 8655  30.919  19.655   8.716
  461POPC   D2A 8656  31.038  19.822   8.348
  461POPC   C3A 8657  30.877  19.588   8.039
  461POPC   C4A 8658  30.626  19.662   7.669
  461POPC   C1B 8659  30.607  20.089   8.577
  461POPC   C2B 8660  30.592  20.006   8.149
  461POPC   C3B 8661  30.925  20.069   7.877
  461POPC   C4B 8662  30.765  20.129   7.498
  462POPC   NC3 8663  14.546  42.731   9.453
  462POPC   PO4 8664  14.274  42.082   9.457
  462POPC   GL1 8665  14.464  42.132   9.080
  462POPC   GL2 8666  14.424  42.472   9.030
  462POPC   C1A 8667  14.640  42.202   8.663
  462POPC   D2A 8668  14.857  42.232   8.279
  462POPC   C3A 8669  14.546  42.285   7.986
  462POPC   C4A 8670  14.410  42.520   7.658
  462POPC   C1B 8671  14.109  42.264   8.758
  462POPC   C2B 8672  14.147  42.276   8.328
  462POPC   C3B 8673  14.026  42.321   7.923
  462POPC   C4B 8674  14.167  42.076   7.594
  463POPC   NC3 8675  20.117  16.590   9.422
  463POPC   PO4 8676  19.593  17.096   9.509
  463POPC   GL1 8677  19.677  16.772   9.190
  463POPC   GL2 8678  19.481  16.456   9.186
  463POPC   C1A 8679  19.924  16.805   8.821
  463POPC   D2A 8680  19.969  17.050   8.453
  463POPC   C3A 8681  19.942  16.813   8.055
  463POPC   C4A 8682  19.834  16.916   7.636
  463POPC   C1B 8683  19.610  16.432   8.740
  463POPC   C2B 8684  19.504  16.668   8.351
  463POPC   C3B 8685  19.538  16.535   7.909
  463POPC   C4B 8686  19.930  16.409   7.700
  464POPC   NC3 8687  43.834  18.104   9.507
  464POPC   PO4 8688  44.026  18.659   9.458
  464POPC   GL1 8689  44.163  18.386   9.113
  464POPC   GL2 8690  43.838  18.199   9.016
  464POPC   C1A 8691  44.119  18.372   8.644
  464POPC   D2A 8692  43.775  18.110   8.499
  464POPC   C3A 8693  43.555  18.200   8.125
  464POPC   C4A 8694  43.805  18.269   7.710
  464POPC   C1B 8695  44.092  17.854   8.828
  464POPC   C2B 8696  44.045  17.672   8.413
  464POPC   C3B 8697  44.016  17.921   8.040
  464POPC   C4B 8698  44.109  17.843   7.599
  465POPC   NC3 8699  25.805  15.658   9.565
  465POPC   PO4 8700  26.237  16.174   9.708
  465POPC   GL1 8701  26.102  15.982   9.311
  465POPC   GL2 8702  25.732  16.030   9.235
  465POPC   C1A 8703  26.075  15.949   8.857
  465POPC   D2A 8704  26.138  16.212   8.519
  465POPC   C3A 8705  26.095  16.019   8.164
  465POPC   C4A 8706  26.004  16.113   7.785
  465POPC   C1B 8707  25.602  16.167   8.852
  465POPC   C2B 8708  25.684  16.001   8.491
  465POPC   C3B 8709  25.611  15.920   8.098
  465POPC   C4B 8710  25.553  15.826   7.696
  466POPC   NC3 8711  31.731   8.753   9.424
  466POPC   PO4 8712  31.250   9.151   9.662
  466POPC   GL1 8713  31.407   9.113   9.256
  466POPC   GL2 8714  31.270   8.784   9.200
  466POPC   C1A 8715  31.599   9.013   8.860
  466POPC   D2A 8716  31.560   9.062   8.445
  466POPC   C3A 8717  31.664   9.115   8.026
  466POPC   C4A 8718  31.656   8.795   7.694
  466POPC   C1B 8719  31.201   8.526   8.852
  466POPC   C2B 8720  31.136   8.681   8.463
  466POPC   C3B 8721  31.282   8.772   8.072
  466POPC   C4B 8722  31.053   8.853   7.730
  467POPC   NC3 8723  12.458  35.254   9.506
  467POPC   PO4 8724  13.167  35.491   9.456
  467POPC   GL1 8725  13.063  35.227   9.108
  467POPC   GL2 8726  12.712  35.127   9.088
  467POPC   C1A 8727  13.202  35.267   8.702
  467POPC   D2A 8728  13.031  35.537   8.400
  467POPC   C3A 8729  13.008  35.385   8.017
  467POPC   C4A 8730  13.025  35.639   7.700
  467POPC   C1B 8731  12.693  35.274   8.685
  467POPC   C2B 8732  12.781  35.037   8.327
  467POPC   C3B 8733  12.595  35.099   7.942
  467POPC   C4B 8734  12.540  35.465   7.760
  468POPC   NC3 8735  44.654  32.807   9.505
  468POPC   PO4 8736  44.964  32.184   9.479
  468POPC   GL1 8737   0.015  32.290   9.087
  468POPC   GL2 8738  44.653  32.359   9.078
  468POPC   C1A 8739  44.958  32.181   8.693
  468POPC   D2A 8740  44.936  32.467   8.366
  468POPC   C3A 8741  44.708  32.463   7.988
  468POPC   C4A 8742  44.490  32.198   7.772
  468POPC   C1B 8743  44.499  32.467   8.657
  468POPC   C2B 8744  44.252  32.420   8.255
  468POPC   C3B 8745  44.167  32.592   7.858
  468POPC   C4B 8746  44.115  32.383   7.431
  469POPC   NC3 8747  20.575  12.318   9.928
  469POPC   PO4 8748  20.963  11.861   9.782
  469POPC   GL1 8749  20.796  11.837   9.274
  469POPC   GL2 8750  20.514  11.660   9.077
  469POPC   C1A 8751  20.671  12.044   8.816
  469POPC   D2A 8752  20.515  11.791   8.416
  469POPC   C3A 8753  20.669  11.953   7.980
  469POPC   C4A 8754  20.794  12.322   7.686
  469POPC   C1B 8755  20.945  11.640   8.745
  469POPC   C2B 8756  21.016  11.606   8.275
  469POPC   C3B 8757  21.162  11.834   7.898
  469POPC   C4B 8758  20.994  11.894   7.500
  470POPC   NC3 8759   4.526   3.971   9.445
  470POPC   PO4 8760   5.013   3.488   9.357
  470POPC   GL1 8761   4.876   3.353   9.001
  470POPC   GL2 8762   4.572   3.520   9.041
  470POPC   C1A 8763   4.951   3.312   8.567
  470POPC   D2A 8764   4.679   3.454   8.234
  470POPC   C3A 8765   4.917   3.430   7.908
  470POPC   C4A 8766   5.349   3.452   7.863
  470POPC   C1B 8767   4.689   3.736   8.651
  470POPC   C2B 8768   5.055   3.774   8.306
  470POPC   C3B 8769   4.982   3.923   7.850
  470POPC   C4B 8770   5.028   4.140   7.426
  471POPC   NC3 8771  36.122  10.974   9.552
  471POPC   PO4 8772  35.864  10.346   9.494
  471POPC   GL1 8773  36.056  10.581   9.149
  471POPC   GL2 8774  36.408  10.626   9.244
  471POPC   C1A 8775  35.964  10.490   8.691
  471POPC   D2A 8776  35.759  10.292   8.359
  471POPC   C3A 8777  35.996  10.359   8.014
  471POPC   C4A 8778  35.957  10.589   7.684
  471POPC   C1B 8779  36.437  10.622   8.802
  471POPC   C2B 8780  36.384  10.413   8.381
  471POPC   C3B 8781  36.450  10.584   7.936
  471POPC   C4B 8782  36.425  10.638   7.468
  472POPC   NC3 8783   4.109  29.389   9.559
  472POPC   PO4 8784   4.248  30.004   9.696
  472POPC   GL1 8785   4.295  30.045   9.241
  472POPC   GL2 8786   3.935  30.085   9.195
  472POPC   C1A 8787   4.547  30.046   8.813
  472POPC   D2A 8788   4.600  29.735   8.442
  472POPC   C3A 8789   4.676  29.938   8.035
  472POPC   C4A 8790   4.522  30.022   7.600
  472POPC   C1B 8791   4.094  29.840   8.826
  472POPC   C2B 8792   4.186  30.027   8.395
  472POPC   C3B 8793   4.164  29.940   7.943
  472POPC   C4B 8794   3.966  29.557   7.746
  473POPC   NC3 8795  15.685  23.931   9.661
  473POPC   PO4 8796  16.233  23.475   9.504
  473POPC   GL1 8797  16.104  23.667   9.125
  473POPC   GL2 8798  15.909  23.935   9.138
  473POPC   C1A 8799  16.059  23.753   8.678
  473POPC   D2A 8800  16.233  23.517   8.345
  473POPC   C3A 8801  16.126  23.671   7.958
  473POPC   C4A 8802  15.745  23.568   7.761
  473POPC   C1B 8803  15.821  24.216   8.762
  473POPC   C2B 8804  15.654  24.157   8.399
  473POPC   C3B 8805  15.707  23.969   8.069
  473POPC   C4B 8806  15.716  24.071   7.688
  474POPC   NC3 8807  29.363   9.087   9.591
  474POPC   PO4 8808  28.855   8.681   9.545
  474POPC   GL1 8809  29.083   8.813   9.208
  474POPC   GL2 8810  29.069   9.133   9.174
  474POPC   C1A 8811  29.213   8.837   8.767
  474POPC   D2A 8812  29.000   8.959   8.396
  474POPC   C3A 8813  29.241   8.841   8.079
  474POPC   C4A 8814  29.468   8.779   7.702
  474POPC   C1B 8815  28.941   9.288   8.775
  474POPC   C2B 8816  28.630   9.329   8.435
  474POPC   C3B 8817  28.738   9.193   8.020
  474POPC   C4B 8818  29.139   9.299   7.796
  475POPC   NC3 8819  34.078  39.065   9.504
  475POPC   PO4 8820  34.773  39.185   9.555
  475POPC   GL1 8821  34.762  39.090   9.140
  475POPC   GL2 8822  34.419  39.219   9.143
  475POPC   C1A 8823  34.700  39.215   8.710
  475POPC   D2A 8824  34.767  39.398   8.321
  475POPC   C3A 8825  34.806  39.175   7.981
  475POPC   C4A 8826  34.659  39.126   7.604
  475POPC   C1B 8827  34.332  39.544   8.840
  475POPC   C2B 8828  34.328  39.692   8.395
  475POPC   C3B 8829  34.381  39.515   7.967
  475POPC   C4B 8830  34.404  39.739   7.590
  476POPC   NC3 8831  17.702   7.659   9.548
  476POPC   PO4 8832  17.389   7.155   9.323
  476POPC   GL1 8833  17.381   7.559   9.116
  476POPC   GL2 8834  17.732   7.667   9.022
  476POPC   C1A 8835  17.349   7.646   8.685
  476POPC   D2A 8836  17.560   7.475   8.307
  476POPC   C3A 8837  17.518   7.629   7.891
  476POPC   C4A 8838  17.458   7.385   7.570
  476POPC   C1B 8839  17.735   7.256   8.754
  476POPC   C2B 8840  17.802   7.005   8.346
  476POPC   C3B 8841  17.853   7.188   7.914
  476POPC   C4B 8842  17.870   7.149   7.438
  477POPC   NC3 8843  31.798  21.890   9.463
  477POPC   PO4 8844  32.399  22.108   9.546
  477POPC   GL1 8845  32.290  22.043   9.128
  477POPC   GL2 8846  32.521  21.811   9.008
  477POPC   C1A 8847  32.404  22.172   8.682
  477POPC   D2A 8848  32.229  22.203   8.279
  477POPC   C3A 8849  32.510  22.141   7.940
  477POPC   C4A 8850  32.477  22.257   7.483
  477POPC   C1B 8851  32.079  21.778   8.760
  477POPC   C2B 8852  31.895  21.825   8.340
  477POPC   C3B 8853  32.063  21.866   7.921
  477POPC   C4B 8854  32.429  21.746   7.620
  478POPC   NC3 8855   5.170  32.031   9.528
  478POPC   PO4 8856   5.003  32.681   9.421
  478POPC   GL1 8857   5.021  32.351   9.123
  478POPC   GL2 8858   4.810  32.061   9.138
  478POPC   C1A 8859   5.102  32.430   8.712
  478POPC   D2A 8860   4.943  32.304   8.368
  478POPC   C3A 8861   5.077  32.517   8.001
  478POPC   C4A 8862   5.386  32.349   7.718
  478POPC   C1B 8863   4.784  31.898   8.697
  478POPC   C2B 8864   4.653  31.900   8.260
  478POPC   C3B 8865   4.697  31.903   7.806
  478POPC   C4B 8866   4.920  32.169   7.604
  479POPC   NC3 8867  26.402  25.869   9.434
  479POPC   PO4 8868  27.134  26.001   9.561
  479POPC   GL1 8869  26.894  25.850   9.219
  479POPC   GL2 8870  26.961  26.173   9.110
  479POPC   C1A 8871  26.723  25.713   8.815
  479POPC   D2A 8872  26.508  25.953   8.485
  479POPC   C3A 8873  26.544  25.833   8.046
  479POPC   C4A 8874  26.755  25.723   7.660
  479POPC   C1B 8875  26.972  26.168   8.714
  479POPC   C2B 8876  26.819  26.373   8.397
  479POPC   C3B 8877  26.917  26.190   8.058
  479POPC   C4B 8878  26.737  26.248   7.714
  480POPC   NC3 8879  33.118  35.605   9.514
  480POPC   PO4 8880  33.038  34.912   9.567
  480POPC   GL1 8881  33.107  35.027   9.175
  480POPC   GL2 8882  32.951  35.329   9.126
  480POPC   C1A 8883  33.113  35.094   8.716
  480POPC   D2A 8884  32.896  35.162   8.355
  480POPC   C3A 8885  33.126  35.480   8.166
  480POPC   C4A 8886  33.199  35.332   7.783
  480POPC   C1B 8887  32.743  35.475   8.755
  480POPC   C2B 8888  32.615  35.709   8.394
  480POPC   C3B 8889  32.638  35.523   7.987
  480POPC   C4B 8890  32.765  35.499   7.571
  481POPC   NC3 8891  10.617  39.659   9.506
  481POPC   PO4 8892  10.437  40.266   9.783
  481POPC   GL1 8893  10.395  40.120   9.215
  481POPC   GL2 8894  10.485  39.847   9.060
  481POPC   C1A 8895  10.514  40.343   8.800
  481POPC   D2A 8896  10.559  40.503   8.362
  481POPC   C3A 8897  10.433  40.172   8.104
  481POPC   C4A 8898  10.559  39.904   7.779
  481POPC   C1B 8899  10.630  39.659   8.717
  481POPC   C2B 8900  10.682  39.771   8.312
  481POPC   C3B 8901  10.967  39.676   8.018
  481POPC   C4B 8902  10.883  39.546   7.608
  482POPC   NC3 8903  36.718  34.286   9.552
  482POPC   PO4 8904  37.295  34.635   9.409
  482POPC   GL1 8905  36.978  34.484   9.144
  482POPC   GL2 8906  36.605  34.466   9.112
  482POPC   C1A 8907  36.936  34.238   8.785
  482POPC   D2A 8908  37.180  34.188   8.409
  482POPC   C3A 8909  36.866  34.199   8.084
  482POPC   C4A 8910  36.838  34.341   7.697
  482POPC   C1B 8911  36.670  34.689   8.771
  482POPC   C2B 8912  36.868  34.617   8.414
  482POPC   C3B 8913  36.858  34.736   8.013
  482POPC   C4B 8914  36.579  34.855   7.662
  483POPC   NC3 8915  44.053  41.395   9.465
  483POPC   PO4 8916  43.462  41.670   9.575
  483POPC   GL1 8917  43.629  41.645   9.150
  483POPC   GL2 8918  43.667  41.296   9.121
  483POPC   C1A 8919  43.643  41.823   8.711
  483POPC   D2A 8920  43.884  41.773   8.339
  483POPC   C3A 8921  43.709  41.622   7.990
  483POPC   C4A 8922  43.846  41.820   7.668
  483POPC   C1B 8923  43.920  41.401   8.790
  483POPC   C2B 8924  43.790  41.288   8.411
  483POPC   C3B 8925  44.030  41.248   8.081
  483POPC   C4B 8926  43.976  41.302   7.706
  484POPC   NC3 8927  43.496   7.410   9.341
  484POPC   PO4 8928  44.088   7.773   9.425
  484POPC   GL1 8929  43.906   7.576   9.116
  484POPC   GL2 8930  43.683   7.838   9.013
  484POPC   C1A 8931  43.832   7.323   8.748
  484POPC   D2A 8932  43.736   7.198   8.320
  484POPC   C3A 8933  43.675   7.521   7.998
  484POPC   C4A 8934  43.995   7.333   7.806
  484POPC   C1B 8935  44.016   7.825   8.689
  484POPC   C2B 8936  44.082   7.619   8.295
  484POPC   C3B 8937  44.315   7.703   7.944
  484POPC   C4B 8938  44.376   7.516   7.555
  485POPC   NC3 8939  36.245  38.181   9.773
  485POPC   PO4 8940  36.197  38.683   9.371
  485POPC   GL1 8941  36.089  38.371   9.094
  485POPC   GL2 8942  36.330  38.180   9.244
  485POPC   C1A 8943  35.866  38.433   8.705
  485POPC   D2A 8944  36.069  38.559   8.324
  485POPC   C3A 8945  35.851  38.576   7.906
  485POPC   C4A 8946  35.989  38.623   7.460
  485POPC   C1B 8947  36.449  38.113   8.817
  485POPC   C2B 8948  36.199  38.084   8.426
  485POPC   C3B 8949  36.280  38.254   7.968
  485POPC   C4B 8950  36.648  38.164   7.698
  486POPC   NC3 8951  39.166  14.944   9.361
  486POPC   PO4 8952  39.388  14.361   9.558
  486POPC   GL1 8953  39.136  14.455   9.178
  486POPC   GL2 8954  38.806  14.683   9.159
  486POPC   C1A 8955  39.159  14.219   8.799
  486POPC   D2A 8956  39.384  14.141   8.418
  486POPC   C3A 8957  39.160  14.051   8.033
  486POPC   C4A 8958  39.546  14.147   7.786
  486POPC   C1B 8959  38.767  14.685   8.714
  486POPC   C2B 8960  39.023  14.504   8.394
  486POPC   C3B 8961  39.286  14.525   8.079
  486POPC   C4B 8962  39.219  14.527   7.697
  487POPC   NC3 8963  25.126  16.430   9.194
  487POPC   PO4 8964  25.654  16.534   9.517
  487POPC   GL1 8965  25.495  16.830   9.164
  487POPC   GL2 8966  25.148  16.864   8.929
  487POPC   C1A 8967  25.594  17.014   8.763
  487POPC   D2A 8968  25.372  16.761   8.473
  487POPC   C3A 8969  25.370  16.891   8.085
  487POPC   C4A 8970  25.463  16.888   7.726
  487POPC   C1B 8971  24.912  16.568   8.618
  487POPC   C2B 8972  24.767  16.315   8.299
  487POPC   C3B 8973  24.987  16.548   8.063
  487POPC   C4B 8974  25.099  16.549   7.656
  488POPC   NC3 8975  23.028  43.407   9.642
  488POPC   PO4 8976  23.018  42.743   9.501
  488POPC   GL1 8977  22.948  43.080   9.216
  488POPC   GL2 8978  22.627  43.274   9.160
  488POPC   C1A 8979  23.125  43.174   8.809
  488POPC   D2A 8980  23.106  43.023   8.396
  488POPC   C3A 8981  23.230  43.241   8.027
  488POPC   C4A 8982  23.091  43.058   7.664
  488POPC   C1B 8983  22.695  43.489   8.748
  488POPC   C2B 8984  22.810  43.475   8.304
  488POPC   C3B 8985  22.711  43.123   8.033
  488POPC   C4B 8986  22.715  42.707   7.838
  489POPC   NC3 8987   1.616  41.865   9.459
  489POPC   PO4 8988   0.961  41.800   9.573
  489POPC   GL1 8989   1.179  41.907   9.203
  489POPC   GL2 8990   1.279  41.570   9.177
  489POPC   C1A 8991   1.240  41.872   8.754
  489POPC   D2A 8992   1.292  41.552   8.434
  489POPC   C3A 8993   1.307  41.697   8.021
  489POPC   C4A 8994   1.557  41.925   7.734
  489POPC   C1B 8995   1.304  41.252   8.876
  489POPC   C2B 8996   1.047  41.110   8.541
  489POPC   C3B 8997   1.132  41.182   8.088
  489POPC   C4B 8998   1.430  41.303   7.747
  490POPC   NC3 8999  18.888  43.210   9.468
  490POPC   PO4 9000  19.504  42.978   9.740
  490POPC   GL1 9001  19.272  43.252   9.160
  490POPC   GL2 9002  19.026  42.982   9.035
  490POPC   C1A 9003  19.042  43.236   8.639
  490POPC   D2A 9004  19.004  43.449   8.276
  490POPC   C3A 9005  19.107  43.282   7.914
  490POPC   C4A 9006  19.225  43.226   7.479
  490POPC   C1B 9007  19.454  42.984   8.695
  490POPC   C2B 9008  19.366  43.005   8.297
  490POPC   C3B 9009  19.438  42.899   7.895
  490POPC   C4B 9010  19.072  42.812   7.681
  491POPC   NC3 9011  34.295  34.717   9.414
  491POPC   PO4 9012  34.772  34.280   9.463
  491POPC   GL1 9013  34.606  34.446   9.088
  491POPC   GL2 9014  34.252  34.416   9.027
  491POPC   C1A 9015  34.715  34.538   8.672
  491POPC   D2A 9016  34.955  34.769   8.365
  491POPC   C3A 9017  34.883  34.544   8.007
  491POPC   C4A 9018  34.701  34.784   7.735
  491POPC   C1B 9019  34.278  34.754   8.712
  491POPC   C2B 9020  34.436  34.766   8.276
  491POPC   C3B 9021  34.243  34.929   7.905
  491POPC   C4B 9022  34.308  34.877   7.421
  492POPC   NC3 9023   3.668  43.055   9.652
  492POPC   PO4 9024   3.314  43.480   9.213
  492POPC   GL1 9025   3.390  43.149   8.955
  492POPC   GL2 9026   3.542  42.909   9.170
  492POPC   C1A 9027   3.305  43.111   8.530
  492POPC   D2A 9028   3.443  43.408   8.221
  492POPC   C3A 9029   3.322  43.501   7.799
  492POPC   C4A 9030   3.402  43.237   7.438
  492POPC   C1B 9031   3.738  42.830   8.772
  492POPC   C2B 9032   3.787  42.976   8.358
  492POPC   C3B 9033   3.561  42.959   7.985
  492POPC   C4B 9034   3.724  42.898   7.596
  493POPC   NC3 9035  31.215   7.901   9.514
  493POPC   PO4 9036  31.631   8.317   9.322
  493POPC   GL1 9037  31.590   8.011   9.043
  493POPC   GL2 9038  31.301   7.831   9.028
  493POPC   C1A 9039  31.500   8.140   8.640
  493POPC   D2A 9040  31.297   8.238   8.273
  493POPC   C3A 9041  31.505   8.322   7.899
  493POPC   C4A 9042  31.275   8.452   7.533
  493POPC   C1B 9043  31.022   7.945   8.685
  493POPC   C2B 9044  30.953   7.853   8.242
  493POPC   C3B 9045  31.055   8.044   7.840
  493POPC   C4B 9046  31.380   7.971   7.534
  494POPC   NC3 9047  10.569  16.320   9.567
  494POPC   PO4 9048  10.358  15.625   9.645
  494POPC   GL1 9049  10.318  15.759   9.172
  494POPC   GL2 9050  10.286  16.113   9.204
  494POPC   C1A 9051  10.557  15.981   8.778
  494POPC   D2A 9052  10.845  15.888   8.420
  494POPC   C3A 9053  10.685  16.038   8.003
  494POPC   C4A 9054  10.327  15.920   7.746
  494POPC   C1B 9055  10.190  16.332   8.887
  494POPC   C2B 9056  10.162  16.244   8.493
  494POPC   C3B 9057  10.366  16.414   8.172
  494POPC   C4B 9058  10.272  16.457   7.755
  495POPC   NC3 9059  18.760  11.267   9.223
  495POPC   PO4 9060  19.333  11.606   9.435
  495POPC   GL1 9061  19.234  11.445   9.080
  495POPC   GL2 9062  18.976  11.666   9.011
  495POPC   C1A 9063  19.133  11.306   8.694
  495POPC   D2A 9064  18.890  11.283   8.365
  495POPC   C3A 9065  19.108  11.144   8.035
  495POPC   C4A 9066  18.866  11.030   7.729
  495POPC   C1B 9067  18.695  11.624   8.701
  495POPC   C2B 9068  18.620  11.711   8.301
  495POPC   C3B 9069  18.811  11.759   7.908
  495POPC   C4B 9070  18.732  11.588   7.520
  496POPC   NC3 9071   7.197  22.934   9.379
  496POPC   PO4 9072   7.736  22.752   9.615
  496POPC   GL1 9073   7.532  22.561   9.171
  496POPC   GL2 9074   7.184  22.606   8.977
  496POPC   C1A 9075   7.635  22.472   8.710
  496POPC   D2A 9076   7.605  22.516   8.233
  496POPC   C3A 9077   7.498  22.801   7.863
  496POPC   C4A 9078   7.619  22.695   7.401
  496POPC   C1B 9079   7.208  22.768   8.565
  496POPC   C2B 9080   7.271  23.081   8.238
  496POPC   C3B 9081   7.200  23.237   7.809
  496POPC   C4B 9082   7.255  23.053   7.400
  497POPC   NC3 9083   2.101  19.275   9.473
  497POPC   PO4 9084   2.333  18.645   9.436
  497POPC   GL1 9085   2.162  18.914   9.104
  497POPC   GL2 9086   1.828  19.058   9.099
  497POPC   C1A 9087   2.160  19.164   8.724
  497POPC   D2A 9088   2.171  18.939   8.358
  497POPC   C3A 9089   2.215  19.180   8.024
  497POPC   C4A 9090   2.436  19.089   7.687
  497POPC   C1B 9091   1.801  18.794   8.739
  497POPC   C2B 9092   1.747  18.550   8.355
  497POPC   C3B 9093   1.642  18.695   7.950
  497POPC   C4B 9094   1.932  18.918   7.718
  498POPC   NC3 9095   3.255   7.022   9.467
  498POPC   PO4 9096   3.497   7.645   9.524
  498POPC   GL1 9097   3.442   7.407   9.156
  498POPC   GL2 9098   3.679   7.195   9.124
  498POPC   C1A 9099   3.294   7.375   8.700
  498POPC   D2A 9100   3.220   7.153   8.293
  498POPC   C3A 9101   3.345   7.416   7.932
  498POPC   C4A 9102   3.424   7.478   7.482
  498POPC   C1B 9103   3.787   7.460   8.766
  498POPC   C2B 9104   3.751   7.671   8.373
  498POPC   C3B 9105   3.810   7.333   8.088
  498POPC   C4B 9106   3.861   7.197   7.692
  499POPC   NC3 9107  23.584  37.095   9.490
  499POPC   PO4 9108  23.564  36.474   9.411
  499POPC   GL1 9109  23.770  36.702   9.090
  499POPC   GL2 9110  23.923  37.057   9.084
  499POPC   C1A 9111  23.707  36.740   8.660
  499POPC   D2A 9112  23.541  36.942   8.320
  499POPC   C3A 9113  23.658  36.760   7.955
  499POPC   C4A 9114  23.911  36.958   7.658
  499POPC   C1B 9115  23.547  37.179   8.835
  499POPC   C2B 9116  23.416  37.409   8.504
  499POPC   C3B 9117  23.502  37.440   8.108
  499POPC   C4B 9118  23.463  37.239   7.740
  500POPC   NC3 9119  39.097  35.546   9.619
  500POPC   PO4 9120  39.434  35.009   9.396
  500POPC   GL1 9121  39.293  35.343   9.129
  500POPC   GL2 9122  38.949  35.477   9.138
  500POPC   C1A 9123  39.198  35.322   8.702
  500POPC   D2A 9124  39.051  35.158   8.324
  500POPC   C3A 9125  39.248  35.158   7.937
  500POPC   C4A 9126  39.170  34.989   7.547
  500POPC   C1B 9127  38.932  35.760   8.812
  500POPC   C2B 9128  38.985  35.690   8.424
  500POPC   C3B 9129  38.936  35.570   8.033
  500POPC   C4B 9130  39.237  35.625   7.747
  501POPC   NC3 9131  18.475  25.136   9.663
  501POPC   PO4 9132  18.002  25.553   9.407
  501POPC   GL1 9133  18.299  25.379   9.096
  501POPC   GL2 9134  18.405  25.636   8.926
  501POPC   C1A 9135  18.325  25.149   8.679
  501POPC   D2A 9136  18.440  25.297   8.223
  501POPC   C3A 9137  18.436  24.970   7.845
  501POPC   C4A 9138  18.440  24.769   7.387
  501POPC   C1B 9139  18.013  25.539   8.704
  501POPC   C2B 9140  17.840  25.266   8.395
  501POPC   C3B 9141  17.988  25.234   7.984
  501POPC   C4B 9142  18.288  25.541   7.781
  502POPC   NC3 9143  29.635  34.898   9.248
  502POPC   PO4 9144  29.932  34.334   9.591
  502POPC   GL1 9145  30.111  34.598   9.312
  502POPC   GL2 9146  29.910  34.387   9.056
  502POPC   C1A 9147  30.234  34.732   8.900
  502POPC   D2A 9148  30.136  34.476   8.522
  502POPC   C3A 9149  30.260  34.700   8.140
  502POPC   C4A 9150  30.026  34.748   7.753
  502POPC   C1B 9151  29.672  34.229   8.677
  502POPC   C2B 9152  29.634  34.189   8.226
  502POPC   C3B 9153  29.684  34.342   7.798
  502POPC   C4B 9154  29.819  34.324   7.375
  503POPC   NC3 9155  41.258  37.373   9.544
  503POPC   PO4 9156  41.815  37.700   9.585
  503POPC   GL1 9157  41.713  37.511   9.183
  503POPC   GL2 9158  41.403  37.684   9.155
  503POPC   C1A 9159  41.672  37.651   8.725
  503POPC   D2A 9160  41.624  38.059   8.520
  503POPC   C3A 9161  41.689  38.012   8.071
  503POPC   C4A 9162  41.798  37.648   7.797
  503POPC   C1B 9163  41.127  37.747   8.792
  503POPC   C2B 9164  41.085  37.566   8.404
  503POPC   C3B 9165  41.328  37.602   8.035
  503POPC   C4B 9166  41.339  37.904   7.703
  504POPC   NC3 9167  12.614  44.729   9.841
  504POPC   PO4 9168  12.160  44.484   9.440
  504POPC   GL1 9169  12.208  44.524   9.038
  504POPC   GL2 9170  12.044  44.834   9.058
  504POPC   C1A 9171  12.147  44.596   8.616
  504POPC   D2A 9172  12.206  44.867   8.285
  504POPC   C3A 9173  12.019  44.618   8.019
  504POPC   C4A 9174  11.802  44.666   7.672
  504POPC   C1B 9175  12.289   0.049   8.788
  504POPC   C2B 9176  12.622  44.925   8.579
  504POPC   C3B 9177  12.704  44.854   8.164
  504POPC   C4B 9178  12.454  44.813   7.801
  505POPC   NC3 9179  37.170  20.193   9.381
  505POPC   PO4 9180  36.701  19.691   9.332
  505POPC   GL1 9181  36.769  19.943   9.032
  505POPC   GL2 9182  37.103  19.831   9.011
  505POPC   C1A 9183  36.683  19.952   8.590
  505POPC   D2A 9184  36.948  19.838   8.238
  505POPC   C3A 9185  36.702  19.892   7.893
  505POPC   C4A 9186  36.772  19.744   7.493
  505POPC   C1B 9187  37.154  20.123   8.662
  505POPC   C2B 9188  37.220  20.272   8.232
  505POPC   C3B 9189  37.147  20.083   7.795
  505POPC   C4B 9190  37.178  20.007   7.310
  506POPC   NC3 9191  23.794  34.372   9.476
  506POPC   PO4 9192  23.693  34.982   9.402
  506POPC   GL1 9193  23.704  34.699   9.104
  506POPC   GL2 9194  24.057  34.688   9.151
  506POPC   C1A 9195  23.622  34.478   8.729
  506POPC   D2A 9196  23.495  34.637   8.332
  506POPC   C3A 9197  23.418  34.357   8.019
  506POPC   C4A 9198  23.623  34.051   7.807
  506POPC   C1B 9199  23.987  34.871   8.735
  506POPC   C2B 9200  24.081  34.690   8.331
  506POPC   C3B 9201  23.883  34.553   7.957
  506POPC   C4B 9202  23.705  34.908   7.752
  507POPC   NC3 9203  28.069  10.603   9.603
  507POPC   PO4 9204  28.550  10.254   9.578
  507POPC   GL1 9205  28.422  10.479   9.195
  507POPC   GL2 9206  28.101  10.340   9.176
  507POPC   C1A 9207  28.422  10.779   8.808
  507POPC   D2A 9208  28.616  10.845   8.362
  507POPC   C3A 9209  28.385  10.826   7.949
  507POPC   C4A 9210  28.451  10.495   7.586
  507POPC   C1B 9211  27.983  10.497   8.799
  507POPC   C2B 9212  28.115  10.622   8.423
  507POPC   C3B 9213  28.026  10.494   8.053
  507POPC   C4B 9214  27.984  10.318   7.669
  508POPC   NC3 9215   1.807   6.287   9.513
  508POPC   PO4 9216   2.113   6.850   9.449
  508POPC   GL1 9217   1.925   6.627   9.129
  508POPC   GL2 9218   2.169   6.361   9.111
  508POPC   C1A 9219   1.814   6.747   8.714
  508POPC   D2A 9220   2.042   6.743   8.330
  508POPC   C3A 9221   1.858   6.726   7.912
  508POPC   C4A 9222   2.067   6.714   7.520
  508POPC   C1B 9223   2.093   6.320   8.665
  508POPC   C2B 9224   2.223   6.270   8.223
  508POPC   C3B 9225   2.033   6.254   7.780
  508POPC   C4B 9226   1.972   6.240   7.302
  509POPC   NC3 9227  16.241  29.519   9.879
  509POPC   PO4 9228  16.152  29.035   9.365
  509POPC   GL1 9229  15.986  29.121   9.034
  509POPC   GL2 9230  15.746  29.396   9.094
  509POPC   C1A 9231  16.006  28.895   8.677
  509POPC   D2A 9232  15.768  28.839   8.338
  509POPC   C3A 9233  16.028  28.730   8.027
  509POPC   C4A 9234  15.879  28.815   7.649
  509POPC   C1B 9235  15.883  29.471   8.681
  509POPC   C2B 9236  16.065  29.294   8.340
  509POPC   C3B 9237  15.954  29.231   7.942
  509POPC   C4B 9238  15.892  29.449   7.587
  510POPC   NC3 9239  22.892   8.997   9.577
  510POPC   PO4 9240  22.456   9.494   9.366
  510POPC   GL1 9241  22.799   9.247   9.122
  510POPC   GL2 9242  22.900   8.897   9.085
  510POPC   C1A 9243  22.886   9.209   8.687
  510POPC   D2A 9244  23.149   9.281   8.364
  510POPC   C3A 9245  22.935   9.203   7.968
  510POPC   C4A 9246  22.751   9.102   7.547
  510POPC   C1B 9247  22.769   8.699   8.712
  510POPC   C2B 9248  22.870   8.842   8.330
  510POPC   C3B 9249  22.871   8.698   7.957
  510POPC   C4B 9250  22.849   8.599   7.553
  511POPC   NC3 9251  23.289  43.941   9.337
  511POPC   PO4 9252  22.665  43.661   9.512
  511POPC   GL1 9253  22.793  43.797   9.147
  511POPC   GL2 9254  23.048  43.568   9.115
  511POPC   C1A 9255  22.843  44.091   8.814
  511POPC   D2A 9256  22.918  44.020   8.381
  511POPC   C3A 9257  22.740  44.228   8.002
  511POPC   C4A 9258  22.658  43.943   7.670
  511POPC   C1B 9259  23.165  43.688   8.718
  511POPC   C2B 9260  23.291  43.647   8.324
  511POPC   C3B 9261  23.102  43.809   7.956
  511POPC   C4B 9262  22.897  43.513   7.760
  512POPC   NC3 9263  10.769   0.278   9.502
  512POPC   PO4 9264  10.125   0.348   9.665
  512POPC   GL1 9265  10.358   0.552   9.274
  512POPC   GL2 9266  10.505   0.276   9.068
  512POPC   C1A 9267  10.412   0.708   8.806
  512POPC   D2A 9268  10.396   0.441   8.395
  512POPC   C3A 9269  10.520   0.633   7.997
  512POPC   C4A 9270  10.912   0.726   7.795
  512POPC   C1B 9271  10.597  44.903   8.811
  512POPC   C2B 9272  10.545  44.909   8.391
  512POPC   C3B 9273  10.662   0.101   8.052
  512POPC   C4B 9274  10.370   0.136   7.768
  513POPC   NC3 9275   5.969  27.977   9.568
  513POPC   PO4 9276   6.129  28.630   9.526
  513POPC   GL1 9277   5.852  28.510   9.201
  513POPC   GL2 9278   6.021  28.757   9.029
  513POPC   C1A 9279   5.579  28.298   8.902
  513POPC   D2A 9280   5.683  28.139   8.503
  513POPC   C3A 9281   5.608  28.387   8.105
  513POPC   C4A 9282   5.830  28.232   7.725
  513POPC   C1B 9283   6.076  28.408   8.736
  513POPC   C2B 9284   6.084  28.416   8.300
  513POPC   C3B 9285   6.119  28.629   7.918
  513POPC   C4B 9286   5.960  28.711   7.516
  514POPC   NC3 9287   3.182  28.454   9.465
  514POPC   PO4 9288   2.569  28.093   9.485
  514POPC   GL1 9289   2.813  28.150   9.088
  514POPC   GL2 9290   2.813  28.506   9.116
  514POPC   C1A 9291   2.672  28.301   8.648
  514POPC   D2A 9292   2.409  28.553   8.343
  514POPC   C3A 9293   2.558  28.465   7.937
  514POPC   C4A 9294   2.722  28.187   7.626
  514POPC   C1B 9295   3.029  28.654   8.752
  514POPC   C2B 9296   2.926  28.666   8.309
  514POPC   C3B 9297   3.099  28.443   7.948
  514POPC   C4B 9298   3.068  28.562   7.523
  515POPC   NC3 9299  33.172  12.833   9.402
  515POPC   PO4 9300  32.625  12.878   9.650
  515POPC   GL1 9301  32.768  12.569   9.215
  515POPC   GL2 9302  33.054  12.714   8.956
  515POPC   C1A 9303  32.741  12.404   8.781
  515POPC   D2A 9304  32.868  12.769   8.499
  515POPC   C3A 9305  33.064  12.719   8.134
  515POPC   C4A 9306  32.789  12.580   7.809
  515POPC   C1B 9307  33.301  13.058   8.764
  515POPC   C2B 9308  33.378  13.217   8.363
  515POPC   C3B 9309  33.138  13.240   7.995
  515POPC   C4B 9310  33.142  12.930   7.671
  516POPC   NC3 9311  35.988  34.390   9.378
  516POPC   PO4 9312  36.541  34.792   9.534
  516POPC   GL1 9313  36.252  34.823   9.157
  516POPC   GL2 9314  35.927  34.909   9.249
  516POPC   C1A 9315  36.186  34.562   8.764
  516POPC   D2A 9316  36.404  34.384   8.402
  516POPC   C3A 9317  36.249  34.552   8.013
  516POPC   C4A 9318  36.351  34.406   7.631
  516POPC   C1B 9319  35.837  34.951   8.804
  516POPC   C2B 9320  35.949  34.875   8.392
  516POPC   C3B 9321  35.772  34.902   8.017
  516POPC   C4B 9322  35.835  34.730   7.647
  517POPC   NC3 9323  43.519  40.333   9.428
  517POPC   PO4 9324  43.857  40.965   9.471
  517POPC   GL1 9325  43.891  40.817   9.085
  517POPC   GL2 9326  43.790  40.489   9.022
  517POPC   C1A 9327  43.669  40.915   8.742
  517POPC   D2A 9328  43.608  40.747   8.349
  517POPC   C3A 9329  43.623  40.986   8.014
  517POPC   C4A 9330  43.858  40.827   7.693
  517POPC   C1B 9331  44.196  40.503   8.780
  517POPC   C2B 9332  44.265  40.421   8.343
  517POPC   C3B 9333  43.950  40.479   8.049
  517POPC   C4B 9334  43.890  40.323   7.633
  518POPC   NC3 9335  43.239   8.946   9.637
  518POPC   PO4 9336  42.607   9.179   9.564
  518POPC   GL1 9337  42.888   8.896   9.267
  518POPC   GL2 9338  43.150   9.166   9.158
  518POPC   C1A 9339  43.149   8.732   8.883
  518POPC   D2A 9340  43.265   9.043   8.560
  518POPC   C3A 9341  43.269   8.973   8.111
  518POPC   C4A 9342  43.125   8.718   7.747
  518POPC   C1B 9343  42.821   9.157   8.830
  518POPC   C2B 9344  42.730   9.123   8.379
  518POPC   C3B 9345  42.804   9.108   7.945
  518POPC   C4B 9346  43.095   9.250   7.705
  519POPC   NC3 9347  37.034  25.574   9.579
  519POPC   PO4 9348  36.804  24.920   9.656
  519POPC   GL1 9349  36.683  25.184   9.266
  519POPC   GL2 9350  36.494  25.512   9.333
  519POPC   C1A 9351  36.920  25.441   8.915
  519POPC   D2A 9352  37.118  25.635   8.515
  519POPC   C3A 9353  37.140  25.362   8.141
  519POPC   C4A 9354  37.108  25.457   7.706
  519POPC   C1B 9355  36.418  25.446   8.879
  519POPC   C2B 9356  36.652  25.407   8.455
  519POPC   C3B 9357  36.640  25.182   8.059
  519POPC   C4B 9358  36.604  25.355   7.677
  520POPC   NC3 9359   3.811  34.149   9.351
  520POPC   PO4 9360   3.269  33.941   9.672
  520POPC   GL1 9361   3.341  34.021   9.181
  520POPC   GL2 9362   3.635  33.795   9.058
  520POPC   C1A 9363   3.289  33.951   8.722
  520POPC   D2A 9364   3.452  34.163   8.350
  520POPC   C3A 9365   3.200  34.043   8.002
  520POPC   C4A 9366   3.378  33.849   7.638
  520POPC   C1B 9367   3.817  33.945   8.699
  520POPC   C2B 9368   3.843  33.812   8.297
  520POPC   C3B 9369   3.874  33.938   7.868
  520POPC   C4B 9370   4.026  33.946   7.419
  521POPC   NC3 9371  41.233  20.188   9.696
  521POPC   PO4 9372  41.490  20.782   9.529
  521POPC   GL1 9373  41.472  20.670   9.128
  521POPC   GL2 9374  41.818  20.606   9.061
  521POPC   C1A 9375  41.482  20.817   8.723
  521POPC   D2A 9376  41.662  20.668   8.376
  521POPC   C3A 9377  41.385  20.735   8.006
  521POPC   C4A 9378  41.299  20.629   7.551
  521POPC   C1B 9379  42.017  20.370   8.724
  521POPC   C2B 9380  42.066  20.276   8.275
  521POPC   C3B 9381  41.809  20.444   7.951
  521POPC   C4B 9382  41.763  20.444   7.522
  522POPC   NC3 9383   3.008   5.057   9.813
  522POPC   PO4 9384   3.572   5.035   9.471
  522POPC   GL1 9385   3.644   5.076   9.047
  522POPC   GL2 9386   3.343   5.101   8.824
  522POPC   C1A 9387   3.709   4.789   8.688
  522POPC   D2A 9388   3.536   4.991   8.310
  522POPC   C3A 9389   3.794   5.012   7.918
  522POPC   C4A 9390   3.756   4.808   7.504
  522POPC   C1B 9391   3.261   5.426   8.547
  522POPC   C2B 9392   3.225   5.403   8.114
  522POPC   C3B 9393   3.519   5.432   7.790
  522POPC   C4B 9394   3.892   5.320   7.498
  523POPC   NC3 9395  42.423  28.473   9.407
  523POPC   PO4 9396  42.295  27.832   9.357
  523POPC   GL1 9397  42.210  28.167   9.084
  523POPC   GL2 9398  42.564  28.123   9.029
  523POPC   C1A 9399  42.382  28.495   8.732
  523POPC   D2A 9400  42.183  28.615   8.343
  523POPC   C3A 9401  42.330  28.555   7.923
  523POPC   C4A 9402  42.356  28.638   7.492
  523POPC   C1B 9403  42.327  27.990   8.645
  523POPC   C2B 9404  42.191  28.100   8.247
  523POPC   C3B 9405  42.248  27.943   7.846
  523POPC   C4B 9406  42.283  28.149   7.489
  524POPC   NC3 9407  19.435  34.717   9.851
  524POPC   PO4 9408  18.791  34.665   9.622
  524POPC   GL1 9409  18.923  34.475   9.126
  524POPC   GL2 9410  19.263  34.528   9.105
  524POPC   C1A 9411  18.897  34.513   8.660
  524POPC   D2A 9412  18.835  34.364   8.244
  524POPC   C3A 9413  18.933  34.686   7.966
  524POPC   C4A 9414  19.309  34.856   7.905
  524POPC   C1B 9415  19.361  34.318   8.722
  524POPC   C2B 9416  19.340  34.514   8.327
  524POPC   C3B 9417  19.313  34.346   7.930
  524POPC   C4B 9418  19.584  34.373   7.586
  525POPC   NC3 9419  43.654   2.311   9.617
  525POPC   PO4 9420  44.070   1.732   9.490
  525POPC   GL1 9421  43.837   2.037   9.231
  525POPC   GL2 9422  44.109   1.999   9.050
  525POPC   C1A 9423  43.743   2.251   8.826
  525POPC   D2A 9424  43.954   2.117   8.454
  525POPC   C3A 9425  43.758   2.186   8.080
  525POPC   C4A 9426  43.513   1.931   7.845
  525POPC   C1B 9427  44.139   1.709   8.715
  525POPC   C2B 9428  44.174   1.659   8.277
  525POPC   C3B 9429  43.979   1.650   7.894
  525POPC   C4B 9430  44.110   1.515   7.471
  526POPC   NC3 9431  18.719   1.460   9.388
  526POPC   PO4 9432  18.179   1.178   9.504
  526POPC   GL1 9433  18.312   1.216   9.127
  526POPC   GL2 9434  18.628   1.017   9.145
  526POPC   C1A 9435  18.113   1.245   8.733
  526POPC   D2A 9436  18.238   1.378   8.328
  526POPC   C3A 9437  18.053   1.246   7.971
  526POPC   C4A 9438  18.175   1.167   7.540
  526POPC   C1B 9439  18.627   1.275   8.739
  526POPC   C2B 9440  18.702   1.197   8.306
  526POPC   C3B 9441  18.589   1.317   7.881
  526POPC   C4B 9442  18.649   1.014   7.555
  527POPC   NC3 9443  43.164  10.277   9.517
  527POPC   PO4 9444  42.982  10.851   9.640
  527POPC   GL1 9445  43.071  10.707   9.220
  527POPC   GL2 9446  43.261  10.434   9.045
  527POPC   C1A 9447  42.789  10.637   8.882
  527POPC   D2A 9448  42.676  10.423   8.482
  527POPC   C3A 9449  42.600  10.627   8.076
  527POPC   C4A 9450  42.749  10.817   7.681
  527POPC   C1B 9451  43.173  10.437   8.586
  527POPC   C2B 9452  43.322  10.456   8.196
  527POPC   C3B 9453  43.087  10.481   7.858
  527POPC   C4B 9454  43.081  10.201   7.539
  528POPC   NC3 9455   2.027  12.261   9.537
  528POPC   PO4 9456   2.167  11.593   9.403
  528POPC   GL1 9457   2.183  11.944   9.152
  528POPC   GL2 9458   1.831  12.005   9.125
  528POPC   C1A 9459   2.217  11.955   8.724
  528POPC   D2A 9460   2.023  11.726   8.347
  528POPC   C3A 9461   1.966  11.899   7.916
  528POPC   C4A 9462   2.172  12.189   7.634
  528POPC   C1B 9463   1.667  11.930   8.685
  528POPC   C2B 9464   1.538  12.061   8.253
  528POPC   C3B 9465   1.539  12.283   7.840
  528POPC   C4B 9466   1.714  12.177   7.418
  529POPC   NC3 9467  37.423  32.072   9.728
  529POPC   PO4 9468  37.865  32.532   9.493
  529POPC   GL1 9469  37.664  32.460   9.105
  529POPC   GL2 9470  37.490  32.150   9.224
  529POPC   C1A 9471  37.841  32.544   8.682
  529POPC   D2A 9472  38.086  32.437   8.313
  529POPC   C3A 9473  37.875  32.160   8.050
  529POPC   C4A 9474  37.698  32.262   7.688
  529POPC   C1B 9475  37.364  32.140   8.797
  529POPC   C2B 9476  37.524  32.078   8.407
  529POPC   C3B 9477  37.383  31.948   8.016
  529POPC   C4B 9478  37.477  31.822   7.615
  530POPC   NC3 9479  16.845  41.792   9.642
  530POPC   PO4 9480  16.781  42.420   9.471
  530POPC   GL1 9481  16.581  42.253   9.115
  530POPC   GL2 9482  16.853  42.043   9.009
  530POPC   C1A 9483  16.621  42.345   8.663
  530POPC   D2A 9484  16.461  42.218   8.272
  530POPC   C3A 9485  16.549  42.539   7.987
  530POPC   C4A 9486  16.944  42.662   7.814
  530POPC   C1B 9487  17.096  42.072   8.615
  530POPC   C2B 9488  17.138  42.034   8.173
  530POPC   C3B 9489  16.849  42.133   7.863
  530POPC   C4B 9490  16.475  41.925   7.843
  531POPC   NC3 9491  15.714  12.497   9.469
  531POPC   PO4 9492  16.185  13.149   9.459
  531POPC   GL1 9493  15.911  12.951   9.184
  531POPC   GL2 9494  16.034  12.649   9.103
  531POPC   C1A 9495  15.713  12.909   8.775
  531POPC   D2A 9496  15.553  13.217   8.486
  531POPC   C3A 9497  15.791  13.167   8.128
  531POPC   C4A 9498  15.773  13.026   7.732
  531POPC   C1B 9499  16.247  12.849   8.771
  531POPC   C2B 9500  16.127  12.815   8.351
  531POPC   C3B 9501  16.253  12.916   7.945
  531POPC   C4B 9502  16.084  12.643   7.648
  532POPC   NC3 9503   0.405  29.748   9.416
  532POPC   PO4 9504   0.467  30.357   9.713
  532POPC   GL1 9505   0.517  30.314   9.228
  532POPC   GL2 9506   0.280  30.140   9.103
  532POPC   C1A 9507   0.718  30.073   8.803
  532POPC   D2A 9508   0.949  30.080   8.372
  532POPC   C3A 9509   0.652  30.143   8.024
  532POPC   C4A 9510   0.397  29.904   7.773
  532POPC   C1B 9511   0.008  30.318   8.835
  532POPC   C2B 9512  44.882  30.349   8.427
  532POPC   C3B 9513   0.097  30.160   8.113
  532POPC   C4B 9514   0.002  30.296   7.735
  533POPC   NC3 9515  32.656  38.115   9.369
  533POPC   PO4 9516  32.921  38.752   9.526
  533POPC   GL1 9517  32.986  38.527   9.154
  533POPC   GL2 9518  32.660  38.463   9.004
  533POPC   C1A 9519  33.073  38.601   8.715
  533POPC   D2A 9520  32.876  38.733   8.327
  533POPC   C3A 9521  33.049  38.600   7.935
  533POPC   C4A 9522  33.235  38.636   7.507
  533POPC   C1B 9523  32.853  38.136   8.713
  533POPC   C2B 9524  33.025  38.188   8.270
  533POPC   C3B 9525  33.055  38.115   7.788
  533POPC   C4B 9526  32.847  38.237   7.386
  534POPC   NC3 9527  14.566  41.732   9.397
  534POPC   PO4 9528  14.236  41.193   9.500
  534POPC   GL1 9529  14.237  41.449   9.097
  534POPC   GL2 9530  14.335  41.198   8.853
  534POPC   C1A 9531  14.484  41.702   8.749
  534POPC   D2A 9532  14.754  41.736   8.355
  534POPC   C3A 9533  14.654  41.785   7.910
  534POPC   C4A 9534  14.317  41.605   7.709
  534POPC   C1B 9535  13.903  41.306   8.709
  534POPC   C2B 9536  13.742  41.414   8.337
  534POPC   C3B 9537  14.068  41.313   8.045
  534POPC   C4B 9538  14.065  41.161   7.615
  535POPC   NC3 9539  41.236  11.480   9.338
  535POPC   PO4 9540  41.899  11.497   9.446
  535POPC   GL1 9541  41.668  11.395   9.058
  535POPC   GL2 9542  41.485  11.095   9.021
  535POPC   C1A 9543  41.557  11.467   8.650
  535POPC   D2A 9544  41.472  11.325   8.251
  535POPC   C3A 9545  41.748  11.211   7.929
  535POPC   C4A 9546  41.553  11.308   7.547
  535POPC   C1B 9547  41.257  10.917   8.691
  535POPC   C2B 9548  41.077  11.008   8.288
  535POPC   C3B 9549  41.228  11.028   7.878
  535POPC   C4B 9550  41.063  11.171   7.500
  536POPC   NC3 9551  20.494  32.408   9.335
  536POPC   PO4 9552  20.360  31.803   9.637
  536POPC   GL1 9553  20.428  31.905   9.210
  536POPC   GL2 9554  20.758  31.996   9.070
  536POPC   C1A 9555  20.376  31.819   8.768
  536POPC   D2A 9556  20.565  32.016   8.404
  536POPC   C3A 9557  20.324  32.093   8.028
  536POPC   C4A 9558  20.413  31.997   7.612
  536POPC   C1B 9559  20.796  32.335   8.727
  536POPC   C2B 9560  21.004  32.348   8.319
  536POPC   C3B 9561  20.847  32.306   7.894
  536POPC   C4B 9562  20.872  32.610   7.536
  537POPC   NC3 9563  29.735  27.775   9.432
  537POPC   PO4 9564  30.347  27.785   9.695
  537POPC   GL1 9565  30.157  27.468   9.262
  537POPC   GL2 9566  29.810  27.518   9.026
  537POPC   C1A 9567  30.192  27.489   8.740
  537POPC   D2A 9568  30.018  27.860   8.485
  537POPC   C3A 9569  30.033  27.858   8.025
  537POPC   C4A 9570  29.961  27.516   7.756
  537POPC   C1B 9571  29.582  27.865   8.820
  537POPC   C2B 9572  29.425  27.927   8.432
  537POPC   C3B 9573  29.542  27.666   8.083
  537POPC   C4B 9574  29.572  27.961   7.755
  538POPC   NC3 9575  29.967   6.155   9.466
  538POPC   PO4 9576  29.650   5.608   9.579
  538POPC   GL1 9577  29.854   5.730   9.166
  538POPC   GL2 9578  30.180   5.893   9.060
  538POPC   C1A 9579  29.809   5.806   8.722
  538POPC   D2A 9580  29.871   5.666   8.309
  538POPC   C3A 9581  29.737   5.877   7.954
  538POPC   C4A 9582  29.784   5.958   7.541
  538POPC   C1B 9583  30.087   6.225   8.780
  538POPC   C2B 9584  29.975   6.151   8.372
  538POPC   C3B 9585  30.209   6.050   8.011
  538POPC   C4B 9586  30.111   6.303   7.727
  539POPC   NC3 9587  33.772  19.285   9.509
  539POPC   PO4 9588  34.092  18.674   9.465
  539POPC   GL1 9589  33.855  18.905   9.168
  539POPC   GL2 9590  33.989  19.224   9.062
  539POPC   C1A 9591  33.672  18.896   8.774
  539POPC   D2A 9592  33.567  19.190   8.447
  539POPC   C3A 9593  33.461  18.984   8.065
  539POPC   C4A 9594  33.725  18.795   7.773
  539POPC   C1B 9595  34.060  19.264   8.629
  539POPC   C2B 9596  34.006  19.375   8.221
  539POPC   C3B 9597  33.804  19.335   7.838
  539POPC   C4B 9598  33.888  19.504   7.414
  540POPC   NC3 9599   4.748  37.685   9.471
  540POPC   PO4 9600   5.356  37.858   9.454
  540POPC   GL1 9601   5.154  37.785   9.123
  540POPC   GL2 9602   4.949  38.092   9.196
  540POPC   C1A 9603   5.245  37.987   8.729
  540POPC   D2A 9604   5.342  37.834   8.323
  540POPC   C3A 9605   5.048  37.665   8.028
  540POPC   C4A 9606   5.320  37.508   7.748
  540POPC   C1B 9607   4.757  37.922   8.839
  540POPC   C2B 9608   4.770  37.888   8.408
  540POPC   C3B 9609   4.982  38.162   8.154
  540POPC   C4B 9610   5.236  38.099   7.834
  541POPC   NC3 9611  16.734  20.435   9.553
  541POPC   PO4 9612  17.061  20.923   9.416
  541POPC   GL1 9613  16.675  20.732   9.145
  541POPC   GL2 9614  16.493  20.360   9.124
  541POPC   C1A 9615  16.464  20.875   8.752
  541POPC   D2A 9616  16.748  20.886   8.393
  541POPC   C3A 9617  16.597  20.800   7.936
  541POPC   C4A 9618  16.912  20.737   7.567
  541POPC   C1B 9619  16.611  20.404   8.710
  541POPC   C2B 9620  16.381  20.542   8.344
  541POPC   C3B 9621  16.394  20.330   7.971
  541POPC   C4B 9622  16.399  20.448   7.595
  542POPC   NC3 9623  17.719  30.678   9.390
  542POPC   PO4 9624  18.244  30.358   9.694
  542POPC   GL1 9625  18.222  30.550   9.265
  542POPC   GL2 9626  18.167  30.871   9.122
  542POPC   C1A 9627  18.156  30.438   8.810
  542POPC   D2A 9628  18.055  30.266   8.395
  542POPC   C3A 9629  18.136  30.530   8.074
  542POPC   C4A 9630  18.316  30.652   7.727
  542POPC   C1B 9631  18.005  30.900   8.687
  542POPC   C2B 9632  18.102  31.005   8.241
  542POPC   C3B 9633  18.273  31.147   7.825
  542POPC   C4B 9634  18.001  31.141   7.444
  543POPC   NC3 9635  26.202  34.528   9.590
  543POPC   PO4 9636  25.608  34.394   9.408
  543POPC   GL1 9637  25.920  34.368   9.101
  543POPC   GL2 9638  26.048  34.676   9.122
  543POPC   C1A 9639  25.989  34.494   8.671
  543POPC   D2A 9640  26.100  34.759   8.371
  543POPC   C3A 9641  25.973  34.563   7.994
  543POPC   C4A 9642  25.708  34.738   7.666
  543POPC   C1B 9643  26.309  34.916   8.848
  543POPC   C2B 9644  26.543  35.029   8.467
  543POPC   C3B 9645  26.416  34.963   8.031
  543POPC   C4B 9646  26.198  34.875   7.653
  544POPC   NC3 9647  27.627  15.664   9.669
  544POPC   PO4 9648  27.083  15.916   9.738
  544POPC   GL1 9649  27.482  15.973   9.308
  544POPC   GL2 9650  27.820  16.035   9.269
  544POPC   C1A 9651  27.438  15.942   8.788
  544POPC   D2A 9652  27.576  16.021   8.375
  544POPC   C3A 9653  27.416  15.949   7.981
  544POPC   C4A 9654  27.233  15.598   7.805
  544POPC   C1B 9655  27.778  15.644   9.010
  544POPC   C2B 9656  27.746  15.562   8.568
  544POPC   C3B 9657  27.944  15.738   8.167
  544POPC   C4B 9658  27.796  15.715   7.755
  545POPC   NC3 9659   3.116  17.697   9.451
  545POPC   PO4 9660   3.599  17.205   9.481
  545POPC   GL1 9661   3.469  17.420   9.163
  545POPC   GL2 9662   3.575  17.760   9.219
  545POPC   C1A 9663   3.488  17.342   8.741
  545POPC   D2A 9664   3.518  17.588   8.392
  545POPC   C3A 9665   3.515  17.361   8.035
  545POPC   C4A 9666   3.391  17.385   7.603
  545POPC   C1B 9667   3.793  17.749   8.838
  545POPC   C2B 9668   3.861  17.974   8.441
  545POPC   C3B 9669   3.860  17.799   8.040
  545POPC   C4B 9670   3.813  18.023   7.689
  546POPC   NC3 9671  29.955  11.877   9.507
  546POPC   PO4 9672  30.034  11.221   9.456
  546POPC   GL1 9673  30.120  11.506   9.132
  546POPC   GL2 9674  29.812  11.652   9.075
  546POPC   C1A 9675  30.028  11.317   8.725
  546POPC   D2A 9676  30.056  11.008   8.404
  546POPC   C3A 9677  29.784  11.084   8.065
  546POPC   C4A 9678  29.721  11.037   7.665
  546POPC   C1B 9679  29.638  11.685   8.686
  546POPC   C2B 9680  29.837  11.584   8.303
  546POPC   C3B 9681  29.868  11.569   7.884
  546POPC   C4B 9682  29.536  11.510   7.625
  547POPC   NC3 9683  31.224  12.877   9.494
  547POPC   PO4 9684  30.495  12.813   9.525
  547POPC   GL1 9685  30.772  12.860   9.206
  547POPC   GL2 9686  30.543  12.649   9.002
  547POPC   C1A 9687  30.860  13.006   8.794
  547POPC   D2A 9688  30.728  12.919   8.416
  547POPC   C3A 9689  30.715  13.146   8.050
  547POPC   C4A 9690  30.647  12.874   7.707
  547POPC   C1B 9691  30.900  12.473   8.870
  547POPC   C2B 9692  31.060  12.528   8.461
  547POPC   C3B 9693  31.013  12.687   8.058
  547POPC   C4B 9694  31.170  12.633   7.678
  548POPC   NC3 9695   7.230  40.922   9.286
  548POPC   PO4 9696   7.667  40.660   9.746
  548POPC   GL1 9697   7.538  40.540   9.198
  548POPC   GL2 9698   7.648  40.798   8.929
  548POPC   C1A 9699   7.238  40.604   8.760
  548POPC   D2A 9700   7.461  40.812   8.455
  548POPC   C3A 9701   7.554  40.632   8.117
  548POPC   C4A 9702   7.184  40.665   7.858
  548POPC   C1B 9703   7.743  40.441   8.697
  548POPC   C2B 9704   8.067  40.443   8.390
  548POPC   C3B 9705   8.005  40.375   7.984
  548POPC   C4B 9706   7.619  40.412   7.678
  549POPC   NC3 9707  38.184  11.825   9.424
  549POPC   PO4 9708  38.662  12.265   9.501
  549POPC   GL1 9709  38.529  12.186   9.079
  549POPC   GL2 9710  38.218  12.263   9.093
  549POPC   C1A 9711  38.528  12.272   8.622
  549POPC   D2A 9712  38.718  12.169   8.219
  549POPC   C3A 9713  38.553  12.259   7.804
  549POPC   C4A 9714  38.117  12.405   7.696
  549POPC   C1B 9715  38.170  11.933   8.795
  549POPC   C2B 9716  38.115  12.040   8.401
  549POPC   C3B 9717  38.197  11.974   8.007
  549POPC   C4B 9718  38.232  11.918   7.545
  550POPC   NC3 9719  17.320  40.596   9.660
  550POPC   PO4 9720  17.709  41.120   9.487
  550POPC   GL1 9721  17.553  41.039   9.101
  550POPC   GL2 9722  17.865  40.946   9.019
  550POPC   C1A 9723  17.409  40.927   8.690
  550POPC   D2A 9724  17.474  40.737   8.307
  550POPC   C3A 9725  17.344  40.942   7.933
  550POPC   C4A 9726  17.191  40.686   7.635
  550POPC   C1B 9727  17.845  40.639   8.724
  550POPC   C2B 9728  17.988  40.632   8.319
  550POPC   C3B 9729  17.846  40.774   7.951
  550POPC   C4B 9730  17.718  40.701   7.560
  551POPC   NC3 9731  30.145  19.978   9.349
  551POPC   PO4 9732  29.685  19.440   9.437
  551POPC   GL1 9733  29.778  19.706   9.096
  551POPC   GL2 9734  30.072  19.563   9.053
  551POPC   C1A 9735  29.931  19.978   8.733
  551POPC   D2A 9736  30.132  19.909   8.345
  551POPC   C3A 9737  30.064  20.121   7.955
  551POPC   C4A 9738  29.623  20.140   7.823
  551POPC   C1B 9739  30.373  19.662   8.748
  551POPC   C2B 9740  30.484  19.540   8.347
  551POPC   C3B 9741  30.202  19.528   7.998
  551POPC   C4B 9742  29.879  19.697   7.733
  552POPC   NC3 9743  22.105   4.192   9.520
  552POPC   PO4 9744  22.434   4.703   9.333
  552POPC   GL1 9745  22.226   4.382   9.042
  552POPC   GL2 9746  22.314   4.019   9.073
  552POPC   C1A 9747  21.910   4.295   8.726
  552POPC   D2A 9748  21.690   4.370   8.338
  552POPC   C3A 9749  21.810   4.221   7.922
  552POPC   C4A 9750  22.243   4.316   7.713
  552POPC   C1B 9751  22.310   4.039   8.609
  552POPC   C2B 9752  22.273   4.044   8.153
  552POPC   C3B 9753  22.531   3.855   7.799
  552POPC   C4B 9754  22.377   3.895   7.334
  553POPC   NC3 9755  22.715  36.581   9.583
  553POPC   PO4 9756  23.183  36.996   9.681
  553POPC   GL1 9757  23.177  36.898   9.186
  553POPC   GL2 9758  23.266  36.560   9.026
  553POPC   C1A 9759  23.024  37.107   8.770
  553POPC   D2A 9760  23.039  37.054   8.303
  553POPC   C3A 9761  22.706  36.971   7.989
  553POPC   C4A 9762  22.663  37.173   7.564
  553POPC   C1B 9763  23.202  36.641   8.607
  553POPC   C2B 9764  23.175  36.567   8.173
  553POPC   C3B 9765  23.167  36.836   7.801
  553POPC   C4B 9766  23.462  36.804   7.468
  554POPC   NC3 9767  17.158  44.623   9.536
  554POPC   PO4 9768  16.500  44.833   9.609
  554POPC   GL1 9769  16.698  44.825   9.210
  554POPC   GL2 9770  16.650  44.528   9.033
  554POPC   C1A 9771  16.651  44.974   8.768
  554POPC   D2A 9772  16.473  44.682   8.418
  554POPC   C3A 9773  16.420  44.870   7.999
  554POPC   C4A 9774  16.439  44.623   7.570
  554POPC   C1B 9775  16.928  44.555   8.663
  554POPC   C2B 9776  16.928  44.832   8.307
  554POPC   C3B 9777  16.837  44.594   7.973
  554POPC   C4B 9778  17.169  44.542   7.752
  555POPC   NC3 9779  16.323  31.718   9.506
  555POPC   PO4 9780  16.898  31.311   9.658
  555POPC   GL1 9781  16.756  31.439   9.243
  555POPC   GL2 9782  16.566  31.105   9.160
  555POPC   C1A 9783  16.630  31.459   8.797
  555POPC   D2A 9784  16.597  31.192   8.455
  555POPC   C3A 9785  16.521  31.397   8.078
  555POPC   C4A 9786  16.648  31.499   7.702
  555POPC   C1B 9787  16.983  31.072   8.923
  555POPC   C2B 9788  17.132  31.121   8.494
  555POPC   C3B 9789  16.966  31.115   8.081
  555POPC   C4B 9790  17.094  31.207   7.683
  556POPC   NC3 9791  38.181  39.026   9.572
  556POPC   PO4 9792  38.700  39.467   9.438
  556POPC   GL1 9793  38.486  39.191   9.176
  556POPC   GL2 9794  38.436  39.473   9.006
  556POPC   C1A 9795  38.525  39.025   8.749
  556POPC   D2A 9796  38.364  39.137   8.335
  556POPC   C3A 9797  38.570  38.962   7.974
  556POPC   C4A 9798  38.588  39.036   7.540
  556POPC   C1B 9799  38.364  39.690   8.673
  556POPC   C2B 9800  38.487  39.674   8.256
  556POPC   C3B 9801  38.483  39.454   7.871
  556POPC   C4B 9802  38.178  39.363   7.567
  557POPC   NC3 9803  27.440   4.970   9.598
  557POPC   PO4 9804  28.066   4.938   9.776
  557POPC   GL1 9805  27.819   5.003   9.292
  557POPC   GL2 9806  27.814   5.309   9.221
  557POPC   C1A 9807  27.462   5.081   8.913
  557POPC   D2A 9808  27.233   5.342   8.563
  557POPC   C3A 9809  27.211   5.166   8.106
  557POPC   C4A 9810  27.299   4.737   7.947
  557POPC   C1B 9811  27.895   5.323   8.780
  557POPC   C2B 9812  27.724   5.190   8.358
  557POPC   C3B 9813  27.710   5.172   7.882
  557POPC   C4B 9814  27.910   5.027   7.465
  558POPC   NC3 9815  42.694  13.720   9.345
  558POPC   PO4 9816  42.002  14.021   9.230
  558POPC   GL1 9817  42.261  13.735   9.055
  558POPC   GL2 9818  42.115  13.417   9.041
  558POPC   C1A 9819  42.319  13.747   8.640
  558POPC   D2A 9820  42.213  13.565   8.293
  558POPC   C3A 9821  42.411  13.852   8.057
  558POPC   C4A 9822  42.338  13.676   7.696
  558POPC   C1B 9823  42.437  13.275   8.719
  558POPC   C2B 9824  42.430  13.077   8.352
  558POPC   C3B 9825  42.428  13.226   7.954
  558POPC   C4B 9826  42.582  13.248   7.536
  559POPC   NC3 9827  10.956   9.141   9.271
  559POPC   PO4 9828  10.370   9.412   9.372
  559POPC   GL1 9829  10.512   9.108   9.066
  559POPC   GL2 9830  10.602   8.728   9.081
  559POPC   C1A 9831  10.640   9.033   8.660
  559POPC   D2A 9832  10.426   8.861   8.325
  559POPC   C3A 9833  10.591   8.837   7.914
  559POPC   C4A 9834  10.846   9.025   7.645
  559POPC   C1B 9835  10.847   8.563   8.690
  559POPC   C2B 9836  10.846   8.527   8.225
  559POPC   C3B 9837  10.981   8.503   7.786
  559POPC   C4B 9838  10.816   8.618   7.359
  560POPC   NC3 9839  21.909  18.154   9.625
  560POPC   PO4 9840  22.609  18.172   9.607
  560POPC   GL1 9841  22.286  18.174   9.263
  560POPC   GL2 9842  22.146  18.527   9.277
  560POPC   C1A 9843  22.291  17.988   8.841
  560POPC   D2A 9844  22.094  18.021   8.417
  560POPC   C3A 9845  22.372  18.130   8.070
  560POPC   C4A 9846  22.267  18.237   7.626
  560POPC   C1B 9847  22.094  18.454   8.836
  560POPC   C2B 9848  21.923  18.550   8.421
  560POPC   C3B 9849  21.992  18.528   7.982
  560POPC   C4B 9850  21.962  18.614   7.528
  561POPC   NC3 9851  27.141   8.371   9.395
  561POPC   PO4 9852  27.694   7.942   9.496
  561POPC   GL1 9853  27.577   8.225   9.159
  561POPC   GL2 9854  27.337   7.990   9.099
  561POPC   C1A 9855  27.416   8.371   8.767
  561POPC   D2A 9856  27.439   8.173   8.370
  561POPC   C3A 9857  27.757   8.149   8.087
  561POPC   C4A 9858  27.826   8.431   7.792
  561POPC   C1B 9859  27.382   7.791   8.718
  561POPC   C2B 9860  27.150   7.770   8.330
  561POPC   C3B 9861  27.266   7.904   7.922
  561POPC   C4B 9862  27.559   8.014   7.626
  562POPC   NC3 9863   4.764  12.953   9.534
  562POPC   PO4 9864   4.176  12.759   9.484
  562POPC   GL1 9865   4.153  12.579   9.082
  562POPC   GL2 9866   4.524  12.651   9.062
  562POPC   C1A 9867   4.208  12.605   8.625
  562POPC   D2A 9868   4.010  12.484   8.285
  562POPC   C3A 9869   4.011  12.749   7.941
  562POPC   C4A 9870   4.317  12.550   7.748
  562POPC   C1B 9871   4.650  12.828   8.632
  562POPC   C2B 9872   4.510  12.953   8.170
  562POPC   C3B 9873   4.377  13.058   7.713
  562POPC   C4B 9874   4.430  13.449   7.431
  563POPC   NC3 9875  19.439  25.664   9.293
  563POPC   PO4 9876  19.774  26.109   9.579
  563POPC   GL1 9877  19.565  26.190   9.165
  563POPC   GL2 9878  19.794  26.455   9.068
  563POPC   C1A 9879  19.531  26.054   8.706
  563POPC   D2A 9880  19.776  26.085   8.315
  563POPC   C3A 9881  19.607  26.009   7.913
  563POPC   C4A 9882  19.915  25.849   7.612
  563POPC   C1B 9883  19.527  26.567   8.756
  563POPC   C2B 9884  19.450  26.472   8.349
  563POPC   C3B 9885  19.706  26.499   7.973
  563POPC   C4B 9886  19.755  26.342   7.517
  564POPC   NC3 9887  12.838  19.116   9.378
  564POPC   PO4 9888  13.365  19.482   9.403
  564POPC   GL1 9889  13.223  19.223   9.039
  564POPC   GL2 9890  13.162  18.854   9.064
  564POPC   C1A 9891  13.004  19.379   8.672
  564POPC   D2A 9892  12.807  19.532   8.293
  564POPC   C3A 9893  12.994  19.337   7.957
  564POPC   C4A 9894  13.117  18.933   7.874
  564POPC   C1B 9895  12.792  18.908   8.770
  564POPC   C2B 9896  12.600  18.754   8.388
  564POPC   C3B 9897  12.606  18.954   7.988
  564POPC   C4B 9898  12.502  19.358   7.828
  565POPC   NC3 9899  24.661  18.046   9.453
  565POPC   PO4 9900  24.374  18.580   9.852
  565POPC   GL1 9901  24.339  18.411   9.335
  565POPC   GL2 9902  24.092  18.133   9.296
  565POPC   C1A 9903  24.534  18.311   8.885
  565POPC   D2A 9904  24.575  18.533   8.490
  565POPC   C3A 9905  24.524  18.332   8.090
  565POPC   C4A 9906  24.709  18.336   7.681
  565POPC   C1B 9907  24.051  18.139   8.858
  565POPC   C2B 9908  24.297  17.994   8.496
  565POPC   C3B 9909  24.389  17.822   8.053
  565POPC   C4B 9910  24.360  17.997   7.606
  566POPC   NC3 9911  10.523   2.057   9.458
  566POPC   PO4 9912  10.924   1.587   9.158
  566POPC   GL1 9913  10.657   1.857   9.007
  566POPC   GL2 9914  10.370   1.682   9.089
  566POPC   C1A 9915  10.724   2.110   8.652
  566POPC   D2A 9916  10.663   2.038   8.206
  566POPC   C3A 9917  10.774   2.257   7.827
  566POPC   C4A 9918  10.764   1.990   7.424
  566POPC   C1B 9919  10.251   1.904   8.698
  566POPC   C2B 9920  10.193   2.158   8.328
  566POPC   C3B 9921  10.274   2.089   7.856
  566POPC   C4B 9922  10.381   2.322   7.469
  567POPC   NC3 9923   3.909  35.128   9.344
  567POPC   PO4 9924   3.466  35.551   9.649
  567POPC   GL1 9925   3.451  35.379   9.218
  567POPC   GL2 9926   3.411  35.023   9.295
  567POPC   C1A 9927   3.631  35.470   8.785
  567POPC   D2A 9928   3.842  35.406   8.358
  567POPC   C3A 9929   3.666  35.505   7.935
  567POPC   C4A 9930   3.567  35.267   7.549
  567POPC   C1B 9931   3.385  35.029   8.839
  567POPC   C2B 9932   3.373  35.191   8.425
  567POPC   C3B 9933   3.487  35.042   8.043
  567POPC   C4B 9934   3.196  34.957   7.708
  568POPC   NC3 9935  32.246  11.389   9.467
  568POPC   PO4 9936  31.907  10.861   9.430
  568POPC   GL1 9937  32.078  11.077   9.088
  568POPC   GL2 9938  32.454  11.161   9.048
  568POPC   C1A 9939  32.089  11.211   8.674
  568POPC   D2A 9940  32.219  11.338   8.287
  568POPC   C3A 9941  31.981  11.277   7.915
  568POPC   C4A 9942  32.166  11.104   7.513
  568POPC   C1B 9943  32.610  11.414   8.646
  568POPC   C2B 9944  32.697  11.546   8.196
  568POPC   C3B 9945  32.511  11.343   7.819
  568POPC   C4B 9946  32.559  11.463   7.352
  569POPC   NC3 9947  39.728  34.136   9.501
  569POPC   PO4 9948  40.213  34.654   9.482
  569POPC   GL1 9949  40.044  34.398   9.173
  569POPC   GL2 9950  39.690  34.540   9.202
  569POPC   C1A 9951  40.024  34.561   8.774
  569POPC   D2A 9952  39.991  34.829   8.450
  569POPC   C3A 9953  40.044  34.648   8.101
  569POPC   C4A 9954  40.046  34.782   7.687
  569POPC   C1B 9955  39.555  34.333   8.832
  569POPC   C2B 9956  39.662  34.455   8.419
  569POPC   C3B 9957  39.689  34.288   8.019
  569POPC   C4B 9958  39.331  34.272   7.760
  570POPC   NC3 9959  18.973  18.498   9.097
  570POPC   PO4 9960  19.225  18.004   9.468
  570POPC   GL1 9961  18.978  17.961   9.073
  570POPC   GL2 9962  18.621  17.886   9.124
  570POPC   C1A 9963  19.080  18.075   8.613
  570POPC   D2A 9964  19.196  18.070   8.166
  570POPC   C3A 9965  19.184  18.357   7.841
  570POPC   C4A 9966  19.336  18.555   7.494
  570POPC   C1B 9967  18.588  18.089   8.734
  570POPC   C2B 9968  18.730  18.458   8.477
  570POPC   C3B 9969  18.713  18.573   8.024
  570POPC   C4B 9970  18.715  18.189   7.814
  571POPC   NC3 9971   1.934   1.431   9.501
  571POPC   PO4 9972   1.751   0.718   9.503
  571POPC   GL1 9973   1.752   1.050   9.151
  571POPC   GL2 9974   2.110   1.206   9.086
  571POPC   C1A 9975   1.889   0.950   8.714
  571POPC   D2A 9976   2.160   1.076   8.390
  571POPC   C3A 9977   1.905   1.075   8.059
  571POPC   C4A 9978   2.056   1.100   7.659
  571POPC   C1B 9979   1.946   1.443   8.733
  571POPC   C2B 9980   2.050   1.604   8.352
  571POPC   C3B 9981   2.094   1.537   7.947
  571POPC   C4B 9982   2.409   1.475   7.668
  572POPC   NC3 9983  44.464  12.428   9.402
  572POPC   PO4 9984  44.862  11.890   9.442
  572POPC   GL1 9985  44.706  11.869   9.026
  572POPC   GL2 9986  44.477  12.078   9.044
  572POPC   C1A 9987  44.577  11.909   8.581
  572POPC   D2A 9988  44.766  12.280   8.378
  572POPC   C3A 9989  44.802  12.169   7.981
  572POPC   C4A 9990  44.623  11.857   7.729
  572POPC   C1B 9991  44.417  12.382   8.742
  572POPC   C2B 9992  44.225  12.296   8.338
  572POPC   C3B 9993  44.364  12.416   7.930
  572POPC   C4B 9994  44.412  12.233   7.489
  573POPC   NC3 9995  33.279   8.521   9.857
  573POPC   PO4 9996  33.253   7.948   9.457
  573POPC   GL1 9997  32.996   7.968   9.097
  573POPC   GL2 9998  33.267   8.000   8.926
  573POPC   C1A 9999  32.834   8.313   8.843
  573POPC   D2A10000  32.810   8.520   8.438
  573POPC   C3A10001  32.846   8.211   8.096
  573POPC   C4A10002  32.943   8.363   7.715
  573POPC   C1B10003  33.351   7.805   8.555
  573POPC   C2B10004  33.440   8.091   8.256
  573POPC   C3B10005  33.329   8.115   7.853
  573POPC   C4B10006  33.172   8.031   7.398
  574POPC   NC310007   1.123  12.474   9.544
  574POPC   PO410008   1.328  13.137   9.480
  574POPC   GL110009   1.236  12.866   9.122
  574POPC   GL210010   1.414  13.152   8.962
  574POPC   C1A10011   1.130  12.806   8.663
  574POPC   D2A10012   0.920  12.994   8.323
  574POPC   C3A10013   1.007  12.851   7.929
  574POPC   C4A10014   1.051  12.479   7.744
  574POPC   C1B10015   1.637  12.851   8.720
  574POPC   C2B10016   1.588  12.625   8.317
  574POPC   C3B10017   1.507  12.804   7.916
  574POPC   C4B10018   1.411  13.160   7.604
  575POPC   NC310019  42.131   4.857   9.386
  575POPC   PO410020  42.328   5.456   9.415
  575POPC   GL110021  42.422   5.272   9.031
  575POPC   GL210022  42.536   4.938   9.040
  575POPC   C1A10023  42.286   5.096   8.607
  575POPC   D2A10024  42.044   4.780   8.354
  575POPC   C3A10025  41.881   4.883   7.930
  575POPC   C4A10026  42.006   4.846   7.505
  575POPC   C1B10027  42.730   4.792   8.659
  575POPC   C2B10028  42.583   4.798   8.231
  575POPC   C3B10029  42.418   4.990   7.842
  575POPC   C4B10030  42.499   4.911   7.382
  576POPC   NC310031  21.581  32.064   9.323
  576POPC   PO410032  20.913  32.288   9.480
  576POPC   GL110033  21.101  32.393   9.129
  576POPC   GL210034  21.400  32.547   9.161
  576POPC   C1A10035  21.282  32.207   8.756
  576POPC   D2A10036  21.631  32.144   8.475
  576POPC   C3A10037  21.459  32.154   8.068
  576POPC   C4A10038  21.554  31.851   7.697
  576POPC   C1B10039  21.592  32.601   8.735
  576POPC   C2B10040  21.551  32.643   8.281
  576POPC   C3B10041  21.712  32.545   7.872
  576POPC   C4B10042  21.324  32.380   7.631
  577POPC   NC310043  38.515  29.719   9.497
  577POPC   PO410044  38.012  30.159   9.473
  577POPC   GL110045  38.198  29.891   9.135
  577POPC   GL210046  38.089  29.606   9.025
  577POPC   C1A10047  38.518  29.933   8.798
  577POPC   D2A10048  38.427  30.043   8.363
  577POPC   C3A10049  38.760  30.037   8.043
  577POPC   C4A10050  38.717  30.083   7.577
  577POPC   C1B10051  38.184  29.583   8.625
  577POPC   C2B10052  38.167  29.464   8.240
  577POPC   C3B10053  38.379  29.698   7.967
  577POPC   C4B10054  38.286  29.789   7.558
  578POPC   NC310055  17.465   0.747   9.441
  578POPC   PO410056  17.331   0.053   9.467
  578POPC   GL110057  17.524   0.176   9.068
  578POPC   GL210058  17.537   0.534   8.988
  578POPC   C1A10059  17.730   0.206   8.673
  578POPC   D2A10060  17.587   0.498   8.355
  578POPC   C3A10061  17.700   0.277   7.988
  578POPC   C4A10062  17.470   0.492   7.722
  578POPC   C1B10063  17.889   0.701   8.729
  578POPC   C2B10064  18.039   0.898   8.366
  578POPC   C3B10065  17.882   0.755   7.965
  578POPC   C4B10066  17.749   0.907   7.580
  579POPC   NC310067  30.053  17.296   9.341
  579POPC   PO410068  29.642  17.813   9.616
  579POPC   GL110069  29.702  17.631   9.155
  579POPC   GL210070  29.675  17.316   8.838
  579POPC   C1A10071  29.902  17.742   8.753
  579POPC   D2A10072  29.792  17.509   8.362
  579POPC   C3A10073  29.830  17.721   7.963
  579POPC   C4A10074  30.195  17.845   7.707
  579POPC   C1B10075  30.114  17.244   8.694
  579POPC   C2B10076  30.394  17.254   8.337
  579POPC   C3B10077  30.244  17.288   7.936
  579POPC   C4B10078  29.857  17.279   7.764
  580POPC   NC310079   5.383  43.296   9.656
  580POPC   PO410080   6.064  43.074   9.527
  580POPC   GL110081   6.139  43.007   9.090
  580POPC   GL210082   5.929  43.306   9.066
  580POPC   C1A10083   5.958  42.775   8.716
  580POPC   D2A10084   5.610  42.764   8.384
  580POPC   C3A10085   5.700  42.951   7.959
  580POPC   C4A10086   5.567  43.290   7.665
  580POPC   C1B10087   5.732  43.230   8.686
  580POPC   C2B10088   5.960  43.180   8.324
  580POPC   C3B10089   5.963  43.426   7.965
  580POPC   C4B10090   6.039  43.478   7.549
  581POPC   NC310091  14.926  20.501   9.482
  581POPC   PO410092  15.442  20.982   9.507
  581POPC   GL110093  15.326  20.698   9.185
  581POPC   GL210094  14.979  20.815   9.069
  581POPC   C1A10095  15.524  20.486   8.829
  581POPC   D2A10096  15.316  20.534   8.436
  581POPC   C3A10097  15.437  20.767   8.102
  581POPC   C4A10098  15.195  20.761   7.719
  581POPC   C1B10099  14.989  20.434   8.828
  581POPC   C2B10100  14.826  20.403   8.419
  581POPC   C3B10101  14.943  20.509   8.058
  581POPC   C4B10102  15.055  20.276   7.684
  582POPC   NC310103  30.252  22.166   9.660
  582POPC   PO410104  30.672  22.737   9.509
  582POPC   GL110105  30.760  22.389   9.178
  582POPC   GL210106  30.752  22.013   9.201
  582POPC   C1A10107  30.673  22.303   8.730
  582POPC   D2A10108  30.518  22.271   8.306
  582POPC   C3A10109  30.759  22.413   7.943
  582POPC   C4A10110  30.640  22.696   7.585
  582POPC   C1B10111  30.578  21.818   8.827
  582POPC   C2B10112  30.758  21.801   8.412
  582POPC   C3B10113  30.645  21.892   7.983
  582POPC   C4B10114  30.754  21.983   7.595
  583POPC   NC310115  15.639  44.300   9.481
  583POPC   PO410116  16.208  43.887   9.468
  583POPC   GL110117  16.124  43.909   9.062
  583POPC   GL210118  15.791  44.014   9.063
  583POPC   C1A10119  16.143  43.857   8.638
  583POPC   D2A10120  15.965  43.755   8.281
  583POPC   C3A10121  16.156  43.892   7.934
  583POPC   C4A10122  16.459  44.128   7.710
  583POPC   C1B10123  15.677  43.679   8.766
  583POPC   C2B10124  15.471  43.672   8.364
  583POPC   C3B10125  15.623  43.584   7.937
  583POPC   C4B10126  15.846  43.671   7.566
  584POPC   NC310127  44.382  43.898   9.520
  584POPC   PO410128   0.070  43.668   9.459
  584POPC   GL110129  44.718  43.760   9.174
  584POPC   GL210130  44.594  44.090   9.102
  584POPC   C1A10131  44.478  43.626   8.819
  584POPC   D2A10132  44.752  43.516   8.488
  584POPC   C3A10133  44.735  43.739   8.105
  584POPC   C4A10134  44.651  43.654   7.679
  584POPC   C1B10135  44.656  44.063   8.670
  584POPC   C2B10136  44.471  44.146   8.278
  584POPC   C3B10137  44.717  44.243   7.953
  584POPC   C4B10138  44.843  44.097   7.554
  585POPC   NC310139   7.038  29.461   9.510
  585POPC   PO410140   6.463  29.802   9.749
  585POPC   GL110141   6.494  29.705   9.266
  585POPC   GL210142   6.716  29.906   9.051
  585POPC   C1A10143   6.332  29.684   8.799
  585POPC   D2A10144   6.445  29.862   8.375
  585POPC   C3A10145   6.489  29.622   7.974
  585POPC   C4A10146   6.629  29.762   7.527
  585POPC   C1B10147   6.926  30.195   8.783
  585POPC   C2B10148   6.888  30.321   8.369
  585POPC   C3B10149   6.711  30.151   8.013
  585POPC   C4B10150   6.887  30.171   7.640
  586POPC   NC310151   0.894  27.351   9.342
  586POPC   PO410152   0.353  27.496   9.660
  586POPC   GL110153   0.372  27.524   9.202
  586POPC   GL210154   0.636  27.717   9.116
  586POPC   C1A10155   0.244  27.693   8.795
  586POPC   D2A10156   0.394  27.511   8.419
  586POPC   C3A10157   0.256  27.658   8.048
  586POPC   C4A10158   0.203  27.464   7.690
  586POPC   C1B10159   0.770  27.796   8.733
  586POPC   C2B10160   0.614  27.976   8.382
  586POPC   C3B10161   0.717  28.002   7.995
  586POPC   C4B10162   0.515  27.868   7.637
  587POPC   NC310163  18.097  43.008   9.422
  587POPC   PO410164  18.552  43.221   9.772
  587POPC   GL110165  18.440  43.325   9.239
  587POPC   GL210166  18.730  43.404   9.021
  587POPC   C1A10167  18.097  43.357   8.853
  587POPC   D2A10168  18.058  43.416   8.372
  587POPC   C3A10169  18.198  43.038   8.134
  587POPC   C4A10170  18.252  42.959   7.663
  587POPC   C1B10171  18.548  43.340   8.614
  587POPC   C2B10172  18.674  42.984   8.360
  587POPC   C3B10173  18.676  42.954   7.944
  587POPC   C4B10174  18.696  43.275   7.629
  588POPC   NC310175  13.835  25.240   9.454
  588POPC   PO410176  13.387  24.707   9.561
  588POPC   GL110177  13.431  25.103   9.209
  588POPC   GL210178  13.745  25.197   8.974
  588POPC   C1A10179  13.319  25.339   8.794
  588POPC   D2A10180  13.571  25.134   8.455
  588POPC   C3A10181  13.719  25.264   8.028
  588POPC   C4A10182  13.776  25.051   7.637
  588POPC   C1B10183  13.911  25.482   8.650
  588POPC   C2B10184  14.135  25.577   8.235
  588POPC   C3B10185  13.993  25.727   7.813
  588POPC   C4B10186  13.834  25.512   7.425
  589POPC   NC310187   3.135  30.792   9.831
  589POPC   PO410188   2.523  30.655   9.573
  589POPC   GL110189   2.634  30.744   9.130
  589POPC   GL210190   2.943  30.595   8.961
  589POPC   C1A10191   2.543  30.797   8.702
  589POPC   D2A10192   2.866  30.762   8.428
  589POPC   C3A10193   2.608  30.748   8.103
  589POPC   C4A10194   2.275  30.785   7.799
  589POPC   C1B10195   2.938  30.302   8.638
  589POPC   C2B10196   2.982  30.293   8.199
  589POPC   C3B10197   2.756  30.321   7.870
  589POPC   C4B10198   2.772  30.690   7.632
  590POPC   NC310199  40.468   6.497   9.443
  590POPC   PO410200  41.023   6.743   9.382
  590POPC   GL110201  40.774   6.707   9.032
  590POPC   GL210202  40.404   6.801   9.051
  590POPC   C1A10203  40.973   6.797   8.629
  590POPC   D2A10204  41.190   6.563   8.319
  590POPC   C3A10205  41.043   6.619   7.928
  590POPC   C4A10206  40.690   6.672   7.682
  590POPC   C1B10207  40.449   6.664   8.629
  590POPC   C2B10208  40.653   6.514   8.258
  590POPC   C3B10209  40.536   6.242   7.938
  590POPC   C4B10210  40.301   6.359   7.618
  591POPC   NC310211  14.228  18.732  10.177
  591POPC   PO410212  14.410  18.457   9.593
  591POPC   GL110213  14.432  18.385   9.178
  591POPC   GL210214  14.220  18.052   9.176
  591POPC   C1A10215  14.588  18.469   8.738
  591POPC   D2A10216  14.648  18.198   8.397
  591POPC   C3A10217  14.476  18.389   8.038
  591POPC   C4A10218  14.478  18.608   7.672
  591POPC   C1B10219  14.120  18.286   8.799
  591POPC   C2B10220  14.112  18.446   8.394
  591POPC   C3B10221  13.939  18.272   8.026
  591POPC   C4B10222  14.103  18.237   7.624
  592POPC   NC310223  34.564  33.039  10.156
  592POPC   PO410224  34.406  32.884   9.538
  592POPC   GL110225  34.535  32.917   9.154
  592POPC   GL210226  34.458  33.282   9.167
  592POPC   C1A10227  34.835  32.755   8.835
  592POPC   D2A10228  34.905  32.784   8.373
  592POPC   C3A10229  34.572  32.727   8.054
  592POPC   C4A10230  34.585  32.857   7.623
  592POPC   C1B10231  34.603  33.199   8.754
  592POPC   C2B10232  34.500  33.117   8.380
  592POPC   C3B10233  34.383  33.392   8.050
  592POPC   C4B10234  34.593  33.523   7.685
  593POPC   NC310235   7.719  18.760   9.635
  593POPC   PO410236   8.256  19.177   9.600
  593POPC   GL110237   8.273  19.088   9.175
  593POPC   GL210238   7.971  18.953   9.179
  593POPC   C1A10239   8.257  18.865   8.769
  593POPC   D2A10240   8.213  19.073   8.389
  593POPC   C3A10241   8.378  18.848   8.028
  593POPC   C4A10242   8.625  18.894   7.676
  593POPC   C1B10243   7.832  19.153   8.798
  593POPC   C2B10244   7.788  19.396   8.406
  593POPC   C3B10245   7.749  19.227   7.987
  593POPC   C4B10246   8.032  19.032   7.689
  594POPC   NC310247  22.028  11.504   9.584
  594POPC   PO410248  22.654  11.385   9.410
  594POPC   GL110249  22.236  11.185   9.216
  594POPC   GL210250  21.946  11.417   9.096
  594POPC   C1A10251  22.186  11.063   8.784
  594POPC   D2A10252  22.500  11.027   8.462
  594POPC   C3A10253  22.421  11.060   8.016
  594POPC   C4A10254  22.227  11.010   7.617
  594POPC   C1B10255  21.972  11.520   8.670
  594POPC   C2B10256  22.015  11.279   8.281
  594POPC   C3B10257  22.108  11.458   7.872
  594POPC   C4B10258  22.200  11.870   7.672
  595POPC   NC310259  12.852  10.081   9.346
  595POPC   PO410260  13.226   9.699   9.735
  595POPC   GL110261  13.078   9.610   9.258
  595POPC   GL210262  12.784   9.685   9.033
  595POPC   C1A10263  13.179   9.588   8.766
  595POPC   D2A10264  13.230   9.728   8.342
  595POPC   C3A10265  13.034   9.527   7.959
  595POPC   C4A10266  12.888   9.731   7.569
  595POPC   C1B10267  12.538   9.803   8.701
  595POPC   C2B10268  12.703   9.773   8.283
  595POPC   C3B10269  12.518   9.821   7.898
  595POPC   C4B10270  12.403   9.726   7.462
  596POPC   NC310271  21.826   5.700   9.490
  596POPC   PO410272  21.395   6.259   9.595
  596POPC   GL110273  21.696   6.127   9.254
  596POPC   GL210274  21.488   5.823   9.117
  596POPC   C1A10275  21.749   6.122   8.811
  596POPC   D2A10276  21.586   5.977   8.426
  596POPC   C3A10277  21.800   6.160   8.096
  596POPC   C4A10278  21.693   6.193   7.675
  596POPC   C1B10279  21.310   5.629   8.730
  596POPC   C2B10280  21.141   5.718   8.317
  596POPC   C3B10281  21.331   5.845   7.925
  596POPC   C4B10282  21.417   5.798   7.481
  597POPC   NC310283  40.386  37.859   9.353
  597POPC   PO410284  39.786  37.542   9.488
  597POPC   GL110285  39.761  37.701   9.083
  597POPC   GL210286  39.502  37.422   9.060
  597POPC   C1A10287  40.028  37.757   8.684
  597POPC   D2A10288  40.273  37.641   8.291
  597POPC   C3A10289  40.017  37.692   7.910
  597POPC   C4A10290  40.227  37.852   7.501
  597POPC   C1B10291  39.785  37.311   8.751
  597POPC   C2B10292  39.864  37.372   8.366
  597POPC   C3B10293  39.715  37.277   8.012
  597POPC   C4B10294  39.849  37.300   7.642
  598POPC   NC310295  21.190  16.194   9.479
  598POPC   PO410296  21.462  15.547   9.637
  598POPC   GL110297  21.488  15.849   9.238
  598POPC   GL210298  21.636  16.200   9.167
  598POPC   C1A10299  21.338  15.927   8.803
  598POPC   D2A10300  21.543  15.886   8.392
  598POPC   C3A10301  21.349  15.804   7.977
  598POPC   C4A10302  21.258  15.889   7.539
  598POPC   C1B10303  21.608  16.359   8.707
  598POPC   C2B10304  21.548  16.358   8.216
  598POPC   C3B10305  21.701  16.121   7.817
  598POPC   C4B10306  21.794  16.190   7.376
  599POPC   NC310307   5.355  42.528   9.557
  599POPC   PO410308   4.833  42.294   9.212
  599POPC   GL110309   5.243  42.322   9.108
  599POPC   GL210310   5.335  41.988   9.207
  599POPC   C1A10311   5.260  42.553   8.744
  599POPC   D2A10312   4.970  42.528   8.426
  599POPC   C3A10313   5.169  42.661   8.053
  599POPC   C4A10314   4.978  42.608   7.675
  599POPC   C1B10315   5.285  41.970   8.752
  599POPC   C2B10316   4.961  41.968   8.428
  599POPC   C3B10317   4.909  42.190   8.039
  599POPC   C4B10318   5.233  42.184   7.758
  600POPC   NC310319  34.781  17.304   9.525
  600POPC   PO410320  34.170  17.649   9.457
  600POPC   GL110321  34.498  17.587   9.110
  600POPC   GL210322  34.814  17.347   9.013
  600POPC   C1A10323  34.421  17.468   8.685
  600POPC   D2A10324  34.309  17.675   8.312
  600POPC   C3A10325  34.438  17.509   7.899
  600POPC   C4A10326  34.654  17.378   7.495
  600POPC   C1B10327  34.883  17.681   8.734
  600POPC   C2B10328  34.858  17.758   8.280
  600POPC   C3B10329  34.963  17.509   7.898
  600POPC   C4B10330  35.104  17.626   7.479
  601POPC   NC310331  19.330  36.011   9.631
  601POPC   PO410332  18.782  36.281   9.533
  601POPC   GL110333  18.997  36.087   9.165
  601POPC   GL210334  19.319  35.871   9.145
  601POPC   C1A10335  19.029  35.955   8.736
  601POPC   D2A10336  19.290  36.101   8.409
  601POPC   C3A10337  19.052  36.191   8.060
  601POPC   C4A10338  18.771  36.039   7.771
  601POPC   C1B10339  19.529  35.829   8.783
  601POPC   C2B10340  19.715  35.742   8.396
  601POPC   C3B10341  19.506  35.739   8.018
  601POPC   C4B10342  19.272  35.911   7.704
  602POPC   NC310343  20.455  43.636   9.582
  602POPC   PO410344  19.794  43.873   9.510
  602POPC   GL110345  19.865  43.795   9.138
  602POPC   GL210346  20.133  43.599   9.153
  602POPC   C1A10347  19.622  43.895   8.785
  602POPC   D2A10348  19.656  43.981   8.387
  602POPC   C3A10349  19.805  43.841   8.006
  602POPC   C4A10350  20.110  44.060   7.810
  602POPC   C1B10351  20.091  43.767   8.701
  602POPC   C2B10352  19.983  43.515   8.357
  602POPC   C3B10353  20.116  43.444   7.946
  602POPC   C4B10354  20.344  43.524   7.589
  603POPC   NC310355  34.107  19.958   9.420
  603POPC   PO410356  33.505  19.674   9.477
  603POPC   GL110357  33.772  19.706   9.133
  603POPC   GL210358  33.688  20.058   9.015
  603POPC   C1A10359  33.879  19.730   8.701
  603POPC   D2A10360  33.811  20.038   8.377
  603POPC   C3A10361  33.842  19.822   8.020
  603POPC   C4A10362  33.591  19.796   7.705
  603POPC   C1B10363  34.096  20.204   8.775
  603POPC   C2B10364  34.307  20.145   8.357
  603POPC   C3B10365  34.168  20.187   7.953
  603POPC   C4B10366  33.893  20.246   7.623
  604POPC   NC310367  17.919  26.775   9.751
  604POPC   PO410368  18.314  27.111   9.363
  604POPC   GL110369  18.280  26.943   8.976
  604POPC   GL210370  18.467  26.612   8.986
  604POPC   C1A10371  18.154  26.729   8.607
  604POPC   D2A10372  18.343  26.776   8.239
  604POPC   C3A10373  18.120  26.952   7.889
  604POPC   C4A10374  18.162  27.007   7.431
  604POPC   C1B10375  18.555  26.413   8.606
  604POPC   C2B10376  18.342  26.246   8.245
  604POPC   C3B10377  18.156  26.439   7.887
  604POPC   C4B10378  18.435  26.597   7.575
  605POPC   NC310379  35.615   9.515   9.338
  605POPC   PO410380  35.296  10.107   9.356
  605POPC   GL110381  35.183   9.844   9.014
  605POPC   GL210382  35.538   9.803   8.930
  605POPC   C1A10383  35.229   9.736   8.548
  605POPC   D2A10384  35.424   9.941   8.183
  605POPC   C3A10385  35.294   9.807   7.774
  605POPC   C4A10386  35.017   9.627   7.459
  605POPC   C1B10387  35.546   9.365   8.720
  605POPC   C2B10388  35.489   9.283   8.297
  605POPC   C3B10389  35.672   9.462   7.937
  605POPC   C4B10390  35.629   9.534   7.495
  606POPC   NC310391  38.726   6.060   9.544
  606POPC   PO410392  39.158   5.478   9.562
  606POPC   GL110393  39.066   5.781   9.196
  606POPC   GL210394  39.290   6.089   9.162
  606POPC   C1A10395  39.169   5.764   8.749
  606POPC   D2A10396  39.228   5.953   8.340
  606POPC   C3A10397  39.255   5.663   7.977
  606POPC   C4A10398  39.046   5.586   7.584
  606POPC   C1B10399  39.505   6.174   8.739
  606POPC   C2B10400  39.540   6.388   8.320
  606POPC   C3B10401  39.517   6.113   7.951
  606POPC   C4B10402  39.174   6.076   7.671
  607POPC   NC310403  39.667   6.926   9.730
  607POPC   PO410404  39.719   7.571   9.636
  607POPC   GL110405  39.740   7.240   9.301
  607POPC   GL210406  40.106   7.192   9.223
  607POPC   C1A10407  39.657   7.266   8.848
  607POPC   D2A10408  39.845   7.547   8.533
  607POPC   C3A10409  39.933   7.570   8.102
  607POPC   C4A10410  39.689   7.887   7.945
  607POPC   C1B10411  40.226   7.478   8.880
  607POPC   C2B10412  40.349   7.468   8.448
  607POPC   C3B10413  40.430   7.582   8.014
  607POPC   C4B10414  40.258   7.302   7.754
  608POPC   NC310415  19.583   5.122   9.556
  608POPC   PO410416  20.274   4.995   9.538
  608POPC   GL110417  19.942   4.941   9.213
  608POPC   GL210418  19.899   5.308   9.095
  608POPC   C1A10419  19.726   4.949   8.797
  608POPC   D2A10420  19.860   5.176   8.456
  608POPC   C3A10421  19.830   4.900   8.103
  608POPC   C4A10422  19.642   4.879   7.700
  608POPC   C1B10423  19.555   5.448   8.782
  608POPC   C2B10424  19.431   5.455   8.371
  608POPC   C3B10425  19.666   5.363   8.003
  608POPC   C4B10426  19.497   5.360   7.621
  609POPC   NC310427  44.103  10.750   9.737
  609POPC   PO410428  43.577  10.483   9.476
  609POPC   GL110429  44.006  10.464   9.235
  609POPC   GL210430  43.782  10.428   9.004
  609POPC   C1A10431  44.172  10.591   8.753
  609POPC   D2A10432  44.014  10.647   8.314
  609POPC   C3A10433  44.052  10.409   7.913
  609POPC   C4A10434  44.077  10.576   7.494
  609POPC   C1B10435  43.671  10.432   8.619
  609POPC   C2B10436  43.779  10.186   8.293
  609POPC   C3B10437  43.613  10.115   7.913
  609POPC   C4B10438  43.581  10.495   7.700
  610POPC   NC310439  42.281  30.025   9.442
  610POPC   PO410440  42.354  29.356   9.492
  610POPC   GL110441  42.498  29.643   9.140
  610POPC   GL210442  42.772  29.909   9.256
  610POPC   C1A10443  42.315  29.638   8.692
  610POPC   D2A10444  42.015  29.587   8.318
  610POPC   C3A10445  42.139  29.789   7.981
  610POPC   C4A10446  42.180  30.179   7.777
  610POPC   C1B10447  42.824  29.907   8.829
  610POPC   C2B10448  42.814  29.860   8.402
  610POPC   C3B10449  42.617  30.033   8.045
  610POPC   C4B10450  42.526  29.821   7.660
  611POPC   NC310451  22.760  41.492   9.502
  611POPC   PO410452  23.352  41.801   9.518
  611POPC   GL110453  23.120  41.743   9.154
  611POPC   GL210454  23.046  41.385   9.099
  611POPC   C1A10455  22.990  41.842   8.736
  611POPC   D2A10456  22.999  41.611   8.358
  611POPC   C3A10457  23.033  41.757   7.953
  611POPC   C4A10458  22.749  41.428   7.846
  611POPC   C1B10459  23.273  41.407   8.746
  611POPC   C2B10460  23.479  41.472   8.351
  611POPC   C3B10461  23.296  41.325   8.002
  611POPC   C4B10462  23.185  41.369   7.597
  612POPC   NC310463  41.316   2.025   9.305
  612POPC   PO410464  41.811   1.579   9.492
  612POPC   GL110465  41.686   1.741   9.122
  612POPC   GL210466  41.907   1.949   9.088
  612POPC   C1A10467  41.586   1.941   8.712
  612POPC   D2A10468  41.557   1.752   8.354
  612POPC   C3A10469  41.368   2.035   8.147
  612POPC   C4A10470  41.306   2.073   7.721
  612POPC   C1B10471  42.099   1.952   8.710
  612POPC   C2B10472  41.933   2.082   8.326
  612POPC   C3B10473  41.794   1.903   7.909
  612POPC   C4B10474  41.698   1.923   7.464
  613POPC   NC310475   5.912  36.538   9.361
  613POPC   PO410476   5.463  36.019   9.431
  613POPC   GL110477   5.878  36.030   9.193
  613POPC   GL210478   5.695  36.220   8.982
  613POPC   C1A10479   6.143  36.127   8.773
  613POPC   D2A10480   5.901  36.117   8.367
  613POPC   C3A10481   5.999  36.193   7.905
  613POPC   C4A10482   6.195  35.868   7.631
  613POPC   C1B10483   5.494  36.457   8.685
  613POPC   C2B10484   5.430  36.345   8.264
  613POPC   C3B10485   5.603  36.551   7.926
  613POPC   C4B10486   5.750  36.539   7.533
  614POPC   NC310487  44.787  27.432   9.786
  614POPC   PO410488   0.074  27.882   9.395
  614POPC   GL110489  44.805  27.710   9.123
  614POPC   GL210490  44.720  27.407   9.276
  614POPC   C1A10491  44.650  27.756   8.713
  614POPC   D2A10492  44.744  27.563   8.335
  614POPC   C3A10493  44.723  27.859   8.035
  614POPC   C4A10494  44.911  27.878   7.680
  614POPC   C1B10495  44.584  27.285   8.896
  614POPC   C2B10496  44.304  27.383   8.574
  614POPC   C3B10497  44.269  27.355   8.141
  614POPC   C4B10498  44.472  27.470   7.790
  615POPC   NC310499  29.533  35.885   9.374
  615POPC   PO410500  28.922  35.995   9.285
  615POPC   GL110501  29.215  36.140   9.034
  615POPC   GL210502  29.082  36.459   9.037
  615POPC   C1A10503  29.187  36.008   8.634
  615POPC   D2A10504  28.818  36.059   8.362
  615POPC   C3A10505  28.944  36.059   7.944
  615POPC   C4A10506  29.305  35.860   7.798
  615POPC   C1B10507  29.038  36.476   8.591
  615POPC   C2B10508  29.274  36.323   8.245
  615POPC   C3B10509  29.328  36.386   7.822
  615POPC   C4B10510  29.359  36.443   7.365
  616POPC   NC310511  20.836  16.730   9.394
  616POPC   PO410512  21.503  16.538   9.533
  616POPC   GL110513  21.380  16.801   9.236
  616POPC   GL210514  21.250  16.528   9.056
  616POPC   C1A10515  21.587  16.872   8.846
  616POPC   D2A10516  21.366  16.798   8.464
  616POPC   C3A10517  21.597  16.862   8.085
  616POPC   C4A10518  21.562  17.102   7.738
  616POPC   C1B10519  21.123  16.363   8.654
  616POPC   C2B10520  21.085  16.164   8.268
  616POPC   C3B10521  21.176  16.281   7.838
  616POPC   C4B10522  21.254  16.367   7.395
  617POPC   NC310523  39.555  13.967   9.411
  617POPC   PO410524  39.334  13.327   9.543
  617POPC   GL110525  39.151  13.571   9.244
  617POPC   GL210526  39.465  13.608   9.094
  617POPC   C1A10527  39.022  13.715   8.832
  617POPC   D2A10528  39.189  13.677   8.407
  617POPC   C3A10529  38.956  13.526   8.065
  617POPC   C4A10530  38.888  13.242   7.708
  617POPC   C1B10531  39.578  13.792   8.745
  617POPC   C2B10532  39.706  13.556   8.430
  617POPC   C3B10533  39.594  13.736   8.082
  617POPC   C4B10534  39.330  13.659   7.773
  618POPC   NC310535  25.441   2.142   9.574
  618POPC   PO410536  25.082   1.650   9.477
  618POPC   GL110537  25.299   1.933   9.129
  618POPC   GL210538  25.119   2.233   9.170
  618POPC   C1A10539  25.562   2.049   8.729
  618POPC   D2A10540  25.386   2.088   8.280
  618POPC   C3A10541  25.434   1.827   7.914
  618POPC   C4A10542  25.122   1.647   7.656
  618POPC   C1B10543  25.091   2.238   8.710
  618POPC   C2B10544  25.025   2.439   8.308
  618POPC   C3B10545  25.081   2.264   7.886
  618POPC   C4B10546  25.363   2.211   7.544
  619POPC   NC310547  17.810   0.002   9.457
  619POPC   PO410548  17.577  44.416   9.515
  619POPC   GL110549  17.495  44.664   9.143
  619POPC   GL210550  17.173  44.753   9.056
  619POPC   C1A10551  17.566  44.697   8.705
  619POPC   D2A10552  17.382  44.523   8.316
  619POPC   C3A10553  17.592  44.682   7.958
  619POPC   C4A10554  17.663  44.495   7.520
  619POPC   C1B10555  17.184   0.019   8.718
  619POPC   C2B10556  17.389   0.031   8.319
  619POPC   C3B10557  17.237   0.052   7.894
  619POPC   C4B10558  17.549  44.994   7.547
  620POPC   NC310559  20.355  40.348   9.853
  620POPC   PO410560  20.635  40.679   9.404
  620POPC   GL110561  20.746  40.888   9.076
  620POPC   GL210562  20.797  41.234   9.169
  620POPC   C1A10563  20.630  40.758   8.680
  620POPC   D2A10564  20.381  40.748   8.348
  620POPC   C3A10565  20.629  40.589   8.065
  620POPC   C4A10566  20.612  40.640   7.691
  620POPC   C1B10567  20.952  41.270   8.756
  620POPC   C2B10568  20.845  41.110   8.349
  620POPC   C3B10569  20.592  41.073   7.984
  620POPC   C4B10570  20.432  41.149   7.603
  621POPC   NC310571  30.497  11.333   9.440
  621POPC   PO410572  31.205  11.420   9.536
  621POPC   GL110573  30.877  11.463   9.148
  621POPC   GL210574  30.834  11.114   9.040
  621POPC   C1A10575  30.548  11.449   8.773
  621POPC   D2A10576  30.338  11.509   8.356
  621POPC   C3A10577  30.261  11.255   8.013
  621POPC   C4A10578  30.244  10.945   7.692
  621POPC   C1B10579  31.029  11.278   8.642
  621POPC   C2B10580  31.034  11.202   8.173
  621POPC   C3B10581  30.723  11.177   7.822
  621POPC   C4B10582  30.454  11.528   7.633
  622POPC   NC310583  36.714  15.864   9.458
  622POPC   PO410584  37.184  16.343   9.691
  622POPC   GL110585  37.171  16.137   9.248
  622POPC   GL210586  36.997  15.847   9.043
  622POPC   C1A10587  37.304  16.112   8.782
  622POPC   D2A10588  37.067  15.869   8.460
  622POPC   C3A10589  37.217  15.922   8.040
  622POPC   C4A10590  36.981  15.917   7.629
  622POPC   C1B10591  36.672  15.645   8.792
  622POPC   C2B10592  36.471  15.588   8.393
  622POPC   C3B10593  36.717  15.718   8.046
  622POPC   C4B10594  36.657  15.514   7.642
  623POPC   NC310595   2.693  27.045   9.531
  623POPC   PO410596   2.904  26.506   9.462
  623POPC   GL110597   2.709  26.697   9.125
  623POPC   GL210598   2.964  26.911   9.112
  623POPC   C1A10599   2.826  26.621   8.686
  623POPC   D2A10600   2.895  26.475   8.233
  623POPC   C3A10601   2.631  26.664   7.889
  623POPC   C4A10602   2.597  26.515   7.474
  623POPC   C1B10603   3.028  27.102   8.729
  623POPC   C2B10604   2.870  26.990   8.330
  623POPC   C3B10605   3.039  26.961   7.936
  623POPC   C4B10606   2.949  27.211   7.599
  624POPC   NC310607  38.917  25.956   9.437
  624POPC   PO410608  39.566  26.107   9.525
  624POPC   GL110609  39.366  25.856   9.174
  624POPC   GL210610  39.313  26.163   9.066
  624POPC   C1A10611  39.034  25.691   8.825
  624POPC   D2A10612  38.823  25.698   8.381
  624POPC   C3A10613  39.103  25.796   8.006
  624POPC   C4A10614  38.947  25.989   7.603
  624POPC   C1B10615  39.388  26.009   8.674
  624POPC   C2B10616  39.102  26.162   8.357
  624POPC   C3B10617  39.167  26.323   7.931
  624POPC   C4B10618  39.394  26.185   7.534
  625POPC   NC310619  41.816  41.353   9.555
  625POPC   PO410620  41.392  40.774   9.455
  625POPC   GL110621  41.683  40.977   9.199
  625POPC   GL210622  41.420  41.216   9.156
  625POPC   C1A10623  41.833  40.756   8.825
  625POPC   D2A10624  41.604  40.620   8.464
  625POPC   C3A10625  41.741  40.712   8.073
  625POPC   C4A10626  41.626  40.485   7.714
  625POPC   C1B10627  41.339  40.942   8.786
  625POPC   C2B10628  41.294  41.068   8.355
  625POPC   C3B10629  41.286  40.893   7.969
  625POPC   C4B10630  41.404  41.046   7.616
  626POPC   NC310631  30.657   6.316   9.529
  626POPC   PO410632  30.812   6.910   9.400
  626POPC   GL110633  30.809   6.563   9.097
  626POPC   GL210634  30.496   6.351   9.064
  626POPC   C1A10635  30.796   6.594   8.658
  626POPC   D2A10636  30.598   6.874   8.361
  626POPC   C3A10637  30.910   6.883   8.055
  626POPC   C4A10638  30.990   6.684   7.642
  626POPC   C1B10639  30.596   6.124   8.741
  626POPC   C2B10640  30.478   6.307   8.364
  626POPC   C3B10641  30.559   6.505   7.965
  626POPC   C4B10642  30.559   6.418   7.535
  627POPC   NC310643  22.534   5.561   9.635
  627POPC   PO410644  22.168   6.097   9.570
  627POPC   GL110645  22.307   6.038   9.179
  627POPC   GL210646  22.132   5.776   9.026
  627POPC   C1A10647  22.395   6.118   8.732
  627POPC   D2A10648  22.113   5.935   8.460
  627POPC   C3A10649  22.247   5.839   8.062
  627POPC   C4A10650  22.271   5.806   7.629
  627POPC   C1B10651  21.825   5.626   8.740
  627POPC   C2B10652  21.827   5.533   8.266
  627POPC   C3B10653  21.825   5.713   7.829
  627POPC   C4B10654  21.861   5.538   7.396
  628POPC   NC310655  26.393   2.426   9.463
  628POPC   PO410656  27.074   2.581   9.527
  628POPC   GL110657  26.990   2.611   9.073
  628POPC   GL210658  26.652   2.646   9.085
  628POPC   C1A10659  26.904   2.792   8.650
  628POPC   D2A10660  26.822   2.958   8.206
  628POPC   C3A10661  27.023   2.739   7.851
  628POPC   C4A10662  27.007   2.681   7.396
  628POPC   C1B10663  26.393   2.594   8.757
  628POPC   C2B10664  26.461   2.611   8.371
  628POPC   C3B10665  26.577   2.512   7.983
  628POPC   C4B10666  26.527   2.702   7.571
  629POPC   NC310667  22.557  10.019   9.468
  629POPC   PO410668  22.824   9.472   9.784
  629POPC   GL110669  22.906   9.702   9.287
  629POPC   GL210670  23.158   9.918   9.193
  629POPC   C1A10671  22.909   9.699   8.812
  629POPC   D2A10672  22.752   9.602   8.379
  629POPC   C3A10673  23.073   9.685   8.038
  629POPC   C4A10674  22.926   9.575   7.623
  629POPC   C1B10675  23.211  10.140   8.827
  629POPC   C2B10676  23.186  10.011   8.415
  629POPC   C3B10677  23.303  10.196   8.019
  629POPC   C4B10678  23.113  10.074   7.650
  630POPC   NC310679   4.745   8.991   9.566
  630POPC   PO410680   5.284   8.761   9.911
  630POPC   GL110681   5.179   8.809   9.372
  630POPC   GL210682   5.067   9.139   9.197
  630POPC   C1A10683   5.257   8.791   8.876
  630POPC   D2A10684   5.141   9.016   8.454
  630POPC   C3A10685   5.050   8.843   8.028
  630POPC   C4A10686   5.151   8.683   7.599
  630POPC   C1B10687   4.930   9.334   8.812
  630POPC   C2B10688   4.846   9.463   8.399
  630POPC   C3B10689   4.799   9.302   8.006
  630POPC   C4B10690   4.848   9.092   7.624
  631POPC   NC310691   5.551  34.600   9.577
  631POPC   PO410692   5.921  35.137   9.543
  631POPC   GL110693   6.005  34.837   9.203
  631POPC   GL210694   6.071  34.481   9.280
  631POPC   C1A10695   5.817  34.722   8.809
  631POPC   D2A10696   5.917  34.515   8.429
  631POPC   C3A10697   5.646  34.509   8.090
  631POPC   C4A10698   5.869  34.718   7.782
  631POPC   C1B10699   6.173  34.323   8.850
  631POPC   C2B10700   6.355  34.248   8.436
  631POPC   C3B10701   6.217  34.323   8.021
  631POPC   C4B10702   6.171  34.369   7.581
  632POPC   NC310703  35.898   6.292   9.487
  632POPC   PO410704  36.034   5.536   9.553
  632POPC   GL110705  36.152   5.620   9.080
  632POPC   GL210706  36.239   5.995   9.038
  632POPC   C1A10707  36.012   5.644   8.666
  632POPC   D2A10708  36.166   5.644   8.257
  632POPC   C3A10709  35.780   5.757   8.024
  632POPC   C4A10710  35.637   6.180   7.842
  632POPC   C1B10711  36.482   5.863   8.737
  632POPC   C2B10712  36.617   5.951   8.332
  632POPC   C3B10713  36.472   5.898   7.910
  632POPC   C4B10714  36.502   5.890   7.465
  633POPC   NC310715  21.534  28.710   9.414
  633POPC   PO410716  21.428  28.072   9.627
  633POPC   GL110717  21.300  28.280   9.186
  633POPC   GL210718  21.136  28.615   9.099
  633POPC   C1A10719  21.342  28.342   8.709
  633POPC   D2A10720  21.420  28.574   8.307
  633POPC   C3A10721  21.531  28.380   7.880
  633POPC   C4A10722  21.857  28.488   7.535
  633POPC   C1B10723  20.939  28.676   8.681
  633POPC   C2B10724  20.917  28.645   8.244
  633POPC   C3B10725  21.016  28.422   7.876
  633POPC   C4B10726  21.092  28.144   7.524
  634POPC   NC310727   0.697  21.727   9.398
  634POPC   PO410728   0.484  22.383   9.549
  634POPC   GL110729   0.376  22.231   9.200
  634POPC   GL210730   0.563  22.516   9.056
  634POPC   C1A10731   0.339  21.937   8.865
  634POPC   D2A10732   0.463  22.063   8.471
  634POPC   C3A10733   0.655  21.779   8.216
  634POPC   C4A10734   0.419  21.931   7.906
  634POPC   C1B10735   0.269  22.451   8.749
  634POPC   C2B10736   0.163  22.510   8.330
  634POPC   C3B10737   0.362  22.461   7.922
  634POPC   C4B10738   0.351  22.525   7.446
  635POPC   NC310739  41.978  36.747   9.397
  635POPC   PO410740  42.531  37.006   9.646
  635POPC   GL110741  42.517  36.951   9.228
  635POPC   GL210742  42.454  37.295   9.190
  635POPC   C1A10743  42.294  36.887   8.827
  635POPC   D2A10744  42.094  36.959   8.440
  635POPC   C3A10745  42.237  36.849   8.036
  635POPC   C4A10746  41.988  36.972   7.706
  635POPC   C1B10747  42.702  37.219   8.829
  635POPC   C2B10748  42.646  36.994   8.458
  635POPC   C3B10749  42.598  37.191   8.102
  635POPC   C4B10750  42.613  37.070   7.714
  636POPC   NC310751  20.297  27.278   9.948
  636POPC   PO410752  19.828  27.735   9.603
  636POPC   GL110753  19.527  27.713   9.248
  636POPC   GL210754  19.665  27.428   9.119
  636POPC   C1A10755  19.534  27.753   8.768
  636POPC   D2A10756  19.669  27.546   8.384
  636POPC   C3A10757  19.641  27.762   8.019
  636POPC   C4A10758  19.859  27.710   7.661
  636POPC   C1B10759  19.952  27.393   8.784
  636POPC   C2B10760  20.075  27.206   8.372
  636POPC   C3B10761  20.052  27.312   7.923
  636POPC   C4B10762  20.122  27.305   7.453
  637POPC   NC310763  44.330  19.667   9.269
  637POPC   PO410764  44.917  19.845   9.595
  637POPC   GL110765  44.791  19.872   9.204
  637POPC   GL210766  44.546  20.153   9.275
  637POPC   C1A10767  44.820  19.599   8.818
  637POPC   D2A10768  44.651  19.458   8.427
  637POPC   C3A10769  44.857  19.450   8.029
  637POPC   C4A10770  44.583  19.563   7.716
  637POPC   C1B10771  44.594  20.093   8.812
  637POPC   C2B10772  44.374  19.899   8.520
  637POPC   C3B10773  44.462  19.850   8.117
  637POPC   C4B10774  44.449  20.079   7.758
  638POPC   NC310775   3.212  25.038   9.342
  638POPC   PO410776   3.461  24.463   9.644
  638POPC   GL110777   3.501  24.321   9.228
  638POPC   GL210778   3.330  24.593   9.117
  638POPC   C1A10779   3.570  24.293   8.770
  638POPC   D2A10780   3.693  24.570   8.414
  638POPC   C3A10781   3.561  24.397   8.004
  638POPC   C4A10782   3.866  24.149   7.738
  638POPC   C1B10783   3.297  24.777   8.724
  638POPC   C2B10784   3.219  24.771   8.274
  638POPC   C3B10785   3.084  24.652   7.867
  638POPC   C4B10786   3.217  24.693   7.418
  639POPC   NC310787   4.790  28.851   9.506
  639POPC   PO410788   5.354  29.255   9.440
  639POPC   GL110789   5.053  29.178   9.140
  639POPC   GL210790   5.026  28.853   9.072
  639POPC   C1A10791   5.188  29.166   8.707
  639POPC   D2A10792   5.023  29.322   8.364
  639POPC   C3A10793   5.148  29.146   8.024
  639POPC   C4A10794   4.859  29.170   7.725
  639POPC   C1B10795   5.224  28.646   8.755
  639POPC   C2B10796   5.304  28.746   8.335
  639POPC   C3B10797   5.105  28.656   7.955
  639POPC   C4B10798   5.215  28.822   7.567
  640POPC   NC310799  17.127   3.426   9.765
  640POPC   PO410800  16.530   3.525   9.495
  640POPC   GL110801  16.762   3.349   9.144
  640POPC   GL210802  17.137   3.386   9.184
  640POPC   C1A10803  16.818   3.304   8.689
  640POPC   D2A10804  16.734   3.187   8.253
  640POPC   C3A10805  16.811   3.524   7.972
  640POPC   C4A10806  16.451   3.726   7.804
  640POPC   C1B10807  17.207   3.662   8.815
  640POPC   C2B10808  16.978   3.773   8.458
  640POPC   C3B10809  17.167   3.882   8.085
  640POPC   C4B10810  17.308   3.745   7.693
  641POPC   NC310811  33.269  41.672   9.665
  641POPC   PO410812  33.766  41.349   9.525
  641POPC   GL110813  33.880  41.298   9.087
  641POPC   GL210814  33.619  41.150   8.962
  641POPC   C1A10815  33.990  41.550   8.733
  641POPC   D2A10816  34.018  41.513   8.293
  641POPC   C3A10817  33.739  41.573   7.950
  641POPC   C4A10818  33.831  41.519   7.482
  641POPC   C1B10819  33.622  41.220   8.524
  641POPC   C2B10820  33.635  41.092   8.127
  641POPC   C3B10821  33.511  41.182   7.707
  641POPC   C4B10822  33.308  41.456   7.391
  642POPC   NC310823   9.073  21.098   9.471
  642POPC   PO410824   8.375  21.252   9.530
  642POPC   GL110825   8.542  21.414   9.141
  642POPC   GL210826   8.902  21.457   9.128
  642POPC   C1A10827   8.607  21.312   8.714
  642POPC   D2A10828   8.808  21.390   8.302
  642POPC   C3A10829   8.599  21.341   7.902
  642POPC   C4A10830   8.656  21.526   7.507
  642POPC   C1B10831   8.992  21.663   8.718
  642POPC   C2B10832   9.184  21.740   8.305
  642POPC   C3B10833   9.038  21.623   7.874
  642POPC   C4B10834   9.231  21.720   7.464
  643POPC   NC310835  27.485  32.691   9.504
  643POPC   PO410836  27.825  32.142   9.566
  643POPC   GL110837  27.646  32.287   9.206
  643POPC   GL210838  27.511  31.991   9.154
  643POPC   C1A10839  27.584  32.289   8.762
  643POPC   D2A10840  27.552  32.055   8.400
  643POPC   C3A10841  27.596  32.307   8.062
  643POPC   C4A10842  27.497  32.148   7.663
  643POPC   C1B10843  27.834  31.850   8.787
  643POPC   C2B10844  28.049  31.904   8.371
  643POPC   C3B10845  27.902  31.919   7.920
  643POPC   C4B10846  27.943  31.993   7.437
  644POPC   NC310847   7.823  22.308   9.522
  644POPC   PO410848   7.095  22.455   9.458
  644POPC   GL110849   7.218  22.130   9.138
  644POPC   GL210850   7.548  22.008   9.162
  644POPC   C1A10851   7.273  22.110   8.692
  644POPC   D2A10852   7.175  21.948   8.298
  644POPC   C3A10853   7.270  22.211   7.982
  644POPC   C4A10854   7.593  22.312   7.736
  644POPC   C1B10855   7.702  21.846   8.781
  644POPC   C2B10856   7.686  22.020   8.367
  644POPC   C3B10857   7.658  21.862   7.969
  644POPC   C4B10858   7.857  21.846   7.621
  645POPC   NC310859  28.817  27.699   9.510
  645POPC   PO410860  29.487  27.359   9.414
  645POPC   GL110861  29.292  27.480   9.073
  645POPC   GL210862  29.262  27.811   9.213
  645POPC   C1A10863  29.312  27.458   8.620
  645POPC   D2A10864  29.066  27.411   8.235
  645POPC   C3A10865  29.116  27.429   7.782
  645POPC   C4A10866  29.490  27.520   7.548
  645POPC   C1B10867  29.030  27.872   8.834
  645POPC   C2B10868  28.900  27.945   8.422
  645POPC   C3B10869  29.094  27.893   8.026
  645POPC   C4B10870  28.928  27.903   7.621
  646POPC   NC310871  15.695  15.144   9.490
  646POPC   PO410872  16.108  14.811   9.801
  646POPC   GL110873  16.027  14.869   9.246
  646POPC   GL210874  16.010  15.231   9.115
  646POPC   C1A10875  15.970  14.895   8.751
  646POPC   D2A10876  15.988  15.226   8.431
  646POPC   C3A10877  16.010  15.116   8.000
  646POPC   C4A10878  16.270  15.279   7.651
  646POPC   C1B10879  15.683  15.406   8.845
  646POPC   C2B10880  15.611  15.588   8.442
  646POPC   C3B10881  15.686  15.681   8.008
  646POPC   C4B10882  15.796  15.423   7.664
  647POPC   NC310883  24.355  28.910   9.398
  647POPC   PO410884  24.604  29.467   9.561
  647POPC   GL110885  24.577  29.304   9.130
  647POPC   GL210886  24.752  28.977   9.022
  647POPC   C1A10887  24.314  29.166   8.774
  647POPC   D2A10888  24.178  29.181   8.381
  647POPC   C3A10889  24.441  29.008   8.083
  647POPC   C4A10890  24.537  28.791   7.726
  647POPC   C1B10891  24.802  29.277   8.653
  647POPC   C2B10892  24.607  29.497   8.281
  647POPC   C3B10893  24.469  29.469   7.839
  647POPC   C4B10894  24.637  29.214   7.476
  648POPC   NC310895  14.923  34.133   9.448
  648POPC   PO410896  15.405  33.601   9.521
  648POPC   GL110897  15.250  33.813   9.178
  648POPC   GL210898  14.951  33.649   9.227
  648POPC   C1A10899  15.177  33.869   8.726
  648POPC   D2A10900  15.447  33.733   8.384
  648POPC   C3A10901  15.375  33.908   7.980
  648POPC   C4A10902  15.056  34.039   7.723
  648POPC   C1B10903  15.123  33.378   8.891
  648POPC   C2B10904  15.015  33.438   8.443
  648POPC   C3B10905  15.228  33.396   8.043
  648POPC   C4B10906  15.239  33.545   7.634
  649POPC   NC310907  21.520  20.595   9.480
  649POPC   PO410908  20.802  20.776   9.327
  649POPC   GL110909  21.150  20.759   9.099
  649POPC   GL210910  21.085  20.428   9.022
  649POPC   C1A10911  21.324  20.979   8.718
  649POPC   D2A10912  21.528  20.789   8.332
  649POPC   C3A10913  21.459  20.947   7.893
  649POPC   C4A10914  21.211  20.782   7.551
  649POPC   C1B10915  21.323  20.474   8.696
  649POPC   C2B10916  21.159  20.406   8.315
  649POPC   C3B10917  21.307  20.446   7.942
  649POPC   C4B10918  21.231  20.257   7.575
  650POPC   NC310919   8.707  39.751   9.394
  650POPC   PO410920   7.997  40.076   9.479
  650POPC   GL110921   8.148  40.137   9.100
  650POPC   GL210922   8.284  39.801   9.087
  650POPC   C1A10923   8.041  40.025   8.693
  650POPC   D2A10924   8.190  39.753   8.390
  650POPC   C3A10925   8.224  39.899   7.993
  650POPC   C4A10926   8.166  39.715   7.586
  650POPC   C1B10927   8.526  39.940   8.771
  650POPC   C2B10928   8.510  40.185   8.423
  650POPC   C3B10929   8.674  40.150   8.039
  650POPC   C4B10930   8.559  40.059   7.635
  651POPC   NC310931  33.286  37.676   9.699
  651POPC   PO410932  32.642  37.654   9.421
  651POPC   GL110933  32.869  37.677   9.066
  651POPC   GL210934  33.104  37.974   9.137
  651POPC   C1A10935  32.864  37.479   8.623
  651POPC   D2A10936  33.085  37.675   8.267
  651POPC   C3A10937  33.037  37.587   7.820
  651POPC   C4A10938  33.135  37.774   7.396
  651POPC   C1B10939  33.284  37.725   8.785
  651POPC   C2B10940  33.409  37.348   8.543
  651POPC   C3B10941  33.371  37.249   8.112
  651POPC   C4B10942  33.527  37.523   7.766
  652POPC   NC310943  39.823  33.285   9.254
  652POPC   PO410944  40.114  33.852   9.541
  652POPC   GL110945  39.931  33.850   9.124
  652POPC   GL210946  39.703  33.639   8.911
  652POPC   C1A10947  39.977  34.055   8.746
  652POPC   D2A10948  40.139  34.220   8.377
  652POPC   C3A10949  40.012  33.901   8.132
  652POPC   C4A10950  39.960  33.921   7.724
  652POPC   C1B10951  40.161  33.551   8.767
  652POPC   C2B10952  40.288  33.321   8.388
  652POPC   C3B10953  40.278  33.501   7.972
  652POPC   C4B10954  39.910  33.424   7.774
  653POPC   NC310955  43.548   6.551   9.427
  653POPC   PO410956  44.117   6.948   9.352
  653POPC   GL110957  43.860   6.679   9.034
  653POPC   GL210958  43.773   6.285   9.039
  653POPC   C1A10959  43.774   6.553   8.587
  653POPC   D2A10960  43.624   6.343   8.203
  653POPC   C3A10961  43.754   6.596   7.853
  653POPC   C4A10962  44.132   6.850   7.856
  653POPC   C1B10963  44.185   6.333   8.843
  653POPC   C2B10964  44.368   6.279   8.446
  653POPC   C3B10965  44.186   6.372   8.048
  653POPC   C4B10966  44.267   6.192   7.648
  654POPC   NC310967  41.153   6.303   9.288
  654POPC   PO410968  41.648   6.720   9.602
  654POPC   GL110969  41.538   6.679   9.186
  654POPC   GL210970  41.639   6.326   9.141
  654POPC   C1A10971  41.649   6.922   8.780
  654POPC   D2A10972  41.406   7.034   8.392
  654POPC   C3A10973  41.521   6.859   7.991
  654POPC   C4A10974  41.906   6.687   7.837
  654POPC   C1B10975  41.501   6.438   8.724
  654POPC   C2B10976  41.683   6.440   8.318
  654POPC   C3B10977  41.500   6.355   7.932
  654POPC   C4B10978  41.719   6.248   7.623
  655POPC   NC310979  37.949   4.836   9.477
  655POPC   PO410980  37.657   5.504   9.525
  655POPC   GL110981  37.895   5.362   9.172
  655POPC   GL210982  37.566   5.185   9.110
  655POPC   C1A10983  37.923   5.153   8.761
  655POPC   D2A10984  37.628   5.137   8.437
  655POPC   C3A10985  37.769   4.993   8.036
  655POPC   C4A10986  38.023   5.310   7.878
  655POPC   C1B10987  37.466   4.831   8.830
  655POPC   C2B10988  37.275   4.763   8.399
  655POPC   C3B10989  37.281   5.118   8.066
  655POPC   C4B10990  37.348   4.899   7.688
  656POPC   NC310991  35.236  21.204   9.542
  656POPC   PO410992  34.950  21.759   9.509
  656POPC   GL110993  35.292  21.551   9.141
  656POPC   GL210994  35.393  21.177   9.076
  656POPC   C1A10995  35.567  21.488   8.734
  656POPC   D2A10996  35.486  21.202   8.391
  656POPC   C3A10997  35.597  21.416   8.039
  656POPC   C4A10998  35.792  21.423   7.672
  656POPC   C1B10999  35.095  21.308   8.757
  656POPC   C2B11000  34.947  21.309   8.389
  656POPC   C3B11001  35.089  21.315   8.015
  656POPC   C4B11002  35.262  21.455   7.664
  657POPC   NC311003  33.617  28.290   9.535
  657POPC   PO411004  34.254  28.225   9.523
  657POPC   GL111005  33.978  28.390   9.151
  657POPC   GL211006  33.604  28.394   9.047
  657POPC   C1A11007  33.929  28.610   8.732
  657POPC   D2A11008  33.716  28.746   8.359
  657POPC   C3A11009  33.679  28.354   8.157
  657POPC   C4A11010  33.915  28.274   7.834
  657POPC   C1B11011  33.366  28.651   8.754
  657POPC   C2B11012  33.247  28.515   8.383
  657POPC   C3B11013  33.327  28.673   7.987
  657POPC   C4B11014  33.463  28.442   7.674
  658POPC   NC311015  14.006  31.906   9.402
  658POPC   PO411016  14.689  32.195   9.516
  658POPC   GL111017  14.512  32.080   9.128
  658POPC   GL211018  14.828  31.908   9.075
  658POPC   C1A11019  14.307  32.248   8.739
  658POPC   D2A11020  14.414  32.486   8.381
  658POPC   C3A11021  14.260  32.302   8.025
  658POPC   C4A11022  14.417  32.347   7.626
  658POPC   C1B11023  14.751  32.025   8.632
  658POPC   C2B11024  14.870  32.064   8.190
  658POPC   C3B11025  14.844  32.068   7.727
  658POPC   C4B11026  14.881  32.162   7.258
  659POPC   NC311027  26.171  36.405   9.315
  659POPC   PO411028  25.833  37.024   9.465
  659POPC   GL111029  25.968  36.827   9.135
  659POPC   GL211030  26.212  37.047   9.058
  659POPC   C1A11031  26.089  36.674   8.726
  659POPC   D2A11032  26.251  36.781   8.341
  659POPC   C3A11033  26.063  36.694   7.925
  659POPC   C4A11034  26.130  36.698   7.484
  659POPC   C1B11035  25.911  37.190   8.799
  659POPC   C2B11036  25.827  37.290   8.440
  659POPC   C3B11037  25.908  37.166   8.073
  659POPC   C4B11038  25.722  37.178   7.709
  660POPC   NC311039  43.682  18.979   9.419
  660POPC   PO411040  44.417  19.210   9.376
  660POPC   GL111041  44.104  18.970   9.040
  660POPC   GL211042  43.779  18.719   9.013
  660POPC   C1A11043  43.787  19.128   8.701
  660POPC   D2A11044  43.653  19.406   8.344
  660POPC   C3A11045  43.878  19.122   8.048
  660POPC   C4A11046  43.832  18.959   7.646
  660POPC   C1B11047  43.650  18.595   8.634
  660POPC   C2B11048  43.832  18.615   8.215
  660POPC   C3B11049  43.516  18.651   7.867
  660POPC   C4B11050  43.479  18.670   7.403
  661POPC   NC311051   6.284  26.071   9.592
  661POPC   PO411052   5.649  26.096   9.585
  661POPC   GL111053   5.965  26.088   9.207
  661POPC   GL211054   6.268  26.308   9.156
  661POPC   C1A11055   5.880  26.117   8.786
  661POPC   D2A11056   5.701  25.867   8.468
  661POPC   C3A11057   5.830  26.048   8.071
  661POPC   C4A11058   5.643  26.139   7.691
  661POPC   C1B11059   6.173  26.540   8.798
  661POPC   C2B11060   6.015  26.477   8.392
  661POPC   C3B11061   6.276  26.355   8.036
  661POPC   C4B11062   6.162  26.148   7.653
  662POPC   NC311063  32.978  39.226   9.513
  662POPC   PO411064  33.607  39.039   9.476
  662POPC   GL111065  33.791  39.146   9.095
  662POPC   GL211066  34.018  38.893   9.036
  662POPC   C1A11067  33.903  39.295   8.693
  662POPC   D2A11068  33.754  39.154   8.308
  662POPC   C3A11069  33.909  39.244   7.909
  662POPC   C4A11070  33.923  39.489   7.544
  662POPC   C1B11071  34.290  38.931   8.722
  662POPC   C2B11072  34.298  39.168   8.363
  662POPC   C3B11073  34.339  38.974   7.989
  662POPC   C4B11074  34.166  38.941   7.583
  663POPC   NC311075  39.747  12.158   9.579
  663POPC   PO411076  40.393  12.117   9.589
  663POPC   GL111077  40.165  11.948   9.265
  663POPC   GL211078  40.264  12.238   9.099
  663POPC   C1A11079  39.813  11.881   8.965
  663POPC   D2A11080  39.697  12.000   8.538
  663POPC   C3A11081  39.830  11.832   8.148
  663POPC   C4A11082  40.031  12.014   7.806
  663POPC   C1B11083  40.271  11.978   8.740
  663POPC   C2B11084  40.251  12.125   8.325
  663POPC   C3B11085  40.469  12.264   7.968
  663POPC   C4B11086  40.520  12.012   7.646
  664POPC   NC311087  37.980  28.874   9.528
  664POPC   PO411088  37.453  29.329   9.470
  664POPC   GL111089  37.795  29.215   9.178
  664POPC   GL211090  37.818  28.895   9.050
  664POPC   C1A11091  37.768  29.283   8.730
  664POPC   D2A11092  37.507  29.157   8.393
  664POPC   C3A11093  37.688  29.308   8.033
  664POPC   C4A11094  37.593  29.204   7.625
  664POPC   C1B11095  37.552  28.752   8.729
  664POPC   C2B11096  37.419  28.639   8.323
  664POPC   C3B11097  37.571  28.826   7.977
  664POPC   C4B11098  37.865  28.773   7.657
  665POPC   NC311099   5.435   0.525   9.611
  665POPC   PO411100   4.779   0.287   9.666
  665POPC   GL111101   4.946   0.434   9.256
  665POPC   GL211102   5.266   0.566   9.143
  665POPC   C1A11103   5.043   0.177   8.879
  665POPC   D2A11104   4.899   0.233   8.458
  665POPC   C3A11105   5.074   0.339   8.043
  665POPC   C4A11106   4.859   0.453   7.660
  665POPC   C1B11107   5.063   0.655   8.752
  665POPC   C2B11108   5.318   0.595   8.408
  665POPC   C3B11109   5.380   0.753   7.991
  665POPC   C4B11110   5.135   0.868   7.662
  666POPC   NC311111  33.342   8.565   9.293
  666POPC   PO411112  32.934   8.828   9.782
  666POPC   GL111113  32.969   8.959   9.296
  666POPC   GL211114  32.800   9.246   9.149
  666POPC   C1A11115  32.984   8.916   8.788
  666POPC   D2A11116  33.093   9.091   8.336
  666POPC   C3A11117  33.108   8.839   7.928
  666POPC   C4A11118  33.489   8.641   7.745
  666POPC   C1B11119  32.559   9.209   8.772
  666POPC   C2B11120  32.597   8.984   8.369
  666POPC   C3B11121  32.649   9.074   7.918
  666POPC   C4B11122  32.845   9.128   7.467
  667POPC   NC311123  34.018   3.812   9.690
  667POPC   PO411124  33.773   3.311   9.380
  667POPC   GL111125  33.718   3.629   9.093
  667POPC   GL211126  33.452   3.620   8.955
  667POPC   C1A11127  33.857   3.560   8.650
  667POPC   D2A11128  33.713   3.762   8.290
  667POPC   C3A11129  33.829   3.603   7.894
  667POPC   C4A11130  33.544   3.716   7.627
  667POPC   C1B11131  33.551   3.190   8.807
  667POPC   C2B11132  33.580   3.161   8.399
  667POPC   C3B11133  33.427   3.352   8.058
  667POPC   C4B11134  33.505   3.200   7.655
  668POPC   NC311135   4.349  27.961   9.391
  668POPC   PO411136   4.327  28.661   9.535
  668POPC   GL111137   4.178  28.452   9.138
  668POPC   GL211138   4.373  28.183   8.934
  668POPC   C1A11139   4.207  28.610   8.710
  668POPC   D2A11140   4.165  28.458   8.293
  668POPC   C3A11141   4.179  28.520   7.830
  668POPC   C4A11142   4.351  28.263   7.440
  668POPC   C1B11143   3.946  28.071   8.839
  668POPC   C2B11144   3.907  27.926   8.425
  668POPC   C3B11145   3.952  28.082   8.042
  668POPC   C4B11146   4.021  27.934   7.687
  669POPC   NC311147  34.293  11.876   9.375
  669POPC   PO411148  33.632  11.814   9.555
  669POPC   GL111149  33.534  11.947   9.144
  669POPC   GL211150  33.854  12.083   9.084
  669POPC   C1A11151  33.598  11.852   8.698
  669POPC   D2A11152  33.853  12.019   8.385
  669POPC   C3A11153  33.633  12.072   8.034
  669POPC   C4A11154  33.842  12.065   7.697
  669POPC   C1B11155  33.943  12.361   8.749
  669POPC   C2B11156  34.160  12.467   8.352
  669POPC   C3B11157  34.005  12.483   7.949
  669POPC   C4B11158  33.901  12.705   7.591
  670POPC   NC311159  12.137  25.399   9.599
  670POPC   PO411160  11.755  24.887   9.460
  670POPC   GL111161  11.997  25.105   9.115
  670POPC   GL211162  12.197  25.431   9.073
  670POPC   C1A11163  11.922  25.211   8.692
  670POPC   D2A11164  11.933  25.578   8.461
  670POPC   C3A11165  12.052  25.423   8.078
  670POPC   C4A11166  12.000  25.094   7.771
  670POPC   C1B11167  12.419  25.117   8.803
  670POPC   C2B11168  12.441  25.036   8.347
  670POPC   C3B11169  12.488  25.210   7.904
  670POPC   C4B11170  12.414  25.296   7.455
  671POPC   NC311171   0.503  13.837   9.334
  671POPC   PO411172   0.000  13.504   9.624
  671POPC   GL111173   0.164  13.496   9.137
  671POPC   GL211174   0.449  13.716   8.872
  671POPC   C1A11175   0.145  13.372   8.696
  671POPC   D2A11176   0.342  13.617   8.382
  671POPC   C3A11177   0.294  13.569   7.968
  671POPC   C4A11178   0.648  13.737   7.740
  671POPC   C1B11179   0.131  13.951   8.690
  671POPC   C2B11180   0.013  14.219   8.403
  671POPC   C3B11181   0.018  14.017   8.028
  671POPC   C4B11182   0.041  13.824   7.599
  672POPC   NC311183  15.995  25.381   9.609
  672POPC   PO411184  15.317  25.300   9.605
  672POPC   GL111185  15.686  25.271   9.200
  672POPC   GL211186  16.024  25.437   9.119
  672POPC   C1A11187  15.909  25.109   8.774
  672POPC   D2A11188  15.990  25.312   8.379
  672POPC   C3A11189  15.965  24.997   7.990
  672POPC   C4A11190  15.934  25.043   7.528
  672POPC   C1B11191  16.371  25.363   8.824
  672POPC   C2B11192  16.469  25.472   8.428
  672POPC   C3B11193  16.355  25.313   8.032
  672POPC   C4B11194  16.408  25.231   7.618
  673POPC   NC311195  38.222   1.637   9.596
  673POPC   PO411196  38.548   1.051   9.644
  673POPC   GL111197  38.488   1.295   9.252
  673POPC   GL211198  38.712   1.025   9.126
  673POPC   C1A11199  38.305   1.436   8.829
  673POPC   D2A11200  38.136   1.286   8.417
  673POPC   C3A11201  38.332   1.445   8.046
  673POPC   C4A11202  38.500   1.460   7.654
  673POPC   C1B11203  38.470   0.961   8.762
  673POPC   C2B11204  38.552   0.843   8.340
  673POPC   C3B11205  38.487   0.972   7.910
  673POPC   C4B11206  38.707   1.028   7.529
  674POPC   NC311207  15.302   7.224   9.448
  674POPC   PO411208  14.905   7.802   9.492
  674POPC   GL111209  15.035   7.606   9.136
  674POPC   GL211210  15.414   7.602   9.086
  674POPC   C1A11211  15.111   7.268   8.833
  674POPC   D2A11212  15.275   7.262   8.425
  674POPC   C3A11213  15.032   7.069   8.092
  674POPC   C4A11214  15.261   7.194   7.750
  674POPC   C1B11215  15.251   7.739   8.706
  674POPC   C2B11216  14.922   7.633   8.434
  674POPC   C3B11217  15.022   7.587   8.025
  674POPC   C4B11218  15.088   7.766   7.640
  675POPC   NC311219   2.635  33.602   9.398
  675POPC   PO411220   3.281  33.536   9.289
  675POPC   GL111221   2.979  33.581   9.004
  675POPC   GL211222   2.840  33.896   9.013
  675POPC   C1A11223   2.986  33.570   8.570
  675POPC   D2A11224   3.296  33.623   8.281
  675POPC   C3A11225   3.027  33.549   7.946
  675POPC   C4A11226   2.587  33.549   7.810
  675POPC   C1B11227   2.597  33.910   8.647
  675POPC   C2B11228   2.717  33.884   8.205
  675POPC   C3B11229   2.460  34.037   7.880
  675POPC   C4B11230   2.340  33.909   7.511
  676POPC   NC311231  41.812  27.409   9.472
  676POPC   PO411232  41.440  27.944   9.580
  676POPC   GL111233  41.543  27.746   9.193
  676POPC   GL211234  41.872  27.761   9.105
  676POPC   C1A11235  41.525  27.456   8.835
  676POPC   D2A11236  41.222  27.363   8.559
  676POPC   C3A11237  41.226  27.563   8.209
  676POPC   C4A11238  41.409  27.607   7.834
  676POPC   C1B11239  41.724  27.895   8.717
  676POPC   C2B11240  41.712  27.694   8.346
  676POPC   C3B11241  41.758  27.919   7.976
  676POPC   C4B11242  41.835  27.942   7.512
  677POPC   NC311243  25.652  21.934   9.506
  677POPC   PO411244  26.204  22.166   9.660
  677POPC   GL111245  26.091  22.056   9.230
  677POPC   GL211246  26.078  22.398   9.099
  677POPC   C1A11247  26.172  21.927   8.796
  677POPC   D2A11248  25.965  21.958   8.403
  677POPC   C3A11249  26.189  21.905   8.017
  677POPC   C4A11250  26.116  21.999   7.570
  677POPC   C1B11251  26.064  22.434   8.641
  677POPC   C2B11252  26.150  22.552   8.219
  677POPC   C3B11253  26.235  22.411   7.821
  677POPC   C4B11254  26.213  22.477   7.341
  678POPC   NC311255  32.941  30.313   9.335
  678POPC   PO411256  33.595  30.481   9.612
  678POPC   GL111257  33.366  30.554   9.211
  678POPC   GL211258  33.236  30.893   9.102
  678POPC   C1A11259  33.339  30.355   8.781
  678POPC   D2A11260  33.119  30.439   8.362
  678POPC   C3A11261  33.265  30.236   7.949
  678POPC   C4A11262  33.315  30.272   7.442
  678POPC   C1B11263  32.927  30.711   8.802
  678POPC   C2B11264  32.666  30.769   8.432
  678POPC   C3B11265  32.961  30.877   8.121
  678POPC   C4B11266  33.179  30.697   7.780
  679POPC   NC311267  15.627  30.185   9.456
  679POPC   PO411268  15.939  29.604   9.530
  679POPC   GL111269  16.000  29.859   9.133
  679POPC   GL211270  16.128  30.194   9.191
  679POPC   C1A11271  16.227  29.834   8.728
  679POPC   D2A11272  16.086  29.918   8.320
  679POPC   C3A11273  16.215  29.680   7.980
  679POPC   C4A11274  15.974  29.923   7.767
  679POPC   C1B11275  15.991  30.284   8.749
  679POPC   C2B11276  15.770  30.351   8.364
  679POPC   C3B11277  15.570  30.172   8.020
  679POPC   C4B11278  15.598  30.215   7.596
  680POPC   NC311279  22.216  20.055   9.562
  680POPC   PO411280  22.044  19.554   9.191
  680POPC   GL111281  22.291  19.901   9.069
  680POPC   GL211282  21.987  20.142   9.105
  680POPC   C1A11283  22.396  19.774   8.655
  680POPC   D2A11284  22.179  19.688   8.267
  680POPC   C3A11285  22.283  19.835   7.870
  680POPC   C4A11286  21.997  19.806   7.506
  680POPC   C1B11287  22.195  20.254   8.710
  680POPC   C2B11288  22.348  20.183   8.318
  680POPC   C3B11289  22.160  20.321   7.956
  680POPC   C4B11290  22.266  20.224   7.550
  681POPC   NC311291  37.310  22.715   9.442
  681POPC   PO411292  37.997  22.939   9.485
  681POPC   GL111293  37.755  22.888   9.108
  681POPC   GL211294  37.411  23.038   9.081
  681POPC   C1A11295  37.683  22.837   8.659
  681POPC   D2A11296  37.607  22.595   8.276
  681POPC   C3A11297  37.962  22.572   7.976
  681POPC   C4A11298  38.071  22.970   7.785
  681POPC   C1B11299  37.264  23.163   8.694
  681POPC   C2B11300  37.537  23.235   8.349
  681POPC   C3B11301  37.519  23.065   7.962
  681POPC   C4B11302  37.212  23.129   7.642
  682POPC   NC311303  35.809  11.868   9.526
  682POPC   PO411304  36.201  12.353   9.501
  682POPC   GL111305  36.128  12.074   9.176
  682POPC   GL211306  36.374  11.843   9.123
  682POPC   C1A11307  35.914  11.849   8.848
  682POPC   D2A11308  35.825  11.773   8.404
  682POPC   C3A11309  35.877  12.038   8.044
  682POPC   C4A11310  36.045  11.931   7.660
  682POPC   C1B11311  36.428  11.997   8.745
  682POPC   C2B11312  36.260  12.078   8.384
  682POPC   C3B11313  36.403  11.984   7.998
  682POPC   C4B11314  36.457  12.229   7.638
  683POPC   NC311315  44.070  21.077   9.497
  683POPC   PO411316  44.139  20.468   9.675
  683POPC   GL111317  44.123  20.534   9.228
  683POPC   GL211318  43.799  20.721   9.227
  683POPC   C1A11319  44.018  20.495   8.776
  683POPC   D2A11320  43.640  20.432   8.510
  683POPC   C3A11321  43.597  20.404   8.042
  683POPC   C4A11322  43.941  20.532   7.741
  683POPC   C1B11323  43.626  20.862   8.835
  683POPC   C2B11324  43.574  20.980   8.398
  683POPC   C3B11325  43.663  20.917   7.945
  683POPC   C4B11326  43.710  21.087   7.538
  684POPC   NC311327  20.840  38.055   9.542
  684POPC   PO411328  20.732  37.351   9.583
  684POPC   GL111329  20.703  37.560   9.174
  684POPC   GL211330  20.601  37.894   9.115
  684POPC   C1A11331  20.771  37.409   8.745
  684POPC   D2A11332  20.905  37.579   8.333
  684POPC   C3A11333  20.607  37.744   8.039
  684POPC   C4A11334  20.642  37.664   7.589
  684POPC   C1B11335  20.830  37.916   8.727
  684POPC   C2B11336  20.894  38.100   8.294
  684POPC   C3B11337  20.843  38.105   7.786
  684POPC   C4B11338  21.007  37.914   7.338
  685POPC   NC311339  36.795   8.581   9.508
  685POPC   PO411340  36.814   7.897   9.379
  685POPC   GL111341  36.811   8.061   8.990
  685POPC   GL211342  36.903   8.400   9.049
  685POPC   C1A11343  36.585   8.313   8.679
  685POPC   D2A11344  36.653   8.449   8.286
  685POPC   C3A11345  36.975   8.215   8.085
  685POPC   C4A11346  36.968   8.008   7.692
  685POPC   C1B11347  37.097   8.399   8.610
  685POPC   C2B11348  37.306   8.577   8.228
  685POPC   C3B11349  37.233   8.535   7.764
  685POPC   C4B11350  37.412   8.614   7.348
  686POPC   NC311351  37.109  16.692   9.375
  686POPC   PO411352  37.814  16.686   9.531
  686POPC   GL111353  37.631  16.742   9.112
  686POPC   GL211354  37.399  17.021   9.140
  686POPC   C1A11355  37.459  16.642   8.680
  686POPC   D2A11356  37.171  16.404   8.382
  686POPC   C3A11357  37.339  16.436   7.964
  686POPC   C4A11358  37.681  16.594   7.725
  686POPC   C1B11359  37.544  17.136   8.747
  686POPC   C2B11360  37.446  17.260   8.339
  686POPC   C3B11361  37.478  16.925   8.090
  686POPC   C4B11362  37.342  16.953   7.680
  687POPC   NC311363  12.493  44.813   9.343
  687POPC   PO411364  13.038  44.884   9.825
  687POPC   GL111365  12.983  44.731   9.358
  687POPC   GL211366  12.764  44.418   9.191
  687POPC   C1A11367  13.039  44.829   8.881
  687POPC   D2A11368  13.057  44.579   8.479
  687POPC   C3A11369  13.168  44.670   8.042
  687POPC   C4A11370  12.959  44.892   7.729
  687POPC   C1B11371  12.635  44.442   8.751
  687POPC   C2B11372  12.642  44.306   8.309
  687POPC   C3B11373  12.759  44.395   7.853
  687POPC   C4B11374  12.668  44.536   7.390
  688POPC   NC311375  34.455  13.758   9.506
  688POPC   PO411376  34.906  13.250   9.511
  688POPC   GL111377  34.633  13.392   9.152
  688POPC   GL211378  34.331  13.599   9.054
  688POPC   C1A11379  34.743  13.586   8.766
  688POPC   D2A11380  34.766  13.427   8.390
  688POPC   C3A11381  34.955  13.631   8.058
  688POPC   C4A11382  34.666  13.666   7.735
  688POPC   C1B11383  34.113  13.463   8.711
  688POPC   C2B11384  34.251  13.482   8.284
  688POPC   C3B11385  34.109  13.573   7.883
  688POPC   C4B11386  34.206  13.631   7.494
  689POPC   NC311387   6.442   1.033   9.404
  689POPC   PO411388   6.920   1.558   9.454
  689POPC   GL111389   6.775   1.316   9.081
  689POPC   GL211390   6.396   1.214   8.955
  689POPC   C1A11391   6.703   1.465   8.682
  689POPC   D2A11392   6.526   1.262   8.394
  689POPC   C3A11393   6.679   1.373   8.055
  689POPC   C4A11394   6.833   1.344   7.700
  689POPC   C1B11395   6.612   0.890   8.739
  689POPC   C2B11396   6.386   0.741   8.386
  689POPC   C3B11397   6.382   0.943   7.996
  689POPC   C4B11398   6.686   0.865   7.666
  690POPC   NC311399  41.407  31.666   9.737
  690POPC   PO411400  41.766  31.070   9.557
  690POPC   GL111401  41.692  31.306   9.170
  690POPC   GL211402  41.422  31.532   9.246
  690POPC   C1A11403  41.892  31.307   8.761
  690POPC   D2A11404  41.765  31.186   8.349
  690POPC   C3A11405  41.794  31.467   7.992
  690POPC   C4A11406  41.716  31.445   7.536
  690POPC   C1B11407  41.396  31.598   8.820
  690POPC   C2B11408  41.303  31.431   8.413
  690POPC   C3B11409  41.274  31.472   7.969
  690POPC   C4B11410  41.042  31.787   7.724
  691POPC   NC311411  25.845  28.828   9.247
  691POPC   PO411412  26.284  28.447   9.628
  691POPC   GL111413  26.165  28.294   9.153
  691POPC   GL211414  26.025  28.512   8.915
  691POPC   C1A11415  26.391  28.194   8.736
  691POPC   D2A11416  26.477  28.389   8.334
  691POPC   C3A11417  26.249  28.313   7.953
  691POPC   C4A11418  26.055  28.637   7.720
  691POPC   C1B11419  25.889  28.114   8.769
  691POPC   C2B11420  25.957  28.236   8.378
  691POPC   C3B11421  25.741  28.356   8.018
  691POPC   C4B11422  25.827  28.147   7.655
  692POPC   NC311423   3.763  43.387   9.215
  692POPC   PO411424   3.332  43.712   9.674
  692POPC   GL111425   3.482  43.944   9.225
  692POPC   GL211426   3.822  43.883   9.079
  692POPC   C1A11427   3.441  44.079   8.784
  692POPC   D2A11428   3.732  44.122   8.414
  692POPC   C3A11429   3.594  43.872   8.078
  692POPC   C4A11430   3.568  43.939   7.644
  692POPC   C1B11431   3.750  43.661   8.645
  692POPC   C2B11432   3.939  43.491   8.276
  692POPC   C3B11433   3.842  43.474   7.819
  692POPC   C4B11434   3.993  43.716   7.476
  693POPC   NC311435  20.498  22.555   9.478
  693POPC   PO411436  20.787  23.208   9.382
  693POPC   GL111437  20.545  22.944   9.139
  693POPC   GL211438  20.734  22.663   9.049
  693POPC   C1A11439  20.372  22.939   8.744
  693POPC   D2A11440  20.524  23.181   8.407
  693POPC   C3A11441  20.467  23.050   8.001
  693POPC   C4A11442  20.631  23.074   7.607
  693POPC   C1B11443  20.620  22.487   8.677
  693POPC   C2B11444  20.552  22.625   8.257
  693POPC   C3B11445  20.665  22.590   7.815
  693POPC   C4B11446  20.805  22.418   7.405
  694POPC   NC311447   3.306  20.091   9.389
  694POPC   PO411448   3.462  20.765   9.529
  694POPC   GL111449   3.459  20.569   9.145
  694POPC   GL211450   3.717  20.274   9.111
  694POPC   C1A11451   3.468  20.741   8.718
  694POPC   D2A11452   3.787  20.664   8.391
  694POPC   C3A11453   3.623  20.430   8.065
  694POPC   C4A11454   3.685  20.459   7.643
  694POPC   C1B11455   3.398  20.228   8.774
  694POPC   C2B11456   3.119  20.374   8.492
  694POPC   C3B11457   3.038  20.141   8.137
  694POPC   C4B11458   3.300  20.146   7.751
  695POPC   NC311459  28.131  35.299   9.563
  695POPC   PO411460  28.828  35.095   9.521
  695POPC   GL111461  28.462  35.160   9.194
  695POPC   GL211462  28.157  35.431   9.079
  695POPC   C1A11463  28.378  35.106   8.754
  695POPC   D2A11464  28.312  34.917   8.374
  695POPC   C3A11465  28.566  35.028   8.060
  695POPC   C4A11466  28.447  35.307   7.756
  695POPC   C1B11467  28.339  35.622   8.701
  695POPC   C2B11468  28.350  35.460   8.275
  695POPC   C3B11469  28.051  35.541   7.936
  695POPC   C4B11470  28.162  35.826   7.610
  696POPC   NC311471  15.403  24.860   9.899
  696POPC   PO411472  14.909  24.997   9.397
  696POPC   GL111473  14.820  25.358   9.131
  696POPC   GL211474  15.180  25.413   9.124
  696POPC   C1A11475  14.922  25.344   8.695
  696POPC   D2A11476  15.070  25.016   8.420
  696POPC   C3A11477  15.111  25.145   7.983
  696POPC   C4A11478  15.076  25.098   7.520
  696POPC   C1B11479  15.412  25.213   8.756
  696POPC   C2B11480  15.561  25.061   8.353
  696POPC   C3B11481  15.604  25.334   8.042
  696POPC   C4B11482  15.506  25.308   7.659
  697POPC   NC311483   9.974  12.773   9.443
  697POPC   PO411484   9.367  12.958   9.713
  697POPC   GL111485   9.476  12.855   9.234
  697POPC   GL211486   9.756  12.625   9.019
  697POPC   C1A11487   9.404  12.892   8.770
  697POPC   D2A11488   9.718  12.778   8.425
  697POPC   C3A11489   9.834  12.820   7.961
  697POPC   C4A11490  10.085  13.179   7.783
  697POPC   C1B11491  10.120  12.612   8.714
  697POPC   C2B11492  10.114  12.394   8.289
  697POPC   C3B11493  10.187  12.409   7.837
  697POPC   C4B11494   9.960  12.582   7.476
  698POPC   NC311495  19.504  13.515   9.432
  698POPC   PO411496  20.059  13.858   9.641
  698POPC   GL111497  19.893  13.758   9.224
  698POPC   GL211498  19.592  13.887   9.096
  698POPC   C1A11499  19.908  13.597   8.807
  698POPC   D2A11500  19.978  13.747   8.410
  698POPC   C3A11501  20.116  13.503   8.121
  698POPC   C4A11502  19.929  13.537   7.741
  698POPC   C1B11503  19.411  13.708   8.727
  698POPC   C2B11504  19.482  13.762   8.300
  698POPC   C3B11505  19.422  13.563   7.914
  698POPC   C4B11506  19.416  13.793   7.530
  699POPC   NC311507  38.310  12.604   9.461
  699POPC   PO411508  38.636  13.202   9.419
  699POPC   GL111509  38.516  12.903   9.095
  699POPC   GL211510  38.740  12.644   9.159
  699POPC   C1A11511  38.265  12.708   8.743
  699POPC   D2A11512  38.203  12.549   8.289
  699POPC   C3A11513  38.212  12.864   7.950
  699POPC   C4A11514  38.388  12.847   7.523
  699POPC   C1B11515  38.959  12.477   8.815
  699POPC   C2B11516  39.017  12.589   8.358
  699POPC   C3B11517  38.718  12.694   8.014
  699POPC   C4B11518  38.829  12.616   7.566
  700POPC   NC311519  34.255  27.608   9.592
  700POPC   PO411520  33.625  27.868   9.747
  700POPC   GL111521  33.625  27.715   9.256
  700POPC   GL211522  33.904  27.481   9.150
  700POPC   C1A11523  33.454  27.756   8.800
  700POPC   D2A11524  33.540  27.615   8.378
  700POPC   C3A11525  33.627  27.836   7.969
  700POPC   C4A11526  33.989  27.808   7.670
  700POPC   C1B11527  33.655  27.282   8.800
  700POPC   C2B11528  33.781  27.144   8.396
  700POPC   C3B11529  33.994  27.177   8.052
  700POPC   C4B11530  33.770  27.353   7.771
  701POPC   NC311531  18.437  43.644   9.631
  701POPC   PO411532  18.191  44.207   9.390
  701POPC   GL111533  18.163  43.832   9.138
  701POPC   GL211534  18.494  43.842   9.133
  701POPC   C1A11535  18.194  43.820   8.679
  701POPC   D2A11536  18.226  44.078   8.333
  701POPC   C3A11537  18.351  43.915   7.939
  701POPC   C4A11538  18.524  44.160   7.649
  701POPC   C1B11539  18.700  43.832   8.751
  701POPC   C2B11540  18.638  43.774   8.342
  701POPC   C3B11541  18.513  43.441   8.086
  701POPC   C4B11542  18.149  43.434   7.822
  702POPC   NC311543  33.937  30.245   9.385
  702POPC   PO411544  33.460  29.766   9.537
  702POPC   GL111545  33.710  29.736   9.133
  702POPC   GL211546  33.896  29.402   9.101
  702POPC   C1A11547  33.792  30.017   8.749
  702POPC   D2A11548  33.588  30.148   8.362
  702POPC   C3A11549  33.609  29.851   8.012
  702POPC   C4A11550  33.336  29.817   7.648
  702POPC   C1B11551  34.082  29.568   8.740
  702POPC   C2B11552  34.056  29.795   8.342
  702POPC   C3B11553  34.258  29.758   7.965
  702POPC   C4B11554  34.102  29.635   7.598
  703POPC   NC311555  18.788  23.082   9.525
  703POPC   PO411556  19.290  22.620   9.393
  703POPC   GL111557  19.066  22.828   9.068
  703POPC   GL211558  19.098  23.158   9.140
  703POPC   C1A11559  18.767  22.722   8.723
  703POPC   D2A11560  18.716  22.618   8.317
  703POPC   C3A11561  19.115  22.600   8.124
  703POPC   C4A11562  19.229  22.841   7.823
  703POPC   C1B11563  18.940  23.231   8.762
  703POPC   C2B11564  19.082  23.058   8.388
  703POPC   C3B11565  19.272  23.307   8.027
  703POPC   C4B11566  19.363  23.259   7.553
  704POPC   NC311567   0.119   6.203   9.526
  704POPC   PO411568   0.493   5.678   9.569
  704POPC   GL111569   0.523   5.794   9.133
  704POPC   GL211570   0.399   5.450   9.088
  704POPC   C1A11571   0.480   6.086   8.749
  704POPC   D2A11572   0.418   6.326   8.346
  704POPC   C3A11573   0.423   6.096   7.974
  704POPC   C4A11574   0.075   5.871   7.842
  704POPC   C1B11575   0.521   5.547   8.671
  704POPC   C2B11576   0.333   5.617   8.281
  704POPC   C3B11577   0.521   5.607   7.883
  704POPC   C4B11578   0.390   5.541   7.471
  705POPC   NC311579  28.566   9.048   9.417
  705POPC   PO411580  27.916   8.757   9.320
  705POPC   GL111581  28.185   8.995   9.048
  705POPC   GL211582  28.466   9.216   8.936
  705POPC   C1A11583  28.183   8.923   8.630
  705POPC   D2A11584  28.183   9.116   8.264
  705POPC   C3A11585  28.154   8.829   7.964
  705POPC   C4A11586  28.442   8.895   7.690
  705POPC   C1B11587  28.672   8.846   8.793
  705POPC   C2B11588  28.568   8.613   8.426
  705POPC   C3B11589  28.724   8.651   8.037
  705POPC   C4B11590  28.948   8.842   7.684
  706POPC   NC311591  31.073   5.686   9.498
  706POPC   PO411592  30.413   5.918   9.500
  706POPC   GL111593  30.679   5.793   9.169
  706POPC   GL211594  30.932   6.050   9.174
  706POPC   C1A11595  30.545   5.626   8.771
  706POPC   D2A11596  30.345   5.783   8.432
  706POPC   C3A11597  30.461   5.604   8.039
  706POPC   C4A11598  30.824   5.570   7.814
  706POPC   C1B11599  31.101   6.202   8.832
  706POPC   C2B11600  31.009   6.100   8.428
  706POPC   C3B11601  30.776   6.035   8.051
  706POPC   C4B11602  30.971   6.145   7.676
  707POPC   NC311603   9.965  40.999   9.522
  707POPC   PO411604   9.530  40.503   9.435
  707POPC   GL111605   9.717  40.759   9.140
  707POPC   GL211606   9.585  41.107   9.115
  707POPC   C1A11607   9.687  40.746   8.723
  707POPC   D2A11608   9.512  40.580   8.400
  707POPC   C3A11609   9.737  40.726   8.069
  707POPC   C4A11610   9.579  40.699   7.683
  707POPC   C1B11611   9.307  41.111   8.757
  707POPC   C2B11612   9.313  41.297   8.336
  707POPC   C3B11613   9.366  41.104   7.954
  707POPC   C4B11614   9.588  41.187   7.585
  708POPC   NC311615  10.730  21.737   9.511
  708POPC   PO411616  10.299  21.257   9.602
  708POPC   GL111617  10.399  21.189   9.186
  708POPC   GL211618  10.696  21.365   9.147
  708POPC   C1A11619  10.341  21.329   8.765
  708POPC   D2A11620  10.266  21.099   8.406
  708POPC   C3A11621  10.331  21.373   8.085
  708POPC   C4A11622  10.384  21.277   7.696
  708POPC   C1B11623  10.874  21.292   8.744
  708POPC   C2B11624  10.760  21.185   8.335
  708POPC   C3B11625  10.843  21.352   7.897
  708POPC   C4B11626  10.798  21.539   7.470
  709POPC   NC311627  44.890  44.936   9.485
  709POPC   PO411628  44.703  44.285   9.590
  709POPC   GL111629  44.520  44.564   9.270
  709POPC   GL211630  44.817  44.647   9.076
  709POPC   C1A11631  44.402  44.496   8.824
  709POPC   D2A11632  44.717  44.548   8.489
  709POPC   C3A11633  44.467  44.660   8.135
  709POPC   C4A11634  44.429  44.575   7.720
  709POPC   C1B11635  44.512  44.985   8.952
  709POPC   C2B11636  44.465  44.990   8.540
  709POPC   C3B11637  44.809   0.031   8.251
  709POPC   C4B11638  44.761  44.980   7.821
  710POPC   NC311639  29.648  28.237   9.652
  710POPC   PO411640  30.136  27.962   9.224
  710POPC   GL111641  30.044  28.328   9.082
  710POPC   GL211642  29.719  28.296   9.153
  710POPC   C1A11643  30.121  28.504   8.686
  710POPC   D2A11644  30.278  28.415   8.281
  710POPC   C3A11645  30.131  28.535   7.897
  710POPC   C4A11646  29.986  28.209   7.594
  710POPC   C1B11647  29.633  28.362   8.712
  710POPC   C2B11648  29.740  28.533   8.295
  710POPC   C3B11649  29.627  28.486   7.846
  710POPC   C4B11650  29.354  28.742   7.528
  711POPC   NC311651   1.701  11.530   9.372
  711POPC   PO411652   1.103  11.509   9.435
  711POPC   GL111653   1.121  11.322   9.049
  711POPC   GL211654   1.314  11.037   9.024
  711POPC   C1A11655   0.986  11.413   8.650
  711POPC   D2A11656   1.264  11.597   8.353
  711POPC   C3A11657   1.065  11.497   8.007
  711POPC   C4A11658   1.237  11.313   7.717
  711POPC   C1B11659   1.090  10.921   8.675
  711POPC   C2B11660   1.177  11.052   8.274
  711POPC   C3B11661   1.190  10.772   7.958
  711POPC   C4B11662   1.116  10.790   7.560
  712POPC   NC311663  23.355   3.638   9.746
  712POPC   PO411664  22.784   3.859   9.555
  712POPC   GL111665  22.889   3.785   9.153
  712POPC   GL211666  23.123   3.513   9.197
  712POPC   C1A11667  22.769   3.838   8.737
  712POPC   D2A11668  22.584   3.701   8.359
  712POPC   C3A11669  22.918   3.765   8.141
  712POPC   C4A11670  23.061   3.798   7.777
  712POPC   C1B11671  22.967   3.324   8.803
  712POPC   C2B11672  22.833   3.275   8.362
  712POPC   C3B11673  22.713   3.346   7.941
  712POPC   C4B11674  23.060   3.300   7.716
  713POPC   NC311675  11.533   3.184   9.427
  713POPC   PO411676  11.184   3.761   9.550
  713POPC   GL111677  11.161   3.509   9.182
  713POPC   GL211678  11.191   3.816   9.027
  713POPC   C1A11679  10.986   3.389   8.757
  713POPC   D2A11680  11.080   3.593   8.334
  713POPC   C3A11681  11.042   3.409   7.928
  713POPC   C4A11682  11.263   3.280   7.545
  713POPC   C1B11683  11.408   3.651   8.720
  713POPC   C2B11684  11.617   3.699   8.392
  713POPC   C3B11685  11.464   3.838   8.015
  713POPC   C4B11686  11.276   3.787   7.633
  714POPC   NC311687   4.932  22.103   9.603
  714POPC   PO411688   5.356  22.564   9.770
  714POPC   GL111689   5.020  22.450   9.254
  714POPC   GL211690   5.038  22.013   9.122
  714POPC   C1A11691   4.743  22.257   8.844
  714POPC   D2A11692   4.835  22.031   8.438
  714POPC   C3A11693   4.842  22.249   8.048
  714POPC   C4A11694   4.994  22.441   7.682
  714POPC   C1B11695   5.284  22.006   8.734
  714POPC   C2B11696   5.372  22.073   8.304
  714POPC   C3B11697   5.316  22.116   7.866
  714POPC   C4B11698   5.254  22.095   7.371
  715POPC   NC311699  44.584   4.696   9.346
  715POPC   PO411700  44.740   5.377   9.508
  715POPC   GL111701  44.659   5.175   9.150
  715POPC   GL211702  44.955   4.960   9.116
  715POPC   C1A11703  44.713   5.177   8.709
  715POPC   D2A11704   0.048   5.145   8.435
  715POPC   C3A11705  44.831   4.960   8.101
  715POPC   C4A11706  44.632   5.217   7.828
  715POPC   C1B11707  44.965   4.702   8.707
  715POPC   C2B11708   0.048   4.508   8.271
  715POPC   C3B11709   0.062   4.582   7.833
  715POPC   C4B11710  44.757   4.800   7.575
  716POPC   NC311711  21.809  40.474   9.542
  716POPC   PO411712  22.257  40.952   9.467
  716POPC   GL111713  22.165  40.739   9.148
  716POPC   GL211714  21.841  40.855   9.141
  716POPC   C1A11715  22.417  40.799   8.802
  716POPC   D2A11716  22.395  41.012   8.444
  716POPC   C3A11717  22.453  40.750   8.052
  716POPC   C4A11718  22.383  40.635   7.629
  716POPC   C1B11719  21.927  40.904   8.722
  716POPC   C2B11720  21.999  40.707   8.327
  716POPC   C3B11721  21.970  40.844   7.912
  716POPC   C4B11722  21.844  41.092   7.576
  717POPC   NC311723  34.354   1.631   9.444
  717POPC   PO411724  34.708   1.055   9.505
  717POPC   GL111725  34.673   1.123   9.080
  717POPC   GL211726  34.588   1.467   9.018
  717POPC   C1A11727  34.501   1.002   8.736
  717POPC   D2A11728  34.299   1.171   8.427
  717POPC   C3A11729  34.415   1.000   8.073
  717POPC   C4A11730  34.220   1.105   7.724
  717POPC   C1B11731  34.759   1.532   8.610
  717POPC   C2B11732  34.681   1.433   8.175
  717POPC   C3B11733  34.635   1.403   7.747
  717POPC   C4B11734  34.833   1.217   7.388
  718POPC   NC311735  35.429   7.640   9.616
  718POPC   PO411736  35.404   6.902   9.547
  718POPC   GL111737  35.473   7.290   9.233
  718POPC   GL211738  35.635   7.631   9.153
  718POPC   C1A11739  35.402   7.333   8.787
  718POPC   D2A11740  35.367   7.009   8.476
  718POPC   C3A11741  35.343   7.205   8.094
  718POPC   C4A11742  35.476   7.451   7.794
  718POPC   C1B11743  35.636   7.831   8.749
  718POPC   C2B11744  35.494   7.673   8.328
  718POPC   C3B11745  35.666   7.888   7.955
  718POPC   C4B11746  35.786   7.808   7.532
  719POPC   NC311747  24.254  39.405   9.370
  719POPC   PO411748  23.540  39.234   9.350
  719POPC   GL111749  23.831  39.422   9.086
  719POPC   GL211750  24.043  39.126   9.012
  719POPC   C1A11751  23.731  39.543   8.670
  719POPC   D2A11752  23.727  39.300   8.308
  719POPC   C3A11753  23.409  39.361   8.016
  719POPC   C4A11754  23.216  39.013   7.815
  719POPC   C1B11755  24.175  39.116   8.592
  719POPC   C2B11756  24.031  38.898   8.226
  719POPC   C3B11757  23.775  39.012   7.875
  719POPC   C4B11758  23.891  39.446   7.815
  720POPC   NC311759  10.326  15.208   9.841
  720POPC   PO411760  10.507  15.031   9.257
  720POPC   GL111761  10.408  15.168   8.928
  720POPC   GL211762  10.072  15.290   9.021
  720POPC   C1A11763  10.285  15.093   8.517
  720POPC   D2A11764  10.203  14.994   8.115
  720POPC   C3A11765  10.631  14.980   8.006
  720POPC   C4A11766  10.674  14.950   7.598
  720POPC   C1B11767  10.270  15.576   8.683
  720POPC   C2B11768  10.338  15.792   8.300
  720POPC   C3B11769  10.503  15.522   7.995
  720POPC   C4B11770  10.311  15.287   7.716
  721POPC   NC311771  22.418  42.922   9.493
  721POPC   PO411772  21.864  43.296   9.582
  721POPC   GL111773  22.103  43.275   9.217
  721POPC   GL211774  22.029  42.939   9.135
  721POPC   C1A11775  22.240  43.250   8.786
  721POPC   D2A11776  22.293  43.408   8.375
  721POPC   C3A11777  22.186  43.079   8.091
  721POPC   C4A11778  22.116  43.005   7.685
  721POPC   C1B11779  21.812  42.921   8.761
  721POPC   C2B11780  21.853  42.720   8.382
  721POPC   C3B11781  21.730  42.718   7.990
  721POPC   C4B11782  21.639  42.813   7.589
  722POPC   NC311783  20.470  13.655   9.649
  722POPC   PO411784  20.950  13.450   9.468
  722POPC   GL111785  20.577  13.557   9.142
  722POPC   GL211786  20.373  13.883   9.125
  722POPC   C1A11787  20.415  13.587   8.687
  722POPC   D2A11788  20.483  13.836   8.292
  722POPC   C3A11789  20.590  13.613   7.920
  722POPC   C4A11790  20.834  13.487   7.573
  722POPC   C1B11791  20.260  14.081   8.690
  722POPC   C2B11792  20.112  14.210   8.244
  722POPC   C3B11793  20.201  13.957   7.867
  722POPC   C4B11794  20.357  13.730   7.489
  723POPC   NC311795   4.287  27.178   9.620
  723POPC   PO411796   4.005  27.716   9.585
  723POPC   GL111797   4.079  27.481   9.214
  723POPC   GL211798   4.458  27.416   9.174
  723POPC   C1A11799   4.195  27.628   8.805
  723POPC   D2A11800   4.400  27.707   8.473
  723POPC   C3A11801   4.312  27.695   8.051
  723POPC   C4A11802   4.523  27.832   7.683
  723POPC   C1B11803   4.526  27.227   8.730
  723POPC   C2B11804   4.469  27.233   8.270
  723POPC   C3B11805   4.637  27.342   7.861
  723POPC   C4B11806   4.292  27.358   7.574
  724POPC   NC311807  20.779  31.571   9.575
  724POPC   PO411808  21.520  31.504   9.474
  724POPC   GL111809  21.255  31.506   9.121
  724POPC   GL211810  21.472  31.251   9.014
  724POPC   C1A11811  21.327  31.684   8.720
  724POPC   D2A11812  21.069  31.868   8.426
  724POPC   C3A11813  21.139  31.787   8.009
  724POPC   C4A11814  21.189  31.457   7.791
  724POPC   C1B11815  21.243  31.171   8.653
  724POPC   C2B11816  21.388  31.402   8.282
  724POPC   C3B11817  21.649  31.359   7.923
  724POPC   C4B11818  21.438  31.015   7.680
  725POPC   NC311819  29.219  39.499   9.565
  725POPC   PO411820  29.097  38.953   9.253
  725POPC   GL111821  29.026  39.341   9.083
  725POPC   GL211822  29.361  39.451   9.050
  725POPC   C1A11823  28.995  39.275   8.656
  725POPC   D2A11824  29.082  38.856   8.426
  725POPC   C3A11825  28.961  38.920   7.991
  725POPC   C4A11826  28.950  39.304   7.737
  725POPC   C1B11827  29.465  39.097   8.754
  725POPC   C2B11828  29.419  39.219   8.345
  725POPC   C3B11829  29.409  39.221   7.927
  725POPC   C4B11830  29.417  39.079   7.522
  726POPC   NC311831  22.456  33.876   9.572
  726POPC   PO411832  21.843  33.579   9.539
  726POPC   GL111833  22.005  33.823   9.175
  726POPC   GL211834  22.240  34.104   9.146
  726POPC   C1A11835  22.162  33.806   8.749
  726POPC   D2A11836  22.030  33.808   8.365
  726POPC   C3A11837  22.237  33.805   7.987
  726POPC   C4A11838  22.215  33.811   7.513
  726POPC   C1B11839  22.550  34.131   8.798
  726POPC   C2B11840  22.561  33.973   8.354
  726POPC   C3B11841  22.542  34.184   7.903
  726POPC   C4B11842  22.634  34.113   7.481
  727POPC   NC311843  44.237   8.894   9.600
  727POPC   PO411844  43.603   9.218   9.653
  727POPC   GL111845  43.675   9.179   9.221
  727POPC   GL211846  43.827   8.851   9.222
  727POPC   C1A11847  43.881   9.261   8.826
  727POPC   D2A11848  44.173   9.152   8.494
  727POPC   C3A11849  44.044   9.334   8.090
  727POPC   C4A11850  44.102   9.239   7.649
  727POPC   C1B11851  43.721   8.771   8.772
  727POPC   C2B11852  43.731   8.950   8.344
  727POPC   C3B11853  43.896   8.866   7.935
  727POPC   C4B11854  43.802   8.868   7.482
  728POPC   NC311855  28.374   3.899   9.398
  728POPC   PO411856  28.615   3.279   9.449
  728POPC   GL111857  28.351   3.459   9.101
  728POPC   GL211858  28.447   3.748   8.918
  728POPC   C1A11859  28.319   3.321   8.669
  728POPC   D2A11860  28.659   3.367   8.360
  728POPC   C3A11861  28.543   3.352   7.941
  728POPC   C4A11862  28.181   3.333   7.708
  728POPC   C1B11863  28.026   3.784   8.778
  728POPC   C2B11864  28.015   3.854   8.361
  728POPC   C3B11865  28.278   3.772   8.029
  728POPC   C4B11866  28.155   3.836   7.633
  729POPC   NC311867  35.680  43.414   9.514
  729POPC   PO411868  35.188  42.955   9.591
  729POPC   GL111869  35.205  43.141   9.174
  729POPC   GL211870  35.554  43.086   9.122
  729POPC   C1A11871  35.244  43.099   8.707
  729POPC   D2A11872  35.296  43.276   8.303
  729POPC   C3A11873  35.136  42.989   7.976
  729POPC   C4A11874  35.235  42.649   7.747
  729POPC   C1B11875  35.687  43.314   8.751
  729POPC   C2B11876  35.796  43.186   8.352
  729POPC   C3B11877  35.644  43.168   7.930
  729POPC   C4B11878  35.597  42.960   7.520
  730POPC   NC311879  20.085  28.131   9.559
  730POPC   PO411880  20.101  28.721   9.394
  730POPC   GL111881  19.932  28.492   9.111
  730POPC   GL211882  19.735  28.187   9.186
  730POPC   C1A11883  20.122  28.451   8.722
  730POPC   D2A11884  19.940  28.534   8.337
  730POPC   C3A11885  20.061  28.535   7.936
  730POPC   C4A11886  20.073  28.190   7.675
  730POPC   C1B11887  19.646  28.274   8.761
  730POPC   C2B11888  19.557  28.124   8.389
  730POPC   C3B11889  19.577  28.330   8.036
  730POPC   C4B11890  19.550  28.143   7.685
  731POPC   NC311891   0.882  20.409   9.536
  731POPC   PO411892   1.533  20.412   9.449
  731POPC   GL111893   1.414  20.747   9.180
  731POPC   GL211894   1.056  20.861   9.282
  731POPC   C1A11895   1.489  20.724   8.725
  731POPC   D2A11896   1.199  20.739   8.352
  731POPC   C3A11897   1.359  20.702   7.926
  731POPC   C4A11898   1.440  20.536   7.492
  731POPC   C1B11899   0.994  20.818   8.846
  731POPC   C2B11900   0.724  20.679   8.535
  731POPC   C3B11901   0.800  20.415   8.172
  731POPC   C4B11902   0.876  20.605   7.792
  732POPC   NC311903  26.096  40.527   9.328
  732POPC   PO411904  25.548  40.856   9.659
  732POPC   GL111905  25.838  40.949   9.216
  732POPC   GL211906  25.800  40.670   8.921
  732POPC   C1A11907  26.113  41.032   8.814
  732POPC   D2A11908  25.956  40.899   8.406
  732POPC   C3A11909  26.082  40.949   7.980
  732POPC   C4A11910  26.353  41.064   7.678
  732POPC   C1B11911  26.121  40.484   8.680
  732POPC   C2B11912  26.346  40.495   8.325
  732POPC   C3B11913  26.459  40.610   7.938
  732POPC   C4B11914  26.144  40.596   7.608
  733POPC   NC311915  40.333  23.106   9.557
  733POPC   PO411916  40.939  23.298   9.728
  733POPC   GL111917  40.736  23.222   9.223
  733POPC   GL211918  40.459  22.976   9.102
  733POPC   C1A11919  40.839  22.986   8.764
  733POPC   D2A11920  41.074  23.107   8.386
  733POPC   C3A11921  40.942  22.922   8.002
  733POPC   C4A11922  40.664  22.584   7.772
  733POPC   C1B11923  40.351  22.837   8.684
  733POPC   C2B11924  40.544  23.052   8.342
  733POPC   C3B11925  40.539  23.302   7.967
  733POPC   C4B11926  40.679  23.075   7.602
  734POPC   NC311927  16.062  24.366   9.355
  734POPC   PO411928  15.754  24.905   9.572
  734POPC   GL111929  15.758  24.725   9.128
  734POPC   GL211930  16.046  24.650   8.932
  734POPC   C1A11931  15.604  24.697   8.703
  734POPC   D2A11932  15.885  24.632   8.377
  734POPC   C3A11933  15.810  24.485   7.970
  734POPC   C4A11934  15.627  24.632   7.582
  734POPC   C1B11935  16.274  24.414   8.620
  734POPC   C2B11936  16.169  24.148   8.247
  734POPC   C3B11937  16.201  24.150   7.757
  734POPC   C4B11938  16.310  24.148   7.281
  735POPC   NC311939  36.897  18.378   9.454
  735POPC   PO411940  36.904  17.775   9.174
  735POPC   GL111941  37.105  18.152   9.007
  735POPC   GL211942  37.317  18.464   9.178
  735POPC   C1A11943  36.909  18.266   8.611
  735POPC   D2A11944  36.929  18.250   8.161
  735POPC   C3A11945  36.714  18.382   7.823
  735POPC   C4A11946  36.737  17.956   7.710
  735POPC   C1B11947  37.295  18.577   8.761
  735POPC   C2B11948  37.154  18.681   8.346
  735POPC   C3B11949  37.245  18.562   7.916
  735POPC   C4B11950  37.071  18.636   7.523
  736POPC   NC311951  41.204   4.737   9.505
  736POPC   PO411952  41.114   4.071   9.397
  736POPC   GL111953  41.402   4.071   9.002
  736POPC   GL211954  41.789   4.085   9.067
  736POPC   C1A11955  41.449   4.132   8.571
  736POPC   D2A11956  41.624   4.424   8.268
  736POPC   C3A11957  41.387   4.397   7.901
  736POPC   C4A11958  41.615   4.510   7.562
  736POPC   C1B11959  41.938   4.229   8.662
  736POPC   C2B11960  41.971   4.035   8.255
  736POPC   C3B11961  41.809   4.097   7.848
  736POPC   C4B11962  41.733   4.036   7.412
  737POPC   NC311963  26.997  35.882   9.497
  737POPC   PO411964  26.268  35.966   9.450
  737POPC   GL111965  26.646  36.095   9.167
  737POPC   GL211966  26.826  36.423   9.287
  737POPC   C1A11967  26.945  35.933   8.821
  737POPC   D2A11968  27.082  35.897   8.370
  737POPC   C3A11969  26.876  36.145   7.978
  737POPC   C4A11970  26.752  36.031   7.508
  737POPC   C1B11971  26.914  36.454   8.844
  737POPC   C2B11972  26.702  36.330   8.454
  737POPC   C3B11973  26.441  36.372   8.080
  737POPC   C4B11974  26.585  36.492   7.680
  738POPC   NC311975   1.839  23.223   9.551
  738POPC   PO411976   2.316  22.866   9.536
  738POPC   GL111977   2.096  23.017   9.161
  738POPC   GL211978   1.736  22.874   9.168
  738POPC   C1A11979   2.000  22.862   8.747
  738POPC   D2A11980   2.129  22.622   8.393
  738POPC   C3A11981   2.387  22.778   8.050
  738POPC   C4A11982   2.250  23.021   7.707
  738POPC   C1B11983   1.524  22.660   8.791
  738POPC   C2B11984   1.652  22.849   8.363
  738POPC   C3B11985   1.839  22.711   7.972
  738POPC   C4B11986   1.688  22.931   7.639
  739POPC   NC311987  39.843   1.474   9.484
  739POPC   PO411988  40.283   1.035   9.478
  739POPC   GL111989  40.060   1.128   9.153
  739POPC   GL211990  39.734   0.966   9.215
  739POPC   C1A11991  40.175   1.263   8.759
  739POPC   D2A11992  40.213   1.055   8.385
  739POPC   C3A11993  40.209   1.344   8.040
  739POPC   C4A11994  39.854   1.653   8.010
  739POPC   C1B11995  39.647   1.191   8.820
  739POPC   C2B11996  39.730   1.264   8.372
  739POPC   C3B11997  39.840   0.998   8.022
  739POPC   C4B11998  39.694   0.864   7.634
  740POPC   NC311999  26.043  38.982   9.342
  740POPC   PO412000  26.234  39.631   9.506
  740POPC   GL112001  26.197  39.420   9.068
  740POPC   GL212002  26.415  39.120   9.029
  740POPC   C1A12003  25.904  39.294   8.658
  740POPC   D2A12004  25.614  39.020   8.370
  740POPC   C3A12005  25.739  39.051   7.952
  740POPC   C4A12006  25.856  39.474   7.871
  740POPC   C1B12007  26.427  39.239   8.593
  740POPC   C2B12008  26.181  39.264   8.209
  740POPC   C3B12009  26.264  39.170   7.782
  740POPC   C4B12010  26.550  39.292   7.410
  741POPC   NC312011   1.114  34.056   9.237
  741POPC   PO412012   1.641  34.088   9.617
  741POPC   GL112013   1.514  33.751   9.237
  741POPC   GL212014   1.207  33.573   9.159
  741POPC   C1A12015   1.589  33.623   8.789
  741POPC   D2A12016   1.424  33.591   8.354
  741POPC   C3A12017   1.234  33.981   8.164
  741POPC   C4A12018   1.242  34.084   7.717
  741POPC   C1B12019   1.040  33.573   8.723
  741POPC   C2B12020   0.811  33.662   8.319
  741POPC   C3B12021   0.890  33.717   7.898
  741POPC   C4B12022   1.315  33.581   7.820
  742POPC   NC312023   6.525   2.698   9.415
  742POPC   PO412024   7.124   2.537   9.434
  742POPC   GL112025   6.869   2.526   9.075
  742POPC   GL212026   6.793   2.903   9.029
  742POPC   C1A12027   6.539   2.558   8.759
  742POPC   D2A12028   6.309   2.588   8.353
  742POPC   C3A12029   6.399   2.370   8.018
  742POPC   C4A12030   6.640   2.613   7.827
  742POPC   C1B12031   6.641   3.025   8.595
  742POPC   C2B12032   6.567   3.033   8.118
  742POPC   C3B12033   6.381   3.189   7.702
  742POPC   C4B12034   6.294   3.055   7.236
  743POPC   NC312035  13.362  28.813   9.309
  743POPC   PO412036  12.752  29.389   9.472
  743POPC   GL112037  12.900  29.342   9.102
  743POPC   GL212038  12.950  29.001   9.055
  743POPC   C1A12039  12.733  29.287   8.683
  743POPC   D2A12040  12.730  29.032   8.314
  743POPC   C3A12041  12.730  29.236   7.932
  743POPC   C4A12042  12.668  29.497   7.564
  743POPC   C1B12043  13.088  28.832   8.639
  743POPC   C2B12044  13.212  28.807   8.180
  743POPC   C3B12045  13.114  28.754   7.744
  743POPC   C4B12046  12.780  28.956   7.501
  744POPC   NC312047  24.090  32.069   9.499
  744POPC   PO412048  24.437  32.580   9.416
  744POPC   GL112049  24.551  32.188   9.183
  744POPC   GL212050  24.284  31.986   9.032
  744POPC   C1A12051  24.811  32.036   8.812
  744POPC   D2A12052  24.912  31.977   8.347
  744POPC   C3A12053  24.614  32.071   7.998
  744POPC   C4A12054  24.466  32.342   7.640
  744POPC   C1B12055  24.337  32.102   8.609
  744POPC   C2B12056  24.211  32.316   8.250
  744POPC   C3B12057  24.087  32.126   7.874
  744POPC   C4B12058  24.339  31.823   7.635
  745POPC   NC312059  26.624  10.152   9.663
  745POPC   PO412060  26.941  10.791   9.561
  745POPC   GL112061  26.876  10.660   9.175
  745POPC   GL212062  27.064  10.388   9.215
  745POPC   C1A12063  26.616  10.650   8.828
  745POPC   D2A12064  26.727  10.690   8.423
  745POPC   C3A12065  26.397  10.561   8.159
  745POPC   C4A12066  26.632  10.592   7.780
  745POPC   C1B12067  26.956  10.274   8.819
  745POPC   C2B12068  27.113  10.322   8.397
  745POPC   C3B12069  27.052  10.194   7.974
  745POPC   C4B12070  27.120  10.467   7.637
  746POPC   NC312071  28.976  32.462   9.351
  746POPC   PO412072  29.462  32.006   9.486
  746POPC   GL112073  29.307  32.135   9.110
  746POPC   GL212074  29.415  32.468   9.066
  746POPC   C1A12075  29.129  32.241   8.717
  746POPC   D2A12076  29.100  32.325   8.309
  746POPC   C3A12077  28.934  31.968   8.073
  746POPC   C4A12078  28.864  31.918   7.633
  746POPC   C1B12079  29.405  32.698   8.669
  746POPC   C2B12080  29.543  32.653   8.247
  746POPC   C3B12081  29.269  32.621   7.929
  746POPC   C4B12082  28.919  32.415   7.827
  747POPC   NC312083  11.328  10.055   9.606
  747POPC   PO412084  11.127   9.463   9.550
  747POPC   GL112085  11.195   9.756   9.201
  747POPC   GL212086  11.523   9.964   9.141
  747POPC   C1A12087  11.069   9.728   8.769
  747POPC   D2A12088  10.985   9.569   8.346
  747POPC   C3A12089  11.136   9.843   8.005
  747POPC   C4A12090  11.074   9.827   7.525
  747POPC   C1B12091  11.584   9.641   8.865
  747POPC   C2B12092  11.503   9.537   8.456
  747POPC   C3B12093  11.675   9.721   8.120
  747POPC   C4B12094  11.559   9.701   7.728
  748POPC   NC312095  29.522   2.298   9.499
  748POPC   PO412096  29.520   1.614   9.542
  748POPC   GL112097  29.747   1.751   9.185
  748POPC   GL212098  30.012   1.540   9.081
  748POPC   C1A12099  29.891   2.092   8.892
  748POPC   D2A12100  30.042   2.286   8.498
  748POPC   C3A12101  29.942   2.083   8.125
  748POPC   C4A12102  30.065   2.169   7.749
  748POPC   C1B12103  30.115   1.664   8.700
  748POPC   C2B12104  29.953   1.627   8.325
  748POPC   C3B12105  30.218   1.671   7.937
  748POPC   C4B12106  30.243   1.768   7.481
  749POPC   NC312107  36.329  24.918   9.609
  749POPC   PO412108  36.050  25.575   9.617
  749POPC   GL112109  36.042  25.248   9.323
  749POPC   GL212110  35.969  25.473   9.100
  749POPC   C1A12111  36.098  25.030   8.914
  749POPC   D2A12112  36.244  25.131   8.519
  749POPC   C3A12113  36.121  25.144   8.118
  749POPC   C4A12114  36.165  25.130   7.686
  749POPC   C1B12115  35.805  25.419   8.712
  749POPC   C2B12116  35.620  25.642   8.400
  749POPC   C3B12117  35.829  25.546   8.024
  749POPC   C4B12118  35.673  25.518   7.600
  750POPC   NC312119  41.982  39.683   9.480
  750POPC   PO412120  42.279  40.317   9.390
  750POPC   GL112121  42.432  40.094   9.001
  750POPC   GL212122  42.652  39.803   9.020
  750POPC   C1A12123  42.488  40.040   8.549
  750POPC   D2A12124  42.231  39.913   8.214
  750POPC   C3A12125  42.183  40.065   7.784
  750POPC   C4A12126  42.226  39.797   7.402
  750POPC   C1B12127  42.886  39.688   8.673
  750POPC   C2B12128  42.765  39.679   8.245
  750POPC   C3B12129  42.567  39.758   7.862
  750POPC   C4B12130  42.623  40.090   7.499
  751POPC   NC312131  15.014  27.640   9.617
  751POPC   PO412132  15.591  27.700   9.882
  751POPC   GL112133  15.368  27.799   9.315
  751POPC   GL212134  15.269  27.506   9.162
  751POPC   C1A12135  15.004  27.772   8.875
  751POPC   D2A12136  15.089  27.572   8.442
  751POPC   C3A12137  14.968  27.590   7.982
  751POPC   C4A12138  15.100  27.825   7.593
  751POPC   C1B12139  15.438  27.326   8.789
  751POPC   C2B12140  15.406  27.188   8.388
  751POPC   C3B12141  15.469  27.436   8.012
  751POPC   C4B12142  15.619  27.238   7.649
  752POPC   NC312143   8.516  37.858   9.544
  752POPC   PO412144   8.171  37.267   9.475
  752POPC   GL112145   8.196  37.524   9.120
  752POPC   GL212146   8.538  37.570   9.106
  752POPC   C1A12147   8.119  37.805   8.749
  752POPC   D2A12148   8.263  37.909   8.323
  752POPC   C3A12149   7.985  37.776   7.992
  752POPC   C4A12150   7.777  37.417   7.798
  752POPC   C1B12151   8.451  37.425   8.691
  752POPC   C2B12152   8.583  37.521   8.314
  752POPC   C3B12153   8.637  37.672   7.887
  752POPC   C4B12154   8.662  37.518   7.466
  753POPC   NC312155  31.049  28.907   9.298
  753POPC   PO412156  30.535  29.311   9.237
  753POPC   GL112157  30.645  28.968   9.011
  753POPC   GL212158  30.384  28.738   9.076
  753POPC   C1A12159  30.795  29.072   8.616
  753POPC   D2A12160  30.574  29.390   8.375
  753POPC   C3A12161  30.744  29.271   7.997
  753POPC   C4A12162  30.828  29.449   7.648
  753POPC   C1B12163  30.297  28.972   8.666
  753POPC   C2B12164  30.450  28.893   8.272
  753POPC   C3B12165  30.286  29.071   7.956
  753POPC   C4B12166  30.250  28.954   7.580
  754POPC   NC312167  36.498  26.306   9.417
  754POPC   PO412168  36.167  26.999   9.402
  754POPC   GL112169  36.367  26.928   9.064
  754POPC   GL212170  36.307  26.603   9.074
  754POPC   C1A12171  36.224  26.824   8.629
  754POPC   D2A12172  35.929  26.738   8.322
  754POPC   C3A12173  36.075  26.848   7.880
  754POPC   C4A12174  35.837  26.937   7.484
  754POPC   C1B12175  36.401  26.329   8.723
  754POPC   C2B12176  36.444  26.464   8.296
  754POPC   C3B12177  36.508  26.548   7.860
  754POPC   C4B12178  36.283  26.626   7.461
  755POPC   NC312179  13.098  34.421   9.589
  755POPC   PO412180  12.622  34.808   9.521
  755POPC   GL112181  12.843  34.638   9.171
  755POPC   GL212182  12.721  34.320   9.255
  755POPC   C1A12183  12.935  34.751   8.731
  755POPC   D2A12184  13.139  34.631   8.298
  755POPC   C3A12185  12.986  34.769   7.898
  755POPC   C4A12186  12.605  34.701   7.633
  755POPC   C1B12187  12.996  34.236   8.872
  755POPC   C2B12188  12.944  34.131   8.419
  755POPC   C3B12189  12.897  34.275   7.965
  755POPC   C4B12190  12.918  34.228   7.500
  756POPC   NC312191  26.204   1.668   9.366
  756POPC   PO412192  25.882   2.248   9.434
  756POPC   GL112193  26.078   2.325   9.059
  756POPC   GL212194  26.319   2.105   9.063
  756POPC   C1A12195  26.112   2.205   8.603
  756POPC   D2A12196  25.876   2.003   8.313
  756POPC   C3A12197  25.799   2.174   7.947
  756POPC   C4A12198  25.915   1.906   7.650
  756POPC   C1B12199  26.452   1.805   8.760
  756POPC   C2B12200  26.282   1.716   8.372
  756POPC   C3B12201  26.287   1.971   8.004
  756POPC   C4B12202  26.437   1.898   7.590
  757POPC   NC312203  11.277  16.915   9.429
  757POPC   PO412204  11.631  16.360   9.397
  757POPC   GL112205  11.410  16.555   9.063
  757POPC   GL212206  11.028  16.638   9.090
  757POPC   C1A12207  11.365  16.888   8.780
  757POPC   D2A12208  11.166  16.913   8.414
  757POPC   C3A12209  11.404  16.775   8.102
  757POPC   C4A12210  11.186  16.828   7.756
  757POPC   C1B12211  11.017  16.340   8.760
  757POPC   C2B12212  10.912  16.392   8.332
  757POPC   C3B12213  11.128  16.327   7.974
  757POPC   C4B12214  11.116  16.396   7.540
  758POPC   NC312215  27.869  27.711   9.789
  758POPC   PO412216  27.418  27.474   9.213
  758POPC   GL112217  27.547  27.721   8.947
  758POPC   GL212218  27.542  27.991   9.181
  758POPC   C1A12219  27.613  27.577   8.549
  758POPC   D2A12220  27.418  27.504   8.193
  758POPC   C3A12221  27.612  27.547   7.801
  758POPC   C4A12222  27.391  27.766   7.467
  758POPC   C1B12223  27.433  28.172   8.784
  758POPC   C2B12224  27.417  28.026   8.382
  758POPC   C3B12225  27.767  27.911   8.148
  758POPC   C4B12226  27.725  28.099   7.738
  759POPC   NC312227   4.563  10.269   9.451
  759POPC   PO412228   4.000  10.591   9.327
  759POPC   GL112229   4.317  10.517   9.049
  759POPC   GL212230   4.492  10.800   9.146
  759POPC   C1A12231   4.413  10.295   8.652
  759POPC   D2A12232   4.179  10.194   8.270
  759POPC   C3A12233   4.309  10.462   7.949
  759POPC   C4A12234   4.415  10.414   7.545
  759POPC   C1B12235   4.634  10.766   8.724
  759POPC   C2B12236   4.619  10.651   8.292
  759POPC   C3B12237   4.682  10.800   7.834
  759POPC   C4B12238   4.792  10.924   7.365
  760POPC   NC312239  19.639  26.552   9.547
  760POPC   PO412240  19.940  27.062   9.763
  760POPC   GL112241  19.864  26.961   9.278
  760POPC   GL212242  19.565  26.935   9.110
  760POPC   C1A12243  19.948  26.874   8.793
  760POPC   D2A12244  19.965  26.602   8.414
  760POPC   C3A12245  20.124  26.797   8.011
  760POPC   C4A12246  19.910  26.862   7.622
  760POPC   C1B12247  19.500  27.124   8.705
  760POPC   C2B12248  19.628  26.981   8.304
  760POPC   C3B12249  19.583  27.162   7.898
  760POPC   C4B12250  19.539  27.178   7.451
  761POPC   NC312251  16.561   4.853   9.417
  761POPC   PO412252  16.326   5.503   9.403
  761POPC   GL112253  16.526   5.265   9.074
  761POPC   GL212254  16.603   4.902   8.922
  761POPC   C1A12255  16.705   5.345   8.717
  761POPC   D2A12256  16.745   5.116   8.353
  761POPC   C3A12257  16.798   5.328   7.960
  761POPC   C4A12258  16.701   5.095   7.580
  761POPC   C1B12259  16.988   4.766   8.692
  761POPC   C2B12260  17.204   4.837   8.312
  761POPC   C3B12261  17.033   4.881   7.899
  761POPC   C4B12262  16.995   4.690   7.472
  762POPC   NC312263  36.307  24.214   9.352
  762POPC   PO412264  35.858  24.607   9.737
  762POPC   GL112265  35.899  24.568   9.248
  762POPC   GL212266  35.844  24.214   9.108
  762POPC   C1A12267  36.018  24.545   8.781
  762POPC   D2A12268  36.002  24.705   8.379
  762POPC   C3A12269  36.280  24.663   8.062
  762POPC   C4A12270  36.067  24.638   7.700
  762POPC   C1B12271  36.047  24.023   8.773
  762POPC   C2B12272  36.185  24.183   8.394
  762POPC   C3B12273  35.901  24.287   8.075
  762POPC   C4B12274  35.777  24.080   7.719
  763POPC   NC312275   1.031  16.235   9.416
  763POPC   PO412276   1.414  15.721   9.489
  763POPC   GL112277   1.360  15.907   9.136
  763POPC   GL212278   1.662  16.090   9.157
  763POPC   C1A12279   1.230  16.121   8.770
  763POPC   D2A12280   0.972  16.040   8.411
  763POPC   C3A12281   1.218  16.181   8.039
  763POPC   C4A12282   1.095  16.067   7.651
  763POPC   C1B12283   1.686  15.841   8.745
  763POPC   C2B12284   1.428  15.806   8.399
  763POPC   C3B12285   1.475  15.759   8.001
  763POPC   C4B12286   1.563  15.831   7.583
  764POPC   NC312287  37.481   1.024   9.321
  764POPC   PO412288  37.781   1.509   9.685
  764POPC   GL112289  37.953   1.316   9.282
  764POPC   GL212290  37.970   1.644   9.134
  764POPC   C1A12291  37.926   1.094   8.853
  764POPC   D2A12292  37.690   1.015   8.446
  764POPC   C3A12293  37.962   0.921   8.072
  764POPC   C4A12294  38.055   1.157   7.696
  764POPC   C1B12295  37.838   1.658   8.682
  764POPC   C2B12296  37.985   1.766   8.262
  764POPC   C3B12297  37.859   1.581   7.921
  764POPC   C4B12298  37.559   1.275   8.021
  765POPC   NC312299  19.549   2.395   9.379
  765POPC   PO412300  19.467   3.019   9.649
  765POPC   GL112301  19.491   2.877   9.184
  765POPC   GL212302  19.829   2.820   9.175
  765POPC   C1A12303  19.540   2.662   8.776
  765POPC   D2A12304  19.744   2.323   8.567
  765POPC   C3A12305  19.907   2.480   8.185
  765POPC   C4A12306  19.690   2.777   7.883
  765POPC   C1B12307  20.067   2.682   8.784
  765POPC   C2B12308  20.348   2.698   8.415
  765POPC   C3B12309  20.251   2.850   8.021
  765POPC   C4B12310  20.072   3.057   7.651
  766POPC   NC312311  30.435   0.774   9.297
  766POPC   PO412312  30.370   1.431   9.435
  766POPC   GL112313  30.764   1.224   9.204
  766POPC   GL212314  30.919   1.499   8.986
  766POPC   C1A12315  30.988   1.043   8.808
  766POPC   D2A12316  30.799   1.066   8.409
  766POPC   C3A12317  30.924   1.260   8.037
  766POPC   C4A12318  30.857   1.034   7.692
  766POPC   C1B12319  30.527   1.350   8.770
  766POPC   C2B12320  30.351   1.308   8.351
  766POPC   C3B12321  30.411   1.147   7.940
  766POPC   C4B12322  30.566   1.425   7.647
  767POPC   NC312323   1.130  18.608   9.468
  767POPC   PO412324   1.243  17.994   9.472
  767POPC   GL112325   1.147  18.218   9.132
  767POPC   GL212326   1.467  18.393   9.122
  767POPC   C1A12327   1.087  18.146   8.715
  767POPC   D2A12328   1.429  18.033   8.459
  767POPC   C3A12329   1.368  18.184   8.064
  767POPC   C4A12330   1.042  18.066   7.733
  767POPC   C1B12331   1.360  18.565   8.732
  767POPC   C2B12332   1.226  18.657   8.306
  767POPC   C3B12333   1.123  18.571   7.875
  767POPC   C4B12334   1.413  18.410   7.577
  768POPC   NC312335  44.108  13.349   9.499
  768POPC   PO412336  43.886  14.025   9.610
  768POPC   GL112337  43.790  13.715   9.274
  768POPC   GL212338  44.089  13.649   9.084
  768POPC   C1A12339  43.615  13.577   8.865
  768POPC   D2A12340  43.836  13.630   8.474
  768POPC   C3A12341  43.769  13.608   8.036
  768POPC   C4A12342  43.673  13.969   7.809
  768POPC   C1B12343  44.144  13.358   8.818
  768POPC   C2B12344  44.133  13.225   8.434
  768POPC   C3B12345  44.403  13.288   8.159
  768POPC   C4B12346  44.335  13.358   7.733
  769POPC   NC312347  37.507  38.296   9.456
  769POPC   PO412348  37.672  38.944   9.577
  769POPC   GL112349  37.563  38.692   9.112
  769POPC   GL212350  37.690  38.306   9.003
  769POPC   C1A12351  37.519  38.554   8.619
  769POPC   D2A12352  37.824  38.343   8.359
  769POPC   C3A12353  37.861  38.645   8.022
  769POPC   C4A12354  37.481  38.759   7.748
  769POPC   C1B12355  37.413  38.062   8.719
  769POPC   C2B12356  37.185  38.185   8.377
  769POPC   C3B12357  37.384  38.409   8.090
  769POPC   C4B12358  37.662  38.265   7.770
  770POPC   NC312359  28.570  23.555   9.794
  770POPC   PO412360  28.018  23.893   9.518
  770POPC   GL112361  28.119  23.592   9.192
  770POPC   GL212362  28.490  23.544   9.164
  770POPC   C1A12363  28.123  23.439   8.760
  770POPC   D2A12364  28.411  23.489   8.389
  770POPC   C3A12365  28.208  23.510   7.979
  770POPC   C4A12366  28.409  23.546   7.579
  770POPC   C1B12367  28.461  23.820   8.797
  770POPC   C2B12368  28.386  24.065   8.424
  770POPC   C3B12369  28.530  23.914   8.028
  770POPC   C4B12370  28.711  23.988   7.656
  771POPC   NC312371  21.594   6.664   9.499
  771POPC   PO412372  20.946   6.620   9.497
  771POPC   GL112373  21.223   6.714   9.147
  771POPC   GL212374  21.292   6.401   9.131
  771POPC   C1A12375  21.554   6.663   8.809
  771POPC   D2A12376  21.509   6.803   8.406
  771POPC   C3A12377  21.462   6.560   8.034
  771POPC   C4A12378  21.366   6.792   7.684
  771POPC   C1B12379  21.242   6.185   8.777
  771POPC   C2B12380  21.163   6.286   8.386
  771POPC   C3B12381  20.994   6.219   8.024
  771POPC   C4B12382  21.208   6.285   7.648
  772POPC   NC312383  37.933  25.867   9.414
  772POPC   PO412384  38.516  26.119   9.671
  772POPC   GL112385  38.499  26.069   9.189
  772POPC   GL212386  38.222  26.186   9.059
  772POPC   C1A12387  38.683  26.141   8.738
  772POPC   D2A12388  38.454  26.217   8.367
  772POPC   C3A12389  38.672  26.187   8.017
  772POPC   C4A12390  38.601  26.426   7.674
  772POPC   C1B12391  38.259  25.854   8.766
  772POPC   C2B12392  38.070  25.889   8.374
  772POPC   C3B12393  38.233  25.781   8.007
  772POPC   C4B12394  38.623  25.701   7.860
  773POPC   NC312395  25.215  22.833   9.491
  773POPC   PO412396  24.580  22.750   9.350
  773POPC   GL112397  24.915  23.015   9.107
  773POPC   GL212398  25.308  23.084   9.077
  773POPC   C1A12399  25.029  22.883   8.702
  773POPC   D2A12400  25.219  22.961   8.326
  773POPC   C3A12401  24.900  22.904   8.036
  773POPC   C4A12402  24.987  22.597   7.778
  773POPC   C1B12403  25.518  22.758   8.813
  773POPC   C2B12404  25.723  22.782   8.433
  773POPC   C3B12405  25.642  22.638   8.047
  773POPC   C4B12406  25.461  22.792   7.725
  774POPC   NC312407  37.747  10.048   9.566
  774POPC   PO412408  37.487   9.459   9.514
  774POPC   GL112409  37.402   9.770   9.188
  774POPC   GL212410  37.747   9.837   9.120
  774POPC   C1A12411  37.473   9.776   8.714
  774POPC   D2A12412  37.726   9.600   8.394
  774POPC   C3A12413  37.519   9.599   7.990
  774POPC   C4A12414  37.897   9.586   7.728
  774POPC   C1B12415  37.803  10.180   8.813
  774POPC   C2B12416  37.770  10.137   8.406
  774POPC   C3B12417  37.819  10.003   8.028
  774POPC   C4B12418  37.589   9.995   7.674
  775POPC   NC312419  28.222  30.178   9.688
  775POPC   PO412420  28.466  29.674   9.570
  775POPC   GL112421  28.394  29.953   9.228
  775POPC   GL212422  28.724  29.867   9.140
  775POPC   C1A12423  28.153  30.007   8.827
  775POPC   D2A12424  28.297  30.105   8.389
  775POPC   C3A12425  28.101  30.058   7.996
  775POPC   C4A12426  28.130  29.780   7.651
  775POPC   C1B12427  28.668  30.064   8.757
  775POPC   C2B12428  28.784  29.928   8.348
  775POPC   C3B12429  28.608  29.982   7.930
  775POPC   C4B12430  28.526  30.297   7.605
  776POPC   NC312431  26.991  17.061   9.650
  776POPC   PO412432  26.665  16.478   9.442
  776POPC   GL112433  26.920  16.746   9.152
  776POPC   GL212434  27.271  16.852   9.247
  776POPC   C1A12435  26.772  16.991   8.764
  776POPC   D2A12436  26.701  17.203   8.333
  776POPC   C3A12437  26.841  16.924   7.982
  776POPC   C4A12438  26.728  16.462   7.894
  776POPC   C1B12439  27.292  16.819   8.803
  776POPC   C2B12440  27.387  16.470   8.528
  776POPC   C3B12441  27.435  16.481   8.094
  776POPC   C4B12442  27.363  16.866   7.865
  777POPC   NC312443   9.225   9.680   9.443
  777POPC   PO412444   8.638  10.113   9.513
  777POPC   GL112445   8.768   9.817   9.237
  777POPC   GL212446   9.008  10.042   9.087
  777POPC   C1A12447   8.899   9.574   8.874
  777POPC   D2A12448   8.859   9.737   8.456
  777POPC   C3A12449   9.015   9.503   8.112
  777POPC   C4A12450   8.890   9.576   7.700
  777POPC   C1B12451   9.243   9.973   8.696
  777POPC   C2B12452   9.411   9.852   8.273
  777POPC   C3B12453   9.375   9.800   7.834
  777POPC   C4B12454   9.160   9.931   7.435
  778POPC   NC312455  25.186  16.431   9.698
  778POPC   PO412456  25.330  15.820   9.481
  778POPC   GL112457  25.166  15.916   9.106
  778POPC   GL212458  24.934  15.670   9.011
  778POPC   C1A12459  25.147  16.005   8.660
  778POPC   D2A12460  25.272  16.248   8.343
  778POPC   C3A12461  25.193  16.124   7.916
  778POPC   C4A12462  25.559  16.368   7.788
  778POPC   C1B12463  24.859  15.588   8.588
  778POPC   C2B12464  24.952  15.771   8.198
  778POPC   C3B12465  25.033  15.655   7.754
  778POPC   C4B12466  24.961  15.746   7.296
  779POPC   NC312467  30.488  35.916   9.409
  779POPC   PO412468  29.885  36.172   9.485
  779POPC   GL112469  29.867  36.161   9.091
  779POPC   GL212470  30.215  36.218   9.094
  779POPC   C1A12471  29.645  36.229   8.719
  779POPC   D2A12472  29.637  35.913   8.404
  779POPC   C3A12473  29.706  36.092   8.021
  779POPC   C4A12474  29.778  36.279   7.611
  779POPC   C1B12475  30.140  36.359   8.703
  779POPC   C2B12476  30.108  36.162   8.346
  779POPC   C3B12477  30.165  36.316   7.954
  779POPC   C4B12478  30.248  36.037   7.664
  780POPC   NC312479   4.791  39.453   9.692
  780POPC   PO412480   4.228  39.070   9.593
  780POPC   GL112481   4.384  39.079   9.202
  780POPC   GL212482   4.045  38.975   9.117
  780POPC   C1A12483   4.437  39.279   8.779
  780POPC   D2A12484   4.709  39.259   8.391
  780POPC   C3A12485   4.508  39.233   7.982
  780POPC   C4A12486   4.285  39.512   7.729
  780POPC   C1B12487   3.937  39.103   8.732
  780POPC   C2B12488   4.084  39.300   8.380
  780POPC   C3B12489   4.005  39.080   8.021
  780POPC   C4B12490   4.121  39.029   7.630
  781POPC   NC312491  21.470  22.331   9.550
  781POPC   PO412492  21.144  21.645   9.455
  781POPC   GL112493  21.414  21.964   9.191
  781POPC   GL212494  21.232  22.320   9.117
  781POPC   C1A12495  21.581  22.166   8.795
  781POPC   D2A12496  21.378  22.310   8.406
  781POPC   C3A12497  21.588  22.472   8.027
  781POPC   C4A12498  21.581  22.134   7.724
  781POPC   C1B12499  21.178  22.588   8.791
  781POPC   C2B12500  21.033  22.706   8.423
  781POPC   C3B12501  21.092  22.578   8.069
  781POPC   C4B12502  21.207  22.491   7.698
  782POPC   NC312503  23.317  10.554   9.646
  782POPC   PO412504  23.945  10.700   9.602
  782POPC   GL112505  23.640  10.628   9.253
  782POPC   GL212506  23.519  10.272   9.274
  782POPC   C1A12507  23.583  10.541   8.807
  782POPC   D2A12508  23.873  10.594   8.443
  782POPC   C3A12509  23.655  10.667   8.018
  782POPC   C4A12510  23.728  10.882   7.621
  782POPC   C1B12511  23.707  10.046   8.945
  782POPC   C2B12512  23.692  10.035   8.499
  782POPC   C3B12513  23.843  10.189   8.129
  782POPC   C4B12514  23.745  10.225   7.720
  783POPC   NC312515  15.808  27.876   9.528
  783POPC   PO412516  15.719  28.629   9.533
  783POPC   GL112517  15.907  28.598   9.128
  783POPC   GL212518  15.963  28.241   9.169
  783POPC   C1A12519  15.750  28.451   8.741
  783POPC   D2A12520  15.841  28.327   8.360
  783POPC   C3A12521  15.601  28.454   7.983
  783POPC   C4A12522  15.740  28.333   7.590
  783POPC   C1B12523  16.082  28.022   8.789
  783POPC   C2B12524  16.144  27.905   8.368
  783POPC   C3B12525  16.178  28.190   8.007
  783POPC   C4B12526  16.117  28.002   7.619
  784POPC   NC312527  37.402  23.586   9.568
  784POPC   PO412528  38.012  23.881   9.438
  784POPC   GL112529  37.836  23.773   9.069
  784POPC   GL212530  37.683  23.468   9.046
  784POPC   C1A12531  37.789  24.001   8.727
  784POPC   D2A12532  37.930  23.755   8.424
  784POPC   C3A12533  37.700  23.870   8.105
  784POPC   C4A12534  37.824  23.829   7.703
  784POPC   C1B12535  37.448  23.634   8.666
  784POPC   C2B12536  37.237  23.652   8.240
  784POPC   C3B12537  37.380  23.597   7.798
  784POPC   C4B12538  37.459  23.757   7.365
  785POPC   NC312539  41.981  29.043   9.456
  785POPC   PO412540  42.626  28.837   9.243
  785POPC   GL112541  42.469  29.136   9.025
  785POPC   GL212542  42.136  29.284   9.027
  785POPC   C1A12543  42.423  29.040   8.624
  785POPC   D2A12544  42.116  29.106   8.357
  785POPC   C3A12545  42.322  29.079   7.996
  785POPC   C4A12546  42.225  29.371   7.695
  785POPC   C1B12547  42.007  28.872   8.842
  785POPC   C2B12548  41.731  28.806   8.528
  785POPC   C3B12549  41.757  28.808   8.093
  785POPC   C4B12550  41.973  28.883   7.695
  786POPC   NC312551  25.087  23.955   9.484
  786POPC   PO412552  25.097  23.289   9.517
  786POPC   GL112553  24.994  23.551   9.163
  786POPC   GL212554  25.307  23.598   9.112
  786POPC   C1A12555  24.998  23.828   8.798
  786POPC   D2A12556  25.180  24.022   8.411
  786POPC   C3A12557  25.031  23.897   7.976
  786POPC   C4A12558  25.336  23.721   7.699
  786POPC   C1B12559  25.201  23.384   8.690
  786POPC   C2B12560  25.162  23.491   8.250
  786POPC   C3B12561  25.263  23.251   7.874
  786POPC   C4B12562  25.117  23.317   7.420
  787POPC   NC312563   0.725  39.059   9.528
  787POPC   PO412564   1.339  39.345   9.648
  787POPC   GL112565   1.365  39.225   9.238
  787POPC   GL212566   1.081  39.407   9.143
  787POPC   C1A12567   1.525  39.172   8.816
  787POPC   D2A12568   1.448  39.329   8.411
  787POPC   C3A12569   1.511  39.148   7.995
  787POPC   C4A12570   1.144  39.080   7.768
  787POPC   C1B12571   0.772  39.647   8.882
  787POPC   C2B12572   0.832  39.780   8.440
  787POPC   C3B12573   1.037  39.531   8.123
  787POPC   C4B12574   0.882  39.495   7.703
  788POPC   NC312575  28.878  29.461   9.451
  788POPC   PO412576  29.092  30.143   9.430
  788POPC   GL112577  29.223  30.036   9.066
  788POPC   GL212578  29.220  29.696   9.154
  788POPC   C1A12579  29.159  30.177   8.667
  788POPC   D2A12580  29.318  29.980   8.359
  788POPC   C3A12581  29.122  30.022   7.974
  788POPC   C4A12582  28.994  30.142   7.583
  788POPC   C1B12583  29.023  29.692   8.751
  788POPC   C2B12584  28.903  29.420   8.464
  788POPC   C3B12585  29.090  29.530   8.125
  788POPC   C4B12586  28.907  29.561   7.766
  789POPC   NC312587  16.376  44.396   9.494
  789POPC   PO412588  15.853  44.783   9.406
  789POPC   GL112589  16.184  44.769   9.158
  789POPC   GL212590  16.116  44.437   9.067
  789POPC   C1A12591  16.144  44.879   8.740
  789POPC   D2A12592  15.970  44.768   8.334
  789POPC   C3A12593  16.149  44.456   8.049
  789POPC   C4A12594  15.984  44.690   7.719
  789POPC   C1B12595  16.120  44.368   8.650
  789POPC   C2B12596  15.809  44.242   8.372
  789POPC   C3B12597  15.697  44.264   7.925
  789POPC   C4B12598  15.970  44.207   7.591
  790POPC   NC312599  32.579  39.954   9.701
  790POPC   PO412600  33.219  39.866   9.655
  790POPC   GL112601  33.051  39.790   9.239
  790POPC   GL212602  32.819  40.056   9.098
  790POPC   C1A12603  33.167  39.832   8.803
  790POPC   D2A12604  32.984  39.947   8.443
  790POPC   C3A12605  33.240  39.918   8.099
  790POPC   C4A12606  33.105  39.779   7.715
  790POPC   C1B12607  33.052  40.344   8.781
  790POPC   C2B12608  32.926  40.442   8.345
  790POPC   C3B12609  32.794  40.184   8.008
  790POPC   C4B12610  33.095  40.291   7.743
  791POPC   NC312611   6.101   0.211   9.584
  791POPC   PO412612   5.777   0.831   9.665
  791POPC   GL112613   5.786   0.489   9.262
  791POPC   GL212614   6.062   0.416   9.113
  791POPC   C1A12615   5.626   0.397   8.797
  791POPC   D2A12616   5.626   0.205   8.328
  791POPC   C3A12617   5.590   0.325   7.858
  791POPC   C4A12618   5.713   0.717   7.604
  791POPC   C1B12619   6.026   0.760   8.818
  791POPC   C2B12620   5.853   0.673   8.409
  791POPC   C3B12621   5.990   0.597   8.004
  791POPC   C4B12622   6.072   0.267   7.651
  792POPC   NC312623  26.575  32.585   9.904
  792POPC   PO412624  26.534  33.183   9.623
  792POPC   GL112625  26.540  32.836   9.297
  792POPC   GL212626  26.621  33.116   9.076
  792POPC   C1A12627  26.840  32.692   8.932
  792POPC   D2A12628  26.963  32.938   8.558
  792POPC   C3A12629  26.901  32.722   8.148
  792POPC   C4A12630  26.935  32.833   7.749
  792POPC   C1B12631  26.358  33.277   8.714
  792POPC   C2B12632  26.434  33.399   8.299
  792POPC   C3B12633  26.710  33.215   8.001
  792POPC   C4B12634  26.833  33.282   7.561
  793POPC   NC312635   0.792  28.900   9.558
  793POPC   PO412636   0.253  29.381   9.673
  793POPC   GL112637   0.259  29.195   9.245
  793POPC   GL212638   0.485  29.391   9.030
  793POPC   C1A12639   0.415  28.881   8.908
  793POPC   D2A12640   0.570  28.888   8.482
  793POPC   C3A12641   0.317  29.066   8.173
  793POPC   C4A12642   0.431  29.241   7.808
  793POPC   C1B12643   0.263  29.290   8.634
  793POPC   C2B12644  44.880  29.271   8.378
  793POPC   C3B12645  44.947  29.327   7.932
  793POPC   C4B12646  44.984  29.149   7.516
  794POPC   NC312647   4.528  43.391   9.507
  794POPC   PO412648   5.091  42.932   9.639
  794POPC   GL112649   4.949  42.957   9.221
  794POPC   GL212650   4.919  43.331   9.190
  794POPC   C1A12651   5.171  43.055   8.828
  794POPC   D2A12652   5.250  43.379   8.548
  794POPC   C3A12653   5.319  43.252   8.128
  794POPC   C4A12654   5.126  43.083   7.742
  794POPC   C1B12655   4.745  43.375   8.787
  794POPC   C2B12656   4.797  43.539   8.382
  794POPC   C3B12657   4.844  43.418   7.999
  794POPC   C4B12658   4.781  43.410   7.554
  795POPC   NC312659   1.408  21.486   9.639
  795POPC   PO412660   0.808  21.287   9.493
  795POPC   GL112661   1.106  21.460   9.202
  795POPC   GL212662   1.405  21.265   9.159
  795POPC   C1A12663   1.133  21.705   8.825
  795POPC   D2A12664   1.045  21.542   8.426
  795POPC   C3A12665   1.252  21.563   8.065
  795POPC   C4A12666   1.063  21.430   7.714
  795POPC   C1B12667   1.303  21.204   8.703
  795POPC   C2B12668   1.473  21.147   8.253
  795POPC   C3B12669   1.506  21.179   7.773
  795POPC   C4B12670   1.622  20.977   7.336
  796POPC   NC312671  40.087  26.339   9.440
  796POPC   PO412672  40.153  25.666   9.534
  796POPC   GL112673  40.157  25.914   9.137
  796POPC   GL212674  39.836  26.076   9.067
  796POPC   C1A12675  40.235  26.023   8.692
  796POPC   D2A12676  40.042  25.950   8.312
  796POPC   C3A12677  40.275  26.086   7.967
  796POPC   C4A12678  40.193  26.098   7.538
  796POPC   C1B12679  39.787  26.342   8.697
  796POPC   C2B12680  39.616  26.231   8.275
  796POPC   C3B12681  39.782  26.160   7.859
  796POPC   C4B12682  39.824  26.419   7.459
  797POPC   NC312683   3.599  27.470   9.518
  797POPC   PO412684   3.567  28.151   9.497
  797POPC   GL112685   3.583  27.781   9.121
  797POPC   GL212686   3.426  27.368   9.072
  797POPC   C1A12687   3.708  27.573   8.727
  797POPC   D2A12688   3.531  27.575   8.320
  797POPC   C3A12689   3.823  27.576   7.984
  797POPC   C4A12690   3.816  27.481   7.515
  797POPC   C1B12691   3.206  27.609   8.756
  797POPC   C2B12692   2.987  27.496   8.394
  797POPC   C3B12693   3.128  27.456   8.013
  797POPC   C4B12694   3.389  27.647   7.757
  798POPC   NC312695  33.310  30.155   9.777
  798POPC   PO412696  32.843  29.867   9.428
  798POPC   GL112697  33.181  29.904   9.124
  798POPC   GL212698  32.958  30.041   8.919
  798POPC   C1A12699  33.354  29.733   8.736
  798POPC   D2A12700  33.234  29.611   8.313
  798POPC   C3A12701  32.968  29.806   8.039
  798POPC   C4A12702  32.864  29.620   7.644
  798POPC   C1B12703  32.951  29.984   8.525
  798POPC   C2B12704  32.671  30.181   8.297
  798POPC   C3B12705  32.753  30.416   7.964
  798POPC   C4B12706  32.833  30.125   7.673
  799POPC   NC312707   6.493  41.138   9.467
  799POPC   PO412708   6.910  40.596   9.345
  799POPC   GL112709   6.674  40.837   9.093
  799POPC   GL212710   6.309  40.732   9.206
  799POPC   C1A12711   6.812  40.981   8.697
  799POPC   D2A12712   6.986  40.898   8.301
  799POPC   C3A12713   6.736  40.945   7.952
  799POPC   C4A12714   6.651  40.546   7.815
  799POPC   C1B12715   6.258  40.948   8.805
  799POPC   C2B12716   6.345  40.957   8.365
  799POPC   C3B12717   6.292  41.204   8.001
  799POPC   C4B12718   6.366  41.202   7.592
  800POPC   NC312719  35.701  36.017   9.463
  800POPC   PO412720  36.238  36.256   9.404
  800POPC   GL112721  36.094  36.005   9.072
  800POPC   GL212722  35.822  36.227   9.025
  800POPC   C1A12723  36.128  36.111   8.630
  800POPC   D2A12724  36.379  36.423   8.487
  800POPC   C3A12725  36.466  36.388   8.069
  800POPC   C4A12726  36.407  36.080   7.758
  800POPC   C1B12727  35.649  35.991   8.722
  800POPC   C2B12728  35.690  36.219   8.348
  800POPC   C3B12729  36.002  36.076   8.095
  800POPC   C4B12730  35.903  35.879   7.723
  801POPC   NC312731  29.495  22.602   9.399
  801POPC   PO412732  29.841  23.225   9.432
  801POPC   GL112733  29.833  23.010   9.051
  801POPC   GL212734  29.929  22.693   9.090
  801POPC   C1A12735  29.781  22.846   8.611
  801POPC   D2A12736  30.005  22.949   8.246
  801POPC   C3A12737  29.734  23.070   7.939
  801POPC   C4A12738  29.751  23.366   7.573
  801POPC   C1B12739  30.190  22.570   8.716
  801POPC   C2B12740  30.040  22.452   8.302
  801POPC   C3B12741  30.013  22.627   7.848
  801POPC   C4B12742  30.120  22.640   7.374
  802POPC   NC312743  20.905   0.295   9.421
  802POPC   PO412744  20.375   0.621   9.611
  802POPC   GL112745  20.420   0.478   9.205
  802POPC   GL212746  20.716   0.646   9.059
  802POPC   C1A12747  20.284   0.543   8.778
  802POPC   D2A12748  20.487   0.573   8.382
  802POPC   C3A12749  20.260   0.480   8.017
  802POPC   C4A12750  20.175   0.644   7.609
  802POPC   C1B12751  20.703   0.278   8.810
  802POPC   C2B12752  20.808   0.146   8.430
  802POPC   C3B12753  20.752   0.258   8.041
  802POPC   C4B12754  20.577   0.339   7.665
  803POPC   NC312755  38.020  13.927   9.550
  803POPC   PO412756  37.496  13.490   9.392
  803POPC   GL112757  37.620  13.685   9.066
  803POPC   GL212758  37.586  13.371   8.885
  803POPC   C1A12759  37.538  13.838   8.662
  803POPC   D2A12760  37.759  13.893   8.260
  803POPC   C3A12761  37.590  13.732   7.869
  803POPC   C4A12762  37.417  13.913   7.473
  803POPC   C1B12763  37.975  13.605   8.726
  803POPC   C2B12764  38.167  13.572   8.355
  803POPC   C3B12765  38.015  13.471   7.970
  803POPC   C4B12766  37.956  13.605   7.534
  804POPC   NC312767   8.171   0.769   9.458
  804POPC   PO412768   7.769   0.167   9.459
  804POPC   GL112769   8.022   0.166   9.073
  804POPC   GL212770   8.189   0.502   9.003
  804POPC   C1A12771   8.003   0.226   8.622
  804POPC   D2A12772   8.009   0.656   8.430
  804POPC   C3A12773   8.091   0.619   8.004
  804POPC   C4A12774   8.402   0.626   7.689
  804POPC   C1B12775   8.494   0.298   8.723
  804POPC   C2B12776   8.571   0.454   8.332
  804POPC   C3B12777   8.628   0.238   7.966
  804POPC   C4B12778   8.739   0.282   7.568
  805POPC   NC312779  34.061  25.704   9.476
  805POPC   PO412780  33.629  26.219   9.697
  805POPC   GL112781  33.821  26.054   9.203
  805POPC   GL212782  34.125  26.100   9.105
  805POPC   C1A12783  33.789  26.218   8.688
  805POPC   D2A12784  33.568  26.111   8.273
  805POPC   C3A12785  33.777  26.195   7.878
  805POPC   C4A12786  34.227  26.230   7.778
  805POPC   C1B12787  34.186  25.907   8.689
  805POPC   C2B12788  34.084  25.954   8.233
  805POPC   C3B12789  34.212  25.726   7.832
  805POPC   C4B12790  34.314  25.841   7.388
  806POPC   NC312791  20.583  44.411   9.888
  806POPC   PO412792  20.775  44.863   9.533
  806POPC   GL112793  20.467  44.606   9.265
  806POPC   GL212794  20.369  44.944   9.177
  806POPC   C1A12795  20.195  44.562   8.838
  806POPC   D2A12796  20.114  44.251   8.496
  806POPC   C3A12797  20.414  44.286   8.151
  806POPC   C4A12798  20.537  44.353   7.732
  806POPC   C1B12799  20.647  44.792   8.829
  806POPC   C2B12800  20.578  44.647   8.459
  806POPC   C3B12801  20.733  44.694   8.069
  806POPC   C4B12802  20.786  44.885   7.681
  807POPC   NC312803  21.225   2.546   9.573
  807POPC   PO412804  21.694   2.974   9.645
  807POPC   GL112805  21.484   2.891   9.226
  807POPC   GL212806  21.811   2.990   9.136
  807POPC   C1A12807  21.270   2.849   8.773
  807POPC   D2A12808  21.271   3.019   8.344
  807POPC   C3A12809  21.296   2.732   8.013
  807POPC   C4A12810  21.150   2.662   7.599
  807POPC   C1B12811  21.761   2.726   8.802
  807POPC   C2B12812  21.818   2.878   8.405
  807POPC   C3B12813  21.753   3.006   8.025
  807POPC   C4B12814  21.600   2.897   7.645
  808POPC   NC312815  21.975  23.503   9.799
  808POPC   PO412816  22.205  24.203   9.653
  808POPC   GL112817  21.966  24.064   9.205
  808POPC   GL212818  21.950  23.671   9.122
  808POPC   C1A12819  22.150  23.963   8.762
  808POPC   D2A12820  22.117  23.725   8.379
  808POPC   C3A12821  22.312  23.916   8.060
  808POPC   C4A12822  22.165  24.080   7.722
  808POPC   C1B12823  22.198  23.436   8.803
  808POPC   C2B12824  22.339  23.278   8.367
  808POPC   C3B12825  22.292  23.392   7.896
  808POPC   C4B12826  22.323  23.303   7.422
  809POPC   NC312827  16.041   6.791   9.389
  809POPC   PO412828  15.735   6.188   9.401
  809POPC   GL112829  15.808   6.437   9.050
  809POPC   GL212830  16.169   6.485   8.980
  809POPC   C1A12831  15.767   6.525   8.609
  809POPC   D2A12832  15.971   6.758   8.279
  809POPC   C3A12833  16.156   6.432   8.049
  809POPC   C4A12834  16.169   6.240   7.654
  809POPC   C1B12835  16.099   6.911   8.765
  809POPC   C2B12836  16.279   7.161   8.439
  809POPC   C3B12837  16.288   7.080   8.012
  809POPC   C4B12838  16.199   6.795   7.716
  810POPC   NC312839  11.749  12.205   9.789
  810POPC   PO412840  11.178  11.986   9.589
  810POPC   GL112841  11.255  11.933   9.143
  810POPC   GL212842  11.461  11.643   9.258
  810POPC   C1A12843  11.276  12.209   8.762
  810POPC   D2A12844  11.552  12.404   8.460
  810POPC   C3A12845  11.491  12.271   8.046
  810POPC   C4A12846  11.071  12.212   7.863
  810POPC   C1B12847  11.447  11.615   8.808
  810POPC   C2B12848  11.481  11.880   8.449
  810POPC   C3B12849  11.268  11.831   8.113
  810POPC   C4B12850  11.413  11.808   7.764
  811POPC   NC312851  14.151  13.757   9.557
  811POPC   PO412852  14.794  13.539   9.731
  811POPC   GL112853  14.533  13.591   9.265
  811POPC   GL212854  14.208  13.614   9.072
  811POPC   C1A12855  14.628  13.643   8.808
  811POPC   D2A12856  14.458  13.891   8.485
  811POPC   C3A12857  14.611  13.779   8.068
  811POPC   C4A12858  14.578  13.543   7.717
  811POPC   C1B12859  14.228  13.333   8.688
  811POPC   C2B12860  14.200  13.474   8.265
  811POPC   C3B12861  14.109  13.925   8.117
  811POPC   C4B12862  14.242  13.958   7.730
  812POPC   NC312863  42.575   9.614   9.377
  812POPC   PO412864  43.200   9.824   9.480
  812POPC   GL112865  42.952   9.937   9.161
  812POPC   GL212866  42.905   9.619   9.007
  812POPC   C1A12867  43.151   9.997   8.795
  812POPC   D2A12868  43.360   9.949   8.431
  812POPC   C3A12869  43.130   9.982   8.055
  812POPC   C4A12870  43.240   9.728   7.712
  812POPC   C1B12871  43.062   9.533   8.599
  812POPC   C2B12872  43.110   9.456   8.207
  812POPC   C3B12873  42.785   9.602   8.014
  812POPC   C4B12874  42.710   9.642   7.638
  813POPC   NC312875  13.775  41.237   9.583
  813POPC   PO412876  13.345  41.780   9.574
  813POPC   GL112877  13.340  41.486   9.195
  813POPC   GL212878  13.686  41.473   9.132
  813POPC   C1A12879  13.363  41.440   8.728
  813POPC   D2A12880  13.295  41.724   8.376
  813POPC   C3A12881  13.459  41.665   7.969
  813POPC   C4A12882  13.616  41.259   7.849
  813POPC   C1B12883  13.822  41.797   8.821
  813POPC   C2B12884  14.079  41.783   8.436
  813POPC   C3B12885  13.944  41.822   8.001
  813POPC   C4B12886  13.822  41.629   7.587
  814POPC   NC312887  42.097  12.754   9.522
  814POPC   PO412888  42.533  13.271   9.344
  814POPC   GL112889  42.322  12.948   9.090
  814POPC   GL212890  42.307  12.626   9.095
  814POPC   C1A12891  42.070  12.904   8.713
  814POPC   D2A12892  41.920  13.141   8.351
  814POPC   C3A12893  42.043  12.855   8.048
  814POPC   C4A12894  42.275  12.814   7.683
  814POPC   C1B12895  42.477  12.460   8.756
  814POPC   C2B12896  42.339  12.576   8.378
  814POPC   C3B12897  42.373  12.412   7.990
  814POPC   C4B12898  42.506  12.313   7.585
  815POPC   NC312899  19.729  42.640   9.533
  815POPC   PO412900  19.961  42.052   9.472
  815POPC   GL112901  19.802  42.356   9.122
  815POPC   GL212902  19.481  42.297   9.210
  815POPC   C1A12903  19.690  42.510   8.693
  815POPC   D2A12904  19.880  42.358   8.304
  815POPC   C3A12905  19.803  42.538   7.902
  815POPC   C4A12906  19.931  42.331   7.517
  815POPC   C1B12907  19.335  42.168   8.800
  815POPC   C2B12908  19.389  42.231   8.336
  815POPC   C3B12909  19.616  42.058   7.935
  815POPC   C4B12910  19.497  42.076   7.481
  816POPC   NC312911   8.819   4.741   9.459
  816POPC   PO412912   9.299   5.235   9.490
  816POPC   GL112913   9.138   5.056   9.111
  816POPC   GL212914   9.342   4.748   9.020
  816POPC   C1A12915   8.980   5.279   8.721
  816POPC   D2A12916   8.961   5.557   8.334
  816POPC   C3A12917   8.962   5.368   7.913
  816POPC   C4A12918   8.624   5.212   7.642
  816POPC   C1B12919   9.408   5.023   8.671
  816POPC   C2B12920   9.292   5.174   8.281
  816POPC   C3B12921   9.348   5.032   7.895
  816POPC   C4B12922   9.581   4.953   7.561
  817POPC   NC312923  41.381  23.237   9.596
  817POPC   PO412924  41.359  23.931   9.542
  817POPC   GL112925  41.446  23.747   9.142
  817POPC   GL212926  41.194  23.482   9.157
  817POPC   C1A12927  41.601  23.804   8.691
  817POPC   D2A12928  41.870  23.834   8.307
  817POPC   C3A12929  41.744  23.621   7.946
  817POPC   C4A12930  41.793  23.207   7.830
  817POPC   C1B12931  41.386  23.333   8.768
  817POPC   C2B12932  41.547  23.326   8.344
  817POPC   C3B12933  41.285  23.379   7.985
  817POPC   C4B12934  41.397  23.466   7.571
  818POPC   NC312935  15.734  33.999   9.424
  818POPC   PO412936  16.367  33.749   9.486
  818POPC   GL112937  16.080  33.660   9.111
  818POPC   GL212938  15.704  33.563   9.110
  818POPC   C1A12939  15.916  33.752   8.684
  818POPC   D2A12940  15.911  33.984   8.298
  818POPC   C3A12941  16.151  33.777   7.977
  818POPC   C4A12942  16.076  33.815   7.518
  818POPC   C1B12943  15.607  33.348   8.693
  818POPC   C2B12944  15.842  33.430   8.270
  818POPC   C3B12945  15.720  33.550   7.838
  818POPC   C4B12946  15.649  33.286   7.481
  819POPC   NC312947  34.345  15.366   9.676
  819POPC   PO412948  34.746  14.859   9.387
  819POPC   GL112949  34.513  14.970   9.040
  819POPC   GL212950  34.404  15.228   9.193
  819POPC   C1A12951  34.273  14.899   8.660
  819POPC   D2A12952  34.271  14.916   8.199
  819POPC   C3A12953  34.588  15.200   8.093
  819POPC   C4A12954  34.873  15.251   7.772
  819POPC   C1B12955  34.439  15.383   8.749
  819POPC   C2B12956  34.191  15.441   8.422
  819POPC   C3B12957  34.124  15.411   8.057
  819POPC   C4B12958  34.253  15.219   7.692
  820POPC   NC312959  25.332  41.477   9.620
  820POPC   PO412960  24.780  41.157   9.399
  820POPC   GL112961  25.028  41.337   9.111
  820POPC   GL212962  25.255  41.599   9.117
  820POPC   C1A12963  25.069  41.266   8.685
  820POPC   D2A12964  25.002  41.536   8.339
  820POPC   C3A12965  25.238  41.436   8.000
  820POPC   C4A12966  25.130  41.543   7.616
  820POPC   C1B12967  25.464  41.592   8.744
  820POPC   C2B12968  25.528  41.695   8.342
  820POPC   C3B12969  25.651  41.794   7.942
  820POPC   C4B12970  25.630  41.483   7.639
  821POPC   NC312971  18.709  38.621   9.577
  821POPC   PO412972  19.429  38.424   9.487
  821POPC   GL112973  19.079  38.502   9.216
  821POPC   GL212974  19.030  38.198   9.011
  821POPC   C1A12975  18.969  38.646   8.777
  821POPC   D2A12976  19.063  38.319   8.489
  821POPC   C3A12977  19.150  38.365   8.086
  821POPC   C4A12978  19.130  38.137   7.714
  821POPC   C1B12979  19.412  38.421   8.839
  821POPC   C2B12980  19.477  38.709   8.532
  821POPC   C3B12981  19.566  38.714   8.107
  821POPC   C4B12982  19.386  38.597   7.712
  822POPC   NC312983  23.400  28.856   9.327
  822POPC   PO412984  24.042  29.253   9.345
  822POPC   GL112985  23.681  29.197   9.074
  822POPC   GL212986  23.451  29.494   9.089
  822POPC   C1A12987  23.702  28.938   8.688
  822POPC   D2A12988  23.713  28.929   8.234
  822POPC   C3A12989  23.929  29.219   7.952
  822POPC   C4A12990  24.009  29.090   7.583
  822POPC   C1B12991  23.309  29.326   8.704
  822POPC   C2B12992  23.169  29.338   8.282
  822POPC   C3B12993  23.415  29.220   7.907
  822POPC   C4B12994  23.487  29.186   7.406
  823POPC   NC312995  18.915  13.823   9.573
  823POPC   PO412996  18.938  13.150   9.480
  823POPC   GL112997  19.070  13.455   9.169
  823POPC   GL212998  19.070  13.835   9.092
  823POPC   C1A12999  18.995  13.385   8.771
  823POPC   D2A13000  19.142  13.387   8.388
  823POPC   C3A13001  18.868  13.250   8.087
  823POPC   C4A13002  18.920  13.511   7.739
  823POPC   C1B13003  18.698  13.788   8.837
  823POPC   C2B13004  18.695  13.671   8.414
  823POPC   C3B13005  19.009  13.840   8.142
  823POPC   C4B13006  19.014  14.007   7.730
  824POPC   NC313007   1.732  27.190   9.269
  824POPC   PO413008   2.296  27.288   9.599
  824POPC   GL113009   2.146  27.511   9.218
  824POPC   GL213010   2.060  27.881   9.208
  824POPC   C1A13011   2.186  27.466   8.778
  824POPC   D2A13012   2.008  27.627   8.412
  824POPC   C3A13013   2.174  27.537   8.036
  824POPC   C4A13014   2.035  27.630   7.643
  824POPC   C1B13015   1.799  28.058   8.815
  824POPC   C2B13016   1.650  27.989   8.391
  824POPC   C3B13017   1.775  27.912   7.986
  824POPC   C4B13018   1.765  28.054   7.541
  825POPC   NC313019  20.753  17.630   9.452
  825POPC   PO413020  20.440  17.027   9.388
  825POPC   GL113021  20.681  17.252   9.090
  825POPC   GL213022  20.673  17.633   8.943
  825POPC   C1A13023  20.830  17.173   8.701
  825POPC   D2A13024  20.943  17.129   8.305
  825POPC   C3A13025  20.811  17.466   8.046
  825POPC   C4A13026  20.601  17.298   7.699
  825POPC   C1B13027  20.376  17.396   8.674
  825POPC   C2B13028  20.377  17.277   8.242
  825POPC   C3B13029  20.305  17.601   7.939
  825POPC   C4B13030  20.204  17.902   7.591
  826POPC   NC313031  41.664  35.870   9.385
  826POPC   PO413032  41.050  36.127   9.500
  826POPC   GL113033  41.261  36.022   9.124
  826POPC   GL213034  41.484  36.261   9.085
  826POPC   C1A13035  41.433  35.871   8.713
  826POPC   D2A13036  41.481  36.080   8.309
  826POPC   C3A13037  41.407  35.870   7.900
  826POPC   C4A13038  41.593  35.979   7.485
  826POPC   C1B13039  41.327  36.383   8.692
  826POPC   C2B13040  41.310  36.575   8.285
  826POPC   C3B13041  41.283  36.374   7.884
  826POPC   C4B13042  41.377  36.471   7.455
  827POPC   NC313043  25.158  40.914   9.410
  827POPC   PO413044  25.639  40.414   9.324
  827POPC   GL113045  25.315  40.592   9.060
  827POPC   GL213046  25.385  40.978   8.997
  827POPC   C1A13047  25.240  40.691   8.624
  827POPC   D2A13048  25.008  40.843   8.327
  827POPC   C3A13049  25.126  40.661   7.975
  827POPC   C4A13050  25.222  41.020   7.694
  827POPC   C1B13051  25.598  41.105   8.729
  827POPC   C2B13052  25.444  41.138   8.363
  827POPC   C3B13053  25.572  40.875   8.063
  827POPC   C4B13054  25.636  40.679   7.690
  828POPC   NC313055  14.976  25.684   9.526
  828POPC   PO413056  15.243  26.295   9.674
  828POPC   GL113057  15.028  26.295   9.251
  828POPC   GL213058  15.008  25.952   9.079
  828POPC   C1A13059  15.129  26.434   8.843
  828POPC   D2A13060  15.134  26.158   8.491
  828POPC   C3A13061  15.376  26.206   8.112
  828POPC   C4A13062  15.132  26.117   7.744
  828POPC   C1B13063  15.288  25.745   8.766
  828POPC   C2B13064  15.262  25.540   8.360
  828POPC   C3B13065  15.239  25.666   7.933
  828POPC   C4B13066  15.424  25.774   7.503
  829POPC   NC313067  29.102   1.404   9.567
  829POPC   PO413068  28.847   2.145   9.507
  829POPC   GL113069  28.910   1.794   9.238
  829POPC   GL213070  29.248   1.927   9.222
  829POPC   C1A13071  29.011   1.750   8.790
  829POPC   D2A13072  28.978   2.119   8.501
  829POPC   C3A13073  28.930   2.073   8.044
  829POPC   C4A13074  29.129   1.863   7.694
  829POPC   C1B13075  29.376   2.127   8.842
  829POPC   C2B13076  29.522   2.221   8.427
  829POPC   C3B13077  29.447   2.157   7.985
  829POPC   C4B13078  29.648   1.920   7.642
  830POPC   NC313079  32.713  12.408   9.676
  830POPC   PO413080  32.091  12.238   9.727
  830POPC   GL113081  32.318  12.209   9.321
  830POPC   GL213082  32.311  11.845   9.251
  830POPC   C1A13083  32.284  12.189   8.855
  830POPC   D2A13084  32.376  12.363   8.430
  830POPC   C3A13085  32.101  12.274   8.086
  830POPC   C4A13086  32.205  12.145   7.659
  830POPC   C1B13087  32.222  11.672   8.858
  830POPC   C2B13088  32.327  11.831   8.451
  830POPC   C3B13089  32.241  11.766   8.018
  830POPC   C4B13090  32.150  11.634   7.607
  831POPC   NC313091   5.659  26.486   9.365
  831POPC   PO413092   5.024  26.097   9.449
  831POPC   GL113093   5.147  25.957   9.062
  831POPC   GL213094   5.465  26.067   9.073
  831POPC   C1A13095   5.186  25.905   8.618
  831POPC   D2A13096   5.015  25.951   8.212
  831POPC   C3A13097   5.253  25.864   7.882
  831POPC   C4A13098   4.874  26.031   7.687
  831POPC   C1B13099   5.430  26.354   8.701
  831POPC   C2B13100   5.420  26.255   8.254
  831POPC   C3B13101   5.219  26.372   7.843
  831POPC   C4B13102   5.256  26.138   7.378
  832POPC   NC313103  31.124  22.628   9.498
  832POPC   PO413104  31.359  22.009   9.522
  832POPC   GL113105  31.249  22.140   9.154
  832POPC   GL213106  31.589  22.137   9.053
  832POPC   C1A13107  31.100  21.978   8.770
  832POPC   D2A13108  31.224  22.096   8.354
  832POPC   C3A13109  31.151  22.070   7.906
  832POPC   C4A13110  31.120  22.416   7.575
  832POPC   C1B13111  31.829  22.211   8.692
  832POPC   C2B13112  31.690  22.300   8.288
  832POPC   C3B13113  31.653  22.218   7.871
  832POPC   C4B13114  32.029  22.326   7.700
  833POPC   NC313115  27.538  41.912   9.454
  833POPC   PO413116  27.296  42.595   9.389
  833POPC   GL113117  27.522  42.307   9.102
  833POPC   GL213118  27.613  42.578   8.929
  833POPC   C1A13119  27.366  42.184   8.694
  833POPC   D2A13120  27.285  42.295   8.268
  833POPC   C3A13121  27.691  42.218   8.129
  833POPC   C4A13122  27.853  41.962   7.834
  833POPC   C1B13123  27.415  42.710   8.566
  833POPC   C2B13124  27.488  42.895   8.173
  833POPC   C3B13125  27.582  42.613   7.833
  833POPC   C4B13126  27.325  42.272   7.725
  834POPC   NC313127  27.838  40.802   9.283
  834POPC   PO413128  27.178  40.967   9.374
  834POPC   GL113129  27.381  40.783   9.060
  834POPC   GL213130  27.588  41.049   8.927
  834POPC   C1A13131  27.551  40.579   8.713
  834POPC   D2A13132  27.357  40.712   8.361
  834POPC   C3A13133  27.466  40.508   8.005
  834POPC   C4A13134  27.607  40.452   7.630
  834POPC   C1B13135  27.692  41.337   8.616
  834POPC   C2B13136  27.377  41.265   8.313
  834POPC   C3B13137  27.296  41.014   7.951
  834POPC   C4B13138  27.705  40.966   7.871
  835POPC   NC313139  20.659  21.822   9.536
  835POPC   PO413140  20.960  22.412   9.536
  835POPC   GL113141  20.724  22.183   9.187
  835POPC   GL213142  20.915  21.922   9.103
  835POPC   C1A13143  20.498  22.000   8.821
  835POPC   D2A13144  20.341  21.930   8.392
  835POPC   C3A13145  20.462  22.159   8.024
  835POPC   C4A13146  20.542  22.042   7.610
  835POPC   C1B13147  21.006  22.101   8.722
  835POPC   C2B13148  20.872  22.200   8.332
  835POPC   C3B13149  21.143  22.077   8.003
  835POPC   C4B13150  21.063  22.011   7.596
  836POPC   NC313151  13.842  19.815   9.216
  836POPC   PO413152  13.408  20.177   9.463
  836POPC   GL113153  13.363  19.985   9.106
  836POPC   GL213154  13.436  19.683   8.953
  836POPC   C1A13155  13.496  20.139   8.695
  836POPC   D2A13156  13.307  20.270   8.306
  836POPC   C3A13157  13.582  20.114   7.956
  836POPC   C4A13158  13.564  19.975   7.533
  836POPC   C1B13159  13.532  19.407   8.665
  836POPC   C2B13160  13.771  19.564   8.323
  836POPC   C3B13161  13.619  19.590   7.909
  836POPC   C4B13162  13.720  19.490   7.504
  837POPC   NC313163  27.599   6.894   9.493
  837POPC   PO413164  27.458   6.327   9.456
  837POPC   GL113165  27.717   6.571   9.127
  837POPC   GL213166  27.898   6.914   9.070
  837POPC   C1A13167  27.917   6.545   8.719
  837POPC   D2A13168  27.918   6.828   8.382
  837POPC   C3A13169  27.824   6.577   8.010
  837POPC   C4A13170  27.430   6.581   7.817
  837POPC   C1B13171  27.527   6.877   8.777
  837POPC   C2B13172  27.396   6.892   8.341
  837POPC   C3B13173  27.632   7.056   7.991
  837POPC   C4B13174  27.559   7.024   7.567
  838POPC   NC313175   1.559   9.896   9.479
  838POPC   PO413176   0.930   9.851   9.423
  838POPC   GL113177   1.098   9.669   9.089
  838POPC   GL213178   1.448   9.586   9.060
  838POPC   C1A13179   1.023   9.728   8.702
  838POPC   D2A13180   1.281   9.900   8.416
  838POPC   C3A13181   1.135   9.824   8.030
  838POPC   C4A13182   1.270   9.966   7.651
  838POPC   C1B13183   1.466   9.433   8.633
  838POPC   C2B13184   1.417   9.422   8.197
  838POPC   C3B13185   1.429   9.435   7.768
  838POPC   C4B13186   1.472   9.614   7.341
  839POPC   NC313187  42.747  27.754   9.420
  839POPC   PO413188  43.260  27.331   9.470
  839POPC   GL113189  43.000  27.380   9.118
  839POPC   GL213190  42.706  27.141   9.199
  839POPC   C1A13191  43.190  27.467   8.687
  839POPC   D2A13192  43.371  27.781   8.388
  839POPC   C3A13193  43.151  27.925   8.018
  839POPC   C4A13194  43.144  27.688   7.593
  839POPC   C1B13195  42.725  27.225   8.733
  839POPC   C2B13196  42.784  27.388   8.348
  839POPC   C3B13197  43.098  27.421   8.038
  839POPC   C4B13198  42.965  27.211   7.636
  840POPC   NC313199  40.031  43.490   9.446
  840POPC   PO413200  40.349  42.892   9.444
  840POPC   GL113201  40.150  42.767   9.090
  840POPC   GL213202  39.930  43.021   9.103
  840POPC   C1A13203  40.042  42.866   8.649
  840POPC   D2A13204  39.956  42.909   8.242
  840POPC   C3A13205  40.169  43.211   8.125
  840POPC   C4A13206  40.364  43.234   7.756
  840POPC   C1B13207  39.779  43.314   8.787
  840POPC   C2B13208  39.635  43.325   8.359
  840POPC   C3B13209  39.539  43.190   7.981
  840POPC   C4B13210  39.857  43.047   7.742
  841POPC   NC313211   9.730  26.827   9.415
  841POPC   PO413212   9.771  26.216   9.103
  841POPC   GL113213   9.985  26.617   8.991
  841POPC   GL213214  10.027  26.984   9.029
  841POPC   C1A13215   9.735  26.787   8.650
  841POPC   D2A13216   9.484  26.956   8.273
  841POPC   C3A13217   9.646  26.826   7.888
  841POPC   C4A13218   9.616  26.402   7.702
  841POPC   C1B13219  10.050  27.230   8.689
  841POPC   C2B13220  10.017  27.048   8.328
  841POPC   C3B13221  10.137  26.937   7.963
  841POPC   C4B13222  10.271  27.223   7.735
  842POPC   NC313223   5.085   2.205   9.481
  842POPC   PO413224   5.038   1.481   9.482
  842POPC   GL113225   5.172   1.798   9.197
  842POPC   GL213226   4.835   1.850   9.071
  842POPC   C1A13227   5.252   2.028   8.826
  842POPC   D2A13228   4.905   2.148   8.553
  842POPC   C3A13229   5.043   2.123   8.142
  842POPC   C4A13230   5.068   2.212   7.718
  842POPC   C1B13231   4.894   1.641   8.689
  842POPC   C2B13232   5.099   1.635   8.293
  842POPC   C3B13233   4.927   1.722   7.878
  842POPC   C4B13234   4.553   1.596   7.776
  843POPC   NC313235   1.271  24.838   9.479
  843POPC   PO413236   1.154  24.146   9.499
  843POPC   GL113237   1.104  24.437   9.173
  843POPC   GL213238   1.443  24.501   9.114
  843POPC   C1A13239   0.956  24.582   8.775
  843POPC   D2A13240   1.247  24.715   8.473
  843POPC   C3A13241   1.092  24.614   8.074
  843POPC   C4A13242   1.208  24.515   7.667
  843POPC   C1B13243   1.564  24.314   8.707
  843POPC   C2B13244   1.462  24.274   8.259
  843POPC   C3B13245   1.666  24.456   7.903
  843POPC   C4B13246   1.700  24.431   7.448
  844POPC   NC313247  37.111   9.724   9.622
  844POPC   PO413248  36.584  10.155   9.606
  844POPC   GL113249  36.731   9.806   9.258
  844POPC   GL213250  36.922   9.446   9.253
  844POPC   C1A13251  36.983   9.772   8.865
  844POPC   D2A13252  37.051   9.968   8.475
  844POPC   C3A13253  36.943   9.808   8.069
  844POPC   C4A13254  37.107   9.903   7.661
  844POPC   C1B13255  36.677   9.358   8.895
  844POPC   C2B13256  36.710   9.444   8.490
  844POPC   C3B13257  36.797   9.301   8.099
  844POPC   C4B13258  36.970   9.433   7.717
  845POPC   NC313259  42.033  30.605   9.412
  845POPC   PO413260  42.433  31.110   9.367
  845POPC   GL113261  42.126  30.995   9.118
  845POPC   GL213262  42.390  30.694   9.070
  845POPC   C1A13263  42.030  30.819   8.743
  845POPC   D2A13264  42.377  30.893   8.468
  845POPC   C3A13265  42.188  31.032   8.091
  845POPC   C4A13266  42.314  30.930   7.704
  845POPC   C1B13267  42.605  30.363   8.878
  845POPC   C2B13268  42.609  30.387   8.450
  845POPC   C3B13269  42.344  30.515   8.111
  845POPC   C4B13270  42.577  30.472   7.728
  846POPC   NC313271  19.545   1.714   9.891
  846POPC   PO413272  19.181   1.357   9.408
  846POPC   GL113273  19.069   1.302   9.026
  846POPC   GL213274  19.342   1.524   8.925
  846POPC   C1A13275  19.106   1.218   8.613
  846POPC   D2A13276  19.297   1.448   8.347
  846POPC   C3A13277  19.078   1.394   7.998
  846POPC   C4A13278  19.088   1.438   7.584
  846POPC   C1B13279  19.546   1.138   8.827
  846POPC   C2B13280  19.526   0.973   8.401
  846POPC   C3B13281  19.501   1.111   7.956
  846POPC   C4B13282  19.566   1.194   7.501
  847POPC   NC313283  44.631  24.193   9.679
  847POPC   PO413284  44.332  24.730   9.396
  847POPC   GL113285  44.624  24.582   9.058
  847POPC   GL213286  44.599  24.258   9.048
  847POPC   C1A13287  44.921  24.459   8.706
  847POPC   D2A13288  44.799  24.543   8.297
  847POPC   C3A13289   0.100  24.578   8.012
  847POPC   C4A13290  44.907  24.498   7.622
  847POPC   C1B13291  44.412  24.411   8.627
  847POPC   C2B13292  44.338  24.244   8.219
  847POPC   C3B13293  44.459  24.418   7.846
  847POPC   C4B13294  44.431  24.629   7.482
  848POPC   NC313295  33.980  33.066   9.566
  848POPC   PO413296  33.580  32.496   9.772
  848POPC   GL113297  33.620  32.832   9.344
  848POPC   GL213298  33.986  32.730   9.186
  848POPC   C1A13299  33.639  32.982   8.880
  848POPC   D2A13300  33.593  33.248   8.505
  848POPC   C3A13301  33.582  33.027   8.108
  848POPC   C4A13302  33.712  33.091   7.677
  848POPC   C1B13303  34.145  32.992   8.812
  848POPC   C2B13304  34.023  33.005   8.347
  848POPC   C3B13305  34.153  32.972   7.888
  848POPC   C4B13306  34.117  32.736   7.463
  849POPC   NC313307  43.734  12.398   9.499
  849POPC   PO413308  44.227  12.887   9.479
  849POPC   GL113309  44.082  12.636   9.105
  849POPC   GL213310  43.701  12.694   9.052
  849POPC   C1A13311  44.003  12.656   8.649
  849POPC   D2A13312  43.843  12.846   8.269
  849POPC   C3A13313  44.080  12.931   7.912
  849POPC   C4A13314  44.278  12.763   7.569
  849POPC   C1B13315  43.711  13.075   8.734
  849POPC   C2B13316  43.524  13.228   8.317
  849POPC   C3B13317  43.599  13.137   7.860
  849POPC   C4B13318  43.434  13.147   7.412
  850POPC   NC313319  25.033  42.397   9.806
  850POPC   PO413320  25.414  41.944   9.475
  850POPC   GL113321  25.233  42.184   9.077
  850POPC   GL213322  24.873  42.184   9.007
  850POPC   C1A13323  25.164  42.422   8.651
  850POPC   D2A13324  25.394  42.476   8.240
  850POPC   C3A13325  25.179  42.445   7.835
  850POPC   C4A13326  24.876  42.693   7.574
  850POPC   C1B13327  25.046  41.891   8.709
  850POPC   C2B13328  25.166  42.030   8.314
  850POPC   C3B13329  25.159  41.945   7.925
  850POPC   C4B13330  25.044  42.045   7.534
  851POPC   NC313331   3.717  44.885   9.488
  851POPC   PO413332   3.246  44.412   9.570
  851POPC   GL113333   3.571  44.457   9.234
  851POPC   GL213334   3.459  44.774   9.061
  851POPC   C1A13335   3.773  44.473   8.805
  851POPC   D2A13336   3.634  44.647   8.389
  851POPC   C3A13337   3.574  44.398   7.991
  851POPC   C4A13338   3.561  44.494   7.544
  851POPC   C1B13339   3.150  44.874   8.738
  851POPC   C2B13340   3.185  44.987   8.295
  851POPC   C3B13341   3.489  44.914   7.958
  851POPC   C4B13342   3.865  44.870   7.692
  852POPC   NC313343  18.061  14.573   9.408
  852POPC   PO413344  18.568  14.080   9.410
  852POPC   GL113345  18.344  14.284   9.104
  852POPC   GL213346  18.490  14.582   8.944
  852POPC   C1A13347  18.331  14.136   8.719
  852POPC   D2A13348  18.444  14.117   8.336
  852POPC   C3A13349  18.266  14.426   8.108
  852POPC   C4A13350  18.266  14.318   7.702
  852POPC   C1B13351  18.060  14.587   8.733
  852POPC   C2B13352  17.843  14.703   8.322
  852POPC   C3B13353  17.861  14.716   7.853
  852POPC   C4B13354  17.910  14.571   7.430
  853POPC   NC313355   5.673  28.899   9.475
  853POPC   PO413356   6.164  29.375   9.513
  853POPC   GL113357   5.829  29.262   9.130
  853POPC   GL213358   5.550  28.987   9.009
  853POPC   C1A13359   5.778  29.285   8.660
  853POPC   D2A13360   6.104  29.428   8.361
  853POPC   C3A13361   6.153  29.210   7.962
  853POPC   C4A13362   6.010  29.205   7.510
  853POPC   C1B13363   5.719  28.764   8.631
  853POPC   C2B13364   5.794  28.902   8.208
  853POPC   C3B13365   5.632  28.996   7.785
  853POPC   C4B13366   5.586  29.032   7.277
  854POPC   NC313367  34.497  24.807   9.403
  854POPC   PO413368  34.949  24.334   9.509
  854POPC   GL113369  34.766  24.428   9.125
  854POPC   GL213370  34.449  24.316   9.181
  854POPC   C1A13371  34.783  24.557   8.688
  854POPC   D2A13372  34.940  24.372   8.319
  854POPC   C3A13373  34.875  24.535   7.980
  854POPC   C4A13374  34.537  24.299   7.808
  854POPC   C1B13375  34.294  24.473   8.785
  854POPC   C2B13376  34.370  24.486   8.319
  854POPC   C3B13377  34.423  24.751   7.957
  854POPC   C4B13378  34.303  24.854   7.586
  855POPC   NC313379  10.527  39.105   9.527
  855POPC   PO413380  10.152  39.720   9.451
  855POPC   GL113381  10.276  39.380   9.177
  855POPC   GL213382  10.643  39.334   9.104
  855POPC   C1A13383  10.258  39.190   8.772
  855POPC   D2A13384  10.336  39.372   8.376
  855POPC   C3A13385  10.250  39.190   7.990
  855POPC   C4A13386  10.408  38.998   7.646
  855POPC   C1B13387  10.946  39.245   8.810
  855POPC   C2B13388  10.843  39.300   8.390
  855POPC   C3B13389  10.781  39.171   7.982
  855POPC   C4B13390  11.042  38.983   7.695
  856POPC   NC313391  21.115   9.374   9.458
  856POPC   PO413392  21.636   8.954   9.468
  856POPC   GL113393  21.479   8.999   9.096
  856POPC   GL213394  21.130   9.006   9.083
  856POPC   C1A13395  21.423   8.830   8.702
  856POPC   D2A13396  21.333   9.040   8.357
  856POPC   C3A13397  21.512   8.910   8.002
  856POPC   C4A13398  21.502   8.578   7.708
  856POPC   C1B13399  21.053   9.337   8.784
  856POPC   C2B13400  21.101   9.520   8.367
  856POPC   C3B13401  21.102   9.292   7.974
  856POPC   C4B13402  21.157   8.985   7.657
  857POPC   NC313403  43.506   3.024   9.481
  857POPC   PO413404  44.025   2.595   9.636
  857POPC   GL113405  43.908   2.762   9.224
  857POPC   GL213406  44.094   2.532   9.056
  857POPC   C1A13407  43.778   2.968   8.827
  857POPC   D2A13408  43.676   2.875   8.370
  857POPC   C3A13409  43.796   3.045   7.992
  857POPC   C4A13410  43.701   2.825   7.635
  857POPC   C1B13411  44.063   2.606   8.618
  857POPC   C2B13412  44.180   2.790   8.239
  857POPC   C3B13413  44.332   2.616   7.867
  857POPC   C4B13414  44.007   2.413   7.710
  858POPC   NC313415   7.192   7.900   9.493
  858POPC   PO413416   7.671   8.376   9.452
  858POPC   GL113417   7.511   8.208   9.137
  858POPC   GL213418   7.583   7.871   9.133
  858POPC   C1A13419   7.619   8.320   8.724
  858POPC   D2A13420   7.411   8.345   8.363
  858POPC   C3A13421   7.523   8.109   8.038
  858POPC   C4A13422   7.385   8.105   7.668
  858POPC   C1B13423   7.288   7.942   8.775
  858POPC   C2B13424   7.231   7.859   8.355
  858POPC   C3B13425   7.034   7.866   7.938
  858POPC   C4B13426   7.032   7.685   7.504
  859POPC   NC313427   0.661  24.481   9.434
  859POPC   PO413428  44.932  24.465   9.443
  859POPC   GL113429   0.237  24.493   9.105
  859POPC   GL213430   0.481  24.716   9.030
  859POPC   C1A13431   0.441  24.294   8.735
  859POPC   D2A13432   0.257  24.190   8.340
  859POPC   C3A13433   0.541  24.240   8.020
  859POPC   C4A13434   0.394  24.345   7.667
  859POPC   C1B13435   0.313  24.801   8.656
  859POPC   C2B13436   0.534  24.640   8.321
  859POPC   C3B13437   0.608  24.764   7.885
  859POPC   C4B13438   0.276  24.835   7.581
  860POPC   NC313439  22.454  32.321   9.559
  860POPC   PO413440  21.872  32.420   9.286
  860POPC   GL113441  22.208  32.182   9.131
  860POPC   GL213442  22.427  32.476   9.076
  860POPC   C1A13443  22.078  31.960   8.779
  860POPC   D2A13444  22.215  32.028   8.377
  860POPC   C3A13445  21.951  32.053   8.053
  860POPC   C4A13446  22.124  31.938   7.698
  860POPC   C1B13447  22.182  32.459   8.689
  860POPC   C2B13448  22.069  32.534   8.257
  860POPC   C3B13449  22.283  32.408   7.875
  860POPC   C4B13450  22.554  32.626   7.603
  861POPC   NC313451   0.256   5.285   9.551
  861POPC   PO413452   0.404   4.666   9.739
  861POPC   GL113453   0.418   4.849   9.316
  861POPC   GL213454   0.736   5.018   9.231
  861POPC   C1A13455   0.382   5.003   8.861
  861POPC   D2A13456   0.425   4.779   8.499
  861POPC   C3A13457   0.362   4.933   8.092
  861POPC   C4A13458   0.484   5.099   7.706
  861POPC   C1B13459   0.888   4.936   8.779
  861POPC   C2B13460   0.885   4.693   8.344
  861POPC   C3B13461   0.806   4.749   7.917
  861POPC   C4B13462   0.777   4.796   7.446
  862POPC   NC313463  36.967  44.397   9.294
  862POPC   PO413464  36.937   0.073   9.395
  862POPC   GL113465  36.878  44.869   9.015
  862POPC   GL213466  36.586  44.689   9.075
  862POPC   C1A13467  36.770  44.875   8.577
  862POPC   D2A13468  36.729  44.900   8.125
  862POPC   C3A13469  37.068  44.725   7.893
  862POPC   C4A13470  37.494  44.914   7.834
  862POPC   C1B13471  36.572  44.398   8.722
  862POPC   C2B13472  36.673  44.199   8.347
  862POPC   C3B13473  36.616  44.425   7.991
  862POPC   C4B13474  36.648  44.629   7.615
  863POPC   NC313475   9.211  30.976   9.405
  863POPC   PO413476   9.701  31.480   9.651
  863POPC   GL113477   9.502  31.392   9.251
  863POPC   GL213478   9.390  31.691   9.110
  863POPC   C1A13479   9.672  31.248   8.835
  863POPC   D2A13480  10.004  31.186   8.494
  863POPC   C3A13481   9.967  31.435   8.112
  863POPC   C4A13482   9.772  31.406   7.767
  863POPC   C1B13483   9.457  31.710   8.707
  863POPC   C2B13484   9.542  31.517   8.380
  863POPC   C3B13485   9.409  31.676   7.994
  863POPC   C4B13486   9.448  31.728   7.532
  864POPC   NC313487  18.770  31.953   9.276
  864POPC   PO413488  18.353  32.381   9.580
  864POPC   GL113489  18.325  32.254   9.194
  864POPC   GL213490  18.281  31.921   9.249
  864POPC   C1A13491  18.316  32.350   8.774
  864POPC   D2A13492  18.163  32.198   8.384
  864POPC   C3A13493  18.400  32.368   8.031
  864POPC   C4A13494  18.272  32.316   7.624
  864POPC   C1B13495  18.270  31.842   8.853
  864POPC   C2B13496  18.455  31.739   8.517
  864POPC   C3B13497  18.407  31.832   8.104
  864POPC   C4B13498  18.511  31.792   7.711
  865POPC   NC313499  24.778   4.915   9.293
  865POPC   PO413500  25.237   5.409   9.299
  865POPC   GL113501  25.203   5.116   9.042
  865POPC   GL213502  25.450   4.903   9.186
  865POPC   C1A13503  25.283   5.238   8.643
  865POPC   D2A13504  25.113   5.390   8.319
  865POPC   C3A13505  25.390   5.325   8.043
  865POPC   C4A13506  25.169   5.144   7.773
  865POPC   C1B13507  25.412   4.761   8.748
  865POPC   C2B13508  25.623   4.671   8.357
  865POPC   C3B13509  25.458   4.747   7.946
  865POPC   C4B13510  25.416   4.800   7.498
  866POPC   NC313511  41.095   7.876   9.308
  866POPC   PO413512  41.545   8.326   9.592
  866POPC   GL113513  41.547   8.125   9.194
  866POPC   GL213514  41.257   8.275   9.041
  866POPC   C1A13515  41.765   8.236   8.805
  866POPC   D2A13516  41.935   8.326   8.390
  866POPC   C3A13517  41.789   8.214   7.955
  866POPC   C4A13518  41.590   8.506   7.669
  866POPC   C1B13519  41.393   7.892   8.749
  866POPC   C2B13520  41.488   8.001   8.334
  866POPC   C3B13521  41.276   8.190   7.986
  866POPC   C4B13522  41.227   7.904   7.711
  867POPC   NC313523   3.302  26.746   9.475
  867POPC   PO413524   3.858  27.058   9.488
  867POPC   GL113525   3.714  26.858   9.114
  867POPC   GL213526   3.418  26.747   8.977
  867POPC   C1A13527   3.870  26.652   8.731
  867POPC   D2A13528   3.780  26.779   8.299
  867POPC   C3A13529   3.451  26.660   8.024
  867POPC   C4A13530   3.543  26.688   7.621
  867POPC   C1B13531   3.533  27.066   8.677
  867POPC   C2B13532   3.379  27.103   8.296
  867POPC   C3B13533   3.548  27.152   7.894
  867POPC   C4B13534   3.423  27.172   7.481
  868POPC   NC313535  14.575  23.778   9.656
  868POPC   PO413536  13.959  23.896   9.520
  868POPC   GL113537  14.133  23.788   9.118
  868POPC   GL213538  14.452  23.699   9.178
  868POPC   C1A13539  14.257  23.776   8.692
  868POPC   D2A13540  14.221  23.970   8.274
  868POPC   C3A13541  14.395  23.667   8.016
  868POPC   C4A13542  14.198  23.467   7.699
  868POPC   C1B13543  14.675  23.435   8.910
  868POPC   C2B13544  14.665  23.527   8.463
  868POPC   C3B13545  14.839  23.352   8.105
  868POPC   C4B13546  14.652  23.248   7.743
  869POPC   NC313547   1.035   1.759   9.496
  869POPC   PO413548   1.474   2.149   9.158
  869POPC   GL113549   1.185   1.878   9.030
  869POPC   GL213550   0.948   2.098   9.088
  869POPC   C1A13551   0.991   1.609   8.766
  869POPC   D2A13552   1.157   1.525   8.391
  869POPC   C3A13553   1.205   1.868   8.114
  869POPC   C4A13554   1.257   1.698   7.745
  869POPC   C1B13555   0.811   2.298   8.719
  869POPC   C2B13556   0.903   2.342   8.282
  869POPC   C3B13557   0.826   2.158   7.874
  869POPC   C4B13558   1.094   2.176   7.532
  870POPC   NC313559  23.207  17.915   9.321
  870POPC   PO413560  22.834  17.470   9.768
  870POPC   GL113561  22.748  17.639   9.328
  870POPC   GL213562  22.712  17.299   9.204
  870POPC   C1A13563  22.750  17.666   8.843
  870POPC   D2A13564  22.582  17.834   8.457
  870POPC   C3A13565  22.822  17.671   8.142
  870POPC   C4A13566  22.914  17.537   7.757
  870POPC   C1B13567  22.598  17.106   8.832
  870POPC   C2B13568  22.620  17.310   8.448
  870POPC   C3B13569  22.638  17.155   8.006
  870POPC   C4B13570  22.814  17.065   7.611
  871POPC   NC313571   9.472   8.063   9.649
  871POPC   PO413572   9.942   8.523   9.538
  871POPC   GL113573   9.704   8.327   9.251
  871POPC   GL213574   9.633   7.950   9.190
  871POPC   C1A13575   9.803   8.282   8.844
  871POPC   D2A13576   9.566   8.288   8.477
  871POPC   C3A13577   9.774   8.305   8.101
  871POPC   C4A13578   9.626   8.485   7.743
  871POPC   C1B13579   9.554   7.831   8.786
  871POPC   C2B13580   9.712   7.566   8.477
  871POPC   C3B13581   9.690   7.800   8.123
  871POPC   C4B13582   9.465   8.009   7.800
  872POPC   NC313583  30.351  18.782   9.281
  872POPC   PO413584  31.031  18.838   9.410
  872POPC   GL113585  30.783  19.114   9.125
  872POPC   GL213586  31.073  19.224   8.953
  872POPC   C1A13587  30.610  19.203   8.708
  872POPC   D2A13588  30.418  19.036   8.302
  872POPC   C3A13589  30.573  19.193   7.914
  872POPC   C4A13590  30.659  19.096   7.524
  872POPC   C1B13591  30.999  18.895   8.667
  872POPC   C2B13592  30.927  19.026   8.229
  872POPC   C3B13593  31.061  18.940   7.800
  872POPC   C4B13594  31.130  18.979   7.323
  873POPC   NC313595  18.505  44.433   9.652
  873POPC   PO413596  18.322   0.077   9.604
  873POPC   GL113597  18.240  44.859   9.214
  873POPC   GL213598  17.986  44.604   9.186
  873POPC   C1A13599  18.099  44.850   8.766
  873POPC   D2A13600  18.270  44.940   8.353
  873POPC   C3A13601  18.063  44.856   7.976
  873POPC   C4A13602  18.288  44.589   7.737
  873POPC   C1B13603  17.925  44.349   8.798
  873POPC   C2B13604  17.927  44.528   8.374
  873POPC   C3B13605  17.936  44.324   7.992
  873POPC   C4B13606  17.994  44.131   7.635
  874POPC   NC313607  37.728  40.074   9.736
  874POPC   PO413608  37.675  39.601   9.256
  874POPC   GL113609  37.776  40.046   9.113
  874POPC   GL213610  37.547  39.946   8.832
  874POPC   C1A13611  37.805  40.349   8.715
  874POPC   D2A13612  37.764  40.190   8.313
  874POPC   C3A13613  37.417  40.265   8.072
  874POPC   C4A13614  37.580  40.439   7.698
  874POPC   C1B13615  37.898  39.834   8.650
  874POPC   C2B13616  37.985  39.498   8.370
  874POPC   C3B13617  38.030  39.640   7.985
  874POPC   C4B13618  37.813  40.010   7.826
  875POPC   NC313619  17.769  35.269   9.392
  875POPC   PO413620  17.285  35.587   9.754
  875POPC   GL113621  17.276  35.396   9.287
  875POPC   GL213622  17.531  35.582   9.060
  875POPC   C1A13623  17.294  35.147   8.853
  875POPC   D2A13624  17.611  35.079   8.489
  875POPC   C3A13625  17.515  35.123   8.029
  875POPC   C4A13626  17.158  35.354   7.857
  875POPC   C1B13627  17.859  35.524   8.677
  875POPC   C2B13628  17.875  35.475   8.195
  875POPC   C3B13629  17.628  35.623   7.827
  875POPC   C4B13630  17.746  35.678   7.376
  876POPC   NC313631   0.124  27.152   9.437
  876POPC   PO413632   0.798  26.905   9.508
  876POPC   GL113633   0.551  27.009   9.152
  876POPC   GL213634   0.676  27.265   8.875
  876POPC   C1A13635   0.533  26.784   8.785
  876POPC   D2A13636   0.625  27.005   8.397
  876POPC   C3A13637   0.573  26.777   8.030
  876POPC   C4A13638   0.772  26.469   7.816
  876POPC   C1B13639   0.226  27.185   8.774
  876POPC   C2B13640   0.127  26.905   8.447
  876POPC   C3B13641   0.148  27.055   8.019
  876POPC   C4B13642   0.125  26.741   7.693
  877POPC   NC313643  14.029  25.865   9.362
  877POPC   PO413644  14.658  26.027   9.474
  877POPC   GL113645  14.489  25.854   9.124
  877POPC   GL213646  14.321  26.183   9.093
  877POPC   C1A13647  14.256  25.881   8.711
  877POPC   D2A13648  14.353  26.198   8.400
  877POPC   C3A13649  14.450  25.969   8.055
  877POPC   C4A13650  14.507  25.840   7.655
  877POPC   C1B13651  14.659  26.220   8.803
  877POPC   C2B13652  14.752  26.543   8.499
  877POPC   C3B13653  14.882  26.403   8.106
  877POPC   C4B13654  14.666  26.320   7.736
  878POPC   NC313655  28.150  33.153   9.600
  878POPC   PO413656  28.617  32.743   9.463
  878POPC   GL113657  28.547  32.924   9.047
  878POPC   GL213658  28.431  33.274   9.154
  878POPC   C1A13659  28.357  32.826   8.625
  878POPC   D2A13660  28.029  32.989   8.322
  878POPC   C3A13661  28.242  33.084   7.942
  878POPC   C4A13662  28.534  32.754   7.830
  878POPC   C1B13663  28.594  33.369   8.751
  878POPC   C2B13664  28.568  33.225   8.333
  878POPC   C3B13665  28.628  33.421   7.926
  878POPC   C4B13666  28.596  33.237   7.515
  879POPC   NC313667   1.951  27.004   9.838
  879POPC   PO413668   1.723  26.483   9.447
  879POPC   GL113669   2.014  26.620   9.140
  879POPC   GL213670   2.194  26.948   9.177
  879POPC   C1A13671   2.316  26.559   8.813
  879POPC   D2A13672   2.413  26.631   8.364
  879POPC   C3A13673   2.164  26.877   8.040
  879POPC   C4A13674   1.772  26.776   7.799
  879POPC   C1B13675   2.014  26.958   8.731
  879POPC   C2B13676   1.858  27.145   8.366
  879POPC   C3B13677   1.755  27.282   7.950
  879POPC   C4B13678   1.823  27.188   7.495
  880POPC   NC313679  20.943  39.677   9.760
  880POPC   PO413680  21.453  40.112   9.506
  880POPC   GL113681  21.285  39.965   9.150
  880POPC   GL213682  21.110  40.258   8.983
  880POPC   C1A13683  21.401  39.778   8.783
  880POPC   D2A13684  21.526  40.065   8.497
  880POPC   C3A13685  21.379  39.948   8.130
  880POPC   C4A13686  21.550  39.777   7.759
  880POPC   C1B13687  21.022  40.143   8.573
  880POPC   C2B13688  20.904  40.164   8.159
  880POPC   C3B13689  21.169  40.346   7.864
  880POPC   C4B13690  21.631  40.289   7.845
  881POPC   NC313691  41.194  10.485   9.435
  881POPC   PO413692  40.469  10.320   9.411
  881POPC   GL113693  40.794  10.349   9.124
  881POPC   GL213694  40.783  10.704   9.136
  881POPC   C1A13695  41.047  10.437   8.750
  881POPC   D2A13696  41.237  10.504   8.339
  881POPC   C3A13697  40.988  10.235   8.073
  881POPC   C4A13698  40.772  10.209   7.672
  881POPC   C1B13699  40.746  10.869   8.720
  881POPC   C2B13700  40.728  10.654   8.335
  881POPC   C3B13701  40.779  10.702   7.898
  881POPC   C4B13702  40.453  10.607   7.588
  882POPC   NC313703  28.092   3.210   9.455
  882POPC   PO413704  28.306   2.475   9.450
  882POPC   GL113705  28.316   2.685   9.076
  882POPC   GL213706  28.520   2.963   9.060
  882POPC   C1A13707  28.260   2.808   8.644
  882POPC   D2A13708  28.367   2.940   8.251
  882POPC   C3A13709  28.069   2.709   8.002
  882POPC   C4A13710  28.032   2.592   7.599
  882POPC   C1B13711  28.751   2.718   8.741
  882POPC   C2B13712  28.662   2.510   8.329
  882POPC   C3B13713  28.662   2.530   7.910
  882POPC   C4B13714  28.451   2.897   7.744
  883POPC   NC313715   5.451  32.595   9.278
  883POPC   PO413716   5.699  33.172   9.556
  883POPC   GL113717   5.833  33.040   9.172
  883POPC   GL213718   6.041  33.348   9.123
  883POPC   C1A13719   5.919  32.803   8.789
  883POPC   D2A13720   5.869  32.618   8.399
  883POPC   C3A13721   5.993  32.862   8.094
  883POPC   C4A13722   5.953  33.026   7.712
  883POPC   C1B13723   5.791  33.372   8.795
  883POPC   C2B13724   5.801  33.509   8.426
  883POPC   C3B13725   5.688  33.287   8.094
  883POPC   C4B13726   5.654  33.541   7.772
  884POPC   NC313727  18.172  21.699   9.564
  884POPC   PO413728  17.731  22.222   9.673
  884POPC   GL113729  18.042  22.145   9.321
  884POPC   GL213730  18.022  21.857   9.106
  884POPC   C1A13731  18.187  22.301   8.924
  884POPC   D2A13732  18.304  22.309   8.495
  884POPC   C3A13733  18.106  22.216   8.149
  884POPC   C4A13734  18.079  22.308   7.729
  884POPC   C1B13735  18.291  21.837   8.768
  884POPC   C2B13736  18.215  21.755   8.395
  884POPC   C3B13737  18.488  21.834   8.138
  884POPC   C4B13738  18.490  21.840   7.742
  885POPC   NC313739   8.990  19.957   9.661
  885POPC   PO413740   8.989  20.617   9.495
  885POPC   GL113741   8.857  20.630   9.085
  885POPC   GL213742   8.917  20.952   9.011
  885POPC   C1A13743   9.054  20.510   8.692
  885POPC   D2A13744   9.144  20.179   8.388
  885POPC   C3A13745   9.248  20.399   8.003
  885POPC   C4A13746   8.933  20.552   7.754
  885POPC   C1B13747   9.021  21.035   8.613
  885POPC   C2B13748   8.858  20.904   8.212
  885POPC   C3B13749   9.022  21.055   7.848
  885POPC   C4B13750   9.220  20.908   7.495
  886POPC   NC313751  42.127  23.617   9.607
  886POPC   PO413752  42.752  23.555   9.535
  886POPC   GL113753  42.464  23.717   9.221
  886POPC   GL213754  42.095  23.786   9.129
  886POPC   C1A13755  42.562  23.537   8.831
  886POPC   D2A13756  42.273  23.635   8.536
  886POPC   C3A13757  42.143  23.388   8.213
  886POPC   C4A13758  42.275  23.383   7.818
  886POPC   C1B13759  42.062  24.054   8.769
  886POPC   C2B13760  42.283  24.144   8.429
  886POPC   C3B13761  42.331  23.890   8.070
  886POPC   C4B13762  42.133  23.842   7.704
  887POPC   NC313763  36.398  29.064   9.398
  887POPC   PO413764  35.807  29.339   9.487
  887POPC   GL113765  35.912  29.125   9.126
  887POPC   GL213766  35.924  29.488   8.976
  887POPC   C1A13767  36.226  29.067   8.790
  887POPC   D2A13768  36.337  29.424   8.591
  887POPC   C3A13769  36.249  29.410   8.138
  887POPC   C4A13770  36.146  29.259   7.722
  887POPC   C1B13771  35.766  29.252   8.640
  887POPC   C2B13772  35.995  29.001   8.346
  887POPC   C3B13773  35.995  28.822   7.964
  887POPC   C4B13774  35.714  28.985   7.684
  888POPC   NC313775  43.044  24.983   9.481
  888POPC   PO413776  43.571  25.459   9.563
  888POPC   GL113777  43.325  25.624   9.188
  888POPC   GL213778  43.003  25.409   9.151
  888POPC   C1A13779  43.323  25.426   8.755
  888POPC   D2A13780  43.078  25.311   8.416
  888POPC   C3A13781  43.286  25.234   8.067
  888POPC   C4A13782  43.260  25.542   7.779
  888POPC   C1B13783  42.992  25.044   8.840
  888POPC   C2B13784  42.704  24.978   8.467
  888POPC   C3B13785  42.784  25.043   8.010
  888POPC   C4B13786  42.664  25.016   7.552
  889POPC   NC313787   3.805  28.295   9.903
  889POPC   PO413788   3.502  28.813   9.561
  889POPC   GL113789   3.588  28.558   9.159
  889POPC   GL213790   3.326  28.304   9.015
  889POPC   C1A13791   3.692  28.505   8.732
  889POPC   D2A13792   3.436  28.537   8.397
  889POPC   C3A13793   3.676  28.532   8.054
  889POPC   C4A13794   3.535  28.642   7.667
  889POPC   C1B13795   3.196  28.131   8.613
  889POPC   C2B13796   3.438  28.061   8.215
  889POPC   C3B13797   3.511  28.137   7.794
  889POPC   C4B13798   3.206  28.079   7.528
  890POPC   NC313799  25.838  26.098   9.498
  890POPC   PO413800  26.434  26.210   9.130
  890POPC   GL113801  26.060  26.010   9.021
  890POPC   GL213802  25.804  26.264   9.026
  890POPC   C1A13803  25.990  26.099   8.574
  890POPC   D2A13804  26.205  26.251   8.200
  890POPC   C3A13805  26.076  25.968   7.902
  890POPC   C4A13806  26.123  25.904   7.487
  890POPC   C1B13807  25.914  26.587   8.729
  890POPC   C2B13808  25.854  26.604   8.308
  890POPC   C3B13809  25.710  26.319   8.030
  890POPC   C4B13810  25.801  26.294   7.627
  891POPC   NC313811  37.929  17.104   9.773
  891POPC   PO413812  37.839  17.682   9.449
  891POPC   GL113813  37.710  17.519   9.064
  891POPC   GL213814  37.860  17.226   9.180
  891POPC   C1A13815  37.625  17.628   8.634
  891POPC   D2A13816  37.641  17.780   8.193
  891POPC   C3A13817  37.497  17.499   7.856
  891POPC   C4A13818  37.682  17.447   7.435
  891POPC   C1B13819  38.037  17.244   8.767
  891POPC   C2B13820  37.948  17.071   8.383
  891POPC   C3B13821  38.172  17.116   8.023
  891POPC   C4B13822  37.841  17.096   7.783
  892POPC   NC313823   7.493   2.936   9.497
  892POPC   PO413824   7.889   2.448   9.242
  892POPC   GL113825   7.653   2.769   9.031
  892POPC   GL213826   7.311   2.805   9.041
  892POPC   C1A13827   7.584   3.004   8.643
  892POPC   D2A13828   7.420   2.872   8.274
  892POPC   C3A13829   7.566   3.052   7.912
  892POPC   C4A13830   7.517   2.683   7.683
  892POPC   C1B13831   7.097   2.728   8.664
  892POPC   C2B13832   6.891   2.686   8.291
  892POPC   C3B13833   7.050   2.890   7.914
  892POPC   C4B13834   7.211   3.069   7.517
  893POPC   NC313835   7.211  18.562   9.320
  893POPC   PO413836   7.785  18.299   9.696
  893POPC   GL113837   7.589  18.092   9.250
  893POPC   GL213838   7.726  17.759   9.190
  893POPC   C1A13839   7.489  18.240   8.749
  893POPC   D2A13840   7.351  18.498   8.378
  893POPC   C3A13841   7.213  18.344   7.962
  893POPC   C4A13842   7.278  18.421   7.516
  893POPC   C1B13843   7.357  17.765   8.906
  893POPC   C2B13844   7.398  17.847   8.475
  893POPC   C3B13845   7.615  18.071   8.138
  893POPC   C4B13846   7.512  17.991   7.689
  894POPC   NC313847  13.190  21.449   9.403
  894POPC   PO413848  12.616  21.252   9.612
  894POPC   GL113849  12.803  21.160   9.211
  894POPC   GL213850  12.809  21.519   9.058
  894POPC   C1A13851  12.679  21.111   8.796
  894POPC   D2A13852  12.524  21.412   8.539
  894POPC   C3A13853  12.725  21.359   8.158
  894POPC   C4A13854  12.929  21.367   7.769
  894POPC   C1B13855  13.145  21.440   8.742
  894POPC   C2B13856  13.325  21.539   8.337
  894POPC   C3B13857  13.184  21.766   7.992
  894POPC   C4B13858  13.268  21.712   7.585
  895POPC   NC313859  29.586   8.245   9.456
  895POPC   PO413860  30.110   7.842   9.462
  895POPC   GL113861  30.127   7.985   9.071
  895POPC   GL213862  29.770   8.031   9.045
  895POPC   C1A13863  30.084   8.142   8.642
  895POPC   D2A13864  30.109   8.364   8.259
  895POPC   C3A13865  30.013   8.207   7.847
  895POPC   C4A13866  29.835   8.466   7.542
  895POPC   C1B13867  29.595   7.975   8.671
  895POPC   C2B13868  29.739   7.974   8.268
  895POPC   C3B13869  29.594   7.769   7.922
  895POPC   C4B13870  29.767   7.843   7.545
  896POPC   NC313871   3.461  15.984   9.591
  896POPC   PO413872   3.927  15.559   9.428
  896POPC   GL113873   3.750  15.930   9.148
  896POPC   GL213874   3.386  16.066   9.093
  896POPC   C1A13875   3.713  16.017   8.691
  896POPC   D2A13876   3.563  15.806   8.304
  896POPC   C3A13877   3.636  15.945   7.864
  896POPC   C4A13878   3.764  16.064   7.432
  896POPC   C1B13879   3.198  16.060   8.670
  896POPC   C2B13880   3.320  16.264   8.277
  896POPC   C3B13881   3.225  16.262   7.839
  896POPC   C4B13882   3.235  15.928   7.502
  897POPC   NC313883  27.952  38.105   9.423
  897POPC   PO413884  27.505  38.725   9.462
  897POPC   GL113885  27.613  38.453   9.150
  897POPC   GL213886  27.948  38.502   9.104
  897POPC   C1A13887  27.603  38.596   8.726
  897POPC   D2A13888  27.256  38.582   8.444
  897POPC   C3A13889  27.418  38.593   8.049
  897POPC   C4A13890  27.573  38.538   7.682
  897POPC   C1B13891  27.893  38.174   8.764
  897POPC   C2B13892  27.667  38.208   8.384
  897POPC   C3B13893  27.842  38.184   7.949
  897POPC   C4B13894  28.086  38.523   7.723
  898POPC   NC313895  16.304  29.468   9.267
  898POPC   PO413896  16.512  29.161   9.832
  898POPC   GL113897  16.644  29.075   9.301
  898POPC   GL213898  16.574  28.739   9.182
  898POPC   C1A13899  16.974  29.098   8.934
  898POPC   D2A13900  17.085  28.889   8.507
  898POPC   C3A13901  17.028  29.144   8.132
  898POPC   C4A13902  16.856  29.029   7.755
  898POPC   C1B13903  16.496  28.958   8.798
  898POPC   C2B13904  16.581  29.034   8.386
  898POPC   C3B13905  16.478  29.233   8.022
  898POPC   C4B13906  16.333  29.054   7.660
  899POPC   NC313907  16.054  36.406   9.565
  899POPC   PO413908  16.387  35.774   9.590
  899POPC   GL113909  16.126  35.866   9.228
  899POPC   GL213910  15.763  35.861   9.271
  899POPC   C1A13911  16.110  36.074   8.835
  899POPC   D2A13912  16.237  35.912   8.419
  899POPC   C3A13913  16.134  36.151   8.095
  899POPC   C4A13914  16.120  36.050   7.693
  899POPC   C1B13915  15.644  35.814   8.821
  899POPC   C2B13916  15.614  35.960   8.364
  899POPC   C3B13917  15.653  36.092   7.922
  899POPC   C4B13918  15.791  36.455   7.671
  900POPC   NC313919  15.056   5.546   9.484
  900POPC   PO413920  14.800   6.177   9.540
  900POPC   GL113921  14.913   5.982   9.137
  900POPC   GL213922  15.205   5.776   9.046
  900POPC   C1A13923  15.041   6.117   8.723
  900POPC   D2A13924  15.428   6.115   8.523
  900POPC   C3A13925  15.302   6.009   8.129
  900POPC   C4A13926  15.052   6.143   7.791
  900POPC   C1B13927  15.191   5.609   8.602
  900POPC   C2B13928  15.161   5.514   8.126
  900POPC   C3B13929  15.337   5.701   7.713
  900POPC   C4B13930  15.474   5.645   7.250
  901POPC   NC313931  24.370  10.904   9.599
  901POPC   PO413932  24.663  10.271   9.518
  901POPC   GL113933  24.388  10.462   9.233
  901POPC   GL213934  24.509  10.176   9.045
  901POPC   C1A13935  24.373  10.588   8.778
  901POPC   D2A13936  24.647  10.710   8.424
  901POPC   C3A13937  24.494  10.620   7.991
  901POPC   C4A13938  24.127  10.568   7.722
  901POPC   C1B13939  24.731  10.181   8.651
  901POPC   C2B13940  24.866  10.297   8.219
  901POPC   C3B13941  24.822  10.084   7.834
  901POPC   C4B13942  24.521   9.966   7.529
  902POPC   NC313943  10.745  28.934   9.919
  902POPC   PO413944  10.272  29.148   9.527
  902POPC   GL113945  10.429  29.054   9.162
  902POPC   GL213946  10.742  28.931   9.252
  902POPC   C1A13947  10.367  28.888   8.736
  902POPC   D2A13948  10.462  29.001   8.336
  902POPC   C3A13949  10.267  28.829   7.991
  902POPC   C4A13950  10.442  29.107   7.714
  902POPC   C1B13951  10.791  29.181   8.841
  902POPC   C2B13952  10.934  29.155   8.438
  902POPC   C3B13953  10.898  29.330   8.039
  902POPC   C4B13954  10.953  29.095   7.683
  903POPC   NC313955  34.609   4.342   9.539
  903POPC   PO413956  34.068   4.031   9.287
  903POPC   GL113957  34.350   4.383   9.085
  903POPC   GL213958  34.634   4.633   9.103
  903POPC   C1A13959  34.371   4.526   8.649
  903POPC   D2A13960  34.460   4.236   8.293
  903POPC   C3A13961  34.349   4.402   7.910
  903POPC   C4A13962  34.355   4.700   7.607
  903POPC   C1B13963  34.869   4.413   8.745
  903POPC   C2B13964  34.835   4.568   8.295
  903POPC   C3B13965  34.807   4.546   7.805
  903POPC   C4B13966  34.807   4.707   7.368
  904POPC   NC313967  14.732  17.802   9.478
  904POPC   PO413968  14.073  17.591   9.407
  904POPC   GL113969  14.418  17.439   9.143
  904POPC   GL213970  14.663  17.662   8.993
  904POPC   C1A13971  14.486  17.266   8.714
  904POPC   D2A13972  14.651  17.487   8.337
  904POPC   C3A13973  14.518  17.388   7.897
  904POPC   C4A13974  14.589  17.623   7.483
  904POPC   C1B13975  14.300  17.778   8.720
  904POPC   C2B13976  14.247  17.878   8.275
  904POPC   C3B13977  14.601  17.891   7.988
  904POPC   C4B13978  14.624  18.122   7.616
  905POPC   NC313979  27.550  11.775   9.304
  905POPC   PO413980  27.717  12.324   9.604
  905POPC   GL113981  27.748  12.253   9.166
  905POPC   GL213982  28.018  12.020   9.191
  905POPC   C1A13983  27.734  12.032   8.727
  905POPC   D2A13984  27.559  11.918   8.336
  905POPC   C3A13985  27.526  12.116   7.904
  905POPC   C4A13986  27.379  12.026   7.460
  905POPC   C1B13987  28.148  12.296   8.850
  905POPC   C2B13988  28.112  12.224   8.411
  905POPC   C3B13989  28.005  12.335   7.970
  905POPC   C4B13990  27.929  12.105   7.566
  906POPC   NC313991  24.792  19.708   9.775
  906POPC   PO413992  25.419  19.790   9.376
  906POPC   GL113993  25.509  19.923   9.017
  906POPC   GL213994  25.217  20.077   8.975
  906POPC   C1A13995  25.471  19.780   8.606
  906POPC   D2A13996  25.489  19.468   8.305
  906POPC   C3A13997  25.396  19.738   7.994
  906POPC   C4A13998  25.327  19.600   7.660
  906POPC   C1B13999  24.866  20.059   8.715
  906POPC   C2B14000  24.913  20.169   8.310
  906POPC   C3B14001  24.964  20.023   7.896
  906POPC   C4B14002  25.045  19.973   7.438
  907POPC   NC314003  37.311   0.312   9.507
  907POPC   PO414004  37.807   0.564   9.441
  907POPC   GL114005  37.685   0.308   9.110
  907POPC   GL214006  37.836   0.571   8.915
  907POPC   C1A14007  37.619   0.187   8.668
  907POPC   D2A14008  37.780   0.505   8.373
  907POPC   C3A14009  37.867   0.411   7.954
  907POPC   C4A14010  37.749   0.379   7.559
  907POPC   C1B14011  37.439   0.689   8.746
  907POPC   C2B14012  37.248   0.685   8.327
  907POPC   C3B14013  37.410   0.623   7.922
  907POPC   C4B14014  37.610   0.901   7.677
  908POPC   NC314015  44.229   3.034   9.511
  908POPC   PO414016  43.738   3.517   9.522
  908POPC   GL114017  43.889   3.336   9.188
  908POPC   GL214018  44.209   3.255   9.056
  908POPC   C1A14019  43.758   3.475   8.799
  908POPC   D2A14020  43.906   3.329   8.427
  908POPC   C3A14021  43.725   3.539   8.125
  908POPC   C4A14022  43.693   3.466   7.706
  908POPC   C1B14023  44.248   3.562   8.733
  908POPC   C2B14024  44.244   3.713   8.308
  908POPC   C3B14025  44.165   3.522   7.899
  908POPC   C4B14026  44.113   3.600   7.433
  909POPC   NC314027  24.140  43.583   9.439
  909POPC   PO414028  23.432  43.501   9.446
  909POPC   GL114029  23.694  43.648   9.125
  909POPC   GL214030  23.816  43.960   9.245
  909POPC   C1A14031  23.627  43.898   8.753
  909POPC   D2A14032  23.487  44.110   8.378
  909POPC   C3A14033  23.607  43.896   8.009
  909POPC   C4A14034  23.495  43.595   7.697
  909POPC   C1B14035  24.077  44.092   8.885
  909POPC   C2B14036  24.015  44.047   8.431
  909POPC   C3B14037  24.106  43.846   8.054
  909POPC   C4B14038  23.974  44.067   7.690
  910POPC   NC314039  40.186  22.146   9.319
  910POPC   PO414040  39.551  22.405   9.377
  910POPC   GL114041  39.740  22.204   9.062
  910POPC   GL214042  39.581  22.423   8.859
  910POPC   C1A14043  39.900  22.087   8.659
  910POPC   D2A14044  39.766  22.221   8.239
  910POPC   C3A14045  39.847  21.984   7.918
  910POPC   C4A14046  40.192  21.720   7.892
  910POPC   C1B14047  39.829  22.617   8.549
  910POPC   C2B14048  39.770  22.713   8.107
  910POPC   C3B14049  39.913  22.500   7.736
  910POPC   C4B14050  39.854  22.538   7.284
  911POPC   NC314051  25.879  41.866   9.386
  911POPC   PO414052  26.427  42.120   9.248
  911POPC   GL114053  26.094  42.283   8.999
  911POPC   GL214054  25.742  42.211   9.053
  911POPC   C1A14055  26.204  42.449   8.604
  911POPC   D2A14056  26.293  42.269   8.219
  911POPC   C3A14057  26.274  42.491   7.831
  911POPC   C4A14058  25.997  42.803   7.661
  911POPC   C1B14059  25.573  42.084   8.671
  911POPC   C2B14060  25.789  42.160   8.292
  911POPC   C3B14061  25.750  42.334   7.894
  911POPC   C4B14062  25.525  42.162   7.605
  912POPC   NC314063   4.606  25.772   9.423
  912POPC   PO414064   4.035  26.097   9.307
  912POPC   GL114065   4.404  26.220   9.106
  912POPC   GL214066   4.639  25.957   8.953
  912POPC   C1A14067   4.341  26.295   8.688
  912POPC   D2A14068   4.541  26.165   8.372
  912POPC   C3A14069   4.234  26.219   8.057
  912POPC   C4A14070   4.337  26.211   7.646
  912POPC   C1B14071   4.281  25.776   8.751
  912POPC   C2B14072   4.202  25.775   8.318
  912POPC   C3B14073   4.520  25.817   7.985
  912POPC   C4B14074   4.547  25.664   7.565
  913POPC   NC314075  25.278  40.460   9.610
  913POPC   PO414076  25.235  39.757   9.564
  913POPC   GL114077  25.184  39.890   9.147
  913POPC   GL214078  25.477  40.014   9.079
  913POPC   C1A14079  24.947  39.849   8.768
  913POPC   D2A14080  25.051  39.560   8.428
  913POPC   C3A14081  24.899  39.665   8.021
  913POPC   C4A14082  25.024  40.034   7.834
  913POPC   C1B14083  25.311  40.196   8.736
  913POPC   C2B14084  25.273  40.097   8.329
  913POPC   C3B14085  25.468  40.248   7.974
  913POPC   C4B14086  25.548  39.870   7.817
  914POPC   NC314087   8.182  18.368   9.477
  914POPC   PO414088   7.648  18.581   9.222
  914POPC   GL114089   7.944  18.466   8.966
  914POPC   GL214090   8.333  18.407   8.997
  914POPC   C1A14091   7.803  18.678   8.586
  914POPC   D2A14092   7.892  18.750   8.183
  914POPC   C3A14093   8.121  18.396   8.044
  914POPC   C4A14094   8.006  18.034   7.797
  914POPC   C1B14095   8.188  18.306   8.559
  914POPC   C2B14096   8.235  17.961   8.267
  914POPC   C3B14097   8.506  17.946   7.909
  914POPC   C4B14098   8.581  18.387   7.809
  915POPC   NC314099   6.143  31.986   9.301
  915POPC   PO414100   5.957  31.308   9.446
  915POPC   GL114101   6.006  31.525   9.128
  915POPC   GL214102   5.712  31.734   9.183
  915POPC   C1A14103   6.205  31.483   8.759
  915POPC   D2A14104   5.951  31.439   8.428
  915POPC   C3A14105   6.018  31.530   8.032
  915POPC   C4A14106   5.804  31.338   7.698
  915POPC   C1B14107   5.797  31.834   8.759
  915POPC   C2B14108   5.879  31.991   8.371
  915POPC   C3B14109   5.651  31.876   8.029
  915POPC   C4B14110   5.781  31.852   7.618
  916POPC   NC314111   6.491  29.348   9.834
  916POPC   PO414112   7.016  29.032   9.755
  916POPC   GL114113   6.643  29.221   9.369
  916POPC   GL214114   6.390  29.081   9.173
  916POPC   C1A14115   6.728  29.388   8.915
  916POPC   D2A14116   6.612  29.377   8.461
  916POPC   C3A14117   6.897  29.261   8.135
  916POPC   C4A14118   6.810  29.257   7.708
  916POPC   C1B14119   6.260  29.136   8.771
  916POPC   C2B14120   6.291  28.906   8.388
  916POPC   C3B14121   6.575  28.855   8.032
  916POPC   C4B14122   6.427  28.933   7.643
  917POPC   NC314123  32.067  18.677   9.598
  917POPC   PO414124  32.541  19.064   9.459
  917POPC   GL114125  32.289  18.845   9.156
  917POPC   GL214126  31.993  19.038   9.085
  917POPC   C1A14127  32.347  18.971   8.728
  917POPC   D2A14128  32.212  19.045   8.317
  917POPC   C3A14129  32.386  19.343   8.031
  917POPC   C4A14130  32.426  19.125   7.678
  917POPC   C1B14131  31.910  19.265   8.700
  917POPC   C2B14132  31.748  19.231   8.263
  917POPC   C3B14133  31.945  19.174   7.812
  917POPC   C4B14134  31.859  19.344   7.352
  918POPC   NC314135  41.153  24.661   9.376
  918POPC   PO414136  40.606  24.198   9.447
  918POPC   GL114137  40.681  24.359   9.061
  918POPC   GL214138  41.011  24.350   8.979
  918POPC   C1A14139  40.498  24.607   8.757
  918POPC   D2A14140  40.259  24.821   8.451
  918POPC   C3A14141  40.425  24.691   8.096
  918POPC   C4A14142  40.649  24.625   7.786
  918POPC   C1B14143  41.012  24.700   8.721
  918POPC   C2B14144  40.877  24.826   8.311
  918POPC   C3B14145  41.108  24.786   7.874
  918POPC   C4B14146  41.129  24.747   7.364
  919POPC   NC314147  27.919  31.736   9.404
  919POPC   PO414148  27.406  31.268   9.465
  919POPC   GL114149  27.516  31.494   9.134
  919POPC   GL214150  27.858  31.389   9.062
  919POPC   C1A14151  27.331  31.744   8.766
  919POPC   D2A14152  27.180  31.612   8.382
  919POPC   C3A14153  27.328  31.783   8.006
  919POPC   C4A14154  27.406  31.635   7.593
  919POPC   C1B14155  27.645  31.331   8.692
  919POPC   C2B14156  27.680  31.536   8.331
  919POPC   C3B14157  27.642  31.357   7.957
  919POPC   C4B14158  27.883  31.476   7.617
  920POPC   NC314159  38.466   4.359   9.556
  920POPC   PO414160  38.867   4.803   9.397
  920POPC   GL114161  38.677   4.469   9.118
  920POPC   GL214162  38.291   4.495   9.095
  920POPC   C1A14163  38.573   4.309   8.709
  920POPC   D2A14164  38.588   4.548   8.347
  920POPC   C3A14165  38.427   4.384   7.989
  920POPC   C4A14166  38.647   4.214   7.674
  920POPC   C1B14167  38.103   4.168   8.805
  920POPC   C2B14168  38.103   4.190   8.348
  920POPC   C3B14169  37.942   4.139   7.916
  920POPC   C4B14170  38.006   4.100   7.451
  921POPC   NC314171  29.418  33.985   9.505
  921POPC   PO414172  28.855  33.582   9.402
  921POPC   GL114173  29.026  33.902   9.112
  921POPC   GL214174  29.320  33.772   9.059
  921POPC   C1A14175  29.161  34.025   8.652
  921POPC   D2A14176  29.140  34.067   8.206
  921POPC   C3A14177  28.871  33.914   7.885
  921POPC   C4A14178  28.940  33.868   7.442
  921POPC   C1B14179  29.083  33.537   8.730
  921POPC   C2B14180  28.949  33.580   8.315
  921POPC   C3B14181  29.134  33.476   7.919
  921POPC   C4B14182  29.089  33.396   7.496
  922POPC   NC314183   6.234  32.233   9.783
  922POPC   PO414184   5.609  32.184   9.432
  922POPC   GL114185   5.801  32.281   9.055
  922POPC   GL214186   6.099  32.480   9.157
  922POPC   C1A14187   5.595  32.307   8.672
  922POPC   D2A14188   5.477  32.309   8.244
  922POPC   C3A14189   5.824  32.365   7.968
  922POPC   C4A14190   6.206  32.526   7.782
  922POPC   C1B14191   6.182  32.339   8.711
  922POPC   C2B14192   6.286  32.305   8.260
  922POPC   C3B14193   6.176  32.016   7.934
  922POPC   C4B14194   6.234  32.017   7.509
  923POPC   NC314195  13.767   6.263   9.292
  923POPC   PO414196  13.324   6.669   9.379
  923POPC   GL114197  13.556   6.748   9.053
  923POPC   GL214198  13.512   6.442   8.906
  923POPC   C1A14199  13.904   6.701   8.752
  923POPC   D2A14200  13.819   6.404   8.436
  923POPC   C3A14201  13.534   6.622   8.188
  923POPC   C4A14202  13.665   6.906   7.858
  923POPC   C1B14203  13.243   6.223   8.717
  923POPC   C2B14204  13.058   6.333   8.370
  923POPC   C3B14205  13.128   6.313   7.973
  923POPC   C4B14206  13.461   6.442   7.717
  924POPC   NC314207   8.048  27.297   9.540
  924POPC   PO414208   8.259  27.899   9.433
  924POPC   GL114209   8.387  27.523   9.191
  924POPC   GL214210   8.035  27.482   9.077
  924POPC   C1A14211   8.497  27.469   8.746
  924POPC   D2A14212   8.434  27.745   8.352
  924POPC   C3A14213   8.282  27.563   7.945
  924POPC   C4A14214   8.552  27.267   7.700
  924POPC   C1B14215   7.723  27.662   8.835
  924POPC   C2B14216   7.922  27.584   8.467
  924POPC   C3B14217   7.871  27.270   8.200
  924POPC   C4B14218   7.865  27.248   7.748
  925POPC   NC314219  39.386  29.541   9.217
  925POPC   PO414220  38.977  29.936   9.584
  925POPC   GL114221  38.924  29.798   9.144
  925POPC   GL214222  38.856  29.439   9.224
  925POPC   C1A14223  39.023  29.848   8.675
  925POPC   D2A14224  39.113  30.234   8.418
  925POPC   C3A14225  39.317  30.088   8.060
  925POPC   C4A14226  39.163  29.895   7.726
  925POPC   C1B14227  38.616  29.455   8.871
  925POPC   C2B14228  38.663  29.549   8.424
  925POPC   C3B14229  38.943  29.573   8.082
  925POPC   C4B14230  38.765  29.590   7.668
  926POPC   NC314231   8.743  41.721   9.579
  926POPC   PO414232   9.291  41.341   9.512
  926POPC   GL114233   9.168  41.488   9.129
  926POPC   GL214234   8.789  41.491   9.119
  926POPC   C1A14235   9.086  41.591   8.713
  926POPC   D2A14236   9.065  41.809   8.333
  926POPC   C3A14237   9.280  41.655   7.952
  926POPC   C4A14238   9.149  41.413   7.597
  926POPC   C1B14239   8.536  41.562   8.743
  926POPC   C2B14240   8.496  41.736   8.323
  926POPC   C3B14241   8.750  41.682   7.939
  926POPC   C4B14242   8.728  41.658   7.484
  927POPC   NC314243   1.138  23.209   9.578
  927POPC   PO414244   1.449  22.619   9.498
  927POPC   GL114245   1.177  22.821   9.177
  927POPC   GL214246   1.300  23.161   9.114
  927POPC   C1A14247   1.059  22.897   8.729
  927POPC   D2A14248   1.177  22.616   8.372
  927POPC   C3A14249   1.123  22.764   7.951
  927POPC   C4A14250   1.220  22.717   7.506
  927POPC   C1B14251   1.532  23.156   8.760
  927POPC   C2B14252   1.325  23.250   8.405
  927POPC   C3B14253   1.418  23.167   8.007
  927POPC   C4B14254   1.175  23.199   7.647
  928POPC   NC314255  42.098  32.280   9.606
  928POPC   PO414256  42.682  32.496   9.471
  928POPC   GL114257  42.446  32.340   9.162
  928POPC   GL214258  42.148  32.531   9.083
  928POPC   C1A14259  42.391  32.092   8.786
  928POPC   D2A14260  42.152  32.011   8.398
  928POPC   C3A14261  42.152  32.173   7.963
  928POPC   C4A14262  42.414  32.046   7.637
  928POPC   C1B14263  42.424  32.607   8.729
  928POPC   C2B14264  42.420  32.453   8.319
  928POPC   C3B14265  42.512  32.560   7.902
  928POPC   C4B14266  42.119  32.683   7.784
  929POPC   NC314267  39.051  13.055   9.293
  929POPC   PO414268  39.490  12.544   9.545
  929POPC   GL114269  39.429  12.748   9.148
  929POPC   GL214270  39.527  13.104   9.094
  929POPC   C1A14271  39.385  12.755   8.732
  929POPC   D2A14272  39.533  12.504   8.447
  929POPC   C3A14273  39.503  12.676   8.061
  929POPC   C4A14274  39.174  12.863   7.868
  929POPC   C1B14275  39.348  13.286   8.728
  929POPC   C2B14276  39.236  13.151   8.329
  929POPC   C3B14277  39.508  13.227   8.010
  929POPC   C4B14278  39.425  13.216   7.589
  930POPC   NC314279   6.334  11.869   9.526
  930POPC   PO414280   5.737  12.077   9.662
  930POPC   GL114281   5.855  11.875   9.265
  930POPC   GL214282   5.557  11.753   9.177
  930POPC   C1A14283   6.026  11.946   8.809
  930POPC   D2A14284   6.185  12.084   8.394
  930POPC   C3A14285   5.957  12.115   8.029
  930POPC   C4A14286   6.067  12.256   7.583
  930POPC   C1B14287   5.530  12.000   8.814
  930POPC   C2B14288   5.425  12.159   8.401
  930POPC   C3B14289   5.414  11.945   8.029
  930POPC   C4B14290   5.659  11.987   7.651
  931POPC   NC314291  18.309  20.934   9.586
  931POPC   PO414292  18.712  20.389   9.563
  931POPC   GL114293  18.511  20.463   9.169
  931POPC   GL214294  18.448  20.830   9.111
  931POPC   C1A14295  18.147  20.474   8.887
  931POPC   D2A14296  18.067  20.599   8.471
  931POPC   C3A14297  18.329  20.440   8.157
  931POPC   C4A14298  18.338  20.421   7.714
  931POPC   C1B14299  18.579  20.991   8.721
  931POPC   C2B14300  18.590  20.873   8.288
  931POPC   C3B14301  18.366  20.911   7.917
  931POPC   C4B14302  18.080  21.017   7.618
  932POPC   NC314303  35.406  28.138   9.483
  932POPC   PO414304  35.027  28.716   9.433
  932POPC   GL114305  35.252  28.513   9.137
  932POPC   GL214306  35.538  28.699   9.084
  932POPC   C1A14307  35.308  28.456   8.698
  932POPC   D2A14308  35.187  28.312   8.308
  932POPC   C3A14309  35.020  28.533   7.958
  932POPC   C4A14310  35.223  28.486   7.601
  932POPC   C1B14311  35.806  28.750   8.775
  932POPC   C2B14312  35.728  28.562   8.398
  932POPC   C3B14313  35.508  28.656   8.039
  932POPC   C4B14314  35.713  28.453   7.717
  933POPC   NC314315  27.987  35.976   9.394
  933POPC   PO414316  27.297  36.290   9.496
  933POPC   GL114317  27.283  36.148   9.125
  933POPC   GL214318  27.498  35.851   9.114
  933POPC   C1A14319  27.374  36.224   8.711
  933POPC   D2A14320  27.646  36.287   8.380
  933POPC   C3A14321  27.372  36.169   8.058
  933POPC   C4A14322  27.270  36.148   7.633
  933POPC   C1B14323  27.797  35.695   8.774
  933POPC   C2B14324  27.936  35.830   8.343
  933POPC   C3B14325  27.800  35.981   7.903
  933POPC   C4B14326  27.686  35.744   7.449
  934POPC   NC314327  12.305  32.238   9.518
  934POPC   PO414328  12.971  32.182   9.540
  934POPC   GL114329  12.824  32.195   9.153
  934POPC   GL214330  12.595  32.446   9.111
  934POPC   C1A14331  12.901  32.228   8.718
  934POPC   D2A14332  12.633  32.090   8.382
  934POPC   C3A14333  12.812  32.081   7.960
  934POPC   C4A14334  12.912  32.085   7.516
  934POPC   C1B14335  12.703  32.685   8.735
  934POPC   C2B14336  12.839  32.606   8.279
  934POPC   C3B14337  12.827  32.586   7.797
  934POPC   C4B14338  13.045  32.549   7.370
  935POPC   NC314339  19.465  29.907   9.425
  935POPC   PO414340  18.750  30.030   9.538
  935POPC   GL114341  19.023  30.076   9.170
  935POPC   GL214342  19.091  29.708   9.129
  935POPC   C1A14343  19.110  30.087   8.713
  935POPC   D2A14344  18.902  29.984   8.357
  935POPC   C3A14345  19.001  29.911   7.960
  935POPC   C4A14346  18.945  29.487   7.922
  935POPC   C1B14347  19.332  29.629   8.762
  935POPC   C2B14348  19.532  29.895   8.447
  935POPC   C3B14349  19.509  29.881   8.004
  935POPC   C4B14350  19.531  29.825   7.540
  936POPC   NC314351  16.205   7.650   9.505
  936POPC   PO414352  15.756   7.188   9.386
  936POPC   GL114353  16.111   7.297   9.129
  936POPC   GL214354  15.922   7.577   9.068
  936POPC   C1A14355  16.314   7.541   8.768
  936POPC   D2A14356  16.116   7.650   8.348
  936POPC   C3A14357  15.859   7.305   8.172
  936POPC   C4A14358  15.815   7.139   7.761
  936POPC   C1B14359  15.716   7.441   8.674
  936POPC   C2B14360  15.559   7.685   8.295
  936POPC   C3B14361  15.579   7.631   7.842
  936POPC   C4B14362  15.609   7.916   7.503
  937POPC   NC314363   8.184  19.633   9.493
  937POPC   PO414364   8.028  20.341   9.480
  937POPC   GL114365   8.037  19.996   9.126
  937POPC   GL214366   7.912  19.619   9.039
  937POPC   C1A14367   8.179  19.946   8.700
  937POPC   D2A14368   8.022  20.066   8.303
  937POPC   C3A14369   8.277  19.978   7.951
  937POPC   C4A14370   8.548  19.743   7.706
  937POPC   C1B14371   8.259  19.443   8.785
  937POPC   C2B14372   8.425  19.540   8.371
  937POPC   C3B14373   8.275  19.396   7.975
  937POPC   C4B14374   7.969  19.596   7.722
  938POPC   NC314375  29.100  41.869   9.623
  938POPC   PO414376  29.731  41.737   9.465
  938POPC   GL114377  29.357  41.690   9.183
  938POPC   GL214378  29.064  41.436   9.149
  938POPC   C1A14379  29.114  41.884   8.855
  938POPC   D2A14380  29.173  41.988   8.421
  938POPC   C3A14381  28.913  41.770   8.148
  938POPC   C4A14382  29.105  41.572   7.808
  938POPC   C1B14383  29.278  41.408   8.742
  938POPC   C2B14384  29.232  41.393   8.291
  938POPC   C3B14385  29.520  41.312   7.905
  938POPC   C4B14386  29.390  41.301   7.489
  939POPC   NC314387  12.511  26.559   9.432
  939POPC   PO414388  13.037  26.924   9.528
  939POPC   GL114389  12.899  26.763   9.157
  939POPC   GL214390  13.219  26.614   9.065
  939POPC   C1A14391  12.612  26.804   8.809
  939POPC   D2A14392  12.694  27.011   8.428
  939POPC   C3A14393  12.551  26.814   8.079
  939POPC   C4A14394  12.612  26.862   7.695
  939POPC   C1B14395  13.127  26.874   8.722
  939POPC   C2B14396  13.265  26.895   8.328
  939POPC   C3B14397  13.059  26.826   7.972
  939POPC   C4B14398  13.113  26.973   7.564
  940POPC   NC314399  27.608  33.594   9.514
  940POPC   PO414400  27.411  34.130   9.261
  940POPC   GL114401  27.353  33.725   9.072
  940POPC   GL214402  27.692  33.644   9.019
  940POPC   C1A14403  27.329  33.592   8.649
  940POPC   D2A14404  27.405  33.852   8.291
  940POPC   C3A14405  27.580  33.767   7.908
  940POPC   C4A14406  27.484  33.975   7.499
  940POPC   C1B14407  27.731  33.937   8.687
  940POPC   C2B14408  27.904  34.030   8.274
  940POPC   C3B14409  27.926  34.124   7.849
  940POPC   C4B14410  27.976  33.868   7.491
  941POPC   NC314411  20.990   1.128   9.350
  941POPC   PO414412  21.602   1.504   9.482
  941POPC   GL114413  21.392   1.444   9.112
  941POPC   GL214414  21.465   1.079   9.136
  941POPC   C1A14415  21.176   1.258   8.741
  941POPC   D2A14416  21.193   1.043   8.337
  941POPC   C3A14417  21.241   1.442   8.111
  941POPC   C4A14418  21.205   1.699   7.762
  941POPC   C1B14419  21.538   0.864   8.733
  941POPC   C2B14420  21.666   0.758   8.341
  941POPC   C3B14421  21.573   0.919   7.971
  941POPC   C4B14422  21.299   1.140   7.727
  942POPC   NC314423  42.903  32.012   9.502
  942POPC   PO414424  43.207  31.336   9.511
  942POPC   GL114425  43.277  31.437   9.131
  942POPC   GL214426  43.195  31.755   9.160
  942POPC   C1A14427  43.426  31.508   8.733
  942POPC   D2A14428  43.519  31.654   8.324
  942POPC   C3A14429  43.398  31.390   8.017
  942POPC   C4A14430  43.097  31.299   7.747
  942POPC   C1B14431  42.875  31.822   8.851
  942POPC   C2B14432  43.047  31.732   8.467
  942POPC   C3B14433  43.009  31.715   8.057
  942POPC   C4B14434  42.742  31.679   7.726
  943POPC   NC314435   3.019  10.326   9.592
  943POPC   PO414436   2.404  10.626   9.486
  943POPC   GL114437   2.728  10.489   9.203
  943POPC   GL214438   2.959  10.760   9.311
  943POPC   C1A14439   2.733  10.431   8.749
  943POPC   D2A14440   2.929  10.319   8.337
  943POPC   C3A14441   2.676  10.455   7.999
  943POPC   C4A14442   2.621  10.718   7.652
  943POPC   C1B14443   2.990  10.893   8.888
  943POPC   C2B14444   3.142  10.881   8.459
  943POPC   C3B14445   2.936  10.901   8.057
  943POPC   C4B14446   3.085  10.870   7.653
  944POPC   NC314447  44.520  16.729   9.403
  944POPC   PO414448  44.791  17.346   9.623
  944POPC   GL114449  44.833  17.078   9.206
  944POPC   GL214450  44.523  17.034   8.966
  944POPC   C1A14451  44.957  16.895   8.777
  944POPC   D2A14452   0.175  16.973   8.373
  944POPC   C3A14453  44.950  16.846   7.997
  944POPC   C4A14454  44.895  17.078   7.594
  944POPC   C1B14455  44.312  16.666   8.773
  944POPC   C2B14456  44.356  16.503   8.352
  944POPC   C3B14457  44.447  16.643   7.917
  944POPC   C4B14458  44.409  16.916   7.513
  945POPC   NC314459  38.712   6.795   9.468
  945POPC   PO414460  38.306   6.265   9.552
  945POPC   GL114461  38.325   6.517   9.116
  945POPC   GL214462  38.566   6.793   8.992
  945POPC   C1A14463  38.488   6.409   8.686
  945POPC   D2A14464  38.529   6.525   8.247
  945POPC   C3A14465  38.233   6.285   7.989
  945POPC   C4A14466  38.197   6.370   7.573
  945POPC   C1B14467  38.229   6.910   8.687
  945POPC   C2B14468  38.209   7.075   8.264
  945POPC   C3B14469  38.500   6.963   7.935
  945POPC   C4B14470  38.879   6.792   7.764
  946POPC   NC314471  43.398  26.856   9.480
  946POPC   PO414472  42.782  26.636   9.676
  946POPC   GL114473  42.965  26.668   9.196
  946POPC   GL214474  43.323  26.622   9.052
  946POPC   C1A14475  43.023  26.802   8.723
  946POPC   D2A14476  43.187  27.046   8.398
  946POPC   C3A14477  42.904  26.954   8.083
  946POPC   C4A14478  42.960  26.618   7.840
  946POPC   C1B14479  43.570  26.892   8.812
  946POPC   C2B14480  43.622  26.720   8.430
  946POPC   C3B14481  43.402  26.686   8.085
  946POPC   C4B14482  43.389  27.051   7.854
  947POPC   NC314483  40.162  21.107   9.431
  947POPC   PO414484  39.840  21.706   9.459
  947POPC   GL114485  39.785  21.470   9.121
  947POPC   GL214486  39.748  21.118   9.112
  947POPC   C1A14487  39.766  21.572   8.712
  947POPC   D2A14488  39.954  21.682   8.347
  947POPC   C3A14489  39.745  21.492   8.046
  947POPC   C4A14490  39.765  21.586   7.590
  947POPC   C1B14491  40.106  21.199   8.821
  947POPC   C2B14492  40.201  21.198   8.434
  947POPC   C3B14493  40.346  21.249   8.058
  947POPC   C4B14494  40.106  21.247   7.772
  948POPC   NC314495  38.357  22.745   9.719
  948POPC   PO414496  38.777  23.237   9.424
  948POPC   GL114497  38.504  23.132   9.050
  948POPC   GL214498  38.308  22.864   9.085
  948POPC   C1A14499  38.627  22.920   8.668
  948POPC   D2A14500  38.784  23.026   8.285
  948POPC   C3A14501  38.476  23.203   8.030
  948POPC   C4A14502  38.556  23.167   7.602
  948POPC   C1B14503  38.174  22.676   8.696
  948POPC   C2B14504  38.337  22.739   8.274
  948POPC   C3B14505  38.477  22.657   7.842
  948POPC   C4B14506  38.164  22.559   7.487
  949POPC   NC314507   8.991   2.869   9.558
  949POPC   PO414508   8.629   2.249   9.450
  949POPC   GL114509   8.831   2.574   9.141
  949POPC   GL214510   9.206   2.626   9.097
  949POPC   C1A14511   8.905   2.859   8.771
  949POPC   D2A14512   8.981   2.885   8.322
  949POPC   C3A14513   8.687   3.059   8.011
  949POPC   C4A14514   8.809   2.883   7.643
  949POPC   C1B14515   9.364   2.616   8.659
  949POPC   C2B14516   9.216   2.425   8.258
  949POPC   C3B14517   9.021   2.449   7.857
  949POPC   C4B14518   9.194   2.469   7.455
  950POPC   NC314519  12.339   2.897   9.474
  950POPC   PO414520  11.822   2.464   9.461
  950POPC   GL114521  11.890   2.781   9.110
  950POPC   GL214522  12.125   3.068   9.040
  950POPC   C1A14523  11.868   2.822   8.652
  950POPC   D2A14524  11.648   2.658   8.297
  950POPC   C3A14525  11.979   2.513   7.998
  950POPC   C4A14526  12.375   2.752   7.859
  950POPC   C1B14527  12.383   2.908   8.748
  950POPC   C2B14528  12.331   2.990   8.347
  950POPC   C3B14529  12.000   3.009   8.122
  950POPC   C4B14530  12.072   3.164   7.801
  951POPC   NC314531  17.997   1.593   9.409
  951POPC   PO414532  17.314   1.311   9.459
  951POPC   GL114533  17.369   1.047   9.071
  951POPC   GL214534  17.753   1.018   9.097
  951POPC   C1A14535  17.414   0.890   8.653
  951POPC   D2A14536  17.568   1.047   8.281
  951POPC   C3A14537  17.383   0.975   7.899
  951POPC   C4A14538  17.330   1.223   7.507
  951POPC   C1B14539  17.635   1.382   8.818
  951POPC   C2B14540  17.734   1.520   8.407
  951POPC   C3B14541  17.574   1.486   7.994
  951POPC   C4B14542  17.786   1.480   7.626
  952POPC   NC314543  22.553  39.808   9.492
  952POPC   PO414544  23.165  40.159   9.413
  952POPC   GL114545  22.880  39.960   9.125
  952POPC   GL214546  22.573  40.147   9.106
  952POPC   C1A14547  22.808  39.880   8.697
  952POPC   D2A14548  22.994  40.170   8.396
  952POPC   C3A14549  23.154  39.885   8.111
  952POPC   C4A14550  22.995  39.984   7.712
  952POPC   C1B14551  22.604  40.335   8.730
  952POPC   C2B14552  22.498  40.292   8.303
  952POPC   C3B14553  22.596  40.240   7.855
  952POPC   C4B14554  22.639  40.262   7.363
  953POPC   NC314555  18.567   6.385   9.422
  953POPC   PO414556  18.256   6.984   9.505
  953POPC   GL114557  18.242   6.752   9.136
  953POPC   GL214558  18.277   6.390   9.015
  953POPC   C1A14559  18.144   6.881   8.742
  953POPC   D2A14560  18.210   6.606   8.432
  953POPC   C3A14561  18.263   6.774   8.033
  953POPC   C4A14562  18.000   6.741   7.680
  953POPC   C1B14563  18.516   6.216   8.660
  953POPC   C2B14564  18.636   6.283   8.227
  953POPC   C3B14565  18.537   6.393   7.805
  953POPC   C4B14566  18.365   6.525   7.416
  954POPC   NC314567  32.979  21.087   9.812
  954POPC   PO414568  33.265  21.633   9.702
  954POPC   GL114569  33.105  21.503   9.255
  954POPC   GL214570  32.930  21.139   9.186
  954POPC   C1A14571  32.894  21.498   8.818
  954POPC   D2A14572  32.984  21.456   8.345
  954POPC   C3A14573  32.817  21.694   7.977
  954POPC   C4A14574  32.963  21.647   7.552
  954POPC   C1B14575  32.721  20.972   8.808
  954POPC   C2B14576  32.508  21.053   8.387
  954POPC   C3B14577  32.642  20.902   8.009
  954POPC   C4B14578  32.901  21.208   7.843
  955POPC   NC314579  11.844  13.157   9.500
  955POPC   PO414580  11.939  12.488   9.481
  955POPC   GL114581  12.089  12.741   9.113
  955POPC   GL214582  12.025  13.108   9.035
  955POPC   C1A14583  12.218  12.800   8.672
  955POPC   D2A14584  11.996  12.620   8.323
  955POPC   C3A14585  12.184  12.668   7.950
  955POPC   C4A14586  11.978  12.998   7.770
  955POPC   C1B14587  12.149  13.388   8.684
  955POPC   C2B14588  12.429  13.378   8.384
  955POPC   C3B14589  12.431  13.142   8.025
  955POPC   C4B14590  12.522  12.977   7.646
  956POPC   NC314591  26.160  30.321   9.548
  956POPC   PO414592  25.876  30.988   9.565
  956POPC   GL114593  26.111  30.831   9.237
  956POPC   GL214594  25.950  30.519   9.121
  956POPC   C1A14595  26.151  30.985   8.828
  956POPC   D2A14596  25.968  30.873   8.448
  956POPC   C3A14597  26.189  30.844   8.055
  956POPC   C4A14598  25.978  30.831   7.688
  956POPC   C1B14599  26.315  30.509   8.838
  956POPC   C2B14600  26.252  30.453   8.413
  956POPC   C3B14601  25.946  30.397   8.111
  956POPC   C4B14602  26.179  30.303   7.745
  957POPC   NC314603   5.577  22.715   9.387
  957POPC   PO414604   6.125  23.144   9.502
  957POPC   GL114605   5.912  23.023   9.143
  957POPC   GL214606   5.993  22.655   9.122
  957POPC   C1A14607   5.753  23.221   8.767
  957POPC   D2A14608   5.605  23.098   8.370
  957POPC   C3A14609   5.878  23.163   8.030
  957POPC   C4A14610   5.765  23.070   7.656
  957POPC   C1B14611   5.687  22.707   8.755
  957POPC   C2B14612   5.452  22.584   8.403
  957POPC   C3B14613   5.598  22.695   8.014
  957POPC   C4B14614   6.001  22.644   7.838
  958POPC   NC314615  14.123  30.253   9.415
  958POPC   PO414616  13.536  29.909   9.604
  958POPC   GL114617  13.686  29.986   9.217
  958POPC   GL214618  13.839  29.721   9.050
  958POPC   C1A14619  13.504  29.998   8.822
  958POPC   D2A14620  13.664  29.895   8.442
  958POPC   C3A14621  13.426  29.818   8.116
  958POPC   C4A14622  13.331  30.074   7.775
  958POPC   C1B14623  14.047  30.010   8.766
  958POPC   C2B14624  14.171  29.818   8.406
  958POPC   C3B14625  13.960  29.720   8.036
  958POPC   C4B14626  13.900  29.982   7.724
  959POPC   NC314627  29.282  26.240   9.789
  959POPC   PO414628  28.735  26.016   9.704
  959POPC   GL114629  29.078  25.998   9.362
  959POPC   GL214630  29.210  26.320   9.265
  959POPC   C1A14631  29.224  25.969   8.890
  959POPC   D2A14632  29.113  26.067   8.434
  959POPC   C3A14633  29.165  25.780   8.074
  959POPC   C4A14634  29.170  25.867   7.636
  959POPC   C1B14635  29.130  26.490   8.812
  959POPC   C2B14636  29.256  26.548   8.347
  959POPC   C3B14637  29.147  26.345   7.927
  959POPC   C4B14638  29.395  26.298   7.506
  960POPC   NC314639   5.094  34.153   9.822
  960POPC   PO414640   4.827  33.659   9.499
  960POPC   GL114641   5.012  33.685   9.107
  960POPC   GL214642   4.811  33.517   8.899
  960POPC   C1A14643   5.080  33.955   8.717
  960POPC   D2A14644   5.233  34.243   8.372
  960POPC   C3A14645   5.157  34.089   7.941
  960POPC   C4A14646   5.378  33.966   7.545
  960POPC   C1B14647   5.246  33.471   8.705
  960POPC   C2B14648   5.302  33.604   8.284
  960POPC   C3B14649   5.008  33.592   7.957
  960POPC   C4B14650   4.587  33.434   8.009
  961POPC   NC314651  38.324  24.221   9.536
  961POPC   PO414652  38.755  24.682   9.471
  961POPC   GL114653  38.696  24.364   9.179
  961POPC   GL214654  38.338  24.386   9.047
  961POPC   C1A14655  38.732  24.249   8.753
  961POPC   D2A14656  38.455  24.498   8.481
  961POPC   C3A14657  38.406  24.419   8.067
  961POPC   C4A14658  38.668  24.183   7.860
  961POPC   C1B14659  38.129  24.717   8.788
  961POPC   C2B14660  38.205  24.919   8.354
  961POPC   C3B14661  38.213  24.868   7.879
  961POPC   C4B14662  38.172  24.559   7.534
  962POPC   NC314663  41.800  13.678   9.463
  962POPC   PO414664  41.141  13.526   9.339
  962POPC   GL114665  41.267  13.478   8.923
  962POPC   GL214666  41.595  13.509   9.016
  962POPC   C1A14667  41.375  13.487   8.494
  962POPC   D2A14668  41.681  13.605   8.212
  962POPC   C3A14669  41.498  13.601   7.884
  962POPC   C4A14670  41.228  13.370   7.667
  962POPC   C1B14671  41.828  13.685   8.683
  962POPC   C2B14672  41.972  14.014   8.349
  962POPC   C3B14673  41.932  13.955   7.879
  962POPC   C4B14674  41.936  13.874   7.419
  963POPC   NC314675  28.272  32.099   9.678
  963POPC   PO414676  28.793  32.027   9.307
  963POPC   GL114677  28.464  32.252   9.156
  963POPC   GL214678  28.141  32.114   9.164
  963POPC   C1A14679  28.380  32.163   8.719
  963POPC   D2A14680  28.529  32.362   8.364
  963POPC   C3A14681  28.439  32.087   8.060
  963POPC   C4A14682  28.443  32.251   7.676
  963POPC   C1B14683  28.038  32.478   8.916
  963POPC   C2B14684  27.998  32.421   8.461
  963POPC   C3B14685  28.104  32.477   8.041
  963POPC   C4B14686  27.849  32.758   7.859
  964POPC   NC314687  11.897  31.616   9.316
  964POPC   PO414688  11.850  32.338   9.453
  964POPC   GL114689  12.080  32.327   9.085
  964POPC   GL214690  12.280  32.003   9.060
  964POPC   C1A14691  12.283  32.377   8.715
  964POPC   D2A14692  12.131  32.235   8.343
  964POPC   C3A14693  12.372  32.360   8.017
  964POPC   C4A14694  12.181  32.563   7.703
  964POPC   C1B14695  11.943  31.961   8.755
  964POPC   C2B14696  11.765  31.839   8.363
  964POPC   C3B14697  11.948  31.903   7.988
  964POPC   C4B14698  11.871  32.155   7.682
  965POPC   NC314699  43.355  41.138   9.483
  965POPC   PO414700  43.030  40.529   9.439
  965POPC   GL114701  43.294  40.655   9.091
  965POPC   GL214702  43.222  40.983   9.015
  965POPC   C1A14703  43.302  40.501   8.667
  965POPC   D2A14704  43.141  40.560   8.215
  965POPC   C3A14705  43.440  40.548   7.857
  965POPC   C4A14706  43.390  40.933   7.557
  965POPC   C1B14707  42.939  40.920   8.656
  965POPC   C2B14708  42.788  40.994   8.206
  965POPC   C3B14709  42.928  40.926   7.772
  965POPC   C4B14710  42.984  41.183   7.357
  966POPC   NC314711  29.540  37.904   9.425
  966POPC   PO414712  28.994  37.514   9.519
  966POPC   GL114713  29.144  37.724   9.169
  966POPC   GL214714  29.421  37.448   9.176
  966POPC   C1A14715  29.066  37.802   8.697
  966POPC   D2A14716  29.298  37.795   8.276
  966POPC   C3A14717  29.098  37.952   7.882
  966POPC   C4A14718  28.847  38.056   7.529
  966POPC   C1B14719  29.082  37.339   8.874
  966POPC   C2B14720  29.087  37.341   8.434
  966POPC   C3B14721  29.064  37.435   8.012
  966POPC   C4B14722  29.319  37.339   7.707
  967POPC   NC314723  40.232  27.028   9.500
  967POPC   PO414724  39.606  26.876   9.489
  967POPC   GL114725  39.838  27.045   9.170
  967POPC   GL214726  40.026  26.729   9.092
  967POPC   C1A14727  39.852  27.080   8.741
  967POPC   D2A14728  39.794  26.882   8.352
  967POPC   C3A14729  39.905  27.078   7.941
  967POPC   C4A14730  39.820  26.908   7.535
  967POPC   C1B14731  40.185  26.682   8.649
  967POPC   C2B14732  40.078  26.459   8.263
  967POPC   C3B14733  40.123  26.608   7.857
  967POPC   C4B14734  40.439  26.969   7.875
  968POPC   NC314735  42.724  11.200   9.468
  968POPC   PO414736  42.560  11.853   9.658
  968POPC   GL114737  42.497  11.622   9.259
  968POPC   GL214738  42.201  11.648   9.074
  968POPC   C1A14739  42.601  11.404   8.846
  968POPC   D2A14740  42.513  11.491   8.404
  968POPC   C3A14741  42.520  11.194   8.038
  968POPC   C4A14742  42.490  11.246   7.587
  968POPC   C1B14743  42.088  11.325   8.778
  968POPC   C2B14744  42.000  11.339   8.367
  968POPC   C3B14745  42.151  11.600   8.046
  968POPC   C4B14746  42.081  11.511   7.652
  969POPC   NC314747  24.167  21.497   9.458
  969POPC   PO414748  24.766  21.162   9.534
  969POPC   GL114749  24.572  21.328   9.183
  969POPC   GL214750  24.619  21.670   9.106
  969POPC   C1A14751  24.506  21.313   8.761
  969POPC   D2A14752  24.399  21.467   8.396
  969POPC   C3A14753  24.630  21.423   8.039
  969POPC   C4A14754  24.562  21.219   7.616
  969POPC   C1B14755  24.230  21.763   8.828
  969POPC   C2B14756  24.129  21.890   8.399
  969POPC   C3B14757  24.204  21.709   7.988
  969POPC   C4B14758  24.493  21.717   7.662
  970POPC   NC314759  31.912   7.212   9.440
  970POPC   PO414760  32.360   7.699   9.472
  970POPC   GL114761  32.285   7.451   9.146
  970POPC   GL214762  31.991   7.618   9.055
  970POPC   C1A14763  32.385   7.494   8.729
  970POPC   D2A14764  32.261   7.682   8.364
  970POPC   C3A14765  32.223   7.465   8.003
  970POPC   C4A14766  32.494   7.145   7.880
  970POPC   C1B14767  31.945   7.886   8.703
  970POPC   C2B14768  31.866   8.078   8.292
  970POPC   C3B14769  31.813   7.824   7.929
  970POPC   C4B14770  32.126   7.724   7.583
  971POPC   NC314771   6.968  11.584   9.542
  971POPC   PO414772   6.713  12.260   9.530
  971POPC   GL114773   6.561  12.087   9.122
  971POPC   GL214774   6.711  11.780   9.152
  971POPC   C1A14775   6.542  11.886   8.697
  971POPC   D2A14776   6.639  11.834   8.261
  971POPC   C3A14777   6.448  12.049   7.895
  971POPC   C4A14778   6.546  12.437   7.629
  971POPC   C1B14779   7.055  11.776   8.822
  971POPC   C2B14780   7.152  11.761   8.358
  971POPC   C3B14781   6.974  11.638   7.936
  971POPC   C4B14782   6.885  11.722   7.465
  972POPC   NC314783  24.598  27.471   9.789
  972POPC   PO414784  24.173  27.940   9.629
  972POPC   GL114785  24.270  27.777   9.174
  972POPC   GL214786  24.568  27.552   9.200
  972POPC   C1A14787  24.541  27.870   8.779
  972POPC   D2A14788  24.615  27.657   8.371
  972POPC   C3A14789  24.460  27.860   8.016
  972POPC   C4A14790  24.530  27.737   7.604
  972POPC   C1B14791  24.360  27.394   8.791
  972POPC   C2B14792  24.294  27.271   8.342
  972POPC   C3B14793  24.495  27.339   7.935
  972POPC   C4B14794  24.311  27.280   7.514
  973POPC   NC314795   3.727   0.641   9.454
  973POPC   PO414796   3.305   0.135   9.398
  973POPC   GL114797   3.582   0.344   9.066
  973POPC   GL214798   3.362   0.603   9.063
  973POPC   C1A14799   3.647   0.674   8.678
  973POPC   D2A14800   3.616   0.521   8.259
  973POPC   C3A14801   3.704   0.724   7.869
  973POPC   C4A14802   3.855   0.372   7.575
  973POPC   C1B14803   3.211   0.404   8.694
  973POPC   C2B14804   3.101   0.520   8.285
  973POPC   C3B14805   3.233   0.373   7.888
  973POPC   C4B14806   3.023   0.348   7.504
  974POPC   NC314807  41.452   1.175   9.510
  974POPC   PO414808  41.877   0.884   9.033
  974POPC   GL114809  41.430   0.926   9.056
  974POPC   GL214810  41.463   1.291   9.025
  974POPC   C1A14811  41.189   1.046   8.676
  974POPC   D2A14812  41.458   1.259   8.372
  974POPC   C3A14813  41.507   1.095   7.966
  974POPC   C4A14814  41.890   1.065   7.733
  974POPC   C1B14815  41.248   1.567   8.750
  974POPC   C2B14816  41.071   1.597   8.332
  974POPC   C3B14817  41.262   1.572   7.931
  974POPC   C4B14818  41.562   1.472   7.622
  975POPC   NC314819  36.386  28.286   9.406
  975POPC   PO414820  35.743  28.540   9.511
  975POPC   GL114821  35.953  28.420   9.173
  975POPC   GL214822  36.183  28.675   9.137
  975POPC   C1A14823  36.028  28.282   8.782
  975POPC   D2A14824  36.277  28.102   8.488
  975POPC   C3A14825  36.180  28.366   8.142
  975POPC   C4A14826  36.221  28.367   7.711
  975POPC   C1B14827  36.454  28.585   8.791
  975POPC   C2B14828  36.417  28.723   8.397
  975POPC   C3B14829  36.495  28.747   7.963
  975POPC   C4B14830  36.300  28.814   7.509
  976POPC   NC314831  42.832  26.224   9.453
  976POPC   PO414832  43.461  26.352   9.447
  976POPC   GL114833  43.215  26.135   9.081
  976POPC   GL214834  42.916  25.925   9.049
  976POPC   C1A14835  43.242  26.268   8.627
  976POPC   D2A14836  43.552  26.213   8.270
  976POPC   C3A14837  43.425  26.140   7.832
  976POPC   C4A14838  43.164  26.339   7.467
  976POPC   C1B14839  42.987  25.782   8.630
  976POPC   C2B14840  42.966  25.744   8.164
  976POPC   C3B14841  42.935  25.961   7.766
  976POPC   C4B14842  42.766  25.891   7.360
  977POPC   NC314843  27.879  40.807   9.833
  977POPC   PO414844  28.443  40.772   9.476
  977POPC   GL114845  28.391  40.960   9.098
  977POPC   GL214846  28.227  40.682   8.990
  977POPC   C1A14847  28.571  40.898   8.691
  977POPC   D2A14848  28.404  40.821   8.315
  977POPC   C3A14849  28.632  40.797   7.944
  977POPC   C4A14850  28.509  40.467   7.677
  977POPC   C1B14851  28.012  40.880   8.657
  977POPC   C2B14852  27.862  40.687   8.292
  977POPC   C3B14853  28.102  40.654   7.940
  977POPC   C4B14854  28.202  41.118   7.928
  978POPC   NC314855  38.798  28.189   9.832
  978POPC   PO414856  38.254  28.476   9.563
  978POPC   GL114857  38.283  28.323   9.143
  978POPC   GL214858  38.603  28.515   9.035
  978POPC   C1A14859  38.314  28.213   8.691
  978POPC   D2A14860  38.289  28.419   8.286
  978POPC   C3A14861  38.287  28.179   7.867
  978POPC   C4A14862  38.225  28.428   7.516
  978POPC   C1B14863  38.812  28.245   8.693
  978POPC   C2B14864  38.650  28.072   8.314
  978POPC   C3B14865  38.737  28.345   7.991
  978POPC   C4B14866  38.942  28.398   7.642
  979POPC   NC314867  32.635  35.061   9.441
  979POPC   PO414868  32.385  34.443   9.451
  979POPC   GL114869  32.338  34.636   9.117
  979POPC   GL214870  32.181  34.929   9.229
  979POPC   C1A14871  32.162  34.679   8.750
  979POPC   D2A14872  32.038  34.491   8.426
  979POPC   C3A14873  32.277  34.343   8.086
  979POPC   C4A14874  32.290  34.666   7.812
  979POPC   C1B14875  31.852  35.044   8.945
  979POPC   C2B14876  31.899  35.123   8.493
  979POPC   C3B14877  31.882  34.956   8.084
  979POPC   C4B14878  31.860  34.880   7.669
  980POPC   NC314879   4.080   6.457   9.496
  980POPC   PO414880   4.665   6.544   9.474
  980POPC   GL114881   4.375   6.691   9.091
  980POPC   GL214882   4.119   6.919   9.212
  980POPC   C1A14883   4.340   6.756   8.601
  980POPC   D2A14884   4.532   6.802   8.169
  980POPC   C3A14885   4.513   6.473   7.863
  980POPC   C4A14886   4.169   6.348   7.568
  980POPC   C1B14887   3.887   6.855   8.830
  980POPC   C2B14888   3.881   6.964   8.421
  980POPC   C3B14889   4.037   6.803   8.030
  980POPC   C4B14890   4.250   6.851   7.655
  981POPC   NC314891  12.364  23.971   9.631
  981POPC   PO414892  11.907  23.509   9.611
  981POPC   GL114893  11.981  23.626   9.177
  981POPC   GL214894  12.146  23.941   9.133
  981POPC   C1A14895  12.177  23.551   8.774
  981POPC   D2A14896  12.211  23.329   8.387
  981POPC   C3A14897  11.989  23.496   8.039
  981POPC   C4A14898  12.307  23.581   7.773
  981POPC   C1B14899  12.340  24.035   8.708
  981POPC   C2B14900  12.188  23.892   8.309
  981POPC   C3B14901  12.161  24.046   7.892
  981POPC   C4B14902  12.278  23.981   7.445
  982POPC   NC314903   9.281  15.743   9.397
  982POPC   PO414904   8.613  16.019   9.516
  982POPC   GL114905   8.924  15.980   9.167
  982POPC   GL214906   8.916  15.683   8.993
  982POPC   C1A14907   9.001  16.105   8.751
  982POPC   D2A14908   9.285  16.085   8.403
  982POPC   C3A14909   9.135  16.172   7.993
  982POPC   C4A14910   9.157  16.070   7.581
  982POPC   C1B14911   8.781  15.675   8.594
  982POPC   C2B14912   8.706  15.908   8.238
  982POPC   C3B14913   8.929  15.717   7.927
  982POPC   C4B14914   8.949  15.602   7.513
  983POPC   NC314915  32.462  38.736   9.617
  983POPC   PO414916  32.552  39.398   9.419
  983POPC   GL114917  32.896  39.315   9.038
  983POPC   GL214918  33.218  39.042   9.106
  983POPC   C1A14919  32.999  39.113   8.666
  983POPC   D2A14920  33.143  39.317   8.368
  983POPC   C3A14921  32.924  39.359   8.008
  983POPC   C4A14922  33.106  39.070   7.752
  983POPC   C1B14923  33.417  39.390   8.839
  983POPC   C2B14924  33.534  39.628   8.437
  983POPC   C3B14925  33.455  39.456   8.005
  983POPC   C4B14926  33.423  39.413   7.579
  984POPC   NC314927  19.270  12.775   9.426
  984POPC   PO414928  18.736  12.445   9.331
  984POPC   GL114929  18.874  12.806   9.024
  984POPC   GL214930  19.200  12.955   8.977
  984POPC   C1A14931  18.889  12.926   8.564
  984POPC   D2A14932  18.827  12.672   8.218
  984POPC   C3A14933  19.036  12.651   7.818
  984POPC   C4A14934  18.880  13.016   7.608
  984POPC   C1B14935  19.401  12.874   8.601
  984POPC   C2B14936  19.282  12.948   8.200
  984POPC   C3B14937  19.337  13.054   7.810
  984POPC   C4B14938  19.554  12.652   7.764
  985POPC   NC314939  30.048  21.797   9.251
  985POPC   PO414940  29.896  21.162   9.453
  985POPC   GL114941  29.784  21.326   9.093
  985POPC   GL214942  29.574  21.634   9.146
  985POPC   C1A14943  29.819  21.108   8.683
  985POPC   D2A14944  30.050  20.897   8.337
  985POPC   C3A14945  29.989  21.127   7.945
  985POPC   C4A14946  29.658  21.371   7.673
  985POPC   C1B14947  29.753  21.653   8.697
  985POPC   C2B14948  29.856  21.462   8.312
  985POPC   C3B14949  29.954  21.639   7.952
  985POPC   C4B14950  29.775  21.900   7.680
  986POPC   NC314951  37.143  28.938   9.460
  986POPC   PO414952  36.711  29.412   9.374
  986POPC   GL114953  37.038  29.318   9.071
  986POPC   GL214954  37.325  29.096   9.015
  986POPC   C1A14955  36.959  29.168   8.660
  986POPC   D2A14956  36.673  29.156   8.342
  986POPC   C3A14957  36.737  29.344   7.988
  986POPC   C4A14958  36.638  29.142   7.698
  986POPC   C1B14959  37.068  28.706   8.851
  986POPC   C2B14960  36.928  28.700   8.432
  986POPC   C3B14961  37.079  28.966   8.087
  986POPC   C4B14962  37.133  28.993   7.642
  987POPC   NC314963  24.094  42.131   9.588
  987POPC   PO414964  23.605  42.516   9.431
  987POPC   GL114965  23.608  42.259   9.117
  987POPC   GL214966  23.757  41.970   9.250
  987POPC   C1A14967  23.709  42.327   8.706
  987POPC   D2A14968  23.779  42.251   8.307
  987POPC   C3A14969  23.876  42.508   8.022
  987POPC   C4A14970  23.738  42.264   7.765
  987POPC   C1B14971  24.023  41.968   8.905
  987POPC   C2B14972  24.208  42.133   8.529
  987POPC   C3B14973  24.228  42.102   8.049
  987POPC   C4B14974  24.214  42.231   7.580
  988POPC   NC314975   9.961  14.288   9.697
  988POPC   PO414976   9.450  14.688   9.440
  988POPC   GL114977   9.683  14.549   9.114
  988POPC   GL214978   9.819  14.219   9.204
  988POPC   C1A14979   9.602  14.546   8.671
  988POPC   D2A14980   9.442  14.629   8.261
  988POPC   C3A14981   9.822  14.619   8.046
  988POPC   C4A14982   9.958  14.771   7.684
  988POPC   C1B14983   9.983  14.247   8.798
  988POPC   C2B14984  10.165  13.981   8.483
  988POPC   C3B14985  10.269  14.084   8.063
  988POPC   C4B14986   9.994  14.242   7.753
  989POPC   NC314987   6.226  38.236   9.583
  989POPC   PO414988   5.802  38.753   9.479
  989POPC   GL114989   5.893  38.519   9.103
  989POPC   GL214990   6.089  38.214   9.086
  989POPC   C1A14991   5.991  38.505   8.667
  989POPC   D2A14992   5.867  38.532   8.285
  989POPC   C3A14993   6.103  38.445   7.974
  989POPC   C4A14994   5.803  38.561   7.737
  989POPC   C1B14995   5.751  38.078   8.792
  989POPC   C2B14996   5.827  38.002   8.369
  989POPC   C3B14997   5.722  38.089   7.953
  989POPC   C4B14998   5.944  38.089   7.568
  990POPC   NC314999   5.659  17.000   9.818
  990POPC   PO415000   5.754  17.723   9.835
  990POPC   GL115001   5.980  17.801   9.375
  990POPC   GL215002   5.862  17.482   9.214
  990POPC   C1A15003   6.046  17.815   8.867
  990POPC   D2A15004   6.120  17.551   8.436
  990POPC   C3A15005   5.780  17.489   8.148
  990POPC   C4A15006   5.815  17.736   7.804
  990POPC   C1B15007   5.876  17.282   8.782
  990POPC   C2B15008   5.934  17.042   8.357
  990POPC   C3B15009   5.991  16.983   7.897
  990POPC   C4B15010   5.920  17.241   7.512
  991POPC   NC315011   5.425  23.601   9.361
  991POPC   PO415012   4.782  23.862   9.650
  991POPC   GL115013   4.924  23.733   9.229
  991POPC   GL215014   5.001  23.408   9.066
  991POPC   C1A15015   4.882  23.820   8.785
  991POPC   D2A15016   4.783  23.613   8.405
  991POPC   C3A15017   4.825  23.871   8.052
  991POPC   C4A15018   5.065  23.576   7.842
  991POPC   C1B15019   5.281  23.476   8.699
  991POPC   C2B15020   5.331  23.699   8.316
  991POPC   C3B15021   5.556  23.595   7.964
  991POPC   C4B15022   5.526  23.489   7.562
  992POPC   NC315023  13.759   9.736   9.515
  992POPC   PO415024  13.285  10.342   9.363
  992POPC   GL115025  13.429   9.985   9.097
  992POPC   GL215026  13.562   9.637   9.081
  992POPC   C1A15027  13.589   9.955   8.660
  992POPC   D2A15028  13.870   9.921   8.322
  992POPC   C3A15029  13.597   9.804   8.005
  992POPC   C4A15030  13.212   9.991   7.876
  992POPC   C1B15031  13.837   9.526   8.784
  992POPC   C2B15032  13.817   9.403   8.397
  992POPC   C3B15033  14.017   9.475   8.065
  992POPC   C4B15034  13.839   9.535   7.660
  993POPC   NC315035  20.426  41.951   9.470
  993POPC   PO415036  20.939  41.624   9.519
  993POPC   GL115037  20.817  41.792   9.146
  993POPC   GL215038  20.495  41.626   9.063
  993POPC   C1A15039  20.765  41.892   8.739
  993POPC   D2A15040  20.746  41.637   8.401
  993POPC   C3A15041  20.816  41.832   7.979
  993POPC   C4A15042  20.852  41.467   7.736
  993POPC   C1B15043  20.447  41.232   8.784
  993POPC   C2B15044  20.300  41.264   8.366
  993POPC   C3B15045  20.418  41.530   8.029
  993POPC   C4B15046  20.350  41.665   7.633
  994POPC   NC315047  43.179  23.425   9.422
  994POPC   PO415048  43.036  22.790   9.579
  994POPC   GL115049  42.851  22.789   9.182
  994POPC   GL215050  43.178  22.681   9.078
  994POPC   C1A15051  42.873  23.075   8.829
  994POPC   D2A15052  43.157  23.128   8.464
  994POPC   C3A15053  42.991  23.097   8.057
  994POPC   C4A15054  43.171  22.961   7.664
  994POPC   C1B15055  42.938  22.576   8.720
  994POPC   C2B15056  42.810  22.703   8.349
  994POPC   C3B15057  42.936  22.589   7.949
  994POPC   C4B15058  42.846  22.592   7.529
  995POPC   NC315059  28.524  44.271   9.521
  995POPC   PO415060  28.131  43.795   9.606
  995POPC   GL115061  28.366  43.754   9.206
  995POPC   GL215062  28.563  44.018   9.077
  995POPC   C1A15063  28.408  43.662   8.754
  995POPC   D2A15064  28.376  43.810   8.350
  995POPC   C3A15065  28.629  43.751   8.018
  995POPC   C4A15066  28.375  43.886   7.737
  995POPC   C1B15067  28.359  44.188   8.703
  995POPC   C2B15068  28.083  44.227   8.320
  995POPC   C3B15069  28.159  44.305   7.901
  995POPC   C4B15070  28.191  44.253   7.430
  996POPC   NC315071  37.290   4.152   9.576
  996POPC   PO415072  37.987   4.335   9.472
  996POPC   GL115073  37.623   4.330   9.189
  996POPC   GL215074  37.423   4.037   9.104
  996POPC   C1A15075  37.644   4.370   8.744
  996POPC   D2A15076  37.774   4.614   8.403
  996POPC   C3A15077  37.561   4.496   8.018
  996POPC   C4A15078  37.722   4.502   7.606
  996POPC   C1B15079  37.517   3.880   8.723
  996POPC   C2B15080  37.424   4.073   8.364
  996POPC   C3B15081  37.449   3.911   7.979
  996POPC   C4B15082  37.536   4.025   7.601
  997POPC   NC315083  38.700  21.326   9.497
  997POPC   PO415084  38.126  21.543   9.413
  997POPC   GL115085  38.411  21.380   9.062
  997POPC   GL215086  38.827  21.364   9.026
  997POPC   C1A15087  38.454  21.453   8.640
  997POPC   D2A15088  38.592  21.557   8.257
  997POPC   C3A15089  38.293  21.707   8.008
  997POPC   C4A15090  38.322  21.347   7.769
  997POPC   C1B15091  38.695  21.027   8.789
  997POPC   C2B15092  38.552  21.019   8.381
  997POPC   C3B15093  38.795  21.146   8.033
  997POPC   C4B15094  38.843  21.421   7.707
  998POPC   NC315095  14.601  34.565   9.776
  998POPC   PO415096  14.144  35.021   9.495
  998POPC   GL115097  14.389  34.793   9.057
  998POPC   GL215098  14.628  34.494   9.168
  998POPC   C1A15099  14.310  34.600   8.706
  998POPC   D2A15100  14.375  34.755   8.332
  998POPC   C3A15101  14.111  34.763   7.991
  998POPC   C4A15102  14.275  34.492   7.714
  998POPC   C1B15103  14.825  34.595   8.818
  998POPC   C2B15104  14.862  34.358   8.437
  998POPC   C3B15105  14.660  34.368   8.051
  998POPC   C4B15106  14.829  34.482   7.674
  999POPC   NC315107  44.413   6.595   9.433
  999POPC   PO415108  44.854   7.131   9.432
  999POPC   GL115109  44.776   6.810   9.127
  999POPC   GL215110  44.876   6.473   9.169
  999POPC   C1A15111  44.601   6.660   8.733
  999POPC   D2A15112  44.350   6.777   8.360
  999POPC   C3A15113  44.594   6.680   7.988
  999POPC   C4A15114  44.506   6.645   7.538
  999POPC   C1B15115   0.074   6.431   8.758
  999POPC   C2B15116  44.967   6.592   8.351
  999POPC   C3B15117   0.007   6.391   7.960
  999POPC   C4B15118  44.771   6.203   7.594
 1000POPC   NC315119  39.218   3.639   9.624
 1000POPC   PO415120  39.671   3.097   9.607
 1000POPC   GL115121  39.408   3.350   9.255
 1000POPC   GL215122  39.471   3.761   9.188
 1000POPC   C1A15123  39.376   3.433   8.801
 1000POPC   D2A15124  39.388   3.227   8.410
 1000POPC   C3A15125  39.236   3.381   8.049
 1000POPC   C4A15126  39.540   3.455   7.746
 1000POPC   C1B15127  39.132   3.879   8.862
 1000POPC   C2B15128  39.089   3.707   8.414
 1000POPC   C3B15129  39.193   3.869   7.956
 1000POPC   C4B15130  39.013   3.895   7.512
 1001POPC   NC315131  12.192  21.434   9.632
 1001POPC   PO415132  11.672  21.210   9.285
 1001POPC   GL115133  11.987  21.491   9.158
 1001POPC   GL215134  12.314  21.332   9.142
 1001POPC   C1A15135  12.002  21.582   8.750
 1001POPC   D2A15136  11.832  21.328   8.420
 1001POPC   C3A15137  12.162  21.276   8.126
 1001POPC   C4A15138  12.376  21.608   7.871
 1001POPC   C1B15139  12.156  21.108   8.788
 1001POPC   C2B15140  12.353  20.846   8.501
 1001POPC   C3B15141  12.505  20.849   8.101
 1001POPC   C4B15142  12.479  21.123   7.744
 1002POPC   NC315143  11.670  23.124   9.642
 1002POPC   PO415144  11.291  22.691   9.682
 1002POPC   GL115145  11.428  22.644   9.220
 1002POPC   GL215146  11.096  22.660   9.078
 1002POPC   C1A15147  11.589  22.763   8.763
 1002POPC   D2A15148  11.387  22.783   8.292
 1002POPC   C3A15149  11.528  23.083   7.927
 1002POPC   C4A15150  11.459  23.164   7.460
 1002POPC   C1B15151  11.202  22.465   8.704
 1002POPC   C2B15152  11.083  22.363   8.308
 1002POPC   C3B15153  11.049  22.564   7.916
 1002POPC   C4B15154  11.272  22.713   7.559
 1003POPC   NC315155  38.122  39.628   9.393
 1003POPC   PO415156  38.166  40.216   9.806
 1003POPC   GL115157  38.274  40.130   9.352
 1003POPC   GL215158  38.591  39.942   9.223
 1003POPC   C1A15159  38.247  40.161   8.902
 1003POPC   D2A15160  38.429  40.166   8.501
 1003POPC   C3A15161  38.237  40.153   8.111
 1003POPC   C4A15162  38.310  39.967   7.731
 1003POPC   C1B15163  38.771  39.959   8.829
 1003POPC   C2B15164  38.939  40.039   8.433
 1003POPC   C3B15165  38.746  40.049   8.049
 1003POPC   C4B15166  38.772  39.824   7.685
 1004POPC   NC315167  27.034   4.145   9.519
 1004POPC   PO415168  26.562   4.596   9.440
 1004POPC   GL115169  26.735   4.304   9.129
 1004POPC   GL215170  26.675   3.928   9.172
 1004POPC   C1A15171  26.878   4.415   8.728
 1004POPC   D2A15172  27.106   4.385   8.341
 1004POPC   C3A15173  26.822   4.491   7.971
 1004POPC   C4A15174  26.961   4.631   7.555
 1004POPC   C1B15175  26.524   4.020   8.748
 1004POPC   C2B15176  26.638   4.153   8.351
 1004POPC   C3B15177  26.775   3.984   7.962
 1004POPC   C4B15178  26.742   4.176   7.541
 1005POPC   NC315179  41.051  20.897   9.412
 1005POPC   PO415180  40.698  20.286   9.586
 1005POPC   GL115181  40.706  20.539   9.203
 1005POPC   GL215182  41.056  20.407   9.237
 1005POPC   C1A15183  40.550  20.782   8.779
 1005POPC   D2A15184  40.640  20.918   8.314
 1005POPC   C3A15185  40.419  20.708   7.936
 1005POPC   C4A15186  40.438  20.278   7.755
 1005POPC   C1B15187  41.047  20.563   8.808
 1005POPC   C2B15188  41.124  20.463   8.368
 1005POPC   C3B15189  40.922  20.523   7.952
 1005POPC   C4B15190  40.932  20.253   7.601
 1006POPC   NC315191  11.727  37.018   9.645
 1006POPC   PO415192  12.226  36.526   9.488
 1006POPC   GL115193  11.957  36.817   9.236
 1006POPC   GL215194  12.181  37.097   9.202
 1006POPC   C1A15195  11.852  37.111   8.844
 1006POPC   D2A15196  12.011  37.035   8.427
 1006POPC   C3A15197  11.763  36.946   8.076
 1006POPC   C4A15198  11.890  36.811   7.703
 1006POPC   C1B15199  12.222  36.750   8.830
 1006POPC   C2B15200  12.370  36.576   8.458
 1006POPC   C3B15201  12.254  36.733   8.068
 1006POPC   C4B15202  12.429  36.740   7.670
 1007POPC   NC315203  22.321  23.795   9.427
 1007POPC   PO415204  22.961  23.764   9.529
 1007POPC   GL115205  23.002  23.585   9.138
 1007POPC   GL215206  22.648  23.525   9.135
 1007POPC   C1A15207  23.193  23.762   8.763
 1007POPC   D2A15208  23.152  23.631   8.362
 1007POPC   C3A15209  23.178  23.877   8.018
 1007POPC   C4A15210  23.066  23.718   7.599
 1007POPC   C1B15211  22.723  23.460   8.727
 1007POPC   C2B15212  22.641  23.675   8.388
 1007POPC   C3B15213  22.733  23.647   7.984
 1007POPC   C4B15214  22.529  23.739   7.582
 1008POPC   NC315215   1.879  18.573   9.368
 1008POPC   PO415216   2.070  17.996   9.612
 1008POPC   GL115217   1.927  18.093   9.184
 1008POPC   GL215218   2.183  18.344   9.061
 1008POPC   C1A15219   1.799  18.221   8.753
 1008POPC   D2A15220   1.952  18.070   8.336
 1008POPC   C3A15221   1.863  18.218   7.915
 1008POPC   C4A15222   1.847  18.163   7.443
 1008POPC   C1B15223   2.223  18.522   8.681
 1008POPC   C2B15224   2.285  18.435   8.280
 1008POPC   C3B15225   2.366  18.620   7.932
 1008POPC   C4B15226   2.154  18.503   7.614
 1009POPC   NC315227   0.688  12.960   9.251
 1009POPC   PO415228   0.678  12.393   9.629
 1009POPC   GL115229   0.397  12.548   9.170
 1009POPC   GL215230   0.218  12.862   9.069
 1009POPC   C1A15231   0.193  12.453   8.741
 1009POPC   D2A15232   0.164  12.605   8.293
 1009POPC   C3A15233   0.538  12.711   8.079
 1009POPC   C4A15234   0.583  12.705   7.657
 1009POPC   C1B15235   0.431  12.901   8.647
 1009POPC   C2B15236   0.440  13.147   8.281
 1009POPC   C3B15237   0.617  13.187   7.865
 1009POPC   C4B15238   0.450  13.300   7.479
 1010POPC   NC315239  42.927   0.844   9.267
 1010POPC   PO415240  43.245   0.342   9.636
 1010POPC   GL115241  43.213   0.402   9.180
 1010POPC   GL215242  43.017   0.154   9.077
 1010POPC   C1A15243  43.036   0.512   8.734
 1010POPC   D2A15244  42.936   0.808   8.425
 1010POPC   C3A15245  42.913   0.578   8.040
 1010POPC   C4A15246  43.275   0.588   7.811
 1010POPC   C1B15247  43.260   0.042   8.724
 1010POPC   C2B15248  43.128   0.119   8.292
 1010POPC   C3B15249  43.114   0.107   7.835
 1010POPC   C4B15250  43.019   0.054   7.372
 1011POPC   NC315251  14.238  33.510   9.621
 1011POPC   PO415252  14.447  34.187   9.538
 1011POPC   GL115253  14.246  33.870   9.236
 1011POPC   GL215254  14.447  33.567   9.170
 1011POPC   C1A15255  14.200  33.875   8.779
 1011POPC   D2A15256  14.358  34.151   8.440
 1011POPC   C3A15257  14.310  33.967   8.013
 1011POPC   C4A15258  14.566  34.040   7.634
 1011POPC   C1B15259  14.665  33.626   8.809
 1011POPC   C2B15260  14.577  33.701   8.422
 1011POPC   C3B15261  14.831  33.882   8.158
 1011POPC   C4B15262  14.776  33.635   7.836
 1012POPC   NC315263  19.811  17.541   9.465
 1012POPC   PO415264  20.430  17.567   9.787
 1012POPC   GL115265  20.268  17.545   9.253
 1012POPC   GL215266  20.066  17.235   9.105
 1012POPC   C1A15267  19.972  17.650   8.819
 1012POPC   D2A15268  19.921  17.566   8.334
 1012POPC   C3A15269  19.828  17.650   7.857
 1012POPC   C4A15270  20.070  17.394   7.502
 1012POPC   C1B15271  19.647  17.231   8.863
 1012POPC   C2B15272  19.503  17.236   8.431
 1012POPC   C3B15273  19.628  17.202   8.000
 1012POPC   C4B15274  19.564  17.355   7.546
 1013POPC   NC315275   0.008  24.059   9.229
 1013POPC   PO415276  44.835  23.472   9.500
 1013POPC   GL115277  44.871  23.559   9.114
 1013POPC   GL215278  44.561  23.722   9.108
 1013POPC   C1A15279  44.889  23.649   8.705
 1013POPC   D2A15280  44.585  23.559   8.397
 1013POPC   C3A15281  44.671  23.346   8.045
 1013POPC   C4A15282  44.856  23.590   7.777
 1013POPC   C1B15283  44.448  23.916   8.725
 1013POPC   C2B15284  44.764  24.050   8.421
 1013POPC   C3B15285  44.828  24.087   7.975
 1013POPC   C4B15286  44.513  23.955   7.647
 1014POPC   NC315287  13.373  16.817   9.568
 1014POPC   PO415288  13.961  16.599   9.337
 1014POPC   GL115289  13.573  16.606   9.129
 1014POPC   GL215290  13.608  16.958   9.117
 1014POPC   C1A15291  13.589  16.548   8.694
 1014POPC   D2A15292  13.870  16.635   8.365
 1014POPC   C3A15293  13.639  16.597   7.993
 1014POPC   C4A15294  13.861  16.420   7.686
 1014POPC   C1B15295  13.392  17.037   8.739
 1014POPC   C2B15296  13.496  16.994   8.298
 1014POPC   C3B15297  13.469  17.173   7.886
 1014POPC   C4B15298  13.670  16.908   7.574
 1015POPC   NC315299  35.727   0.212   9.390
 1015POPC   PO415300  35.393   0.811   9.597
 1015POPC   GL115301  35.378   0.564   9.182
 1015POPC   GL215302  35.287   0.205   9.124
 1015POPC   C1A15303  35.367   0.555   8.724
 1015POPC   D2A15304  35.560   0.438   8.333
 1015POPC   C3A15305  35.310   0.543   7.977
 1015POPC   C4A15306  35.571   0.510   7.655
 1015POPC   C1B15307  35.023   0.164   8.771
 1015POPC   C2B15308  35.055   0.310   8.371
 1015POPC   C3B15309  35.013   0.118   7.969
 1015POPC   C4B15310  34.901   0.357   7.593
 1016POPC   NC315311  29.360  26.912   9.456
 1016POPC   PO415312  28.766  26.901   9.637
 1016POPC   GL115313  28.924  26.735   9.255
 1016POPC   GL215314  28.707  26.487   9.169
 1016POPC   C1A15315  29.012  26.991   8.878
 1016POPC   D2A15316  28.945  26.947   8.458
 1016POPC   C3A15317  29.044  26.934   8.022
 1016POPC   C4A15318  29.289  26.780   7.688
 1016POPC   C1B15319  28.623  26.638   8.775
 1016POPC   C2B15320  28.760  26.469   8.413
 1016POPC   C3B15321  28.638  26.519   8.044
 1016POPC   C4B15322  28.767  26.642   7.688
 1017POPC   NC315323  38.030   5.833   9.486
 1017POPC   PO415324  38.649   5.593   9.434
 1017POPC   GL115325  38.366   5.674   9.152
 1017POPC   GL215326  38.413   6.010   9.127
 1017POPC   C1A15327  38.089   5.798   8.813
 1017POPC   D2A15328  38.190   6.053   8.452
 1017POPC   C3A15329  38.301   5.778   8.092
 1017POPC   C4A15330  38.521   5.407   7.928
 1017POPC   C1B15331  38.633   5.891   8.763
 1017POPC   C2B15332  38.715   6.049   8.359
 1017POPC   C3B15333  38.800   5.870   7.977
 1017POPC   C4B15334  38.580   5.810   7.607
 1018POPC   NC315335  11.844  44.154   9.463
 1018POPC   PO415336  12.099  43.677   9.800
 1018POPC   GL115337  12.107  43.714   9.340
 1018POPC   GL215338  12.291  44.029   9.217
 1018POPC   C1A15339  11.891  43.748   8.931
 1018POPC   D2A15340  11.931  43.606   8.507
 1018POPC   C3A15341  11.926  43.749   8.067
 1018POPC   C4A15342  11.970  43.937   7.642
 1018POPC   C1B15343  12.252  44.087   8.761
 1018POPC   C2B15344  12.102  44.168   8.343
 1018POPC   C3B15345  12.303  44.117   7.978
 1018POPC   C4B15346  12.268  44.357   7.646
 1019POPC   NC315347   9.926   3.140   9.790
 1019POPC   PO415348   9.458   2.726   9.518
 1019POPC   GL115349   9.803   2.714   9.124
 1019POPC   GL215350  10.091   3.031   9.146
 1019POPC   C1A15351   9.830   2.891   8.733
 1019POPC   D2A15352  10.006   2.746   8.387
 1019POPC   C3A15353   9.599   2.774   8.200
 1019POPC   C4A15354   9.503   2.667   7.802
 1019POPC   C1B15355  10.305   3.080   8.742
 1019POPC   C2B15356  10.165   3.272   8.355
 1019POPC   C3B15357   9.942   3.111   8.016
 1019POPC   C4B15358   9.495   3.174   7.895
 1020POPC   NC315359  25.197  13.231   9.738
 1020POPC   PO415360  25.419  12.639   9.510
 1020POPC   GL115361  25.190  12.765   9.180
 1020POPC   GL215362  25.484  12.820   9.016
 1020POPC   C1A15363  25.040  12.877   8.756
 1020POPC   D2A15364  25.238  12.809   8.371
 1020POPC   C3A15365  25.159  12.946   7.967
 1020POPC   C4A15366  24.885  12.707   7.710
 1020POPC   C1B15367  25.642  12.949   8.662
 1020POPC   C2B15368  25.556  13.197   8.303
 1020POPC   C3B15369  25.737  13.223   7.916
 1020POPC   C4B15370  25.503  13.058   7.602
 1021POPC   NC315371  34.799  42.230   9.520
 1021POPC   PO415372  34.370  42.557   9.174
 1021POPC   GL115373  34.572  42.147   9.044
 1021POPC   GL215374  34.364  41.838   9.125
 1021POPC   C1A15375  34.673  42.192   8.604
 1021POPC   D2A15376  34.675  42.585   8.339
 1021POPC   C3A15377  34.799  42.470   7.939
 1021POPC   C4A15378  34.940  42.063   7.859
 1021POPC   C1B15379  34.175  42.038   8.729
 1021POPC   C2B15380  34.230  42.313   8.370
 1021POPC   C3B15381  34.272  42.236   7.939
 1021POPC   C4B15382  34.015  42.398   7.600
 1022POPC   NC315383   6.113  27.213   9.879
 1022POPC   PO415384   5.610  27.654   9.527
 1022POPC   GL115385   5.822  27.714   9.119
 1022POPC   GL215386   5.565  27.486   9.048
 1022POPC   C1A15387   5.842  27.648   8.642
 1022POPC   D2A15388   6.012  27.448   8.256
 1022POPC   C3A15389   5.979  27.711   7.896
 1022POPC   C4A15390   6.245  27.929   7.623
 1022POPC   C1B15391   5.383  27.790   8.826
 1022POPC   C2B15392   5.334  27.745   8.424
 1022POPC   C3B15393   5.530  27.878   8.092
 1022POPC   C4B15394   5.495  27.824   7.699
 1023POPC   NC315395  39.592  36.999   9.826
 1023POPC   PO415396  40.192  37.039   9.500
 1023POPC   GL115397  40.140  36.991   9.076
 1023POPC   GL215398  40.172  37.388   9.122
 1023POPC   C1A15399  39.905  36.812   8.779
 1023POPC   D2A15400  39.882  36.543   8.479
 1023POPC   C3A15401  39.790  36.787   8.143
 1023POPC   C4A15402  39.912  36.783   7.755
 1023POPC   C1B15403  40.284  37.305   8.724
 1023POPC   C2B15404  40.195  37.006   8.403
 1023POPC   C3B15405  40.212  37.144   7.999
 1023POPC   C4B15406  40.399  37.416   7.727
 1024POPC   NC315407  34.800  11.024   9.506
 1024POPC   PO415408  34.240  11.341   9.422
 1024POPC   GL115409  34.397  11.469   9.075
 1024POPC   GL215410  34.669  11.287   9.051
 1024POPC   C1A15411  34.562  11.646   8.709
 1024POPC   D2A15412  34.540  11.369   8.376
 1024POPC   C3A15413  34.490  11.490   7.968
 1024POPC   C4A15414  34.572  11.181   7.618
 1024POPC   C1B15415  34.968  11.347   8.716
 1024POPC   C2B15416  35.020  11.553   8.360
 1024POPC   C3B15417  34.971  11.388   7.972
 1024POPC   C4B15418  34.876  11.567   7.569
 1025POPC   NC315419  18.340   3.187   9.425
 1025POPC   PO415420  18.530   2.585   9.650
 1025POPC   GL115421  18.427   2.702   9.207
 1025POPC   GL215422  18.058   2.837   9.186
 1025POPC   C1A15423  18.537   2.613   8.777
 1025POPC   D2A15424  18.310   2.628   8.381
 1025POPC   C3A15425  18.456   2.631   7.945
 1025POPC   C4A15426  18.237   2.698   7.534
 1025POPC   C1B15427  18.160   2.969   8.762
 1025POPC   C2B15428  18.243   3.145   8.335
 1025POPC   C3B15429  18.173   3.073   7.875
 1025POPC   C4B15430  17.976   3.122   7.407
 1026POPC   NC315431  41.793  21.150   9.588
 1026POPC   PO415432  41.363  21.564   9.406
 1026POPC   GL115433  41.694  21.481   9.133
 1026POPC   GL215434  41.658  21.141   9.101
 1026POPC   C1A15435  41.881  21.561   8.704
 1026POPC   D2A15436  41.793  21.648   8.244
 1026POPC   C3A15437  41.563  21.333   7.961
 1026POPC   C4A15438  41.276  21.145   7.620
 1026POPC   C1B15439  41.948  21.041   8.783
 1026POPC   C2B15440  42.010  21.201   8.360
 1026POPC   C3B15441  41.926  20.944   8.027
 1026POPC   C4B15442  41.717  20.921   7.685
 1027POPC   NC315443  38.999   1.035   9.560
 1027POPC   PO415444  39.394   1.586   9.576
 1027POPC   GL115445  39.292   1.305   9.228
 1027POPC   GL215446  38.973   1.482   9.228
 1027POPC   C1A15447  39.162   1.021   8.865
 1027POPC   D2A15448  39.071   1.093   8.429
 1027POPC   C3A15449  39.337   1.108   8.057
 1027POPC   C4A15450  39.559   1.337   7.741
 1027POPC   C1B15451  38.803   1.426   8.828
 1027POPC   C2B15452  38.643   1.333   8.429
 1027POPC   C3B15453  38.846   1.312   8.018
 1027POPC   C4B15454  39.031   1.449   7.634
 1028POPC   NC315455   7.448   2.309   9.205
 1028POPC   PO415456   7.833   1.947   9.575
 1028POPC   GL115457   7.594   1.832   9.156
 1028POPC   GL215458   7.220   1.865   9.165
 1028POPC   C1A15459   7.545   1.960   8.677
 1028POPC   D2A15460   7.820   1.830   8.296
 1028POPC   C3A15461   7.548   1.842   7.936
 1028POPC   C4A15462   7.284   2.140   7.710
 1028POPC   C1B15463   7.131   1.681   8.801
 1028POPC   C2B15464   6.977   1.757   8.371
 1028POPC   C3B15465   7.020   1.752   7.935
 1028POPC   C4B15466   7.016   1.769   7.488
 1029POPC   NC315467  10.020   8.105   9.718
 1029POPC   PO415468  10.701   7.873   9.551
 1029POPC   GL115469  10.495   8.103   9.236
 1029POPC   GL215470  10.154   8.024   9.236
 1029POPC   C1A15471  10.423   8.239   8.823
 1029POPC   D2A15472  10.536   8.113   8.420
 1029POPC   C3A15473  10.360   8.393   8.142
 1029POPC   C4A15474  10.513   8.345   7.755
 1029POPC   C1B15475  10.064   7.844   8.862
 1029POPC   C2B15476  10.024   8.027   8.463
 1029POPC   C3B15477  10.165   7.951   8.059
 1029POPC   C4B15478  10.040   8.161   7.699
 1030POPC   NC315479  18.159  12.149   9.496
 1030POPC   PO415480  18.672  11.668   9.433
 1030POPC   GL115481  18.544  11.984   9.106
 1030POPC   GL215482  18.212  12.125   8.998
 1030POPC   C1A15483  18.666  12.149   8.699
 1030POPC   D2A15484  18.781  12.178   8.253
 1030POPC   C3A15485  18.400  12.074   7.985
 1030POPC   C4A15486  18.404  11.973   7.540
 1030POPC   C1B15487  18.237  11.812   8.697
 1030POPC   C2B15488  18.140  11.587   8.359
 1030POPC   C3B15489  17.875  11.788   8.059
 1030POPC   C4B15490  17.750  11.617   7.668
 1031POPC   NC315491  17.960  19.347   9.493
 1031POPC   PO415492  17.236  19.096   9.453
 1031POPC   GL115493  17.442  19.309   9.139
 1031POPC   GL215494  17.761  19.156   9.057
 1031POPC   C1A15495  17.326  19.206   8.729
 1031POPC   D2A15496  17.412  18.841   8.549
 1031POPC   C3A15497  17.342  18.807   8.113
 1031POPC   C4A15498  17.440  18.914   7.713
 1031POPC   C1B15499  17.941  18.893   8.726
 1031POPC   C2B15500  17.865  18.798   8.295
 1031POPC   C3B15501  17.787  19.118   8.018
 1031POPC   C4B15502  17.834  19.247   7.604
 1032POPC   NC315503  11.724  20.398   9.421
 1032POPC   PO415504  11.965  21.012   9.717
 1032POPC   GL115505  12.001  20.834   9.240
 1032POPC   GL215506  12.345  20.738   9.071
 1032POPC   C1A15507  11.872  20.683   8.840
 1032POPC   D2A15508  11.842  20.825   8.428
 1032POPC   C3A15509  12.022  20.643   8.052
 1032POPC   C4A15510  11.899  20.960   7.750
 1032POPC   C1B15511  12.278  20.390   8.750
 1032POPC   C2B15512  12.419  20.362   8.345
 1032POPC   C3B15513  12.346  20.233   7.957
 1032POPC   C4B15514  12.208  20.375   7.585
 1033POPC   NC315515  12.542  43.740   9.675
 1033POPC   PO415516  12.968  44.214   9.618
 1033POPC   GL115517  12.849  43.899   9.249
 1033POPC   GL215518  12.595  43.624   9.169
 1033POPC   C1A15519  12.762  43.940   8.794
 1033POPC   D2A15520  12.947  43.887   8.408
 1033POPC   C3A15521  12.789  43.875   8.002
 1033POPC   C4A15522  12.889  43.562   7.709
 1033POPC   C1B15523  12.392  43.587   8.768
 1033POPC   C2B15524  12.409  43.767   8.357
 1033POPC   C3B15525  12.389  43.572   7.943
 1033POPC   C4B15526  12.453  43.792   7.594
 1034POPC   NC315527  39.570   6.554   9.338
 1034POPC   PO415528  39.014   6.457   9.583
 1034POPC   GL115529  39.075   6.570   9.146
 1034POPC   GL215530  38.809   6.338   9.114
 1034POPC   C1A15531  39.375   6.670   8.761
 1034POPC   D2A15532  39.609   6.913   8.455
 1034POPC   C3A15533  39.332   6.879   8.110
 1034POPC   C4A15534  39.362   6.583   7.803
 1034POPC   C1B15535  39.002   6.263   8.747
 1034POPC   C2B15536  39.042   6.503   8.411
 1034POPC   C3B15537  38.993   6.360   8.047
 1034POPC   C4B15538  38.684   6.312   7.751
 1035POPC   NC315539  36.822  14.969   9.367
 1035POPC   PO415540  37.124  15.609   9.472
 1035POPC   GL115541  37.055  15.334   9.103
 1035POPC   GL215542  37.261  15.026   9.036
 1035POPC   C1A15543  36.842  15.156   8.755
 1035POPC   D2A15544  36.921  15.356   8.408
 1035POPC   C3A15545  36.728  15.219   8.089
 1035POPC   C4A15546  36.699  15.014   7.743
 1035POPC   C1B15547  37.271  14.958   8.575
 1035POPC   C2B15548  37.183  14.961   8.124
 1035POPC   C3B15549  37.169  14.846   7.683
 1035POPC   C4B15550  37.138  14.714   7.224
 1036POPC   NC315551  30.035  34.634   9.951
 1036POPC   PO415552  30.569  34.331   9.519
 1036POPC   GL115553  30.579  34.415   9.109
 1036POPC   GL215554  30.727  34.724   9.130
 1036POPC   C1A15555  30.640  34.506   8.657
 1036POPC   D2A15556  30.778  34.235   8.330
 1036POPC   C3A15557  30.627  34.335   7.901
 1036POPC   C4A15558  30.520  34.728   7.678
 1036POPC   C1B15559  31.045  34.792   8.811
 1036POPC   C2B15560  31.047  34.836   8.377
 1036POPC   C3B15561  30.878  34.941   7.975
 1036POPC   C4B15562  31.004  34.626   7.689
 1037POPC   NC315563  13.753  42.308   9.484
 1037POPC   PO415564  14.135  42.820   9.263
 1037POPC   GL115565  13.774  42.610   9.051
 1037POPC   GL215566  13.421  42.442   9.125
 1037POPC   C1A15567  13.653  42.476   8.646
 1037POPC   D2A15568  13.661  42.095   8.399
 1037POPC   C3A15569  13.525  42.272   8.039
 1037POPC   C4A15570  13.673  42.682   7.852
 1037POPC   C1B15571  13.327  42.111   8.808
 1037POPC   C2B15572  13.092  42.177   8.428
 1037POPC   C3B15573  13.078  42.035   7.997
 1037POPC   C4B15574  13.180  42.296   7.636
 1038POPC   NC315575  24.960  19.743   9.301
 1038POPC   PO415576  24.388  19.505   9.660
 1038POPC   GL115577  24.398  19.731   9.218
 1038POPC   GL215578  24.615  19.629   8.898
 1038POPC   C1A15579  24.217  19.905   8.821
 1038POPC   D2A15580  24.472  19.906   8.406
 1038POPC   C3A15581  24.288  19.882   7.976
 1038POPC   C4A15582  24.303  19.706   7.615
 1038POPC   C1B15583  25.007  19.564   8.692
 1038POPC   C2B15584  25.007  19.668   8.316
 1038POPC   C3B15585  24.714  19.620   8.039
 1038POPC   C4B15586  24.801  19.585   7.668
 1039POPC   NC315587  38.188  42.302   9.693
 1039POPC   PO415588  38.471  42.831   9.598
 1039POPC   GL115589  38.471  42.522   9.217
 1039POPC   GL215590  38.192  42.274   9.193
 1039POPC   C1A15591  38.611  42.373   8.774
 1039POPC   D2A15592  38.705  42.071   8.449
 1039POPC   C3A15593  38.493  42.221   8.085
 1039POPC   C4A15594  38.485  42.447   7.690
 1039POPC   C1B15595  38.113  42.508   8.833
 1039POPC   C2B15596  38.271  42.595   8.426
 1039POPC   C3B15597  38.145  42.585   8.018
 1039POPC   C4B15598  38.078  42.795   7.629
 1040POPC   NC315599  28.960  28.095   9.978
 1040POPC   PO415600  29.250  28.275   9.414
 1040POPC   GL115601  29.221  28.352   9.043
 1040POPC   GL215602  29.392  28.699   9.095
 1040POPC   C1A15603  28.870  28.378   8.782
 1040POPC   D2A15604  28.653  28.396   8.410
 1040POPC   C3A15605  28.766  28.275   8.023
 1040POPC   C4A15606  28.758  28.518   7.658
 1040POPC   C1B15607  29.257  28.699   8.697
 1040POPC   C2B15608  29.194  28.446   8.368
 1040POPC   C3B15609  29.142  28.622   7.988
 1040POPC   C4B15610  29.197  28.296   7.721
 1041POPC   NC315611  26.330  32.040   9.453
 1041POPC   PO415612  26.912  32.548   9.592
 1041POPC   GL115613  26.697  32.333   9.273
 1041POPC   GL215614  26.887  32.030   9.222
 1041POPC   C1A15615  26.540  32.246   8.860
 1041POPC   D2A15616  26.686  32.437   8.515
 1041POPC   C3A15617  26.601  32.296   8.122
 1041POPC   C4A15618  26.688  32.415   7.705
 1041POPC   C1B15619  27.069  32.209   8.836
 1041POPC   C2B15620  27.041  32.100   8.391
 1041POPC   C3B15621  27.089  32.242   7.968
 1041POPC   C4B15622  26.984  31.960   7.612
 1042POPC   NC315623  14.991  11.754   9.509
 1042POPC   PO415624  15.546  12.044   9.373
 1042POPC   GL115625  15.227  11.934   9.032
 1042POPC   GL215626  14.826  11.967   9.064
 1042POPC   C1A15627  15.394  11.911   8.593
 1042POPC   D2A15628  15.479  12.231   8.299
 1042POPC   C3A15629  15.481  12.047   7.919
 1042POPC   C4A15630  15.275  11.809   7.631
 1042POPC   C1B15631  14.915  12.074   8.622
 1042POPC   C2B15632  15.016  11.963   8.184
 1042POPC   C3B15633  14.842  12.046   7.764
 1042POPC   C4B15634  14.816  12.100   7.291
 1043POPC   NC315635   9.563  38.839   9.507
 1043POPC   PO415636   9.792  38.177   9.486
 1043POPC   GL115637   9.831  38.549   9.173
 1043POPC   GL215638   9.507  38.727   9.027
 1043POPC   C1A15639   9.971  38.726   8.771
 1043POPC   D2A15640  10.038  38.912   8.355
 1043POPC   C3A15641   9.960  38.723   7.955
 1043POPC   C4A15642   9.667  38.670   7.576
 1043POPC   C1B15643   9.539  38.416   8.747
 1043POPC   C2B15644   9.638  38.577   8.390
 1043POPC   C3B15645   9.478  38.577   8.033
 1043POPC   C4B15646   9.558  38.198   7.815
 1044POPC   NC315647  42.035  44.464   9.446
 1044POPC   PO415648  41.626   0.082   9.573
 1044POPC   GL115649  41.695  44.789   9.222
 1044POPC   GL215650  41.458  44.493   9.189
 1044POPC   C1A15651  41.746  44.731   8.782
 1044POPC   D2A15652  41.740  44.985   8.395
 1044POPC   C3A15653  41.773  44.723   8.067
 1044POPC   C4A15654  41.812  44.723   7.650
 1044POPC   C1B15655  41.193  44.509   8.819
 1044POPC   C2B15656  41.400  44.591   8.419
 1044POPC   C3B15657  41.278  44.629   7.986
 1044POPC   C4B15658  41.405  44.443   7.627
 1045POPC   NC315659  17.187  42.265   9.296
 1045POPC   PO415660  17.743  42.686   9.408
 1045POPC   GL115661  17.691  42.343   9.086
 1045POPC   GL215662  17.727  41.999   9.245
 1045POPC   C1A15663  17.488  42.404   8.665
 1045POPC   D2A15664  17.172  42.530   8.334
 1045POPC   C3A15665  17.383  42.439   7.942
 1045POPC   C4A15666  17.779  42.379   7.763
 1045POPC   C1B15667  17.555  41.916   8.825
 1045POPC   C2B15668  17.520  41.789   8.410
 1045POPC   C3B15669  17.638  41.958   8.023
 1045POPC   C4B15670  17.320  41.989   7.694
 1046POPC   NC315671  44.300   1.288   9.393
 1046POPC   PO415672  44.998   1.244   9.506
 1046POPC   GL115673  44.764   1.426   9.197
 1046POPC   GL215674  44.675   1.101   9.106
 1046POPC   C1A15675  44.588   1.475   8.776
 1046POPC   D2A15676  44.682   1.380   8.358
 1046POPC   C3A15677  44.414   1.348   7.936
 1046POPC   C4A15678  44.609   1.488   7.543
 1046POPC   C1B15679  44.751   0.962   8.702
 1046POPC   C2B15680  44.582   0.877   8.319
 1046POPC   C3B15681  44.806   1.048   8.013
 1046POPC   C4B15682  44.824   1.051   7.624
 1047POPC   NC315683  29.840  29.197   9.515
 1047POPC   PO415684  30.017  28.534   9.595
 1047POPC   GL115685  29.887  28.805   9.184
 1047POPC   GL215686  30.060  29.134   9.076
 1047POPC   C1A15687  29.752  28.886   8.733
 1047POPC   D2A15688  29.923  29.036   8.332
 1047POPC   C3A15689  29.793  28.939   7.925
 1047POPC   C4A15690  29.710  29.118   7.533
 1047POPC   C1B15691  29.975  29.399   8.723
 1047POPC   C2B15692  30.079  29.520   8.303
 1047POPC   C3B15693  29.911  29.429   7.906
 1047POPC   C4B15694  29.863  29.635   7.507
 1048POPC   NC315695  37.013  37.427   9.488
 1048POPC   PO415696  36.504  37.845   9.601
 1048POPC   GL115697  36.568  37.712   9.167
 1048POPC   GL215698  36.908  37.731   9.107
 1048POPC   C1A15699  36.656  37.422   8.783
 1048POPC   D2A15700  36.861  37.296   8.379
 1048POPC   C3A15701  36.696  37.441   7.987
 1048POPC   C4A15702  36.754  37.676   7.604
 1048POPC   C1B15703  36.916  37.902   8.752
 1048POPC   C2B15704  36.694  37.808   8.421
 1048POPC   C3B15705  36.868  37.912   8.064
 1048POPC   C4B15706  37.203  38.028   7.793
 1049POPC   NC315707  44.701  39.472   9.470
 1049POPC   PO415708  44.621  38.845   9.617
 1049POPC   GL115709  44.810  39.043   9.181
 1049POPC   GL215710  44.986  39.399   9.086
 1049POPC   C1A15711  44.728  39.150   8.714
 1049POPC   D2A15712  44.418  39.374   8.461
 1049POPC   C3A15713  44.458  39.371   7.996
 1049POPC   C4A15714  44.444  39.011   7.681
 1049POPC   C1B15715   0.006  39.611   8.711
 1049POPC   C2B15716   0.056  39.420   8.338
 1049POPC   C3B15717  44.987  39.537   7.949
 1049POPC   C4B15718  44.849  39.321   7.615
 1050POPC   NC315719  32.514  14.737   9.875
 1050POPC   PO415720  32.155  14.287   9.493
 1050POPC   GL115721  32.064  14.366   9.085
 1050POPC   GL215722  32.352  14.560   9.078
 1050POPC   C1A15723  32.037  14.516   8.671
 1050POPC   D2A15724  32.286  14.274   8.379
 1050POPC   C3A15725  32.137  14.311   7.996
 1050POPC   C4A15726  31.954  14.372   7.581
 1050POPC   C1B15727  32.518  14.677   8.685
 1050POPC   C2B15728  32.290  14.783   8.293
 1050POPC   C3B15729  32.400  14.774   7.861
 1050POPC   C4B15730  32.463  14.405   7.642
 1051POPC   NC315731  19.188  38.019   9.460
 1051POPC   PO415732  18.933  37.396   9.453
 1051POPC   GL115733  18.998  37.688   9.108
 1051POPC   GL215734  19.362  37.747   9.071
 1051POPC   C1A15735  18.957  37.792   8.662
 1051POPC   D2A15736  19.031  37.466   8.331
 1051POPC   C3A15737  18.864  37.497   7.904
 1051POPC   C4A15738  18.911  37.711   7.537
 1051POPC   C1B15739  19.431  37.946   8.681
 1051POPC   C2B15740  19.298  37.906   8.248
 1051POPC   C3B15741  19.340  37.700   7.839
 1051POPC   C4B15742  19.372  37.802   7.350
 1052POPC   NC315743  17.389  21.101   9.735
 1052POPC   PO415744  17.859  21.426   9.335
 1052POPC   GL115745  17.719  21.471   8.949
 1052POPC   GL215746  17.403  21.663   9.020
 1052POPC   C1A15747  17.653  21.133   8.618
 1052POPC   D2A15748  17.684  20.855   8.272
 1052POPC   C3A15749  17.448  20.963   7.933
 1052POPC   C4A15750  17.610  21.186   7.601
 1052POPC   C1B15751  17.453  21.672   8.590
 1052POPC   C2B15752  17.767  21.535   8.343
 1052POPC   C3B15753  17.588  21.487   7.998
 1052POPC   C4B15754  17.222  21.466   7.773
 1053POPC   NC315755   7.110  31.872   9.525
 1053POPC   PO415756   7.412  32.491   9.386
 1053POPC   GL115757   7.359  32.205   9.117
 1053POPC   GL215758   7.027  32.128   9.114
 1053POPC   C1A15759   7.598  32.171   8.760
 1053POPC   D2A15760   7.695  32.487   8.478
 1053POPC   C3A15761   7.702  32.327   8.087
 1053POPC   C4A15762   7.525  32.192   7.724
 1053POPC   C1B15763   7.120  31.957   8.736
 1053POPC   C2B15764   7.181  32.325   8.475
 1053POPC   C3B15765   7.162  32.310   8.055
 1053POPC   C4B15766   7.143  31.875   7.844
 1054POPC   NC315767  20.826  20.248   9.411
 1054POPC   PO415768  20.323  19.646   9.483
 1054POPC   GL115769  20.530  19.648   9.134
 1054POPC   GL215770  20.478  19.988   9.105
 1054POPC   C1A15771  20.417  19.611   8.717
 1054POPC   D2A15772  20.620  19.486   8.351
 1054POPC   C3A15773  20.577  19.769   8.017
 1054POPC   C4A15774  20.488  19.721   7.611
 1054POPC   C1B15775  20.839  19.936   8.816
 1054POPC   C2B15776  20.884  19.980   8.378
 1054POPC   C3B15777  21.211  19.925   8.056
 1054POPC   C4B15778  21.004  19.798   7.656
 1055POPC   NC315779   0.088  40.654   9.537
 1055POPC   PO415780   0.656  41.007   9.528
 1055POPC   GL115781   0.405  40.917   9.202
 1055POPC   GL215782   0.503  40.579   9.202
 1055POPC   C1A15783   0.446  41.074   8.798
 1055POPC   D2A15784   0.583  40.922   8.422
 1055POPC   C3A15785   0.402  40.941   8.083
 1055POPC   C4A15786   0.190  41.023   7.756
 1055POPC   C1B15787   0.309  40.579   8.797
 1055POPC   C2B15788   0.142  40.619   8.378
 1055POPC   C3B15789   0.177  40.505   7.937
 1055POPC   C4B15790   0.501  40.633   7.663
 1056POPC   NC315791  26.756  11.240   9.594
 1056POPC   PO415792  27.336  11.377   9.331
 1056POPC   GL115793  27.011  11.157   9.162
 1056POPC   GL215794  26.801  11.429   9.100
 1056POPC   C1A15795  26.894  11.074   8.748
 1056POPC   D2A15796  26.851  11.356   8.408
 1056POPC   C3A15797  27.064  11.190   8.071
 1056POPC   C4A15798  26.981  10.970   7.724
 1056POPC   C1B15799  26.519  11.616   8.785
 1056POPC   C2B15800  26.317  11.655   8.392
 1056POPC   C3B15801  26.522  11.523   8.045
 1056POPC   C4B15802  26.842  11.478   7.741
 1057POPC   NC315803  19.879  24.883   9.507
 1057POPC   PO415804  19.397  24.387   9.463
 1057POPC   GL115805  19.637  24.406   9.048
 1057POPC   GL215806  19.919  24.612   9.074
 1057POPC   C1A15807  19.893  24.200   8.749
 1057POPC   D2A15808  19.918  24.083   8.321
 1057POPC   C3A15809  19.639  24.286   8.040
 1057POPC   C4A15810  19.881  24.443   7.738
 1057POPC   C1B15811  20.129  24.642   8.667
 1057POPC   C2B15812  20.018  24.628   8.223
 1057POPC   C3B15813  20.194  24.842   7.825
 1057POPC   C4B15814  20.229  24.634   7.399
 1058POPC   NC315815  11.862  36.207   9.430
 1058POPC   PO415816  12.322  35.759   9.453
 1058POPC   GL115817  12.173  35.942   9.088
 1058POPC   GL215818  12.239  36.282   9.053
 1058POPC   C1A15819  12.269  35.944   8.668
 1058POPC   D2A15820  12.108  36.146   8.310
 1058POPC   C3A15821  12.338  36.224   7.966
 1058POPC   C4A15822  12.164  35.853   7.805
 1058POPC   C1B15823  11.923  36.345   8.765
 1058POPC   C2B15824  11.850  36.560   8.406
 1058POPC   C3B15825  11.742  36.419   8.039
 1058POPC   C4B15826  11.915  36.285   7.670
 1059POPC   NC315827  12.780  16.155   9.615
 1059POPC   PO415828  12.827  15.478   9.548
 1059POPC   GL115829  12.850  15.790   9.272
 1059POPC   GL215830  13.060  15.600   9.098
 1059POPC   C1A15831  12.741  16.128   8.959
 1059POPC   D2A15832  12.486  16.200   8.587
 1059POPC   C3A15833  12.571  15.970   8.207
 1059POPC   C4A15834  12.727  16.133   7.832
 1059POPC   C1B15835  12.700  15.622   8.822
 1059POPC   C2B15836  12.756  15.534   8.421
 1059POPC   C3B15837  12.624  15.454   8.026
 1059POPC   C4B15838  12.709  15.588   7.634
 1060POPC   NC315839  35.974   2.494   9.550
 1060POPC   PO415840  35.777   3.078   9.563
 1060POPC   GL115841  36.041   2.949   9.191
 1060POPC   GL215842  36.170   2.627   9.074
 1060POPC   C1A15843  36.063   3.042   8.742
 1060POPC   D2A15844  35.986   2.841   8.356
 1060POPC   C3A15845  36.146   3.023   7.975
 1060POPC   C4A15846  36.230   2.789   7.575
 1060POPC   C1B15847  35.847   2.520   8.757
 1060POPC   C2B15848  35.569   2.541   8.398
 1060POPC   C3B15849  35.706   2.534   7.990
 1060POPC   C4B15850  36.085   2.358   7.802
 1061POPC   NC315851   3.207  33.230   9.622
 1061POPC   PO415852   2.560  33.190   9.605
 1061POPC   GL115853   2.704  33.144   9.173
 1061POPC   GL215854   2.799  32.802   9.126
 1061POPC   C1A15855   2.579  33.337   8.772
 1061POPC   D2A15856   2.491  33.403   8.314
 1061POPC   C3A15857   2.721  33.105   8.049
 1061POPC   C4A15858   3.069  33.042   7.789
 1061POPC   C1B15859   2.952  32.627   8.720
 1061POPC   C2B15860   2.979  32.711   8.281
 1061POPC   C3B15861   3.114  32.534   7.925
 1061POPC   C4B15862   3.062  32.507   7.493
 1062POPC   NC315863   1.044   8.659   9.563
 1062POPC   PO415864   1.318   9.293   9.468
 1062POPC   GL115865   1.386   8.925   9.224
 1062POPC   GL215866   1.053   8.826   9.087
 1062POPC   C1A15867   1.556   8.922   8.817
 1062POPC   D2A15868   1.310   8.924   8.482
 1062POPC   C3A15869   1.461   8.905   8.096
 1062POPC   C4A15870   1.371   8.657   7.758
 1062POPC   C1B15871   1.089   9.203   8.858
 1062POPC   C2B15872   0.990   9.297   8.435
 1062POPC   C3B15873   0.956   9.016   8.110
 1062POPC   C4B15874   1.083   9.055   7.713
 1063POPC   NC315875  40.356  44.141   9.434
 1063POPC   PO415876  39.723  43.836   9.460
 1063POPC   GL115877  39.979  43.945   9.167
 1063POPC   GL215878  39.927  44.251   9.045
 1063POPC   C1A15879  40.000  43.822   8.775
 1063POPC   D2A15880  39.840  43.785   8.408
 1063POPC   C3A15881  40.179  43.723   8.160
 1063POPC   C4A15882  39.999  43.575   7.806
 1063POPC   C1B15883  40.105  44.332   8.654
 1063POPC   C2B15884  39.892  44.258   8.271
 1063POPC   C3B15885  39.986  44.085   7.872
 1063POPC   C4B15886  40.307  44.240   7.625
 1064POPC   NC315887  11.396  26.959   9.652
 1064POPC   PO415888  10.842  27.026   9.410
 1064POPC   GL115889  11.228  27.010   9.170
 1064POPC   GL215890  11.541  26.782   9.192
 1064POPC   C1A15891  11.294  27.035   8.751
 1064POPC   D2A15892  11.071  26.757   8.499
 1064POPC   C3A15893  11.111  26.766   8.065
 1064POPC   C4A15894  11.098  27.061   7.749
 1064POPC   C1B15895  11.533  26.569   8.773
 1064POPC   C2B15896  11.676  26.497   8.327
 1064POPC   C3B15897  11.506  26.491   7.864
 1064POPC   C4B15898  11.428  26.299   7.432
 1065POPC   NC315899   5.819  41.642   9.541
 1065POPC   PO415900   6.442  41.575   9.353
 1065POPC   GL115901   6.044  41.476   9.097
 1065POPC   GL215902   5.702  41.658   9.066
 1065POPC   C1A15903   5.867  41.287   8.746
 1065POPC   D2A15904   6.085  41.406   8.416
 1065POPC   C3A15905   5.950  41.576   8.038
 1065POPC   C4A15906   5.930  41.455   7.678
 1065POPC   C1B15907   5.860  41.799   8.698
 1065POPC   C2B15908   5.849  41.990   8.318
 1065POPC   C3B15909   5.551  41.893   8.011
 1065POPC   C4B15910   5.520  41.769   7.587
 1066POPC   NC315911   8.370  10.579   9.477
 1066POPC   PO415912   7.933  10.061   9.524
 1066POPC   GL115913   8.233  10.190   9.174
 1066POPC   GL215914   8.085  10.532   9.056
 1066POPC   C1A15915   8.429  10.335   8.756
 1066POPC   D2A15916   8.176  10.397   8.387
 1066POPC   C3A15917   8.358  10.252   8.030
 1066POPC   C4A15918   8.366  10.439   7.658
 1066POPC   C1B15919   8.114  10.811   8.677
 1066POPC   C2B15920   8.111  10.879   8.236
 1066POPC   C3B15921   7.988  10.783   7.831
 1066POPC   C4B15922   7.934  10.880   7.393
 1067POPC   NC315923  26.775  15.575   9.540
 1067POPC   PO415924  26.867  14.864   9.548
 1067POPC   GL115925  26.678  15.113   9.198
 1067POPC   GL215926  26.522  15.443   9.133
 1067POPC   C1A15927  26.856  15.233   8.789
 1067POPC   D2A15928  26.930  15.010   8.381
 1067POPC   C3A15929  27.123  15.110   7.993
 1067POPC   C4A15930  26.770  15.003   7.739
 1067POPC   C1B15931  26.391  15.563   8.739
 1067POPC   C2B15932  26.620  15.469   8.397
 1067POPC   C3B15933  26.737  15.470   8.000
 1067POPC   C4B15934  26.799  15.502   7.603
 1068POPC   NC315935   0.738  15.384   9.379
 1068POPC   PO415936   0.154  15.050   9.509
 1068POPC   GL115937   0.334  15.130   9.136
 1068POPC   GL215938   0.315  15.491   9.129
 1068POPC   C1A15939   0.238  15.093   8.704
 1068POPC   D2A15940   0.518  15.113   8.359
 1068POPC   C3A15941   0.481  14.989   7.935
 1068POPC   C4A15942   0.785  15.224   7.713
 1068POPC   C1B15943   0.492  15.547   8.744
 1068POPC   C2B15944   0.246  15.533   8.391
 1068POPC   C3B15945   0.453  15.492   8.016
 1068POPC   C4B15946   0.360  15.465   7.582
 1069POPC   NC315947  30.648   3.511   9.470
 1069POPC   PO415948  31.121   3.076   9.231
 1069POPC   GL115949  30.830   3.358   9.023
 1069POPC   GL215950  30.441   3.302   9.075
 1069POPC   C1A15951  30.911   3.680   8.725
 1069POPC   D2A15952  31.137   3.724   8.341
 1069POPC   C3A15953  30.997   3.539   8.013
 1069POPC   C4A15954  30.680   3.643   7.784
 1069POPC   C1B15955  30.426   3.489   8.708
 1069POPC   C2B15956  30.527   3.662   8.342
 1069POPC   C3B15957  30.314   3.420   8.037
 1069POPC   C4B15958  30.209   3.569   7.648
 1070POPC   NC315959  28.808  35.549   9.352
 1070POPC   PO415960  29.430  35.289   9.373
 1070POPC   GL115961  29.243  35.598   9.053
 1070POPC   GL215962  29.551  35.769   8.899
 1070POPC   C1A15963  28.927  35.595   8.695
 1070POPC   D2A15964  29.123  35.641   8.268
 1070POPC   C3A15965  28.889  35.537   7.910
 1070POPC   C4A15966  28.919  35.193   7.629
 1070POPC   C1B15967  29.680  35.408   8.774
 1070POPC   C2B15968  29.550  35.298   8.409
 1070POPC   C3B15969  29.592  35.523   8.065
 1070POPC   C4B15970  29.404  35.358   7.738
 1071POPC   NC315971   0.032  37.925   9.204
 1071POPC   PO415972   0.541  37.559   9.589
 1071POPC   GL115973   0.660  37.722   9.193
 1071POPC   GL215974   0.369  37.591   9.053
 1071POPC   C1A15975   0.694  37.768   8.736
 1071POPC   D2A15976   0.612  37.792   8.316
 1071POPC   C3A15977   0.722  37.476   8.052
 1071POPC   C4A15978   0.512  37.455   7.693
 1071POPC   C1B15979   0.200  37.622   8.607
 1071POPC   C2B15980   0.194  37.536   8.153
 1071POPC   C3B15981   0.009  37.519   7.738
 1071POPC   C4B15982   0.087  37.267   7.362
 1072POPC   NC315983   5.547  38.283   9.413
 1072POPC   PO415984   5.136  38.769   9.612
 1072POPC   GL115985   5.151  38.619   9.210
 1072POPC   GL215986   5.433  38.789   9.124
 1072POPC   C1A15987   4.972  38.438   8.824
 1072POPC   D2A15988   4.683  38.411   8.499
 1072POPC   C3A15989   4.829  38.652   8.172
 1072POPC   C4A15990   4.880  38.508   7.768
 1072POPC   C1B15991   5.484  38.529   8.777
 1072POPC   C2B15992   5.411  38.341   8.398
 1072POPC   C3B15993   5.362  38.552   8.037
 1072POPC   C4B15994   5.339  38.726   7.652
 1073POPC   NC315995  25.471  24.651   9.541
 1073POPC   PO415996  25.554  23.969   9.487
 1073POPC   GL115997  25.398  24.120   9.088
 1073POPC   GL215998  25.357  24.476   9.090
 1073POPC   C1A15999  25.568  24.271   8.684
 1073POPC   D2A16000  25.525  24.421   8.279
 1073POPC   C3A16001  25.473  24.160   7.959
 1073POPC   C4A16002  25.225  24.240   7.624
 1073POPC   C1B16003  25.273  24.700   8.698
 1073POPC   C2B16004  25.210  24.812   8.262
 1073POPC   C3B16005  25.310  24.703   7.861
 1073POPC   C4B16006  25.294  24.929   7.481
 1074POPC   NC316007   5.003  35.862   9.456
 1074POPC   PO416008   4.738  36.527   9.323
 1074POPC   GL116009   4.917  36.248   9.010
 1074POPC   GL216010   5.171  35.982   8.998
 1074POPC   C1A16011   5.001  36.287   8.560
 1074POPC   D2A16012   5.037  35.989   8.224
 1074POPC   C3A16013   4.988  36.135   7.821
 1074POPC   C4A16014   5.255  36.383   7.554
 1074POPC   C1B16015   5.386  35.943   8.630
 1074POPC   C2B16016   5.513  35.821   8.240
 1074POPC   C3B16017   5.492  36.031   7.849
 1074POPC   C4B16018   5.294  35.901   7.425
 1075POPC   NC316019  17.353  43.169   9.551
 1075POPC   PO416020  17.960  43.471   9.473
 1075POPC   GL116021  17.694  43.182   9.169
 1075POPC   GL216022  17.532  43.401   8.996
 1075POPC   C1A16023  17.422  42.935   8.834
 1075POPC   D2A16024  17.235  43.043   8.427
 1075POPC   C3A16025  17.604  43.023   8.200
 1075POPC   C4A16026  17.803  42.880   7.864
 1075POPC   C1B16027  17.585  43.392   8.588
 1075POPC   C2B16028  17.472  43.515   8.189
 1075POPC   C3B16029  17.459  43.297   7.784
 1075POPC   C4B16030  17.404  43.441   7.338
 1076POPC   NC316031  28.520  12.661   9.361
 1076POPC   PO416032  27.960  12.941   9.403
 1076POPC   GL116033  28.021  12.783   8.996
 1076POPC   GL216034  28.348  12.959   8.952
 1076POPC   C1A16035  28.003  12.801   8.532
 1076POPC   D2A16036  28.286  13.032   8.321
 1076POPC   C3A16037  28.306  12.972   7.908
 1076POPC   C4A16038  28.531  13.320   7.800
 1076POPC   C1B16039  28.469  12.641   8.654
 1076POPC   C2B16040  28.443  12.548   8.210
 1076POPC   C3B16041  28.721  12.671   7.893
 1076POPC   C4B16042  28.591  12.743   7.471
 1077POPC   NC316043   4.208  34.571   9.618
 1077POPC   PO416044   4.764  34.540   9.330
 1077POPC   GL116045   4.397  34.436   9.146
 1077POPC   GL216046   4.244  34.742   9.136
 1077POPC   C1A16047   4.343  34.395   8.726
 1077POPC   D2A16048   4.481  34.711   8.458
 1077POPC   C3A16049   4.317  34.659   8.066
 1077POPC   C4A16050   4.163  34.357   7.773
 1077POPC   C1B16051   4.153  34.951   8.763
 1077POPC   C2B16052   3.933  34.887   8.387
 1077POPC   C3B16053   4.002  35.063   7.993
 1077POPC   C4B16054   4.213  34.895   7.619
 1078POPC   NC316055  39.762  31.729   9.490
 1078POPC   PO416056  40.197  31.166   9.627
 1078POPC   GL116057  40.096  31.369   9.206
 1078POPC   GL216058  39.775  31.361   9.106
 1078POPC   C1A16059  40.096  31.568   8.755
 1078POPC   D2A16060  40.080  31.849   8.384
 1078POPC   C3A16061  40.198  31.611   8.031
 1078POPC   C4A16062  39.942  31.300   7.804
 1078POPC   C1B16063  39.699  31.262   8.672
 1078POPC   C2B16064  39.787  31.425   8.282
 1078POPC   C3B16065  39.693  31.718   7.913
 1078POPC   C4B16066  39.613  31.609   7.432
 1079POPC   NC316067  11.009  44.545   9.499
 1079POPC   PO416068  10.476  44.916   9.451
 1079POPC   GL116069  10.581  44.559   9.243
 1079POPC   GL216070  10.322  44.333   9.268
 1079POPC   C1A16071  10.747  44.373   8.870
 1079POPC   D2A16072  10.892  44.563   8.490
 1079POPC   C3A16073  10.662  44.497   8.103
 1079POPC   C4A16074  10.733  44.672   7.749
 1079POPC   C1B16075  10.244  44.504   8.888
 1079POPC   C2B16076  10.372  44.350   8.496
 1079POPC   C3B16077  10.136  44.410   8.118
 1079POPC   C4B16078  10.240  44.643   7.721
 1080POPC   NC316079  35.557  33.040   9.456
 1080POPC   PO416080  36.218  33.132   9.642
 1080POPC   GL116081  36.088  33.073   9.205
 1080POPC   GL216082  36.267  32.777   9.107
 1080POPC   C1A16083  36.110  33.169   8.742
 1080POPC   D2A16084  35.939  33.320   8.312
 1080POPC   C3A16085  36.137  33.402   7.905
 1080POPC   C4A16086  36.296  33.149   7.558
 1080POPC   C1B16087  35.940  32.679   8.821
 1080POPC   C2B16088  35.873  32.821   8.393
 1080POPC   C3B16089  36.051  32.889   7.980
 1080POPC   C4B16090  36.033  32.699   7.574
 1081POPC   NC316091  44.434  40.020   9.550
 1081POPC   PO416092  44.466  39.570   9.094
 1081POPC   GL116093  44.586  39.986   9.029
 1081POPC   GL216094  44.491  40.312   9.149
 1081POPC   C1A16095  44.425  40.029   8.623
 1081POPC   D2A16096  44.676  39.796   8.316
 1081POPC   C3A16097  44.708  39.957   7.918
 1081POPC   C4A16098  44.501  39.708   7.596
 1081POPC   C1B16099  44.723  40.429   8.773
 1081POPC   C2B16100  44.764  40.298   8.349
 1081POPC   C3B16101  44.666  40.471   7.991
 1081POPC   C4B16102  44.796  40.347   7.592
 1082POPC   NC316103  32.631   5.954   9.738
 1082POPC   PO416104  33.192   5.676   9.424
 1082POPC   GL116105  33.135   5.979   9.103
 1082POPC   GL216106  33.037   5.763   8.835
 1082POPC   C1A16107  33.342   6.143   8.757
 1082POPC   D2A16108  33.386   5.838   8.417
 1082POPC   C3A16109  33.265   6.047   8.051
 1082POPC   C4A16110  33.472   6.153   7.711
 1082POPC   C1B16111  33.302   5.411   8.797
 1082POPC   C2B16112  33.092   5.343   8.449
 1082POPC   C3B16113  32.997   5.604   8.131
 1082POPC   C4B16114  33.289   5.615   7.797
 1083POPC   NC316115  20.541  28.757   9.523
 1083POPC   PO416116  21.180  29.022   9.434
 1083POPC   GL116117  20.917  29.074   9.065
 1083POPC   GL216118  20.618  28.851   9.033
 1083POPC   C1A16119  20.801  29.189   8.636
 1083POPC   D2A16120  20.763  29.131   8.199
 1083POPC   C3A16121  20.462  29.229   7.850
 1083POPC   C4A16122  20.682  29.129   7.469
 1083POPC   C1B16123  20.361  28.909   8.667
 1083POPC   C2B16124  20.306  28.908   8.238
 1083POPC   C3B16125  20.536  28.736   7.899
 1083POPC   C4B16126  20.358  28.660   7.529
 1084POPC   NC316127   0.400  14.675   9.599
 1084POPC   PO416128   0.199  14.180   9.273
 1084POPC   GL116129   0.537  14.332   9.078
 1084POPC   GL216130   0.589  14.677   9.123
 1084POPC   C1A16131   0.536  14.266   8.669
 1084POPC   D2A16132   0.488  14.079   8.280
 1084POPC   C3A16133   0.450  14.237   7.892
 1084POPC   C4A16134   0.604  14.240   7.507
 1084POPC   C1B16135   0.638  14.764   8.708
 1084POPC   C2B16136   0.514  14.607   8.291
 1084POPC   C3B16137   0.806  14.579   7.947
 1084POPC   C4B16138   0.754  14.733   7.595
 1085POPC   NC316139   8.714  44.199   9.454
 1085POPC   PO416140   8.710  44.837   9.530
 1085POPC   GL116141   8.900  44.627   9.148
 1085POPC   GL216142   9.070  44.287   9.102
 1085POPC   C1A16143   9.048  44.770   8.737
 1085POPC   D2A16144   8.860   0.018   8.400
 1085POPC   C3A16145   9.007  44.881   8.018
 1085POPC   C4A16146   8.909  44.789   7.608
 1085POPC   C1B16147   8.798  44.314   8.739
 1085POPC   C2B16148   8.828  44.510   8.334
 1085POPC   C3B16149   8.875  44.361   7.934
 1085POPC   C4B16150   8.640  44.200   7.632
 1086POPC   NC316151  27.253  14.757   9.861
 1086POPC   PO416152  27.798  14.639   9.498
 1086POPC   GL116153  27.726  14.491   9.113
 1086POPC   GL216154  27.453  14.262   9.096
 1086POPC   C1A16155  27.883  14.414   8.739
 1086POPC   D2A16156  27.871  14.518   8.334
 1086POPC   C3A16157  28.055  14.217   8.092
 1086POPC   C4A16158  27.908  14.133   7.676
 1086POPC   C1B16159  27.358  14.436   8.724
 1086POPC   C2B16160  27.351  14.506   8.310
 1086POPC   C3B16161  27.493  14.298   7.948
 1086POPC   C4B16162  27.363  14.208   7.515
 1087POPC   NC316163   8.319   9.734   9.506
 1087POPC   PO416164   7.942   9.302   9.187
 1087POPC   GL116165   8.098   9.652   9.063
 1087POPC   GL216166   7.825   9.853   9.086
 1087POPC   C1A16167   8.435   9.808   8.830
 1087POPC   D2A16168   8.372   9.935   8.421
 1087POPC   C3A16169   8.519   9.744   8.052
 1087POPC   C4A16170   8.324   9.495   7.756
 1087POPC   C1B16171   7.978  10.048   8.758
 1087POPC   C2B16172   7.826  10.014   8.377
 1087POPC   C3B16173   7.961   9.807   8.034
 1087POPC   C4B16174   8.130   9.964   7.674
 1088POPC   NC316175  30.891  20.669   9.706
 1088POPC   PO416176  30.494  20.255   9.462
 1088POPC   GL116177  30.796  20.495   9.229
 1088POPC   GL216178  30.661  20.829   9.210
 1088POPC   C1A16179  30.859  20.482   8.821
 1088POPC   D2A16180  30.679  20.691   8.478
 1088POPC   C3A16181  30.752  20.482   8.120
 1088POPC   C4A16182  30.819  20.591   7.703
 1088POPC   C1B16183  30.866  20.996   8.861
 1088POPC   C2B16184  31.159  20.833   8.568
 1088POPC   C3B16185  31.135  20.812   8.119
 1088POPC   C4B16186  31.049  21.060   7.720
 1089POPC   NC316187  43.173  42.719   9.377
 1089POPC   PO416188  42.827  42.121   9.634
 1089POPC   GL116189  43.063  42.117   9.199
 1089POPC   GL216190  42.885  41.943   8.969
 1089POPC   C1A16191  43.119  42.347   8.755
 1089POPC   D2A16192  43.381  42.586   8.450
 1089POPC   C3A16193  43.302  42.516   8.006
 1089POPC   C4A16194  42.933  42.471   7.794
 1089POPC   C1B16195  43.120  41.841   8.666
 1089POPC   C2B16196  43.303  42.067   8.322
 1089POPC   C3B16197  43.603  42.111   8.007
 1089POPC   C4B16198  43.505  42.234   7.580
 1090POPC   NC316199  12.651   7.621   9.308
 1090POPC   PO416200  12.850   7.065   9.721
 1090POPC   GL116201  13.022   7.294   9.233
 1090POPC   GL216202  13.265   7.505   9.111
 1090POPC   C1A16203  12.994   7.250   8.745
 1090POPC   D2A16204  12.900   7.424   8.299
 1090POPC   C3A16205  12.711   7.171   7.917
 1090POPC   C4A16206  12.632   7.158   7.427
 1090POPC   C1B16207  13.246   7.713   8.693
 1090POPC   C2B16208  13.463   7.789   8.337
 1090POPC   C3B16209  13.174   7.733   7.996
 1090POPC   C4B16210  12.896   7.574   7.652
 1091POPC   NC316211  12.561  36.921   9.476
 1091POPC   PO416212  13.011  36.465   9.292
 1091POPC   GL116213  12.959  36.895   9.152
 1091POPC   GL216214  12.661  36.925   8.971
 1091POPC   C1A16215  13.109  37.093   8.790
 1091POPC   D2A16216  12.842  36.965   8.425
 1091POPC   C3A16217  13.082  36.898   8.034
 1091POPC   C4A16218  12.922  36.871   7.615
 1091POPC   C1B16219  12.390  37.224   8.745
 1091POPC   C2B16220  12.421  37.305   8.315
 1091POPC   C3B16221  12.631  37.117   7.962
 1091POPC   C4B16222  12.599  37.268   7.518
 1092POPC   NC316223  38.142  10.833   9.305
 1092POPC   PO416224  38.783  10.590   9.484
 1092POPC   GL116225  38.509  10.529   9.139
 1092POPC   GL216226  38.632  10.914   9.117
 1092POPC   C1A16227  38.427  10.299   8.722
 1092POPC   D2A16228  38.736  10.155   8.385
 1092POPC   C3A16229  38.742  10.343   7.953
 1092POPC   C4A16230  38.649  10.268   7.503
 1092POPC   C1B16231  38.506  10.827   8.715
 1092POPC   C2B16232  38.478  10.651   8.322
 1092POPC   C3B16233  38.211  10.712   7.989
 1092POPC   C4B16234  38.328  10.647   7.591
 1093POPC   NC316235  23.436  42.940   9.384
 1093POPC   PO416236  24.069  43.156   9.308
 1093POPC   GL116237  23.753  43.135   9.036
 1093POPC   GL216238  23.761  42.781   9.008
 1093POPC   C1A16239  23.596  43.373   8.702
 1093POPC   D2A16240  23.786  43.587   8.383
 1093POPC   C3A16241  23.748  43.352   8.068
 1093POPC   C4A16242  23.654  43.121   7.727
 1093POPC   C1B16243  23.581  42.850   8.608
 1093POPC   C2B16244  23.532  42.856   8.159
 1093POPC   C3B16245  23.436  42.689   7.756
 1093POPC   C4B16246  23.409  42.878   7.322
 1094POPC   NC316247  37.303  13.906   9.412
 1094POPC   PO416248  36.682  13.777   9.498
 1094POPC   GL116249  36.789  13.599   9.107
 1094POPC   GL216250  37.103  13.711   8.986
 1094POPC   C1A16251  36.637  13.602   8.676
 1094POPC   D2A16252  36.376  13.454   8.309
 1094POPC   C3A16253  36.631  13.508   7.961
 1094POPC   C4A16254  36.642  13.969   7.876
 1094POPC   C1B16255  37.166  13.494   8.601
 1094POPC   C2B16256  37.247  13.764   8.259
 1094POPC   C3B16257  37.141  13.950   7.905
 1094POPC   C4B16258  37.045  13.610   7.677
 1095POPC   NC316259  16.494  23.929   9.920
 1095POPC   PO416260  16.787  24.446   9.556
 1095POPC   GL116261  16.857  24.619   9.154
 1095POPC   GL216262  16.508  24.567   9.129
 1095POPC   C1A16263  16.814  24.419   8.754
 1095POPC   D2A16264  16.685  24.352   8.322
 1095POPC   C3A16265  17.024  24.249   8.032
 1095POPC   C4A16266  17.095  24.443   7.639
 1095POPC   C1B16267  16.486  24.863   8.796
 1095POPC   C2B16268  16.314  24.914   8.395
 1095POPC   C3B16269  16.301  24.611   8.055
 1095POPC   C4B16270  16.601  24.498   7.762
 1096POPC   NC316271   4.209  40.227   9.440
 1096POPC   PO416272   4.453  39.627   9.425
 1096POPC   GL116273   4.243  39.838   9.099
 1096POPC   GL216274   4.513  40.083   9.054
 1096POPC   C1A16275   4.207  39.866   8.652
 1096POPC   D2A16276   4.338  39.721   8.248
 1096POPC   C3A16277   4.253  39.993   7.881
 1096POPC   C4A16278   3.973  39.859   7.519
 1096POPC   C1B16279   4.750  40.252   8.723
 1096POPC   C2B16280   4.605  40.161   8.319
 1096POPC   C3B16281   4.713  40.287   7.933
 1096POPC   C4B16282   4.596  40.150   7.529
 1097POPC   NC316283  30.508  37.478   9.708
 1097POPC   PO416284  30.709  38.020   9.476
 1097POPC   GL116285  30.486  37.781   9.191
 1097POPC   GL216286  30.725  37.501   9.131
 1097POPC   C1A16287  30.509  37.823   8.739
 1097POPC   D2A16288  30.859  37.783   8.414
 1097POPC   C3A16289  30.852  38.041   8.026
 1097POPC   C4A16290  30.532  37.966   7.720
 1097POPC   C1B16291  30.577  37.306   8.728
 1097POPC   C2B16292  30.680  37.242   8.273
 1097POPC   C3B16293  30.803  37.521   7.929
 1097POPC   C4B16294  30.937  37.374   7.522
 1098POPC   NC316295  17.469  20.218   9.539
 1098POPC   PO416296  17.935  19.808   9.525
 1098POPC   GL116297  17.722  19.747   9.135
 1098POPC   GL216298  17.533  20.081   9.021
 1098POPC   C1A16299  17.716  19.560   8.722
 1098POPC   D2A16300  17.525  19.762   8.373
 1098POPC   C3A16301  17.443  19.509   8.005
 1098POPC   C4A16302  17.770  19.706   7.772
 1098POPC   C1B16303  17.215  20.191   8.688
 1098POPC   C2B16304  17.182  20.144   8.242
 1098POPC   C3B16305  17.326  19.981   7.835
 1098POPC   C4B16306  17.068  19.918   7.450
 1099POPC   NC316307  15.060   0.077   9.402
 1099POPC   PO416308  15.312  44.518   9.715
 1099POPC   GL116309  15.357  44.605   9.211
 1099POPC   GL216310  15.462  44.914   9.115
 1099POPC   C1A16311  15.179  44.572   8.760
 1099POPC   D2A16312  14.883  44.486   8.458
 1099POPC   C3A16313  15.022  44.659   8.073
 1099POPC   C4A16314  15.154  44.414   7.767
 1099POPC   C1B16315  15.665  44.682   8.761
 1099POPC   C2B16316  15.459  44.788   8.356
 1099POPC   C3B16317  15.515  44.768   7.901
 1099POPC   C4B16318  15.570  44.579   7.472
 1100POPC   NC316319  35.106   0.990   9.291
 1100POPC   PO416320  35.534   1.529   9.413
 1100POPC   GL116321  35.432   1.305   9.064
 1100POPC   GL216322  35.104   1.422   9.039
 1100POPC   C1A16323  35.547   1.033   8.724
 1100POPC   D2A16324  35.350   0.926   8.314
 1100POPC   C3A16325  35.550   1.025   7.895
 1100POPC   C4A16326  35.588   0.951   7.418
 1100POPC   C1B16327  35.043   1.125   8.692
 1100POPC   C2B16328  34.845   0.980   8.365
 1100POPC   C3B16329  34.959   1.051   7.979
 1100POPC   C4B16330  35.166   1.328   7.738
 1101POPC   NC316331  15.108  26.716   9.532
 1101POPC   PO416332  15.501  27.245   9.498
 1101POPC   GL116333  15.381  26.983   9.165
 1101POPC   GL216334  15.049  27.037   9.131
 1101POPC   C1A16335  15.477  26.805   8.766
 1101POPC   D2A16336  15.264  26.673   8.397
 1101POPC   C3A16337  15.453  26.816   8.055
 1101POPC   C4A16338  15.266  26.611   7.780
 1101POPC   C1B16339  15.004  26.989   8.717
 1101POPC   C2B16340  14.815  27.046   8.346
 1101POPC   C3B16341  14.840  26.882   7.973
 1101POPC   C4B16342  15.129  27.117   7.788
 1102POPC   NC316343   0.712  17.842   9.957
 1102POPC   PO416344   0.581  17.314   9.540
 1102POPC   GL116345   0.309  17.383   9.198
 1102POPC   GL216346   0.315  17.749   9.155
 1102POPC   C1A16347   0.255  17.302   8.758
 1102POPC   D2A16348   0.317  17.519   8.355
 1102POPC   C3A16349   0.173  17.324   7.991
 1102POPC   C4A16350   0.365  17.257   7.617
 1102POPC   C1B16351   0.605  17.656   8.796
 1102POPC   C2B16352   0.793  17.361   8.508
 1102POPC   C3B16353   0.707  17.305   8.056
 1102POPC   C4B16354   0.665  17.684   7.794
 1103POPC   NC316355  25.412  33.275   9.301
 1103POPC   PO416356  24.935  32.920   9.654
 1103POPC   GL116357  25.023  32.985   9.156
 1103POPC   GL216358  25.293  32.923   8.930
 1103POPC   C1A16359  24.864  32.901   8.680
 1103POPC   D2A16360  25.022  32.900   8.238
 1103POPC   C3A16361  25.054  33.254   7.930
 1103POPC   C4A16362  25.030  33.367   7.443
 1103POPC   C1B16363  25.202  33.257   8.662
 1103POPC   C2B16364  25.474  33.243   8.371
 1103POPC   C3B16365  25.531  32.991   8.031
 1103POPC   C4B16366  25.444  33.149   7.626
 1104POPC   NC316367  33.489  31.129   9.515
 1104POPC   PO416368  32.859  31.117   9.378
 1104POPC   GL116369  33.024  31.388   9.095
 1104POPC   GL216370  32.882  31.718   9.003
 1104POPC   C1A16371  33.135  31.242   8.697
 1104POPC   D2A16372  32.909  31.362   8.341
 1104POPC   C3A16373  33.008  31.352   7.891
 1104POPC   C4A16374  32.985  31.275   7.414
 1104POPC   C1B16375  33.288  31.732   8.768
 1104POPC   C2B16376  33.290  31.833   8.344
 1104POPC   C3B16377  33.346  31.790   7.908
 1104POPC   C4B16378  32.964  31.798   7.640
 1105POPC   NC316379  39.865  39.591   9.406
 1105POPC   PO416380  40.236  38.993   9.469
 1105POPC   GL116381  40.039  38.974   9.085
 1105POPC   GL216382  39.730  39.171   9.102
 1105POPC   C1A16383  39.966  39.061   8.657
 1105POPC   D2A16384  40.128  39.320   8.368
 1105POPC   C3A16385  39.920  39.104   8.049
 1105POPC   C4A16386  39.866  39.186   7.632
 1105POPC   C1B16387  39.657  39.445   8.721
 1105POPC   C2B16388  39.718  39.601   8.271
 1105POPC   C3B16389  39.634  39.590   7.814
 1105POPC   C4B16390  39.648  39.650   7.297
 1106POPC   NC316391  26.975  21.691   9.512
 1106POPC   PO416392  26.522  21.226   9.783
 1106POPC   GL116393  26.700  21.277   9.322
 1106POPC   GL216394  27.067  21.286   9.186
 1106POPC   C1A16395  26.663  21.262   8.863
 1106POPC   D2A16396  26.950  21.271   8.518
 1106POPC   C3A16397  26.774  21.139   8.152
 1106POPC   C4A16398  27.055  21.335   7.875
 1106POPC   C1B16399  27.009  21.645   8.879
 1106POPC   C2B16400  26.734  21.733   8.563
 1106POPC   C3B16401  26.743  21.666   8.142
 1106POPC   C4B16402  26.950  21.802   7.748
 1107POPC   NC316403  13.423  44.203   9.581
 1107POPC   PO416404  13.700  43.543   9.503
 1107POPC   GL116405  13.752  43.872   9.214
 1107POPC   GL216406  13.386  43.911   9.172
 1107POPC   C1A16407  13.799  43.866   8.754
 1107POPC   D2A16408  13.768  43.548   8.403
 1107POPC   C3A16409  13.734  43.729   7.979
 1107POPC   C4A16410  13.852  43.959   7.600
 1107POPC   C1B16411  13.297  43.755   8.778
 1107POPC   C2B16412  13.439  43.922   8.362
 1107POPC   C3B16413  13.221  44.144   8.038
 1107POPC   C4B16414  13.357  44.082   7.637
 1108POPC   NC316415  44.833  29.168   9.622
 1108POPC   PO416416  44.785  29.805   9.649
 1108POPC   GL116417  44.699  29.369   9.209
 1108POPC   GL216418  44.453  29.067   9.119
 1108POPC   C1A16419  44.896  29.045   8.888
 1108POPC   D2A16420  44.710  28.792   8.529
 1108POPC   C3A16421  44.843  28.827   8.085
 1108POPC   C4A16422  44.599  28.861   7.686
 1108POPC   C1B16423  44.493  29.330   8.758
 1108POPC   C2B16424  44.334  29.282   8.377
 1108POPC   C3B16425  44.465  29.201   8.022
 1108POPC   C4B16426  44.545  29.438   7.664
 1109POPC   NC316427  24.609  22.349   9.589
 1109POPC   PO416428  25.208  22.059   9.546
 1109POPC   GL116429  25.282  22.156   9.151
 1109POPC   GL216430  25.560  22.396   9.211
 1109POPC   C1A16431  25.170  22.353   8.750
 1109POPC   D2A16432  25.012  22.437   8.313
 1109POPC   C3A16433  25.258  22.229   7.989
 1109POPC   C4A16434  25.363  21.882   7.727
 1109POPC   C1B16435  25.673  22.151   8.830
 1109POPC   C2B16436  25.574  22.268   8.400
 1109POPC   C3B16437  25.756  22.151   7.972
 1109POPC   C4B16438  25.763  22.359   7.589
 1110POPC   NC316439  10.692   1.269   9.397
 1110POPC   PO416440  10.135   1.015   9.384
 1110POPC   GL116441  10.303   1.182   9.031
 1110POPC   GL216442  10.648   1.246   8.888
 1110POPC   C1A16443  10.192   1.332   8.651
 1110POPC   D2A16444  10.422   1.092   8.374
 1110POPC   C3A16445  10.277   1.098   7.961
 1110POPC   C4A16446  10.637   1.153   7.738
 1110POPC   C1B16447  10.651   1.574   8.558
 1110POPC   C2B16448  10.621   1.516   8.122
 1110POPC   C3B16449  10.857   1.609   7.757
 1110POPC   C4B16450  10.732   1.450   7.315
 1111POPC   NC316451  23.553   3.056   9.624
 1111POPC   PO416452  23.827   2.501   9.425
 1111POPC   GL116453  23.715   2.637   9.066
 1111POPC   GL216454  23.698   3.016   9.134
 1111POPC   C1A16455  23.648   2.480   8.656
 1111POPC   D2A16456  23.591   2.725   8.277
 1111POPC   C3A16457  23.750   2.658   7.865
 1111POPC   C4A16458  23.628   2.591   7.410
 1111POPC   C1B16459  23.841   2.967   8.702
 1111POPC   C2B16460  23.738   3.227   8.365
 1111POPC   C3B16461  23.742   3.158   7.928
 1111POPC   C4B16462  23.463   3.019   7.623
 1112POPC   NC316463  35.599  25.580   9.438
 1112POPC   PO416464  35.345  26.240   9.372
 1112POPC   GL116465  35.283  25.860   9.126
 1112POPC   GL216466  35.629  25.836   9.000
 1112POPC   C1A16467  35.186  25.721   8.709
 1112POPC   D2A16468  35.053  25.776   8.268
 1112POPC   C3A16469  35.063  26.113   7.966
 1112POPC   C4A16470  35.355  26.315   7.696
 1112POPC   C1B16471  35.495  26.120   8.700
 1112POPC   C2B16472  35.452  26.136   8.279
 1112POPC   C3B16473  35.510  25.908   7.954
 1112POPC   C4B16474  35.811  25.986   7.706
 1113POPC   NC316475  11.421  12.347   9.374
 1113POPC   PO416476  11.362  13.014   9.539
 1113POPC   GL116477  11.583  12.818   9.206
 1113POPC   GL216478  11.277  12.806   9.022
 1113POPC   C1A16479  11.705  12.796   8.767
 1113POPC   D2A16480  11.397  12.912   8.471
 1113POPC   C3A16481  11.541  12.789   8.076
 1113POPC   C4A16482  11.293  12.647   7.769
 1113POPC   C1B16483  11.021  13.115   8.776
 1113POPC   C2B16484  10.898  13.064   8.342
 1113POPC   C3B16485  11.119  13.119   7.978
 1113POPC   C4B16486  11.028  13.065   7.550
 1114POPC   NC316487   1.764  15.474   9.306
 1114POPC   PO416488   2.259  15.525   9.778
 1114POPC   GL116489   2.242  15.322   9.263
 1114POPC   GL216490   1.987  15.025   9.131
 1114POPC   C1A16491   2.077  15.387   8.757
 1114POPC   D2A16492   1.963  15.149   8.388
 1114POPC   C3A16493   2.134  15.228   8.015
 1114POPC   C4A16494   2.050  15.500   7.716
 1114POPC   C1B16495   1.650  15.057   8.776
 1114POPC   C2B16496   1.460  15.295   8.410
 1114POPC   C3B16497   1.623  15.280   7.979
 1114POPC   C4B16498   1.646  14.954   7.685
 1115POPC   NC316499  43.676  31.378   9.532
 1115POPC   PO416500  43.990  31.956   9.464
 1115POPC   GL116501  43.768  31.675   9.108
 1115POPC   GL216502  43.775  31.286   9.058
 1115POPC   C1A16503  43.912  31.675   8.662
 1115POPC   D2A16504  44.209  31.737   8.305
 1115POPC   C3A16505  44.113  31.550   7.904
 1115POPC   C4A16506  43.733  31.652   7.749
 1115POPC   C1B16507  43.875  31.150   8.677
 1115POPC   C2B16508  43.851  31.275   8.246
 1115POPC   C3B16509  43.825  31.126   7.815
 1115POPC   C4B16510  44.232  31.070   7.591
 1116POPC   NC316511  32.057  40.361   9.504
 1116POPC   PO416512  32.172  39.782   9.805
 1116POPC   GL116513  32.332  39.966   9.276
 1116POPC   GL216514  32.340  40.268   9.076
 1116POPC   C1A16515  32.306  39.823   8.804
 1116POPC   D2A16516  32.255  39.971   8.346
 1116POPC   C3A16517  32.369  39.827   7.909
 1116POPC   C4A16518  32.153  39.974   7.516
 1116POPC   C1B16519  32.552  40.274   8.669
 1116POPC   C2B16520  32.423  40.464   8.261
 1116POPC   C3B16521  32.330  40.334   7.832
 1116POPC   C4B16522  32.624  40.331   7.501
 1117POPC   NC316523  16.572  13.970   9.504
 1117POPC   PO416524  17.030  13.586   9.551
 1117POPC   GL116525  16.795  13.633   9.155
 1117POPC   GL216526  16.625  13.950   9.004
 1117POPC   C1A16527  16.706  13.369   8.786
 1117POPC   D2A16528  16.937  13.378   8.385
 1117POPC   C3A16529  16.673  13.399   8.018
 1117POPC   C4A16530  16.634  13.534   7.564
 1117POPC   C1B16531  16.671  13.819   8.555
 1117POPC   C2B16532  16.377  13.827   8.202
 1117POPC   C3B16533  16.523  13.969   7.823
 1117POPC   C4B16534  16.945  14.102   7.686
 1118POPC   NC316535  35.347   2.929   9.498
 1118POPC   PO416536  35.045   2.397   9.533
 1118POPC   GL116537  35.245   2.544   9.177
 1118POPC   GL216538  35.618   2.598   9.199
 1118POPC   C1A16539  35.182   2.669   8.788
 1118POPC   D2A16540  35.049   2.542   8.399
 1118POPC   C3A16541  35.111   2.867   8.130
 1118POPC   C4A16542  35.280   2.766   7.762
 1118POPC   C1B16543  35.591   2.948   8.904
 1118POPC   C2B16544  35.433   3.023   8.500
 1118POPC   C3B16545  35.597   3.043   8.087
 1118POPC   C4B16546  35.744   2.940   7.694
 1119POPC   NC316547  13.567   3.998   9.495
 1119POPC   PO416548  13.629   3.259   9.548
 1119POPC   GL116549  13.577   3.531   9.208
 1119POPC   GL216550  13.912   3.554   9.118
 1119POPC   C1A16551  13.519   3.649   8.761
 1119POPC   D2A16552  13.319   3.512   8.380
 1119POPC   C3A16553  13.468   3.617   8.003
 1119POPC   C4A16554  13.370   3.390   7.632
 1119POPC   C1B16555  14.041   3.746   8.717
 1119POPC   C2B16556  13.861   3.760   8.320
 1119POPC   C3B16557  13.961   3.834   7.908
 1119POPC   C4B16558  13.680   3.795   7.579
 1120POPC   NC316559   3.091   4.336   9.676
 1120POPC   PO416560   2.605   3.875   9.605
 1120POPC   GL116561   2.589   4.278   9.299
 1120POPC   GL216562   2.913   4.395   9.142
 1120POPC   C1A16563   2.521   4.351   8.814
 1120POPC   D2A16564   2.768   4.508   8.447
 1120POPC   C3A16565   2.551   4.488   8.063
 1120POPC   C4A16566   2.599   4.287   7.685
 1120POPC   C1B16567   2.992   4.152   8.740
 1120POPC   C2B16568   3.099   4.096   8.334
 1120POPC   C3B16569   3.025   4.284   7.980
 1120POPC   C4B16570   3.074   4.068   7.601
 1121POPC   NC316571   2.397  21.379   9.543
 1121POPC   PO416572   1.777  21.204   9.716
 1121POPC   GL116573   1.922  21.260   9.268
 1121POPC   GL216574   1.954  21.630   9.222
 1121POPC   C1A16575   1.795  21.356   8.812
 1121POPC   D2A16576   1.963  21.232   8.407
 1121POPC   C3A16577   1.911  21.374   7.995
 1121POPC   C4A16578   1.996  21.060   7.677
 1121POPC   C1B16579   2.046  21.810   8.793
 1121POPC   C2B16580   1.937  21.756   8.363
 1121POPC   C3B16581   2.175  21.811   7.982
 1121POPC   C4B16582   2.259  21.620   7.623
 1122POPC   NC316583   3.354  41.934   9.412
 1122POPC   PO416584   3.605  42.598   9.584
 1122POPC   GL116585   3.520  42.388   9.203
 1122POPC   GL216586   3.143  42.371   9.193
 1122POPC   C1A16587   3.692  42.312   8.779
 1122POPC   D2A16588   3.891  42.442   8.390
 1122POPC   C3A16589   3.663  42.396   7.987
 1122POPC   C4A16590   3.505  42.051   7.706
 1122POPC   C1B16591   3.258  42.634   8.836
 1122POPC   C2B16592   3.393  42.618   8.415
 1122POPC   C3B16593   3.183  42.591   8.032
 1122POPC   C4B16594   3.337  42.599   7.613
 1123POPC   NC316595   9.584  27.769   9.409
 1123POPC   PO416596   9.940  27.239   9.442
 1123POPC   GL116597   9.887  27.489   9.099
 1123POPC   GL216598   9.561  27.322   9.116
 1123POPC   C1A16599   9.745  27.690   8.716
 1123POPC   D2A16600   9.925  27.584   8.329
 1123POPC   C3A16601   9.788  27.340   7.990
 1123POPC   C4A16602   9.898  27.611   7.718
 1123POPC   C1B16603   9.527  27.240   8.714
 1123POPC   C2B16604   9.428  27.447   8.355
 1123POPC   C3B16605   9.469  27.752   8.049
 1123POPC   C4B16606   9.403  27.725   7.631
 1124POPC   NC316607  20.719   7.955   9.533
 1124POPC   PO416608  20.248   8.377   9.551
 1124POPC   GL116609  20.622   8.403   9.256
 1124POPC   GL216610  20.827   8.112   9.060
 1124POPC   C1A16611  20.489   8.444   8.854
 1124POPC   D2A16612  20.572   8.538   8.464
 1124POPC   C3A16613  20.578   8.273   8.140
 1124POPC   C4A16614  20.369   8.359   7.770
 1124POPC   C1B16615  20.719   8.016   8.621
 1124POPC   C2B16616  20.854   7.834   8.208
 1124POPC   C3B16617  20.917   8.089   7.812
 1124POPC   C4B16618  20.967   8.060   7.365
 1125POPC   NC316619  15.106  14.935   9.465
 1125POPC   PO416620  15.448  15.516   9.540
 1125POPC   GL116621  15.168  15.354   9.141
 1125POPC   GL216622  15.068  14.989   8.979
 1125POPC   C1A16623  15.182  15.351   8.674
 1125POPC   D2A16624  15.456  15.060   8.479
 1125POPC   C3A16625  15.502  15.212   8.082
 1125POPC   C4A16626  15.222  15.503   7.859
 1125POPC   C1B16627  14.925  14.887   8.565
 1125POPC   C2B16628  15.049  14.940   8.121
 1125POPC   C3B16629  14.899  15.116   7.723
 1125POPC   C4B16630  14.998  14.915   7.309
 1126POPC   NC316631  39.530  37.940   9.491
 1126POPC   PO416632  38.851  37.899   9.477
 1126POPC   GL116633  39.030  37.627   9.163
 1126POPC   GL216634  39.255  37.860   9.041
 1126POPC   C1A16635  39.000  37.536   8.709
 1126POPC   D2A16636  38.852  37.835   8.384
 1126POPC   C3A16637  39.083  37.806   8.000
 1126POPC   C4A16638  39.269  37.421   7.832
 1126POPC   C1B16639  39.484  37.744   8.654
 1126POPC   C2B16640  39.549  37.733   8.206
 1126POPC   C3B16641  39.540  37.831   7.780
 1126POPC   C4B16642  39.398  38.065   7.448
 1127POPC   NC316643  22.770  10.862   9.392
 1127POPC   PO416644  23.042  10.191   9.598
 1127POPC   GL116645  23.021  10.439   9.219
 1127POPC   GL216646  22.752  10.276   9.048
 1127POPC   C1A16647  23.034  10.632   8.784
 1127POPC   D2A16648  22.992  10.488   8.328
 1127POPC   C3A16649  23.113  10.716   7.921
 1127POPC   C4A16650  23.094  10.911   7.432
 1127POPC   C1B16651  22.495  10.497   8.698
 1127POPC   C2B16652  22.492  10.564   8.240
 1127POPC   C3B16653  22.687  10.389   7.877
 1127POPC   C4B16654  22.668  10.750   7.677
 1128POPC   NC316655   0.909   7.671   9.636
 1128POPC   PO416656   1.439   7.397   9.502
 1128POPC   GL116657   1.124   7.408   9.184
 1128POPC   GL216658   1.357   7.521   8.901
 1128POPC   C1A16659   0.969   7.261   8.782
 1128POPC   D2A16660   1.195   7.419   8.370
 1128POPC   C3A16661   1.057   7.281   7.955
 1128POPC   C4A16662   1.236   7.315   7.529
 1128POPC   C1B16663   1.482   7.145   8.677
 1128POPC   C2B16664   1.553   6.949   8.293
 1128POPC   C3B16665   1.564   7.159   7.906
 1128POPC   C4B16666   1.716   7.079   7.497
 1129POPC   NC316667  29.482  17.326   9.662
 1129POPC   PO416668  28.842  17.673   9.595
 1129POPC   GL116669  29.137  17.684   9.233
 1129POPC   GL216670  28.885  17.886   9.096
 1129POPC   C1A16671  29.348  17.713   8.809
 1129POPC   D2A16672  29.263  17.364   8.505
 1129POPC   C3A16673  29.419  17.316   8.067
 1129POPC   C4A16674  29.401  17.591   7.729
 1129POPC   C1B16675  28.874  17.757   8.659
 1129POPC   C2B16676  29.156  17.829   8.309
 1129POPC   C3B16677  29.006  17.847   7.907
 1129POPC   C4B16678  28.684  17.660   7.693
 1130POPC   NC316679  39.104  42.760   9.519
 1130POPC   PO416680  39.675  43.151   9.504
 1130POPC   GL116681  39.413  43.036   9.118
 1130POPC   GL216682  39.216  43.314   8.951
 1130POPC   C1A16683  39.410  42.973   8.649
 1130POPC   D2A16684  39.102  43.108   8.346
 1130POPC   C3A16685  39.083  42.911   7.944
 1130POPC   C4A16686  39.354  42.884   7.602
 1130POPC   C1B16687  38.907  43.510   8.643
 1130POPC   C2B16688  38.659  43.561   8.318
 1130POPC   C3B16689  38.774  43.314   7.991
 1130POPC   C4B16690  39.127  43.405   7.733
 1131POPC   NC316691  43.722  27.539   9.469
 1131POPC   PO416692  44.373  27.297   9.643
 1131POPC   GL116693  44.186  27.328   9.216
 1131POPC   GL216694  44.267  27.643   9.118
 1131POPC   C1A16695  43.874  27.354   8.834
 1131POPC   D2A16696  43.859  27.563   8.401
 1131POPC   C3A16697  43.634  27.496   8.018
 1131POPC   C4A16698  43.592  27.841   7.770
 1131POPC   C1B16699  44.131  27.850   8.751
 1131POPC   C2B16700  44.297  27.873   8.344
 1131POPC   C3B16701  44.076  27.808   7.971
 1131POPC   C4B16702  44.006  27.600   7.580
 1132POPC   NC316703  32.182  13.005   9.518
 1132POPC   PO416704  32.705  13.049   9.109
 1132POPC   GL116705  32.324  12.796   9.061
 1132POPC   GL216706  32.015  13.011   9.051
 1132POPC   C1A16707  32.029  12.630   8.724
 1132POPC   D2A16708  31.998  12.814   8.302
 1132POPC   C3A16709  32.356  12.735   8.059
 1132POPC   C4A16710  32.185  12.665   7.683
 1132POPC   C1B16711  32.193  13.115   8.667
 1132POPC   C2B16712  32.385  13.213   8.257
 1132POPC   C3B16713  32.147  13.175   7.862
 1132POPC   C4B16714  31.983  13.357   7.496
 1133POPC   NC316715  17.086   1.717   9.513
 1133POPC   PO416716  17.728   2.071   9.624
 1133POPC   GL116717  17.609   2.066   9.189
 1133POPC   GL216718  17.262   1.954   9.081
 1133POPC   C1A16719  17.721   1.905   8.795
 1133POPC   D2A16720  17.417   1.921   8.481
 1133POPC   C3A16721  17.643   1.980   8.141
 1133POPC   C4A16722  17.586   1.940   7.721
 1133POPC   C1B16723  17.042   2.173   8.749
 1133POPC   C2B16724  16.979   2.218   8.346
 1133POPC   C3B16725  17.160   2.056   8.002
 1133POPC   C4B16726  17.133   2.122   7.549
 1134POPC   NC316727  25.586   6.664   9.493
 1134POPC   PO416728  24.983   6.371   9.392
 1134POPC   GL116729  25.215   6.662   9.142
 1134POPC   GL216730  25.486   6.417   9.068
 1134POPC   C1A16731  25.321   6.802   8.721
 1134POPC   D2A16732  25.096   6.778   8.320
 1134POPC   C3A16733  25.367   6.667   7.962
 1134POPC   C4A16734  25.433   6.859   7.569
 1134POPC   C1B16735  25.196   6.298   8.772
 1134POPC   C2B16736  25.282   6.294   8.366
 1134POPC   C3B16737  25.044   6.267   8.019
 1134POPC   C4B16738  24.994   6.500   7.656
 1135POPC   NC316739  21.232   8.728   9.522
 1135POPC   PO416740  21.187   8.062   9.419
 1135POPC   GL116741  21.362   8.201   9.060
 1135POPC   GL216742  21.305   8.507   9.090
 1135POPC   C1A16743  21.469   8.289   8.647
 1135POPC   D2A16744  21.536   8.480   8.274
 1135POPC   C3A16745  21.398   8.180   8.007
 1135POPC   C4A16746  21.730   8.077   7.777
 1135POPC   C1B16747  21.010   8.496   8.800
 1135POPC   C2B16748  21.064   8.602   8.410
 1135POPC   C3B16749  21.089   8.596   8.007
 1135POPC   C4B16750  20.812   8.588   7.703
 1136POPC   NC316751   6.805  41.802   9.498
 1136POPC   PO416752   7.016  41.202   9.584
 1136POPC   GL116753   6.880  41.359   9.149
 1136POPC   GL216754   6.538  41.324   8.949
 1136POPC   C1A16755   6.909  41.545   8.724
 1136POPC   D2A16756   6.679  41.356   8.367
 1136POPC   C3A16757   6.752  41.464   7.951
 1136POPC   C4A16758   6.857  41.338   7.523
 1136POPC   C1B16759   6.418  41.694   8.668
 1136POPC   C2B16760   6.388  41.759   8.212
 1136POPC   C3B16761   6.367  41.726   7.750
 1136POPC   C4B16762   6.448  41.646   7.329
 1137POPC   NC316763  37.987   3.844   9.369
 1137POPC   PO416764  37.397   3.688   9.470
 1137POPC   GL116765  37.530   3.498   9.093
 1137POPC   GL216766  37.228   3.274   9.086
 1137POPC   C1A16767  37.824   3.484   8.689
 1137POPC   D2A16768  37.855   3.742   8.267
 1137POPC   C3A16769  37.848   3.612   7.792
 1137POPC   C4A16770  37.806   3.238   7.472
 1137POPC   C1B16771  37.327   3.307   8.667
 1137POPC   C2B16772  37.380   3.520   8.306
 1137POPC   C3B16773  37.494   3.276   7.941
 1137POPC   C4B16774  37.454   2.916   7.643
 1138POPC   NC316775  12.056  16.471   9.532
 1138POPC   PO416776  12.425  16.981   9.448
 1138POPC   GL116777  12.329  16.682   9.123
 1138POPC   GL216778  11.974  16.511   9.040
 1138POPC   C1A16779  12.302  16.667   8.696
 1138POPC   D2A16780  12.015  16.461   8.498
 1138POPC   C3A16781  11.912  16.652   8.130
 1138POPC   C4A16782  12.188  16.747   7.810
 1138POPC   C1B16783  11.876  16.914   8.864
 1138POPC   C2B16784  11.739  17.060   8.453
 1138POPC   C3B16785  11.799  17.132   8.001
 1138POPC   C4B16786  11.698  16.845   7.665
 1139POPC   NC316787  37.283  44.390   9.791
 1139POPC   PO416788  37.790  44.568   9.527
 1139POPC   GL116789  37.738  44.783   9.165
 1139POPC   GL216790  37.388  44.881   9.122
 1139POPC   C1A16791  37.837  44.718   8.758
 1139POPC   D2A16792  37.655  44.697   8.357
 1139POPC   C3A16793  37.916  44.945   8.120
 1139POPC   C4A16794  37.994  44.910   7.678
 1139POPC   C1B16795  37.335  44.560   8.774
 1139POPC   C2B16796  37.156  44.468   8.356
 1139POPC   C3B16797  37.422  44.376   7.983
 1139POPC   C4B16798  37.436  44.497   7.551
 1140POPC   NC316799  42.144  24.792   9.385
 1140POPC   PO416800  42.223  24.081   9.561
 1140POPC   GL116801  42.329  24.269   9.171
 1140POPC   GL216802  41.991  24.359   9.156
 1140POPC   C1A16803  42.463  24.509   8.769
 1140POPC   D2A16804  42.636  24.508   8.322
 1140POPC   C3A16805  42.420  24.649   7.950
 1140POPC   C4A16806  42.435  24.259   7.727
 1140POPC   C1B16807  41.960  24.568   8.771
 1140POPC   C2B16808  42.094  24.613   8.364
 1140POPC   C3B16809  42.022  24.321   8.027
 1140POPC   C4B16810  41.982  24.523   7.646
 1141POPC   NC316811  35.718  15.868   9.363
 1141POPC   PO416812  36.352  15.571   9.382
 1141POPC   GL116813  36.336  15.962   9.097
 1141POPC   GL216814  35.973  16.086   9.003
 1141POPC   C1A16815  36.300  15.989   8.656
 1141POPC   D2A16816  35.981  15.833   8.390
 1141POPC   C3A16817  36.187  15.813   8.002
 1141POPC   C4A16818  36.475  16.020   7.723
 1141POPC   C1B16819  35.916  16.327   8.601
 1141POPC   C2B16820  36.101  16.294   8.197
 1141POPC   C3B16821  36.025  16.231   7.767
 1141POPC   C4B16822  36.214  16.370   7.385
 1142POPC   NC316823  42.940  44.252   9.318
 1142POPC   PO416824  43.225  43.668   9.510
 1142POPC   GL116825  43.249  43.847   9.127
 1142POPC   GL216826  42.925  43.742   9.100
 1142POPC   C1A16827  43.083  43.994   8.701
 1142POPC   D2A16828  43.277  44.154   8.328
 1142POPC   C3A16829  43.209  44.046   7.894
 1142POPC   C4A16830  42.942  44.246   7.607
 1142POPC   C1B16831  42.754  43.538   8.770
 1142POPC   C2B16832  42.754  43.717   8.380
 1142POPC   C3B16833  42.752  43.805   7.959
 1142POPC   C4B16834  42.788  43.509   7.644
 1143POPC   NC316835   1.562   5.652   9.383
 1143POPC   PO416836   2.200   5.995   9.498
 1143POPC   GL116837   1.964   5.887   9.153
 1143POPC   GL216838   2.013   5.540   9.162
 1143POPC   C1A16839   1.997   5.813   8.723
 1143POPC   D2A16840   2.318   5.770   8.424
 1143POPC   C3A16841   2.140   5.801   8.024
 1143POPC   C4A16842   1.688   5.900   7.935
 1143POPC   C1B16843   1.844   5.328   8.787
 1143POPC   C2B16844   1.585   5.402   8.418
 1143POPC   C3B16845   1.786   5.406   8.023
 1143POPC   C4B16846   2.066   5.398   7.709
 1144POPC   NC316847  32.832   7.662   9.463
 1144POPC   PO416848  32.990   7.025   9.421
 1144POPC   GL116849  33.034   7.360   9.107
 1144POPC   GL216850  33.326   7.538   9.146
 1144POPC   C1A16851  32.922   7.556   8.717
 1144POPC   D2A16852  32.709   7.371   8.340
 1144POPC   C3A16853  32.968   7.102   8.076
 1144POPC   C4A16854  32.951   7.282   7.682
 1144POPC   C1B16855  33.431   7.266   8.787
 1144POPC   C2B16856  33.359   7.302   8.363
 1144POPC   C3B16857  33.173   7.597   8.087
 1144POPC   C4B16858  33.336   7.643   7.696
 1145POPC   NC316859  29.548  40.372   9.526
 1145POPC   PO416860  28.960  39.923   9.534
 1145POPC   GL116861  29.200  39.924   9.175
 1145POPC   GL216862  29.177  40.287   9.172
 1145POPC   C1A16863  29.036  39.826   8.744
 1145POPC   D2A16864  28.827  40.088   8.407
 1145POPC   C3A16865  28.990  40.020   7.975
 1145POPC   C4A16866  29.275  39.702   7.751
 1145POPC   C1B16867  29.386  40.193   8.778
 1145POPC   C2B16868  29.323  40.297   8.346
 1145POPC   C3B16869  29.500  40.115   7.961
 1145POPC   C4B16870  29.424  40.327   7.588
 1146POPC   NC316871  35.017   4.978   9.500
 1146POPC   PO416872  34.315   4.775   9.522
 1146POPC   GL116873  34.407   5.104   9.224
 1146POPC   GL216874  34.765   5.201   9.118
 1146POPC   C1A16875  34.419   5.080   8.778
 1146POPC   D2A16876  34.610   5.189   8.404
 1146POPC   C3A16877  34.519   4.967   8.036
 1146POPC   C4A16878  34.287   5.211   7.719
 1146POPC   C1B16879  35.029   5.391   8.772
 1146POPC   C2B16880  34.995   5.582   8.388
 1146POPC   C3B16881  34.874   5.386   8.000
 1146POPC   C4B16882  34.795   5.135   7.636
 1147POPC   NC316883  20.154   5.833   9.372
 1147POPC   PO416884  19.580   5.562   9.402
 1147POPC   GL116885  19.722   5.837   9.095
 1147POPC   GL216886  19.683   6.190   9.208
 1147POPC   C1A16887  19.980   5.754   8.733
 1147POPC   D2A16888  19.843   5.736   8.320
 1147POPC   C3A16889  20.095   5.750   7.979
 1147POPC   C4A16890  19.952   5.594   7.589
 1147POPC   C1B16891  19.880   6.257   8.812
 1147POPC   C2B16892  19.656   6.221   8.435
 1147POPC   C3B16893  19.808   6.178   8.020
 1147POPC   C4B16894  19.584   5.832   7.841
 1148POPC   NC316895  11.448  29.517   9.511
 1148POPC   PO416896  11.205  28.936   9.817
 1148POPC   GL116897  11.231  29.057   9.350
 1148POPC   GL216898  11.044  29.357   9.247
 1148POPC   C1A16899  11.233  28.914   8.895
 1148POPC   D2A16900  11.437  29.030   8.488
 1148POPC   C3A16901  11.310  28.922   8.077
 1148POPC   C4A16902  11.452  29.018   7.638
 1148POPC   C1B16903  11.265  29.433   8.863
 1148POPC   C2B16904  11.239  29.545   8.447
 1148POPC   C3B16905  11.430  29.415   8.095
 1148POPC   C4B16906  11.299  29.490   7.718
 1149POPC   NC316907  26.313  18.589   9.551
 1149POPC   PO416908  26.479  17.976   9.341
 1149POPC   GL116909  26.298  18.301   9.085
 1149POPC   GL216910  25.932  18.356   9.119
 1149POPC   C1A16911  26.303  18.338   8.646
 1149POPC   D2A16912  26.011  18.105   8.371
 1149POPC   C3A16913  26.004  18.270   7.955
 1149POPC   C4A16914  26.339  18.496   7.743
 1149POPC   C1B16915  25.653  18.361   8.713
 1149POPC   C2B16916  25.657  18.495   8.256
 1149POPC   C3B16917  25.559  18.494   7.791
 1149POPC   C4B16918  25.660  18.531   7.326
 1150POPC   NC316919  19.539   6.614   9.479
 1150POPC   PO416920  20.130   6.293   9.435
 1150POPC   GL116921  20.054   6.622   9.140
 1150POPC   GL216922  19.737   6.802   9.075
 1150POPC   C1A16923  20.090   6.738   8.716
 1150POPC   D2A16924  19.989   6.571   8.355
 1150POPC   C3A16925  20.003   6.703   7.977
 1150POPC   C4A16926  20.192   6.468   7.670
 1150POPC   C1B16927  19.525   6.615   8.774
 1150POPC   C2B16928  19.504   6.765   8.378
 1150POPC   C3B16929  19.517   6.592   8.024
 1150POPC   C4B16930  19.689   6.561   7.606
 1151POPC   NC316931  18.429  19.942   9.577
 1151POPC   PO416932  18.403  19.324   9.625
 1151POPC   GL116933  18.337  19.637   9.200
 1151POPC   GL216934  18.183  20.014   9.143
 1151POPC   C1A16935  18.441  19.812   8.773
 1151POPC   D2A16936  18.512  19.667   8.358
 1151POPC   C3A16937  18.463  19.955   8.014
 1151POPC   C4A16938  18.362  19.914   7.586
 1151POPC   C1B16939  17.962  20.007   8.749
 1151POPC   C2B16940  18.030  19.890   8.330
 1151POPC   C3B16941  17.965  20.133   7.968
 1151POPC   C4B16942  17.931  20.137   7.535
 1152POPC   NC316943  40.654  15.033   9.576
 1152POPC   PO416944  41.307  15.249   9.633
 1152POPC   GL116945  41.050  14.981   9.254
 1152POPC   GL216946  40.789  15.236   9.136
 1152POPC   C1A16947  40.794  14.801   8.842
 1152POPC   D2A16948  40.662  15.060   8.440
 1152POPC   C3A16949  40.563  14.992   7.987
 1152POPC   C4A16950  40.706  15.180   7.580
 1152POPC   C1B16951  41.054  15.228   8.781
 1152POPC   C2B16952  41.073  15.429   8.392
 1152POPC   C3B16953  40.942  15.410   7.983
 1152POPC   C4B16954  40.954  15.668   7.624
 1153POPC   NC316955  38.988  34.804   9.424
 1153POPC   PO416956  39.303  34.293   9.592
 1153POPC   GL116957  39.159  34.383   9.153
 1153POPC   GL216958  39.246  34.715   9.006
 1153POPC   C1A16959  39.034  34.374   8.697
 1153POPC   D2A16960  39.191  34.321   8.278
 1153POPC   C3A16961  39.042  34.643   7.976
 1153POPC   C4A16962  38.929  34.518   7.558
 1153POPC   C1B16963  39.585  34.873   8.774
 1153POPC   C2B16964  39.549  35.065   8.406
 1153POPC   C3B16965  39.707  35.000   8.038
 1153POPC   C4B16966  39.536  34.719   7.800
 1154POPC   NC316967   3.943  37.937   9.594
 1154POPC   PO416968   4.367  37.454   9.380
 1154POPC   GL116969   4.329  37.727   9.075
 1154POPC   GL216970   4.424  38.027   9.240
 1154POPC   C1A16971   4.404  37.618   8.657
 1154POPC   D2A16972   4.267  37.499   8.279
 1154POPC   C3A16973   4.201  37.765   8.012
 1154POPC   C4A16974   4.233  37.682   7.621
 1154POPC   C1B16975   4.341  38.191   8.826
 1154POPC   C2B16976   4.290  38.101   8.386
 1154POPC   C3B16977   4.499  38.190   7.984
 1154POPC   C4B16978   4.711  37.932   7.661
 1155POPC   NC316979  18.748  24.034   9.251
 1155POPC   PO416980  19.166  23.550   9.470
 1155POPC   GL116981  19.107  23.672   9.045
 1155POPC   GL216982  19.394  23.522   8.939
 1155POPC   C1A16983  18.969  23.893   8.667
 1155POPC   D2A16984  18.779  24.113   8.333
 1155POPC   C3A16985  19.074  24.159   7.985
 1155POPC   C4A16986  18.955  23.993   7.559
 1155POPC   C1B16987  19.294  23.516   8.526
 1155POPC   C2B16988  18.907  23.535   8.334
 1155POPC   C3B16989  18.915  23.691   7.995
 1155POPC   C4B16990  18.921  23.488   7.642
 1156POPC   NC316991   3.719   1.487   9.245
 1156POPC   PO416992   3.324   0.949   9.457
 1156POPC   GL116993   3.472   1.091   9.087
 1156POPC   GL216994   3.795   0.992   9.075
 1156POPC   C1A16995   3.385   1.119   8.667
 1156POPC   D2A16996   3.524   1.024   8.277
 1156POPC   C3A16997   3.295   1.225   7.949
 1156POPC   C4A16998   3.294   1.136   7.468
 1156POPC   C1B16999   3.899   1.169   8.691
 1156POPC   C2B17000   4.003   1.282   8.304
 1156POPC   C3B17001   3.792   1.318   7.936
 1156POPC   C4B17002   3.580   1.528   7.609
 1157POPC   NC317003  12.990  14.150   9.627
 1157POPC   PO417004  12.438  14.309   9.301
 1157POPC   GL117005  12.800  14.190   9.129
 1157POPC   GL217006  13.070  14.427   9.170
 1157POPC   C1A17007  12.928  14.150   8.708
 1157POPC   D2A17008  13.232  14.041   8.367
 1157POPC   C3A17009  13.053  14.270   8.052
 1157POPC   C4A17010  12.737  14.103   7.799
 1157POPC   C1B17011  12.784  14.671   8.891
 1157POPC   C2B17012  12.825  14.596   8.473
 1157POPC   C3B17013  12.850  14.736   8.062
 1157POPC   C4B17014  12.942  14.617   7.663
 1158POPC   NC317015  32.689   3.034   9.252
 1158POPC   PO417016  33.295   2.945   9.528
 1158POPC   GL117017  33.193   2.973   9.108
 1158POPC   GL217018  33.026   2.647   9.077
 1158POPC   C1A17019  33.167   2.857   8.656
 1158POPC   D2A17020  33.269   2.799   8.234
 1158POPC   C3A17021  33.110   2.992   7.902
 1158POPC   C4A17022  33.277   2.665   7.662
 1158POPC   C1B17023  32.732   2.586   8.739
 1158POPC   C2B17024  32.752   2.766   8.344
 1158POPC   C3B17025  32.855   2.573   7.949
 1158POPC   C4B17026  32.757   2.708   7.547
 1159POPC   NC317027   3.731  12.645   9.495
 1159POPC   PO417028   3.095  12.338   9.493
 1159POPC   GL117029   3.284  12.631   9.154
 1159POPC   GL217030   3.599  12.862   9.076
 1159POPC   C1A17031   3.285  12.750   8.705
 1159POPC   D2A17032   3.171  13.059   8.359
 1159POPC   C3A17033   3.272  12.876   7.936
 1159POPC   C4A17034   3.574  12.815   7.655
 1159POPC   C1B17035   3.777  12.829   8.688
 1159POPC   C2B17036   3.630  12.841   8.286
 1159POPC   C3B17037   3.678  13.183   7.978
 1159POPC   C4B17038   3.890  13.221   7.540
 1160POPC   NC317039   0.223   1.662   9.488
 1160POPC   PO417040   0.704   2.175   9.527
 1160POPC   GL117041   0.459   2.016   9.207
 1160POPC   GL217042   0.596   1.717   9.095
 1160POPC   C1A17043   0.323   2.154   8.828
 1160POPC   D2A17044   0.386   2.293   8.409
 1160POPC   C3A17045   0.352   2.052   8.041
 1160POPC   C4A17046   0.235   2.316   7.697
 1160POPC   C1B17047   0.487   1.719   8.656
 1160POPC   C2B17048   0.732   1.833   8.322
 1160POPC   C3B17049   0.752   1.640   7.925
 1160POPC   C4B17050   0.457   1.761   7.623
 1161POPC   NC317051  23.117   0.688   9.568
 1161POPC   PO417052  22.751   0.177   9.611
 1161POPC   GL117053  22.656   0.374   9.186
 1161POPC   GL217054  22.830   0.693   9.116
 1161POPC   C1A17055  22.542   0.430   8.737
 1161POPC   D2A17056  22.734   0.585   8.342
 1161POPC   C3A17057  22.826   0.290   8.024
 1161POPC   C4A17058  22.926   0.380   7.583
 1161POPC   C1B17059  23.071   0.587   8.732
 1161POPC   C2B17060  23.253   0.632   8.288
 1161POPC   C3B17061  23.296   0.671   7.806
 1161POPC   C4B17062  23.197   0.811   7.360
 1162POPC   NC317063  38.844  30.410   9.524
 1162POPC   PO417064  39.400  30.787   9.410
 1162POPC   GL117065  39.122  30.641   9.128
 1162POPC   GL217066  39.236  30.298   9.150
 1162POPC   C1A17067  39.111  30.718   8.689
 1162POPC   D2A17068  39.431  30.909   8.408
 1162POPC   C3A17069  39.326  30.773   8.014
 1162POPC   C4A17070  39.445  30.469   7.742
 1162POPC   C1B17071  38.877  30.280   8.885
 1162POPC   C2B17072  38.623  30.464   8.593
 1162POPC   C3B17073  38.668  30.527   8.163
 1162POPC   C4B17074  38.949  30.456   7.815
 1163POPC   NC317075   1.666  12.823   9.406
 1163POPC   PO417076   2.265  13.125   9.485
 1163POPC   GL117077   2.049  13.011   9.144
 1163POPC   GL217078   2.057  12.619   9.152
 1163POPC   C1A17079   2.139  12.957   8.762
 1163POPC   D2A17080   2.056  12.755   8.434
 1163POPC   C3A17081   2.130  12.939   8.058
 1163POPC   C4A17082   1.880  13.142   7.802
 1163POPC   C1B17083   1.869  12.400   8.805
 1163POPC   C2B17084   1.985  12.253   8.405
 1163POPC   C3B17085   1.986  12.416   8.047
 1163POPC   C4B17086   1.920  12.623   7.677
 1164POPC   NC317087  28.405  26.630   9.545
 1164POPC   PO417088  28.160  27.244   9.370
 1164POPC   GL117089  28.299  26.900   9.115
 1164POPC   GL217090  28.593  27.082   9.146
 1164POPC   C1A17091  28.139  26.826   8.692
 1164POPC   D2A17092  27.973  26.963   8.296
 1164POPC   C3A17093  28.166  26.702   7.984
 1164POPC   C4A17094  28.259  26.788   7.586
 1164POPC   C1B17095  28.532  27.150   8.712
 1164POPC   C2B17096  28.478  26.979   8.295
 1164POPC   C3B17097  28.558  27.100   7.875
 1164POPC   C4B17098  28.707  27.095   7.452
 1165POPC   NC317099  22.698  24.275   9.677
 1165POPC   PO417100  23.150  24.745   9.570
 1165POPC   GL117101  23.199  24.470   9.161
 1165POPC   GL217102  23.067  24.108   9.144
 1165POPC   C1A17103  22.997  24.429   8.724
 1165POPC   D2A17104  22.799  24.667   8.379
 1165POPC   C3A17105  22.953  24.604   7.956
 1165POPC   C4A17106  22.975  24.550   7.514
 1165POPC   C1B17107  22.747  23.995   8.783
 1165POPC   C2B17108  22.816  24.138   8.305
 1165POPC   C3B17109  22.755  24.145   7.842
 1165POPC   C4B17110  22.485  24.415   7.520
 1166POPC   NC317111  30.039   9.129   9.344
 1166POPC   PO417112  29.601   8.702   9.503
 1166POPC   GL117113  29.583   8.932   9.123
 1166POPC   GL217114  29.576   9.296   9.171
 1166POPC   C1A17115  29.851   8.961   8.760
 1166POPC   D2A17116  30.150   8.846   8.451
 1166POPC   C3A17117  30.138   9.081   8.097
 1166POPC   C4A17118  29.977   8.899   7.763
 1166POPC   C1B17119  29.467   9.299   8.756
 1166POPC   C2B17120  29.711   9.261   8.381
 1166POPC   C3B17121  29.617   9.166   8.009
 1166POPC   C4B17122  29.633   9.302   7.615
 1167POPC   NC317123  23.749  38.003   9.430
 1167POPC   PO417124  23.353  37.480   9.375
 1167POPC   GL117125  23.565  37.668   9.082
 1167POPC   GL217126  23.370  37.980   9.105
 1167POPC   C1A17127  23.899  37.598   8.788
 1167POPC   D2A17128  23.921  37.345   8.427
 1167POPC   C3A17129  23.997  37.591   8.060
 1167POPC   C4A17130  23.928  37.458   7.644
 1167POPC   C1B17131  23.588  38.015   8.721
 1167POPC   C2B17132  23.676  37.882   8.352
 1167POPC   C3B17133  23.631  38.036   7.966
 1167POPC   C4B17134  23.515  37.764   7.717
 1168POPC   NC317135  24.347  19.030   9.691
 1168POPC   PO417136  24.734  19.344   9.277
 1168POPC   GL117137  24.382  19.196   9.116
 1168POPC   GL217138  24.284  18.889   9.197
 1168POPC   C1A17139  24.542  19.055   8.731
 1168POPC   D2A17140  24.606  19.337   8.439
 1168POPC   C3A17141  24.261  19.403   8.173
 1168POPC   C4A17142  24.424  19.263   7.798
 1168POPC   C1B17143  24.196  18.702   8.812
 1168POPC   C2B17144  24.225  18.898   8.376
 1168POPC   C3B17145  24.514  18.836   8.040
 1168POPC   C4B17146  24.668  18.831   7.605
 1169POPC   NC317147  22.402  28.890   9.276
 1169POPC   PO417148  22.108  29.314   9.666
 1169POPC   GL117149  22.099  29.343   9.192
 1169POPC   GL217150  21.846  29.565   9.084
 1169POPC   C1A17151  22.287  29.312   8.747
 1169POPC   D2A17152  22.381  28.944   8.456
 1169POPC   C3A17153  22.313  28.986   8.014
 1169POPC   C4A17154  22.308  28.628   7.728
 1169POPC   C1B17155  21.734  29.398   8.685
 1169POPC   C2B17156  21.994  29.294   8.319
 1169POPC   C3B17157  22.160  29.496   7.986
 1169POPC   C4B17158  22.038  29.568   7.574
 1170POPC   NC317159  27.082  30.951   9.348
 1170POPC   PO417160  26.515  30.617   9.495
 1170POPC   GL117161  26.642  30.761   9.133
 1170POPC   GL217162  26.584  31.099   9.221
 1170POPC   C1A17163  26.882  30.659   8.761
 1170POPC   D2A17164  27.076  30.647   8.364
 1170POPC   C3A17165  26.783  30.636   8.040
 1170POPC   C4A17166  26.964  30.630   7.664
 1170POPC   C1B17167  26.629  31.146   8.796
 1170POPC   C2B17168  26.528  30.896   8.450
 1170POPC   C3B17169  26.587  31.144   8.082
 1170POPC   C4B17170  26.680  31.035   7.713
 1171POPC   NC317171  14.539  41.009   9.781
 1171POPC   PO417172  13.905  40.874   9.876
 1171POPC   GL117173  14.121  40.683   9.464
 1171POPC   GL217174  13.902  40.500   9.180
 1171POPC   C1A17175  14.368  40.694   9.036
 1171POPC   D2A17176  14.407  40.741   8.558
 1171POPC   C3A17177  14.583  40.815   8.140
 1171POPC   C4A17178  14.534  41.144   7.846
 1171POPC   C1B17179  14.104  40.329   8.740
 1171POPC   C2B17180  14.210  40.372   8.272
 1171POPC   C3B17181  14.471  40.353   7.911
 1171POPC   C4B17182  14.692  40.528   7.536
 1172POPC   NC317183  27.733  17.038   9.394
 1172POPC   PO417184  28.438  16.760   9.547
 1172POPC   GL117185  28.515  16.625   9.175
 1172POPC   GL217186  28.851  16.744   9.102
 1172POPC   C1A17187  28.258  16.547   8.846
 1172POPC   D2A17188  28.381  16.311   8.530
 1172POPC   C3A17189  28.293  16.618   8.206
 1172POPC   C4A17190  28.225  16.569   7.774
 1172POPC   C1B17191  28.714  16.735   8.677
 1172POPC   C2B17192  28.788  16.528   8.300
 1172POPC   C3B17193  28.700  16.669   7.913
 1172POPC   C4B17194  28.667  17.130   7.847
 1173POPC   NC317195  33.655  21.825   9.879
 1173POPC   PO417196  33.703  21.332   9.389
 1173POPC   GL117197  33.608  21.412   9.024
 1173POPC   GL217198  33.344  21.233   8.892
 1173POPC   C1A17199  33.824  21.444   8.675
 1173POPC   D2A17200  34.050  21.223   8.361
 1173POPC   C3A17201  33.890  21.373   7.984
 1173POPC   C4A17202  33.884  21.232   7.552
 1173POPC   C1B17203  33.349  21.664   8.682
 1173POPC   C2B17204  33.513  21.748   8.291
 1173POPC   C3B17205  33.356  21.573   7.908
 1173POPC   C4B17206  33.447  21.464   7.460
 1174POPC   NC317207  31.703   1.746   9.492
 1174POPC   PO417208  31.296   1.193   9.398
 1174POPC   GL117209  31.581   1.035   9.114
 1174POPC   GL217210  31.842   1.288   9.228
 1174POPC   C1A17211  31.547   0.913   8.665
 1174POPC   D2A17212  31.313   1.114   8.334
 1174POPC   C3A17213  31.299   0.932   7.902
 1174POPC   C4A17214  31.255   0.914   7.420
 1174POPC   C1B17215  31.838   1.338   8.787
 1174POPC   C2B17216  31.758   1.423   8.366
 1174POPC   C3B17217  31.726   1.165   8.030
 1174POPC   C4B17218  31.630   1.203   7.583
 1175POPC   NC317219  14.372  30.980   9.478
 1175POPC   PO417220  14.580  30.374   9.577
 1175POPC   GL117221  14.634  30.580   9.200
 1175POPC   GL217222  14.311  30.621   9.105
 1175POPC   C1A17223  14.737  30.670   8.774
 1175POPC   D2A17224  14.640  30.478   8.382
 1175POPC   C3A17225  14.884  30.271   8.080
 1175POPC   C4A17226  14.728  30.293   7.687
 1175POPC   C1B17227  14.217  30.533   8.693
 1175POPC   C2B17228  14.191  30.804   8.353
 1175POPC   C3B17229  14.434  30.749   8.005
 1175POPC   C4B17230  14.232  30.473   7.721
 1176POPC   NC317231   3.617   1.580   9.781
 1176POPC   PO417232   3.797   2.119   9.393
 1176POPC   GL117233   3.767   2.124   8.963
 1176POPC   GL217234   3.474   1.914   9.044
 1176POPC   C1A17235   3.581   2.022   8.543
 1176POPC   D2A17236   3.147   1.926   8.347
 1176POPC   C3A17237   3.160   2.245   8.018
 1176POPC   C4A17238   3.587   2.328   7.848
 1176POPC   C1B17239   3.330   1.619   8.751
 1176POPC   C2B17240   3.559   1.533   8.380
 1176POPC   C3B17241   3.564   1.805   8.035
 1176POPC   C4B17242   3.173   1.744   7.848
 1177POPC   NC317243  20.340  23.350   9.403
 1177POPC   PO417244  20.852  23.790   9.628
 1177POPC   GL117245  20.697  23.697   9.202
 1177POPC   GL217246  20.356  23.832   9.133
 1177POPC   C1A17247  20.693  23.509   8.784
 1177POPC   D2A17248  20.802  23.673   8.377
 1177POPC   C3A17249  20.722  23.474   8.032
 1177POPC   C4A17250  20.402  23.498   7.713
 1177POPC   C1B17251  20.589  24.004   8.754
 1177POPC   C2B17252  20.675  24.160   8.323
 1177POPC   C3B17253  20.605  23.946   7.897
 1177POPC   C4B17254  20.617  23.857   7.431
 1178POPC   NC317255  27.067   6.585   9.581
 1178POPC   PO417256  26.631   7.053   9.359
 1178POPC   GL117257  26.760   6.637   9.143
 1178POPC   GL217258  27.143   6.528   9.094
 1178POPC   C1A17259  26.663   6.613   8.706
 1178POPC   D2A17260  26.812   6.775   8.328
 1178POPC   C3A17261  26.654   6.674   7.924
 1178POPC   C4A17262  27.046   6.902   7.805
 1178POPC   C1B17263  27.155   6.547   8.686
 1178POPC   C2B17264  26.998   6.280   8.416
 1178POPC   C3B17265  27.042   6.347   8.026
 1178POPC   C4B17266  26.966   6.418   7.608
 1179POPC   NC317267  17.826   4.045   9.407
 1179POPC   PO417268  18.495   4.213   9.613
 1179POPC   GL117269  18.411   4.269   9.200
 1179POPC   GL217270  18.534   4.623   9.173
 1179POPC   C1A17271  18.208   4.051   8.836
 1179POPC   D2A17272  18.006   4.219   8.434
 1179POPC   C3A17273  18.226   4.085   8.044
 1179POPC   C4A17274  18.136   4.122   7.612
 1179POPC   C1B17275  18.329   4.530   8.754
 1179POPC   C2B17276  18.441   4.525   8.326
 1179POPC   C3B17277  18.250   4.598   7.929
 1179POPC   C4B17278  18.310   4.611   7.472
 1180POPC   NC317279  10.295  28.184   9.446
 1180POPC   PO417280  10.950  28.376   9.509
 1180POPC   GL117281  10.701  28.253   9.145
 1180POPC   GL217282  10.422  28.541   9.111
 1180POPC   C1A17283  10.485  28.211   8.743
 1180POPC   D2A17284  10.536  28.495   8.402
 1180POPC   C3A17285  10.462  28.333   8.004
 1180POPC   C4A17286  10.119  28.412   7.723
 1180POPC   C1B17287  10.799  28.641   8.835
 1180POPC   C2B17288  11.016  28.654   8.442
 1180POPC   C3B17289  10.808  28.764   8.045
 1180POPC   C4B17290  10.647  28.652   7.624
 1181POPC   NC317291  35.384  37.023   9.542
 1181POPC   PO417292  35.198  36.322   9.466
 1181POPC   GL117293  35.170  36.698   9.121
 1181POPC   GL217294  35.471  36.922   9.063
 1181POPC   C1A17295  35.098  37.022   8.734
 1181POPC   D2A17296  35.228  37.180   8.285
 1181POPC   C3A17297  35.142  36.865   7.956
 1181POPC   C4A17298  35.048  36.409   7.988
 1181POPC   C1B17299  35.610  37.090   8.673
 1181POPC   C2B17300  35.758  37.162   8.233
 1181POPC   C3B17301  35.611  37.175   7.768
 1181POPC   C4B17302  35.718  37.184   7.272
 1182POPC   NC317303   6.243  42.550   9.509
 1182POPC   PO417304   5.659  42.160   9.563
 1182POPC   GL117305   5.822  42.163   9.154
 1182POPC   GL217306   6.120  41.975   9.234
 1182POPC   C1A17307   5.700  42.295   8.721
 1182POPC   D2A17308   5.413  42.271   8.333
 1182POPC   C3A17309   5.655  42.413   7.975
 1182POPC   C4A17310   6.033  42.590   7.767
 1182POPC   C1B17311   6.212  42.151   8.817
 1182POPC   C2B17312   6.180  42.391   8.451
 1182POPC   C3B17313   6.238  42.229   8.065
 1182POPC   C4B17314   5.979  42.042   7.793
 1183POPC   NC317315  19.156  19.415   9.471
 1183POPC   PO417316  19.202  18.805   9.342
 1183POPC   GL117317  18.988  19.054   9.047
 1183POPC   GL217318  18.753  19.291   9.183
 1183POPC   C1A17319  18.960  18.956   8.603
 1183POPC   D2A17320  19.144  18.711   8.276
 1183POPC   C3A17321  19.151  18.886   7.871
 1183POPC   C4A17322  18.911  18.808   7.493
 1183POPC   C1B17323  18.733  19.399   8.763
 1183POPC   C2B17324  18.947  19.410   8.374
 1183POPC   C3B17325  18.768  19.101   8.142
 1183POPC   C4B17326  18.776  19.222   7.759
 1184POPC   NC317327  28.610  15.552   9.523
 1184POPC   PO417328  29.149  16.057   9.523
 1184POPC   GL117329  28.998  15.905   9.150
 1184POPC   GL217330  28.807  16.207   9.128
 1184POPC   C1A17331  29.185  15.825   8.729
 1184POPC   D2A17332  29.470  15.950   8.399
 1184POPC   C3A17333  29.357  15.783   8.041
 1184POPC   C4A17334  29.188  15.858   7.686
 1184POPC   C1B17335  28.962  16.284   8.725
 1184POPC   C2B17336  28.935  16.042   8.330
 1184POPC   C3B17337  28.966  16.229   7.929
 1184POPC   C4B17338  29.087  16.329   7.514
 1185POPC   NC317339   9.078   6.442   9.498
 1185POPC   PO417340   8.527   6.911   9.431
 1185POPC   GL117341   8.930   6.888   9.220
 1185POPC   GL217342   8.844   6.547   9.066
 1185POPC   C1A17343   9.100   6.927   8.805
 1185POPC   D2A17344   8.770   6.722   8.558
 1185POPC   C3A17345   8.830   6.686   8.126
 1185POPC   C4A17346   8.834   6.564   7.703
 1185POPC   C1B17347   9.238   6.437   8.846
 1185POPC   C2B17348   9.246   6.559   8.416
 1185POPC   C3B17349   9.240   6.390   7.972
 1185POPC   C4B17350   9.272   6.456   7.485
 1186POPC   NC317351  25.775   2.722   9.453
 1186POPC   PO417352  26.428   2.948   9.425
 1186POPC   GL117353  26.154   2.850   9.093
 1186POPC   GL217354  25.908   3.053   9.067
 1186POPC   C1A17355  26.167   3.028   8.626
 1186POPC   D2A17356  26.248   3.018   8.154
 1186POPC   C3A17357  26.066   2.635   8.002
 1186POPC   C4A17358  26.189   2.344   7.678
 1186POPC   C1B17359  25.656   3.100   8.717
 1186POPC   C2B17360  25.747   2.953   8.308
 1186POPC   C3B17361  25.612   3.045   7.918
 1186POPC   C4B17362  25.987   3.065   7.676
 1187POPC   NC317363   6.688  39.889   9.453
 1187POPC   PO417364   6.020  40.193   9.556
 1187POPC   GL117365   6.210  40.126   9.160
 1187POPC   GL217366   6.268  39.776   9.189
 1187POPC   C1A17367   6.560  40.212   8.850
 1187POPC   D2A17368   6.790  40.424   8.503
 1187POPC   C3A17369   6.654  40.188   8.149
 1187POPC   C4A17370   6.632  40.032   7.697
 1187POPC   C1B17371   6.532  39.675   8.823
 1187POPC   C2B17372   6.779  39.854   8.509
 1187POPC   C3B17373   6.800  39.704   8.092
 1187POPC   C4B17374   6.921  39.608   7.699
 1188POPC   NC317375  41.213  14.026   9.579
 1188POPC   PO417376  40.606  13.754   9.743
 1188POPC   GL117377  40.763  13.903   9.325
 1188POPC   GL217378  40.441  13.950   9.199
 1188POPC   C1A17379  40.872  13.863   8.877
 1188POPC   D2A17380  40.871  13.585   8.534
 1188POPC   C3A17381  41.087  13.776   8.181
 1188POPC   C4A17382  40.978  13.788   7.758
 1188POPC   C1B17383  40.396  13.654   8.883
 1188POPC   C2B17384  40.357  13.720   8.454
 1188POPC   C3B17385  40.566  13.663   8.077
 1188POPC   C4B17386  40.429  13.835   7.685
 1189POPC   NC317387  23.519  21.919   9.615
 1189POPC   PO417388  23.620  22.496   9.411
 1189POPC   GL117389  23.823  22.190   9.110
 1189POPC   GL217390  23.755  21.814   9.091
 1189POPC   C1A17391  23.784  22.154   8.666
 1189POPC   D2A17392  23.989  22.394   8.339
 1189POPC   C3A17393  23.876  22.541   7.971
 1189POPC   C4A17394  23.531  22.300   7.928
 1189POPC   C1B17395  23.703  21.665   8.646
 1189POPC   C2B17396  23.648  21.876   8.230
 1189POPC   C3B17397  23.790  21.904   7.791
 1189POPC   C4B17398  24.046  21.829   7.433
 1190POPC   NC317399  25.634  20.126   9.591
 1190POPC   PO417400  26.123  20.628   9.444
 1190POPC   GL117401  25.847  20.709   9.124
 1190POPC   GL217402  25.626  20.418   9.123
 1190POPC   C1A17403  26.024  20.776   8.723
 1190POPC   D2A17404  26.046  20.560   8.335
 1190POPC   C3A17405  26.097  20.868   7.998
 1190POPC   C4A17406  25.912  21.153   7.700
 1190POPC   C1B17407  25.959  20.257   8.814
 1190POPC   C2B17408  26.187  20.054   8.446
 1190POPC   C3B17409  26.227  20.186   8.017
 1190POPC   C4B17410  25.862  20.411   7.865
 1191POPC   NC317411  27.201  31.732   9.530
 1191POPC   PO417412  26.570  31.615   9.481
 1191POPC   GL117413  26.683  31.583   9.103
 1191POPC   GL217414  26.995  31.453   9.154
 1191POPC   C1A17415  26.796  31.759   8.743
 1191POPC   D2A17416  26.669  31.564   8.403
 1191POPC   C3A17417  26.788  31.760   8.062
 1191POPC   C4A17418  26.709  31.535   7.710
 1191POPC   C1B17419  27.120  31.285   8.782
 1191POPC   C2B17420  26.966  31.148   8.411
 1191POPC   C3B17421  27.084  31.283   7.993
 1191POPC   C4B17422  27.165  31.123   7.596
 1192POPC   NC317423  20.746   3.625   9.569
 1192POPC   PO417424  20.164   3.217   9.483
 1192POPC   GL117425  20.528   3.231   9.176
 1192POPC   GL217426  20.722   3.549   9.074
 1192POPC   C1A17427  20.465   3.300   8.727
 1192POPC   D2A17428  20.243   3.251   8.349
 1192POPC   C3A17429  20.470   3.313   7.970
 1192POPC   C4A17430  20.604   3.439   7.564
 1192POPC   C1B17431  20.546   3.813   8.751
 1192POPC   C2B17432  20.606   3.675   8.324
 1192POPC   C3B17433  20.631   3.830   7.897
 1192POPC   C4B17434  20.693   3.913   7.438
 1193POPC   NC317435  29.054  42.866   9.571
 1193POPC   PO417436  29.579  43.219   9.515
 1193POPC   GL117437  29.291  43.067   9.156
 1193POPC   GL217438  28.927  43.176   9.168
 1193POPC   C1A17439  29.122  42.956   8.726
 1193POPC   D2A17440  29.109  43.176   8.359
 1193POPC   C3A17441  29.315  43.088   7.981
 1193POPC   C4A17442  29.190  43.067   7.550
 1193POPC   C1B17443  28.775  43.326   8.777
 1193POPC   C2B17444  28.615  43.351   8.369
 1193POPC   C3B17445  28.757  43.215   7.986
 1193POPC   C4B17446  29.055  43.486   7.811
 1194POPC   NC317447   8.979  10.421   9.563
 1194POPC   PO417448   9.132  10.960   9.721
 1194POPC   GL117449   9.096  10.713   9.192
 1194POPC   GL217450   8.746  10.506   9.120
 1194POPC   C1A17451   9.128  10.465   8.794
 1194POPC   D2A17452   8.882  10.287   8.410
 1194POPC   C3A17453   9.092  10.235   7.964
 1194POPC   C4A17454   9.172  10.429   7.532
 1194POPC   C1B17455   8.751  10.803   8.771
 1194POPC   C2B17456   8.580  10.752   8.392
 1194POPC   C3B17457   8.727  10.605   8.003
 1194POPC   C4B17458   8.769  10.745   7.603
 1195POPC   NC317459   7.080  12.530   9.486
 1195POPC   PO417460   7.747  12.529   9.522
 1195POPC   GL117461   7.716  12.644   9.112
 1195POPC   GL217462   7.692  12.977   9.093
 1195POPC   C1A17463   7.466  12.607   8.734
 1195POPC   D2A17464   7.353  12.807   8.321
 1195POPC   C3A17465   7.481  12.634   7.920
 1195POPC   C4A17466   7.200  12.517   7.601
 1195POPC   C1B17467   7.618  13.099   8.660
 1195POPC   C2B17468   7.778  13.096   8.228
 1195POPC   C3B17469   7.557  13.174   7.844
 1195POPC   C4B17470   7.398  13.411   7.486
 1196POPC   NC317471   9.445  30.267   9.334
 1196POPC   PO417472   9.912  29.892   9.688
 1196POPC   GL117473   9.871  29.920   9.195
 1196POPC   GL217474   9.597  30.056   8.923
 1196POPC   C1A17475   9.863  29.659   8.819
 1196POPC   D2A17476   9.934  29.777   8.393
 1196POPC   C3A17477   9.736  29.652   8.016
 1196POPC   C4A17478   9.540  29.896   7.719
 1196POPC   C1B17479   9.368  29.766   8.642
 1196POPC   C2B17480   9.293  29.878   8.204
 1196POPC   C3B17481   9.208  30.255   7.910
 1196POPC   C4B17482   9.242  30.526   7.523
 1197POPC   NC317483  27.276  10.009   9.472
 1197POPC   PO417484  27.326   9.414   9.219
 1197POPC   GL117485  27.503   9.752   9.039
 1197POPC   GL217486  27.786   9.814   9.261
 1197POPC   C1A17487  27.613   9.717   8.592
 1197POPC   D2A17488  27.425   9.933   8.262
 1197POPC   C3A17489  27.281   9.701   7.916
 1197POPC   C4A17490  27.481   9.360   7.808
 1197POPC   C1B17491  27.934   9.986   8.877
 1197POPC   C2B17492  27.958  10.116   8.459
 1197POPC   C3B17493  27.920   9.977   8.074
 1197POPC   C4B17494  27.898   9.736   7.751
 1198POPC   NC317495   4.563  37.024   9.369
 1198POPC   PO417496   3.962  36.688   9.434
 1198POPC   GL117497   4.209  36.770   9.097
 1198POPC   GL217498   4.238  37.152   8.979
 1198POPC   C1A17499   4.068  36.757   8.703
 1198POPC   D2A17500   4.082  37.076   8.452
 1198POPC   C3A17501   4.377  36.991   8.119
 1198POPC   C4A17502   4.219  36.696   7.796
 1198POPC   C1B17503   4.565  37.107   8.655
 1198POPC   C2B17504   4.742  37.342   8.315
 1198POPC   C3B17505   4.610  37.422   7.881
 1198POPC   C4B17506   4.474  37.102   7.600
 1199POPC   NC317507  20.019  21.655   9.572
 1199POPC   PO417508  19.724  21.074   9.366
 1199POPC   GL117509  19.982  21.357   9.110
 1199POPC   GL217510  20.175  21.676   9.100
 1199POPC   C1A17511  19.799  21.543   8.742
 1199POPC   D2A17512  19.612  21.299   8.419
 1199POPC   C3A17513  19.616  21.510   8.056
 1199POPC   C4A17514  19.643  21.341   7.685
 1199POPC   C1B17515  20.314  21.524   8.708
 1199POPC   C2B17516  20.129  21.451   8.309
 1199POPC   C3B17517  20.115  21.561   7.867
 1199POPC   C4B17518  19.858  21.820   7.700
 1200POPC   NC317519  28.661  36.375   9.350
 1200POPC   PO417520  28.368  35.722   9.441
 1200POPC   GL117521  28.406  35.996   9.080
 1200POPC   GL217522  28.696  36.115   8.855
 1200POPC   C1A17523  28.162  36.125   8.725
 1200POPC   D2A17524  28.310  36.204   8.316
 1200POPC   C3A17525  28.451  35.910   8.014
 1200POPC   C4A17526  28.550  36.141   7.625
 1200POPC   C1B17527  28.521  36.518   8.698
 1200POPC   C2B17528  28.113  36.641   8.519
 1200POPC   C3B17529  27.991  36.530   8.084
 1200POPC   C4B17530  28.143  36.431   7.681
 1201POPC   NC317531  29.631  20.831   9.260
 1201POPC   PO417532  29.608  20.122   9.356
 1201POPC   GL117533  29.909  20.395   9.114
 1201POPC   GL217534  30.145  20.709   9.192
 1201POPC   C1A17535  29.864  20.518   8.692
 1201POPC   D2A17536  29.746  20.308   8.322
 1201POPC   C3A17537  29.817  20.592   7.981
 1201POPC   C4A17538  29.615  20.874   7.714
 1201POPC   C1B17539  30.348  20.483   8.827
 1201POPC   C2B17540  30.266  20.415   8.352
 1201POPC   C3B17541  30.312  20.587   7.915
 1201POPC   C4B17542  30.112  20.798   7.590
 1202POPC   NC317543  31.713  31.181   9.467
 1202POPC   PO417544  31.418  30.581   9.533
 1202POPC   GL117545  31.332  30.906   9.221
 1202POPC   GL217546  31.653  30.908   9.011
 1202POPC   C1A17547  31.248  31.065   8.772
 1202POPC   D2A17548  31.569  31.086   8.497
 1202POPC   C3A17549  31.399  30.873   8.154
 1202POPC   C4A17550  31.469  30.920   7.735
 1202POPC   C1B17551  31.338  30.581   8.812
 1202POPC   C2B17552  31.245  30.390   8.380
 1202POPC   C3B17553  31.447  30.400   7.939
 1202POPC   C4B17554  31.585  30.369   7.474
 1203POPC   NC317555  11.514  32.111   9.671
 1203POPC   PO417556  10.938  32.433   9.521
 1203POPC   GL117557  11.311  32.312   9.244
 1203POPC   GL217558  11.507  32.605   9.159
 1203POPC   C1A17559  11.446  32.168   8.815
 1203POPC   D2A17560  11.264  31.957   8.423
 1203POPC   C3A17561  11.473  32.130   8.048
 1203POPC   C4A17562  11.344  32.058   7.618
 1203POPC   C1B17563  11.164  32.607   8.846
 1203POPC   C2B17564  11.222  32.464   8.404
 1203POPC   C3B17565  11.097  32.440   7.929
 1203POPC   C4B17566  11.124  32.482   7.437
 1204POPC   NC317567  16.507  37.137   9.370
 1204POPC   PO417568  17.107  37.208   9.426
 1204POPC   GL117569  17.033  37.066   8.992
 1204POPC   GL217570  16.773  36.865   9.020
 1204POPC   C1A17571  16.797  37.073   8.562
 1204POPC   D2A17572  16.502  36.864   8.254
 1204POPC   C3A17573  16.717  36.884   7.867
 1204POPC   C4A17574  17.058  37.142   7.748
 1204POPC   C1B17575  16.952  36.617   8.701
 1204POPC   C2B17576  16.944  36.614   8.260
 1204POPC   C3B17577  17.043  36.470   7.852
 1204POPC   C4B17578  17.003  36.666   7.475
 1205POPC   NC317579  36.961   4.928   9.601
 1205POPC   PO417580  36.840   5.541   9.404
 1205POPC   GL117581  37.022   5.213   9.157
 1205POPC   GL217582  37.170   5.493   8.975
 1205POPC   C1A17583  36.978   4.953   8.783
 1205POPC   D2A17584  36.882   5.085   8.384
 1205POPC   C3A17585  36.879   4.838   7.989
 1205POPC   C4A17586  36.916   5.187   7.700
 1205POPC   C1B17587  36.755   5.437   8.757
 1205POPC   C2B17588  36.416   5.248   8.522
 1205POPC   C3B17589  36.455   5.127   8.101
 1205POPC   C4B17590  36.466   5.402   7.729
 1206POPC   NC317591   8.130   3.294   9.526
 1206POPC   PO417592   8.529   3.850   9.445
 1206POPC   GL117593   8.302   3.675   9.103
 1206POPC   GL217594   8.386   3.347   9.090
 1206POPC   C1A17595   8.365   3.632   8.658
 1206POPC   D2A17596   8.541   3.518   8.257
 1206POPC   C3A17597   8.324   3.751   7.974
 1206POPC   C4A17598   8.378   3.925   7.572
 1206POPC   C1B17599   8.070   3.227   8.768
 1206POPC   C2B17600   8.036   3.383   8.337
 1206POPC   C3B17601   7.922   3.439   7.911
 1206POPC   C4B17602   8.098   3.488   7.485
 1207POPC   NC317603   8.847  39.398   9.999
 1207POPC   PO417604   9.163  39.574   9.473
 1207POPC   GL117605   9.191  39.264   9.181
 1207POPC   GL217606   8.857  39.300   9.072
 1207POPC   C1A17607   9.261  39.235   8.747
 1207POPC   D2A17608   9.083  39.343   8.333
 1207POPC   C3A17609   9.188  39.383   7.919
 1207POPC   C4A17610   9.004  39.302   7.538
 1207POPC   C1B17611   8.767  39.089   8.650
 1207POPC   C2B17612   8.612  39.213   8.254
 1207POPC   C3B17613   8.661  39.093   7.854
 1207POPC   C4B17614   8.600  38.728   7.631
 1208POPC   NC317615  31.617   4.652   9.450
 1208POPC   PO417616  31.397   5.348   9.557
 1208POPC   GL117617  31.602   5.151   9.231
 1208POPC   GL217618  31.360   4.911   9.118
 1208POPC   C1A17619  31.771   5.013   8.819
 1208POPC   D2A17620  31.547   4.925   8.429
 1208POPC   C3A17621  31.758   4.982   8.028
 1208POPC   C4A17622  31.845   5.430   7.890
 1208POPC   C1B17623  31.333   5.246   8.802
 1208POPC   C2B17624  31.409   5.436   8.444
 1208POPC   C3B17625  31.361   5.310   8.053
 1208POPC   C4B17626  31.352   5.044   7.709
 1209POPC   NC317627  17.382   2.369   9.552
 1209POPC   PO417628  17.164   3.023   9.539
 1209POPC   GL117629  17.418   2.788   9.220
 1209POPC   GL217630  17.291   2.488   9.082
 1209POPC   C1A17631  17.661   2.833   8.857
 1209POPC   D2A17632  17.806   2.798   8.438
 1209POPC   C3A17633  17.556   2.886   8.095
 1209POPC   C4A17634  17.766   2.800   7.732
 1209POPC   C1B17635  17.507   2.366   8.744
 1209POPC   C2B17636  17.437   2.430   8.316
 1209POPC   C3B17637  17.507   2.407   7.887
 1209POPC   C4B17638  17.342   2.591   7.529
 1210POPC   NC317639  35.493  28.950   9.502
 1210POPC   PO417640  35.141  29.535   9.476
 1210POPC   GL117641  35.155  29.177   9.187
 1210POPC   GL217642  35.436  29.321   9.078
 1210POPC   C1A17643  35.298  28.965   8.758
 1210POPC   D2A17644  35.117  28.839   8.374
 1210POPC   C3A17645  35.052  29.136   8.022
 1210POPC   C4A17646  35.215  28.988   7.657
 1210POPC   C1B17647  35.086  29.411   8.747
 1210POPC   C2B17648  35.324  29.335   8.388
 1210POPC   C3B17649  35.702  29.362   8.130
 1210POPC   C4B17650  35.723  29.533   7.738
 1211POPC   NC317651   5.842  33.620   9.495
 1211POPC   PO417652   5.520  34.151   9.656
 1211POPC   GL117653   5.763  34.066   9.249
 1211POPC   GL217654   6.132  33.939   9.194
 1211POPC   C1A17655   5.702  33.881   8.843
 1211POPC   D2A17656   5.875  34.014   8.472
 1211POPC   C3A17657   5.630  33.961   8.131
 1211POPC   C4A17658   5.791  34.107   7.797
 1211POPC   C1B17659   6.192  33.725   8.800
 1211POPC   C2B17660   6.298  33.746   8.394
 1211POPC   C3B17661   6.081  33.722   8.027
 1211POPC   C4B17662   6.207  33.859   7.642
 1212POPC   NC317663  18.312   5.482   9.621
 1212POPC   PO417664  18.149   6.128   9.472
 1212POPC   GL117665  18.207   5.889   9.135
 1212POPC   GL217666  18.552   5.946   9.145
 1212POPC   C1A17667  18.088   5.918   8.679
 1212POPC   D2A17668  18.153   6.127   8.289
 1212POPC   C3A17669  18.328   5.946   7.924
 1212POPC   C4A17670  18.135   5.922   7.535
 1212POPC   C1B17671  18.542   5.714   8.787
 1212POPC   C2B17672  18.529   5.768   8.380
 1212POPC   C3B17673  18.618   5.554   8.030
 1212POPC   C4B17674  18.582   5.608   7.618
 1213POPC   NC317675   4.077  35.639   9.671
 1213POPC   PO417676   4.303  35.035   9.560
 1213POPC   GL117677   4.457  35.226   9.184
 1213POPC   GL217678   4.223  35.498   9.187
 1213POPC   C1A17679   4.601  35.241   8.732
 1213POPC   D2A17680   4.359  35.193   8.338
 1213POPC   C3A17681   4.531  35.182   7.905
 1213POPC   C4A17682   4.502  35.271   7.442
 1213POPC   C1B17683   4.152  35.483   8.773
 1213POPC   C2B17684   4.260  35.686   8.415
 1213POPC   C3B17685   4.200  35.554   7.995
 1213POPC   C4B17686   4.050  35.384   7.604
 1214POPC   NC317687   6.904  21.020   9.534
 1214POPC   PO417688   7.031  20.318   9.548
 1214POPC   GL117689   6.781  20.420   9.167
 1214POPC   GL217690   6.712  20.745   9.127
 1214POPC   C1A17691   6.684  20.333   8.745
 1214POPC   D2A17692   6.537  20.192   8.366
 1214POPC   C3A17693   6.642  20.371   7.980
 1214POPC   C4A17694   6.284  20.618   7.842
 1214POPC   C1B17695   6.642  20.861   8.698
 1214POPC   C2B17696   6.848  21.019   8.322
 1214POPC   C3B17697   6.750  20.867   7.912
 1214POPC   C4B17698   6.679  21.104   7.537
 1215POPC   NC317699  37.772  18.404   9.433
 1215POPC   PO417700  37.229  18.081   9.537
 1215POPC   GL117701  37.588  18.029   9.149
 1215POPC   GL217702  37.972  18.063   9.112
 1215POPC   C1A17703  37.603  18.139   8.731
 1215POPC   D2A17704  37.380  18.201   8.372
 1215POPC   C3A17705  37.625  18.272   8.032
 1215POPC   C4A17706  37.895  18.513   7.778
 1215POPC   C1B17707  38.085  18.344   8.727
 1215POPC   C2B17708  38.098  18.374   8.265
 1215POPC   C3B17709  38.072  18.069   7.951
 1215POPC   C4B17710  37.741  17.935   7.664
 1216POPC   NC317711  25.135  26.563   9.736
 1216POPC   PO417712  25.621  27.006   9.584
 1216POPC   GL117713  25.362  26.779   9.314
 1216POPC   GL217714  25.151  27.040   9.168
 1216POPC   C1A17715  25.417  26.604   8.914
 1216POPC   D2A17716  25.438  26.821   8.522
 1216POPC   C3A17717  25.330  26.655   8.124
 1216POPC   C4A17718  25.501  26.694   7.726
 1216POPC   C1B17719  25.039  27.167   8.723
 1216POPC   C2B17720  24.982  27.241   8.253
 1216POPC   C3B17721  25.172  27.078   7.854
 1216POPC   C4B17722  25.025  26.732   7.540
 1217POPC   NC317723  33.853  24.859   9.597
 1217POPC   PO417724  33.626  25.503   9.562
 1217POPC   GL117725  33.785  25.309   9.151
 1217POPC   GL217726  33.986  25.537   8.997
 1217POPC   C1A17727  33.680  25.229   8.653
 1217POPC   D2A17728  33.565  25.141   8.176
 1217POPC   C3A17729  33.877  25.121   7.805
 1217POPC   C4A17730  33.802  24.824   7.484
 1217POPC   C1B17731  34.174  25.396   8.591
 1217POPC   C2B17732  33.952  25.464   8.221
 1217POPC   C3B17733  33.733  25.615   7.848
 1217POPC   C4B17734  33.880  25.511   7.435
 1218POPC   NC317735  42.495  21.856   9.499
 1218POPC   PO417736  42.226  22.510   9.538
 1218POPC   GL117737  42.099  22.405   9.146
 1218POPC   GL217738  42.411  22.224   9.136
 1218POPC   C1A17739  42.104  22.288   8.718
 1218POPC   D2A17740  42.100  22.057   8.341
 1218POPC   C3A17741  42.045  22.207   7.927
 1218POPC   C4A17742  42.185  22.076   7.549
 1218POPC   C1B17743  42.734  22.135   8.864
 1218POPC   C2B17744  42.585  22.204   8.464
 1218POPC   C3B17745  42.606  22.012   8.081
 1218POPC   C4B17746  42.662  22.158   7.702
 1219POPC   NC317747  18.533  35.914   9.405
 1219POPC   PO417748  18.298  36.531   9.339
 1219POPC   GL117749  18.343  36.228   9.047
 1219POPC   GL217750  18.155  35.896   9.042
 1219POPC   C1A17751  18.588  36.199   8.716
 1219POPC   D2A17752  18.615  36.035   8.321
 1219POPC   C3A17753  18.390  36.269   8.011
 1219POPC   C4A17754  18.279  36.664   7.803
 1219POPC   C1B17755  18.135  35.990   8.605
 1219POPC   C2B17756  18.021  35.959   8.187
 1219POPC   C3B17757  18.028  36.006   7.737
 1219POPC   C4B17758  18.220  35.844   7.352
 1220POPC   NC317759  43.364  22.450   9.544
 1220POPC   PO417760  42.962  21.835   9.496
 1220POPC   GL117761  43.216  21.879   9.133
 1220POPC   GL217762  43.395  22.195   9.105
 1220POPC   C1A17763  43.192  21.953   8.689
 1220POPC   D2A17764  43.070  22.231   8.358
 1220POPC   C3A17765  43.118  22.104   7.967
 1220POPC   C4A17766  42.996  21.794   7.722
 1220POPC   C1B17767  43.418  22.410   8.724
 1220POPC   C2B17768  43.327  22.666   8.339
 1220POPC   C3B17769  43.444  22.498   7.946
 1220POPC   C4B17770  43.421  22.516   7.499
 1221POPC   NC317771  34.947  22.915   9.320
 1221POPC   PO417772  35.518  23.097   9.342
 1221POPC   GL117773  35.363  23.026   9.013
 1221POPC   GL217774  35.307  22.736   9.013
 1221POPC   C1A17775  35.295  23.156   8.649
 1221POPC   D2A17776  35.356  23.451   8.402
 1221POPC   C3A17777  35.390  23.212   8.033
 1221POPC   C4A17778  35.277  23.320   7.639
 1221POPC   C1B17779  35.005  22.719   8.706
 1221POPC   C2B17780  35.082  22.831   8.318
 1221POPC   C3B17781  35.166  22.666   7.954
 1221POPC   C4B17782  35.220  22.834   7.580
 1222POPC   NC317783  44.411  23.277   9.408
 1222POPC   PO417784  44.804  22.650   9.474
 1222POPC   GL117785  44.773  22.987   9.177
 1222POPC   GL217786  44.988  22.841   8.915
 1222POPC   C1A17787  44.655  23.206   8.789
 1222POPC   D2A17788  44.929  23.161   8.443
 1222POPC   C3A17789  44.760  22.847   8.193
 1222POPC   C4A17790  44.636  22.889   7.779
 1222POPC   C1B17791  44.543  22.696   8.791
 1222POPC   C2B17792  44.301  22.624   8.408
 1222POPC   C3B17793  44.359  22.490   7.968
 1222POPC   C4B17794  44.373  22.456   7.484
 1223POPC   NC317795   0.586  10.128   9.505
 1223POPC   PO417796   0.514  10.777   9.509
 1223POPC   GL117797   0.527  10.498   9.161
 1223POPC   GL217798   0.204  10.295   9.167
 1223POPC   C1A17799   0.701  10.569   8.724
 1223POPC   D2A17800   0.758  10.725   8.308
 1223POPC   C3A17801   0.416  10.807   8.041
 1223POPC   C4A17802   0.595  10.601   7.715
 1223POPC   C1B17803   0.208  10.602   8.809
 1223POPC   C2B17804   0.181  10.538   8.413
 1223POPC   C3B17805  44.916  10.512   8.084
 1223POPC   C4B17806   0.079  10.588   7.693
 1224POPC   NC317807  41.455  15.500   9.996
 1224POPC   PO417808  41.394  15.958   9.493
 1224POPC   GL117809  41.485  16.005   9.087
 1224POPC   GL217810  41.130  15.977   9.003
 1224POPC   C1A17811  41.758  15.984   8.711
 1224POPC   D2A17812  41.797  16.031   8.271
 1224POPC   C3A17813  41.814  15.970   7.850
 1224POPC   C4A17814  41.737  15.939   7.411
 1224POPC   C1B17815  41.245  16.249   8.703
 1224POPC   C2B17816  41.306  16.026   8.347
 1224POPC   C3B17817  41.321  15.848   7.942
 1224POPC   C4B17818  41.252  16.100   7.556
 1225POPC   NC317819   8.994  42.600   9.788
 1225POPC   PO417820   8.797  42.719   9.158
 1225POPC   GL117821   8.868  43.136   9.065
 1225POPC   GL217822   9.172  43.233   9.173
 1225POPC   C1A17823   8.907  43.255   8.666
 1225POPC   D2A17824   9.095  43.044   8.332
 1225POPC   C3A17825   8.823  43.117   7.999
 1225POPC   C4A17826   8.834  43.347   7.646
 1225POPC   C1B17827   9.362  43.428   8.759
 1225POPC   C2B17828   9.228  43.533   8.301
 1225POPC   C3B17829   9.305  43.296   7.899
 1225POPC   C4B17830   9.318  43.273   7.436
 1226POPC   NC317831  19.728  29.009   9.475
 1226POPC   PO417832  20.358  29.292   9.760
 1226POPC   GL117833  20.071  29.341   9.280
 1226POPC   GL217834  20.002  29.020   9.018
 1226POPC   C1A17835  19.798  29.424   8.852
 1226POPC   D2A17836  19.934  29.182   8.490
 1226POPC   C3A17837  19.901  29.172   8.045
 1226POPC   C4A17838  20.027  29.011   7.655
 1226POPC   C1B17839  19.725  28.779   8.713
 1226POPC   C2B17840  19.552  28.849   8.265
 1226POPC   C3B17841  19.579  28.809   7.823
 1226POPC   C4B17842  19.773  28.575   7.477
 1227POPC   NC317843  15.192  23.037   9.570
 1227POPC   PO417844  15.007  22.671   9.118
 1227POPC   GL117845  15.101  23.113   9.012
 1227POPC   GL217846  15.432  23.229   9.119
 1227POPC   C1A17847  15.009  23.149   8.571
 1227POPC   D2A17848  14.944  22.747   8.348
 1227POPC   C3A17849  14.755  22.797   7.963
 1227POPC   C4A17850  14.916  22.869   7.565
 1227POPC   C1B17851  15.521  23.213   8.683
 1227POPC   C2B17852  15.436  22.870   8.404
 1227POPC   C3B17853  15.275  22.890   7.988
 1227POPC   C4B17854  15.204  23.274   7.757
 1228POPC   NC317855   2.687  31.094   9.515
 1228POPC   PO417856   2.565  31.708   9.195
 1228POPC   GL117857   2.578  31.287   9.053
 1228POPC   GL217858   2.880  31.136   8.891
 1228POPC   C1A17859   2.453  31.291   8.659
 1228POPC   D2A17860   2.739  31.244   8.341
 1228POPC   C3A17861   2.685  31.533   8.032
 1228POPC   C4A17862   2.751  31.162   7.815
 1228POPC   C1B17863   2.995  31.544   8.639
 1228POPC   C2B17864   3.179  31.565   8.192
 1228POPC   C3B17865   3.119  31.514   7.720
 1228POPC   C4B17866   3.089  31.643   7.248
 1229POPC   NC317867   3.949  24.231   9.500
 1229POPC   PO417868   4.427  24.719   9.676
 1229POPC   GL117869   4.458  24.676   9.177
 1229POPC   GL217870   4.117  24.702   9.070
 1229POPC   C1A17871   4.490  24.396   8.769
 1229POPC   D2A17872   4.274  24.369   8.387
 1229POPC   C3A17873   4.587  24.357   8.072
 1229POPC   C4A17874   4.444  24.139   7.728
 1229POPC   C1B17875   4.259  24.820   8.655
 1229POPC   C2B17876   4.102  24.881   8.275
 1229POPC   C3B17877   4.043  24.592   7.980
 1229POPC   C4B17878   4.355  24.637   7.724
 1230POPC   NC317879   0.590  36.287   9.423
 1230POPC   PO417880   0.311  35.675   9.494
 1230POPC   GL117881   0.242  35.947   9.165
 1230POPC   GL217882  44.951  36.132   9.230
 1230POPC   C1A17883   0.463  36.041   8.817
 1230POPC   D2A17884   0.604  35.882   8.455
 1230POPC   C3A17885   0.657  36.161   8.148
 1230POPC   C4A17886   0.590  36.034   7.771
 1230POPC   C1B17887   0.064  36.363   8.863
 1230POPC   C2B17888   0.222  36.257   8.431
 1230POPC   C3B17889   0.163  36.264   7.999
 1230POPC   C4B17890   0.011  36.567   7.731
 1231POPC   NC317891  31.068  21.630   9.505
 1231POPC   PO417892  31.739  21.360   9.482
 1231POPC   GL117893  31.400  21.329   9.234
 1231POPC   GL217894  31.421  21.651   9.141
 1231POPC   C1A17895  31.378  21.238   8.805
 1231POPC   D2A17896  31.558  21.134   8.420
 1231POPC   C3A17897  31.359  21.261   8.059
 1231POPC   C4A17898  31.496  21.302   7.676
 1231POPC   C1B17899  31.566  21.722   8.755
 1231POPC   C2B17900  31.416  21.633   8.383
 1231POPC   C3B17901  31.549  21.728   7.967
 1231POPC   C4B17902  31.560  21.811   7.530
 1232POPC   NC317903   1.395  29.656   9.529
 1232POPC   PO417904   0.915  30.084   9.413
 1232POPC   GL117905   1.214  29.936   9.112
 1232POPC   GL217906   1.572  30.005   9.123
 1232POPC   C1A17907   1.254  29.795   8.705
 1232POPC   D2A17908   1.480  29.884   8.333
 1232POPC   C3A17909   1.305  29.739   7.963
 1232POPC   C4A17910   0.960  29.875   7.721
 1232POPC   C1B17911   1.563  30.223   8.710
 1232POPC   C2B17912   1.631  30.407   8.281
 1232POPC   C3B17913   1.452  30.296   7.872
 1232POPC   C4B17914   1.521  29.981   7.557
 1233POPC   NC317915  35.132   1.953   9.518
 1233POPC   PO417916  35.788   2.078   9.570
 1233POPC   GL117917  35.496   2.094   9.208
 1233POPC   GL217918  35.481   1.815   9.026
 1233POPC   C1A17919  35.399   2.227   8.778
 1233POPC   D2A17920  35.347   2.082   8.365
 1233POPC   C3A17921  35.203   2.264   7.998
 1233POPC   C4A17922  35.416   2.273   7.644
 1233POPC   C1B17923  35.332   1.638   8.653
 1233POPC   C2B17924  35.179   1.439   8.306
 1233POPC   C3B17925  35.342   1.689   8.029
 1233POPC   C4B17926  35.396   1.752   7.599
 1234POPC   NC317927  21.026  40.394   9.487
 1234POPC   PO417928  21.526  40.894   9.549
 1234POPC   GL117929  21.336  40.715   9.182
 1234POPC   GL217930  21.553  40.433   9.118
 1234POPC   C1A17931  21.137  40.775   8.773
 1234POPC   D2A17932  21.051  40.628   8.339
 1234POPC   C3A17933  21.042  40.853   7.900
 1234POPC   C4A17934  21.053  40.636   7.457
 1234POPC   C1B17935  21.587  40.526   8.721
 1234POPC   C2B17936  21.516  40.834   8.430
 1234POPC   C3B17937  21.500  40.712   8.078
 1234POPC   C4B17938  21.486  40.752   7.681
 1235POPC   NC317939  20.098   0.228   9.574
 1235POPC   PO417940  19.453   0.401   9.521
 1235POPC   GL117941  19.638   0.259   9.139
 1235POPC   GL217942  19.968   0.258   9.086
 1235POPC   C1A17943  19.634   0.341   8.705
 1235POPC   D2A17944  19.930   0.433   8.412
 1235POPC   C3A17945  19.764   0.324   8.005
 1235POPC   C4A17946  19.966   0.175   7.642
 1235POPC   C1B17947  20.156   0.058   8.731
 1235POPC   C2B17948  20.316   0.075   8.330
 1235POPC   C3B17949  20.337  44.966   7.907
 1235POPC   C4B17950  20.343  44.912   7.446
 1236POPC   NC317951  13.420  32.312   9.513
 1236POPC   PO417952  14.018  32.358   9.299
 1236POPC   GL117953  13.665  32.154   9.066
 1236POPC   GL217954  13.319  32.399   9.031
 1236POPC   C1A17955  13.807  31.998   8.631
 1236POPC   D2A17956  13.899  31.921   8.162
 1236POPC   C3A17957  13.540  31.949   7.876
 1236POPC   C4A17958  13.290  32.341   7.787
 1236POPC   C1B17959  13.661  32.564   8.783
 1236POPC   C2B17960  13.914  32.479   8.462
 1236POPC   C3B17961  13.739  32.438   8.084
 1236POPC   C4B17962  13.845  32.348   7.704
 1237POPC   NC317963  29.048   4.437   9.517
 1237POPC   PO417964  28.813   3.925   9.209
 1237POPC   GL117965  29.155   4.180   9.067
 1237POPC   GL217966  29.339   4.486   9.106
 1237POPC   C1A17967  29.180   4.280   8.660
 1237POPC   D2A17968  29.013   4.029   8.347
 1237POPC   C3A17969  29.143   4.125   7.940
 1237POPC   C4A17970  29.068   4.382   7.636
 1237POPC   C1B17971  29.603   4.581   8.755
 1237POPC   C2B17972  29.397   4.615   8.337
 1237POPC   C3B17973  29.474   4.555   7.894
 1237POPC   C4B17974  29.450   4.590   7.401
 1238POPC   NC317975  20.740  34.189   9.391
 1238POPC   PO417976  20.537  33.573   9.543
 1238POPC   GL117977  20.861  33.665   9.178
 1238POPC   GL217978  21.021  33.987   9.041
 1238POPC   C1A17979  20.817  33.617   8.716
 1238POPC   D2A17980  20.452  33.692   8.433
 1238POPC   C3A17981  20.527  33.702   7.981
 1238POPC   C4A17982  20.446  34.048   7.679
 1238POPC   C1B17983  20.744  34.138   8.719
 1238POPC   C2B17984  20.884  33.988   8.341
 1238POPC   C3B17985  20.879  34.091   7.939
 1238POPC   C4B17986  20.934  34.209   7.535
 1239POPC   NC317987  16.835   9.044   9.632
 1239POPC   PO417988  16.402   8.800   9.178
 1239POPC   GL117989  16.735   9.023   9.112
 1239POPC   GL217990  16.920   8.778   9.207
 1239POPC   C1A17991  16.716   9.224   8.738
 1239POPC   D2A17992  16.849   9.289   8.341
 1239POPC   C3A17993  16.574   9.119   8.044
 1239POPC   C4A17994  16.708   8.971   7.661
 1239POPC   C1B17995  16.919   8.643   8.795
 1239POPC   C2B17996  16.827   8.796   8.419
 1239POPC   C3B17997  16.758   8.600   8.048
 1239POPC   C4B17998  16.863   8.491   7.653
 1240POPC   NC317999  20.589  11.401   9.530
 1240POPC   PO418000  21.204  11.503   9.333
 1240POPC   GL118001  20.829  11.267   9.090
 1240POPC   GL218002  20.434  11.148   9.124
 1240POPC   C1A18003  20.574  11.329   8.690
 1240POPC   D2A18004  20.662  11.236   8.316
 1240POPC   C3A18005  20.566  11.451   7.990
 1240POPC   C4A18006  20.908  11.420   7.741
 1240POPC   C1B18007  20.192  11.025   8.787
 1240POPC   C2B18008  20.284  10.900   8.359
 1240POPC   C3B18009  20.269  11.040   7.926
 1240POPC   C4B18010  20.460  11.193   7.513
 1241POPC   NC318011   8.326   6.482   9.516
 1241POPC   PO418012   7.717   6.756   9.618
 1241POPC   GL118013   7.994   6.786   9.206
 1241POPC   GL218014   7.816   6.999   8.980
 1241POPC   C1A18015   8.064   6.601   8.741
 1241POPC   D2A18016   7.822   6.501   8.315
 1241POPC   C3A18017   8.047   6.535   7.900
 1241POPC   C4A18018   8.368   6.434   7.576
 1241POPC   C1B18019   8.205   7.077   8.683
 1241POPC   C2B18020   8.388   7.007   8.258
 1241POPC   C3B18021   8.430   6.870   7.839
 1241POPC   C4B18022   8.292   6.912   7.382
 1242POPC   NC318023  33.785   1.916   9.667
 1242POPC   PO418024  34.047   2.464   9.519
 1242POPC   GL118025  33.677   2.260   9.241
 1242POPC   GL218026  33.645   1.873   9.166
 1242POPC   C1A18027  33.621   2.194   8.765
 1242POPC   D2A18028  33.881   1.947   8.479
 1242POPC   C3A18029  33.864   1.923   8.031
 1242POPC   C4A18030  34.107   2.098   7.663
 1242POPC   C1B18031  33.468   1.706   8.765
 1242POPC   C2B18032  33.393   1.889   8.349
 1242POPC   C3B18033  33.391   1.714   7.931
 1242POPC   C4B18034  33.663   1.813   7.564
 1243POPC   NC318035  36.595   7.277   9.532
 1243POPC   PO418036  35.956   7.728   9.547
 1243POPC   GL118037  36.146   7.495   9.212
 1243POPC   GL218038  36.509   7.535   9.124
 1243POPC   C1A18039  36.009   7.479   8.793
 1243POPC   D2A18040  35.999   7.740   8.406
 1243POPC   C3A18041  35.896   7.458   8.107
 1243POPC   C4A18042  35.975   7.388   7.724
 1243POPC   C1B18043  36.494   7.287   8.766
 1243POPC   C2B18044  36.321   7.346   8.401
 1243POPC   C3B18045  36.387   7.313   8.005
 1243POPC   C4B18046  36.580   7.133   7.701
 1244POPC   NC318047  23.752  35.275   9.746
 1244POPC   PO418048  23.486  35.694   9.324
 1244POPC   GL118049  23.743  35.378   9.069
 1244POPC   GL218050  24.074  35.221   9.169
 1244POPC   C1A18051  23.651  35.243   8.651
 1244POPC   D2A18052  23.680  35.514   8.295
 1244POPC   C3A18053  23.532  35.344   7.940
 1244POPC   C4A18054  23.613  35.454   7.551
 1244POPC   C1B18055  24.124  35.382   8.728
 1244POPC   C2B18056  24.091  35.219   8.320
 1244POPC   C3B18057  24.052  35.280   7.859
 1244POPC   C4B18058  24.074  35.164   7.418
 1245POPC   NC318059  21.027   7.095   9.416
 1245POPC   PO418060  20.604   7.542   9.683
 1245POPC   GL118061  20.577   7.663   9.166
 1245POPC   GL218062  20.339   7.966   9.147
 1245POPC   C1A18063  20.763   7.522   8.754
 1245POPC   D2A18064  20.775   7.183   8.455
 1245POPC   C3A18065  20.681   7.297   8.021
 1245POPC   C4A18066  20.795   7.597   7.718
 1245POPC   C1B18067  20.260   7.712   8.779
 1245POPC   C2B18068  20.407   7.583   8.383
 1245POPC   C3B18069  20.360   7.762   7.993
 1245POPC   C4B18070  20.144   7.575   7.656
 1246POPC   NC318071  15.472  10.325   9.396
 1246POPC   PO418072  14.832  10.434   9.647
 1246POPC   GL118073  15.144  10.648   9.185
 1246POPC   GL218074  15.363  10.914   9.238
 1246POPC   C1A18075  15.238  10.559   8.731
 1246POPC   D2A18076  15.300  10.215   8.429
 1246POPC   C3A18077  15.260  10.240   7.965
 1246POPC   C4A18078  14.943  10.354   7.661
 1246POPC   C1B18079  15.186  11.054   8.835
 1246POPC   C2B18080  15.059  10.937   8.412
 1246POPC   C3B18081  15.094  11.033   7.975
 1246POPC   C4B18082  15.307  10.724   7.713
 1247POPC   NC318083  23.375   5.293   9.411
 1247POPC   PO418084  24.028   5.132   9.565
 1247POPC   GL118085  23.853   5.284   9.163
 1247POPC   GL218086  23.618   5.026   9.055
 1247POPC   C1A18087  23.731   5.388   8.702
 1247POPC   D2A18088  23.590   5.582   8.293
 1247POPC   C3A18089  23.536   5.273   8.011
 1247POPC   C4A18090  23.767   5.196   7.688
 1247POPC   C1B18091  23.957   4.878   8.839
 1247POPC   C2B18092  24.001   4.765   8.448
 1247POPC   C3B18093  24.015   4.985   8.091
 1247POPC   C4B18094  24.097   4.817   7.735
 1248POPC   NC318095   8.980   3.867   9.379
 1248POPC   PO418096   9.240   3.287   9.530
 1248POPC   GL118097   9.151   3.158   9.127
 1248POPC   GL218098   8.914   3.429   9.029
 1248POPC   C1A18099   9.287   3.188   8.690
 1248POPC   D2A18100   9.040   3.407   8.364
 1248POPC   C3A18101   9.041   3.392   7.910
 1248POPC   C4A18102   8.665   3.513   7.707
 1248POPC   C1B18103   9.165   3.728   8.764
 1248POPC   C2B18104   9.182   3.907   8.353
 1248POPC   C3B18105   8.880   3.869   8.012
 1248POPC   C4B18106   9.086   3.789   7.588
 1249POPC   NC318107   4.104  16.749   9.619
 1249POPC   PO418108   4.705  16.621   9.443
 1249POPC   GL118109   4.343  16.846   9.179
 1249POPC   GL218110   4.058  17.100   9.221
 1249POPC   C1A18111   4.040  16.770   8.816
 1249POPC   D2A18112   4.144  16.926   8.384
 1249POPC   C3A18113   4.217  16.711   7.981
 1249POPC   C4A18114   4.567  16.645   7.694
 1249POPC   C1B18115   4.271  17.236   8.805
 1249POPC   C2B18116   4.570  17.254   8.445
 1249POPC   C3B18117   4.590  17.073   8.047
 1249POPC   C4B18118   4.361  17.130   7.693
 1250POPC   NC318119  22.293  43.912   9.424
 1250POPC   PO418120  21.634  43.966   9.431
 1250POPC   GL118121  21.922  44.032   9.061
 1250POPC   GL218122  22.172  43.746   8.946
 1250POPC   C1A18123  21.978  44.121   8.609
 1250POPC   D2A18124  21.809  43.772   8.391
 1250POPC   C3A18125  21.952  43.644   8.007
 1250POPC   C4A18126  22.146  43.904   7.706
 1250POPC   C1B18127  22.427  43.884   8.570
 1250POPC   C2B18128  22.463  43.818   8.128
 1250POPC   C3B18129  22.398  43.485   7.827
 1250POPC   C4B18130  22.185  43.470   7.416
 1251POPC   NC318131  36.576   4.289   9.417
 1251POPC   PO418132  37.254   4.607   9.473
 1251POPC   GL118133  37.047   4.414   9.192
 1251POPC   GL218134  36.818   4.668   9.178
 1251POPC   C1A18135  37.139   4.349   8.776
 1251POPC   D2A18136  36.904   4.232   8.437
 1251POPC   C3A18137  37.075   4.313   8.054
 1251POPC   C4A18138  37.035   4.029   7.716
 1251POPC   C1B18139  36.656   4.522   8.805
 1251POPC   C2B18140  36.603   4.661   8.400
 1251POPC   C3B18141  36.486   4.496   8.041
 1251POPC   C4B18142  36.724   4.414   7.708
 1252POPC   NC318143  44.369  17.593   9.616
 1252POPC   PO418144  43.656  17.679   9.581
 1252POPC   GL118145  43.777  17.661   9.169
 1252POPC   GL218146  44.009  17.413   9.116
 1252POPC   C1A18147  43.679  17.504   8.737
 1252POPC   D2A18148  43.640  17.349   8.310
 1252POPC   C3A18149  43.806  17.483   7.879
 1252POPC   C4A18150  43.710  17.616   7.392
 1252POPC   C1B18151  44.081  17.179   8.741
 1252POPC   C2B18152  44.244  17.196   8.327
 1252POPC   C3B18153  44.131  17.079   7.922
 1252POPC   C4B18154  44.005  17.209   7.498
 1253POPC   NC318155  26.743  28.557   9.594
 1253POPC   PO418156  26.240  29.052   9.451
 1253POPC   GL118157  26.451  28.712   9.177
 1253POPC   GL218158  26.655  28.356   9.157
 1253POPC   C1A18159  26.631  28.655   8.760
 1253POPC   D2A18160  26.909  28.671   8.424
 1253POPC   C3A18161  26.901  28.443   8.041
 1253POPC   C4A18162  26.923  28.600   7.637
 1253POPC   C1B18163  26.918  28.222   8.830
 1253POPC   C2B18164  26.884  28.087   8.413
 1253POPC   C3B18165  26.601  27.956   8.079
 1253POPC   C4B18166  26.654  28.151   7.669
 1254POPC   NC318167   0.176  17.074   9.602
 1254POPC   PO418168   0.668  16.575   9.535
 1254POPC   GL118169   0.487  16.848   9.231
 1254POPC   GL218170   0.175  16.687   9.220
 1254POPC   C1A18171   0.469  16.795   8.774
 1254POPC   D2A18172   0.697  16.886   8.379
 1254POPC   C3A18173   0.488  16.814   7.990
 1254POPC   C4A18174   0.280  16.748   7.612
 1254POPC   C1B18175   0.110  16.414   8.856
 1254POPC   C2B18176   0.023  16.488   8.414
 1254POPC   C3B18177   0.188  16.383   7.981
 1254POPC   C4B18178   0.157  16.266   7.563
 1255POPC   NC318179   8.671   7.347   9.375
 1255POPC   PO418180   9.172   7.747   9.451
 1255POPC   GL118181   9.148   7.560   9.035
 1255POPC   GL218182   8.825   7.360   8.899
 1255POPC   C1A18183   9.236   7.435   8.623
 1255POPC   D2A18184   8.928   7.184   8.397
 1255POPC   C3A18185   8.860   7.176   7.978
 1255POPC   C4A18186   9.206   6.905   7.830
 1255POPC   C1B18187   8.832   7.763   8.665
 1255POPC   C2B18188   8.771   7.858   8.204
 1255POPC   C3B18189   8.933   7.657   7.825
 1255POPC   C4B18190   8.766   7.571   7.401
 1256POPC   NC318191   2.550   5.713   9.522
 1256POPC   PO418192   3.179   5.592   9.466
 1256POPC   GL118193   2.919   5.814   9.129
 1256POPC   GL218194   2.524   5.940   9.064
 1256POPC   C1A18195   2.832   5.752   8.697
 1256POPC   D2A18196   2.768   5.494   8.350
 1256POPC   C3A18197   2.786   5.621   7.966
 1256POPC   C4A18198   2.575   5.493   7.656
 1256POPC   C1B18199   2.579   6.181   8.656
 1256POPC   C2B18200   2.704   6.041   8.269
 1256POPC   C3B18201   2.577   6.080   7.882
 1256POPC   C4B18202   2.872   6.346   7.711
 1257POPC   NC318203  39.993  35.979   9.528
 1257POPC   PO418204  39.842  36.672   9.573
 1257POPC   GL118205  39.932  36.484   9.174
 1257POPC   GL218206  39.758  36.164   9.108
 1257POPC   C1A18207  40.229  36.391   8.837
 1257POPC   D2A18208  40.309  36.264   8.389
 1257POPC   C3A18209  39.973  36.293   8.050
 1257POPC   C4A18210  39.991  36.089   7.665
 1257POPC   C1B18211  39.945  35.944   8.736
 1257POPC   C2B18212  39.909  35.832   8.280
 1257POPC   C3B18213  39.605  35.937   7.940
 1257POPC   C4B18214  39.561  35.893   7.468
 1258POPC   NC318215  17.610  12.645   9.518
 1258POPC   PO418216  17.163  13.070   9.265
 1258POPC   GL118217  17.334  12.710   9.102
 1258POPC   GL218218  17.638  12.934   9.107
 1258POPC   C1A18219  17.486  12.503   8.752
 1258POPC   D2A18220  17.712  12.666   8.441
 1258POPC   C3A18221  17.450  12.607   8.083
 1258POPC   C4A18222  17.559  12.537   7.687
 1258POPC   C1B18223  17.477  13.042   8.711
 1258POPC   C2B18224  17.355  13.059   8.322
 1258POPC   C3B18225  17.488  13.231   7.973
 1258POPC   C4B18226  17.238  12.982   7.724
 1259POPC   NC318227  19.889  36.670   9.350
 1259POPC   PO418228  19.796  36.000   9.522
 1259POPC   GL118229  19.768  36.147   9.147
 1259POPC   GL218230  19.460  36.364   9.210
 1259POPC   C1A18231  19.977  36.056   8.734
 1259POPC   D2A18232  20.201  35.975   8.359
 1259POPC   C3A18233  20.069  36.173   7.999
 1259POPC   C4A18234  19.804  36.034   7.709
 1259POPC   C1B18235  19.534  36.360   8.772
 1259POPC   C2B18236  19.758  36.325   8.377
 1259POPC   C3B18237  19.543  36.291   8.019
 1259POPC   C4B18238  19.439  36.383   7.594
 1260POPC   NC318239   0.118   4.314   9.746
 1260POPC   PO418240  44.436   4.274   9.482
 1260POPC   GL118241  44.365   4.259   9.062
 1260POPC   GL218242  44.703   4.319   8.942
 1260POPC   C1A18243  44.308   4.274   8.610
 1260POPC   D2A18244  44.538   4.149   8.248
 1260POPC   C3A18245  44.553   4.470   7.935
 1260POPC   C4A18246  44.587   4.350   7.513
 1260POPC   C1B18247   0.043   4.184   8.663
 1260POPC   C2B18248   0.030   3.975   8.282
 1260POPC   C3B18249  44.898   4.094   7.874
 1260POPC   C4B18250   0.070   4.193   7.472
 1261POPC   NC318251   8.081  43.097   9.617
 1261POPC   PO418252   8.754  42.996   9.657
 1261POPC   GL118253   8.404  43.023   9.247
 1261POPC   GL218254   8.019  43.086   9.135
 1261POPC   C1A18255   8.383  43.159   8.814
 1261POPC   D2A18256   8.084  43.183   8.497
 1261POPC   C3A18257   8.241  43.408   8.153
 1261POPC   C4A18258   8.354  43.225   7.797
 1261POPC   C1B18259   7.876  42.839   8.808
 1261POPC   C2B18260   7.998  42.687   8.432
 1261POPC   C3B18261   8.000  42.921   8.072
 1261POPC   C4B18262   8.202  42.748   7.758
 1262POPC   NC318263   5.323  17.935   9.935
 1262POPC   PO418264   5.665  18.211   9.418
 1262POPC   GL118265   5.959  18.290   9.100
 1262POPC   GL218266   5.721  18.475   8.973
 1262POPC   C1A18267   6.057  18.311   8.639
 1262POPC   D2A18268   5.959  18.021   8.341
 1262POPC   C3A18269   5.937  18.209   7.977
 1262POPC   C4A18270   6.322  18.422   7.887
 1262POPC   C1B18271   5.540  18.230   8.674
 1262POPC   C2B18272   5.595  18.400   8.282
 1262POPC   C3B18273   5.402  18.307   7.895
 1262POPC   C4B18274   5.547  18.097   7.544
 1263POPC   NC318275  10.248  19.772   9.490
 1263POPC   PO418276  10.870  19.545   9.394
 1263POPC   GL118277  10.703  19.861   9.016
 1263POPC   GL218278  10.334  19.822   8.983
 1263POPC   C1A18279  10.825  20.281   8.768
 1263POPC   D2A18280  11.051  20.347   8.363
 1263POPC   C3A18281  10.926  19.985   8.148
 1263POPC   C4A18282  10.599  19.918   7.857
 1263POPC   C1B18283  10.374  19.546   8.605
 1263POPC   C2B18284  10.346  19.567   8.148
 1263POPC   C3B18285  10.271  19.564   7.694
 1263POPC   C4B18286  10.215  19.649   7.231
 1264POPC   NC318287  39.554  16.527   9.576
 1264POPC   PO418288  39.362  17.232   9.530
 1264POPC   GL118289  39.349  16.900   9.191
 1264POPC   GL218290  39.008  16.772   9.172
 1264POPC   C1A18291  39.291  16.700   8.754
 1264POPC   D2A18292  39.177  16.552   8.354
 1264POPC   C3A18293  39.447  16.540   8.001
 1264POPC   C4A18294  39.499  16.744   7.610
 1264POPC   C1B18295  38.886  16.999   8.801
 1264POPC   C2B18296  39.005  17.046   8.356
 1264POPC   C3B18297  39.099  16.925   7.909
 1264POPC   C4B18298  38.999  16.670   7.512
 1265POPC   NC318299   7.207  39.222   9.448
 1265POPC   PO418300   7.879  39.150   9.449
 1265POPC   GL118301   7.610  39.240   9.131
 1265POPC   GL218302   7.475  39.533   9.124
 1265POPC   C1A18303   7.619  39.075   8.739
 1265POPC   D2A18304   7.389  39.105   8.378
 1265POPC   C3A18305   7.706  39.075   8.110
 1265POPC   C4A18306   7.718  38.998   7.738
 1265POPC   C1B18307   7.180  39.364   8.805
 1265POPC   C2B18308   7.199  39.592   8.432
 1265POPC   C3B18309   7.317  39.678   8.043
 1265POPC   C4B18310   7.294  39.301   7.866
 1266POPC   NC318311   9.542  11.873   9.506
 1266POPC   PO418312  10.036  12.300   9.521
 1266POPC   GL118313   9.878  12.095   9.133
 1266POPC   GL218314   9.581  11.895   9.012
 1266POPC   C1A18315   9.875  12.168   8.705
 1266POPC   D2A18316   9.602  12.054   8.431
 1266POPC   C3A18317   9.605  12.366   8.144
 1266POPC   C4A18318   9.756  12.178   7.798
 1266POPC   C1B18319   9.806  11.657   8.757
 1266POPC   C2B18320   9.995  11.696   8.432
 1266POPC   C3B18321   9.782  11.739   8.067
 1266POPC   C4B18322   9.711  11.631   7.681
 1267POPC   NC318323  27.699  14.170   9.514
 1267POPC   PO418324  27.691  13.561   9.783
 1267POPC   GL118325  27.634  13.710   9.303
 1267POPC   GL218326  27.444  13.582   9.064
 1267POPC   C1A18327  27.747  13.917   8.856
 1267POPC   D2A18328  27.596  14.057   8.437
 1267POPC   C3A18329  27.735  13.821   8.086
 1267POPC   C4A18330  27.584  13.760   7.687
 1267POPC   C1B18331  27.220  13.426   8.723
 1267POPC   C2B18332  27.220  13.584   8.349
 1267POPC   C3B18333  27.404  13.438   8.029
 1267POPC   C4B18334  27.342  13.117   7.859
 1268POPC   NC318335  16.085   3.658   9.562
 1268POPC   PO418336  15.576   3.254   9.404
 1268POPC   GL118337  15.828   3.551   9.122
 1268POPC   GL218338  16.200   3.557   9.096
 1268POPC   C1A18339  15.926   3.695   8.690
 1268POPC   D2A18340  15.889   3.602   8.252
 1268POPC   C3A18341  15.835   3.691   7.815
 1268POPC   C4A18342  15.654   3.836   7.430
 1268POPC   C1B18343  16.341   3.247   8.852
 1268POPC   C2B18344  16.289   3.335   8.477
 1268POPC   C3B18345  16.274   3.329   8.055
 1268POPC   C4B18346  16.133   3.004   7.851
 1269POPC   NC318347  25.368  38.324   9.429
 1269POPC   PO418348  24.888  38.831   9.534
 1269POPC   GL118349  25.060  38.789   9.141
 1269POPC   GL218350  25.453  38.719   9.102
 1269POPC   C1A18351  25.095  38.504   8.789
 1269POPC   D2A18352  25.318  38.570   8.415
 1269POPC   C3A18353  25.224  38.303   8.054
 1269POPC   C4A18354  25.171  38.532   7.668
 1269POPC   C1B18355  25.702  38.454   8.785
 1269POPC   C2B18356  25.688  38.227   8.387
 1269POPC   C3B18357  25.675  38.509   8.029
 1269POPC   C4B18358  25.621  38.310   7.646
 1270POPC   NC318359   6.208   1.838   9.559
 1270POPC   PO418360   5.518   1.793   9.581
 1270POPC   GL118361   5.798   1.769   9.173
 1270POPC   GL218362   6.019   2.070   9.141
 1270POPC   C1A18363   5.803   1.827   8.694
 1270POPC   D2A18364   5.485   1.988   8.379
 1270POPC   C3A18365   5.536   2.134   7.970
 1270POPC   C4A18366   5.696   1.972   7.596
 1270POPC   C1B18367   6.201   2.188   8.751
 1270POPC   C2B18368   6.034   2.142   8.334
 1270POPC   C3B18369   6.061   1.972   7.939
 1270POPC   C4B18370   6.218   2.192   7.566
 1271POPC   NC318371  21.173  38.975   9.428
 1271POPC   PO418372  21.767  38.648   9.325
 1271POPC   GL118373  21.591  39.038   9.082
 1271POPC   GL218374  21.419  39.382   9.177
 1271POPC   C1A18375  21.602  39.185   8.656
 1271POPC   D2A18376  21.427  38.933   8.328
 1271POPC   C3A18377  21.358  39.147   7.983
 1271POPC   C4A18378  21.094  39.143   7.643
 1271POPC   C1B18379  21.142  39.330   8.820
 1271POPC   C2B18380  21.215  39.452   8.380
 1271POPC   C3B18381  21.083  39.578   7.952
 1271POPC   C4B18382  21.161  39.624   7.494
 1272POPC   NC318383  41.333  34.054   9.387
 1272POPC   PO418384  41.912  33.722   9.482
 1272POPC   GL118385  41.773  33.707   9.082
 1272POPC   GL218386  41.853  34.050   9.026
 1272POPC   C1A18387  41.513  33.779   8.727
 1272POPC   D2A18388  41.523  34.013   8.323
 1272POPC   C3A18389  41.439  33.801   7.938
 1272POPC   C4A18390  41.638  33.431   7.810
 1272POPC   C1B18391  41.970  33.981   8.606
 1272POPC   C2B18392  42.022  34.051   8.144
 1272POPC   C3B18393  41.884  33.894   7.756
 1272POPC   C4B18394  41.540  34.023   7.450
 1273POPC   NC318395  23.101  22.551   9.328
 1273POPC   PO418396  23.043  21.891   9.616
 1273POPC   GL118397  22.982  21.951   9.226
 1273POPC   GL218398  23.307  22.087   9.142
 1273POPC   C1A18399  22.856  22.103   8.832
 1273POPC   D2A18400  22.876  22.077   8.402
 1273POPC   C3A18401  23.041  22.407   8.120
 1273POPC   C4A18402  23.111  22.350   7.684
 1273POPC   C1B18403  23.231  21.741   8.829
 1273POPC   C2B18404  23.188  21.637   8.374
 1273POPC   C3B18405  23.164  21.921   8.007
 1273POPC   C4B18406  23.181  21.816   7.578
 1274POPC   NC318407  20.281  10.772   9.430
 1274POPC   PO418408  19.615  10.647   9.443
 1274POPC   GL118409  19.854  10.815   9.128
 1274POPC   GL218410  20.028  10.522   9.054
 1274POPC   C1A18411  19.790  10.761   8.683
 1274POPC   D2A18412  19.962  10.525   8.369
 1274POPC   C3A18413  19.733  10.537   8.030
 1274POPC   C4A18414  19.581  10.572   7.649
 1274POPC   C1B18415  20.320  10.526   8.760
 1274POPC   C2B18416  20.458  10.358   8.393
 1274POPC   C3B18417  20.352  10.490   7.993
 1274POPC   C4B18418  20.087  10.642   7.675
 1275POPC   NC318419  29.913  44.803   9.549
 1275POPC   PO418420  29.876  44.173   9.507
 1275POPC   GL118421  29.791  44.533   9.132
 1275POPC   GL218422  30.076  44.763   9.033
 1275POPC   C1A18423  29.668  44.826   8.741
 1275POPC   D2A18424  29.510  44.686   8.351
 1275POPC   C3A18425  29.773  44.637   7.986
 1275POPC   C4A18426  30.054  44.929   7.763
 1275POPC   C1B18427  30.149  44.752   8.547
 1275POPC   C2B18428  30.267  44.593   8.102
 1275POPC   C3B18429  30.104  44.262   7.779
 1275POPC   C4B18430  29.877  43.966   7.481
 1276POPC   NC318431  40.685  39.019   9.375
 1276POPC   PO418432  41.116  39.455   9.578
 1276POPC   GL118433  40.889  39.433   9.139
 1276POPC   GL218434  40.508  39.397   9.087
 1276POPC   C1A18435  40.923  39.240   8.697
 1276POPC   D2A18436  40.804  39.113   8.297
 1276POPC   C3A18437  40.815  39.367   7.946
 1276POPC   C4A18438  40.812  39.103   7.587
 1276POPC   C1B18439  40.461  39.033   8.757
 1276POPC   C2B18440  40.360  38.871   8.334
 1276POPC   C3B18441  40.395  39.067   7.911
 1276POPC   C4B18442  40.428  39.419   7.598
 1277POPC   NC318443  33.335   9.447   9.485
 1277POPC   PO418444  32.684   9.625   9.448
 1277POPC   GL118445  33.035   9.714   9.145
 1277POPC   GL218446  33.194  10.060   9.146
 1277POPC   C1A18447  33.076   9.470   8.730
 1277POPC   D2A18448  33.062   9.603   8.278
 1277POPC   C3A18449  33.044   9.410   7.891
 1277POPC   C4A18450  32.924   9.622   7.500
 1277POPC   C1B18451  33.178   9.982   8.702
 1277POPC   C2B18452  32.895  10.063   8.357
 1277POPC   C3B18453  32.860   9.974   7.930
 1277POPC   C4B18454  33.134  10.099   7.632
 1278POPC   NC318455  21.118  15.228   9.728
 1278POPC   PO418456  20.465  15.470   9.622
 1278POPC   GL118457  20.504  15.261   9.193
 1278POPC   GL218458  20.217  15.370   9.061
 1278POPC   C1A18459  20.397  15.030   8.766
 1278POPC   D2A18460  20.283  15.114   8.339
 1278POPC   C3A18461  20.574  14.906   8.005
 1278POPC   C4A18462  20.900  14.914   7.669
 1278POPC   C1B18463  20.351  15.581   8.673
 1278POPC   C2B18464  20.477  15.644   8.246
 1278POPC   C3B18465  20.681  15.397   7.933
 1278POPC   C4B18466  20.525  15.227   7.557
 1279POPC   NC318467  37.095  24.576   9.534
 1279POPC   PO418468  36.455  24.634   9.273
 1279POPC   GL118469  36.796  24.470   9.113
 1279POPC   GL218470  36.989  24.770   9.077
 1279POPC   C1A18471  36.778  24.377   8.691
 1279POPC   D2A18472  36.988  24.442   8.318
 1279POPC   C3A18473  36.742  24.483   7.950
 1279POPC   C4A18474  36.972  24.420   7.598
 1279POPC   C1B18475  36.713  24.966   8.770
 1279POPC   C2B18476  36.947  24.962   8.404
 1279POPC   C3B18477  37.073  24.865   7.984
 1279POPC   C4B18478  36.861  24.937   7.587
 1280POPC   NC318479  24.722  11.543   9.337
 1280POPC   PO418480  24.136  11.354   9.542
 1280POPC   GL118481  24.247  11.290   9.139
 1280POPC   GL218482  24.415  10.983   9.107
 1280POPC   C1A18483  24.348  11.475   8.761
 1280POPC   D2A18484  24.429  11.703   8.385
 1280POPC   C3A18485  24.307  11.551   8.016
 1280POPC   C4A18486  24.630  11.394   7.733
 1280POPC   C1B18487  24.689  11.071   8.802
 1280POPC   C2B18488  24.747  11.312   8.495
 1280POPC   C3B18489  24.572  11.149   8.169
 1280POPC   C4B18490  24.853  10.980   7.945
 1281POPC   NC318491  17.333  33.150   9.533
 1281POPC   PO418492  17.877  32.832   9.310
 1281POPC   GL118493  17.549  32.905   9.062
 1281POPC   GL218494  17.603  33.261   9.097
 1281POPC   C1A18495  17.622  32.869   8.634
 1281POPC   D2A18496  17.651  33.116   8.297
 1281POPC   C3A18497  17.579  32.887   7.948
 1281POPC   C4A18498  17.728  32.761   7.604
 1281POPC   C1B18499  17.415  33.326   8.729
 1281POPC   C2B18500  17.160  33.383   8.394
 1281POPC   C3B18501  17.262  33.298   8.005
 1281POPC   C4B18502  17.666  33.370   7.825
 1282POPC   NC318503  25.045  15.468   9.455
 1282POPC   PO418504  25.497  14.945   9.613
 1282POPC   GL118505  25.348  15.111   9.208
 1282POPC   GL218506  25.492  15.429   9.193
 1282POPC   C1A18507  25.372  15.142   8.734
 1282POPC   D2A18508  25.642  15.075   8.338
 1282POPC   C3A18509  25.437  14.923   7.944
 1282POPC   C4A18510  25.010  15.112   7.891
 1282POPC   C1B18511  25.508  15.659   8.834
 1282POPC   C2B18512  25.383  15.583   8.425
 1282POPC   C3B18513  25.448  15.435   8.017
 1282POPC   C4B18514  25.418  15.326   7.587
 1283POPC   NC318515  37.241  43.587   9.504
 1283POPC   PO418516  36.874  44.199   9.704
 1283POPC   GL118517  36.839  43.942   9.186
 1283POPC   GL218518  36.946  43.645   9.095
 1283POPC   C1A18519  36.982  44.018   8.728
 1283POPC   D2A18520  37.162  43.957   8.279
 1283POPC   C3A18521  36.998  44.103   7.898
 1283POPC   C4A18522  36.652  44.060   7.654
 1283POPC   C1B18523  37.163  43.443   8.769
 1283POPC   C2B18524  37.286  43.465   8.333
 1283POPC   C3B18525  37.024  43.546   7.985
 1283POPC   C4B18526  36.940  43.366   7.603
 1284POPC   NC318527   1.155  26.598   9.389
 1284POPC   PO418528   1.327  27.237   9.515
 1284POPC   GL118529   1.238  27.035   9.124
 1284POPC   GL218530   1.503  26.767   9.042
 1284POPC   C1A18531   1.041  26.905   8.747
 1284POPC   D2A18532   1.205  27.000   8.343
 1284POPC   C3A18533   1.006  27.069   7.956
 1284POPC   C4A18534   1.351  27.144   7.687
 1284POPC   C1B18535   1.437  26.521   8.653
 1284POPC   C2B18536   1.281  26.439   8.226
 1284POPC   C3B18537   1.251  26.647   7.823
 1284POPC   C4B18538   1.085  26.506   7.421
 1285POPC   NC318539   2.499  23.903   9.490
 1285POPC   PO418540   3.026  23.570   9.524
 1285POPC   GL118541   2.805  23.708   9.143
 1285POPC   GL218542   2.490  23.543   9.083
 1285POPC   C1A18543   2.655  23.977   8.798
 1285POPC   D2A18544   2.768  23.917   8.377
 1285POPC   C3A18545   2.872  23.564   8.159
 1285POPC   C4A18546   3.083  23.600   7.757
 1285POPC   C1B18547   2.607  23.483   8.669
 1285POPC   C2B18548   2.301  23.681   8.420
 1285POPC   C3B18549   2.375  23.801   8.016
 1285POPC   C4B18550   2.592  23.586   7.716
 1286POPC   NC318551   0.190  31.776   9.506
 1286POPC   PO418552   0.703  31.295   9.458
 1286POPC   GL118553   0.532  31.527   9.142
 1286POPC   GL218554   0.172  31.492   9.087
 1286POPC   C1A18555   0.475  31.457   8.694
 1286POPC   D2A18556   0.678  31.633   8.362
 1286POPC   C3A18557   0.495  31.586   7.967
 1286POPC   C4A18558   0.393  31.225   7.734
 1286POPC   C1B18559  44.981  31.629   8.719
 1286POPC   C2B18560   0.133  31.535   8.341
 1286POPC   C3B18561   0.002  31.456   7.982
 1286POPC   C4B18562   0.078  31.690   7.642
 1287POPC   NC318563  43.440  10.924   9.531
 1287POPC   PO418564  43.177  11.489   9.416
 1287POPC   GL118565  43.133  11.216   9.131
 1287POPC   GL218566  43.480  11.175   9.074
 1287POPC   C1A18567  43.111  11.339   8.707
 1287POPC   D2A18568  43.249  11.560   8.357
 1287POPC   C3A18569  42.920  11.512   8.065
 1287POPC   C4A18570  42.960  11.305   7.708
 1287POPC   C1B18571  43.297  10.874   8.793
 1287POPC   C2B18572  42.958  10.891   8.480
 1287POPC   C3B18573  43.009  10.968   8.091
 1287POPC   C4B18574  43.323  10.961   7.792
 1288POPC   NC318575   1.700  16.975   9.498
 1288POPC   PO418576   2.180  16.498   9.562
 1288POPC   GL118577   2.083  16.783   9.207
 1288POPC   GL218578   1.762  16.645   9.102
 1288POPC   C1A18579   2.071  16.882   8.766
 1288POPC   D2A18580   1.964  16.682   8.382
 1288POPC   C3A18581   2.192  16.789   8.039
 1288POPC   C4A18582   1.946  17.017   7.823
 1288POPC   C1B18583   1.734  16.369   8.743
 1288POPC   C2B18584   1.782  16.197   8.339
 1288POPC   C3B18585   1.818  16.434   7.946
 1288POPC   C4B18586   1.528  16.351   7.632
 1289POPC   NC318587  18.198  38.155   9.416
 1289POPC   PO418588  18.258  38.686   9.687
 1289POPC   GL118589  18.278  38.631   9.236
 1289POPC   GL218590  18.580  38.519   9.090
 1289POPC   C1A18591  18.152  38.449   8.810
 1289POPC   D2A18592  18.199  38.218   8.400
 1289POPC   C3A18593  18.143  38.424   7.990
 1289POPC   C4A18594  17.882  38.655   7.696
 1289POPC   C1B18595  18.609  38.224   8.729
 1289POPC   C2B18596  18.671  38.047   8.311
 1289POPC   C3B18597  18.645  38.270   7.931
 1289POPC   C4B18598  18.627  38.120   7.525
 1290POPC   NC318599  12.028  14.111   9.260
 1290POPC   PO418600  12.175  13.461   9.410
 1290POPC   GL118601  11.972  13.630   9.090
 1290POPC   GL218602  12.303  13.768   9.015
 1290POPC   C1A18603  11.844  13.821   8.691
 1290POPC   D2A18604  11.733  13.654   8.292
 1290POPC   C3A18605  12.055  13.493   8.006
 1290POPC   C4A18606  12.240  13.405   7.620
 1290POPC   C1B18607  12.386  14.002   8.673
 1290POPC   C2B18608  12.235  13.854   8.309
 1290POPC   C3B18609  12.236  13.969   7.888
 1290POPC   C4B18610  12.473  13.818   7.476
 1291POPC   NC318611  36.257  16.743   9.327
 1291POPC   PO418612  35.698  16.345   9.392
 1291POPC   GL118613  35.880  16.584   9.032
 1291POPC   GL218614  36.274  16.489   8.898
 1291POPC   C1A18615  35.769  16.953   8.818
 1291POPC   D2A18616  35.845  17.145   8.421
 1291POPC   C3A18617  36.047  16.799   8.177
 1291POPC   C4A18618  36.010  16.725   7.701
 1291POPC   C1B18619  36.277  16.913   8.680
 1291POPC   C2B18620  36.478  17.088   8.308
 1291POPC   C3B18621  36.391  17.028   7.885
 1291POPC   C4B18622  36.449  16.545   7.869
 1292POPC   NC318623  44.790  26.272   9.774
 1292POPC   PO418624  44.822  26.966   9.718
 1292POPC   GL118625  44.736  26.877   9.246
 1292POPC   GL218626   0.069  26.796   9.048
 1292POPC   C1A18627  44.608  26.794   8.813
 1292POPC   D2A18628  44.658  27.057   8.434
 1292POPC   C3A18629  44.667  26.894   8.036
 1292POPC   C4A18630  44.344  26.945   7.797
 1292POPC   C1B18631  44.987  26.471   8.718
 1292POPC   C2B18632  44.655  26.510   8.396
 1292POPC   C3B18633  44.386  26.459   8.052
 1292POPC   C4B18634  44.560  26.370   7.724
 1293POPC   NC318635  41.218  18.924   9.443
 1293POPC   PO418636  41.847  19.071   9.480
 1293POPC   GL118637  41.621  18.911   9.093
 1293POPC   GL218638  41.461  19.242   9.102
 1293POPC   C1A18639  41.558  18.816   8.625
 1293POPC   D2A18640  41.499  19.152   8.290
 1293POPC   C3A18641  41.722  19.252   7.962
 1293POPC   C4A18642  41.623  18.908   7.753
 1293POPC   C1B18643  41.258  19.223   8.729
 1293POPC   C2B18644  41.100  18.889   8.426
 1293POPC   C3B18645  41.135  18.938   7.960
 1293POPC   C4B18646  41.091  19.069   7.513
 1294POPC   NC318647  31.513  11.097   9.322
 1294POPC   PO418648  31.502  10.647   9.852
 1294POPC   GL118649  31.422  10.417   9.391
 1294POPC   GL218650  31.581  10.616   9.122
 1294POPC   C1A18651  31.257  10.291   8.924
 1294POPC   D2A18652  31.376  10.380   8.483
 1294POPC   C3A18653  31.519  10.548   8.081
 1294POPC   C4A18654  31.412  10.507   7.620
 1294POPC   C1B18655  31.809  10.779   8.743
 1294POPC   C2B18656  31.873  10.908   8.295
 1294POPC   C3B18657  31.944  10.770   7.856
 1294POPC   C4B18658  31.864  10.648   7.415
 1295POPC   NC318659  13.343  20.643   9.473
 1295POPC   PO418660  13.895  21.046   9.550
 1295POPC   GL118661  13.721  20.730   9.102
 1295POPC   GL218662  13.725  20.369   9.114
 1295POPC   C1A18663  13.570  20.683   8.656
 1295POPC   D2A18664  13.533  20.815   8.205
 1295POPC   C3A18665  13.330  20.550   7.879
 1295POPC   C4A18666  13.135  20.207   7.666
 1295POPC   C1B18667  13.969  20.363   8.756
 1295POPC   C2B18668  13.822  20.366   8.339
 1295POPC   C3B18669  13.896  20.525   7.942
 1295POPC   C4B18670  13.908  20.379   7.543
 1296POPC   NC318671   3.337   3.402   9.416
 1296POPC   PO418672   3.355   4.061   9.409
 1296POPC   GL118673   3.502   3.755   9.102
 1296POPC   GL218674   3.191   3.670   8.944
 1296POPC   C1A18675   3.665   3.547   8.696
 1296POPC   D2A18676   3.776   3.407   8.248
 1296POPC   C3A18677   3.792   3.647   7.870
 1296POPC   C4A18678   3.613   3.395   7.543
 1296POPC   C1B18679   3.236   3.284   8.777
 1296POPC   C2B18680   3.318   3.280   8.367
 1296POPC   C3B18681   3.312   3.556   8.025
 1296POPC   C4B18682   3.119   3.548   7.650
 1297POPC   NC318683  35.968   5.028   9.541
 1297POPC   PO418684  36.570   4.697   9.644
 1297POPC   GL118685  36.346   4.893   9.223
 1297POPC   GL218686  36.523   5.036   8.977
 1297POPC   C1A18687  36.031   5.174   8.902
 1297POPC   D2A18688  35.912   5.189   8.430
 1297POPC   C3A18689  35.993   5.266   7.979
 1297POPC   C4A18690  36.051   5.173   7.557
 1297POPC   C1B18691  36.223   4.770   8.709
 1297POPC   C2B18692  36.071   4.729   8.286
 1297POPC   C3B18693  36.079   4.759   7.859
 1297POPC   C4B18694  36.459   4.851   7.676
 1298POPC   NC318695   4.800  34.964   9.521
 1298POPC   PO418696   5.212  35.450   9.513
 1298POPC   GL118697   4.992  35.309   9.182
 1298POPC   GL218698   4.826  35.577   9.062
 1298POPC   C1A18699   5.174  35.222   8.796
 1298POPC   D2A18700   5.522  35.365   8.530
 1298POPC   C3A18701   5.422  35.347   8.090
 1298POPC   C4A18702   5.158  35.622   7.840
 1298POPC   C1B18703   4.944  35.650   8.626
 1298POPC   C2B18704   4.730  35.569   8.224
 1298POPC   C3B18705   4.654  35.725   7.803
 1298POPC   C4B18706   4.860  35.632   7.396
 1299POPC   NC318707  20.960  43.705   9.289
 1299POPC   PO418708  20.463  44.116   9.547
 1299POPC   GL118709  20.524  43.921   9.157
 1299POPC   GL218710  20.309  44.103   8.993
 1299POPC   C1A18711  20.615  43.781   8.713
 1299POPC   D2A18712  20.394  43.793   8.300
 1299POPC   C3A18713  20.559  43.852   7.916
 1299POPC   C4A18714  20.833  43.853   7.626
 1299POPC   C1B18715  20.716  44.287   8.864
 1299POPC   C2B18716  20.950  44.262   8.490
 1299POPC   C3B18717  20.944  44.192   8.048
 1299POPC   C4B18718  21.028  44.457   7.725
 1300POPC   NC318719   5.710  39.846   9.656
 1300POPC   PO418720   5.335  40.467   9.454
 1300POPC   GL118721   5.592  40.172   9.227
 1300POPC   GL218722   5.756  39.830   9.147
 1300POPC   C1A18723   5.650  40.216   8.812
 1300POPC   D2A18724   5.902  40.225   8.449
 1300POPC   C3A18725   5.770  39.885   8.220
 1300POPC   C4A18726   5.670  39.976   7.811
 1300POPC   C1B18727   6.011  39.844   8.764
 1300POPC   C2B18728   6.282  39.899   8.408
 1300POPC   C3B18729   6.190  40.062   8.001
 1300POPC   C4B18730   6.135  39.787   7.681
 1301POPC   NC318731  30.641   4.436   9.493
 1301POPC   PO418732  30.406   3.866   9.295
 1301POPC   GL118733  30.491   4.224   9.041
 1301POPC   GL218734  30.439   4.639   9.069
 1301POPC   C1A18735  30.578   4.078   8.666
 1301POPC   D2A18736  30.900   4.147   8.441
 1301POPC   C3A18737  30.863   4.073   8.019
 1301POPC   C4A18738  31.059   4.357   7.755
 1301POPC   C1B18739  30.580   4.600   8.649
 1301POPC   C2B18740  30.451   4.391   8.291
 1301POPC   C3B18741  30.544   4.480   7.875
 1301POPC   C4B18742  30.368   4.676   7.484
 1302POPC   NC318743  36.251  44.876   9.587
 1302POPC   PO418744  36.344  44.271   9.326
 1302POPC   GL118745  36.093  44.500   9.022
 1302POPC   GL218746  36.101  44.838   9.116
 1302POPC   C1A18747  36.032  44.475   8.586
 1302POPC   D2A18748  36.333  44.687   8.356
 1302POPC   C3A18749  36.250  44.790   7.940
 1302POPC   C4A18750  36.162  44.464   7.668
 1302POPC   C1B18751  36.051  44.973   8.732
 1302POPC   C2B18752  35.904  44.973   8.314
 1302POPC   C3B18753  35.777  44.619   8.052
 1302POPC   C4B18754  35.724  44.720   7.623
 1303POPC   NC318755  13.698  28.601   9.696
 1303POPC   PO418756  13.433  28.416   9.067
 1303POPC   GL118757  13.854  28.489   9.016
 1303POPC   GL218758  13.996  28.192   9.186
 1303POPC   C1A18759  13.903  28.521   8.561
 1303POPC   D2A18760  13.544  28.378   8.268
 1303POPC   C3A18761  13.555  28.494   7.836
 1303POPC   C4A18762  13.940  28.587   7.655
 1303POPC   C1B18763  14.130  28.068   8.757
 1303POPC   C2B18764  14.012  28.079   8.299
 1303POPC   C3B18765  13.811  28.038   7.899
 1303POPC   C4B18766  13.367  28.022   7.795
 1304POPC   NC318767  18.218  10.460   9.455
 1304POPC   PO418768  18.350  11.082   9.346
 1304POPC   GL118769  18.451  10.771   9.042
 1304POPC   GL218770  18.370  10.383   8.990
 1304POPC   C1A18771  18.514  10.684   8.613
 1304POPC   D2A18772  18.544  10.292   8.368
 1304POPC   C3A18773  18.449  10.417   7.975
 1304POPC   C4A18774  18.376  10.853   7.870
 1304POPC   C1B18775  18.027  10.607   8.773
 1304POPC   C2B18776  18.096  10.597   8.335
 1304POPC   C3B18777  17.906  10.731   7.996
 1304POPC   C4B18778  18.025  10.511   7.690
 1305POPC   NC318779  16.747  27.899   9.504
 1305POPC   PO418780  16.343  27.374   9.631
 1305POPC   GL118781  16.564  27.487   9.224
 1305POPC   GL218782  16.936  27.510   9.231
 1305POPC   C1A18783  16.546  27.745   8.823
 1305POPC   D2A18784  16.660  27.897   8.389
 1305POPC   C3A18785  16.471  27.774   7.959
 1305POPC   C4A18786  16.608  27.922   7.538
 1305POPC   C1B18787  17.088  27.622   8.829
 1305POPC   C2B18788  16.942  27.434   8.473
 1305POPC   C3B18789  16.905  27.556   8.085
 1305POPC   C4B18790  17.030  27.686   7.700
 1306POPC   NC318791   4.188   2.355   9.407
 1306POPC   PO418792   4.451   2.910   9.587
 1306POPC   GL118793   4.555   2.694   9.203
 1306POPC   GL218794   4.522   2.997   9.087
 1306POPC   C1A18795   4.418   2.528   8.775
 1306POPC   D2A18796   4.070   2.277   8.536
 1306POPC   C3A18797   4.088   2.319   8.068
 1306POPC   C4A18798   4.286   2.683   7.890
 1306POPC   C1B18799   4.520   3.099   8.716
 1306POPC   C2B18800   4.460   2.882   8.366
 1306POPC   C3B18801   4.624   3.021   8.018
 1306POPC   C4B18802   4.581   3.144   7.644
 1307POPC   NC318803  28.599  42.462   9.412
 1307POPC   PO418804  27.955  42.174   9.444
 1307POPC   GL118805  28.088  42.413   9.086
 1307POPC   GL218806  28.433  42.307   8.953
 1307POPC   C1A18807  28.018  42.363   8.649
 1307POPC   D2A18808  28.367  42.451   8.383
 1307POPC   C3A18809  28.290  42.179   8.053
 1307POPC   C4A18810  28.059  42.426   7.781
 1307POPC   C1B18811  28.714  42.134   8.610
 1307POPC   C2B18812  28.826  42.293   8.177
 1307POPC   C3B18813  28.672  42.320   7.745
 1307POPC   C4B18814  28.745  42.143   7.309
 1308POPC   NC318815  24.277   7.463   9.532
 1308POPC   PO418816  24.844   7.707   9.453
 1308POPC   GL118817  24.598   7.673   9.141
 1308POPC   GL218818  24.480   7.332   9.088
 1308POPC   C1A18819  24.710   7.648   8.740
 1308POPC   D2A18820  24.669   7.411   8.393
 1308POPC   C3A18821  24.572   7.640   8.058
 1308POPC   C4A18822  24.686   7.547   7.654
 1308POPC   C1B18823  24.243   7.342   8.702
 1308POPC   C2B18824  24.168   7.244   8.258
 1308POPC   C3B18825  24.508   7.101   7.988
 1308POPC   C4B18826  24.750   6.929   7.679
 1309POPC   NC318827   9.627   3.107   9.348
 1309POPC   PO418828   9.703   3.689   9.635
 1309POPC   GL118829   9.871   3.532   9.234
 1309POPC   GL218830   9.544   3.515   9.047
 1309POPC   C1A18831  10.003   3.503   8.807
 1309POPC   D2A18832  10.092   3.791   8.445
 1309POPC   C3A18833   9.872   3.701   8.065
 1309POPC   C4A18834   9.838   3.472   7.692
 1309POPC   C1B18835   9.662   3.921   8.809
 1309POPC   C2B18836   9.663   4.138   8.383
 1309POPC   C3B18837   9.508   4.075   7.956
 1309POPC   C4B18838   9.599   3.901   7.573
 1310POPC   NC318839  27.080  40.518   9.431
 1310POPC   PO418840  26.475  40.818   9.372
 1310POPC   GL118841  26.493  40.639   9.015
 1310POPC   GL218842  26.868  40.702   9.023
 1310POPC   C1A18843  26.598  40.793   8.616
 1310POPC   D2A18844  26.891  40.883   8.327
 1310POPC   C3A18845  26.721  41.055   8.033
 1310POPC   C4A18846  26.857  41.068   7.667
 1310POPC   C1B18847  27.033  40.468   8.713
 1310POPC   C2B18848  26.851  40.377   8.327
 1310POPC   C3B18849  26.912  40.344   7.901
 1310POPC   C4B18850  27.106  40.619   7.655
 1311POPC   NC318851  12.116  31.320   9.719
 1311POPC   PO418852  11.614  31.237   9.293
 1311POPC   GL118853  11.937  31.211   9.002
 1311POPC   GL218854  12.280  31.293   9.189
 1311POPC   C1A18855  11.878  31.341   8.548
 1311POPC   D2A18856  11.855  31.415   8.077
 1311POPC   C3A18857  11.936  31.193   7.684
 1311POPC   C4A18858  12.253  31.193   7.313
 1311POPC   C1B18859  12.301  31.515   8.795
 1311POPC   C2B18860  12.257  31.733   8.409
 1311POPC   C3B18861  12.430  31.710   8.004
 1311POPC   C4B18862  12.434  31.344   7.756
 1312POPC   NC318863  25.562  20.981   9.474
 1312POPC   PO418864  25.226  20.422   9.622
 1312POPC   GL118865  25.118  20.520   9.196
 1312POPC   GL218866  25.261  20.816   9.108
 1312POPC   C1A18867  25.020  20.554   8.732
 1312POPC   D2A18868  25.170  20.762   8.336
 1312POPC   C3A18869  25.089  20.514   7.983
 1312POPC   C4A18870  25.379  20.247   7.740
 1312POPC   C1B18871  25.507  20.773   8.730
 1312POPC   C2B18872  25.685  20.943   8.336
 1312POPC   C3B18873  25.558  20.838   7.917
 1312POPC   C4B18874  25.198  20.878   7.662
 1313POPC   NC318875  17.050  16.100   9.546
 1313POPC   PO418876  16.449  15.868   9.767
 1313POPC   GL118877  16.509  15.870   9.258
 1313POPC   GL218878  16.818  15.958   9.125
 1313POPC   C1A18879  16.462  15.977   8.784
 1313POPC   D2A18880  16.759  15.981   8.444
 1313POPC   C3A18881  16.649  15.854   8.045
 1313POPC   C4A18882  16.613  16.182   7.735
 1313POPC   C1B18883  16.906  16.298   8.809
 1313POPC   C2B18884  17.174  16.289   8.426
 1313POPC   C3B18885  17.031  16.212   8.028
 1313POPC   C4B18886  17.103  15.823   7.771
 1314POPC   NC318887  33.761   2.865   9.501
 1314POPC   PO418888  34.353   3.082   9.319
 1314POPC   GL118889  34.009   3.005   9.047
 1314POPC   GL218890  33.710   2.756   9.019
 1314POPC   C1A18891  34.028   3.034   8.628
 1314POPC   D2A18892  34.020   2.759   8.284
 1314POPC   C3A18893  33.711   2.848   7.983
 1314POPC   C4A18894  33.976   3.132   7.803
 1314POPC   C1B18895  33.627   2.670   8.585
 1314POPC   C2B18896  33.643   2.374   8.227
 1314POPC   C3B18897  33.689   2.362   7.775
 1314POPC   C4B18898  33.526   2.284   7.360
 1315POPC   NC318899   7.395  42.933   9.576
 1315POPC   PO418900   7.787  43.437   9.485
 1315POPC   GL118901   7.549  43.289   9.153
 1315POPC   GL218902   7.211  43.119   9.126
 1315POPC   C1A18903   7.645  43.318   8.743
 1315POPC   D2A18904   7.395  43.165   8.449
 1315POPC   C3A18905   7.360  43.320   8.045
 1315POPC   C4A18906   7.214  43.251   7.659
 1315POPC   C1B18907   7.375  42.790   8.876
 1315POPC   C2B18908   7.489  42.659   8.474
 1315POPC   C3B18909   7.446  42.789   8.064
 1315POPC   C4B18910   7.662  42.929   7.704
 1316POPC   NC318911  26.682  12.233   9.498
 1316POPC   PO418912  27.025  11.612   9.723
 1316POPC   GL118913  27.042  11.843   9.278
 1316POPC   GL218914  26.754  11.965   9.071
 1316POPC   C1A18915  27.187  11.982   8.812
 1316POPC   D2A18916  27.188  12.341   8.511
 1316POPC   C3A18917  27.032  12.239   8.090
 1316POPC   C4A18918  26.881  11.986   7.725
 1316POPC   C1B18919  26.640  12.342   8.818
 1316POPC   C2B18920  26.618  12.408   8.370
 1316POPC   C3B18921  26.496  12.065   8.091
 1316POPC   C4B18922  26.347  11.848   7.721
 1317POPC   NC318923  26.583  22.290   9.424
 1317POPC   PO418924  27.224  22.088   9.575
 1317POPC   GL118925  26.998  22.101   9.170
 1317POPC   GL218926  27.187  22.379   9.095
 1317POPC   C1A18927  26.721  22.191   8.786
 1317POPC   D2A18928  26.449  22.132   8.403
 1317POPC   C3A18929  26.633  22.140   7.990
 1317POPC   C4A18930  26.590  22.108   7.557
 1317POPC   C1B18931  27.238  22.262   8.696
 1317POPC   C2B18932  27.001  22.140   8.347
 1317POPC   C3B18933  27.141  22.218   7.939
 1317POPC   C4B18934  27.056  22.300   7.546
 1318POPC   NC318935  30.105  19.440   9.613
 1318POPC   PO418936  29.925  18.764   9.492
 1318POPC   GL118937  29.950  19.072   9.145
 1318POPC   GL218938  29.665  19.165   8.980
 1318POPC   C1A18939  30.100  19.197   8.698
 1318POPC   D2A18940  29.920  19.130   8.280
 1318POPC   C3A18941  30.086  19.024   7.872
 1318POPC   C4A18942  29.940  18.985   7.445
 1318POPC   C1B18943  29.674  19.503   8.650
 1318POPC   C2B18944  29.702  19.582   8.201
 1318POPC   C3B18945  29.595  19.273   7.844
 1318POPC   C4B18946  29.192  19.306   7.553
 1319POPC   NC318947  31.017  35.777   9.755
 1319POPC   PO418948  30.572  36.329   9.621
 1319POPC   GL118949  30.716  36.307   9.169
 1319POPC   GL218950  30.912  36.057   9.075
 1319POPC   C1A18951  30.577  36.127   8.736
 1319POPC   D2A18952  30.610  36.366   8.382
 1319POPC   C3A18953  30.643  36.182   8.001
 1319POPC   C4A18954  30.598  36.393   7.599
 1319POPC   C1B18955  30.999  35.808   8.703
 1319POPC   C2B18956  31.040  35.942   8.262
 1319POPC   C3B18957  31.159  35.757   7.876
 1319POPC   C4B18958  31.090  35.548   7.509
 1320POPC   NC318959  28.765   2.602   9.433
 1320POPC   PO418960  29.411   2.752   9.444
 1320POPC   GL118961  29.182   2.634   9.107
 1320POPC   GL218962  29.025   2.965   9.146
 1320POPC   C1A18963  29.238   2.601   8.667
 1320POPC   D2A18964  29.147   2.532   8.227
 1320POPC   C3A18965  29.307   2.681   7.864
 1320POPC   C4A18966  29.107   2.356   7.627
 1320POPC   C1B18967  28.943   3.204   8.790
 1320POPC   C2B18968  29.050   3.014   8.396
 1320POPC   C3B18969  28.898   2.973   7.989
 1320POPC   C4B18970  28.909   2.810   7.553
 1321POPC   NC318971   4.706  42.568   9.553
 1321POPC   PO418972   4.103  42.936   9.499
 1321POPC   GL118973   4.103  43.023   9.105
 1321POPC   GL218974   4.454  43.064   9.087
 1321POPC   C1A18975   4.112  43.195   8.695
 1321POPC   D2A18976   4.423  43.226   8.424
 1321POPC   C3A18977   4.350  43.339   8.040
 1321POPC   C4A18978   4.080  43.041   7.919
 1321POPC   C1B18979   4.699  42.865   8.753
 1321POPC   C2B18980   4.887  43.022   8.356
 1321POPC   C3B18981   4.673  42.949   7.958
 1321POPC   C4B18982   4.655  42.946   7.489
 1322POPC   NC318983   1.717  22.238   9.423
 1322POPC   PO418984   2.361  21.869   9.469
 1322POPC   GL118985   2.162  22.139   9.156
 1322POPC   GL218986   2.197  22.502   9.175
 1322POPC   C1A18987   1.911  22.311   8.767
 1322POPC   D2A18988   1.665  22.352   8.374
 1322POPC   C3A18989   1.784  22.146   8.003
 1322POPC   C4A18990   1.909  22.017   7.589
 1322POPC   C1B18991   2.412  22.363   8.771
 1322POPC   C2B18992   2.264  22.144   8.366
 1322POPC   C3B18993   2.275  22.303   7.902
 1322POPC   C4B18994   2.168  22.565   7.521
 1323POPC   NC318995  21.661   7.857   9.283
 1323POPC   PO418996  21.572   7.147   9.434
 1323POPC   GL118997  21.358   7.363   9.116
 1323POPC   GL218998  21.082   7.596   9.206
 1323POPC   C1A18999  21.213   7.183   8.749
 1323POPC   D2A19000  21.279   7.321   8.346
 1323POPC   C3A19001  21.505   7.144   8.023
 1323POPC   C4A19002  21.225   7.285   7.720
 1323POPC   C1B19003  21.181   7.798   8.800
 1323POPC   C2B19004  21.355   7.827   8.403
 1323POPC   C3B19005  21.546   7.663   8.024
 1323POPC   C4B19006  21.304   7.783   7.672
 1324POPC   NC319007  22.709   2.547   9.455
 1324POPC   PO419008  23.091   3.161   9.576
 1324POPC   GL119009  22.960   2.967   9.187
 1324POPC   GL219010  23.236   2.737   9.237
 1324POPC   C1A19011  22.762   2.753   8.785
 1324POPC   D2A19012  22.663   2.554   8.353
 1324POPC   C3A19013  22.707   2.820   7.964
 1324POPC   C4A19014  22.496   2.689   7.573
 1324POPC   C1B19015  23.324   2.918   8.825
 1324POPC   C2B19016  23.137   2.895   8.455
 1324POPC   C3B19017  23.194   2.940   8.043
 1324POPC   C4B19018  23.251   2.579   7.771
 1325POPC   NC319019   2.388   3.089   9.439
 1325POPC   PO419020   1.775   2.677   9.421
 1325POPC   GL119021   1.992   2.915   9.135
 1325POPC   GL219022   2.275   2.681   9.146
 1325POPC   C1A19023   1.885   3.043   8.711
 1325POPC   D2A19024   2.006   3.200   8.300
 1325POPC   C3A19025   1.761   3.152   7.937
 1325POPC   C4A19026   1.535   2.840   7.690
 1325POPC   C1B19027   2.099   2.554   8.761
 1325POPC   C2B19028   2.106   2.689   8.352
 1325POPC   C3B19029   1.943   2.672   7.967
 1325POPC   C4B19030   2.062   2.463   7.620
 1326POPC   NC319031  10.891   6.711   9.496
 1326POPC   PO419032  10.317   6.349   9.352
 1326POPC   GL119033  10.546   6.692   9.073
 1326POPC   GL219034  10.881   6.913   9.038
 1326POPC   C1A19035  10.582   6.632   8.617
 1326POPC   D2A19036  10.357   6.704   8.225
 1326POPC   C3A19037  10.396   6.637   7.806
 1326POPC   C4A19038  10.176   6.271   7.763
 1326POPC   C1B19039  11.049   6.813   8.614
 1326POPC   C2B19040  10.894   6.706   8.205
 1326POPC   C3B19041  10.878   6.753   7.749
 1326POPC   C4B19042  10.941   6.709   7.301
 1327POPC   NC319043  21.885  41.274   9.498
 1327POPC   PO419044  22.386  41.653   9.730
 1327POPC   GL119045  22.309  41.446   9.277
 1327POPC   GL219046  22.556  41.190   9.128
 1327POPC   C1A19047  22.146  41.347   8.855
 1327POPC   D2A19048  21.935  41.327   8.441
 1327POPC   C3A19049  22.021  41.664   8.169
 1327POPC   C4A19050  21.976  41.562   7.733
 1327POPC   C1B19051  22.675  41.390   8.731
 1327POPC   C2B19052  22.503  41.492   8.318
 1327POPC   C3B19053  22.274  41.254   8.024
 1327POPC   C4B19054  22.350  41.132   7.667
 1328POPC   NC319055  29.009  14.856   9.586
 1328POPC   PO419056  29.077  15.517   9.560
 1328POPC   GL119057  29.128  15.215   9.219
 1328POPC   GL219058  29.333  14.894   9.197
 1328POPC   C1A19059  29.135  15.258   8.788
 1328POPC   D2A19060  29.257  15.431   8.400
 1328POPC   C3A19061  29.125  15.209   8.058
 1328POPC   C4A19062  29.088  15.375   7.666
 1328POPC   C1B19063  29.466  14.849   8.785
 1328POPC   C2B19064  29.494  14.981   8.379
 1328POPC   C3B19065  29.407  14.781   7.989
 1328POPC   C4B19066  29.133  14.870   7.662
 1329POPC   NC319067  16.794  11.412   9.530
 1329POPC   PO419068  16.780  10.721   9.442
 1329POPC   GL119069  16.597  11.069   9.164
 1329POPC   GL219070  16.539  11.436   9.087
 1329POPC   C1A19071  16.575  11.041   8.753
 1329POPC   D2A19072  16.428  11.116   8.390
 1329POPC   C3A19073  16.689  11.308   8.120
 1329POPC   C4A19074  16.540  11.443   7.740
 1329POPC   C1B19075  16.923  11.441   8.831
 1329POPC   C2B19076  17.062  11.578   8.422
 1329POPC   C3B19077  17.008  11.748   8.036
 1329POPC   C4B19078  17.038  11.424   7.754
 1330POPC   NC319079  38.063  31.339   9.537
 1330POPC   PO419080  38.530  31.807   9.455
 1330POPC   GL119081  38.469  31.474   9.151
 1330POPC   GL219082  38.806  31.477   9.098
 1330POPC   C1A19083  38.510  31.354   8.677
 1330POPC   D2A19084  38.283  31.511   8.283
 1330POPC   C3A19085  38.354  31.510   7.834
 1330POPC   C4A19086  38.316  31.202   7.513
 1330POPC   C1B19087  38.936  31.681   8.732
 1330POPC   C2B19088  38.769  31.678   8.327
 1330POPC   C3B19089  38.864  31.462   7.946
 1330POPC   C4B19090  38.774  31.515   7.520
 1331POPC   NC319091  39.696   9.757   9.358
 1331POPC   PO419092  40.356   9.554   9.505
 1331POPC   GL119093  40.209   9.820   9.207
 1331POPC   GL219094  40.069   9.563   9.032
 1331POPC   C1A19095  40.334   9.950   8.804
 1331POPC   D2A19096  40.245   9.876   8.354
 1331POPC   C3A19097  40.106   9.474   8.176
 1331POPC   C4A19098  40.096   9.489   7.730
 1331POPC   C1B19099  39.856   9.769   8.701
 1331POPC   C2B19100  39.632   9.594   8.378
 1331POPC   C3B19101  39.643   9.702   7.955
 1331POPC   C4B19102  39.636   9.593   7.527
 1332POPC   NC319103  24.649  25.967   9.799
 1332POPC   PO419104  25.283  26.065   9.569
 1332POPC   GL119105  25.359  26.013   9.137
 1332POPC   GL219106  25.583  25.758   9.150
 1332POPC   C1A19107  25.185  25.862   8.727
 1332POPC   D2A19108  25.105  25.645   8.306
 1332POPC   C3A19109  25.014  25.886   7.932
 1332POPC   C4A19110  25.258  26.238   7.745
 1332POPC   C1B19111  25.673  25.708   8.728
 1332POPC   C2B19112  25.543  25.939   8.355
 1332POPC   C3B19113  25.524  25.833   7.945
 1332POPC   C4B19114  25.785  25.568   7.795
 1333POPC   NC319115  10.710   9.730   9.506
 1333POPC   PO419116  10.198  10.028   9.559
 1333POPC   GL119117  10.376   9.901   9.157
 1333POPC   GL219118  10.164   9.669   8.963
 1333POPC   C1A19119  10.621  10.060   8.817
 1333POPC   D2A19120  10.479  10.375   8.489
 1333POPC   C3A19121  10.369  10.117   8.125
 1333POPC   C4A19122  10.641   9.898   7.836
 1333POPC   C1B19123  10.521   9.539   8.727
 1333POPC   C2B19124  10.475   9.382   8.311
 1333POPC   C3B19125  10.701   9.393   7.945
 1333POPC   C4B19126  11.165   9.374   7.824
 1334POPC   NC319127   2.519   3.561   9.943
 1334POPC   PO419128   2.041   3.398   9.515
 1334POPC   GL119129   2.004   3.432   9.096
 1334POPC   GL219130   1.664   3.405   9.052
 1334POPC   C1A19131   2.240   3.405   8.720
 1334POPC   D2A19132   2.453   3.537   8.359
 1334POPC   C3A19133   2.213   3.582   8.022
 1334POPC   C4A19134   2.084   3.448   7.669
 1334POPC   C1B19135   1.701   3.520   8.610
 1334POPC   C2B19136   1.733   3.623   8.186
 1334POPC   C3B19137   1.583   3.623   7.793
 1334POPC   C4B19138   1.644   3.355   7.448
 1335POPC   NC319139   3.126   2.956   9.800
 1335POPC   PO419140   2.949   2.435   9.474
 1335POPC   GL119141   2.793   2.592   9.123
 1335POPC   GL219142   2.737   2.942   9.093
 1335POPC   C1A19143   2.964   2.642   8.743
 1335POPC   D2A19144   2.946   2.957   8.469
 1335POPC   C3A19145   2.897   2.796   8.052
 1335POPC   C4A19146   2.843   2.978   7.664
 1335POPC   C1B19147   2.476   2.921   8.717
 1335POPC   C2B19148   2.483   3.032   8.278
 1335POPC   C3B19149   2.358   2.968   7.864
 1335POPC   C4B19150   2.457   2.735   7.457
 1336POPC   NC319151  43.122  41.835   9.843
 1336POPC   PO419152  42.909  41.282   9.459
 1336POPC   GL119153  43.138  41.483   9.136
 1336POPC   GL219154  42.851  41.415   8.944
 1336POPC   C1A19155  43.351  41.380   8.731
 1336POPC   D2A19156  43.344  41.547   8.321
 1336POPC   C3A19157  43.270  41.336   7.924
 1336POPC   C4A19158  43.514  41.418   7.537
 1336POPC   C1B19159  42.842  41.427   8.505
 1336POPC   C2B19160  42.877  41.751   8.220
 1336POPC   C3B19161  42.913  41.962   7.879
 1336POPC   C4B19162  43.280  41.813   7.726
 1337POPC   NC319163  12.420  12.377   9.391
 1337POPC   PO419164  12.028  11.856   9.638
 1337POPC   GL119165  12.041  12.081   9.198
 1337POPC   GL219166  11.781  11.957   8.992
 1337POPC   C1A19167  12.009  12.336   8.760
 1337POPC   D2A19168  11.977  12.087   8.336
 1337POPC   C3A19169  11.969  12.203   7.871
 1337POPC   C4A19170  11.734  12.457   7.539
 1337POPC   C1B19171  12.212  11.877   8.761
 1337POPC   C2B19172  12.310  11.613   8.431
 1337POPC   C3B19173  12.440  11.616   8.015
 1337POPC   C4B19174  12.214  11.742   7.683
 1338POPC   NC319175  19.088  34.320   9.555
 1338POPC   PO419176  18.984  33.686   9.528
 1338POPC   GL119177  18.950  33.698   9.095
 1338POPC   GL219178  19.307  33.656   9.008
 1338POPC   C1A19179  18.982  33.958   8.699
 1338POPC   D2A19180  19.215  34.009   8.303
 1338POPC   C3A19181  18.948  33.975   7.941
 1338POPC   C4A19182  18.649  33.662   7.816
 1338POPC   C1B19183  19.091  33.436   8.672
 1338POPC   C2B19184  18.924  33.581   8.277
 1338POPC   C3B19185  19.122  33.505   7.872
 1338POPC   C4B19186  19.337  33.345   7.521
 1339POPC   NC319187   0.985  31.620   9.618
 1339POPC   PO419188   1.616  31.700   9.397
 1339POPC   GL119189   1.434  31.466   9.052
 1339POPC   GL219190   1.139  31.339   9.194
 1339POPC   C1A19191   1.406  31.412   8.611
 1339POPC   D2A19192   1.179  31.693   8.334
 1339POPC   C3A19193   1.390  31.651   7.939
 1339POPC   C4A19194   1.553  31.236   7.825
 1339POPC   C1B19195   0.951  31.417   8.806
 1339POPC   C2B19196   0.994  31.201   8.392
 1339POPC   C3B19197   0.966  31.368   7.984
 1339POPC   C4B19198   0.924  31.773   7.754
 1340POPC   NC319199  23.648  29.373   9.553
 1340POPC   PO419200  23.520  29.976   9.437
 1340POPC   GL119201  23.705  29.952   9.031
 1340POPC   GL219202  23.915  29.669   9.001
 1340POPC   C1A19203  23.716  29.925   8.581
 1340POPC   D2A19204  23.854  30.185   8.244
 1340POPC   C3A19205  23.751  30.137   7.782
 1340POPC   C4A19206  23.913  30.285   7.385
 1340POPC   C1B19207  23.851  29.430   8.678
 1340POPC   C2B19208  23.660  29.456   8.315
 1340POPC   C3B19209  23.618  29.676   7.937
 1340POPC   C4B19210  23.788  29.579   7.534
 1341POPC   NC319211  22.019   9.318   9.362
 1341POPC   PO419212  22.396   8.845   9.711
 1341POPC   GL119213  22.409   8.967   9.278
 1341POPC   GL219214  22.107   8.846   9.204
 1341POPC   C1A19215  22.404   9.151   8.819
 1341POPC   D2A19216  22.234   9.247   8.400
 1341POPC   C3A19217  22.428   9.176   7.988
 1341POPC   C4A19218  22.414   8.769   7.782
 1341POPC   C1B19219  21.906   9.032   8.807
 1341POPC   C2B19220  21.865   8.838   8.430
 1341POPC   C3B19221  22.006   8.906   8.050
 1341POPC   C4B19222  21.911   9.020   7.640
 1342POPC   NC319223  20.159  31.379   9.658
 1342POPC   PO419224  20.790  31.106   9.552
 1342POPC   GL119225  20.722  31.317   9.149
 1342POPC   GL219226  20.391  31.398   9.209
 1342POPC   C1A19227  20.820  31.524   8.771
 1342POPC   D2A19228  20.872  31.405   8.345
 1342POPC   C3A19229  20.664  31.673   8.041
 1342POPC   C4A19230  20.738  31.616   7.622
 1342POPC   C1B19231  20.290  31.303   8.800
 1342POPC   C2B19232  20.354  31.394   8.359
 1342POPC   C3B19233  20.552  31.175   7.998
 1342POPC   C4B19234  20.442  31.184   7.561
 1343POPC   NC319235  26.353  28.010   9.517
 1343POPC   PO419236  25.983  27.492   9.572
 1343POPC   GL119237  26.022  27.345   9.164
 1343POPC   GL219238  26.370  27.336   9.158
 1343POPC   C1A19239  25.921  27.524   8.748
 1343POPC   D2A19240  25.640  27.789   8.465
 1343POPC   C3A19241  25.836  27.851   8.078
 1343POPC   C4A19242  25.827  27.638   7.688
 1343POPC   C1B19243  26.419  27.677   8.841
 1343POPC   C2B19244  26.240  27.785   8.429
 1343POPC   C3B19245  26.231  27.543   8.037
 1343POPC   C4B19246  26.402  27.695   7.664
 1344POPC   NC319247   0.298   7.075   9.519
 1344POPC   PO419248   0.588   6.453   9.483
 1344POPC   GL119249   0.452   6.494   9.084
 1344POPC   GL219250   0.290   6.782   9.104
 1344POPC   C1A19251   0.547   6.706   8.662
 1344POPC   D2A19252   0.654   6.778   8.216
 1344POPC   C3A19253   0.501   6.611   7.859
 1344POPC   C4A19254   0.705   6.499   7.444
 1344POPC   C1B19255   0.086   6.931   8.725
 1344POPC   C2B19256   0.234   7.044   8.337
 1344POPC   C3B19257   0.083   6.910   7.944
 1344POPC   C4B19258  44.992   6.732   7.553
 1345POPC   NC319259  41.770  35.142   9.383
 1345POPC   PO419260  41.238  35.484   9.426
 1345POPC   GL119261  41.384  35.512   9.073
 1345POPC   GL219262  41.023  35.611   8.982
 1345POPC   C1A19263  41.613  35.390   8.718
 1345POPC   D2A19264  41.536  35.541   8.314
 1345POPC   C3A19265  41.579  35.246   8.010
 1345POPC   C4A19266  41.599  35.462   7.646
 1345POPC   C1B19267  41.116  35.425   8.631
 1345POPC   C2B19268  41.072  35.274   8.241
 1345POPC   C3B19269  41.120  35.442   7.864
 1345POPC   C4B19270  41.125  35.293   7.473
 1346POPC   NC319271  39.297  20.705   9.584
 1346POPC   PO419272  38.955  20.113   9.634
 1346POPC   GL119273  39.046  20.439   9.239
 1346POPC   GL219274  39.394  20.567   9.118
 1346POPC   C1A19275  38.992  20.610   8.802
 1346POPC   D2A19276  39.065  20.886   8.440
 1346POPC   C3A19277  39.058  20.717   8.038
 1346POPC   C4A19278  39.108  20.875   7.630
 1346POPC   C1B19279  39.513  20.647   8.703
 1346POPC   C2B19280  39.536  20.717   8.284
 1346POPC   C3B19281  39.508  20.635   7.857
 1346POPC   C4B19282  39.259  20.380   7.586
 1347POPC   NC319283  23.533  41.348   9.492
 1347POPC   PO419284  24.139  41.678   9.543
 1347POPC   GL119285  24.057  41.448   9.162
 1347POPC   GL219286  23.708  41.504   9.044
 1347POPC   C1A19287  24.103  41.498   8.719
 1347POPC   D2A19288  23.886  41.752   8.446
 1347POPC   C3A19289  23.975  41.587   8.073
 1347POPC   C4A19290  24.121  41.752   7.689
 1347POPC   C1B19291  23.513  41.852   8.813
 1347POPC   C2B19292  23.379  41.961   8.412
 1347POPC   C3B19293  23.545  41.863   8.024
 1347POPC   C4B19294  23.633  41.590   7.680
 1348POPC   NC319295  24.957  41.893   9.393
 1348POPC   PO419296  24.650  42.524   9.579
 1348POPC   GL119297  24.466  42.485   9.156
 1348POPC   GL219298  24.115  42.424   9.122
 1348POPC   C1A19299  24.590  42.486   8.737
 1348POPC   D2A19300  24.708  42.194   8.466
 1348POPC   C3A19301  24.822  42.420   8.176
 1348POPC   C4A19302  24.691  42.282   7.809
 1348POPC   C1B19303  24.115  42.611   8.676
 1348POPC   C2B19304  24.334  42.548   8.274
 1348POPC   C3B19305  24.339  42.627   7.840
 1348POPC   C4B19306  24.381  42.680   7.387
 1349POPC   NC319307  30.167   5.445   9.488
 1349POPC   PO419308  29.592   5.034   9.367
 1349POPC   GL119309  29.922   4.860   9.100
 1349POPC   GL219310  30.185   5.104   9.108
 1349POPC   C1A19311  30.044   4.882   8.664
 1349POPC   D2A19312  29.741   4.995   8.363
 1349POPC   C3A19313  29.886   4.903   7.977
 1349POPC   C4A19314  29.633   4.989   7.653
 1349POPC   C1B19315  30.091   5.380   8.749
 1349POPC   C2B19316  30.160   5.273   8.301
 1349POPC   C3B19317  29.994   5.393   7.890
 1349POPC   C4B19318  30.150   5.592   7.548
 1350POPC   NC319319  25.600  14.581   9.344
 1350POPC   PO419320  26.259  14.367   9.442
 1350POPC   GL119321  26.032  14.366   9.087
 1350POPC   GL219322  26.041  14.717   9.093
 1350POPC   C1A19323  25.967  14.142   8.695
 1350POPC   D2A19324  25.754  14.062   8.319
 1350POPC   C3A19325  25.941  14.186   7.926
 1350POPC   C4A19326  25.749  14.310   7.532
 1350POPC   C1B19327  25.866  14.671   8.675
 1350POPC   C2B19328  25.741  14.574   8.242
 1350POPC   C3B19329  25.999  14.687   7.883
 1350POPC   C4B19330  26.328  14.808   7.570
 1351POPC   NC319331   7.436  41.070   9.755
 1351POPC   PO419332   7.448  41.736   9.475
 1351POPC   GL119333   7.371  41.548   9.077
 1351POPC   GL219334   7.635  41.330   8.937
 1351POPC   C1A19335   7.373  41.737   8.651
 1351POPC   D2A19336   7.030  41.822   8.309
 1351POPC   C3A19337   7.177  41.722   7.892
 1351POPC   C4A19338   7.417  41.904   7.599
 1351POPC   C1B19339   7.290  41.213   8.698
 1351POPC   C2B19340   7.196  41.354   8.294
 1351POPC   C3B19341   7.199  41.185   7.894
 1351POPC   C4B19342   7.556  40.995   7.718
 1352POPC   NC319343  31.747  38.574   9.819
 1352POPC   PO419344  32.287  38.272   9.595
 1352POPC   GL119345  32.127  38.295   9.223
 1352POPC   GL219346  31.993  38.616   9.344
 1352POPC   C1A19347  32.288  38.194   8.805
 1352POPC   D2A19348  32.490  38.453   8.500
 1352POPC   C3A19349  32.577  38.383   8.076
 1352POPC   C4A19350  32.441  38.281   7.686
 1352POPC   C1B19351  32.108  38.688   8.903
 1352POPC   C2B19352  32.077  38.878   8.496
 1352POPC   C3B19353  32.181  38.745   8.109
 1352POPC   C4B19354  32.165  38.705   7.685
 1353POPC   NC319355  11.279  41.804   9.444
 1353POPC   PO419356  11.246  42.487   9.434
 1353POPC   GL119357  11.474  42.288   9.101
 1353POPC   GL219358  11.849  42.351   9.052
 1353POPC   C1A19359  11.237  42.268   8.730
 1353POPC   D2A19360  11.039  42.462   8.373
 1353POPC   C3A19361  11.050  42.216   7.988
 1353POPC   C4A19362  10.808  42.167   7.589
 1353POPC   C1B19363  11.688  42.521   8.673
 1353POPC   C2B19364  11.528  42.395   8.275
 1353POPC   C3B19365  11.488  42.468   7.845
 1353POPC   C4B19366  11.769  42.281   7.578
 1354POPC   NC319367  30.148  36.568   9.500
 1354POPC   PO419368  29.787  37.167   9.459
 1354POPC   GL119369  29.926  36.987   9.080
 1354POPC   GL219370  29.899  36.660   9.058
 1354POPC   C1A19371  29.928  37.209   8.699
 1354POPC   D2A19372  30.192  37.297   8.393
 1354POPC   C3A19373  30.079  37.117   8.063
 1354POPC   C4A19374  29.805  37.210   7.761
 1354POPC   C1B19375  29.796  36.720   8.638
 1354POPC   C2B19376  29.732  36.527   8.293
 1354POPC   C3B19377  29.808  36.677   7.931
 1354POPC   C4B19378  30.141  36.782   7.696
 1355POPC   NC319379  36.998   3.452   9.524
 1355POPC   PO419380  36.859   4.115   9.737
 1355POPC   GL119381  36.931   3.909   9.263
 1355POPC   GL219382  36.734   3.599   9.107
 1355POPC   C1A19383  37.016   3.837   8.780
 1355POPC   D2A19384  36.781   3.718   8.386
 1355POPC   C3A19385  36.969   3.626   7.980
 1355POPC   C4A19386  36.904   3.576   7.477
 1355POPC   C1B19387  36.817   3.325   8.711
 1355POPC   C2B19388  36.973   3.186   8.264
 1355POPC   C3B19389  37.026   3.182   7.771
 1355POPC   C4B19390  37.112   3.127   7.290
 1356POPC   NC319391  32.497   8.961   9.652
 1356POPC   PO419392  31.897   9.274   9.431
 1356POPC   GL119393  32.154   9.049   9.139
 1356POPC   GL219394  32.475   8.850   9.136
 1356POPC   C1A19395  32.095   8.991   8.724
 1356POPC   D2A19396  32.151   9.211   8.394
 1356POPC   C3A19397  32.148   8.961   8.079
 1356POPC   C4A19398  32.180   8.932   7.688
 1356POPC   C1B19399  32.404   8.592   8.782
 1356POPC   C2B19400  32.259   8.575   8.381
 1356POPC   C3B19401  32.505   8.587   8.001
 1356POPC   C4B19402  32.623   8.700   7.580
 1357POPC   NC319403   6.836   9.447   9.689
 1357POPC   PO419404   6.383   9.843   9.412
 1357POPC   GL119405   6.536   9.660   9.047
 1357POPC   GL219406   6.870   9.627   9.151
 1357POPC   C1A19407   6.459   9.752   8.604
 1357POPC   D2A19408   6.451  10.078   8.327
 1357POPC   C3A19409   6.425  10.032   7.910
 1357POPC   C4A19410   6.668   9.691   7.772
 1357POPC   C1B19411   6.951   9.615   8.695
 1357POPC   C2B19412   6.846   9.595   8.253
 1357POPC   C3B19413   7.149   9.643   7.893
 1357POPC   C4B19414   7.104   9.926   7.536
 1358POPC   NC319415   7.849  43.804   9.762
 1358POPC   PO419416   7.372  44.197   9.392
 1358POPC   GL119417   7.456  43.817   9.145
 1358POPC   GL219418   7.143  43.626   9.157
 1358POPC   C1A19419   7.621  43.877   8.733
 1358POPC   D2A19420   7.795  44.111   8.419
 1358POPC   C3A19421   7.737  43.971   8.002
 1358POPC   C4A19422   7.902  44.026   7.628
 1358POPC   C1B19423   7.215  43.601   8.704
 1358POPC   C2B19424   7.321  43.834   8.295
 1358POPC   C3B19425   7.207  44.117   7.939
 1358POPC   C4B19426   7.087  44.068   7.499
 1359POPC   NC319427  25.041   8.119   9.492
 1359POPC   PO419428  25.696   8.030   9.454
 1359POPC   GL119429  25.387   8.021   9.106
 1359POPC   GL219430  25.010   7.988   9.008
 1359POPC   C1A19431  25.397   8.190   8.710
 1359POPC   D2A19432  25.569   8.045   8.353
 1359POPC   C3A19433  25.332   8.105   8.010
 1359POPC   C4A19434  25.524   8.078   7.621
 1359POPC   C1B19435  24.857   8.321   8.727
 1359POPC   C2B19436  24.907   8.331   8.269
 1359POPC   C3B19437  24.833   8.085   7.909
 1359POPC   C4B19438  25.045   8.314   7.629
 1360POPC   NC319439  31.554  32.715   9.627
 1360POPC   PO419440  31.579  33.416   9.498
 1360POPC   GL119441  31.414  33.097   9.231
 1360POPC   GL219442  31.071  33.186   9.290
 1360POPC   C1A19443  31.550  32.931   8.811
 1360POPC   D2A19444  31.768  33.078   8.424
 1360POPC   C3A19445  31.516  33.098   8.078
 1360POPC   C4A19446  31.484  32.794   7.766
 1360POPC   C1B19447  31.072  33.213   8.825
 1360POPC   C2B19448  31.142  32.901   8.484
 1360POPC   C3B19449  31.060  32.841   8.038
 1360POPC   C4B19450  31.142  33.158   7.731
 1361POPC   NC319451  29.435  15.642   9.289
 1361POPC   PO419452  29.865  15.943   9.710
 1361POPC   GL119453  29.892  15.919   9.254
 1361POPC   GL219454  30.012  15.587   9.225
 1361POPC   C1A19455  29.779  15.891   8.799
 1361POPC   D2A19456  30.067  15.936   8.440
 1361POPC   C3A19457  29.872  15.937   8.030
 1361POPC   C4A19458  29.724  15.686   7.685
 1361POPC   C1B19459  30.130  15.532   8.812
 1361POPC   C2B19460  30.237  15.366   8.440
 1361POPC   C3B19461  30.128  15.466   8.035
 1361POPC   C4B19462  30.092  15.293   7.637
 1362POPC   NC319463  30.413   2.543   9.556
 1362POPC   PO419464  30.995   2.761   9.747
 1362POPC   GL119465  30.669   2.868   9.268
 1362POPC   GL219466  30.505   2.587   9.040
 1362POPC   C1A19467  30.662   2.968   8.757
 1362POPC   D2A19468  30.813   3.243   8.392
 1362POPC   C3A19469  30.708   3.093   7.939
 1362POPC   C4A19470  30.587   2.749   7.639
 1362POPC   C1B19471  30.839   2.447   8.739
 1362POPC   C2B19472  30.794   2.273   8.355
 1362POPC   C3B19473  30.884   2.490   8.000
 1362POPC   C4B19474  30.912   2.351   7.602
 1363POPC   NC319475  21.254  31.126   9.465
 1363POPC   PO419476  21.638  30.585   9.517
 1363POPC   GL119477  21.666  30.525   9.118
 1363POPC   GL219478  21.379  30.752   9.087
 1363POPC   C1A19479  21.563  30.360   8.762
 1363POPC   D2A19480  21.670  30.513   8.428
 1363POPC   C3A19481  21.487  30.713   8.092
 1363POPC   C4A19482  21.649  30.561   7.699
 1363POPC   C1B19483  21.106  30.598   8.773
 1363POPC   C2B19484  21.163  30.398   8.375
 1363POPC   C3B19485  21.031  30.502   7.962
 1363POPC   C4B19486  21.101  30.617   7.533
 1364POPC   NC319487  42.702   5.179   9.487
 1364POPC   PO419488  43.305   4.912   9.495
 1364POPC   GL119489  43.038   4.900   9.154
 1364POPC   GL219490  42.977   5.245   9.065
 1364POPC   C1A19491  43.216   4.898   8.758
 1364POPC   D2A19492  43.098   5.057   8.367
 1364POPC   C3A19493  43.325   4.866   8.047
 1364POPC   C4A19494  42.974   4.665   7.915
 1364POPC   C1B19495  42.749   5.310   8.664
 1364POPC   C2B19496  42.683   5.311   8.218
 1364POPC   C3B19497  42.915   5.182   7.874
 1364POPC   C4B19498  43.305   5.287   7.726
 1365POPC   NC319499  22.554   7.491   9.749
 1365POPC   PO419500  23.077   7.713   9.390
 1365POPC   GL119501  22.859   7.561   9.085
 1365POPC   GL219502  23.015   7.240   9.029
 1365POPC   C1A19503  22.681   7.761   8.752
 1365POPC   D2A19504  22.856   7.809   8.375
 1365POPC   C3A19505  23.098   7.554   8.119
 1365POPC   C4A19506  23.094   7.674   7.687
 1365POPC   C1B19507  23.046   7.340   8.602
 1365POPC   C2B19508  22.762   7.183   8.296
 1365POPC   C3B19509  22.624   7.208   7.941
 1365POPC   C4B19510  23.039   7.196   7.762
 1366POPC   NC319511  16.423  19.565   9.171
 1366POPC   PO419512  16.764  19.965   9.605
 1366POPC   GL119513  16.881  19.898   9.180
 1366POPC   GL219514  17.209  19.777   9.263
 1366POPC   C1A19515  16.762  19.909   8.730
 1366POPC   D2A19516  16.681  20.081   8.324
 1366POPC   C3A19517  16.470  19.834   8.042
 1366POPC   C4A19518  16.565  19.925   7.609
 1366POPC   C1B19519  17.219  19.695   8.804
 1366POPC   C2B19520  17.034  19.667   8.352
 1366POPC   C3B19521  16.929  19.657   7.902
 1366POPC   C4B19522  16.552  19.430   7.740
 1367POPC   NC319523  42.847  29.201   9.408
 1367POPC   PO419524  43.591  28.931   9.465
 1367POPC   GL119525  43.211  28.920   9.137
 1367POPC   GL219526  43.121  29.247   8.993
 1367POPC   C1A19527  42.958  28.890   8.685
 1367POPC   D2A19528  42.771  28.897   8.252
 1367POPC   C3A19529  43.035  29.032   7.908
 1367POPC   C4A19530  43.190  28.981   7.461
 1367POPC   C1B19531  42.779  29.400   8.736
 1367POPC   C2B19532  42.600  29.399   8.318
 1367POPC   C3B19533  42.700  29.430   7.912
 1367POPC   C4B19534  43.020  29.458   7.582
 1368POPC   NC319535  39.314  29.667   9.809
 1368POPC   PO419536  39.226  29.124   9.414
 1368POPC   GL119537  39.192  29.103   9.028
 1368POPC   GL219538  39.550  29.071   9.011
 1368POPC   C1A19539  39.062  29.331   8.690
 1368POPC   D2A19540  38.993  29.132   8.349
 1368POPC   C3A19541  39.318  29.215   8.082
 1368POPC   C4A19542  39.199  29.322   7.706
 1368POPC   C1B19543  39.449  29.037   8.591
 1368POPC   C2B19544  39.433  28.763   8.284
 1368POPC   C3B19545  39.636  28.846   7.939
 1368POPC   C4B19546  39.675  29.171   7.659
 1369POPC   NC319547  30.723  27.626   9.454
 1369POPC   PO419548  30.424  27.013   9.354
 1369POPC   GL119549  30.608  27.365   9.021
 1369POPC   GL219550  30.536  27.743   9.014
 1369POPC   C1A19551  30.671  27.571   8.568
 1369POPC   D2A19552  30.826  27.553   8.150
 1369POPC   C3A19553  30.526  27.577   7.831
 1369POPC   C4A19554  30.466  27.338   7.471
 1369POPC   C1B19555  30.912  27.943   8.818
 1369POPC   C2B19556  31.027  27.962   8.369
 1369POPC   C3B19557  30.931  28.012   7.889
 1369POPC   C4B19558  30.780  27.864   7.435
 1370POPC   NC319559  12.297  10.597   9.614
 1370POPC   PO419560  11.738  10.255   9.539
 1370POPC   GL119561  12.006  10.372   9.195
 1370POPC   GL219562  12.346  10.219   9.242
 1370POPC   C1A19563  11.902  10.588   8.796
 1370POPC   D2A19564  12.141  10.601   8.408
 1370POPC   C3A19565  12.004  10.729   8.017
 1370POPC   C4A19566  11.567  10.698   7.965
 1370POPC   C1B19567  12.311  10.276   8.786
 1370POPC   C2B19568  12.419  10.184   8.355
 1370POPC   C3B19569  12.272  10.288   7.966
 1370POPC   C4B19570  12.400  10.206   7.573
 1371POPC   NC319571  36.541  43.919   9.572
 1371POPC   PO419572  35.965  43.778   9.545
 1371POPC   GL119573  36.245  43.793   9.184
 1371POPC   GL219574  36.467  43.516   9.204
 1371POPC   C1A19575  36.470  43.905   8.803
 1371POPC   D2A19576  36.209  43.944   8.452
 1371POPC   C3A19577  36.173  44.232   8.144
 1371POPC   C4A19578  36.184  43.986   7.807
 1371POPC   C1B19579  36.622  43.415   8.787
 1371POPC   C2B19580  36.754  43.657   8.437
 1371POPC   C3B19581  36.560  43.772   8.072
 1371POPC   C4B19582  36.459  43.569   7.671
 1372POPC   NC319583  16.221  28.588   9.513
 1372POPC   PO419584  16.849  28.350   9.576
 1372POPC   GL119585  16.832  28.284   9.152
 1372POPC   GL219586  16.488  28.212   9.119
 1372POPC   C1A19587  16.804  28.518   8.753
 1372POPC   D2A19588  16.854  28.401   8.315
 1372POPC   C3A19589  17.085  28.646   8.003
 1372POPC   C4A19590  17.089  28.642   7.509
 1372POPC   C1B19591  16.291  28.481   8.821
 1372POPC   C2B19592  16.346  28.566   8.400
 1372POPC   C3B19593  16.538  28.675   7.995
 1372POPC   C4B19594  16.326  28.528   7.633
 1373POPC   NC319595  20.904  32.732   9.627
 1373POPC   PO419596  21.397  33.140   9.683
 1373POPC   GL119597  21.222  33.026   9.250
 1373POPC   GL219598  21.528  33.044   9.056
 1373POPC   C1A19599  21.096  32.799   8.831
 1373POPC   D2A19600  20.887  32.836   8.427
 1373POPC   C3A19601  21.089  32.755   8.026
 1373POPC   C4A19602  21.357  32.868   7.738
 1373POPC   C1B19603  21.258  33.273   8.732
 1373POPC   C2B19604  21.253  33.182   8.282
 1373POPC   C3B19605  21.375  33.339   7.878
 1373POPC   C4B19606  21.753  33.149   7.628
 1374POPC   NC319607   0.976  27.226   9.850
 1374POPC   PO419608   1.024  27.786   9.478
 1374POPC   GL119609   1.240  27.639   9.132
 1374POPC   GL219610   1.569  27.724   9.181
 1374POPC   C1A19611   1.149  27.425   8.735
 1374POPC   D2A19612   0.892  27.435   8.360
 1374POPC   C3A19613   0.745  27.496   7.923
 1374POPC   C4A19614   1.014  27.511   7.557
 1374POPC   C1B19615   1.649  27.571   8.761
 1374POPC   C2B19616   1.479  27.496   8.360
 1374POPC   C3B19617   1.278  27.538   8.003
 1374POPC   C4B19618   1.504  27.629   7.643
 1375POPC   NC319619  25.570   3.626   9.579
 1375POPC   PO419620  24.934   3.554   9.632
 1375POPC   GL119621  25.203   3.568   9.230
 1375POPC   GL219622  25.378   3.903   9.197
 1375POPC   C1A19623  25.302   3.476   8.788
 1375POPC   D2A19624  25.464   3.395   8.351
 1375POPC   C3A19625  25.212   3.367   8.021
 1375POPC   C4A19626  25.163   3.236   7.657
 1375POPC   C1B19627  25.109   3.960   8.843
 1375POPC   C2B19628  25.223   3.846   8.418
 1375POPC   C3B19629  25.434   3.814   8.058
 1375POPC   C4B19630  25.307   3.785   7.658
 1376POPC   NC319631  34.050   8.698   9.534
 1376POPC   PO419632  33.489   9.003   9.371
 1376POPC   GL119633  33.781   8.805   9.098
 1376POPC   GL219634  34.056   8.537   9.055
 1376POPC   C1A19635  33.655   8.742   8.686
 1376POPC   D2A19636  33.498   8.744   8.264
 1376POPC   C3A19637  33.622   9.102   8.015
 1376POPC   C4A19638  33.857   9.046   7.648
 1376POPC   C1B19639  34.154   8.842   8.740
 1376POPC   C2B19640  34.009   8.921   8.335
 1376POPC   C3B19641  34.046   8.683   7.960
 1376POPC   C4B19642  33.943   8.556   7.510
 1377POPC   NC319643  34.166  31.359   9.393
 1377POPC   PO419644  33.603  31.571   9.672
 1377POPC   GL119645  33.731  31.630   9.241
 1377POPC   GL219646  33.534  31.393   9.084
 1377POPC   C1A19647  33.948  31.664   8.823
 1377POPC   D2A19648  33.762  31.642   8.380
 1377POPC   C3A19649  33.989  31.523   8.031
 1377POPC   C4A19650  33.789  31.456   7.667
 1377POPC   C1B19651  33.650  31.272   8.710
 1377POPC   C2B19652  33.790  31.121   8.359
 1377POPC   C3B19653  33.502  31.280   8.069
 1377POPC   C4B19654  33.408  31.130   7.676
 1378POPC   NC319655  21.118  34.687   9.483
 1378POPC   PO419656  20.470  34.562   9.391
 1378POPC   GL119657  20.665  34.751   9.049
 1378POPC   GL219658  20.933  34.516   9.042
 1378POPC   C1A19659  20.675  34.673   8.597
 1378POPC   D2A19660  20.516  34.383   8.287
 1378POPC   C3A19661  20.585  34.553   7.884
 1378POPC   C4A19662  20.530  34.551   7.437
 1378POPC   C1B19663  21.116  34.840   8.790
 1378POPC   C2B19664  21.237  34.955   8.390
 1378POPC   C3B19665  21.059  34.932   7.973
 1378POPC   C4B19666  20.978  34.713   7.588
 1379POPC   NC319667  14.263  35.459   9.481
 1379POPC   PO419668  14.684  34.892   9.469
 1379POPC   GL119669  14.561  35.242   9.135
 1379POPC   GL219670  14.161  35.258   9.034
 1379POPC   C1A19671  14.486  35.124   8.683
 1379POPC   D2A19672  14.607  35.302   8.313
 1379POPC   C3A19673  14.309  35.237   8.039
 1379POPC   C4A19674  14.256  35.180   7.635
 1379POPC   C1B19675  14.114  35.554   8.699
 1379POPC   C2B19676  14.038  35.629   8.264
 1379POPC   C3B19677  13.956  35.689   7.829
 1379POPC   C4B19678  14.234  35.663   7.477
 1380POPC   NC319679  10.390   5.482   9.641
 1380POPC   PO419680  10.958   5.582   9.385
 1380POPC   GL119681  10.583   5.269   9.226
 1380POPC   GL219682  10.576   4.956   9.046
 1380POPC   C1A19683  10.284   5.287   8.826
 1380POPC   D2A19684  10.294   5.087   8.391
 1380POPC   C3A19685  10.341   5.339   8.018
 1380POPC   C4A19686  10.424   5.115   7.658
 1380POPC   C1B19687  10.786   5.222   8.763
 1380POPC   C2B19688  10.737   5.336   8.377
 1380POPC   C3B19689  10.847   5.190   7.998
 1380POPC   C4B19690  10.788   5.476   7.675
 1381POPC   NC319691  17.849  30.117   9.789
 1381POPC   PO419692  17.259  30.430   9.539
 1381POPC   GL119693  17.269  30.682   9.144
 1381POPC   GL219694  17.423  30.414   9.026
 1381POPC   C1A19695  17.484  30.820   8.736
 1381POPC   D2A19696  17.702  30.699   8.324
 1381POPC   C3A19697  17.505  30.966   7.992
 1381POPC   C4A19698  17.521  30.960   7.533
 1381POPC   C1B19699  17.640  30.324   8.679
 1381POPC   C2B19700  17.533  30.167   8.276
 1381POPC   C3B19701  17.794  30.180   7.937
 1381POPC   C4B19702  17.578  30.505   7.742
 1382POPC   NC319703  32.479  31.008   9.600
 1382POPC   PO419704  32.602  30.362   9.628
 1382POPC   GL119705  32.341  30.590   9.253
 1382POPC   GL219706  32.500  30.857   9.065
 1382POPC   C1A19707  32.007  30.516   8.882
 1382POPC   D2A19708  31.733  30.599   8.476
 1382POPC   C3A19709  31.904  30.650   8.051
 1382POPC   C4A19710  32.343  30.719   7.972
 1382POPC   C1B19711  32.162  30.985   8.748
 1382POPC   C2B19712  32.155  31.104   8.297
 1382POPC   C3B19713  32.533  31.177   8.056
 1382POPC   C4B19714  32.714  30.955   7.686
 1383POPC   NC319715   3.781  29.953   9.668
 1383POPC   PO419716   3.383  30.468   9.615
 1383POPC   GL119717   3.337  30.183   9.197
 1383POPC   GL219718   3.438  29.838   9.230
 1383POPC   C1A19719   3.624  30.014   8.819
 1383POPC   D2A19720   3.759  29.741   8.469
 1383POPC   C3A19721   3.704  29.857   8.101
 1383POPC   C4A19722   3.636  29.967   7.696
 1383POPC   C1B19723   3.499  29.525   8.838
 1383POPC   C2B19724   3.294  29.508   8.426
 1383POPC   C3B19725   3.486  29.404   8.028
 1383POPC   C4B19726   3.390  29.530   7.620
 1384POPC   NC319727   0.653  41.469   9.541
 1384POPC   PO419728   0.111  41.934   9.417
 1384POPC   GL119729   0.344  41.691   9.125
 1384POPC   GL219730   0.686  41.792   9.131
 1384POPC   C1A19731   0.298  41.551   8.702
 1384POPC   D2A19732   0.149  41.271   8.398
 1384POPC   C3A19733   0.294  41.443   8.023
 1384POPC   C4A19734   0.383  41.444   7.592
 1384POPC   C1B19735   0.817  41.494   8.808
 1384POPC   C2B19736   0.695  41.432   8.357
 1384POPC   C3B19737   0.790  41.584   7.924
 1384POPC   C4B19738   0.668  41.870   7.590
 1385POPC   NC319739  39.111  39.747   9.488
 1385POPC   PO419740  38.935  40.459   9.514
 1385POPC   GL119741  39.066  40.284   9.096
 1385POPC   GL219742  39.211  39.991   9.077
 1385POPC   C1A19743  39.412  40.281   8.737
 1385POPC   D2A19744  39.457  40.081   8.336
 1385POPC   C3A19745  39.204  40.365   8.089
 1385POPC   C4A19746  39.036  40.263   7.691
 1385POPC   C1B19747  39.282  39.778   8.726
 1385POPC   C2B19748  39.227  39.595   8.356
 1385POPC   C3B19749  39.183  39.794   7.994
 1385POPC   C4B19750  39.243  39.779   7.560
 1386POPC   NC319751  38.215   0.733   9.580
 1386POPC   PO419752  38.494   0.180   9.497
 1386POPC   GL119753  38.240   0.348   9.178
 1386POPC   GL219754  38.151   0.055   8.999
 1386POPC   C1A19755  38.290   0.467   8.726
 1386POPC   D2A19756  38.338   0.211   8.357
 1386POPC   C3A19757  38.354   0.502   8.028
 1386POPC   C4A19758  38.183   0.660   7.629
 1386POPC   C1B19759  38.606   0.082   8.845
 1386POPC   C2B19760  38.853   0.113   8.465
 1386POPC   C3B19761  38.761   0.185   8.014
 1386POPC   C4B19762  38.414   0.199   7.643
 1387POPC   NC319763  33.689  24.177   9.347
 1387POPC   PO419764  34.228  24.492   9.593
 1387POPC   GL119765  33.999  24.565   9.205
 1387POPC   GL219766  34.079  24.879   9.087
 1387POPC   C1A19767  33.764  24.537   8.814
 1387POPC   D2A19768  33.648  24.658   8.386
 1387POPC   C3A19769  33.509  24.335   8.098
 1387POPC   C4A19770  33.527  24.442   7.658
 1387POPC   C1B19771  34.063  24.905   8.646
 1387POPC   C2B19772  34.045  24.933   8.238
 1387POPC   C3B19773  33.944  24.593   7.931
 1387POPC   C4B19774  34.110  24.384   7.547
 1388POPC   NC319775   9.999  28.841   9.777
 1388POPC   PO419776   9.764  28.234   9.481
 1388POPC   GL119777   9.669  28.236   9.094
 1388POPC   GL219778   9.522  28.551   9.018
 1388POPC   C1A19779   9.943  28.157   8.771
 1388POPC   D2A19780  10.061  28.327   8.395
 1388POPC   C3A19781   9.968  28.047   8.084
 1388POPC   C4A19782   9.744  28.082   7.732
 1388POPC   C1B19783   9.900  28.666   8.800
 1388POPC   C2B19784   9.934  28.858   8.420
 1388POPC   C3B19785   9.771  28.632   8.090
 1388POPC   C4B19786   9.756  28.777   7.722
 1389POPC   NC319787  27.716  36.480   9.428
 1389POPC   PO419788  27.418  37.069   9.579
 1389POPC   GL119789  27.555  36.906   9.183
 1389POPC   GL219790  27.498  37.226   9.078
 1389POPC   C1A19791  27.657  36.662   8.787
 1389POPC   D2A19792  27.653  36.826   8.363
 1389POPC   C3A19793  27.523  36.635   7.979
 1389POPC   C4A19794  27.740  36.759   7.653
 1389POPC   C1B19795  27.354  37.376   8.718
 1389POPC   C2B19796  27.318  37.216   8.318
 1389POPC   C3B19797  27.521  37.143   7.941
 1389POPC   C4B19798  27.325  37.053   7.565
 1390POPC   NC319799  20.395   4.539   9.532
 1390POPC   PO419800  20.823   4.051   9.747
 1390POPC   GL119801  20.687   4.044   9.232
 1390POPC   GL219802  20.534   4.333   9.076
 1390POPC   C1A19803  20.916   4.166   8.789
 1390POPC   D2A19804  20.822   4.174   8.318
 1390POPC   C3A19805  20.758   4.537   8.030
 1390POPC   C4A19806  20.499   4.305   7.738
 1390POPC   C1B19807  20.549   4.536   8.664
 1390POPC   C2B19808  20.319   4.476   8.277
 1390POPC   C3B19809  20.246   4.703   7.917
 1390POPC   C4B19810  20.064   4.681   7.476
 1391POPC   NC319811  42.325  15.314   9.744
 1391POPC   PO419812  42.531  14.694   9.747
 1391POPC   GL119813  42.448  14.919   9.303
 1391POPC   GL219814  42.577  15.253   9.158
 1391POPC   C1A19815  42.329  14.952   8.818
 1391POPC   D2A19816  42.363  15.196   8.424
 1391POPC   C3A19817  42.279  15.025   8.040
 1391POPC   C4A19818  42.407  14.877   7.665
 1391POPC   C1B19819  42.303  15.494   8.839
 1391POPC   C2B19820  42.170  15.694   8.431
 1391POPC   C3B19821  42.019  15.526   8.040
 1391POPC   C4B19822  42.153  15.330   7.648
 1392POPC   NC319823  35.701  39.882   9.700
 1392POPC   PO419824  35.072  39.782   9.791
 1392POPC   GL119825  35.278  39.725   9.346
 1392POPC   GL219826  35.603  39.849   9.197
 1392POPC   C1A19827  35.276  39.739   8.853
 1392POPC   D2A19828  35.487  39.779   8.445
 1392POPC   C3A19829  35.278  39.894   8.054
 1392POPC   C4A19830  35.402  40.060   7.663
 1392POPC   C1B19831  35.512  40.185   8.815
 1392POPC   C2B19832  35.340  40.290   8.413
 1392POPC   C3B19833  35.252  40.409   7.992
 1392POPC   C4B19834  34.908  40.197   7.747
 1393POPC   NC319835  41.020  39.942   9.566
 1393POPC   PO419836  40.299  39.817   9.432
 1393POPC   GL119837  40.638  39.946   9.142
 1393POPC   GL219838  41.015  39.948   9.072
 1393POPC   C1A19839  40.635  40.130   8.725
 1393POPC   D2A19840  40.919  40.072   8.349
 1393POPC   C3A19841  40.744  40.184   7.968
 1393POPC   C4A19842  40.745  40.303   7.511
 1393POPC   C1B19843  40.951  39.728   8.720
 1393POPC   C2B19844  41.108  39.565   8.334
 1393POPC   C3B19845  41.205  39.731   7.956
 1393POPC   C4B19846  40.880  39.801   7.675
 1394POPC   NC319847  38.947  39.061   9.384
 1394POPC   PO419848  39.428  39.395   9.464
 1394POPC   GL119849  39.252  39.406   9.075
 1394POPC   GL219850  38.955  39.532   9.027
 1394POPC   C1A19851  39.208  39.173   8.685
 1394POPC   D2A19852  39.512  39.088   8.357
 1394POPC   C3A19853  39.421  39.085   7.903
 1394POPC   C4A19854  39.352  39.297   7.494
 1394POPC   C1B19855  38.807  39.473   8.629
 1394POPC   C2B19856  38.862  39.266   8.250
 1394POPC   C3B19857  38.974  39.346   7.830
 1394POPC   C4B19858  38.869  39.427   7.393
 1395POPC   NC319859  12.787   4.177   9.536
 1395POPC   PO419860  12.566   4.813   9.522
 1395POPC   GL119861  12.895   4.635   9.184
 1395POPC   GL219862  12.895   4.278   9.055
 1395POPC   C1A19863  13.155   4.622   8.795
 1395POPC   D2A19864  13.017   4.254   8.540
 1395POPC   C3A19865  13.040   4.315   8.094
 1395POPC   C4A19866  12.805   4.272   7.723
 1395POPC   C1B19867  12.576   4.096   8.769
 1395POPC   C2B19868  12.488   4.256   8.352
 1395POPC   C3B19869  12.444   3.995   8.023
 1395POPC   C4B19870  12.630   3.780   7.734
 1396POPC   NC319871  27.335   7.553   9.525
 1396POPC   PO419872  27.929   7.205   9.536
 1396POPC   GL119873  27.767   7.412   9.189
 1396POPC   GL219874  27.502   7.257   9.125
 1396POPC   C1A19875  27.752   7.333   8.701
 1396POPC   D2A19876  27.526   7.429   8.329
 1396POPC   C3A19877  27.694   7.623   7.988
 1396POPC   C4A19878  27.944   7.402   7.730
 1396POPC   C1B19879  27.237   7.302   8.722
 1396POPC   C2B19880  27.033   7.272   8.301
 1396POPC   C3B19881  27.231   7.368   7.885
 1396POPC   C4B19882  27.470   7.516   7.531
 1397POPC   NC319883  12.395  28.969   9.512
 1397POPC   PO419884  11.773  29.203   9.415
 1397POPC   GL119885  12.035  29.170   9.069
 1397POPC   GL219886  12.374  29.293   9.112
 1397POPC   C1A19887  11.870  29.231   8.659
 1397POPC   D2A19888  11.901  29.272   8.223
 1397POPC   C3A19889  12.248  29.073   8.058
 1397POPC   C4A19890  12.320  29.113   7.618
 1397POPC   C1B19891  12.268  29.533   8.747
 1397POPC   C2B19892  12.352  29.524   8.307
 1397POPC   C3B19893  12.261  29.549   7.869
 1397POPC   C4B19894  12.178  29.537   7.379
 1398POPC   NC319895  29.118  13.202   9.484
 1398POPC   PO419896  29.400  13.753   9.341
 1398POPC   GL119897  29.226  13.489   9.083
 1398POPC   GL219898  29.495  13.230   9.154
 1398POPC   C1A19899  28.921  13.559   8.744
 1398POPC   D2A19900  28.715  13.629   8.328
 1398POPC   C3A19901  28.982  13.542   7.979
 1398POPC   C4A19902  29.284  13.837   7.820
 1398POPC   C1B19903  29.351  13.193   8.706
 1398POPC   C2B19904  29.410  13.398   8.291
 1398POPC   C3B19905  29.455  13.344   7.846
 1398POPC   C4B19906  29.423  13.045   7.529
 1399POPC   NC319907  34.830  10.095   9.393
 1399POPC   PO419908  34.379   9.596   9.417
 1399POPC   GL119909  34.671   9.704   9.118
 1399POPC   GL219910  34.456   9.999   9.040
 1399POPC   C1A19911  34.774   9.568   8.732
 1399POPC   D2A19912  34.433   9.727   8.517
 1399POPC   C3A19913  34.399   9.662   8.100
 1399POPC   C4A19914  34.267   9.944   7.781
 1399POPC   C1B19915  34.771  10.086   8.743
 1399POPC   C2B19916  34.909  10.078   8.345
 1399POPC   C3B19917  34.991  10.170   7.972
 1399POPC   C4B19918  34.767   9.881   7.812
 1400POPC   NC319919  41.693  17.315   9.362
 1400POPC   PO419920  41.881  17.871   9.568
 1400POPC   GL119921  41.549  17.762   9.170
 1400POPC   GL219922  41.295  17.471   9.085
 1400POPC   C1A19923  41.675  17.572   8.744
 1400POPC   D2A19924  42.010  17.560   8.415
 1400POPC   C3A19925  41.844  17.607   8.006
 1400POPC   C4A19926  41.528  17.735   7.735
 1400POPC   C1B19927  41.180  17.384   8.651
 1400POPC   C2B19928  41.423  17.452   8.266
 1400POPC   C3B19929  41.474  17.252   7.857
 1400POPC   C4B19930  41.212  17.147   7.513
 1401POPC   NC319931  32.053  33.424   9.497
 1401POPC   PO419932  32.002  32.813   9.615
 1401POPC   GL119933  32.246  32.987   9.253
 1401POPC   GL219934  31.940  33.099   9.116
 1401POPC   C1A19935  32.411  32.995   8.797
 1401POPC   D2A19936  32.270  32.936   8.365
 1401POPC   C3A19937  32.498  33.037   8.002
 1401POPC   C4A19938  32.707  33.233   7.660
 1401POPC   C1B19939  32.029  33.344   8.765
 1401POPC   C2B19940  32.139  33.460   8.365
 1401POPC   C3B19941  32.046  33.280   7.999
 1401POPC   C4B19942  31.955  32.846   7.956
 1402POPC   NC319943  12.345  40.094   9.342
 1402POPC   PO419944  11.868  39.704   9.495
 1402POPC   GL119945  12.083  39.722   9.134
 1402POPC   GL219946  11.904  40.038   9.085
 1402POPC   C1A19947  12.193  39.854   8.713
 1402POPC   D2A19948  11.968  39.828   8.318
 1402POPC   C3A19949  12.194  40.045   8.012
 1402POPC   C4A19950  12.225  40.031   7.570
 1402POPC   C1B19951  11.741  40.116   8.689
 1402POPC   C2B19952  11.690  40.374   8.312
 1402POPC   C3B19953  11.731  40.277   7.877
 1402POPC   C4B19954  11.731  40.001   7.574
 1403POPC   NC319955  30.923  14.998   9.350
 1403POPC   PO419956  30.794  15.667   9.467
 1403POPC   GL119957  30.897  15.452   9.098
 1403POPC   GL219958  30.571  15.285   9.093
 1403POPC   C1A19959  30.985  15.262   8.690
 1403POPC   D2A19960  30.729  15.298   8.319
 1403POPC   C3A19961  30.890  15.252   7.918
 1403POPC   C4A19962  30.621  15.349   7.541
 1403POPC   C1B19963  30.505  15.032   8.726
 1403POPC   C2B19964  30.453  14.856   8.325
 1403POPC   C3B19965  30.422  15.040   7.935
 1403POPC   C4B19966  30.494  14.876   7.528
 1404POPC   NC319967  33.888  17.607   9.857
 1404POPC   PO419968  33.510  17.321   9.355
 1404POPC   GL119969  33.791  17.528   9.114
 1404POPC   GL219970  33.519  17.635   8.900
 1404POPC   C1A19971  33.997  17.742   8.766
 1404POPC   D2A19972  33.784  17.732   8.368
 1404POPC   C3A19973  33.959  17.883   7.988
 1404POPC   C4A19974  33.796  17.823   7.578
 1404POPC   C1B19975  33.723  17.287   8.679
 1404POPC   C2B19976  34.051  17.231   8.395
 1404POPC   C3B19977  33.959  17.367   7.988
 1404POPC   C4B19978  33.571  17.434   7.832
 1405POPC   NC319979  12.054  19.694   9.466
 1405POPC   PO419980  12.197  20.368   9.410
 1405POPC   GL119981  12.239  20.015   9.105
 1405POPC   GL219982  11.898  20.020   9.075
 1405POPC   C1A19983  12.135  19.652   8.808
 1405POPC   D2A19984  12.310  19.460   8.425
 1405POPC   C3A19985  12.198  19.707   8.044
 1405POPC   C4A19986  12.231  19.835   7.612
 1405POPC   C1B19987  11.800  20.135   8.696
 1405POPC   C2B19988  11.988  20.081   8.323
 1405POPC   C3B19989  11.862  20.080   7.904
 1405POPC   C4B19990  11.707  19.865   7.538
 1406POPC   NC319991   1.815  36.875   9.597
 1406POPC   PO419992   2.447  37.033   9.467
 1406POPC   GL119993   2.165  36.953   9.104
 1406POPC   GL219994   1.856  36.766   9.110
 1406POPC   C1A19995   2.148  36.673   8.721
 1406POPC   D2A19996   1.953  36.593   8.329
 1406POPC   C3A19997   2.177  36.779   7.992
 1406POPC   C4A19998   2.108  37.010   7.576
 1406POPC   C1B19999   1.707  36.970   8.746
 1406POPC   C2B20000   1.896  37.089   8.362
 1406POPC   C3B20001   1.799  37.165   7.955
 1406POPC   C4B20002   1.606  37.149   7.556
 1407POPC   NC320003  21.342   4.715   9.800
 1407POPC   PO420004  21.571   5.295   9.521
 1407POPC   GL120005  21.492   5.287   9.079
 1407POPC   GL220006  21.117   5.301   9.104
 1407POPC   C1A20007  21.632   5.179   8.628
 1407POPC   D2A20008  21.530   4.850   8.317
 1407POPC   C3A20009  21.441   4.861   7.870
 1407POPC   C4A20010  21.109   4.799   7.568
 1407POPC   C1B20011  21.176   5.010   8.750
 1407POPC   C2B20012  21.051   5.056   8.315
 1407POPC   C3B20013  21.117   5.335   7.953
 1407POPC   C4B20014  21.509   5.351   7.758
 1408POPC   NC320015   6.265  36.853   9.744
 1408POPC   PO420016   5.647  36.926   9.439
 1408POPC   GL120017   5.767  37.170   9.110
 1408POPC   GL220018   6.084  37.039   9.116
 1408POPC   C1A20019   5.648  36.982   8.714
 1408POPC   D2A20020   5.439  36.852   8.326
 1408POPC   C3A20021   5.565  37.092   7.977
 1408POPC   C4A20022   5.849  37.098   7.646
 1408POPC   C1B20023   6.047  36.665   8.780
 1408POPC   C2B20024   5.902  36.621   8.388
 1408POPC   C3B20025   6.012  36.842   8.063
 1408POPC   C4B20026   6.189  36.726   7.683
 1409POPC   NC320027  38.948   0.048   9.435
 1409POPC   PO420028  39.335   0.717   9.467
 1409POPC   GL120029  39.139   0.486   9.145
 1409POPC   GL220030  38.764   0.491   9.183
 1409POPC   C1A20031  39.333   0.471   8.740
 1409POPC   D2A20032  39.485   0.801   8.462
 1409POPC   C3A20033  39.485   0.618   8.041
 1409POPC   C4A20034  39.237   0.313   7.821
 1409POPC   C1B20035  38.816   0.576   8.740
 1409POPC   C2B20036  39.024   0.589   8.341
 1409POPC   C3B20037  38.963   0.772   7.971
 1409POPC   C4B20038  38.775   0.556   7.671
 1410POPC   NC320039  34.925  19.670   9.605
 1410POPC   PO420040  34.245  19.473   9.446
 1410POPC   GL120041  34.552  19.769   9.229
 1410POPC   GL220042  34.810  19.564   9.130
 1410POPC   C1A20043  34.546  19.942   8.797
 1410POPC   D2A20044  34.336  19.668   8.489
 1410POPC   C3A20045  34.389  19.720   8.047
 1410POPC   C4A20046  34.660  20.040   7.873
 1410POPC   C1B20047  34.768  19.498   8.721
 1410POPC   C2B20048  34.841  19.734   8.376
 1410POPC   C3B20049  34.893  19.600   7.984
 1410POPC   C4B20050  34.769  19.620   7.569
 1411POPC   NC320051  35.885  44.202   9.373
 1411POPC   PO420052  35.310  43.889   9.459
 1411POPC   GL120053  35.424  43.615   9.123
 1411POPC   GL220054  35.721  43.749   9.106
 1411POPC   C1A20055  35.287  43.621   8.716
 1411POPC   D2A20056  35.306  43.912   8.393
 1411POPC   C3A20057  35.302  43.696   8.008
 1411POPC   C4A20058  35.225  43.911   7.660
 1411POPC   C1B20059  35.748  43.871   8.725
 1411POPC   C2B20060  35.759  43.688   8.351
 1411POPC   C3B20061  35.719  43.994   8.053
 1411POPC   C4B20062  35.724  44.199   7.679
 1412POPC   NC320063  19.326   3.317   9.327
 1412POPC   PO420064  18.723   3.399   9.577
 1412POPC   GL120065  18.914   3.572   9.169
 1412POPC   GL220066  19.056   3.364   8.913
 1412POPC   C1A20067  19.073   3.839   8.769
 1412POPC   D2A20068  19.181   3.555   8.441
 1412POPC   C3A20069  19.115   3.652   8.039
 1412POPC   C4A20070  18.970   3.611   7.646
 1412POPC   C1B20071  19.257   3.087   8.645
 1412POPC   C2B20072  19.334   3.109   8.209
 1412POPC   C3B20073  19.227   3.170   7.788
 1412POPC   C4B20074  19.356   3.006   7.388
 1413POPC   NC320075  23.253  33.643   9.305
 1413POPC   PO420076  23.817  33.941   9.630
 1413POPC   GL120077  23.745  33.795   9.245
 1413POPC   GL220078  23.610  34.091   9.095
 1413POPC   C1A20079  23.729  33.545   8.865
 1413POPC   D2A20080  23.581  33.490   8.445
 1413POPC   C3A20081  23.828  33.708   8.123
 1413POPC   C4A20082  24.053  33.773   7.706
 1413POPC   C1B20083  23.457  33.963   8.702
 1413POPC   C2B20084  23.338  33.906   8.269
 1413POPC   C3B20085  23.356  33.611   7.930
 1413POPC   C4B20086  23.396  33.720   7.466
 1414POPC   NC320087  21.736  34.230   9.474
 1414POPC   PO420088  21.520  34.935   9.476
 1414POPC   GL120089  21.460  34.705   9.106
 1414POPC   GL220090  21.434  34.360   9.040
 1414POPC   C1A20091  21.637  34.676   8.697
 1414POPC   D2A20092  21.539  34.540   8.305
 1414POPC   C3A20093  21.742  34.649   7.955
 1414POPC   C4A20094  21.474  34.819   7.654
 1414POPC   C1B20095  21.202  34.352   8.657
 1414POPC   C2B20096  21.031  34.483   8.262
 1414POPC   C3B20097  21.262  34.430   7.883
 1414POPC   C4B20098  21.376  34.408   7.383
 1415POPC   NC320099  11.631  42.734   9.343
 1415POPC   PO420100  11.476  43.417   9.521
 1415POPC   GL120101  11.358  43.209   9.119
 1415POPC   GL220102  11.166  42.959   9.213
 1415POPC   C1A20103  11.101  43.264   8.717
 1415POPC   D2A20104  10.921  43.249   8.287
 1415POPC   C3A20105  11.272  43.313   8.034
 1415POPC   C4A20106  11.230  43.216   7.602
 1415POPC   C1B20107  11.251  42.782   8.801
 1415POPC   C2B20108  11.340  42.886   8.376
 1415POPC   C3B20109  11.140  42.825   7.986
 1415POPC   C4B20110  11.060  42.635   7.595
 1416POPC   NC320111  35.163  44.726   9.702
 1416POPC   PO420112  35.791  44.763   9.524
 1416POPC   GL120113  35.391  44.713   9.226
 1416POPC   GL220114  35.617  44.793   9.000
 1416POPC   C1A20115  35.193  44.647   8.741
 1416POPC   D2A20116  35.334  44.430   8.306
 1416POPC   C3A20117  35.270  44.560   7.845
 1416POPC   C4A20118  35.328  44.333   7.409
 1416POPC   C1B20119  35.529   0.057   8.688
 1416POPC   C2B20120  35.386  44.937   8.302
 1416POPC   C3B20121  35.536   0.074   7.933
 1416POPC   C4B20122  35.319   0.065   7.561
 1417POPC   NC320123  25.058   5.818   9.429
 1417POPC   PO420124  25.727   5.821   9.576
 1417POPC   GL120125  25.485   5.821   9.127
 1417POPC   GL220126  25.578   5.512   8.959
 1417POPC   C1A20127  25.230   5.791   8.704
 1417POPC   D2A20128  25.371   5.813   8.241
 1417POPC   C3A20129  25.055   5.779   7.905
 1417POPC   C4A20130  25.091   5.985   7.453
 1417POPC   C1B20131  25.697   5.630   8.620
 1417POPC   C2B20132  25.873   5.649   8.276
 1417POPC   C3B20133  25.747   5.651   7.877
 1417POPC   C4B20134  25.422   5.608   7.602
 1418POPC   NC320135  15.614   4.535   9.464
 1418POPC   PO420136  14.937   4.429   9.351
 1418POPC   GL120137  15.242   4.645   9.109
 1418POPC   GL220138  15.433   4.356   9.030
 1418POPC   C1A20139  15.161   4.658   8.703
 1418POPC   D2A20140  15.316   4.374   8.422
 1418POPC   C3A20141  15.160   4.491   8.030
 1418POPC   C4A20142  15.279   4.667   7.646
 1418POPC   C1B20143  15.224   4.021   8.824
 1418POPC   C2B20144  15.474   3.882   8.509
 1418POPC   C3B20145  15.633   4.073   8.149
 1418POPC   C4B20146  15.407   4.117   7.782
 1419POPC   NC320147   2.987  38.999   9.489
 1419POPC   PO420148   2.847  39.605   9.484
 1419POPC   GL120149   2.987  39.379   9.125
 1419POPC   GL220150   2.654  39.216   9.146
 1419POPC   C1A20151   2.929  39.196   8.702
 1419POPC   D2A20152   3.112  39.003   8.309
 1419POPC   C3A20153   2.916  39.149   7.920
 1419POPC   C4A20154   2.978  39.109   7.472
 1419POPC   C1B20155   2.457  39.001   8.804
 1419POPC   C2B20156   2.603  38.895   8.392
 1419POPC   C3B20157   2.420  38.938   8.000
 1419POPC   C4B20158   2.499  39.037   7.609
 1420POPC   NC320159  37.893  20.037   9.574
 1420POPC   PO420160  37.292  19.753   9.541
 1420POPC   GL120161  37.575  19.889   9.203
 1420POPC   GL220162  37.891  19.690   9.144
 1420POPC   C1A20163  37.557  19.840   8.771
 1420POPC   D2A20164  37.379  19.643   8.441
 1420POPC   C3A20165  37.514  19.873   8.079
 1420POPC   C4A20166  37.563  19.861   7.645
 1420POPC   C1B20167  38.056  19.858   8.733
 1420POPC   C2B20168  37.893  20.074   8.364
 1420POPC   C3B20169  38.007  20.047   7.923
 1420POPC   C4B20170  37.930  20.112   7.470
 1421POPC   NC320171  25.904  28.731   9.718
 1421POPC   PO420172  25.644  29.244   9.311
 1421POPC   GL120173  26.000  29.279   9.065
 1421POPC   GL220174  26.208  29.526   9.162
 1421POPC   C1A20175  26.023  29.090   8.680
 1421POPC   D2A20176  26.122  28.749   8.427
 1421POPC   C3A20177  25.843  28.863   8.119
 1421POPC   C4A20178  25.894  29.141   7.754
 1421POPC   C1B20179  26.292  29.545   8.735
 1421POPC   C2B20180  26.207  29.402   8.317
 1421POPC   C3B20181  26.352  29.332   7.911
 1421POPC   C4B20182  26.321  29.257   7.487
 1422POPC   NC320183  20.996  21.214   9.292
 1422POPC   PO420184  20.433  21.408   9.626
 1422POPC   GL120185  20.474  21.207   9.211
 1422POPC   GL220186  20.637  21.499   9.106
 1422POPC   C1A20187  20.609  21.118   8.742
 1422POPC   D2A20188  20.698  21.320   8.341
 1422POPC   C3A20189  20.499  21.261   7.977
 1422POPC   C4A20190  20.455  21.277   7.540
 1422POPC   C1B20191  20.865  21.586   8.738
 1422POPC   C2B20192  21.020  21.716   8.342
 1422POPC   C3B20193  20.769  21.712   7.955
 1422POPC   C4B20194  20.841  21.578   7.516
 1423POPC   NC320195   3.760  18.408   9.461
 1423POPC   PO420196   3.090  18.176   9.332
 1423POPC   GL120197   3.380  18.438   9.095
 1423POPC   GL220198   3.694  18.229   9.004
 1423POPC   C1A20199   3.496  18.579   8.681
 1423POPC   D2A20200   3.674  18.468   8.337
 1423POPC   C3A20201   3.456  18.420   7.966
 1423POPC   C4A20202   3.551  18.444   7.551
 1423POPC   C1B20203   3.416  18.073   8.711
 1423POPC   C2B20204   3.361  18.062   8.292
 1423POPC   C3B20205   3.352  17.852   7.904
 1423POPC   C4B20206   3.315  17.893   7.472
 1424POPC   NC320207  43.005  32.771   9.657
 1424POPC   PO420208  43.333  32.187   9.611
 1424POPC   GL120209  43.258  32.254   9.183
 1424POPC   GL220210  43.128  32.565   9.183
 1424POPC   C1A20211  43.330  32.064   8.748
 1424POPC   D2A20212  43.278  32.212   8.310
 1424POPC   C3A20213  43.423  32.006   7.962
 1424POPC   C4A20214  43.267  31.795   7.616
 1424POPC   C1B20215  42.878  32.351   8.849
 1424POPC   C2B20216  42.785  32.155   8.472
 1424POPC   C3B20217  42.664  32.081   8.077
 1424POPC   C4B20218  42.939  32.186   7.762
 1425POPC   NC320219  39.691  11.399   9.927
 1425POPC   PO420220  39.247  11.077   9.636
 1425POPC   GL120221  39.152  11.080   9.194
 1425POPC   GL220222  39.075  11.424   9.241
 1425POPC   C1A20223  39.351  11.253   8.787
 1425POPC   D2A20224  39.586  11.481   8.468
 1425POPC   C3A20225  39.438  11.481   8.046
 1425POPC   C4A20226  39.305  11.322   7.664
 1425POPC   C1B20227  38.845  11.304   8.861
 1425POPC   C2B20228  38.755  11.174   8.430
 1425POPC   C3B20229  38.906  11.323   8.046
 1425POPC   C4B20230  38.792  11.346   7.641
 1426POPC   NC320231  31.742  20.192   9.552
 1426POPC   PO420232  31.284  19.726   9.378
 1426POPC   GL120233  31.240  19.959   9.015
 1426POPC   GL220234  31.570  20.056   9.089
 1426POPC   C1A20235  31.451  19.986   8.606
 1426POPC   D2A20236  31.578  19.740   8.325
 1426POPC   C3A20237  31.386  19.821   7.965
 1426POPC   C4A20238  31.535  19.624   7.641
 1426POPC   C1B20239  31.861  20.325   8.893
 1426POPC   C2B20240  31.934  20.285   8.485
 1426POPC   C3B20241  31.963  20.142   8.087
 1426POPC   C4B20242  31.761  20.081   7.712
 1427POPC   NC320243   5.643  24.412   9.351
 1427POPC   PO420244   6.109  24.871   9.493
 1427POPC   GL120245   5.929  24.817   9.105
 1427POPC   GL220246   6.095  24.509   9.093
 1427POPC   C1A20247   5.638  24.692   8.745
 1427POPC   D2A20248   5.780  24.592   8.311
 1427POPC   C3A20249   5.626  24.452   7.934
 1427POPC   C4A20250   5.464  24.701   7.589
 1427POPC   C1B20251   6.146  24.641   8.658
 1427POPC   C2B20252   6.286  24.572   8.226
 1427POPC   C3B20253   6.125  24.645   7.832
 1427POPC   C4B20254   5.925  24.416   7.519
 1428POPC   NC320255  31.852  39.448   9.856
 1428POPC   PO420256  31.259  39.526   9.487
 1428POPC   GL120257  31.443  39.340   9.157
 1428POPC   GL220258  31.699  39.108   9.304
 1428POPC   C1A20259  31.237  39.216   8.776
 1428POPC   D2A20260  30.996  39.347   8.437
 1428POPC   C3A20261  31.219  39.392   8.020
 1428POPC   C4A20262  31.302  39.018   7.753
 1428POPC   C1B20263  31.717  39.037   8.848
 1428POPC   C2B20264  31.579  39.082   8.389
 1428POPC   C3B20265  31.738  39.180   7.973
 1428POPC   C4B20266  31.873  39.542   7.702
 1429POPC   NC320267   8.409  13.480   9.355
 1429POPC   PO420268   9.000  13.593   9.621
 1429POPC   GL120269   8.973  13.572   9.174
 1429POPC   GL220270   8.743  13.670   9.021
 1429POPC   C1A20271   9.197  13.578   8.784
 1429POPC   D2A20272   9.120  13.705   8.364
 1429POPC   C3A20273   9.195  13.459   8.004
 1429POPC   C4A20274   9.159  13.464   7.537
 1429POPC   C1B20275   8.823  13.957   8.722
 1429POPC   C2B20276   8.697  13.982   8.320
 1429POPC   C3B20277   8.841  13.826   7.932
 1429POPC   C4B20278   9.101  13.965   7.669
 1430POPC   NC320279  25.172  33.294   9.771
 1430POPC   PO420280  25.399  33.772   9.349
 1430POPC   GL120281  25.184  33.648   9.040
 1430POPC   GL220282  25.504  33.565   8.898
 1430POPC   C1A20283  25.004  33.729   8.671
 1430POPC   D2A20284  25.126  33.613   8.277
 1430POPC   C3A20285  25.232  33.950   8.045
 1430POPC   C4A20286  24.974  34.252   7.854
 1430POPC   C1B20287  25.480  33.849   8.605
 1430POPC   C2B20288  25.652  33.745   8.282
 1430POPC   C3B20289  25.557  33.512   7.963
 1430POPC   C4B20290  25.377  33.669   7.637
 1431POPC   NC320291  35.867  19.991   9.692
 1431POPC   PO420292  36.468  19.883   9.780
 1431POPC   GL120293  36.207  19.818   9.344
 1431POPC   GL220294  35.917  20.020   9.185
 1431POPC   C1A20295  36.257  19.830   8.869
 1431POPC   D2A20296  36.188  20.106   8.509
 1431POPC   C3A20297  36.243  19.930   8.113
 1431POPC   C4A20298  36.001  19.667   7.878
 1431POPC   C1B20299  35.757  19.936   8.773
 1431POPC   C2B20300  35.776  19.798   8.341
 1431POPC   C3B20301  35.649  20.024   7.969
 1431POPC   C4B20302  35.826  20.048   7.542
 1432POPC   NC320303  17.436  37.514   9.505
 1432POPC   PO420304  17.998  37.750   9.449
 1432POPC   GL120305  17.680  37.670   9.089
 1432POPC   GL220306  17.341  37.484   9.017
 1432POPC   C1A20307  17.685  37.648   8.657
 1432POPC   D2A20308  17.907  37.793   8.327
 1432POPC   C3A20309  17.627  37.758   8.005
 1432POPC   C4A20310  17.527  37.754   7.579
 1432POPC   C1B20311  17.215  37.369   8.601
 1432POPC   C2B20312  17.177  37.555   8.199
 1432POPC   C3B20313  17.059  37.663   7.786
 1432POPC   C4B20314  17.092  37.553   7.341
 1433POPC   NC320315  39.619  21.336   9.622
 1433POPC   PO420316  39.055  21.656   9.539
 1433POPC   GL120317  39.290  21.485   9.246
 1433POPC   GL220318  39.270  21.144   9.290
 1433POPC   C1A20319  39.260  21.574   8.829
 1433POPC   D2A20320  38.983  21.395   8.531
 1433POPC   C3A20321  39.100  21.565   8.161
 1433POPC   C4A20322  39.313  21.599   7.788
 1433POPC   C1B20323  39.280  21.073   8.866
 1433POPC   C2B20324  39.462  21.225   8.461
 1433POPC   C3B20325  39.346  21.138   8.042
 1433POPC   C4B20326  39.612  21.122   7.727
 1434POPC   NC320327   6.916  37.534   9.408
 1434POPC   PO420328   7.338  38.080   9.363
 1434POPC   GL120329   7.320  37.687   9.115
 1434POPC   GL220330   7.668  37.598   9.093
 1434POPC   C1A20331   7.330  37.531   8.681
 1434POPC   D2A20332   7.567  37.667   8.312
 1434POPC   C3A20333   7.312  37.630   7.934
 1434POPC   C4A20334   7.348  37.495   7.507
 1434POPC   C1B20335   7.637  37.961   8.776
 1434POPC   C2B20336   7.785  38.143   8.384
 1434POPC   C3B20337   7.562  38.086   7.982
 1434POPC   C4B20338   7.659  37.890   7.604
 1435POPC   NC320339   0.318  11.212   9.476
 1435POPC   PO420340   0.539  11.776   9.473
 1435POPC   GL120341   0.639  11.505   9.140
 1435POPC   GL220342   0.304  11.402   9.019
 1435POPC   C1A20343   0.665  11.076   8.918
 1435POPC   D2A20344   0.416  11.025   8.550
 1435POPC   C3A20345   0.666  11.238   8.231
 1435POPC   C4A20346   0.781  11.093   7.811
 1435POPC   C1B20347   0.432  11.554   8.654
 1435POPC   C2B20348   0.205  11.479   8.294
 1435POPC   C3B20349   0.264  11.304   7.904
 1435POPC   C4B20350   0.063  11.402   7.522
 1436POPC   NC320351   7.735  42.170   9.500
 1436POPC   PO420352   7.440  42.629   9.925
 1436POPC   GL120353   7.323  42.461   9.426
 1436POPC   GL220354   7.046  42.234   9.358
 1436POPC   C1A20355   7.363  42.265   8.958
 1436POPC   D2A20356   7.261  42.215   8.512
 1436POPC   C3A20357   7.385  42.175   8.055
 1436POPC   C4A20358   7.482  42.434   7.682
 1436POPC   C1B20359   6.946  42.569   9.054
 1436POPC   C2B20360   6.908  42.573   8.607
 1436POPC   C3B20361   6.984  42.468   8.168
 1436POPC   C4B20362   7.002  42.690   7.824
 1437POPC   NC320363  44.397   8.159   9.431
 1437POPC   PO420364  44.315   8.713   9.170
 1437POPC   GL120365  44.475   8.441   8.918
 1437POPC   GL220366  44.564   8.090   8.956
 1437POPC   C1A20367  44.446   8.564   8.495
 1437POPC   D2A20368  44.781   8.650   8.255
 1437POPC   C3A20369  44.759   8.315   8.057
 1437POPC   C4A20370  44.794   8.325   7.636
 1437POPC   C1B20371  44.650   8.083   8.539
 1437POPC   C2B20372  44.324   8.097   8.275
 1437POPC   C3B20373  44.288   8.227   7.856
 1437POPC   C4B20374  44.434   8.004   7.501
 1438POPC   NC320375  30.566  32.802   9.497
 1438POPC   PO420376  30.690  33.464   9.522
 1438POPC   GL120377  30.573  33.171   9.125
 1438POPC   GL220378  30.772  32.856   9.048
 1438POPC   C1A20379  30.582  33.113   8.644
 1438POPC   D2A20380  30.805  33.223   8.271
 1438POPC   C3A20381  30.622  33.174   7.867
 1438POPC   C4A20382  30.406  33.041   7.475
 1438POPC   C1B20383  30.534  32.632   8.760
 1438POPC   C2B20384  30.678  32.676   8.342
 1438POPC   C3B20385  30.567  32.669   7.921
 1438POPC   C4B20386  30.433  32.541   7.518
 1439POPC   NC320387  31.105   2.622   9.324
 1439POPC   PO420388  31.674   2.829   9.634
 1439POPC   GL120389  31.571   2.750   9.179
 1439POPC   GL220390  31.534   3.021   8.944
 1439POPC   C1A20391  31.413   2.542   8.770
 1439POPC   D2A20392  31.296   2.270   8.425
 1439POPC   C3A20393  31.455   2.465   8.102
 1439POPC   C4A20394  31.313   2.623   7.757
 1439POPC   C1B20395  31.193   2.965   8.612
 1439POPC   C2B20396  31.161   2.884   8.196
 1439POPC   C3B20397  31.208   3.103   7.825
 1439POPC   C4B20398  30.982   2.957   7.443
 1440POPC   NC320399  42.852  33.910   9.467
 1440POPC   PO420400  43.548  33.727   9.570
 1440POPC   GL120401  43.277  33.758   9.172
 1440POPC   GL220402  42.934  33.814   8.988
 1440POPC   C1A20403  43.336  33.827   8.702
 1440POPC   D2A20404  43.023  33.779   8.404
 1440POPC   C3A20405  43.133  33.825   8.024
 1440POPC   C4A20406  42.968  34.023   7.677
 1440POPC   C1B20407  42.705  33.540   8.701
 1440POPC   C2B20408  42.669  33.401   8.237
 1440POPC   C3B20409  42.754  33.505   7.782
 1440POPC   C4B20410  42.664  33.291   7.401
 1441POPC   NC320411  17.947   8.118   9.193
 1441POPC   PO420412  18.384   8.594   9.451
 1441POPC   GL120413  18.442   8.281   9.091
 1441POPC   GL220414  18.432   7.891   9.082
 1441POPC   C1A20415  18.346   8.154   8.653
 1441POPC   D2A20416  17.976   8.127   8.391
 1441POPC   C3A20417  18.135   8.274   8.018
 1441POPC   C4A20418  18.168   8.090   7.659
 1441POPC   C1B20419  18.692   7.763   8.752
 1441POPC   C2B20420  18.770   7.952   8.340
 1441POPC   C3B20421  18.590   7.925   7.909
 1441POPC   C4B20422  18.470   7.740   7.490
 1442POPC   NC320423  19.353  20.024   9.205
 1442POPC   PO420424  18.821  19.724   9.450
 1442POPC   GL120425  18.893  19.788   9.061
 1442POPC   GL220426  19.168  19.577   8.996
 1442POPC   C1A20427  18.944  19.872   8.631
 1442POPC   D2A20428  19.184  19.919   8.286
 1442POPC   C3A20429  18.970  19.861   7.919
 1442POPC   C4A20430  18.802  20.148   7.648
 1442POPC   C1B20431  19.365  19.401   8.665
 1442POPC   C2B20432  19.459  19.493   8.234
 1442POPC   C3B20433  19.239  19.432   7.839
 1442POPC   C4B20434  19.254  19.731   7.473
 1443POPC   NC320435  32.406  17.823   9.471
 1443POPC   PO420436  31.844  18.277   9.562
 1443POPC   GL120437  32.063  18.119   9.227
 1443POPC   GL220438  32.392  18.299   9.226
 1443POPC   C1A20439  32.009  18.171   8.795
 1443POPC   D2A20440  31.943  18.091   8.354
 1443POPC   C3A20441  32.297  18.131   8.060
 1443POPC   C4A20442  32.226  18.208   7.644
 1443POPC   C1B20443  32.470  18.468   8.828
 1443POPC   C2B20444  32.302  18.499   8.423
 1443POPC   C3B20445  32.332  18.654   7.991
 1443POPC   C4B20446  32.484  18.632   7.556
 1444POPC   NC320447  26.051  13.707   9.530
 1444POPC   PO420448  26.205  13.100   9.247
 1444POPC   GL120449  26.298  13.513   9.067
 1444POPC   GL220450  25.982  13.743   9.038
 1444POPC   C1A20451  26.263  13.655   8.631
 1444POPC   D2A20452  26.266  13.951   8.292
 1444POPC   C3A20453  26.200  13.751   7.891
 1444POPC   C4A20454  26.294  13.474   7.575
 1444POPC   C1B20455  25.773  13.515   8.706
 1444POPC   C2B20456  25.893  13.572   8.269
 1444POPC   C3B20457  25.673  13.738   7.892
 1444POPC   C4B20458  25.725  13.522   7.489
 1445POPC   NC320459  40.208  40.268   9.513
 1445POPC   PO420460  39.561  39.976   9.435
 1445POPC   GL120461  39.765  40.081   9.080
 1445POPC   GL220462  40.149  40.067   9.020
 1445POPC   C1A20463  39.816  39.919   8.675
 1445POPC   D2A20464  40.127  40.003   8.366
 1445POPC   C3A20465  39.910  40.002   8.005
 1445POPC   C4A20466  39.543  40.103   7.816
 1445POPC   C1B20467  40.312  39.710   8.749
 1445POPC   C2B20468  40.561  39.627   8.361
 1445POPC   C3B20469  40.419  39.789   7.950
 1445POPC   C4B20470  40.296  40.194   7.730
 1446POPC   NC320471   1.410  39.750   9.445
 1446POPC   PO420472   0.808  40.176   9.479
 1446POPC   GL120473   1.073  40.030   9.172
 1446POPC   GL220474   1.368  40.256   9.221
 1446POPC   C1A20475   1.209  39.921   8.773
 1446POPC   D2A20476   1.174  40.185   8.430
 1446POPC   C3A20477   1.225  40.017   8.028
 1446POPC   C4A20478   1.086  39.951   7.613
 1446POPC   C1B20479   1.581  40.282   8.813
 1446POPC   C2B20480   1.671  40.083   8.416
 1446POPC   C3B20481   1.734  40.192   8.004
 1446POPC   C4B20482   1.513  40.223   7.620
 1447POPC   NC320483  11.298  13.474   9.603
 1447POPC   PO420484  11.748  13.849   9.517
 1447POPC   GL120485  11.470  13.722   9.183
 1447POPC   GL220486  11.507  13.344   9.149
 1447POPC   C1A20487  11.210  13.627   8.818
 1447POPC   D2A20488  11.267  13.418   8.416
 1447POPC   C3A20489  11.176  13.645   8.066
 1447POPC   C4A20490  11.241  13.528   7.655
 1447POPC   C1B20491  11.650  13.315   8.741
 1447POPC   C2B20492  11.824  13.149   8.341
 1447POPC   C3B20493  11.595  13.285   7.957
 1447POPC   C4B20494  11.739  13.452   7.564
 1448POPC   NC320495  39.088   1.986   9.571
 1448POPC   PO420496  39.618   2.511   9.468
 1448POPC   GL120497  39.357   2.213   9.177
 1448POPC   GL220498  39.342   1.844   9.149
 1448POPC   C1A20499  39.277   2.115   8.738
 1448POPC   D2A20500  39.467   1.955   8.398
 1448POPC   C3A20501  39.264   2.127   8.066
 1448POPC   C4A20502  39.184   2.279   7.666
 1448POPC   C1B20503  39.278   1.591   8.790
 1448POPC   C2B20504  39.058   1.628   8.412
 1448POPC   C3B20505  39.274   1.609   8.065
 1448POPC   C4B20506  39.382   1.804   7.710
 1449POPC   NC320507  44.861  17.757   9.440
 1449POPC   PO420508  44.361  17.181   9.409
 1449POPC   GL120509  44.508  17.527   9.120
 1449POPC   GL220510  44.852  17.530   8.995
 1449POPC   C1A20511  44.486  17.522   8.659
 1449POPC   D2A20512  44.816  17.384   8.389
 1449POPC   C3A20513  44.641  17.257   7.991
 1449POPC   C4A20514  44.423  17.443   7.650
 1449POPC   C1B20515   0.062  17.786   8.714
 1449POPC   C2B20516  44.957  17.925   8.336
 1449POPC   C3B20517   0.086  17.846   7.917
 1449POPC   C4B20518  44.914  17.574   7.611
 1450POPC   NC320519  16.608   0.253   9.483
 1450POPC   PO420520  16.994   0.817   9.402
 1450POPC   GL120521  16.755   0.585   9.140
 1450POPC   GL220522  16.987   0.268   9.137
 1450POPC   C1A20523  16.526   0.512   8.755
 1450POPC   D2A20524  16.241   0.294   8.456
 1450POPC   C3A20525  16.396   0.387   8.060
 1450POPC   C4A20526  16.368   0.631   7.703
 1450POPC   C1B20527  17.085   0.512   8.785
 1450POPC   C2B20528  17.055   0.410   8.405
 1450POPC   C3B20529  17.109   0.587   8.065
 1450POPC   C4B20530  16.851   0.428   7.794
 1451POPC   NC320531  31.969   7.999   9.406
 1451POPC   PO420532  32.172   8.680   9.505
 1451POPC   GL120533  32.312   8.333   9.219
 1451POPC   GL220534  32.031   8.308   8.996
 1451POPC   C1A20535  32.417   8.003   8.881
 1451POPC   D2A20536  32.479   8.127   8.459
 1451POPC   C3A20537  32.308   8.059   8.031
 1451POPC   C4A20538  32.461   8.197   7.669
 1451POPC   C1B20539  31.812   8.560   8.700
 1451POPC   C2B20540  31.751   8.621   8.262
 1451POPC   C3B20541  32.005   8.486   7.928
 1451POPC   C4B20542  31.943   8.197   7.640
 1452POPC   NC320543  34.581  28.544   9.452
 1452POPC   PO420544  34.978  27.902   9.598
 1452POPC   GL120545  34.841  28.169   9.191
 1452POPC   GL220546  34.485  28.242   9.052
 1452POPC   C1A20547  34.854  28.204   8.708
 1452POPC   D2A20548  34.667  28.338   8.303
 1452POPC   C3A20549  34.703  28.124   7.896
 1452POPC   C4A20550  34.737  28.384   7.524
 1452POPC   C1B20551  34.456  28.580   8.724
 1452POPC   C2B20552  34.231  28.636   8.306
 1452POPC   C3B20553  34.357  28.534   7.854
 1452POPC   C4B20554  34.377  28.707   7.402
 1453POPC   NC320555  12.793  10.937   9.448
 1453POPC   PO420556  12.945  11.478   9.514
 1453POPC   GL120557  12.728  11.367   9.162
 1453POPC   GL220558  12.984  11.521   8.991
 1453POPC   C1A20559  12.574  11.287   8.765
 1453POPC   D2A20560  12.746  11.356   8.355
 1453POPC   C3A20561  12.683  11.146   7.995
 1453POPC   C4A20562  13.079  11.135   7.839
 1453POPC   C1B20563  12.764  11.761   8.663
 1453POPC   C2B20564  12.845  11.849   8.231
 1453POPC   C3B20565  12.976  11.641   7.825
 1453POPC   C4B20566  13.056  11.482   7.375
 1454POPC   NC320567  19.788   8.318   9.568
 1454POPC   PO420568  19.907   7.751   9.345
 1454POPC   GL120569  19.707   8.104   9.107
 1454POPC   GL220570  19.522   8.470   9.173
 1454POPC   C1A20571  19.995   8.276   8.847
 1454POPC   D2A20572  20.229   8.138   8.504
 1454POPC   C3A20573  20.056   8.249   8.144
 1454POPC   C4A20574  19.946   8.029   7.761
 1454POPC   C1B20575  19.360   8.373   8.811
 1454POPC   C2B20576  19.595   8.149   8.512
 1454POPC   C3B20577  19.566   8.187   8.090
 1454POPC   C4B20578  19.422   8.387   7.716
 1455POPC   NC320579  27.765  21.829   9.581
 1455POPC   PO420580  27.922  22.366   9.176
 1455POPC   GL120581  27.683  22.156   8.977
 1455POPC   GL220582  27.482  21.935   9.152
 1455POPC   C1A20583  27.747  22.195   8.565
 1455POPC   D2A20584  27.511  22.129   8.265
 1455POPC   C3A20585  27.694  22.208   7.899
 1455POPC   C4A20586  27.741  22.382   7.504
 1455POPC   C1B20587  27.459  21.782   8.721
 1455POPC   C2B20588  27.257  21.673   8.310
 1455POPC   C3B20589  27.425  21.771   7.891
 1455POPC   C4B20590  27.365  21.816   7.412
 1456POPC   NC320591  27.578  22.373   9.465
 1456POPC   PO420592  27.502  23.040   9.440
 1456POPC   GL120593  27.739  22.970   9.080
 1456POPC   GL220594  27.583  22.682   8.990
 1456POPC   C1A20595  27.706  23.150   8.665
 1456POPC   D2A20596  27.459  23.215   8.284
 1456POPC   C3A20597  27.760  23.069   7.969
 1456POPC   C4A20598  27.815  22.873   7.567
 1456POPC   C1B20599  27.378  22.766   8.622
 1456POPC   C2B20600  27.235  22.604   8.259
 1456POPC   C3B20601  27.405  22.657   7.846
 1456POPC   C4B20602  27.344  22.743   7.429
 1457POPC   NC320603  19.546  23.280   9.370
 1457POPC   PO420604  20.096  22.861   9.415
 1457POPC   GL120605  19.856  22.948   9.069
 1457POPC   GL220606  19.851  23.285   8.947
 1457POPC   C1A20607  19.872  22.745   8.676
 1457POPC   D2A20608  20.073  22.910   8.315
 1457POPC   C3A20609  20.096  22.716   7.925
 1457POPC   C4A20610  20.108  23.076   7.647
 1457POPC   C1B20611  19.472  23.057   8.738
 1457POPC   C2B20612  19.536  22.888   8.311
 1457POPC   C3B20613  19.697  23.042   7.954
 1457POPC   C4B20614  19.660  22.856   7.585
 1458POPC   NC320615  11.309  10.730   9.534
 1458POPC   PO420616  10.899  10.203   9.539
 1458POPC   GL120617  11.156  10.327   9.187
 1458POPC   GL220618  11.503  10.488   9.136
 1458POPC   C1A20619  11.276  10.236   8.771
 1458POPC   D2A20620  11.504  10.486   8.488
 1458POPC   C3A20621  11.308  10.315   8.166
 1458POPC   C4A20622  11.170  10.288   7.764
 1458POPC   C1B20623  11.249  10.764   8.871
 1458POPC   C2B20624  11.275  10.939   8.462
 1458POPC   C3B20625  11.089  10.906   8.088
 1458POPC   C4B20626  11.012  10.764   7.703
 1459POPC   NC320627  16.543  25.840   9.490
 1459POPC   PO420628  17.151  26.035   9.614
 1459POPC   GL120629  16.921  26.229   9.214
 1459POPC   GL220630  16.859  25.950   9.105
 1459POPC   C1A20631  16.730  26.335   8.744
 1459POPC   D2A20632  16.717  26.474   8.299
 1459POPC   C3A20633  16.612  26.225   7.954
 1459POPC   C4A20634  16.851  26.043   7.686
 1459POPC   C1B20635  16.612  25.830   8.781
 1459POPC   C2B20636  16.473  26.002   8.408
 1459POPC   C3B20637  16.295  25.814   8.064
 1459POPC   C4B20638  16.426  25.757   7.674
 1460POPC   NC320639  30.482  29.673   9.504
 1460POPC   PO420640  30.965  30.093   9.656
 1460POPC   GL120641  30.811  29.984   9.228
 1460POPC   GL220642  30.450  30.013   9.104
 1460POPC   C1A20643  30.814  29.764   8.812
 1460POPC   D2A20644  30.968  29.929   8.451
 1460POPC   C3A20645  30.840  29.778   8.054
 1460POPC   C4A20646  30.728  29.950   7.663
 1460POPC   C1B20647  30.331  29.779   8.709
 1460POPC   C2B20648  30.420  29.912   8.306
 1460POPC   C3B20649  30.305  29.782   7.911
 1460POPC   C4B20650  30.337  29.475   7.631
 1461POPC   NC320651  39.932  33.461   9.714
 1461POPC   PO420652  40.138  32.912   9.298
 1461POPC   GL120653  40.125  33.026   8.936
 1461POPC   GL220654  39.750  32.891   8.918
 1461POPC   C1A20655  40.275  32.809   8.616
 1461POPC   D2A20656  39.916  32.745   8.450
 1461POPC   C3A20657  39.959  33.027   8.107
 1461POPC   C4A20658  40.310  33.028   7.806
 1461POPC   C1B20659  39.811  33.219   8.595
 1461POPC   C2B20660  39.609  33.453   8.312
 1461POPC   C3B20661  39.445  33.302   7.959
 1461POPC   C4B20662  39.603  32.953   7.751
 1462POPC   NC320663   3.136  26.112   9.417
 1462POPC   PO420664   2.517  25.879   9.374
 1462POPC   GL120665   2.729  26.088   9.077
 1462POPC   GL220666   2.983  25.819   9.020
 1462POPC   C1A20667   2.591  26.159   8.671
 1462POPC   D2A20668   2.264  26.063   8.396
 1462POPC   C3A20669   2.483  26.193   8.030
 1462POPC   C4A20670   2.567  26.046   7.624
 1462POPC   C1B20671   2.664  25.653   8.726
 1462POPC   C2B20672   2.719  25.794   8.299
 1462POPC   C3B20673   2.958  25.990   7.958
 1462POPC   C4B20674   3.252  26.260   7.734
 1463POPC   NC320675  38.657  37.451   9.481
 1463POPC   PO420676  38.074  37.922   9.381
 1463POPC   GL120677  38.324  37.643   9.129
 1463POPC   GL220678  38.087  37.443   9.025
 1463POPC   C1A20679  38.472  37.594   8.689
 1463POPC   D2A20680  38.412  37.562   8.229
 1463POPC   C3A20681  38.577  37.926   7.953
 1463POPC   C4A20682  38.614  37.892   7.510
 1463POPC   C1B20683  38.069  37.266   8.648
 1463POPC   C2B20684  38.117  37.089   8.261
 1463POPC   C3B20685  38.022  37.323   7.908
 1463POPC   C4B20686  38.274  37.577   7.731
 1464POPC   NC320687  39.173  22.926   9.435
 1464POPC   PO420688  38.550  22.505   9.382
 1464POPC   GL120689  38.824  22.744   9.105
 1464POPC   GL220690  39.002  23.065   8.986
 1464POPC   C1A20691  39.052  22.586   8.757
 1464POPC   D2A20692  39.321  22.473   8.409
 1464POPC   C3A20693  39.209  22.754   8.092
 1464POPC   C4A20694  39.387  22.833   7.749
 1464POPC   C1B20695  38.967  23.362   8.655
 1464POPC   C2B20696  39.142  23.394   8.237
 1464POPC   C3B20697  39.034  23.198   7.822
 1464POPC   C4B20698  38.985  23.055   7.351
 1465POPC   NC320699   1.578  31.213   9.454
 1465POPC   PO420700   2.134  31.574   9.647
 1465POPC   GL120701   2.057  31.426   9.188
 1465POPC   GL220702   2.095  31.072   9.075
 1465POPC   C1A20703   1.902  31.488   8.741
 1465POPC   D2A20704   1.789  31.342   8.281
 1465POPC   C3A20705   1.902  31.642   7.937
 1465POPC   C4A20706   2.298  31.864   7.820
 1465POPC   C1B20707   2.029  31.001   8.619
 1465POPC   C2B20708   2.261  31.123   8.226
 1465POPC   C3B20709   2.258  31.300   7.846
 1465POPC   C4B20710   1.975  31.137   7.570
 1466POPC   NC320711  25.471   4.561   9.921
 1466POPC   PO420712  24.891   4.555   9.566
 1466POPC   GL120713  25.276   4.419   9.308
 1466POPC   GL220714  25.056   4.500   9.043
 1466POPC   C1A20715  25.505   4.291   8.891
 1466POPC   D2A20716  25.253   4.345   8.506
 1466POPC   C3A20717  25.273   4.288   8.055
 1466POPC   C4A20718  25.467   4.292   7.631
 1466POPC   C1B20719  24.878   4.652   8.663
 1466POPC   C2B20720  25.003   4.765   8.238
 1466POPC   C3B20721  24.981   4.636   7.804
 1466POPC   C4B20722  25.032   4.503   7.409
 1467POPC   NC320723  17.643  21.824   9.456
 1467POPC   PO420724  17.449  22.485   9.323
 1467POPC   GL120725  17.601  22.157   9.064
 1467POPC   GL220726  17.347  22.162   8.845
 1467POPC   C1A20727  17.820  22.045   8.650
 1467POPC   D2A20728  17.640  22.013   8.235
 1467POPC   C3A20729  17.613  22.349   7.938
 1467POPC   C4A20730  17.305  22.461   7.634
 1467POPC   C1B20731  17.035  21.961   8.585
 1467POPC   C2B20732  17.153  21.807   8.175
 1467POPC   C3B20733  17.360  21.941   7.798
 1467POPC   C4B20734  17.235  21.899   7.343
 1468POPC   NC320735  16.606  33.368   9.350
 1468POPC   PO420736  16.959  32.920   9.687
 1468POPC   GL120737  16.766  32.893   9.234
 1468POPC   GL220738  17.041  33.037   9.083
 1468POPC   C1A20739  16.632  33.091   8.773
 1468POPC   D2A20740  16.770  33.087   8.320
 1468POPC   C3A20741  16.621  32.738   8.106
 1468POPC   C4A20742  16.550  32.797   7.684
 1468POPC   C1B20743  17.108  32.934   8.683
 1468POPC   C2B20744  17.219  32.804   8.289
 1468POPC   C3B20745  17.060  32.850   7.887
 1468POPC   C4B20746  16.852  33.199   7.728
 1469POPC   NC320747   0.277  32.531   9.455
 1469POPC   PO420748   0.675  31.987   9.580
 1469POPC   GL120749   0.507  32.099   9.214
 1469POPC   GL220750   0.703  32.402   9.149
 1469POPC   C1A20751   0.380  31.917   8.842
 1469POPC   D2A20752   0.326  32.010   8.392
 1469POPC   C3A20753   0.652  32.081   8.089
 1469POPC   C4A20754   0.465  32.020   7.681
 1469POPC   C1B20755   0.447  32.395   8.773
 1469POPC   C2B20756   0.435  32.507   8.338
 1469POPC   C3B20757   0.246  32.407   7.956
 1469POPC   C4B20758   0.018  32.273   7.604
 1470POPC   NC320759   8.854   8.846   9.572
 1470POPC   PO420760   9.420   9.282   9.656
 1470POPC   GL120761   9.218   9.049   9.266
 1470POPC   GL220762   9.371   8.744   9.098
 1470POPC   C1A20763   8.876   9.004   8.934
 1470POPC   D2A20764   8.765   9.213   8.523
 1470POPC   C3A20765   8.799   8.999   8.112
 1470POPC   C4A20766   8.938   9.081   7.689
 1470POPC   C1B20767   9.335   9.039   8.734
 1470POPC   C2B20768   9.435   9.313   8.395
 1470POPC   C3B20769   9.313   9.079   8.039
 1470POPC   C4B20770   9.173   8.664   7.883
 1471POPC   NC320771  40.675  32.945   9.353
 1471POPC   PO420772  40.400  33.405   9.739
 1471POPC   GL120773  40.384  33.395   9.237
 1471POPC   GL220774  40.726  33.448   9.204
 1471POPC   C1A20775  40.585  33.194   8.783
 1471POPC   D2A20776  40.917  33.058   8.473
 1471POPC   C3A20777  40.714  32.855   8.124
 1471POPC   C4A20778  40.929  32.735   7.755
 1471POPC   C1B20779  40.663  33.676   8.834
 1471POPC   C2B20780  40.553  33.752   8.459
 1471POPC   C3B20781  40.733  33.479   8.185
 1471POPC   C4B20782  40.747  33.282   7.813
 1472POPC   NC320783  17.804   6.945   9.361
 1472POPC   PO420784  17.291   6.634   9.563
 1472POPC   GL120785  17.472   6.577   9.171
 1472POPC   GL220786  17.799   6.440   9.266
 1472POPC   C1A20787  17.426   6.759   8.733
 1472POPC   D2A20788  17.290   6.631   8.318
 1472POPC   C3A20789  17.423   6.851   7.953
 1472POPC   C4A20790  17.537   6.565   7.638
 1472POPC   C1B20791  17.835   6.463   8.828
 1472POPC   C2B20792  17.711   6.352   8.461
 1472POPC   C3B20793  17.788   6.524   8.110
 1472POPC   C4B20794  17.951   6.270   7.840
 1473POPC   NC320795  35.163  20.347   9.421
 1473POPC   PO420796  35.441  19.761   9.616
 1473POPC   GL120797  35.297  19.762   9.231
 1473POPC   GL220798  35.608  19.616   9.121
 1473POPC   C1A20799  35.100  19.907   8.858
 1473POPC   D2A20800  35.313  19.980   8.475
 1473POPC   C3A20801  35.116  20.108   8.120
 1473POPC   C4A20802  35.185  19.917   7.734
 1473POPC   C1B20803  35.733  19.427   8.730
 1473POPC   C2B20804  35.632  19.280   8.325
 1473POPC   C3B20805  35.433  19.502   7.988
 1473POPC   C4B20806  35.573  19.629   7.589
 1474POPC   NC320807  15.364   7.914   9.473
 1474POPC   PO420808  15.075   8.477   9.372
 1474POPC   GL120809  15.115   8.158   9.096
 1474POPC   GL220810  15.469   8.240   9.054
 1474POPC   C1A20811  15.139   8.222   8.662
 1474POPC   D2A20812  15.193   8.042   8.281
 1474POPC   C3A20813  14.946   8.125   7.964
 1474POPC   C4A20814  15.238   8.253   7.666
 1474POPC   C1B20815  15.509   8.565   8.680
 1474POPC   C2B20816  15.379   8.558   8.205
 1474POPC   C3B20817  15.528   8.655   7.778
 1474POPC   C4B20818  15.534   8.464   7.319
 1475POPC   NC320819  32.390   2.090   9.393
 1475POPC   PO420820  31.748   2.219   9.520
 1475POPC   GL120821  31.940   2.035   9.128
 1475POPC   GL220822  32.210   2.212   8.937
 1475POPC   C1A20823  32.051   1.794   8.727
 1475POPC   D2A20824  32.224   2.004   8.363
 1475POPC   C3A20825  32.138   1.864   7.969
 1475POPC   C4A20826  31.924   1.563   7.773
 1475POPC   C1B20827  32.578   2.095   8.714
 1475POPC   C2B20828  32.631   2.276   8.291
 1475POPC   C3B20829  32.457   2.260   7.863
 1475POPC   C4B20830  32.508   2.224   7.413
 1476POPC   NC320831  31.632  36.194   9.793
 1476POPC   PO420832  31.223  35.814   9.345
 1476POPC   GL120833  31.469  35.888   8.960
 1476POPC   GL220834  31.817  35.938   9.154
 1476POPC   C1A20835  31.350  36.182   8.629
 1476POPC   D2A20836  31.463  36.447   8.296
 1476POPC   C3A20837  31.440  36.181   7.962
 1476POPC   C4A20838  31.074  36.263   7.754
 1476POPC   C1B20839  31.884  36.165   8.775
 1476POPC   C2B20840  31.772  36.058   8.377
 1476POPC   C3B20841  31.927  36.037   7.998
 1476POPC   C4B20842  31.827  35.823   7.579
 1477POPC   NC320843  35.596  36.523   9.377
 1477POPC   PO420844  35.367  35.922   9.766
 1477POPC   GL120845  35.229  35.858   9.264
 1477POPC   GL220846  35.277  36.171   9.005
 1477POPC   C1A20847  35.216  35.707   8.823
 1477POPC   D2A20848  35.221  35.983   8.445
 1477POPC   C3A20849  35.505  35.779   8.149
 1477POPC   C4A20850  35.434  35.683   7.718
 1477POPC   C1B20851  35.480  36.511   8.735
 1477POPC   C2B20852  35.493  36.721   8.336
 1477POPC   C3B20853  35.566  36.578   7.940
 1477POPC   C4B20854  35.484  36.180   7.804
 1478POPC   NC320855   1.833  14.482   9.408
 1478POPC   PO420856   2.445  14.640   9.350
 1478POPC   GL120857   2.195  14.566   8.952
 1478POPC   GL220858   1.811  14.507   8.920
 1478POPC   C1A20859   2.038  14.640   8.511
 1478POPC   D2A20860   1.801  14.312   8.294
 1478POPC   C3A20861   2.071  14.087   8.001
 1478POPC   C4A20862   2.325  14.451   7.803
 1478POPC   C1B20863   1.490  14.587   8.606
 1478POPC   C2B20864   1.597  14.827   8.250
 1478POPC   C3B20865   1.951  14.731   8.007
 1478POPC   C4B20866   1.813  14.405   7.714
 1479POPC   NC320867  35.785  20.945   9.442
 1479POPC   PO420868  36.043  20.386   9.506
 1479POPC   GL120869  35.997  20.585   9.116
 1479POPC   GL220870  36.235  20.878   9.076
 1479POPC   C1A20871  36.113  20.567   8.704
 1479POPC   D2A20872  36.343  20.596   8.345
 1479POPC   C3A20873  36.038  20.405   8.087
 1479POPC   C4A20874  35.835  20.490   7.752
 1479POPC   C1B20875  36.214  21.071   8.626
 1479POPC   C2B20876  36.240  21.074   8.158
 1479POPC   C3B20877  36.309  20.775   7.846
 1479POPC   C4B20878  36.501  20.369   7.892
 1480POPC   NC320879  38.123  44.898   9.503
 1480POPC   PO420880  38.759  44.625   9.547
 1480POPC   GL120881  38.510  44.712   9.210
 1480POPC   GL220882  38.228  44.458   9.249
 1480POPC   C1A20883  38.386  44.614   8.791
 1480POPC   D2A20884  38.574  44.365   8.470
 1480POPC   C3A20885  38.681  44.690   8.213
 1480POPC   C4A20886  38.565  44.761   7.820
 1480POPC   C1B20887  38.049  44.240   8.874
 1480POPC   C2B20888  38.067  44.363   8.473
 1480POPC   C3B20889  38.204  44.538   8.124
 1480POPC   C4B20890  38.198  44.422   7.720
 1481POPC   NC320891   5.314  12.047   9.519
 1481POPC   PO420892   4.848  12.513   9.523
 1481POPC   GL120893   4.925  12.286   9.143
 1481POPC   GL220894   4.857  11.937   9.175
 1481POPC   C1A20895   5.049  12.097   8.746
 1481POPC   D2A20896   4.901  12.038   8.335
 1481POPC   C3A20897   5.053  12.285   8.018
 1481POPC   C4A20898   5.236  12.232   7.638
 1481POPC   C1B20899   4.658  11.766   8.747
 1481POPC   C2B20900   4.631  11.627   8.278
 1481POPC   C3B20901   4.898  11.769   7.872
 1481POPC   C4B20902   4.986  11.879   7.398
 1482POPC   NC320903  18.160  23.327   9.781
 1482POPC   PO420904  18.357  23.840   9.382
 1482POPC   GL120905  18.292  23.472   9.137
 1482POPC   GL220906  18.657  23.470   9.145
 1482POPC   C1A20907  18.033  23.491   8.719
 1482POPC   D2A20908  17.886  23.744   8.380
 1482POPC   C3A20909  17.975  23.632   7.967
 1482POPC   C4A20910  18.081  23.540   7.523
 1482POPC   C1B20911  18.533  23.671   8.732
 1482POPC   C2B20912  18.380  23.601   8.328
 1482POPC   C3B20913  18.456  23.548   7.897
 1482POPC   C4B20914  18.517  24.014   7.841
 1483POPC   NC320915  35.097   6.745   9.879
 1483POPC   PO420916  35.347   6.252   9.565
 1483POPC   GL120917  35.457   6.512   9.182
 1483POPC   GL220918  35.305   6.840   9.050
 1483POPC   C1A20919  35.313   6.447   8.739
 1483POPC   D2A20920  35.546   6.480   8.375
 1483POPC   C3A20921  35.329   6.682   8.081
 1483POPC   C4A20922  35.392   6.605   7.689
 1483POPC   C1B20923  34.963   6.952   8.777
 1483POPC   C2B20924  34.864   7.121   8.344
 1483POPC   C3B20925  34.925   6.964   7.928
 1483POPC   C4B20926  35.146   7.076   7.599
 1484POPC   NC320927  22.736  16.165   9.623
 1484POPC   PO420928  23.256  15.873   9.614
 1484POPC   GL120929  23.075  16.106   9.223
 1484POPC   GL220930  22.697  16.095   9.131
 1484POPC   C1A20931  23.082  16.172   8.773
 1484POPC   D2A20932  23.111  15.837   8.456
 1484POPC   C3A20933  23.157  15.936   8.045
 1484POPC   C4A20934  23.228  16.258   7.777
 1484POPC   C1B20935  22.443  16.112   8.767
 1484POPC   C2B20936  22.672  16.088   8.398
 1484POPC   C3B20937  22.726  16.203   7.973
 1484POPC   C4B20938  22.855  15.954   7.602
 1485POPC   NC320939  14.791  10.842   9.443
 1485POPC   PO420940  15.240  11.344   9.569
 1485POPC   GL120941  15.392  11.463   9.216
 1485POPC   GL220942  15.050  11.455   9.094
 1485POPC   C1A20943  15.534  11.466   8.818
 1485POPC   D2A20944  15.386  11.321   8.432
 1485POPC   C3A20945  15.360  11.553   8.085
 1485POPC   C4A20946  15.555  11.410   7.721
 1485POPC   C1B20947  15.029  11.566   8.685
 1485POPC   C2B20948  14.879  11.418   8.289
 1485POPC   C3B20949  14.893  11.514   7.847
 1485POPC   C4B20950  14.918  11.558   7.391
 1486POPC   NC320951  42.932  14.682   9.477
 1486POPC   PO420952  43.213  15.342   9.424
 1486POPC   GL120953  43.062  15.080   9.160
 1486POPC   GL220954  43.351  15.135   8.978
 1486POPC   C1A20955  42.832  14.901   8.850
 1486POPC   D2A20956  42.882  15.011   8.436
 1486POPC   C3A20957  42.744  14.804   8.082
 1486POPC   C4A20958  42.815  15.131   7.789
 1486POPC   C1B20959  43.504  15.274   8.601
 1486POPC   C2B20960  43.316  15.203   8.205
 1486POPC   C3B20961  43.127  15.503   7.938
 1486POPC   C4B20962  43.072  15.442   7.489
 1487POPC   NC320963  25.073  35.753   9.501
 1487POPC   PO420964  25.443  36.238   9.707
 1487POPC   GL120965  25.267  36.152   9.264
 1487POPC   GL220966  24.995  36.388   9.235
 1487POPC   C1A20967  25.353  35.886   8.867
 1487POPC   D2A20968  25.376  36.105   8.487
 1487POPC   C3A20969  25.551  35.955   8.103
 1487POPC   C4A20970  25.293  35.894   7.742
 1487POPC   C1B20971  25.218  36.480   8.844
 1487POPC   C2B20972  25.271  36.606   8.415
 1487POPC   C3B20973  25.247  36.387   8.051
 1487POPC   C4B20974  25.144  36.632   7.722
 1488POPC   NC320975  21.435  30.188   9.406
 1488POPC   PO420976  21.283  29.596   9.533
 1488POPC   GL120977  21.173  29.832   9.155
 1488POPC   GL220978  21.475  29.903   8.974
 1488POPC   C1A20979  21.018  30.068   8.781
 1488POPC   D2A20980  20.919  29.952   8.354
 1488POPC   C3A20981  21.193  29.926   8.028
 1488POPC   C4A20982  21.521  30.207   8.033
 1488POPC   C1B20983  21.443  29.928   8.515
 1488POPC   C2B20984  21.610  29.647   8.240
 1488POPC   C3B20985  21.665  29.763   7.850
 1488POPC   C4B20986  21.464  29.664   7.493
 1489POPC   NC320987  28.139  28.467   9.630
 1489POPC   PO420988  28.760  28.421   9.736
 1489POPC   GL120989  28.527  28.340   9.278
 1489POPC   GL220990  28.238  28.572   9.155
 1489POPC   C1A20991  28.397  28.178   8.821
 1489POPC   D2A20992  28.319  27.988   8.392
 1489POPC   C3A20993  28.256  28.220   8.010
 1489POPC   C4A20994  28.451  28.109   7.630
 1489POPC   C1B20995  28.383  28.674   8.763
 1489POPC   C2B20996  28.228  28.640   8.354
 1489POPC   C3B20997  28.457  28.715   8.002
 1489POPC   C4B20998  28.368  28.880   7.582
 1490POPC   NC320999  38.577  41.366   9.480
 1490POPC   PO421000  38.108  41.835   9.591
 1490POPC   GL121001  38.391  41.747   9.189
 1490POPC   GL221002  38.634  42.003   9.108
 1490POPC   C1A21003  38.581  41.583   8.747
 1490POPC   D2A21004  38.837  41.519   8.360
 1490POPC   C3A21005  38.684  41.290   7.977
 1490POPC   C4A21006  38.409  41.423   7.644
 1490POPC   C1B21007  38.265  41.994   8.772
 1490POPC   C2B21008  38.245  41.766   8.402
 1490POPC   C3B21009  38.440  41.735   8.029
 1490POPC   C4B21010  38.333  41.973   7.613
 1491POPC   NC321011   4.379  12.344   9.502
 1491POPC   PO421012   4.489  11.663   9.435
 1491POPC   GL121013   4.219  11.964   9.168
 1491POPC   GL221014   4.437  12.149   9.049
 1491POPC   C1A21015   4.083  12.133   8.734
 1491POPC   D2A21016   4.284  12.002   8.356
 1491POPC   C3A21017   4.022  12.061   7.986
 1491POPC   C4A21018   3.959  12.180   7.576
 1491POPC   C1B21019   4.597  12.299   8.686
 1491POPC   C2B21020   4.554  12.434   8.271
 1491POPC   C3B21021   4.560  12.157   7.940
 1491POPC   C4B21022   4.751  12.285   7.560
 1492POPC   NC321023  14.365  10.354   9.583
 1492POPC   PO421024  14.365  10.925   9.315
 1492POPC   GL121025  14.454  10.542   9.084
 1492POPC   GL221026  14.236  10.234   9.110
 1492POPC   C1A21027  14.552  10.501   8.634
 1492POPC   D2A21028  14.786  10.494   8.229
 1492POPC   C3A21029  14.496  10.486   7.872
 1492POPC   C4A21030  14.504  10.622   7.415
 1492POPC   C1B21031  14.147  10.180   8.683
 1492POPC   C2B21032  13.933  10.465   8.418
 1492POPC   C3B21033  13.939  10.569   7.979
 1492POPC   C4B21034  14.060  10.373   7.573
 1493POPC   NC321035  11.844  27.811   9.736
 1493POPC   PO421036  12.324  27.510   9.424
 1493POPC   GL121037  12.106  27.774   9.116
 1493POPC   GL221038  11.757  27.841   9.184
 1493POPC   C1A21039  12.192  27.799   8.677
 1493POPC   D2A21040  12.461  28.012   8.375
 1493POPC   C3A21041  12.267  27.742   8.065
 1493POPC   C4A21042  11.937  27.506   7.823
 1493POPC   C1B21043  11.683  27.973   8.724
 1493POPC   C2B21044  11.754  27.872   8.251
 1493POPC   C3B21045  11.517  27.814   7.856
 1493POPC   C4B21046  11.600  27.811   7.384
 1494POPC   NC321047  39.914   2.724   9.756
 1494POPC   PO421048  40.403   2.924   9.363
 1494POPC   GL121049  40.077   2.906   9.115
 1494POPC   GL221050  39.873   3.181   9.137
 1494POPC   C1A21051  40.088   2.710   8.716
 1494POPC   D2A21052  40.273   2.779   8.343
 1494POPC   C3A21053  40.113   2.526   8.042
 1494POPC   C4A21054  40.265   2.557   7.670
 1494POPC   C1B21055  39.674   3.008   8.792
 1494POPC   C2B21056  39.872   3.094   8.402
 1494POPC   C3B21057  39.841   2.949   7.991
 1494POPC   C4B21058  40.038   3.036   7.615
 1495POPC   NC321059  37.643  24.146   9.341
 1495POPC   PO421060  37.756  24.705   9.436
 1495POPC   GL121061  37.510  24.591   9.096
 1495POPC   GL221062  37.508  24.851   8.852
 1495POPC   C1A21063  37.266  24.339   8.831
 1495POPC   D2A21064  37.358  24.106   8.461
 1495POPC   C3A21065  37.463  24.338   8.117
 1495POPC   C4A21066  37.415  24.135   7.739
 1495POPC   C1B21067  37.697  24.502   8.597
 1495POPC   C2B21068  37.983  24.270   8.331
 1495POPC   C3B21069  37.944  24.282   7.898
 1495POPC   C4B21070  37.689  24.601   7.712
 1496POPC   NC321071  29.206  17.958   9.660
 1496POPC   PO421072  28.954  18.525   9.474
 1496POPC   GL121073  29.176  18.319   9.162
 1496POPC   GL221074  29.450  18.096   9.210
 1496POPC   C1A21075  29.027  18.247   8.758
 1496POPC   D2A21076  28.801  18.209   8.393
 1496POPC   C3A21077  28.954  18.342   7.980
 1496POPC   C4A21078  28.807  18.176   7.564
 1496POPC   C1B21079  29.527  18.201   8.784
 1496POPC   C2B21080  29.376  18.294   8.372
 1496POPC   C3B21081  29.449  18.136   7.972
 1496POPC   C4B21082  29.306  18.242   7.596
 1497POPC   NC321083  42.752   2.667   9.683
 1497POPC   PO421084  43.427   2.597   9.333
 1497POPC   GL121085  43.279   2.835   9.059
 1497POPC   GL221086  42.940   2.907   9.017
 1497POPC   C1A21087  43.330   2.692   8.668
 1497POPC   D2A21088  43.162   2.657   8.272
 1497POPC   C3A21089  43.380   2.553   7.921
 1497POPC   C4A21090  43.207   2.692   7.512
 1497POPC   C1B21091  42.828   2.600   8.673
 1497POPC   C2B21092  42.695   2.457   8.252
 1497POPC   C3B21093  42.833   2.568   7.838
 1497POPC   C4B21094  42.759   2.561   7.358
 1498POPC   NC321095   6.058  10.173   9.515
 1498POPC   PO421096   5.857  10.777   9.770
 1498POPC   GL121097   5.844  10.769   9.293
 1498POPC   GL221098   5.506  10.791   9.137
 1498POPC   C1A21099   6.039  10.657   8.877
 1498POPC   D2A21100   6.007  10.307   8.573
 1498POPC   C3A21101   6.082  10.375   8.135
 1498POPC   C4A21102   5.817  10.312   7.778
 1498POPC   C1B21103   5.637  10.952   8.742
 1498POPC   C2B21104   5.809  10.746   8.404
 1498POPC   C3B21105   5.756  10.763   7.983
 1498POPC   C4B21106   5.887  10.783   7.541
 1499POPC   NC321107  21.577  38.238   9.451
 1499POPC   PO421108  20.983  38.543   9.522
 1499POPC   GL121109  21.094  38.306   9.156
 1499POPC   GL221110  21.320  38.562   9.102
 1499POPC   C1A21111  21.233  38.242   8.714
 1499POPC   D2A21112  21.484  38.359   8.339
 1499POPC   C3A21113  21.251  38.345   8.002
 1499POPC   C4A21114  21.324  38.168   7.631
 1499POPC   C1B21115  21.568  38.663   8.733
 1499POPC   C2B21116  21.919  38.608   8.439
 1499POPC   C3B21117  21.783  38.722   8.014
 1499POPC   C4B21118  21.434  38.720   7.722
 1500POPC   NC321119  32.546  20.238   9.509
 1500POPC   PO421120  31.961  20.669   9.510
 1500POPC   GL121121  32.128  20.731   9.153
 1500POPC   GL221122  32.492  20.770   9.233
 1500POPC   C1A21123  32.208  20.912   8.784
 1500POPC   D2A21124  32.014  20.852   8.416
 1500POPC   C3A21125  32.143  20.817   8.022
 1500POPC   C4A21126  32.024  20.511   7.714
 1500POPC   C1B21127  32.410  20.442   8.877
 1500POPC   C2B21128  32.455  20.556   8.467
 1500POPC   C3B21129  32.434  20.409   8.075
 1500POPC   C4B21130  32.501  20.338   7.685
 1501POPC   NC321131   4.145  19.959   9.389
 1501POPC   PO421132   4.387  19.375   9.438
 1501POPC   GL121133   4.471  19.688   9.100
 1501POPC   GL221134   4.664  19.985   9.169
 1501POPC   C1A21135   4.291  19.860   8.722
 1501POPC   D2A21136   4.064  19.630   8.416
 1501POPC   C3A21137   4.189  19.742   8.028
 1501POPC   C4A21138   3.986  19.527   7.664
 1501POPC   C1B21139   4.682  20.210   8.782
 1501POPC   C2B21140   4.573  20.165   8.348
 1501POPC   C3B21141   4.633  20.047   7.923
 1501POPC   C4B21142   4.392  19.871   7.595
 1502POPC   NC321143  41.276   7.090   9.552
 1502POPC   PO421144  41.620   7.716   9.519
 1502POPC   GL121145  41.515   7.512   9.183
 1502POPC   GL221146  41.800   7.676   9.033
 1502POPC   C1A21147  41.350   7.353   8.803
 1502POPC   D2A21148  41.236   7.531   8.393
 1502POPC   C3A21149  41.303   7.319   7.947
 1502POPC   C4A21150  41.133   7.019   7.643
 1502POPC   C1B21151  41.832   7.436   8.654
 1502POPC   C2B21152  41.704   7.438   8.236
 1502POPC   C3B21153  41.689   7.664   7.852
 1502POPC   C4B21154  41.895   7.560   7.467
 1503POPC   NC321155   3.164   5.154   9.287
 1503POPC   PO421156   2.586   5.082   9.628
 1503POPC   GL121157   2.699   4.963   9.220
 1503POPC   GL221158   2.684   5.344   9.169
 1503POPC   C1A21159   2.566   4.845   8.794
 1503POPC   D2A21160   2.460   4.902   8.349
 1503POPC   C3A21161   2.775   5.078   8.017
 1503POPC   C4A21162   2.866   4.721   7.733
 1503POPC   C1B21163   2.830   5.263   8.781
 1503POPC   C2B21164   2.964   5.002   8.479
 1503POPC   C3B21165   3.126   4.749   8.166
 1503POPC   C4B21166   3.290   4.979   7.805
 1504POPC   NC321167  18.610  18.930   9.518
 1504POPC   PO421168  17.932  18.813   9.423
 1504POPC   GL121169  18.251  18.843   9.148
 1504POPC   GL221170  18.278  19.139   9.159
 1504POPC   C1A21171  18.473  18.914   8.754
 1504POPC   D2A21172  18.367  18.784   8.347
 1504POPC   C3A21173  18.281  18.980   7.989
 1504POPC   C4A21174  18.432  18.881   7.636
 1504POPC   C1B21175  18.191  19.356   8.804
 1504POPC   C2B21176  18.131  19.283   8.389
 1504POPC   C3B21177  18.178  19.492   7.996
 1504POPC   C4B21178  18.325  19.392   7.605
 1505POPC   NC321179  15.591  18.198   9.501
 1505POPC   PO421180  16.176  18.550   9.501
 1505POPC   GL121181  15.926  18.440   9.174
 1505POPC   GL221182  15.893  18.097   9.115
 1505POPC   C1A21183  15.796  18.430   8.759
 1505POPC   D2A21184  15.768  18.200   8.430
 1505POPC   C3A21185  15.781  18.410   8.060
 1505POPC   C4A21186  15.932  18.350   7.664
 1505POPC   C1B21187  16.116  17.953   8.786
 1505POPC   C2B21188  16.182  17.889   8.374
 1505POPC   C3B21189  15.933  17.922   8.011
 1505POPC   C4B21190  16.060  17.847   7.631
 1506POPC   NC321191  39.679  25.613   9.519
 1506POPC   PO421192  40.037  24.985   9.566
 1506POPC   GL121193  40.095  25.101   9.132
 1506POPC   GL221194  39.965  25.422   9.125
 1506POPC   C1A21195  39.888  25.039   8.732
 1506POPC   D2A21196  39.684  25.123   8.351
 1506POPC   C3A21197  39.923  25.093   7.949
 1506POPC   C4A21198  39.823  25.119   7.482
 1506POPC   C1B21199  40.079  25.529   8.705
 1506POPC   C2B21200  40.095  25.453   8.262
 1506POPC   C3B21201  39.983  25.646   7.865
 1506POPC   C4B21202  40.064  25.600   7.419
 1507POPC   NC321203  13.209  12.553   9.448
 1507POPC   PO421204  12.565  12.800   9.274
 1507POPC   GL121205  12.863  12.580   9.085
 1507POPC   GL221206  13.080  12.901   9.105
 1507POPC   C1A21207  12.900  12.645   8.682
 1507POPC   D2A21208  12.659  12.890   8.416
 1507POPC   C3A21209  12.692  12.704   8.040
 1507POPC   C4A21210  12.986  12.662   7.717
 1507POPC   C1B21211  13.241  13.042   8.723
 1507POPC   C2B21212  13.162  12.869   8.292
 1507POPC   C3B21213  13.025  13.107   7.960
 1507POPC   C4B21214  13.281  13.383   7.677
 1508POPC   NC321215   2.939   1.256   9.464
 1508POPC   PO421216   2.559   0.800   9.387
 1508POPC   GL121217   2.635   1.101   9.059
 1508POPC   GL221218   2.988   1.192   8.976
 1508POPC   C1A21219   2.627   1.272   8.631
 1508POPC   D2A21220   3.002   1.415   8.408
 1508POPC   C3A21221   2.804   1.482   8.051
 1508POPC   C4A21222   2.882   1.318   7.685
 1508POPC   C1B21223   2.940   0.861   8.669
 1508POPC   C2B21224   2.851   0.963   8.238
 1508POPC   C3B21225   2.534   1.060   7.956
 1508POPC   C4B21226   2.527   0.943   7.517
 1509POPC   NC321227  15.874  20.801   9.584
 1509POPC   PO421228  16.017  20.164   9.526
 1509POPC   GL121229  15.950  20.462   9.185
 1509POPC   GL221230  16.161  20.765   9.163
 1509POPC   C1A21231  16.066  20.452   8.757
 1509POPC   D2A21232  15.847  20.635   8.423
 1509POPC   C3A21233  15.929  20.526   8.009
 1509POPC   C4A21234  15.692  20.706   7.667
 1509POPC   C1B21235  15.877  20.939   8.865
 1509POPC   C2B21236  15.926  21.149   8.466
 1509POPC   C3B21237  15.908  21.043   8.042
 1509POPC   C4B21238  16.150  20.885   7.697
 1510POPC   NC321239   0.605   0.130   9.474
 1510POPC   PO421240   0.756   0.769   9.272
 1510POPC   GL121241   0.517   0.455   9.073
 1510POPC   GL221242   0.259   0.205   9.101
 1510POPC   C1A21243   0.607   0.497   8.671
 1510POPC   D2A21244   0.526   0.776   8.381
 1510POPC   C3A21245   0.639   0.531   8.030
 1510POPC   C4A21246   0.613   0.447   7.581
 1510POPC   C1B21247   0.047   0.059   8.744
 1510POPC   C2B21248   0.280   0.200   8.375
 1510POPC   C3B21249   0.193   0.269   7.975
 1510POPC   C4B21250   0.251   0.069   7.642
 1511POPC   NC321251  39.676  12.985   9.557
 1511POPC   PO421252  40.310  13.114   9.598
 1511POPC   GL121253  40.139  12.840   9.236
 1511POPC   GL221254  39.894  12.559   9.236
 1511POPC   C1A21255  39.906  12.905   8.837
 1511POPC   D2A21256  39.716  13.017   8.447
 1511POPC   C3A21257  39.965  12.987   8.081
 1511POPC   C4A21258  39.796  12.890   7.686
 1511POPC   C1B21259  39.888  12.398   8.821
 1511POPC   C2B21260  40.023  12.575   8.450
 1511POPC   C3B21261  39.986  12.479   8.027
 1511POPC   C4B21262  40.260  12.676   7.748
 1512POPC   NC321263   9.058   0.137   9.490
 1512POPC   PO421264   8.425   0.382   9.433
 1512POPC   GL121265   8.727   0.467   9.145
 1512POPC   GL221266   8.877   0.154   9.028
 1512POPC   C1A21267   8.751   0.754   8.784
 1512POPC   D2A21268   8.999   0.741   8.383
 1512POPC   C3A21269   8.850   0.729   7.943
 1512POPC   C4A21270   9.051   0.688   7.518
 1512POPC   C1B21271   9.076   0.353   8.706
 1512POPC   C2B21272   9.279   0.294   8.290
 1512POPC   C3B21273   9.167   0.320   7.838
 1512POPC   C4B21274   9.189   0.186   7.366
 1513POPC   NC321275   3.859   8.600   9.513
 1513POPC   PO421276   4.309   9.059   9.679
 1513POPC   GL121277   4.387   9.120   9.229
 1513POPC   GL221278   4.327   8.798   9.191
 1513POPC   C1A21279   4.405   9.331   8.839
 1513POPC   D2A21280   4.448   9.148   8.452
 1513POPC   C3A21281   4.288   9.318   8.096
 1513POPC   C4A21282   4.294   9.172   7.687
 1513POPC   C1B21283   4.672   8.850   8.860
 1513POPC   C2B21284   4.691   8.706   8.412
 1513POPC   C3B21285   4.544   8.847   8.002
 1513POPC   C4B21286   4.470   8.702   7.598
 1514POPC   NC321287  31.120  16.053   9.474
 1514POPC   PO421288  31.780  15.778   9.595
 1514POPC   GL121289  31.653  15.895   9.163
 1514POPC   GL221290  31.374  16.129   9.039
 1514POPC   C1A21291  31.732  15.956   8.732
 1514POPC   D2A21292  31.475  15.916   8.375
 1514POPC   C3A21293  31.582  16.124   8.032
 1514POPC   C4A21294  31.744  16.071   7.669
 1514POPC   C1B21295  31.027  15.910   8.830
 1514POPC   C2B21296  31.018  15.721   8.420
 1514POPC   C3B21297  30.965  15.960   8.037
 1514POPC   C4B21298  31.209  16.034   7.672
 1515POPC   NC321299  43.828  14.492   9.283
 1515POPC   PO421300  43.269  14.397   9.683
 1515POPC   GL121301  43.248  14.358   9.235
 1515POPC   GL221302  43.346  14.649   9.121
 1515POPC   C1A21303  42.996  14.391   8.861
 1515POPC   D2A21304  43.068  14.125   8.556
 1515POPC   C3A21305  42.876  14.138   8.183
 1515POPC   C4A21306  43.136  14.276   7.844
 1515POPC   C1B21307  43.285  14.770   8.658
 1515POPC   C2B21308  43.206  14.620   8.267
 1515POPC   C3B21309  43.220  14.782   7.855
 1515POPC   C4B21310  42.870  14.656   7.593
 1516POPC   NC321311  21.809   4.912   9.404
 1516POPC   PO421312  22.180   5.422   9.390
 1516POPC   GL121313  22.001   5.240   9.029
 1516POPC   GL221314  22.082   4.883   8.995
 1516POPC   C1A21315  22.173   5.272   8.612
 1516POPC   D2A21316  22.492   5.245   8.283
 1516POPC   C3A21317  22.246   5.341   7.919
 1516POPC   C4A21318  21.975   5.128   7.660
 1516POPC   C1B21319  21.958   4.788   8.609
 1516POPC   C2B21320  22.021   4.971   8.218
 1516POPC   C3B21321  21.927   4.699   7.903
 1516POPC   C4B21322  21.906   4.635   7.453
 1517POPC   NC321323  18.573  11.285   9.696
 1517POPC   PO421324  17.949  11.617   9.628
 1517POPC   GL121325  18.030  11.641   9.178
 1517POPC   GL221326  18.341  11.507   9.072
 1517POPC   C1A21327  17.929  11.369   8.811
 1517POPC   D2A21328  17.927  11.069   8.450
 1517POPC   C3A21329  17.948  11.243   8.034
 1517POPC   C4A21330  17.998  11.087   7.623
 1517POPC   C1B21331  18.393  11.207   8.699
 1517POPC   C2B21332  18.410  11.107   8.304
 1517POPC   C3B21333  18.532  11.324   7.971
 1517POPC   C4B21334  18.269  11.583   7.808
 1518POPC   NC321335  19.463  33.779   9.505
 1518POPC   PO421336  19.919  33.384   9.713
 1518POPC   GL121337  19.924  33.777   9.299
 1518POPC   GL221338  19.953  33.577   8.939
 1518POPC   C1A21339  19.725  34.009   8.908
 1518POPC   D2A21340  19.672  33.869   8.469
 1518POPC   C3A21341  19.721  34.096   8.083
 1518POPC   C4A21342  19.926  34.005   7.696
 1518POPC   C1B21343  19.622  33.410   8.667
 1518POPC   C2B21344  19.440  33.406   8.271
 1518POPC   C3B21345  19.635  33.590   7.903
 1518POPC   C4B21346  19.741  33.607   7.450
 1519POPC   NC321347  11.329  43.791   9.774
 1519POPC   PO421348  11.451  44.388   9.526
 1519POPC   GL121349  11.448  44.171   9.153
 1519POPC   GL221350  11.711  44.427   9.064
 1519POPC   C1A21351  11.343  43.884   8.790
 1519POPC   D2A21352  11.175  43.691   8.385
 1519POPC   C3A21353  11.336  43.823   7.951
 1519POPC   C4A21354  11.625  43.551   7.688
 1519POPC   C1B21355  11.751  44.213   8.720
 1519POPC   C2B21356  11.607  44.014   8.362
 1519POPC   C3B21357  11.687  44.218   7.975
 1519POPC   C4B21358  11.460  44.276   7.604
 1520POPC   NC321359  15.657  21.496   9.496
 1520POPC   PO421360  16.238  21.087   9.564
 1520POPC   GL121361  16.069  21.298   9.212
 1520POPC   GL221362  16.145  21.639   9.281
 1520POPC   C1A21363  15.822  21.462   8.864
 1520POPC   D2A21364  15.502  21.424   8.533
 1520POPC   C3A21365  15.671  21.517   8.125
 1520POPC   C4A21366  15.895  21.498   7.735
 1520POPC   C1B21367  16.154  21.842   8.887
 1520POPC   C2B21368  16.047  21.697   8.471
 1520POPC   C3B21369  16.205  21.735   8.084
 1520POPC   C4B21370  16.363  21.828   7.695
 1521POPC   NC321371  36.435  39.089   9.330
 1521POPC   PO421372  35.966  39.575   9.507
 1521POPC   GL121373  36.080  39.393   9.101
 1521POPC   GL221374  35.968  39.033   9.069
 1521POPC   C1A21375  36.344  39.417   8.711
 1521POPC   D2A21376  36.500  39.325   8.297
 1521POPC   C3A21377  36.293  39.494   7.958
 1521POPC   C4A21378  36.307  39.442   7.535
 1521POPC   C1B21379  36.051  38.984   8.626
 1521POPC   C2B21380  36.080  39.048   8.180
 1521POPC   C3B21381  36.121  39.011   7.749
 1521POPC   C4B21382  36.014  39.091   7.316
 1522POPC   NC321383  23.437  23.680   9.405
 1522POPC   PO421384  24.131  23.536   9.593
 1522POPC   GL121385  23.929  23.608   9.172
 1522POPC   GL221386  24.041  23.927   8.965
 1522POPC   C1A21387  23.687  23.622   8.784
 1522POPC   D2A21388  23.668  23.828   8.400
 1522POPC   C3A21389  23.582  23.591   8.063
 1522POPC   C4A21390  23.565  23.610   7.676
 1522POPC   C1B21391  23.989  24.173   8.631
 1522POPC   C2B21392  24.027  24.144   8.192
 1522POPC   C3B21393  23.789  24.034   7.865
 1522POPC   C4B21394  23.964  23.876   7.512
 1523POPC   NC321395  13.491   5.359   9.618
 1523POPC   PO421396  13.877   5.839   9.451
 1523POPC   GL121397  13.639   5.808   9.107
 1523POPC   GL221398  13.487   5.495   9.137
 1523POPC   C1A21399  13.683   5.982   8.711
 1523POPC   D2A21400  13.451   5.941   8.360
 1523POPC   C3A21401  13.584   6.111   8.074
 1523POPC   C4A21402  13.753   6.004   7.741
 1523POPC   C1B21403  13.716   5.474   8.736
 1523POPC   C2B21404  13.772   5.332   8.365
 1523POPC   C3B21405  13.707   5.596   8.036
 1523POPC   C4B21406  13.573   5.530   7.629
 1524POPC   NC321407  38.309  35.749   9.538
 1524POPC   PO421408  38.489  36.398   9.422
 1524POPC   GL121409  38.284  36.104   9.155
 1524POPC   GL221410  38.574  35.881   9.128
 1524POPC   C1A21411  38.072  36.180   8.734
 1524POPC   D2A21412  37.950  36.289   8.316
 1524POPC   C3A21413  38.254  36.082   8.051
 1524POPC   C4A21414  38.343  36.234   7.636
 1524POPC   C1B21415  38.598  36.163   8.775
 1524POPC   C2B21416  38.672  36.099   8.362
 1524POPC   C3B21417  38.734  36.223   7.953
 1524POPC   C4B21418  38.677  35.854   7.697
 1525POPC   NC321419  43.842  37.110   9.701
 1525POPC   PO421420  43.340  36.770   9.717
 1525POPC   GL121421  43.674  36.801   9.255
 1525POPC   GL221422  43.917  37.093   9.186
 1525POPC   C1A21423  43.673  36.977   8.766
 1525POPC   D2A21424  43.825  37.035   8.333
 1525POPC   C3A21425  43.791  36.791   7.922
 1525POPC   C4A21426  43.794  36.902   7.479
 1525POPC   C1B21427  44.231  37.066   8.854
 1525POPC   C2B21428  44.326  37.199   8.450
 1525POPC   C3B21429  44.252  36.972   8.078
 1525POPC   C4B21430  44.224  37.061   7.686
 1526POPC   NC321431   9.369  28.557   9.500
 1526POPC   PO421432   8.702  28.378   9.495
 1526POPC   GL121433   8.904  28.436   9.154
 1526POPC   GL221434   9.151  28.177   9.174
 1526POPC   C1A21435   8.800  28.346   8.751
 1526POPC   D2A21436   8.958  28.235   8.350
 1526POPC   C3A21437   8.670  28.271   8.004
 1526POPC   C4A21438   8.903  28.481   7.680
 1526POPC   C1B21439   9.289  28.169   8.757
 1526POPC   C2B21440   9.546  28.116   8.414
 1526POPC   C3B21441   9.394  28.277   8.049
 1526POPC   C4B21442   9.389  28.406   7.647
 1527POPC   NC321443   9.087   5.691   9.558
 1527POPC   PO421444   8.676   6.185   9.551
 1527POPC   GL121445   8.944   6.029   9.183
 1527POPC   GL221446   8.886   5.664   9.093
 1527POPC   C1A21447   8.882   6.101   8.739
 1527POPC   D2A21448   9.045   6.073   8.339
 1527POPC   C3A21449   8.837   6.088   7.932
 1527POPC   C4A21450   8.985   5.806   7.628
 1527POPC   C1B21451   8.631   5.666   8.720
 1527POPC   C2B21452   8.550   5.857   8.303
 1527POPC   C3B21453   8.541   5.674   7.875
 1527POPC   C4B21454   8.546   5.696   7.406
 1528POPC   NC321455  31.856  11.928   9.488
 1528POPC   PO421456  31.310  12.339   9.613
 1528POPC   GL121457  31.365  12.265   9.198
 1528POPC   GL221458  31.504  11.936   9.140
 1528POPC   C1A21459  31.361  12.238   8.770
 1528POPC   D2A21460  31.427  12.109   8.379
 1528POPC   C3A21461  31.104  12.163   8.095
 1528POPC   C4A21462  31.293  12.139   7.706
 1528POPC   C1B21463  31.793  11.942   8.765
 1528POPC   C2B21464  31.823  11.786   8.330
 1528POPC   C3B21465  31.764  11.929   7.887
 1528POPC   C4B21466  31.634  11.651   7.565
 1529POPC   NC321467  32.740  37.182   9.359
 1529POPC   PO421468  33.393  37.284   9.487
 1529POPC   GL121469  33.296  36.955   9.170
 1529POPC   GL221470  33.334  36.578   9.233
 1529POPC   C1A21471  33.153  36.937   8.740
 1529POPC   D2A21472  32.994  36.884   8.331
 1529POPC   C3A21473  32.800  37.242   8.144
 1529POPC   C4A21474  32.653  37.269   7.723
 1529POPC   C1B21475  33.584  36.635   8.842
 1529POPC   C2B21476  33.593  36.813   8.419
 1529POPC   C3B21477  33.412  36.719   8.021
 1529POPC   C4B21478  33.077  36.928   7.811
 1530POPC   NC321479  28.673  33.996   9.481
 1530POPC   PO421480  28.010  33.969   9.554
 1530POPC   GL121481  28.170  33.721   9.202
 1530POPC   GL221482  28.496  33.805   9.050
 1530POPC   C1A21483  28.127  33.597   8.752
 1530POPC   D2A21484  28.328  33.684   8.354
 1530POPC   C3A21485  28.155  33.626   7.917
 1530POPC   C4A21486  28.458  33.731   7.545
 1530POPC   C1B21487  28.692  34.145   8.814
 1530POPC   C2B21488  28.666  34.096   8.377
 1530POPC   C3B21489  28.407  34.060   8.013
 1530POPC   C4B21490  28.384  34.229   7.621
 1531POPC   NC321491  34.463  44.922   9.456
 1531POPC   PO421492  34.831  44.426   9.757
 1531POPC   GL121493  34.819  44.515   9.296
 1531POPC   GL221494  34.840  44.830   9.098
 1531POPC   C1A21495  34.605  44.430   8.882
 1531POPC   D2A21496  34.498  44.577   8.461
 1531POPC   C3A21497  34.854  44.653   8.186
 1531POPC   C4A21498  34.703  44.562   7.791
 1531POPC   C1B21499  34.534  44.986   8.765
 1531POPC   C2B21500  34.592   0.072   8.312
 1531POPC   C3B21501  34.513   0.147   7.891
 1531POPC   C4B21502  34.556  44.968   7.504
 1532POPC   NC321503  32.252   5.414   9.856
 1532POPC   PO421504  31.956   4.957   9.538
 1532POPC   GL121505  32.157   5.088   9.152
 1532POPC   GL221506  32.215   5.443   9.216
 1532POPC   C1A21507  32.275   4.991   8.695
 1532POPC   D2A21508  32.144   5.215   8.308
 1532POPC   C3A21509  32.270   5.013   7.913
 1532POPC   C4A21510  32.609   4.864   7.645
 1532POPC   C1B21511  32.332   5.482   8.794
 1532POPC   C2B21512  32.595   5.455   8.456
 1532POPC   C3B21513  32.491   5.509   8.034
 1532POPC   C4B21514  32.297   5.441   7.630
 1533POPC   NC321515   5.599  25.043   9.437
 1533POPC   PO421516   6.062  25.646   9.533
 1533POPC   GL121517   5.964  25.354   9.215
 1533POPC   GL221518   5.742  25.631   9.124
 1533POPC   C1A21519   5.721  25.222   8.815
 1533POPC   D2A21520   5.638  25.087   8.391
 1533POPC   C3A21521   5.981  25.034   8.118
 1533POPC   C4A21522   6.118  25.248   7.760
 1533POPC   C1B21523   6.047  25.632   8.799
 1533POPC   C2B21524   6.060  25.448   8.417
 1533POPC   C3B21525   5.764  25.507   8.091
 1533POPC   C4B21526   5.853  25.687   7.716
 1534POPC   NC321527  10.971  11.280   9.887
 1534POPC   PO421528  10.500  11.644   9.563
 1534POPC   GL121529  10.537  11.582   9.116
 1534POPC   GL221530  10.644  11.270   9.072
 1534POPC   C1A21531  10.616  11.526   8.649
 1534POPC   D2A21532  10.720  11.364   8.283
 1534POPC   C3A21533  10.730  11.731   8.041
 1534POPC   C4A21534  10.542  11.582   7.696
 1534POPC   C1B21535  10.640  10.988   8.692
 1534POPC   C2B21536  10.580  10.855   8.255
 1534POPC   C3B21537  10.512  11.017   7.835
 1534POPC   C4B21538  10.244  10.861   7.494
 1535POPC   NC321539  12.528   6.735   9.710
 1535POPC   PO421540  11.989   6.478   9.475
 1535POPC   GL121541  12.143   6.792   9.182
 1535POPC   GL221542  11.806   6.890   9.157
 1535POPC   C1A21543  12.068   7.028   8.743
 1535POPC   D2A21544  11.913   7.001   8.287
 1535POPC   C3A21545  12.187   6.755   7.995
 1535POPC   C4A21546  12.311   6.331   7.919
 1535POPC   C1B21547  11.919   6.539   8.806
 1535POPC   C2B21548  11.889   6.440   8.373
 1535POPC   C3B21549  11.730   6.447   7.972
 1535POPC   C4B21550  11.755   6.804   7.728
 1536POPC   NC321551  28.087  16.404   9.508
 1536POPC   PO421552  28.095  15.705   9.589
 1536POPC   GL121553  28.256  15.745   9.143
 1536POPC   GL221554  28.308  16.101   9.077
 1536POPC   C1A21555  28.153  15.838   8.672
 1536POPC   D2A21556  28.430  15.851   8.300
 1536POPC   C3A21557  28.444  16.169   8.025
 1536POPC   C4A21558  28.179  16.054   7.692
 1536POPC   C1B21559  28.637  15.883   8.785
 1536POPC   C2B21560  28.783  15.560   8.500
 1536POPC   C3B21561  28.821  15.617   8.040
 1536POPC   C4B21562  28.676  15.872   7.692
 1537POPC   NC321563  24.318  14.806   9.636
 1537POPC   PO421564  24.595  15.346   9.451
 1537POPC   GL121565  24.827  15.150   9.103
 1537POPC   GL221566  24.639  14.847   9.141
 1537POPC   C1A21567  24.721  15.100   8.669
 1537POPC   D2A21568  24.388  15.275   8.416
 1537POPC   C3A21569  24.504  15.445   8.027
 1537POPC   C4A21570  24.524  15.218   7.648
 1537POPC   C1B21571  24.520  14.618   8.755
 1537POPC   C2B21572  24.665  14.681   8.353
 1537POPC   C3B21573  24.550  14.833   7.972
 1537POPC   C4B21574  24.347  14.722   7.596
 1538POPC   NC321575  11.907  27.348   9.319
 1538POPC   PO421576  12.065  26.704   9.445
 1538POPC   GL121577  12.055  26.898   9.096
 1538POPC   GL221578  12.358  27.069   9.153
 1538POPC   C1A21579  12.007  26.789   8.686
 1538POPC   D2A21580  12.253  26.569   8.422
 1538POPC   C3A21581  12.111  26.507   8.009
 1538POPC   C4A21582  11.943  26.657   7.643
 1538POPC   C1B21583  12.269  27.237   8.747
 1538POPC   C2B21584  12.200  27.128   8.318
 1538POPC   C3B21585  12.159  27.055   7.886
 1538POPC   C4B21586  12.360  27.282   7.569
 1539POPC   NC321587  21.908   1.088   9.447
 1539POPC   PO421588  22.365   1.545   9.488
 1539POPC   GL121589  22.224   1.373   9.145
 1539POPC   GL221590  21.936   1.543   9.122
 1539POPC   C1A21591  22.260   1.095   8.802
 1539POPC   D2A21592  22.046   1.095   8.425
 1539POPC   C3A21593  22.231   1.107   8.060
 1539POPC   C4A21594  22.108   1.256   7.680
 1539POPC   C1B21595  21.795   1.300   8.817
 1539POPC   C2B21596  21.600   1.313   8.450
 1539POPC   C3B21597  21.756   1.385   8.049
 1539POPC   C4B21598  21.673   1.562   7.662
 1540POPC   NC321599  37.333  13.054   9.412
 1540POPC   PO421600  37.869  12.565   9.340
 1540POPC   GL121601  37.792  12.817   8.970
 1540POPC   GL221602  37.438  12.774   8.995
 1540POPC   C1A21603  37.926  13.107   8.614
 1540POPC   D2A21604  37.646  13.387   8.350
 1540POPC   C3A21605  37.593  13.196   7.941
 1540POPC   C4A21606  37.902  13.109   7.618
 1540POPC   C1B21607  37.435  12.960   8.587
 1540POPC   C2B21608  37.728  12.796   8.256
 1540POPC   C3B21609  37.697  12.691   7.836
 1540POPC   C4B21610  37.271  12.644   7.765
 1541POPC   NC321611  10.121  43.193   9.317
 1541POPC   PO421612   9.613  42.784   9.564
 1541POPC   GL121613   9.644  42.980   9.179
 1541POPC   GL221614   9.667  43.350   9.153
 1541POPC   C1A21615   9.694  42.959   8.754
 1541POPC   D2A21616   9.614  43.165   8.379
 1541POPC   C3A21617   9.732  42.926   8.060
 1541POPC   C4A21618   9.514  42.863   7.696
 1541POPC   C1B21619   9.902  43.453   8.770
 1541POPC   C2B21620  10.124  43.356   8.426
 1541POPC   C3B21621  10.017  43.352   8.032
 1541POPC   C4B21622   9.893  43.207   7.657
 1542POPC   NC321623  18.824  32.392   9.678
 1542POPC   PO421624  19.218  31.910   9.406
 1542POPC   GL121625  19.152  32.317   9.178
 1542POPC   GL221626  18.804  32.450   9.144
 1542POPC   C1A21627  19.290  32.510   8.780
 1542POPC   D2A21628  19.108  32.474   8.355
 1542POPC   C3A21629  18.966  32.604   7.978
 1542POPC   C4A21630  19.229  32.430   7.671
 1542POPC   C1B21631  18.830  32.299   8.744
 1542POPC   C2B21632  18.694  32.159   8.392
 1542POPC   C3B21633  18.849  32.082   8.013
 1542POPC   C4B21634  18.762  32.265   7.641
 1543POPC   NC321635  12.492  11.576   9.559
 1543POPC   PO421636  12.885  12.167   9.451
 1543POPC   GL121637  12.925  12.022   9.082
 1543POPC   GL221638  12.577  11.879   9.120
 1543POPC   C1A21639  13.076  12.161   8.675
 1543POPC   D2A21640  12.960  12.353   8.268
 1543POPC   C3A21641  13.009  12.154   7.844
 1543POPC   C4A21642  13.227  11.934   7.476
 1543POPC   C1B21643  12.570  12.242   8.790
 1543POPC   C2B21644  12.442  12.361   8.398
 1543POPC   C3B21645  12.480  12.170   8.001
 1543POPC   C4B21646  12.563  12.402   7.653
 1544POPC   NC321647  42.781   6.822   9.358
 1544POPC   PO421648  42.673   6.265   9.637
 1544POPC   GL121649  42.830   6.288   9.176
 1544POPC   GL221650  43.138   6.524   9.122
 1544POPC   C1A21651  42.903   6.364   8.715
 1544POPC   D2A21652  42.911   6.659   8.407
 1544POPC   C3A21653  43.198   6.660   8.123
 1544POPC   C4A21654  42.891   6.579   7.816
 1544POPC   C1B21655  43.226   6.834   8.762
 1544POPC   C2B21656  43.227   7.119   8.386
 1544POPC   C3B21657  43.405   7.085   7.940
 1544POPC   C4B21658  43.322   6.770   7.628
 1545POPC   NC321659   5.832   2.534   9.567
 1545POPC   PO421660   6.237   3.030   9.358
 1545POPC   GL121661   6.105   2.610   9.130
 1545POPC   GL221662   5.721   2.491   9.089
 1545POPC   C1A21663   6.024   2.728   8.735
 1545POPC   D2A21664   6.141   3.063   8.441
 1545POPC   C3A21665   6.035   2.966   8.027
 1545POPC   C4A21666   5.641   2.906   7.791
 1545POPC   C1B21667   5.709   2.330   8.694
 1545POPC   C2B21668   5.767   2.575   8.309
 1545POPC   C3B21669   5.905   2.469   7.924
 1545POPC   C4B21670   5.735   2.461   7.522
 1546POPC   NC321671  17.966  15.316   9.441
 1546POPC   PO421672  18.481  14.826   9.396
 1546POPC   GL121673  18.182  14.980   9.107
 1546POPC   GL221674  18.367  15.271   9.107
 1546POPC   C1A21675  18.086  15.146   8.700
 1546POPC   D2A21676  18.087  15.364   8.300
 1546POPC   C3A21677  18.265  15.073   8.004
 1546POPC   C4A21678  18.238  14.943   7.598
 1546POPC   C1B21679  18.466  15.530   8.769
 1546POPC   C2B21680  18.411  15.762   8.379
 1546POPC   C3B21681  18.315  15.654   7.934
 1546POPC   C4B21682  18.564  15.389   7.693
 1547POPC   NC321683  37.261  40.097   9.198
 1547POPC   PO421684  36.928  39.805   9.656
 1547POPC   GL121685  36.797  39.942   9.194
 1547POPC   GL221686  36.662  40.277   9.173
 1547POPC   C1A21687  36.800  39.746   8.741
 1547POPC   D2A21688  36.727  39.784   8.295
 1547POPC   C3A21689  37.083  39.870   8.064
 1547POPC   C4A21690  37.192  39.714   7.672
 1547POPC   C1B21691  36.756  40.256   8.735
 1547POPC   C2B21692  36.612  40.290   8.316
 1547POPC   C3B21693  36.810  40.291   7.946
 1547POPC   C4B21694  37.110  40.227   7.661
 1548POPC   NC321695   2.376  36.056   9.478
 1548POPC   PO421696   1.757  36.411   9.458
 1548POPC   GL121697   1.948  36.168   9.090
 1548POPC   GL221698   2.238  35.917   9.014
 1548POPC   C1A21699   1.921  36.152   8.624
 1548POPC   D2A21700   1.545  36.301   8.340
 1548POPC   C3A21701   1.612  36.225   7.940
 1548POPC   C4A21702   1.739  35.837   7.790
 1548POPC   C1B21703   2.436  36.252   8.784
 1548POPC   C2B21704   2.411  36.354   8.342
 1548POPC   C3B21705   2.153  36.260   7.979
 1548POPC   C4B21706   2.136  36.489   7.593
 1549POPC   NC321707  11.853   8.234   9.390
 1549POPC   PO421708  12.267   7.834   9.460
 1549POPC   GL121709  12.270   8.046   9.104
 1549POPC   GL221710  12.409   8.360   9.234
 1549POPC   C1A21711  12.022   8.074   8.736
 1549POPC   D2A21712  12.182   8.191   8.362
 1549POPC   C3A21713  11.974   8.082   8.018
 1549POPC   C4A21714  11.909   7.700   7.799
 1549POPC   C1B21715  12.269   8.519   8.836
 1549POPC   C2B21716  12.344   8.669   8.419
 1549POPC   C3B21717  12.505   8.458   8.061
 1549POPC   C4B21718  12.392   8.501   7.639
 1550POPC   NC321719  42.101  14.443   9.385
 1550POPC   PO421720  42.791  14.228   9.479
 1550POPC   GL121721  42.584  14.159   9.087
 1550POPC   GL221722  42.492  14.494   9.020
 1550POPC   C1A21723  42.567  14.184   8.622
 1550POPC   D2A21724  42.384  14.370   8.256
 1550POPC   C3A21725  42.548  14.346   7.843
 1550POPC   C4A21726  42.326  14.170   7.521
 1550POPC   C1B21727  42.122  14.457   8.713
 1550POPC   C2B21728  41.903  14.551   8.317
 1550POPC   C3B21729  42.055  14.561   7.872
 1550POPC   C4B21730  42.004  14.721   7.421
 1551POPC   NC321731  34.815  40.559   9.389
 1551POPC   PO421732  34.330  40.988   9.378
 1551POPC   GL121733  34.586  40.869   9.047
 1551POPC   GL221734  34.956  40.918   9.007
 1551POPC   C1A21735  34.479  40.689   8.692
 1551POPC   D2A21736  34.573  40.827   8.313
 1551POPC   C3A21737  34.345  40.614   7.989
 1551POPC   C4A21738  34.285  40.773   7.605
 1551POPC   C1B21739  34.978  40.572   8.674
 1551POPC   C2B21740  34.815  40.395   8.253
 1551POPC   C3B21741  34.838  40.687   7.883
 1551POPC   C4B21742  34.756  40.917   7.542
 1552POPC   NC321743  29.786  16.609   9.638
 1552POPC   PO421744  29.618  17.127   9.280
 1552POPC   GL121745  29.845  16.825   9.108
 1552POPC   GL221746  29.825  16.458   9.155
 1552POPC   C1A21747  29.835  16.790   8.702
 1552POPC   D2A21748  29.955  16.944   8.301
 1552POPC   C3A21749  29.702  16.831   7.961
 1552POPC   C4A21750  30.050  16.830   7.655
 1552POPC   C1B21751  30.025  16.333   8.779
 1552POPC   C2B21752  29.841  16.399   8.355
 1552POPC   C3B21753  30.026  16.431   7.965
 1552POPC   C4B21754  29.984  16.220   7.586
 1553POPC   NC321755  18.921   4.807   9.559
 1553POPC   PO421756  19.233   5.280   9.809
 1553POPC   GL121757  19.166   5.154   9.278
 1553POPC   GL221758  18.821   5.054   9.093
 1553POPC   C1A21759  19.226   5.054   8.801
 1553POPC   D2A21760  19.406   4.938   8.385
 1553POPC   C3A21761  19.247   5.056   7.983
 1553POPC   C4A21762  18.885   5.193   7.803
 1553POPC   C1B21763  18.771   4.803   8.738
 1553POPC   C2B21764  18.915   4.789   8.344
 1553POPC   C3B21765  18.774   4.690   7.970
 1553POPC   C4B21766  18.797   4.752   7.566
 1554POPC   NC321767  35.657  24.283   9.991
 1554POPC   PO421768  35.462  24.142   9.408
 1554POPC   GL121769  35.282  24.286   9.065
 1554POPC   GL221770  35.466  24.539   8.949
 1554POPC   C1A21771  35.099  24.153   8.730
 1554POPC   D2A21772  35.241  23.947   8.365
 1554POPC   C3A21773  35.357  24.198   8.038
 1554POPC   C4A21774  35.203  24.339   7.639
 1554POPC   C1B21775  35.583  24.343   8.566
 1554POPC   C2B21776  35.527  24.627   8.227
 1554POPC   C3B21777  35.577  24.607   7.807
 1554POPC   C4B21778  35.692  24.494   7.408
 1555POPC   NC321779  32.593  36.292   9.535
 1555POPC   PO421780  33.269  36.063   9.514
 1555POPC   GL121781  33.032  36.031   9.161
 1555POPC   GL221782  32.838  36.357   9.106
 1555POPC   C1A21783  32.880  35.969   8.763
 1555POPC   D2A21784  32.780  36.205   8.420
 1555POPC   C3A21785  32.911  35.960   8.069
 1555POPC   C4A21786  32.742  35.987   7.695
 1555POPC   C1B21787  33.112  36.427   8.792
 1555POPC   C2B21788  33.235  36.428   8.395
 1555POPC   C3B21789  32.979  36.455   8.017
 1555POPC   C4B21790  33.181  36.405   7.651
 1556POPC   NC321791  20.038  44.246   9.397
 1556POPC   PO421792  19.794  44.858   9.559
 1556POPC   GL121793  19.849  44.740   9.179
 1556POPC   GL221794  19.594  44.485   9.209
 1556POPC   C1A21795  19.677  44.840   8.789
 1556POPC   D2A21796  19.804  44.951   8.371
 1556POPC   C3A21797  20.051  44.653   8.168
 1556POPC   C4A21798  20.070  44.564   7.732
 1556POPC   C1B21799  19.466  44.371   8.805
 1556POPC   C2B21800  19.633  44.481   8.408
 1556POPC   C3B21801  19.681  44.330   7.997
 1556POPC   C4B21802  19.464  44.385   7.631
 1557POPC   NC321803  22.822  44.731   9.645
 1557POPC   PO421804  23.328  44.396   9.374
 1557POPC   GL121805  22.966  44.572   9.109
 1557POPC   GL221806  22.700  44.851   9.171
 1557POPC   C1A21807  22.984  44.571   8.645
 1557POPC   D2A21808  23.139  44.458   8.220
 1557POPC   C3A21809  23.094  44.656   7.806
 1557POPC   C4A21810  23.411  44.588   7.453
 1557POPC   C1B21811  22.580  44.879   8.751
 1557POPC   C2B21812  22.550  44.596   8.374
 1557POPC   C3B21813  22.486  44.709   7.972
 1557POPC   C4B21814  22.623  44.977   7.667
 1558POPC   NC321815  37.517   1.855   9.490
 1558POPC   PO421816  37.960   2.436   9.415
 1558POPC   GL121817  37.909   2.285   9.025
 1558POPC   GL221818  37.643   2.032   9.035
 1558POPC   C1A21819  37.684   2.347   8.653
 1558POPC   D2A21820  37.604   2.069   8.346
 1558POPC   C3A21821  37.775   2.125   7.930
 1558POPC   C4A21822  37.828   2.425   7.599
 1558POPC   C1B21823  37.340   1.871   8.749
 1558POPC   C2B21824  37.336   1.615   8.390
 1558POPC   C3B21825  37.390   1.763   7.982
 1558POPC   C4B21826  37.372   1.884   7.573
 1559POPC   NC321827  34.652  27.837  10.066
 1559POPC   PO421828  34.633  27.360   9.482
 1559POPC   GL121829  34.437  27.384   9.144
 1559POPC   GL221830  34.519  27.738   9.146
 1559POPC   C1A21831  34.278  27.444   8.757
 1559POPC   D2A21832  34.448  27.337   8.381
 1559POPC   C3A21833  34.282  27.588   8.042
 1559POPC   C4A21834  34.354  27.324   7.706
 1559POPC   C1B21835  34.736  27.706   8.757
 1559POPC   C2B21836  34.687  27.805   8.336
 1559POPC   C3B21837  34.775  27.575   7.973
 1559POPC   C4B21838  35.092  27.565   7.736
 1560POPC   NC321839  37.811  41.422   9.664
 1560POPC   PO421840  37.391  41.765   9.288
 1560POPC   GL121841  37.614  41.483   9.094
 1560POPC   GL221842  37.942  41.490   9.175
 1560POPC   C1A21843  37.714  41.682   8.697
 1560POPC   D2A21844  37.752  41.668   8.295
 1560POPC   C3A21845  37.488  41.902   8.059
 1560POPC   C4A21846  37.533  41.901   7.617
 1560POPC   C1B21847  38.120  41.398   8.796
 1560POPC   C2B21848  38.292  41.246   8.409
 1560POPC   C3B21849  38.080  41.331   8.023
 1560POPC   C4B21850  37.955  41.739   7.840
 1561POPC   NC321851  14.932  13.321   9.346
 1561POPC   PO421852  15.090  12.675   9.620
 1561POPC   GL121853  15.017  12.793   9.207
 1561POPC   GL221854  15.023  12.450   9.071
 1561POPC   C1A21855  15.184  12.979   8.815
 1561POPC   D2A21856  15.077  13.053   8.378
 1561POPC   C3A21857  15.314  12.945   8.064
 1561POPC   C4A21858  15.152  12.955   7.682
 1561POPC   C1B21859  14.849  12.594   8.702
 1561POPC   C2B21860  15.018  12.550   8.336
 1561POPC   C3B21861  14.874  12.633   7.965
 1561POPC   C4B21862  15.182  12.430   7.772
 1562POPC   NC321863  13.479  27.020   9.459
 1562POPC   PO421864  13.895  26.416   9.456
 1562POPC   GL121865  13.746  26.703   9.092
 1562POPC   GL221866  13.566  27.025   8.980
 1562POPC   C1A21867  13.616  26.651   8.645
 1562POPC   D2A21868  13.635  26.533   8.203
 1562POPC   C3A21869  13.853  26.667   7.844
 1562POPC   C4A21870  13.549  26.724   7.480
 1562POPC   C1B21871  13.806  27.159   8.645
 1562POPC   C2B21872  13.768  27.043   8.229
 1562POPC   C3B21873  13.534  27.064   7.855
 1562POPC   C4B21874  13.620  27.231   7.420
 1563POPC   NC321875   0.976  14.549   9.427
 1563POPC   PO421876   1.511  14.996   9.395
 1563POPC   GL121877   1.355  14.674   9.089
 1563POPC   GL221878   1.379  14.342   9.183
 1563POPC   C1A21879   1.029  14.448   8.802
 1563POPC   D2A21880   0.946  14.353   8.387
 1563POPC   C3A21881   1.257  14.473   8.153
 1563POPC   C4A21882   1.325  14.553   7.775
 1563POPC   C1B21883   1.407  14.092   8.824
 1563POPC   C2B21884   1.362  14.044   8.395
 1563POPC   C3B21885   1.512  14.077   7.957
 1563POPC   C4B21886   1.423  14.140   7.499
 1564POPC   NC321887   0.881  30.513   9.571
 1564POPC   PO421888   1.420  30.880   9.746
 1564POPC   GL121889   1.159  30.832   9.310
 1564POPC   GL221890   1.296  30.458   9.250
 1564POPC   C1A21891   1.110  30.926   8.834
 1564POPC   D2A21892   1.491  30.912   8.537
 1564POPC   C3A21893   1.329  30.899   8.127
 1564POPC   C4A21894   1.231  30.826   7.709
 1564POPC   C1B21895   1.102  30.407   8.856
 1564POPC   C2B21896   1.152  30.540   8.451
 1564POPC   C3B21897   1.017  30.496   8.037
 1564POPC   C4B21898   0.964  30.379   7.629
 1565POPC   NC321899  10.748   3.731   9.692
 1565POPC   PO421900  10.261   3.335   9.546
 1565POPC   GL121901  10.435   3.464   9.154
 1565POPC   GL221902  10.695   3.742   9.170
 1565POPC   C1A21903  10.501   3.562   8.722
 1565POPC   D2A21904  10.609   3.778   8.381
 1565POPC   C3A21905  10.565   3.610   8.000
 1565POPC   C4A21906  10.289   3.687   7.682
 1565POPC   C1B21907  10.814   4.002   8.785
 1565POPC   C2B21908  11.013   4.100   8.396
 1565POPC   C3B21909  10.928   3.961   7.982
 1565POPC   C4B21910  10.778   3.818   7.564
 1566POPC   NC321911  18.310  29.888   9.555
 1566POPC   PO421912  17.716  30.213   9.365
 1566POPC   GL121913  18.081  30.062   9.136
 1566POPC   GL221914  18.467  30.136   9.122
 1566POPC   C1A21915  18.190  29.899   8.731
 1566POPC   D2A21916  18.400  29.895   8.312
 1566POPC   C3A21917  18.187  29.839   7.921
 1566POPC   C4A21918  18.164  29.436   7.729
 1566POPC   C1B21919  18.611  30.237   8.699
 1566POPC   C2B21920  18.582  30.364   8.266
 1566POPC   C3B21921  18.538  30.209   7.873
 1566POPC   C4B21922  18.607  29.871   7.598
 1567POPC   NC321923  18.545  12.908   9.413
 1567POPC   PO421924  18.058  12.566   9.688
 1567POPC   GL121925  18.180  12.603   9.212
 1567POPC   GL221926  17.946  12.570   8.940
 1567POPC   C1A21927  18.416  12.653   8.779
 1567POPC   D2A21928  18.248  12.804   8.381
 1567POPC   C3A21929  18.435  12.877   7.981
 1567POPC   C4A21930  18.560  12.509   7.760
 1567POPC   C1B21931  17.998  13.009   8.771
 1567POPC   C2B21932  17.864  13.172   8.376
 1567POPC   C3B21933  17.894  12.902   8.025
 1567POPC   C4B21934  18.062  12.636   7.697
 1568POPC   NC321935   3.646  32.522   9.641
 1568POPC   PO421936   3.257  32.022   9.486
 1568POPC   GL121937   3.529  32.083   9.148
 1568POPC   GL221938   3.799  32.335   9.197
 1568POPC   C1A21939   3.612  32.232   8.738
 1568POPC   D2A21940   3.428  32.504   8.466
 1568POPC   C3A21941   3.602  32.401   8.066
 1568POPC   C4A21942   3.496  32.302   7.646
 1568POPC   C1B21943   3.826  32.661   8.876
 1568POPC   C2B21944   3.956  32.596   8.433
 1568POPC   C3B21945   4.102  32.549   7.989
 1568POPC   C4B21946   3.925  32.561   7.565
 1569POPC   NC321947  15.697  26.333   9.770
 1569POPC   PO421948  16.121  25.831   9.660
 1569POPC   GL121949  16.170  25.918   9.159
 1569POPC   GL221950  16.395  26.196   9.106
 1569POPC   C1A21951  16.090  25.776   8.694
 1569POPC   D2A21952  15.911  26.011   8.319
 1569POPC   C3A21953  15.757  25.828   7.937
 1569POPC   C4A21954  15.982  25.503   7.736
 1569POPC   C1B21955  16.136  26.290   8.731
 1569POPC   C2B21956  15.734  26.437   8.506
 1569POPC   C3B21957  15.823  26.470   8.063
 1569POPC   C4B21958  16.103  26.214   7.817
 1570POPC   NC321959  12.362  20.806   9.582
 1570POPC   PO421960  12.941  20.448   9.639
 1570POPC   GL121961  12.958  20.390   9.171
 1570POPC   GL221962  13.244  20.467   9.000
 1570POPC   C1A21963  12.800  20.353   8.746
 1570POPC   D2A21964  12.891  20.586   8.383
 1570POPC   C3A21965  12.817  20.434   7.985
 1570POPC   C4A21966  12.646  20.644   7.645
 1570POPC   C1B21967  13.096  20.828   8.801
 1570POPC   C2B21968  13.097  21.058   8.409
 1570POPC   C3B21969  13.008  20.927   7.999
 1570POPC   C4B21970  13.135  20.930   7.575
 1571POPC   NC321971   9.960  42.511   9.685
 1571POPC   PO421972   9.357  42.216   9.488
 1571POPC   GL121973   9.518  42.225   9.106
 1571POPC   GL221974   9.769  42.467   9.172
 1571POPC   C1A21975   9.405  42.011   8.727
 1571POPC   D2A21976   9.578  41.886   8.333
 1571POPC   C3A21977   9.657  42.239   8.093
 1571POPC   C4A21978   9.448  42.356   7.723
 1571POPC   C1B21979   9.804  42.417   8.724
 1571POPC   C2B21980  10.060  42.259   8.408
 1571POPC   C3B21981  10.191  42.404   8.015
 1571POPC   C4B21982   9.927  42.568   7.750
 1572POPC   NC321983  35.413  11.433   9.522
 1572POPC   PO421984  34.719  11.528   9.496
 1572POPC   GL121985  35.055  11.617   9.186
 1572POPC   GL221986  35.161  11.246   9.147
 1572POPC   C1A21987  35.400  11.614   8.843
 1572POPC   D2A21988  35.548  11.363   8.487
 1572POPC   C3A21989  35.467  11.493   8.074
 1572POPC   C4A21990  35.337  11.354   7.638
 1572POPC   C1B21991  35.445  11.034   8.860
 1572POPC   C2B21992  35.615  10.838   8.474
 1572POPC   C3B21993  35.691  11.024   8.052
 1572POPC   C4B21994  35.613  10.932   7.603
 1573POPC   NC321995  11.450  34.819   9.701
 1573POPC   PO421996  12.083  34.965   9.564
 1573POPC   GL121997  12.178  35.049   9.126
 1573POPC   GL221998  12.343  34.747   9.106
 1573POPC   C1A21999  12.188  35.380   8.754
 1573POPC   D2A22000  12.114  35.598   8.310
 1573POPC   C3A22001  12.049  35.372   7.909
 1573POPC   C4A22002  11.754  35.318   7.541
 1573POPC   C1B22003  12.407  34.870   8.703
 1573POPC   C2B22004  12.257  35.055   8.338
 1573POPC   C3B22005  12.150  34.873   7.952
 1573POPC   C4B22006  12.174  35.031   7.548
 1574POPC   NC322007   3.487   8.096   9.405
 1574POPC   PO422008   2.843   8.177   9.145
 1574POPC   GL122009   3.250   8.210   8.965
 1574POPC   GL222010   3.438   7.873   8.941
 1574POPC   C1A22011   3.388   8.337   8.568
 1574POPC   D2A22012   3.425   8.147   8.176
 1574POPC   C3A22013   3.564   8.470   7.878
 1574POPC   C4A22014   3.988   8.564   7.743
 1574POPC   C1B22015   3.799   8.088   8.748
 1574POPC   C2B22016   3.872   8.307   8.351
 1574POPC   C3B22017   3.895   8.094   7.948
 1574POPC   C4B22018   3.783   7.706   7.759
 1575POPC   NC322019  38.786   5.175   9.712
 1575POPC   PO422020  39.462   5.104   9.400
 1575POPC   GL122021  39.458   5.049   9.053
 1575POPC   GL222022  39.205   4.817   9.026
 1575POPC   C1A22023  39.372   5.261   8.706
 1575POPC   D2A22024  39.106   5.372   8.390
 1575POPC   C3A22025  39.333   5.172   8.086
 1575POPC   C4A22026  39.402   5.215   7.660
 1575POPC   C1B22027  39.442   4.710   8.674
 1575POPC   C2B22028  39.191   4.708   8.313
 1575POPC   C3B22029  39.382   4.688   7.948
 1575POPC   C4B22030  39.748   4.899   7.849
 1576POPC   NC322031  13.261  30.611   9.644
 1576POPC   PO422032  13.944  30.754   9.450
 1576POPC   GL122033  13.580  30.644   9.150
 1576POPC   GL222034  13.834  30.433   9.013
 1576POPC   C1A22035  13.480  30.475   8.668
 1576POPC   D2A22036  13.459  30.333   8.215
 1576POPC   C3A22037  13.595  30.525   7.849
 1576POPC   C4A22038  13.408  30.901   7.752
 1576POPC   C1B22039  13.816  30.837   8.747
 1576POPC   C2B22040  13.643  30.884   8.334
 1576POPC   C3B22041  13.870  30.963   7.944
 1576POPC   C4B22042  13.778  31.119   7.502
 1577POPC   NC322043  29.569  23.595   9.489
 1577POPC   PO422044  28.910  23.590   9.485
 1577POPC   GL122045  29.026  23.386   9.067
 1577POPC   GL222046  29.396  23.313   9.096
 1577POPC   C1A22047  28.921  23.400   8.607
 1577POPC   D2A22048  28.943  23.724   8.272
 1577POPC   C3A22049  29.019  23.631   7.823
 1577POPC   C4A22050  28.961  23.692   7.337
 1577POPC   C1B22051  29.351  23.651   8.767
 1577POPC   C2B22052  29.463  23.795   8.354
 1577POPC   C3B22053  29.555  23.690   7.934
 1577POPC   C4B22054  29.429  23.774   7.532
 1578POPC   NC322055   9.698  19.380   9.859
 1578POPC   PO422056   9.443  19.937   9.560
 1578POPC   GL122057   9.640  19.903   9.210
 1578POPC   GL222058   9.813  19.608   9.299
 1578POPC   C1A22059   9.498  19.927   8.810
 1578POPC   D2A22060   9.434  19.733   8.430
 1578POPC   C3A22061   9.578  20.021   8.131
 1578POPC   C4A22062   9.432  20.013   7.748
 1578POPC   C1B22063   9.893  19.563   8.855
 1578POPC   C2B22064   9.932  19.740   8.433
 1578POPC   C3B22065   9.843  19.617   7.996
 1578POPC   C4B22066   9.853  19.810   7.573
 1579POPC   NC322067  30.206  10.725   9.482
 1579POPC   PO422068  29.519  10.482   9.557
 1579POPC   GL122069  29.781  10.520   9.196
 1579POPC   GL222070  29.691  10.294   8.923
 1579POPC   C1A22071  29.867  10.774   8.826
 1579POPC   D2A22072  29.840  10.525   8.444
 1579POPC   C3A22073  29.992  10.620   8.045
 1579POPC   C4A22074  29.695  10.543   7.746
 1579POPC   C1B22075  30.154  10.350   8.818
 1579POPC   C2B22076  30.314  10.337   8.364
 1579POPC   C3B22077  30.253  10.197   7.925
 1579POPC   C4B22078  30.137  10.436   7.560
 1580POPC   NC322079  15.060  33.274   9.563
 1580POPC   PO422080  15.505  32.790   9.572
 1580POPC   GL122081  15.195  32.840   9.248
 1580POPC   GL222082  14.862  32.964   9.184
 1580POPC   C1A22083  15.187  32.860   8.802
 1580POPC   D2A22084  15.302  33.035   8.419
 1580POPC   C3A22085  15.191  32.859   8.025
 1580POPC   C4A22086  15.203  33.035   7.646
 1580POPC   C1B22087  14.697  33.111   8.783
 1580POPC   C2B22088  14.568  33.172   8.360
 1580POPC   C3B22089  14.772  33.143   7.963
 1580POPC   C4B22090  14.767  33.279   7.498
 1581POPC   NC322091  36.973  21.103   9.452
 1581POPC   PO422092  36.637  21.657   9.422
 1581POPC   GL122093  36.724  21.379   9.082
 1581POPC   GL222094  36.399  21.380   9.000
 1581POPC   C1A22095  37.019  21.217   8.760
 1581POPC   D2A22096  37.320  21.417   8.478
 1581POPC   C3A22097  37.191  21.301   8.060
 1581POPC   C4A22098  37.044  21.468   7.670
 1581POPC   C1B22099  36.568  21.445   8.586
 1581POPC   C2B22100  36.684  21.491   8.154
 1581POPC   C3B22101  36.654  21.763   7.847
 1581POPC   C4B22102  36.526  21.672   7.475
 1582POPC   NC322103  26.264  25.037   9.503
 1582POPC   PO422104  25.974  25.660   9.455
 1582POPC   GL122105  26.261  25.477   9.138
 1582POPC   GL222106  26.180  25.142   9.012
 1582POPC   C1A22107  26.207  25.603   8.716
 1582POPC   D2A22108  25.986  25.649   8.318
 1582POPC   C3A22109  26.054  25.277   8.093
 1582POPC   C4A22110  26.292  25.463   7.771
 1582POPC   C1B22111  25.757  24.979   8.922
 1582POPC   C2B22112  25.700  24.867   8.477
 1582POPC   C3B22113  25.754  24.852   8.036
 1582POPC   C4B22114  25.805  25.082   7.634
 1583POPC   NC322115   9.041  16.177   9.634
 1583POPC   PO422116   8.961  16.807   9.537
 1583POPC   GL122117   9.048  16.487   9.205
 1583POPC   GL222118   8.680  16.416   9.159
 1583POPC   C1A22119   9.276  16.563   8.795
 1583POPC   D2A22120   9.099  16.843   8.465
 1583POPC   C3A22121   9.239  16.655   8.104
 1583POPC   C4A22122   9.147  16.600   7.670
 1583POPC   C1B22123   8.784  16.548   8.770
 1583POPC   C2B22124   8.868  16.390   8.364
 1583POPC   C3B22125   8.737  16.493   7.971
 1583POPC   C4B22126   8.633  16.500   7.550
 1584POPC   NC322127  32.456   1.093   9.422
 1584POPC   PO422128  32.172   1.676   9.406
 1584POPC   GL122129  32.305   1.454   9.044
 1584POPC   GL222130  32.652   1.400   9.036
 1584POPC   C1A22131  32.302   1.065   8.799
 1584POPC   D2A22132  32.100   1.039   8.432
 1584POPC   C3A22133  32.224   1.281   8.107
 1584POPC   C4A22134  32.110   1.067   7.720
 1584POPC   C1B22135  32.571   1.429   8.563
 1584POPC   C2B22136  32.644   1.036   8.310
 1584POPC   C3B22137  32.597   0.953   7.873
 1584POPC   C4B22138  32.502   1.382   7.695
 1585POPC   NC322139   4.004  39.467   9.426
 1585POPC   PO422140   3.466  38.951   9.434
 1585POPC   GL122141   3.565  39.183   9.101
 1585POPC   GL222142   3.522  39.513   9.188
 1585POPC   C1A22143   3.431  39.261   8.697
 1585POPC   D2A22144   3.591  39.197   8.309
 1585POPC   C3A22145   3.379  39.369   7.976
 1585POPC   C4A22146   3.422  39.043   7.711
 1585POPC   C1B22147   3.785  39.607   8.817
 1585POPC   C2B22148   3.705  39.698   8.398
 1585POPC   C3B22149   3.856  39.661   8.006
 1585POPC   C4B22150   3.785  39.398   7.679
 1586POPC   NC322151  12.308  23.349   9.453
 1586POPC   PO422152  11.948  22.742   9.525
 1586POPC   GL122153  12.007  22.997   9.205
 1586POPC   GL222154  12.349  22.906   9.185
 1586POPC   C1A22155  12.059  23.028   8.766
 1586POPC   D2A22156  11.861  22.949   8.356
 1586POPC   C3A22157  12.063  22.996   7.970
 1586POPC   C4A22158  11.946  23.226   7.592
 1586POPC   C1B22159  12.484  22.738   8.799
 1586POPC   C2B22160  12.380  22.825   8.383
 1586POPC   C3B22161  12.494  22.689   7.996
 1586POPC   C4B22162  12.255  22.633   7.655
 1587POPC   NC322163  22.879   1.575   9.795
 1587POPC   PO422164  22.904   2.116   9.421
 1587POPC   GL122165  22.871   2.108   9.018
 1587POPC   GL222166  23.150   1.925   9.005
 1587POPC   C1A22167  22.729   1.868   8.662
 1587POPC   D2A22168  22.859   1.725   8.276
 1587POPC   C3A22169  22.695   1.913   7.893
 1587POPC   C4A22170  22.793   2.346   7.796
 1587POPC   C1B22171  23.160   1.596   8.739
 1587POPC   C2B22172  23.350   1.596   8.345
 1587POPC   C3B22173  23.270   1.773   7.967
 1587POPC   C4B22174  23.191   2.071   7.650
 1588POPC   NC322175  35.240  15.059   9.504
 1588POPC   PO422176  35.256  15.638   9.163
 1588POPC   GL122177  35.392  15.222   9.039
 1588POPC   GL222178  35.308  14.846   9.059
 1588POPC   C1A22179  35.546  15.021   8.660
 1588POPC   D2A22180  35.447  14.936   8.246
 1588POPC   C3A22181  35.583  15.302   8.005
 1588POPC   C4A22182  35.326  15.492   7.765
 1588POPC   C1B22183  34.968  15.009   8.793
 1588POPC   C2B22184  34.745  14.834   8.438
 1588POPC   C3B22185  34.961  14.810   8.051
 1588POPC   C4B22186  35.281  14.928   7.752
 1589POPC   NC322187  36.434  32.764   9.846
 1589POPC   PO422188  37.000  32.836   9.472
 1589POPC   GL122189  36.952  33.056   9.121
 1589POPC   GL222190  36.609  33.181   9.176
 1589POPC   C1A22191  37.067  33.232   8.727
 1589POPC   D2A22192  37.082  32.963   8.372
 1589POPC   C3A22193  37.192  33.128   7.986
 1589POPC   C4A22194  36.934  33.309   7.712
 1589POPC   C1B22195  36.603  32.977   8.755
 1589POPC   C2B22196  36.390  32.971   8.364
 1589POPC   C3B22197  36.575  32.998   7.960
 1589POPC   C4B22198  36.543  32.717   7.610
 1590POPC   NC322199  12.475  14.728   9.522
 1590POPC   PO422200  13.154  14.832   9.474
 1590POPC   GL122201  12.942  15.089   9.176
 1590POPC   GL222202  12.613  15.143   9.217
 1590POPC   C1A22203  13.043  15.225   8.777
 1590POPC   D2A22204  12.993  15.080   8.402
 1590POPC   C3A22205  13.140  15.353   8.096
 1590POPC   C4A22206  12.963  15.156   7.764
 1590POPC   C1B22207  12.531  15.127   8.777
 1590POPC   C2B22208  12.478  14.953   8.368
 1590POPC   C3B22209  12.419  14.990   7.940
 1590POPC   C4B22210  12.482  15.146   7.555
 1591POPC   NC322211  44.977  33.454   9.450
 1591POPC   PO422212  44.393  33.196   9.505
 1591POPC   GL122213  44.464  33.084   9.111
 1591POPC   GL222214  44.807  33.149   9.076
 1591POPC   C1A22215  44.495  32.995   8.680
 1591POPC   D2A22216  44.602  32.851   8.294
 1591POPC   C3A22217  44.502  33.067   7.931
 1591POPC   C4A22218  44.466  32.864   7.550
 1591POPC   C1B22219  44.969  32.852   8.760
 1591POPC   C2B22220   0.118  32.938   8.321
 1591POPC   C3B22221  44.988  32.880   7.883
 1591POPC   C4B22222  44.881  33.154   7.535
 1592POPC   NC322223  37.344   7.414   9.671
 1592POPC   PO422224  37.806   7.879   9.499
 1592POPC   GL122225  37.820   7.520   9.213
 1592POPC   GL222226  37.507   7.372   9.165
 1592POPC   C1A22227  37.875   7.464   8.778
 1592POPC   D2A22228  37.847   7.715   8.398
 1592POPC   C3A22229  37.840   7.470   8.025
 1592POPC   C4A22230  37.981   7.114   7.790
 1592POPC   C1B22231  37.401   7.610   8.809
 1592POPC   C2B22232  37.392   7.427   8.401
 1592POPC   C3B22233  37.325   7.480   7.974
 1592POPC   C4B22234  37.455   7.818   7.747
 1593POPC   NC322235  44.165  38.975   9.669
 1593POPC   PO422236  44.299  39.598   9.682
 1593POPC   GL122237  44.135  39.281   9.299
 1593POPC   GL222238  43.904  39.377   9.101
 1593POPC   C1A22239  44.171  39.038   8.850
 1593POPC   D2A22240  43.927  39.185   8.459
 1593POPC   C3A22241  44.037  39.024   8.041
 1593POPC   C4A22242  43.938  39.145   7.618
 1593POPC   C1B22243  43.662  39.029   8.896
 1593POPC   C2B22244  43.485  38.912   8.519
 1593POPC   C3B22245  43.511  39.059   8.092
 1593POPC   C4B22246  43.569  38.781   7.766
 1594POPC   NC322247  29.830  18.253   9.526
 1594POPC   PO422248  30.366  18.336   9.165
 1594POPC   GL122249  29.949  18.354   9.044
 1594POPC   GL222250  29.645  18.594   9.107
 1594POPC   C1A22251  30.002  18.233   8.632
 1594POPC   D2A22252  29.811  18.040   8.341
 1594POPC   C3A22253  29.960  18.207   7.976
 1594POPC   C4A22254  30.175  18.523   7.833
 1594POPC   C1B22255  29.883  18.739   8.735
 1594POPC   C2B22256  30.076  18.640   8.340
 1594POPC   C3B22257  29.725  18.658   8.072
 1594POPC   C4B22258  29.708  18.555   7.647
 1595POPC   NC322259  10.340   7.566   9.633
 1595POPC   PO422260  10.838   7.182   9.538
 1595POPC   GL122261  10.520   7.249   9.214
 1595POPC   GL222262  10.469   7.594   9.149
 1595POPC   C1A22263  10.608   7.226   8.777
 1595POPC   D2A22264  10.484   7.140   8.411
 1595POPC   C3A22265  10.724   7.152   8.067
 1595POPC   C4A22266  10.461   7.184   7.751
 1595POPC   C1B22267  10.564   7.734   8.779
 1595POPC   C2B22268  10.743   7.618   8.397
 1595POPC   C3B22269  10.539   7.619   8.029
 1595POPC   C4B22270  10.510   7.836   7.670
 1596POPC   NC322271  36.793   2.422   9.665
 1596POPC   PO422272  37.142   3.002   9.521
 1596POPC   GL122273  36.999   2.782   9.170
 1596POPC   GL222274  36.644   2.719   9.253
 1596POPC   C1A22275  37.062   2.852   8.735
 1596POPC   D2A22276  36.912   2.677   8.354
 1596POPC   C3A22277  37.124   2.743   7.997
 1596POPC   C4A22278  36.978   2.711   7.570
 1596POPC   C1B22279  36.550   2.907   8.847
 1596POPC   C2B22280  36.501   2.966   8.389
 1596POPC   C3B22281  36.632   2.889   7.929
 1596POPC   C4B22282  36.625   3.079   7.481
 1597POPC   NC322283   7.896   7.191   9.534
 1597POPC   PO422284   8.394   7.733   9.414
 1597POPC   GL122285   8.016   7.576   9.194
 1597POPC   GL222286   8.212   7.286   9.139
 1597POPC   C1A22287   7.847   7.461   8.775
 1597POPC   D2A22288   8.035   7.436   8.367
 1597POPC   C3A22289   7.958   7.257   7.967
 1597POPC   C4A22290   7.909   7.497   7.586
 1597POPC   C1B22291   8.351   7.562   8.786
 1597POPC   C2B22292   8.526   7.467   8.406
 1597POPC   C3B22293   8.410   7.553   7.996
 1597POPC   C4B22294   8.397   7.327   7.650
 1598POPC   NC322295  43.715   8.049   9.482
 1598POPC   PO422296  44.056   8.466   9.639
 1598POPC   GL122297  43.993   8.323   9.167
 1598POPC   GL222298  43.646   8.376   9.111
 1598POPC   C1A22299  44.034   8.333   8.713
 1598POPC   D2A22300  43.936   8.449   8.300
 1598POPC   C3A22301  43.834   8.053   8.082
 1598POPC   C4A22302  43.942   7.893   7.676
 1598POPC   C1B22303  43.532   8.264   8.729
 1598POPC   C2B22304  43.409   8.539   8.422
 1598POPC   C3B22305  43.517   8.543   8.022
 1598POPC   C4B22306  43.807   8.406   7.715
 1599POPC   NC322307  14.080   0.618   9.438
 1599POPC   PO422308  14.678   0.342   9.475
 1599POPC   GL122309  14.530   0.198   9.109
 1599POPC   GL222310  14.414   0.532   9.044
 1599POPC   C1A22311  14.626   0.223   8.664
 1599POPC   D2A22312  14.711   0.462   8.251
 1599POPC   C3A22313  14.462   0.380   7.863
 1599POPC   C4A22314  14.539   0.205   7.426
 1599POPC   C1B22315  14.462   0.708   8.638
 1599POPC   C2B22316  14.709   0.984   8.369
 1599POPC   C3B22317  14.675   0.890   7.939
 1599POPC   C4B22318  14.955   0.558   7.803
 1600POPC   NC322319   8.470  15.496   9.213
 1600POPC   PO422320   8.013  16.009   9.534
 1600POPC   GL122321   8.175  16.041   9.129
 1600POPC   GL222322   8.454  15.957   9.016
 1600POPC   C1A22323   7.977  16.037   8.734
 1600POPC   D2A22324   7.896  15.812   8.374
 1600POPC   C3A22325   7.881  15.970   7.980
 1600POPC   C4A22326   7.982  15.791   7.589
 1600POPC   C1B22327   8.467  16.163   8.641
 1600POPC   C2B22328   8.210  16.221   8.280
 1600POPC   C3B22329   8.317  16.191   7.844
 1600POPC   C4B22330   8.656  16.012   7.592
 1601POPC   NC322331  16.247   4.379   9.782
 1601POPC   PO422332  15.764   4.012   9.549
 1601POPC   GL122333  15.863   4.068   9.134
 1601POPC   GL222334  15.989   4.403   9.129
 1601POPC   C1A22335  15.819   4.198   8.706
 1601POPC   D2A22336  16.182   4.204   8.445
 1601POPC   C3A22337  16.124   4.047   8.045
 1601POPC   C4A22338  15.895   4.221   7.665
 1601POPC   C1B22339  16.172   4.630   8.808
 1601POPC   C2B22340  16.283   4.760   8.412
 1601POPC   C3B22341  16.215   4.558   8.041
 1601POPC   C4B22342  16.166   4.655   7.632
 1602POPC   NC322343  11.482  17.873   9.539
 1602POPC   PO422344  11.651  17.205   9.442
 1602POPC   GL122345  11.370  17.382   9.114
 1602POPC   GL222346  11.183  17.698   9.164
 1602POPC   C1A22347  11.374  17.405   8.665
 1602POPC   D2A22348  11.492  17.461   8.260
 1602POPC   C3A22349  11.305  17.270   7.940
 1602POPC   C4A22350  11.421  17.233   7.501
 1602POPC   C1B22351  10.970  17.724   8.792
 1602POPC   C2B22352  11.140  17.814   8.413
 1602POPC   C3B22353  11.048  17.710   8.006
 1602POPC   C4B22354  11.139  17.663   7.580
 1603POPC   NC322355  33.552  13.674   9.544
 1603POPC   PO422356  34.223  13.326   9.492
 1603POPC   GL122357  33.874  13.407   9.226
 1603POPC   GL222358  33.869  13.791   9.173
 1603POPC   C1A22359  33.580  13.470   8.892
 1603POPC   D2A22360  33.639  13.728   8.572
 1603POPC   C3A22361  33.737  13.547   8.212
 1603POPC   C4A22362  33.575  13.608   7.825
 1603POPC   C1B22363  34.016  13.961   8.804
 1603POPC   C2B22364  34.039  14.010   8.388
 1603POPC   C3B22365  33.746  14.043   8.069
 1603POPC   C4B22366  33.912  14.013   7.666
 1604POPC   NC322367  44.029  35.077   9.529
 1604POPC   PO422368  43.383  35.219   9.563
 1604POPC   GL122369  43.585  35.279   9.154
 1604POPC   GL222370  43.919  35.436   9.160
 1604POPC   C1A22371  43.662  35.437   8.726
 1604POPC   D2A22372  44.040  35.545   8.536
 1604POPC   C3A22373  43.992  35.508   8.118
 1604POPC   C4A22374  43.778  35.779   7.800
 1604POPC   C1B22375  44.064  35.135   8.849
 1604POPC   C2B22376  43.876  35.039   8.430
 1604POPC   C3B22377  44.038  35.003   8.022
 1604POPC   C4B22378  43.880  35.265   7.681
 1605POPC   NC322379  21.591   0.324   9.552
 1605POPC   PO422380  21.141   0.695   9.336
 1605POPC   GL122381  21.505   0.548   9.113
 1605POPC   GL222382  21.360   0.248   9.113
 1605POPC   C1A22383  21.649   0.333   8.708
 1605POPC   D2A22384  21.875   0.300   8.300
 1605POPC   C3A22385  21.610   0.395   7.932
 1605POPC   C4A22386  21.663   0.649   7.556
 1605POPC   C1B22387  21.165   0.472   8.742
 1605POPC   C2B22388  21.275   0.393   8.350
 1605POPC   C3B22389  21.138   0.620   8.032
 1605POPC   C4B22390  21.136   0.421   7.685
 1606POPC   NC322391   1.596  32.859   9.436
 1606POPC   PO422392   0.899  32.803   9.482
 1606POPC   GL122393   1.134  33.081   9.246
 1606POPC   GL222394   0.880  33.198   9.027
 1606POPC   C1A22395   1.385  33.154   8.873
 1606POPC   D2A22396   1.390  32.771   8.603
 1606POPC   C3A22397   1.363  32.734   8.163
 1606POPC   C4A22398   1.438  33.046   7.870
 1606POPC   C1B22399   0.951  32.955   8.736
 1606POPC   C2B22400   1.134  33.172   8.386
 1606POPC   C3B22401   0.963  33.224   7.989
 1606POPC   C4B22402   0.967  32.897   7.726
 1607POPC   NC322403  12.238   6.085   9.446
 1607POPC   PO422404  11.826   5.508   9.651
 1607POPC   GL122405  11.988   5.698   9.190
 1607POPC   GL222406  12.263   5.914   8.974
 1607POPC   C1A22407  11.985   5.601   8.712
 1607POPC   D2A22408  12.092   5.975   8.439
 1607POPC   C3A22409  11.979   5.963   8.023
 1607POPC   C4A22410  11.843   5.642   7.770
 1607POPC   C1B22411  12.462   5.692   8.616
 1607POPC   C2B22412  12.316   5.505   8.247
 1607POPC   C3B22413  12.348   5.566   7.831
 1607POPC   C4B22414  12.315   5.940   7.601
 1608POPC   NC322415  22.858  23.297   9.544
 1608POPC   PO422416  22.636  22.649   9.349
 1608POPC   GL122417  22.849  23.005   9.103
 1608POPC   GL222418  23.210  22.943   9.020
 1608POPC   C1A22419  22.888  22.997   8.631
 1608POPC   D2A22420  22.837  23.201   8.236
 1608POPC   C3A22421  22.899  22.876   7.934
 1608POPC   C4A22422  23.084  22.866   7.549
 1608POPC   C1B22423  23.319  23.257   8.719
 1608POPC   C2B22424  23.361  23.179   8.275
 1608POPC   C3B22425  23.223  23.282   7.856
 1608POPC   C4B22426  23.263  23.319   7.364
 1609POPC   NC322427  34.915   0.695   9.717
 1609POPC   PO422428  34.964   0.089   9.504
 1609POPC   GL122429  34.867   0.468   9.253
 1609POPC   GL222430  34.575   0.334   9.133
 1609POPC   C1A22431  34.858   0.642   8.820
 1609POPC   D2A22432  34.620   0.540   8.484
 1609POPC   C3A22433  34.755   0.583   8.040
 1609POPC   C4A22434  34.636   0.814   7.648
 1609POPC   C1B22435  34.238   0.481   8.865
 1609POPC   C2B22436  34.141   0.643   8.492
 1609POPC   C3B22437  34.250   0.513   8.123
 1609POPC   C4B22438  34.180   0.604   7.738
 1610POPC   NC322439  24.139  22.537   9.344
 1610POPC   PO422440  24.423  21.909   9.517
 1610POPC   GL122441  24.416  22.152   9.137
 1610POPC   GL222442  24.759  22.287   9.095
 1610POPC   C1A22443  24.307  22.294   8.717
 1610POPC   D2A22444  24.479  22.439   8.279
 1610POPC   C3A22445  24.268  22.193   7.925
 1610POPC   C4A22446  24.421  22.171   7.465
 1610POPC   C1B22447  24.726  22.007   8.722
 1610POPC   C2B22448  24.622  21.945   8.257
 1610POPC   C3B22449  24.779  22.109   7.844
 1610POPC   C4B22450  24.887  21.960   7.416
 1611POPC   NC322451  39.413  40.428   9.418
 1611POPC   PO422452  39.703  40.911   9.061
 1611POPC   GL122453  39.315  40.729   8.979
 1611POPC   GL222454  39.066  40.832   9.202
 1611POPC   C1A22455  39.201  40.719   8.546
 1611POPC   D2A22456  39.303  41.032   8.277
 1611POPC   C3A22457  39.559  40.857   7.984
 1611POPC   C4A22458  39.521  40.579   7.645
 1611POPC   C1B22459  38.838  41.002   8.852
 1611POPC   C2B22460  38.781  40.996   8.399
 1611POPC   C3B22461  38.944  40.838   7.980
 1611POPC   C4B22462  38.776  40.896   7.589
 1612POPC   NC322463  43.913  17.107   9.512
 1612POPC   PO422464  44.112  16.493   9.458
 1612POPC   GL122465  43.919  16.543   9.118
 1612POPC   GL222466  43.811  16.888   9.078
 1612POPC   C1A22467  43.810  16.549   8.708
 1612POPC   D2A22468  43.867  16.836   8.397
 1612POPC   C3A22469  43.926  16.577   8.073
 1612POPC   C4A22470  43.973  16.646   7.704
 1612POPC   C1B22471  43.514  16.998   8.749
 1612POPC   C2B22472  43.343  16.932   8.336
 1612POPC   C3B22473  43.607  16.979   7.955
 1612POPC   C4B22474  43.597  16.940   7.526
 1613POPC   NC322475   0.152  38.736   9.616
 1613POPC   PO422476   0.346  39.396   9.536
 1613POPC   GL122477   0.342  39.063   9.193
 1613POPC   GL222478   0.670  39.119   9.001
 1613POPC   C1A22479   0.255  39.139   8.740
 1613POPC   D2A22480   0.569  39.340   8.482
 1613POPC   C3A22481   0.512  39.525   8.084
 1613POPC   C4A22482   0.398  39.297   7.763
 1613POPC   C1B22483   1.020  39.159   8.674
 1613POPC   C2B22484   1.177  38.883   8.337
 1613POPC   C3B22485   0.900  38.718   8.043
 1613POPC   C4B22486   0.693  38.863   7.697
 1614POPC   NC322487  13.742  16.170   9.342
 1614POPC   PO422488  13.663  15.556   9.551
 1614POPC   GL122489  13.536  15.753   9.153
 1614POPC   GL222490  13.283  16.065   9.116
 1614POPC   C1A22491  13.644  15.969   8.747
 1614POPC   D2A22492  13.563  16.124   8.367
 1614POPC   C3A22493  13.549  15.731   8.176
 1614POPC   C4A22494  13.514  15.877   7.803
 1614POPC   C1B22495  13.128  15.925   8.673
 1614POPC   C2B22496  13.086  15.956   8.200
 1614POPC   C3B22497  13.223  16.277   7.891
 1614POPC   C4B22498  13.434  16.278   7.471
 1615POPC   NC322499  23.813   4.692   9.432
 1615POPC   PO422500  23.479   4.082   9.583
 1615POPC   GL122501  23.561   4.318   9.188
 1615POPC   GL222502  23.961   4.314   9.091
 1615POPC   C1A22503  23.627   4.465   8.754
 1615POPC   D2A22504  23.931   4.250   8.463
 1615POPC   C3A22505  23.984   4.397   8.045
 1615POPC   C4A22506  23.662   4.544   7.769
 1615POPC   C1B22507  23.748   3.948   8.850
 1615POPC   C2B22508  23.781   3.740   8.460
 1615POPC   C3B22509  23.628   3.923   8.086
 1615POPC   C4B22510  23.758   4.037   7.677
 1616POPC   NC322511  41.341  25.371   9.526
 1616POPC   PO422512  41.878  25.624   9.534
 1616POPC   GL122513  41.715  25.336   9.172
 1616POPC   GL222514  41.385  25.136   9.077
 1616POPC   C1A22515  41.571  25.495   8.768
 1616POPC   D2A22516  41.727  25.413   8.364
 1616POPC   C3A22517  41.491  25.599   8.063
 1616POPC   C4A22518  41.449  25.572   7.676
 1616POPC   C1B22519  41.153  25.190   8.668
 1616POPC   C2B22520  41.236  25.182   8.226
 1616POPC   C3B22521  41.523  25.101   7.876
 1616POPC   C4B22522  41.608  24.843   7.517
 1617POPC   NC322523  28.759  37.957   9.452
 1617POPC   PO422524  28.161  37.560   9.407
 1617POPC   GL122525  28.374  37.845   9.108
 1617POPC   GL222526  28.647  37.588   9.116
 1617POPC   C1A22527  28.347  37.939   8.648
 1617POPC   D2A22528  28.038  37.853   8.320
 1617POPC   C3A22529  28.205  37.609   8.016
 1617POPC   C4A22530  28.584  37.736   7.811
 1617POPC   C1B22531  28.613  37.461   8.710
 1617POPC   C2B22532  28.629  37.542   8.300
 1617POPC   C3B22533  28.597  37.256   7.953
 1617POPC   C4B22534  28.826  37.388   7.537
 1618POPC   NC322535  38.560   3.252   9.600
 1618POPC   PO422536  38.432   3.904   9.444
 1618POPC   GL122537  38.422   3.518   9.193
 1618POPC   GL222538  38.791   3.447   9.096
 1618POPC   C1A22539  38.384   3.267   8.823
 1618POPC   D2A22540  38.602   3.344   8.425
 1618POPC   C3A22541  38.290   3.460   8.109
 1618POPC   C4A22542  38.259   3.290   7.699
 1618POPC   C1B22543  38.629   3.760   8.771
 1618POPC   C2B22544  38.644   3.955   8.351
 1618POPC   C3B22545  38.687   3.794   7.960
 1618POPC   C4B22546  38.324   3.831   7.745
 1619POPC   NC322547  44.245  40.683   9.451
 1619POPC   PO422548  44.838  41.046   9.472
 1619POPC   GL122549  44.879  40.799   9.114
 1619POPC   GL222550  44.535  40.805   9.052
 1619POPC   C1A22551  44.926  40.915   8.730
 1619POPC   D2A22552  44.634  40.812   8.431
 1619POPC   C3A22553  44.800  40.999   8.087
 1619POPC   C4A22554  44.717  40.889   7.674
 1619POPC   C1B22555  44.268  41.023   8.792
 1619POPC   C2B22556  44.108  40.891   8.420
 1619POPC   C3B22557  44.309  40.848   8.014
 1619POPC   C4B22558  44.308  40.615   7.663
 1620POPC   NC322559  11.375   2.400   9.357
 1620POPC   PO422560  11.083   3.055   9.420
 1620POPC   GL122561  11.293   2.849   9.104
 1620POPC   GL222562  11.069   2.597   8.996
 1620POPC   C1A22563  11.335   2.933   8.692
 1620POPC   D2A22564  11.143   3.081   8.322
 1620POPC   C3A22565  10.891   2.835   8.075
 1620POPC   C4A22566  11.074   2.810   7.701
 1620POPC   C1B22567  11.288   2.420   8.673
 1620POPC   C2B22568  11.166   2.419   8.245
 1620POPC   C3B22569  11.424   2.477   7.871
 1620POPC   C4B22570  11.397   2.564   7.366
 1621POPC   NC322571  20.756  20.997   9.731
 1621POPC   PO422572  20.375  20.417   9.507
 1621POPC   GL122573  20.514  20.481   9.050
 1621POPC   GL222574  20.361  20.751   8.971
 1621POPC   C1A22575  20.791  20.637   8.678
 1621POPC   D2A22576  20.972  20.884   8.346
 1621POPC   C3A22577  20.824  20.670   8.007
 1621POPC   C4A22578  20.833  20.221   7.903
 1621POPC   C1B22579  20.264  20.513   8.594
 1621POPC   C2B22580  20.411  20.255   8.231
 1621POPC   C3B22581  20.377  20.386   7.805
 1621POPC   C4B22582  20.362  20.826   7.766
 1622POPC   NC322583  28.955  16.486   9.531
 1622POPC   PO422584  29.419  16.863   9.782
 1622POPC   GL122585  29.365  16.694   9.302
 1622POPC   GL222586  29.305  16.368   9.148
 1622POPC   C1A22587  29.292  16.792   8.833
 1622POPC   D2A22588  29.439  16.898   8.419
 1622POPC   C3A22589  29.113  16.909   8.145
 1622POPC   C4A22590  29.191  16.729   7.782
 1622POPC   C1B22591  29.482  16.338   8.732
 1622POPC   C2B22592  29.312  16.417   8.292
 1622POPC   C3B22593  29.499  16.313   7.880
 1622POPC   C4B22594  29.630  16.575   7.512
 1623POPC   NC322595   1.623  37.683   9.626
 1623POPC   PO422596   2.262  37.841   9.448
 1623POPC   GL122597   1.919  37.698   9.218
 1623POPC   GL222598   1.694  38.020   9.258
 1623POPC   C1A22599   1.939  37.434   8.836
 1623POPC   D2A22600   2.204  37.481   8.465
 1623POPC   C3A22601   1.985  37.608   8.082
 1623POPC   C4A22602   1.970  37.969   7.813
 1623POPC   C1B22603   1.654  37.872   8.835
 1623POPC   C2B22604   1.846  37.907   8.469
 1623POPC   C3B22605   1.572  37.901   8.143
 1623POPC   C4B22606   1.410  38.114   7.778
 1624POPC   NC322607  40.976  22.603   9.408
 1624POPC   PO422608  40.631  22.035   9.216
 1624POPC   GL122609  40.951  22.254   9.049
 1624POPC   GL222610  40.670  22.525   9.006
 1624POPC   C1A22611  41.057  22.490   8.698
 1624POPC   D2A22612  40.793  22.541   8.322
 1624POPC   C3A22613  40.812  22.158   8.057
 1624POPC   C4A22614  41.052  22.024   7.693
 1624POPC   C1B22615  40.394  22.329   8.687
 1624POPC   C2B22616  40.286  22.113   8.319
 1624POPC   C3B22617  40.319  22.215   7.917
 1624POPC   C4B22618  40.561  21.948   7.650
 1625POPC   NC322619  25.529  27.457   9.522
 1625POPC   PO422620  24.930  27.729   9.598
 1625POPC   GL122621  25.095  27.581   9.204
 1625POPC   GL222622  24.954  27.894   9.085
 1625POPC   C1A22623  25.426  27.477   8.873
 1625POPC   D2A22624  25.453  27.316   8.447
 1625POPC   C3A22625  25.471  27.493   8.031
 1625POPC   C4A22626  25.386  27.920   7.851
 1625POPC   C1B22627  25.014  27.695   8.688
 1625POPC   C2B22628  25.119  27.732   8.282
 1625POPC   C3B22629  24.960  27.617   7.876
 1625POPC   C4B22630  25.006  27.918   7.501
 1626POPC   NC322631  21.463  43.535   9.553
 1626POPC   PO422632  21.017  44.036   9.594
 1626POPC   GL122633  21.248  44.080   9.138
 1626POPC   GL222634  21.404  43.694   9.069
 1626POPC   C1A22635  21.499  44.033   8.738
 1626POPC   D2A22636  21.358  44.005   8.314
 1626POPC   C3A22637  21.604  44.026   7.957
 1626POPC   C4A22638  21.293  44.037   7.633
 1626POPC   C1B22639  21.185  43.646   8.665
 1626POPC   C2B22640  21.362  43.498   8.274
 1626POPC   C3B22641  21.320  43.576   7.841
 1626POPC   C4B22642  21.211  43.568   7.407
 1627POPC   NC322643  29.917   1.380   9.551
 1627POPC   PO422644  30.011   0.674   9.509
 1627POPC   GL122645  29.981   1.000   9.185
 1627POPC   GL222646  29.679   1.142   9.185
 1627POPC   C1A22647  30.041   1.139   8.753
 1627POPC   D2A22648  29.969   0.965   8.354
 1627POPC   C3A22649  29.917   1.231   8.022
 1627POPC   C4A22650  29.884   1.445   7.649
 1627POPC   C1B22651  29.546   1.054   8.805
 1627POPC   C2B22652  29.542   1.248   8.414
 1627POPC   C3B22653  29.433   1.122   8.043
 1627POPC   C4B22654  29.503   0.982   7.655
 1628POPC   NC322655  39.192  23.923   9.504
 1628POPC   PO422656  39.518  23.320   9.415
 1628POPC   GL122657  39.472  23.708   9.155
 1628POPC   GL222658  39.149  23.553   9.113
 1628POPC   C1A22659  39.322  23.862   8.752
 1628POPC   D2A22660  39.052  23.905   8.426
 1628POPC   C3A22661  39.301  24.126   8.134
 1628POPC   C4A22662  39.118  23.981   7.765
 1628POPC   C1B22663  39.469  23.388   8.771
 1628POPC   C2B22664  39.669  23.527   8.396
 1628POPC   C3B22665  39.500  23.687   8.024
 1628POPC   C4B22666  39.502  23.722   7.593
 1629POPC   NC322667  10.025  44.900   9.591
 1629POPC   PO422668   9.944  44.232   9.602
 1629POPC   GL122669   9.770  44.604   9.284
 1629POPC   GL222670   9.412  44.686   9.235
 1629POPC   C1A22671   9.821  44.827   8.872
 1629POPC   D2A22672  10.066  44.792   8.498
 1629POPC   C3A22673   9.964  44.897   8.076
 1629POPC   C4A22674   9.737  44.667   7.774
 1629POPC   C1B22675   9.460  44.463   8.849
 1629POPC   C2B22676   9.529  44.632   8.436
 1629POPC   C3B22677   9.353  44.511   8.058
 1629POPC   C4B22678   9.306  44.416   7.622
 1630POPC   NC322679   6.916  27.666   9.491
 1630POPC   PO422680   6.188  27.563   9.589
 1630POPC   GL122681   6.321  27.507   9.166
 1630POPC   GL222682   6.494  27.819   9.158
 1630POPC   C1A22683   6.335  27.537   8.694
 1630POPC   D2A22684   6.411  27.829   8.330
 1630POPC   C3A22685   6.507  27.601   7.946
 1630POPC   C4A22686   6.684  27.186   7.806
 1630POPC   C1B22687   6.801  27.638   8.875
 1630POPC   C2B22688   6.855  27.584   8.462
 1630POPC   C3B22689   7.024  27.372   8.139
 1630POPC   C4B22690   7.047  27.534   7.745
 1631POPC   NC322691   4.545   1.543   9.410
 1631POPC   PO422692   4.626   2.197   9.379
 1631POPC   GL122693   4.356   2.056   9.040
 1631POPC   GL222694   4.136   1.792   9.137
 1631POPC   C1A22695   4.439   1.935   8.651
 1631POPC   D2A22696   4.598   1.801   8.269
 1631POPC   C3A22697   4.564   2.090   7.952
 1631POPC   C4A22698   4.450   2.287   7.617
 1631POPC   C1B22699   3.976   1.707   8.701
 1631POPC   C2B22700   4.045   1.809   8.274
 1631POPC   C3B22701   4.065   1.773   7.827
 1631POPC   C4B22702   4.245   1.886   7.418
 1632POPC   NC322703  32.815  10.060   9.593
 1632POPC   PO422704  33.032  10.541   9.245
 1632POPC   GL122705  33.259  10.570   8.954
 1632POPC   GL222706  33.481  10.807   9.039
 1632POPC   C1A22707  33.036  10.487   8.613
 1632POPC   D2A22708  32.688  10.533   8.375
 1632POPC   C3A22709  32.898  10.497   7.989
 1632POPC   C4A22710  33.095  10.627   7.597
 1632POPC   C1B22711  33.301  11.010   8.697
 1632POPC   C2B22712  33.140  10.888   8.313
 1632POPC   C3B22713  33.356  10.880   7.953
 1632POPC   C4B22714  33.383  11.130   7.616
 1633POPC   NC322715  28.200  20.278   9.536
 1633POPC   PO422716  28.288  20.946   9.444
 1633POPC   GL122717  28.433  20.728   9.142
 1633POPC   GL222718  28.116  20.578   9.119
 1633POPC   C1A22719  28.574  20.750   8.722
 1633POPC   D2A22720  28.463  20.972   8.340
 1633POPC   C3A22721  28.282  20.726   7.987
 1633POPC   C4A22722  28.359  20.592   7.571
 1633POPC   C1B22723  28.079  20.889   8.799
 1633POPC   C2B22724  28.001  20.707   8.423
 1633POPC   C3B22725  27.771  20.787   8.057
 1633POPC   C4B22726  27.859  20.591   7.664
 1634POPC   NC322727  11.092  27.910   9.458
 1634POPC   PO422728  11.574  27.428   9.631
 1634POPC   GL122729  11.340  27.517   9.212
 1634POPC   GL222730  10.944  27.494   9.148
 1634POPC   C1A22731  11.276  27.580   8.742
 1634POPC   D2A22732  11.260  27.639   8.273
 1634POPC   C3A22733  11.458  27.325   8.006
 1634POPC   C4A22734  11.506  27.352   7.554
 1634POPC   C1B22735  10.780  27.749   8.763
 1634POPC   C2B22736  10.652  27.945   8.338
 1634POPC   C3B22737  10.791  27.889   7.907
 1634POPC   C4B22738  11.083  27.589   7.736
 1635POPC   NC322739  22.816  32.943   9.580
 1635POPC   PO422740  22.844  33.632   9.530
 1635POPC   GL122741  22.898  33.313   9.160
 1635POPC   GL222742  22.959  32.926   9.099
 1635POPC   C1A22743  23.036  33.297   8.746
 1635POPC   D2A22744  22.896  33.010   8.453
 1635POPC   C3A22745  23.061  33.080   8.051
 1635POPC   C4A22746  23.033  32.779   7.747
 1635POPC   C1B22747  22.565  33.006   8.885
 1635POPC   C2B22748  22.388  32.894   8.486
 1635POPC   C3B22749  22.569  32.844   8.082
 1635POPC   C4B22750  22.624  33.112   7.754
 1636POPC   NC322751   8.961  12.704   9.661
 1636POPC   PO422752   9.075  11.942   9.544
 1636POPC   GL122753   9.148  12.117   9.175
 1636POPC   GL222754   9.426  12.324   9.258
 1636POPC   C1A22755   9.129  11.925   8.767
 1636POPC   D2A22756   8.882  11.787   8.423
 1636POPC   C3A22757   8.748  12.039   8.065
 1636POPC   C4A22758   8.789  11.907   7.650
 1636POPC   C1B22759   9.384  12.368   8.771
 1636POPC   C2B22760   9.142  12.253   8.356
 1636POPC   C3B22761   9.228  12.128   7.903
 1636POPC   C4B22762   9.102  12.295   7.498
 1637POPC   NC322763   0.521  21.017   9.717
 1637POPC   PO422764   0.268  21.617   9.540
 1637POPC   GL122765   0.335  21.408   9.162
 1637POPC   GL222766   0.465  21.093   9.174
 1637POPC   C1A22767   0.224  21.335   8.730
 1637POPC   D2A22768   0.208  21.578   8.351
 1637POPC   C3A22769   0.365  21.416   7.946
 1637POPC   C4A22770   0.596  21.594   7.574
 1637POPC   C1B22771   0.731  21.261   8.834
 1637POPC   C2B22772   0.671  21.196   8.406
 1637POPC   C3B22773   0.934  21.079   8.076
 1637POPC   C4B22774   0.697  21.089   7.729
 1638POPC   NC322775   7.645   9.536   9.442
 1638POPC   PO422776   7.111   9.812   9.642
 1638POPC   GL122777   7.320   9.854   9.203
 1638POPC   GL222778   7.392   9.538   8.997
 1638POPC   C1A22779   7.411   9.983   8.756
 1638POPC   D2A22780   7.370   9.751   8.360
 1638POPC   C3A22781   7.424  10.049   8.057
 1638POPC   C4A22782   7.581   9.963   7.682
 1638POPC   C1B22783   7.726   9.573   8.664
 1638POPC   C2B22784   7.761   9.337   8.295
 1638POPC   C3B22785   7.613   9.446   7.913
 1638POPC   C4B22786   7.845   9.540   7.576
 1639POPC   NC322787  33.183  11.682   9.435
 1639POPC   PO422788  33.167  12.366   9.542
 1639POPC   GL122789  33.056  12.150   9.192
 1639POPC   GL222790  32.793  11.995   9.285
 1639POPC   C1A22791  33.174  12.111   8.780
 1639POPC   D2A22792  33.307  12.265   8.381
 1639POPC   C3A22793  33.128  12.217   8.009
 1639POPC   C4A22794  33.140  11.854   7.817
 1639POPC   C1B22795  32.714  11.880   8.850
 1639POPC   C2B22796  32.808  12.029   8.421
 1639POPC   C3B22797  32.623  12.114   8.026
 1639POPC   C4B22798  32.645  11.823   7.707
 1640POPC   NC322799  26.276   3.469   9.478
 1640POPC   PO422800  25.585   3.202   9.411
 1640POPC   GL122801  25.748   3.547   9.107
 1640POPC   GL222802  26.102   3.655   9.053
 1640POPC   C1A22803  25.774   3.643   8.662
 1640POPC   D2A22804  25.968   3.406   8.324
 1640POPC   C3A22805  25.835   3.512   7.939
 1640POPC   C4A22806  25.844   3.929   7.783
 1640POPC   C1B22807  26.284   3.593   8.670
 1640POPC   C2B22808  26.207   3.865   8.307
 1640POPC   C3B22809  26.327   3.712   7.919
 1640POPC   C4B22810  26.175   3.521   7.535
 1641POPC   NC322811  38.328   2.629   9.663
 1641POPC   PO422812  38.793   2.980   9.318
 1641POPC   GL122813  38.587   2.821   9.030
 1641POPC   GL222814  38.262   2.825   9.105
 1641POPC   C1A22815  38.589   2.827   8.619
 1641POPC   D2A22816  38.523   2.585   8.291
 1641POPC   C3A22817  38.466   2.941   8.030
 1641POPC   C4A22818  38.732   3.281   7.920
 1641POPC   C1B22819  38.121   2.627   8.699
 1641POPC   C2B22820  38.033   2.412   8.296
 1641POPC   C3B22821  38.201   2.500   7.901
 1641POPC   C4B22822  38.545   2.602   7.664
 1642POPC   NC322823   7.870  32.324   9.508
 1642POPC   PO422824   8.535  32.160   9.640
 1642POPC   GL122825   8.343  32.236   9.249
 1642POPC   GL222826   8.580  32.051   9.123
 1642POPC   C1A22827   8.103  32.273   8.844
 1642POPC   D2A22828   8.097  32.121   8.409
 1642POPC   C3A22829   8.195  32.258   7.983
 1642POPC   C4A22830   8.060  31.950   7.659
 1642POPC   C1B22831   8.459  31.897   8.747
 1642POPC   C2B22832   8.638  32.046   8.403
 1642POPC   C3B22833   8.701  32.222   8.037
 1642POPC   C4B22834   8.576  32.073   7.666
 1643POPC   NC322835  26.742  23.912   9.428
 1643POPC   PO422836  27.285  23.599   9.638
 1643POPC   GL122837  27.032  23.576   9.175
 1643POPC   GL222838  27.151  23.825   8.906
 1643POPC   C1A22839  26.676  23.699   8.824
 1643POPC   D2A22840  26.860  23.991   8.514
 1643POPC   C3A22841  26.677  23.982   8.110
 1643POPC   C4A22842  26.770  24.006   7.720
 1643POPC   C1B22843  27.097  23.447   8.674
 1643POPC   C2B22844  26.825  23.506   8.327
 1643POPC   C3B22845  26.964  23.588   7.903
 1643POPC   C4B22846  27.010  23.538   7.459
 1644POPC   NC322847  33.094  29.483   9.427
 1644POPC   PO422848  33.080  28.913   9.728
 1644POPC   GL122849  33.009  29.026   9.234
 1644POPC   GL222850  33.315  29.197   9.066
 1644POPC   C1A22851  32.732  29.235   8.877
 1644POPC   D2A22852  32.739  29.489   8.462
 1644POPC   C3A22853  32.850  29.312   8.068
 1644POPC   C4A22854  32.993  28.999   7.767
 1644POPC   C1B22855  33.186  29.159   8.629
 1644POPC   C2B22856  33.360  29.121   8.223
 1644POPC   C3B22857  33.317  29.369   7.861
 1644POPC   C4B22858  33.182  29.324   7.409
 1645POPC   NC322859  35.015  34.686   9.351
 1645POPC   PO422860  35.540  34.298   9.464
 1645POPC   GL122861  35.307  34.348   9.121
 1645POPC   GL222862  35.460  34.717   9.080
 1645POPC   C1A22863  35.205  34.490   8.722
 1645POPC   D2A22864  35.462  34.732   8.467
 1645POPC   C3A22865  35.404  34.576   8.079
 1645POPC   C4A22866  35.285  34.754   7.689
 1645POPC   C1B22867  35.701  34.413   8.786
 1645POPC   C2B22868  35.880  34.368   8.362
 1645POPC   C3B22869  35.828  34.274   7.929
 1645POPC   C4B22870  35.519  34.313   7.646
 1646POPC   NC322871  30.474  12.331   9.392
 1646POPC   PO422872  29.856  12.343   9.544
 1646POPC   GL122873  29.906  12.208   9.113
 1646POPC   GL222874  30.154  12.053   9.075
 1646POPC   C1A22875  29.863  12.219   8.682
 1646POPC   D2A22876  29.884  12.498   8.310
 1646POPC   C3A22877  30.068  12.337   7.983
 1646POPC   C4A22878  29.797  12.070   7.771
 1646POPC   C1B22879  30.167  11.814   8.727
 1646POPC   C2B22880  30.146  11.987   8.334
 1646POPC   C3B22881  30.280  11.869   7.957
 1646POPC   C4B22882  30.254  11.994   7.533
 1647POPC   NC322883   8.680  19.017   9.518
 1647POPC   PO422884   9.250  19.070   9.101
 1647POPC   GL122885   9.020  18.775   8.971
 1647POPC   GL222886   8.683  18.800   9.046
 1647POPC   C1A22887   9.050  18.814   8.547
 1647POPC   D2A22888   9.252  19.191   8.403
 1647POPC   C3A22889   9.229  19.100   7.998
 1647POPC   C4A22890   9.138  19.100   7.589
 1647POPC   C1B22891   8.687  19.142   8.714
 1647POPC   C2B22892   8.742  19.126   8.259
 1647POPC   C3B22893   8.783  19.335   7.870
 1647POPC   C4B22894   8.752  19.346   7.381
 1648POPC   NC322895  35.963  14.915   9.545
 1648POPC   PO422896  35.546  15.424   9.590
 1648POPC   GL122897  35.866  15.346   9.216
 1648POPC   GL222898  35.848  14.993   9.065
 1648POPC   C1A22899  36.093  15.391   8.772
 1648POPC   D2A22900  36.015  15.317   8.313
 1648POPC   C3A22901  36.222  15.324   7.916
 1648POPC   C4A22902  35.930  15.536   7.643
 1648POPC   C1B22903  36.252  14.884   8.872
 1648POPC   C2B22904  36.420  15.051   8.495
 1648POPC   C3B22905  36.357  14.887   8.114
 1648POPC   C4B22906  36.278  14.753   7.704
 1649POPC   NC322907  24.654  37.614   9.402
 1649POPC   PO422908  24.193  38.143   9.400
 1649POPC   GL122909  24.283  37.829   9.088
 1649POPC   GL222910  24.392  37.493   8.970
 1649POPC   C1A22911  24.586  37.943   8.781
 1649POPC   D2A22912  24.760  38.027   8.385
 1649POPC   C3A22913  24.535  37.788   8.100
 1649POPC   C4A22914  24.393  37.656   7.735
 1649POPC   C1B22915  24.402  37.497   8.526
 1649POPC   C2B22916  24.530  37.242   8.176
 1649POPC   C3B22917  24.755  37.312   7.787
 1649POPC   C4B22918  24.647  37.382   7.354
 1650POPC   NC322919   2.944   3.909   9.306
 1650POPC   PO422920   2.783   3.279   9.658
 1650POPC   GL122921   2.807   3.421   9.244
 1650POPC   GL222922   2.498   3.582   9.175
 1650POPC   C1A22923   2.750   3.377   8.787
 1650POPC   D2A22924   2.945   3.612   8.456
 1650POPC   C3A22925   2.870   3.335   8.102
 1650POPC   C4A22926   2.616   3.397   7.784
 1650POPC   C1B22927   2.530   3.842   8.788
 1650POPC   C2B22928   2.602   4.031   8.382
 1650POPC   C3B22929   2.716   3.862   7.981
 1650POPC   C4B22930   2.448   3.820   7.597
 1651POPC   NC322931   5.330   1.460   9.852
 1651POPC   PO422932   5.095   0.886   9.538
 1651POPC   GL122933   5.101   1.047   9.094
 1651POPC   GL222934   5.175   1.344   9.000
 1651POPC   C1A22935   4.953   1.131   8.632
 1651POPC   D2A22936   5.054   1.000   8.277
 1651POPC   C3A22937   5.082   1.259   7.947
 1651POPC   C4A22938   4.983   1.350   7.491
 1651POPC   C1B22939   5.427   1.483   8.661
 1651POPC   C2B22940   5.671   1.543   8.251
 1651POPC   C3B22941   5.433   1.642   7.882
 1651POPC   C4B22942   5.240   1.781   7.480
 1652POPC   NC322943  12.163   2.138   9.517
 1652POPC   PO422944  11.725   1.705   9.434
 1652POPC   GL122945  11.992   1.873   9.098
 1652POPC   GL222946  11.954   2.241   9.038
 1652POPC   C1A22947  11.848   1.945   8.654
 1652POPC   D2A22948  11.589   2.134   8.366
 1652POPC   C3A22949  11.718   2.023   8.009
 1652POPC   C4A22950  12.059   1.964   7.781
 1652POPC   C1B22951  12.179   2.350   8.660
 1652POPC   C2B22952  12.203   2.110   8.273
 1652POPC   C3B22953  12.438   2.254   7.913
 1652POPC   C4B22954  12.310   2.377   7.460
 1653POPC   NC322955  27.846  27.565   9.312
 1653POPC   PO422956  28.396  27.830   9.683
 1653POPC   GL122957  28.316  27.827   9.225
 1653POPC   GL222958  28.049  28.068   9.168
 1653POPC   C1A22959  28.509  27.678   8.806
 1653POPC   D2A22960  28.597  27.522   8.377
 1653POPC   C3A22961  28.594  27.763   8.015
 1653POPC   C4A22962  28.558  27.577   7.623
 1653POPC   C1B22963  28.010  27.832   8.760
 1653POPC   C2B22964  28.113  27.440   8.514
 1653POPC   C3B22965  28.173  27.404   8.062
 1653POPC   C4B22966  28.115  27.760   7.799
 1654POPC   NC322967  19.774  14.203   9.518
 1654POPC   PO422968  20.106  14.724   9.321
 1654POPC   GL122969  19.795  14.533   9.103
 1654POPC   GL222970  19.959  14.242   9.050
 1654POPC   C1A22971  19.616  14.608   8.712
 1654POPC   D2A22972  19.880  14.708   8.374
 1654POPC   C3A22973  19.724  14.624   7.988
 1654POPC   C4A22974  20.018  14.428   7.738
 1654POPC   C1B22975  19.747  14.116   8.680
 1654POPC   C2B22976  19.595  14.248   8.298
 1654POPC   C3B22977  19.701  14.034   7.885
 1654POPC   C4B22978  19.907  13.961   7.439
 1655POPC   NC322979  41.932   7.339   9.467
 1655POPC   PO422980  42.389   7.796   9.513
 1655POPC   GL122981  42.315   7.560   9.124
 1655POPC   GL222982  42.138   7.253   9.023
 1655POPC   C1A22983  42.436   7.473   8.689
 1655POPC   D2A22984  42.225   7.396   8.329
 1655POPC   C3A22985  42.445   7.391   7.993
 1655POPC   C4A22986  42.383   7.496   7.579
 1655POPC   C1B22987  42.157   7.008   8.663
 1655POPC   C2B22988  41.926   6.985   8.287
 1655POPC   C3B22989  41.992   7.196   7.885
 1655POPC   C4B22990  42.091   7.066   7.468
 1656POPC   NC322991  42.906  18.862   9.464
 1656POPC   PO422992  43.382  19.275   9.229
 1656POPC   GL122993  43.239  18.921   9.067
 1656POPC   GL222994  42.920  19.100   9.027
 1656POPC   C1A22995  43.193  18.883   8.639
 1656POPC   D2A22996  43.460  18.943   8.301
 1656POPC   C3A22997  43.389  19.162   7.926
 1656POPC   C4A22998  43.090  18.924   7.786
 1656POPC   C1B22999  42.863  19.306   8.661
 1656POPC   C2B23000  42.984  19.195   8.259
 1656POPC   C3B23001  42.728  19.270   7.929
 1656POPC   C4B23002  42.855  19.272   7.524
 1657POPC   NC323003  25.893   6.032   9.936
 1657POPC   PO423004  26.211   5.531   9.487
 1657POPC   GL123005  26.012   5.746   9.128
 1657POPC   GL223006  25.894   6.105   9.181
 1657POPC   C1A23007  26.177   5.781   8.719
 1657POPC   D2A23008  26.438   5.747   8.369
 1657POPC   C3A23009  26.251   5.748   7.981
 1657POPC   C4A23010  26.047   6.028   7.731
 1657POPC   C1B23011  25.780   6.117   8.766
 1657POPC   C2B23012  25.990   6.149   8.377
 1657POPC   C3B23013  25.713   6.205   8.083
 1657POPC   C4B23014  25.459   6.092   7.787
 1658POPC   NC323015  30.310  40.255   9.649
 1658POPC   PO423016  29.861  39.751   9.454
 1658POPC   GL123017  29.770  40.098   9.150
 1658POPC   GL223018  29.774  39.872   8.905
 1658POPC   C1A23019  29.870  40.330   8.722
 1658POPC   D2A23020  29.813  40.193   8.365
 1658POPC   C3A23021  30.103  40.343   8.127
 1658POPC   C4A23022  29.982  40.197   7.732
 1658POPC   C1B23023  30.115  39.857   8.590
 1658POPC   C2B23024  30.120  39.835   8.137
 1658POPC   C3B23025  30.339  39.814   7.769
 1658POPC   C4B23026  30.203  39.892   7.374
 1659POPC   NC323027   9.435  20.400   9.525
 1659POPC   PO423028   9.886  20.830   9.639
 1659POPC   GL123029   9.734  20.715   9.222
 1659POPC   GL223030   9.366  20.720   9.149
 1659POPC   C1A23031   9.757  20.387   8.923
 1659POPC   D2A23032   9.601  20.345   8.524
 1659POPC   C3A23033   9.799  20.548   8.198
 1659POPC   C4A23034   9.795  20.405   7.796
 1659POPC   C1B23035   9.468  20.800   8.739
 1659POPC   C2B23036   9.339  20.766   8.323
 1659POPC   C3B23037   9.517  20.859   7.927
 1659POPC   C4B23038   9.963  21.018   7.870
 1660POPC   NC323039   2.663   7.825   9.395
 1660POPC   PO423040   2.789   7.215   9.440
 1660POPC   GL123041   2.971   7.216   9.073
 1660POPC   GL223042   2.968   7.592   9.026
 1660POPC   C1A23043   2.850   7.091   8.679
 1660POPC   D2A23044   2.773   7.423   8.390
 1660POPC   C3A23045   2.738   7.223   8.028
 1660POPC   C4A23046   2.959   7.269   7.649
 1660POPC   C1B23047   2.537   7.495   8.843
 1660POPC   C2B23048   2.276   7.610   8.493
 1660POPC   C3B23049   2.356   7.579   8.058
 1660POPC   C4B23050   2.550   7.541   7.653
 1661POPC   NC323051  37.473  12.343   9.387
 1661POPC   PO423052  37.757  11.850   9.592
 1661POPC   GL123053  37.780  11.976   9.136
 1661POPC   GL223054  37.728  12.294   8.948
 1661POPC   C1A23055  37.660  11.873   8.703
 1661POPC   D2A23056  37.612  11.890   8.278
 1661POPC   C3A23057  37.771  12.251   8.087
 1661POPC   C4A23058  37.772  11.966   7.739
 1661POPC   C1B23059  37.500  12.419   8.612
 1661POPC   C2B23060  37.261  12.255   8.301
 1661POPC   C3B23061  37.329  12.167   7.867
 1661POPC   C4B23062  37.577  12.339   7.475
 1662POPC   NC323063   0.165  20.208   9.368
 1662POPC   PO423064   0.547  20.557   9.849
 1662POPC   GL123065   0.459  20.621   9.346
 1662POPC   GL223066   0.705  20.483   9.079
 1662POPC   C1A23067   0.303  20.683   8.867
 1662POPC   D2A23068   0.234  20.892   8.456
 1662POPC   C3A23069   0.462  20.803   8.101
 1662POPC   C4A23070   0.373  20.693   7.701
 1662POPC   C1B23071   0.603  20.220   8.730
 1662POPC   C2B23072   0.330  20.365   8.403
 1662POPC   C3B23073   0.267  20.284   7.988
 1662POPC   C4B23074   0.582  20.204   7.671
 1663POPC   NC323075  18.253  28.643   9.476
 1663POPC   PO423076  18.621  28.058   9.460
 1663POPC   GL123077  18.417  28.246   9.109
 1663POPC   GL223078  18.765  28.306   9.023
 1663POPC   C1A23079  18.121  28.425   8.780
 1663POPC   D2A23080  18.129  28.657   8.369
 1663POPC   C3A23081  18.225  28.459   7.965
 1663POPC   C4A23082  17.923  28.162   7.739
 1663POPC   C1B23083  18.630  28.425   8.628
 1663POPC   C2B23084  18.599  28.245   8.259
 1663POPC   C3B23085  18.718  28.244   7.867
 1663POPC   C4B23086  18.670  28.659   7.701
 1664POPC   NC323087  18.171  13.833   9.341
 1664POPC   PO423088  17.945  13.236   9.403
 1664POPC   GL123089  18.190  13.393   9.069
 1664POPC   GL223090  18.559  13.363   9.125
 1664POPC   C1A23091  18.219  13.631   8.688
 1664POPC   D2A23092  17.961  13.675   8.342
 1664POPC   C3A23093  18.153  13.865   8.010
 1664POPC   C4A23094  18.568  13.879   7.906
 1664POPC   C1B23095  18.489  13.201   8.693
 1664POPC   C2B23096  18.352  13.317   8.263
 1664POPC   C3B23097  18.429  13.370   7.813
 1664POPC   C4B23098  18.599  13.375   7.365
 1665POPC   NC323099  38.643  14.462   9.634
 1665POPC   PO423100  38.067  14.304   9.287
 1665POPC   GL123101  38.401  14.398   9.059
 1665POPC   GL223102  38.702  14.182   9.068
 1665POPC   C1A23103  38.269  14.425   8.675
 1665POPC   D2A23104  38.209  14.082   8.426
 1665POPC   C3A23105  38.057  14.290   8.098
 1665POPC   C4A23106  38.233  14.465   7.757
 1665POPC   C1B23107  38.694  14.175   8.593
 1665POPC   C2B23108  38.537  14.476   8.252
 1665POPC   C3B23109  38.726  14.598   7.898
 1665POPC   C4B23110  38.784  14.241   7.678
 1666POPC   NC323111  19.501  18.477   9.485
 1666POPC   PO423112  19.984  17.983   9.393
 1666POPC   GL123113  20.106  18.129   9.014
 1666POPC   GL223114  20.050  18.486   9.018
 1666POPC   C1A23115  20.009  18.105   8.572
 1666POPC   D2A23116  20.053  18.039   8.135
 1666POPC   C3A23117  19.688  18.131   7.954
 1666POPC   C4A23118  19.727  18.251   7.553
 1666POPC   C1B23119  19.640  18.384   8.832
 1666POPC   C2B23120  19.534  18.406   8.388
 1666POPC   C3B23121  19.586  18.625   7.982
 1666POPC   C4B23122  19.921  18.715   7.714
 1667POPC   NC323123  18.309  32.823   9.450
 1667POPC   PO423124  18.034  33.396   9.645
 1667POPC   GL123125  18.130  33.289   9.194
 1667POPC   GL223126  18.498  33.210   9.128
 1667POPC   C1A23127  18.102  33.075   8.763
 1667POPC   D2A23128  18.113  32.720   8.473
 1667POPC   C3A23129  18.065  32.752   8.040
 1667POPC   C4A23130  18.073  33.080   7.793
 1667POPC   C1B23131  18.551  32.812   8.841
 1667POPC   C2B23132  18.621  32.672   8.415
 1667POPC   C3B23133  18.555  32.914   8.044
 1667POPC   C4B23134  18.538  32.746   7.653
 1668POPC   NC323135   7.960  39.615   9.431
 1668POPC   PO423136   8.496  39.238   9.699
 1668POPC   GL123137   8.381  39.317   9.229
 1668POPC   GL223138   8.095  39.296   9.040
 1668POPC   C1A23139   8.424  39.436   8.728
 1668POPC   D2A23140   8.126  39.234   8.415
 1668POPC   C3A23141   8.207  39.377   8.001
 1668POPC   C4A23142   8.219  39.184   7.598
 1668POPC   C1B23143   7.871  39.533   8.750
 1668POPC   C2B23144   7.724  39.541   8.307
 1668POPC   C3B23145   7.757  39.490   7.822
 1668POPC   C4B23146   7.800  39.374   7.392
 1669POPC   NC323147  33.635  18.591   9.518
 1669POPC   PO423148  33.612  17.939   9.660
 1669POPC   GL123149  33.761  18.024   9.205
 1669POPC   GL223150  33.876  18.365   9.121
 1669POPC   C1A23151  33.634  18.113   8.748
 1669POPC   D2A23152  33.459  18.462   8.499
 1669POPC   C3A23153  33.492  18.418   8.052
 1669POPC   C4A23154  33.763  18.302   7.704
 1669POPC   C1B23155  34.085  18.339   8.735
 1669POPC   C2B23156  33.929  18.270   8.327
 1669POPC   C3B23157  34.170  18.428   8.001
 1669POPC   C4B23158  34.189  18.593   7.605
 1670POPC   NC323159  25.199  34.187   9.321
 1670POPC   PO423160  24.984  34.824   9.472
 1670POPC   GL123161  25.161  34.795   9.067
 1670POPC   GL223162  25.530  34.707   9.004
 1670POPC   C1A23163  25.217  34.743   8.625
 1670POPC   D2A23164  25.565  34.777   8.359
 1670POPC   C3A23165  25.325  34.689   8.017
 1670POPC   C4A23166  25.217  34.642   7.609
 1670POPC   C1B23167  25.513  34.343   8.705
 1670POPC   C2B23168  25.600  34.266   8.230
 1670POPC   C3B23169  25.516  34.268   7.744
 1670POPC   C4B23170  25.532  34.433   7.276
 1671POPC   NC323171   9.330  38.160   9.335
 1671POPC   PO423172   8.954  37.637   9.606
 1671POPC   GL123173   8.997  37.774   9.198
 1671POPC   GL223174   8.774  38.040   9.135
 1671POPC   C1A23175   8.947  37.643   8.776
 1671POPC   D2A23176   9.184  37.561   8.423
 1671POPC   C3A23177   9.012  37.356   8.122
 1671POPC   C4A23178   9.079  37.377   7.741
 1671POPC   C1B23179   8.595  37.987   8.717
 1671POPC   C2B23180   8.808  37.966   8.300
 1671POPC   C3B23181   9.128  37.851   7.965
 1671POPC   C4B23182   9.028  37.905   7.507
 1672POPC   NC323183  27.269  30.034   9.420
 1672POPC   PO423184  27.762  29.663   9.524
 1672POPC   GL123185  27.522  29.707   9.138
 1672POPC   GL223186  27.671  30.069   9.072
 1672POPC   C1A23187  27.500  29.790   8.688
 1672POPC   D2A23188  27.758  30.074   8.440
 1672POPC   C3A23189  27.601  29.986   8.033
 1672POPC   C4A23190  27.664  29.950   7.611
 1672POPC   C1B23191  27.377  30.284   8.770
 1672POPC   C2B23192  27.238  30.159   8.365
 1672POPC   C3B23193  27.247  30.333   7.953
 1672POPC   C4B23194  27.228  30.242   7.499
 1673POPC   NC323195  13.652  24.337   9.700
 1673POPC   PO423196  14.053  24.752   9.397
 1673POPC   GL123197  13.747  24.703   9.102
 1673POPC   GL223198  13.511  24.437   9.159
 1673POPC   C1A23199  13.741  24.639   8.667
 1673POPC   D2A23200  13.875  24.393   8.321
 1673POPC   C3A23201  13.821  24.637   7.953
 1673POPC   C4A23202  13.933  24.364   7.622
 1673POPC   C1B23203  13.335  24.344   8.772
 1673POPC   C2B23204  13.380  24.256   8.342
 1673POPC   C3B23205  13.475  24.275   7.886
 1673POPC   C4B23206  13.446  24.495   7.504
 1674POPC   NC323207  39.601   8.015   9.701
 1674POPC   PO423208  38.976   8.178   9.716
 1674POPC   GL123209  39.250   8.181   9.342
 1674POPC   GL223210  39.056   7.980   9.163
 1674POPC   C1A23211  39.416   8.264   8.891
 1674POPC   D2A23212  39.630   8.125   8.483
 1674POPC   C3A23213  39.425   8.296   8.091
 1674POPC   C4A23214  39.310   8.148   7.684
 1674POPC   C1B23215  38.901   8.182   8.808
 1674POPC   C2B23216  38.915   8.421   8.419
 1674POPC   C3B23217  38.898   8.200   8.025
 1674POPC   C4B23218  38.829   8.315   7.611
 1675POPC   NC323219   2.740   2.022   9.524
 1675POPC   PO423220   3.288   1.562   9.461
 1675POPC   GL123221   2.997   1.724   9.160
 1675POPC   GL223222   2.996   2.105   9.073
 1675POPC   C1A23223   2.821   1.747   8.751
 1675POPC   D2A23224   2.550   1.777   8.392
 1675POPC   C3A23225   2.691   1.988   8.002
 1675POPC   C4A23226   2.751   1.871   7.560
 1675POPC   C1B23227   2.635   2.241   8.775
 1675POPC   C2B23228   2.597   2.521   8.394
 1675POPC   C3B23229   2.489   2.479   7.952
 1675POPC   C4B23230   2.808   2.390   7.649
 1676POPC   NC323231  10.360  16.992   9.752
 1676POPC   PO423232  10.230  17.603   9.585
 1676POPC   GL123233  10.543  17.545   9.210
 1676POPC   GL223234  10.844  17.314   9.246
 1676POPC   C1A23235  10.517  17.456   8.772
 1676POPC   D2A23236  10.298  17.598   8.402
 1676POPC   C3A23237  10.430  17.468   8.030
 1676POPC   C4A23238  10.647  17.615   7.704
 1676POPC   C1B23239  10.946  17.191   8.809
 1676POPC   C2B23240  10.890  17.344   8.363
 1676POPC   C3B23241  10.815  17.161   7.935
 1676POPC   C4B23242  10.922  17.198   7.510
 1677POPC   NC323243  40.947  21.706   9.276
 1677POPC   PO423244  40.614  21.071   9.375
 1677POPC   GL123245  40.556  21.381   9.065
 1677POPC   GL223246  40.293  21.600   9.207
 1677POPC   C1A23247  40.827  21.473   8.687
 1677POPC   D2A23248  41.118  21.566   8.325
 1677POPC   C3A23249  41.075  21.179   8.098
 1677POPC   C4A23250  40.760  21.070   7.813
 1677POPC   C1B23251  40.268  21.701   8.764
 1677POPC   C2B23252  40.466  21.639   8.374
 1677POPC   C3B23253  40.696  21.632   8.025
 1677POPC   C4B23254  40.975  21.533   7.741
 1678POPC   NC323255  35.581  29.717   9.378
 1678POPC   PO423256  35.219  30.278   9.309
 1678POPC   GL123257  35.378  30.077   9.034
 1678POPC   GL223258  35.187  29.796   9.053
 1678POPC   C1A23259  35.221  30.116   8.631
 1678POPC   D2A23260  34.979  30.283   8.306
 1678POPC   C3A23261  35.151  30.150   7.938
 1678POPC   C4A23262  35.582  30.067   7.840
 1678POPC   C1B23263  35.500  29.697   8.721
 1678POPC   C2B23264  35.489  29.824   8.296
 1678POPC   C3B23265  35.285  29.634   7.971
 1678POPC   C4B23266  35.226  29.729   7.597
 1679POPC   NC323267  24.526   6.426   9.402
 1679POPC   PO423268  24.491   7.057   9.596
 1679POPC   GL123269  24.650   6.867   9.197
 1679POPC   GL223270  24.314   6.807   9.075
 1679POPC   C1A23271  24.814   6.692   8.801
 1679POPC   D2A23272  24.773   6.367   8.464
 1679POPC   C3A23273  24.649   6.577   8.077
 1679POPC   C4A23274  24.367   6.587   7.754
 1679POPC   C1B23275  24.093   6.827   8.653
 1679POPC   C2B23276  24.084   6.700   8.204
 1679POPC   C3B23277  24.026   6.952   7.828
 1679POPC   C4B23278  24.109   6.820   7.382
 1680POPC   NC323279  24.850   9.629   9.453
 1680POPC   PO423280  25.473   9.676   9.648
 1680POPC   GL123281  25.335   9.821   9.263
 1680POPC   GL223282  25.292   9.523   9.097
 1680POPC   C1A23283  25.466   9.919   8.834
 1680POPC   D2A23284  25.208   9.994   8.463
 1680POPC   C3A23285  25.363   9.863   8.069
 1680POPC   C4A23286  25.289   9.952   7.635
 1680POPC   C1B23287  25.006   9.603   8.771
 1680POPC   C2B23288  25.033   9.507   8.337
 1680POPC   C3B23289  24.956   9.609   7.910
 1680POPC   C4B23290  24.930   9.699   7.415
 1681POPC   NC323291  40.952  40.936   9.480
 1681POPC   PO423292  40.678  40.325   9.553
 1681POPC   GL123293  40.574  40.510   9.145
 1681POPC   GL223294  40.596  40.899   9.140
 1681POPC   C1A23295  40.823  40.631   8.760
 1681POPC   D2A23296  41.080  40.594   8.371
 1681POPC   C3A23297  40.844  40.671   7.980
 1681POPC   C4A23298  40.484  40.679   7.731
 1681POPC   C1B23299  40.546  41.101   8.755
 1681POPC   C2B23300  40.789  41.020   8.414
 1681POPC   C3B23301  40.862  41.180   8.044
 1681POPC   C4B23302  40.886  41.064   7.615
 1682POPC   NC323303  11.535   6.650   9.555
 1682POPC   PO423304  11.000   6.434   9.150
 1682POPC   GL123305  11.340   6.669   9.091
 1682POPC   GL223306  11.576   6.389   9.132
 1682POPC   C1A23307  11.540   6.894   8.735
 1682POPC   D2A23308  11.411   7.090   8.368
 1682POPC   C3A23309  11.322   6.882   7.988
 1682POPC   C4A23310  11.283   7.009   7.574
 1682POPC   C1B23311  11.433   6.400   8.689
 1682POPC   C2B23312  11.356   6.504   8.323
 1682POPC   C3B23313  11.191   6.347   7.959
 1682POPC   C4B23314  11.325   6.497   7.589
 1683POPC   NC323315   4.063  25.071   9.886
 1683POPC   PO423316   3.511  25.343   9.516
 1683POPC   GL123317   3.776  25.215   9.185
 1683POPC   GL223318   3.508  25.405   9.012
 1683POPC   C1A23319   3.775  25.012   8.777
 1683POPC   D2A23320   3.511  25.141   8.457
 1683POPC   C3A23321   3.642  24.979   8.066
 1683POPC   C4A23322   3.347  25.077   7.768
 1683POPC   C1B23323   3.815  25.542   8.749
 1683POPC   C2B23324   3.938  25.353   8.377
 1683POPC   C3B23325   3.809  25.449   7.948
 1683POPC   C4B23326   4.066  25.753   7.750
 1684POPC   NC323327  35.467   5.619   9.221
 1684POPC   PO423328  35.481   5.057   9.566
 1684POPC   GL123329  35.337   5.103   9.125
 1684POPC   GL223330  35.123   4.828   9.036
 1684POPC   C1A23331  35.489   5.197   8.712
 1684POPC   D2A23332  35.471   5.408   8.316
 1684POPC   C3A23333  35.513   5.128   8.028
 1684POPC   C4A23334  35.557   5.357   7.700
 1684POPC   C1B23335  34.914   4.907   8.708
 1684POPC   C2B23336  35.097   5.066   8.378
 1684POPC   C3B23337  35.055   4.925   8.026
 1684POPC   C4B23338  35.223   4.825   7.703
 1685POPC   NC323339  42.887  36.707   9.732
 1685POPC   PO423340  43.233  37.019   9.278
 1685POPC   GL123341  43.008  36.871   9.049
 1685POPC   GL223342  43.167  36.573   8.990
 1685POPC   C1A23343  43.127  36.970   8.643
 1685POPC   D2A23344  43.340  37.204   8.369
 1685POPC   C3A23345  43.098  37.065   8.032
 1685POPC   C4A23346  43.345  36.968   7.733
 1685POPC   C1B23347  43.449  36.545   8.671
 1685POPC   C2B23348  43.398  36.711   8.272
 1685POPC   C3B23349  43.263  36.514   7.928
 1685POPC   C4B23350  43.285  36.508   7.482
 1686POPC   NC323351  40.584   0.678   9.515
 1686POPC   PO423352  40.974   0.119   9.557
 1686POPC   GL123353  40.859   0.356   9.202
 1686POPC   GL223354  40.564   0.190   9.067
 1686POPC   C1A23355  40.922   0.384   8.750
 1686POPC   D2A23356  40.711   0.266   8.358
 1686POPC   C3A23357  40.924   0.455   8.039
 1686POPC   C4A23358  41.032   0.344   7.654
 1686POPC   C1B23359  40.368   0.413   8.701
 1686POPC   C2B23360  40.200   0.207   8.321
 1686POPC   C3B23361  40.373   0.159   7.928
 1686POPC   C4B23362  40.543   0.493   7.690
 1687POPC   NC323363  15.839  43.556   9.419
 1687POPC   PO423364  16.041  42.908   9.594
 1687POPC   GL123365  16.015  43.090   9.185
 1687POPC   GL223366  15.748  42.969   8.958
 1687POPC   C1A23367  16.092  43.333   8.798
 1687POPC   D2A23368  15.926  43.255   8.388
 1687POPC   C3A23369  16.122  43.354   7.991
 1687POPC   C4A23370  15.833  43.151   7.755
 1687POPC   C1B23371  16.133  42.800   8.775
 1687POPC   C2B23372  16.254  42.673   8.403
 1687POPC   C3B23373  16.090  42.814   8.061
 1687POPC   C4B23374  16.104  42.734   7.666
 1688POPC   NC323375  22.940  17.920   9.824
 1688POPC   PO423376  23.110  18.383   9.367
 1688POPC   GL123377  23.037  18.313   8.987
 1688POPC   GL223378  22.759  18.109   9.074
 1688POPC   C1A23379  23.004  18.089   8.597
 1688POPC   D2A23380  23.254  17.949   8.250
 1688POPC   C3A23381  23.038  18.040   7.867
 1688POPC   C4A23382  23.059  18.306   7.503
 1688POPC   C1B23383  22.597  18.383   8.723
 1688POPC   C2B23384  22.711  18.478   8.307
 1688POPC   C3B23385  22.627  18.520   7.865
 1688POPC   C4B23386  22.619  18.547   7.423
 1689POPC   NC323387  15.388   9.587   9.421
 1689POPC   PO423388  15.069  10.172   9.229
 1689POPC   GL123389  15.105   9.813   9.066
 1689POPC   GL223390  15.469   9.895   9.019
 1689POPC   C1A23391  15.119   9.760   8.644
 1689POPC   D2A23392  15.323   9.557   8.336
 1689POPC   C3A23393  15.230   9.702   7.969
 1689POPC   C4A23394  15.270   9.447   7.613
 1689POPC   C1B23395  15.658   9.869   8.618
 1689POPC   C2B23396  15.672   9.959   8.195
 1689POPC   C3B23397  15.686   9.901   7.783
 1689POPC   C4B23398  15.368   9.936   7.537
 1690POPC   NC323399  14.622   6.745   9.482
 1690POPC   PO423400  14.045   6.474   9.576
 1690POPC   GL123401  14.221   6.525   9.160
 1690POPC   GL223402  14.550   6.365   9.145
 1690POPC   C1A23403  14.406   6.732   8.776
 1690POPC   D2A23404  14.355   6.903   8.343
 1690POPC   C3A23405  14.191   6.745   7.983
 1690POPC   C4A23406  13.964   6.420   7.919
 1690POPC   C1B23407  14.502   6.212   8.749
 1690POPC   C2B23408  14.322   6.326   8.361
 1690POPC   C3B23409  14.531   6.340   7.993
 1690POPC   C4B23410  14.702   6.708   7.834
 1691POPC   NC323411   8.003   8.902   9.407
 1691POPC   PO423412   8.614   9.269   9.521
 1691POPC   GL123413   8.415   9.149   9.098
 1691POPC   GL223414   8.335   8.786   9.030
 1691POPC   C1A23415   8.249   9.145   8.636
 1691POPC   D2A23416   8.084   8.894   8.265
 1691POPC   C3A23417   7.994   9.044   7.884
 1691POPC   C4A23418   8.416   9.007   7.749
 1691POPC   C1B23419   7.988   8.685   8.708
 1691POPC   C2B23420   7.925   8.399   8.310
 1691POPC   C3B23421   7.742   8.544   7.905
 1691POPC   C4B23422   7.902   8.668   7.476
 1692POPC   NC323423   7.652  10.478   9.544
 1692POPC   PO423424   7.024  10.498   9.493
 1692POPC   GL123425   7.269  10.346   9.155
 1692POPC   GL223426   7.620  10.324   9.074
 1692POPC   C1A23427   7.240  10.495   8.753
 1692POPC   D2A23428   7.242  10.762   8.437
 1692POPC   C3A23429   7.174  10.520   8.085
 1692POPC   C4A23430   7.404  10.451   7.698
 1692POPC   C1B23431   7.733  10.470   8.669
 1692POPC   C2B23432   7.672  10.502   8.261
 1692POPC   C3B23433   7.856  10.313   7.933
 1692POPC   C4B23434   7.891  10.386   7.488
 1693POPC   NC323435  27.793  18.588   9.239
 1693POPC   PO423436  27.458  19.002   9.613
 1693POPC   GL123437  27.459  19.034   9.187
 1693POPC   GL223438  27.787  19.128   9.090
 1693POPC   C1A23439  27.499  19.033   8.717
 1693POPC   D2A23440  27.420  18.954   8.317
 1693POPC   C3A23441  27.352  19.340   8.116
 1693POPC   C4A23442  27.232  19.364   7.680
 1693POPC   C1B23443  27.920  19.329   8.727
 1693POPC   C2B23444  27.819  19.287   8.295
 1693POPC   C3B23445  27.786  19.250   7.830
 1693POPC   C4B23446  27.813  18.986   7.466
 1694POPC   NC323447  27.750  34.379   9.470
 1694POPC   PO423448  27.028  34.742   9.448
 1694POPC   GL123449  27.294  34.821   9.138
 1694POPC   GL223450  27.630  34.823   9.225
 1694POPC   C1A23451  27.427  34.639   8.778
 1694POPC   D2A23452  27.465  34.346   8.473
 1694POPC   C3A23453  27.292  34.518   8.128
 1694POPC   C4A23454  27.258  34.295   7.793
 1694POPC   C1B23455  27.923  34.730   8.884
 1694POPC   C2B23456  27.846  34.728   8.469
 1694POPC   C3B23457  27.777  34.548   8.100
 1694POPC   C4B23458  27.576  34.752   7.762
 1695POPC   NC323459  29.003   3.573   9.411
 1695POPC   PO423460  29.465   4.141   9.491
 1695POPC   GL123461  29.476   3.773   9.162
 1695POPC   GL223462  29.387   3.371   9.144
 1695POPC   C1A23463  29.234   3.730   8.770
 1695POPC   D2A23464  29.149   3.517   8.415
 1695POPC   C3A23465  29.352   3.696   8.105
 1695POPC   C4A23466  29.400   3.740   7.654
 1695POPC   C1B23467  29.452   3.076   8.789
 1695POPC   C2B23468  29.556   3.212   8.370
 1695POPC   C3B23469  29.368   3.202   8.001
 1695POPC   C4B23470  29.018   3.445   7.805
 1696POPC   NC323471  15.759  31.973   9.583
 1696POPC   PO423472  15.912  31.315   9.492
 1696POPC   GL123473  15.914  31.618   9.186
 1696POPC   GL223474  15.697  31.385   9.030
 1696POPC   C1A23475  16.139  31.593   8.792
 1696POPC   D2A23476  16.104  31.386   8.384
 1696POPC   C3A23477  16.085  31.702   8.043
 1696POPC   C4A23478  16.229  31.800   7.642
 1696POPC   C1B23479  15.644  31.627   8.703
 1696POPC   C2B23480  15.630  31.548   8.305
 1696POPC   C3B23481  15.683  31.435   7.897
 1696POPC   C4B23482  15.760  31.653   7.540
 1697POPC   NC323483   8.225  14.578   9.525
 1697POPC   PO423484   8.580  13.922   9.412
 1697POPC   GL123485   8.487  14.134   9.064
 1697POPC   GL223486   8.247  14.416   9.040
 1697POPC   C1A23487   8.327  14.101   8.652
 1697POPC   D2A23488   8.061  14.397   8.466
 1697POPC   C3A23489   8.132  14.493   8.040
 1697POPC   C4A23490   8.232  14.361   7.614
 1697POPC   C1B23491   8.287  14.773   8.745
 1697POPC   C2B23492   8.277  14.937   8.324
 1697POPC   C3B23493   8.548  14.830   7.997
 1697POPC   C4B23494   8.600  14.725   7.577
 1698POPC   NC323495   2.595  11.790   9.429
 1698POPC   PO423496   2.453  12.385   9.459
 1698POPC   GL123497   2.670  12.219   9.121
 1698POPC   GL223498   2.962  11.987   9.145
 1698POPC   C1A23499   2.850  12.279   8.731
 1698POPC   D2A23500   2.785  12.128   8.326
 1698POPC   C3A23501   2.454  12.079   8.049
 1698POPC   C4A23502   2.691  12.192   7.687
 1698POPC   C1B23503   3.201  11.899   8.791
 1698POPC   C2B23504   3.105  11.762   8.382
 1698POPC   C3B23505   3.031  11.878   7.924
 1698POPC   C4B23506   3.076  11.871   7.458
 1699POPC   NC323507  31.394   2.467   9.736
 1699POPC   PO423508  31.259   1.859   9.597
 1699POPC   GL123509  31.387   1.998   9.161
 1699POPC   GL223510  31.521   1.672   9.033
 1699POPC   C1A23511  31.624   2.083   8.751
 1699POPC   D2A23512  31.731   1.925   8.326
 1699POPC   C3A23513  31.643   2.027   7.908
 1699POPC   C4A23514  31.220   2.066   7.857
 1699POPC   C1B23515  31.331   1.504   8.681
 1699POPC   C2B23516  31.286   1.665   8.272
 1699POPC   C3B23517  31.385   1.553   7.875
 1699POPC   C4B23518  31.338   1.735   7.474
 1700POPC   NC323519  35.164  39.341   9.742
 1700POPC   PO423520  35.341  38.793   9.523
 1700POPC   GL123521  35.255  39.193   9.279
 1700POPC   GL223522  35.570  39.324   9.226
 1700POPC   C1A23523  35.179  39.247   8.851
 1700POPC   D2A23524  35.180  39.076   8.431
 1700POPC   C3A23525  35.247  39.380   8.087
 1700POPC   C4A23526  35.198  39.251   7.645
 1700POPC   C1B23527  35.674  39.398   8.791
 1700POPC   C2B23528  35.672  39.294   8.358
 1700POPC   C3B23529  35.732  39.326   7.892
 1700POPC   C4B23530  35.670  39.426   7.447
 1701POPC   NC323531  10.007  15.921   9.574
 1701POPC   PO423532   9.446  16.232   9.434
 1701POPC   GL123533   9.686  15.983   9.183
 1701POPC   GL223534   9.419  15.967   8.964
 1701POPC   C1A23535   9.922  15.877   8.848
 1701POPC   D2A23536   9.778  15.888   8.404
 1701POPC   C3A23537   9.952  16.091   8.037
 1701POPC   C4A23538   9.786  16.298   7.664
 1701POPC   C1B23539   9.294  15.655   8.671
 1701POPC   C2B23540   9.383  15.564   8.275
 1701POPC   C3B23541   9.484  15.807   7.930
 1701POPC   C4B23542   9.439  15.634   7.540
 1702POPC   NC323543  11.847  30.618   9.334
 1702POPC   PO423544  11.184  30.609   9.542
 1702POPC   GL123545  11.277  30.516   9.150
 1702POPC   GL223546  11.326  30.853   9.081
 1702POPC   C1A23547  11.130  30.519   8.732
 1702POPC   D2A23548  11.278  30.581   8.323
 1702POPC   C3A23549  10.993  30.382   8.042
 1702POPC   C4A23550  11.006  30.461   7.631
 1702POPC   C1B23551  11.457  30.973   8.673
 1702POPC   C2B23552  11.605  30.991   8.254
 1702POPC   C3B23553  11.427  31.139   7.869
 1702POPC   C4B23554  11.291  31.215   7.429
 1703POPC   NC323555  14.658  22.109   9.609
 1703POPC   PO423556  14.151  22.552   9.484
 1703POPC   GL123557  14.406  22.255   9.195
 1703POPC   GL223558  14.567  21.890   9.167
 1703POPC   C1A23559  14.536  22.221   8.791
 1703POPC   D2A23560  14.514  22.543   8.500
 1703POPC   C3A23561  14.342  22.522   8.103
 1703POPC   C4A23562  14.515  22.385   7.729
 1703POPC   C1B23563  14.581  21.659   8.791
 1703POPC   C2B23564  14.392  21.770   8.429
 1703POPC   C3B23565  14.409  22.007   8.085
 1703POPC   C4B23566  14.571  21.880   7.712
 1704POPC   NC323567  32.473  17.003   9.564
 1704POPC   PO423568  32.029  17.560   9.468
 1704POPC   GL123569  32.168  17.596   9.084
 1704POPC   GL223570  32.445  17.359   9.177
 1704POPC   C1A23571  32.052  17.674   8.662
 1704POPC   D2A23572  32.302  17.683   8.312
 1704POPC   C3A23573  32.226  17.557   7.881
 1704POPC   C4A23574  31.989  17.368   7.549
 1704POPC   C1B23575  32.547  17.461   8.753
 1704POPC   C2B23576  32.485  17.206   8.394
 1704POPC   C3B23577  32.639  17.096   8.010
 1704POPC   C4B23578  32.666  17.364   7.693
 1705POPC   NC323579  13.374  37.503   9.453
 1705POPC   PO423580  13.077  38.046   9.333
 1705POPC   GL123581  13.459  37.842   9.081
 1705POPC   GL223582  13.767  37.610   9.155
 1705POPC   C1A23583  13.468  37.508   8.753
 1705POPC   D2A23584  13.533  37.713   8.384
 1705POPC   C3A23585  13.552  37.545   7.988
 1705POPC   C4A23586  13.389  37.855   7.690
 1705POPC   C1B23587  13.992  37.461   8.786
 1705POPC   C2B23588  14.015  37.589   8.360
 1705POPC   C3B23589  14.029  37.774   7.948
 1705POPC   C4B23590  13.847  37.632   7.561
 1706POPC   NC323591  31.703  12.459   9.848
 1706POPC   PO423592  31.701  13.072   9.516
 1706POPC   GL123593  31.574  13.235   9.120
 1706POPC   GL223594  31.249  13.133   9.060
 1706POPC   C1A23595  31.631  13.097   8.689
 1706POPC   D2A23596  31.278  13.031   8.428
 1706POPC   C3A23597  31.524  12.979   8.088
 1706POPC   C4A23598  31.566  13.029   7.673
 1706POPC   C1B23599  31.334  12.738   8.860
 1706POPC   C2B23600  31.565  12.604   8.475
 1706POPC   C3B23601  31.549  12.467   8.036
 1706POPC   C4B23602  31.678  12.517   7.610
 1707POPC   NC323603  10.897  38.208   9.412
 1707POPC   PO423604  11.539  38.350   9.602
 1707POPC   GL123605  11.376  38.332   9.183
 1707POPC   GL223606  11.119  38.587   9.127
 1707POPC   C1A23607  11.299  38.234   8.739
 1707POPC   D2A23608  11.428  38.498   8.376
 1707POPC   C3A23609  11.522  38.381   7.959
 1707POPC   C4A23610  11.746  38.331   7.571
 1707POPC   C1B23611  11.243  38.823   8.760
 1707POPC   C2B23612  11.074  38.865   8.352
 1707POPC   C3B23613  11.032  38.580   8.005
 1707POPC   C4B23614  11.190  38.455   7.574
 1708POPC   NC323615   6.232  39.007   9.508
 1708POPC   PO423616   5.842  39.382   9.967
 1708POPC   GL123617   5.955  39.427   9.431
 1708POPC   GL223618   5.776  39.198   9.199
 1708POPC   C1A23619   6.126  39.371   8.914
 1708POPC   D2A23620   5.878  39.434   8.491
 1708POPC   C3A23621   5.932  39.441   8.028
 1708POPC   C4A23622   5.666  39.487   7.677
 1708POPC   C1B23623   5.807  38.971   8.804
 1708POPC   C2B23624   5.633  38.971   8.389
 1708POPC   C3B23625   5.650  39.020   7.930
 1708POPC   C4B23626   5.909  39.006   7.520
 1709POPC   NC323627  27.069  16.245   9.334
 1709POPC   PO423628  27.656  16.571   9.478
 1709POPC   GL123629  27.763  16.576   9.126
 1709POPC   GL223630  27.481  16.395   9.023
 1709POPC   C1A23631  27.792  16.762   8.761
 1709POPC   D2A23632  27.656  16.896   8.361
 1709POPC   C3A23633  27.845  16.784   7.998
 1709POPC   C4A23634  27.814  16.778   7.535
 1709POPC   C1B23635  27.846  16.234   8.786
 1709POPC   C2B23636  27.895  16.412   8.418
 1709POPC   C3B23637  27.914  16.257   8.060
 1709POPC   C4B23638  27.703  16.287   7.702
 1710POPC   NC323639  22.221   8.400   9.706
 1710POPC   PO423640  22.119   7.962   9.247
 1710POPC   GL123641  22.040   8.308   8.992
 1710POPC   GL223642  21.793   8.557   8.947
 1710POPC   C1A23643  21.981   8.323   8.538
 1710POPC   D2A23644  21.803   8.034   8.305
 1710POPC   C3A23645  22.072   7.848   8.084
 1710POPC   C4A23646  22.215   8.020   7.718
 1710POPC   C1B23647  22.250   8.686   8.746
 1710POPC   C2B23648  22.388   8.631   8.328
 1710POPC   C3B23649  22.120   8.404   8.045
 1710POPC   C4B23650  21.989   8.521   7.664
 1711POPC   NC323651  33.836  37.365   9.405
 1711POPC   PO423652  33.991  36.744   9.639
 1711POPC   GL123653  33.888  36.858   9.200
 1711POPC   GL223654  34.179  36.769   8.988
 1711POPC   C1A23655  33.866  37.087   8.767
 1711POPC   D2A23656  34.126  37.015   8.379
 1711POPC   C3A23657  33.896  36.898   8.001
 1711POPC   C4A23658  33.580  37.043   7.686
 1711POPC   C1B23659  34.061  36.562   8.628
 1711POPC   C2B23660  34.156  36.372   8.236
 1711POPC   C3B23661  33.818  36.392   7.955
 1711POPC   C4B23662  33.705  36.568   7.575
 1712POPC   NC323663   2.884  20.729   9.596
 1712POPC   PO423664   2.759  20.137   9.306
 1712POPC   GL123665   2.746  20.567   9.125
 1712POPC   GL223666   3.005  20.848   9.120
 1712POPC   C1A23667   2.527  20.644   8.782
 1712POPC   D2A23668   2.596  20.362   8.463
 1712POPC   C3A23669   2.618  20.478   8.070
 1712POPC   C4A23670   2.937  20.484   7.792
 1712POPC   C1B23671   2.958  20.894   8.660
 1712POPC   C2B23672   2.999  20.793   8.217
 1712POPC   C3B23673   2.840  20.975   7.822
 1712POPC   C4B23674   2.917  20.796   7.414
 1713POPC   NC323675  20.259   2.762   9.432
 1713POPC   PO423676  20.834   2.810   9.596
 1713POPC   GL123677  20.822   2.688   9.169
 1713POPC   GL223678  21.118   2.506   9.090
 1713POPC   C1A23679  20.728   2.857   8.756
 1713POPC   D2A23680  20.762   3.117   8.363
 1713POPC   C3A23681  20.815   2.941   7.967
 1713POPC   C4A23682  20.567   2.938   7.607
 1713POPC   C1B23683  20.967   2.389   8.714
 1713POPC   C2B23684  20.925   2.614   8.351
 1713POPC   C3B23685  20.861   2.442   7.960
 1713POPC   C4B23686  20.691   2.454   7.570
 1714POPC   NC323687   6.571  44.721  10.204
 1714POPC   PO423688   6.898  44.700   9.611
 1714POPC   GL123689   6.764  44.766   9.198
 1714POPC   GL223690   7.085  44.919   9.157
 1714POPC   C1A23691   6.528  44.832   8.791
 1714POPC   D2A23692   6.289  44.731   8.396
 1714POPC   C3A23693   6.390  44.827   7.955
 1714POPC   C4A23694   6.346  44.447   7.681
 1714POPC   C1B23695   7.051  44.649   8.787
 1714POPC   C2B23696   6.830  44.589   8.395
 1714POPC   C3B23697   6.782  44.475   7.971
 1714POPC   C4B23698   6.766  44.732   7.581
 1715POPC   NC323699  24.008   6.776   9.529
 1715POPC   PO423700  23.347   6.773   9.513
 1715POPC   GL123701  23.644   6.856   9.149
 1715POPC   GL223702  23.841   6.586   9.027
 1715POPC   C1A23703  23.565   6.869   8.693
 1715POPC   D2A23704  23.685   7.024   8.278
 1715POPC   C3A23705  23.446   6.904   7.919
 1715POPC   C4A23706  23.614   6.922   7.533
 1715POPC   C1B23707  23.681   6.368   8.654
 1715POPC   C2B23708  23.573   6.511   8.230
 1715POPC   C3B23709  23.771   6.503   7.808
 1715POPC   C4B23710  23.757   6.468   7.332
 1716POPC   NC323711  44.343  15.964   9.573
 1716POPC   PO423712  44.851  16.373   9.490
 1716POPC   GL123713  44.523  16.250   9.178
 1716POPC   GL223714  44.510  15.862   9.097
 1716POPC   C1A23715  44.618  16.210   8.743
 1716POPC   D2A23716  44.731  15.911   8.446
 1716POPC   C3A23717  44.717  16.196   8.119
 1716POPC   C4A23718  44.688  16.141   7.710
 1716POPC   C1B23719  44.366  15.601   8.745
 1716POPC   C2B23720  44.424  15.517   8.315
 1716POPC   C3B23721  44.553  15.731   7.964
 1716POPC   C4B23722  44.497  15.723   7.489
 1717POPC   NC323723  10.539   4.836   9.541
 1717POPC   PO423724  10.552   4.125   9.505
 1717POPC   GL123725  10.490   4.221   9.113
 1717POPC   GL223726  10.706   4.480   9.150
 1717POPC   C1A23727  10.345   4.163   8.698
 1717POPC   D2A23728  10.535   4.301   8.332
 1717POPC   C3A23729  10.393   4.081   8.037
 1717POPC   C4A23730  10.527   4.229   7.695
 1717POPC   C1B23731  10.745   4.532   8.731
 1717POPC   C2B23732  10.735   4.809   8.389
 1717POPC   C3B23733  10.522   4.747   7.987
 1717POPC   C4B23734  10.639   4.676   7.518
 1718POPC   NC323735  38.292   7.607   9.416
 1718POPC   PO423736  38.279   6.981   9.373
 1718POPC   GL123737  38.296   7.291   9.011
 1718POPC   GL223738  38.581   7.494   9.001
 1718POPC   C1A23739  38.323   7.501   8.562
 1718POPC   D2A23740  38.598   7.468   8.222
 1718POPC   C3A23741  38.366   7.446   7.844
 1718POPC   C4A23742  38.292   7.350   7.412
 1718POPC   C1B23743  38.684   7.169   8.688
 1718POPC   C2B23744  38.852   6.987   8.312
 1718POPC   C3B23745  38.994   7.251   7.991
 1718POPC   C4B23746  38.791   7.292   7.632
 1719POPC   NC323747  17.229  10.603   9.426
 1719POPC   PO423748  17.853  10.710   9.541
 1719POPC   GL123749  17.701  10.428   9.219
 1719POPC   GL223750  17.913  10.176   9.136
 1719POPC   C1A23751  17.557  10.393   8.785
 1719POPC   D2A23752  17.591  10.644   8.386
 1719POPC   C3A23753  17.426  10.593   7.974
 1719POPC   C4A23754  17.033  10.490   7.887
 1719POPC   C1B23755  18.019  10.089   8.740
 1719POPC   C2B23756  17.797  10.170   8.378
 1719POPC   C3B23757  17.849  10.134   7.965
 1719POPC   C4B23758  17.581  10.243   7.614
 1720POPC   NC323759  24.944  29.164   9.522
 1720POPC   PO423760  25.443  28.833   9.743
 1720POPC   GL123761  25.283  28.909   9.254
 1720POPC   GL223762  25.177  29.272   9.093
 1720POPC   C1A23763  25.341  28.911   8.773
 1720POPC   D2A23764  25.182  28.938   8.330
 1720POPC   C3A23765  25.418  29.105   7.953
 1720POPC   C4A23766  25.572  28.743   7.684
 1720POPC   C1B23767  25.300  29.433   8.688
 1720POPC   C2B23768  25.128  29.446   8.276
 1720POPC   C3B23769  24.906  29.195   7.958
 1720POPC   C4B23770  25.064  28.873   7.668
 1721POPC   NC323771   8.583  38.837   9.349
 1721POPC   PO423772   9.171  38.577   9.393
 1721POPC   GL123773   8.882  38.531   9.060
 1721POPC   GL223774   8.996  38.820   8.984
 1721POPC   C1A23775   8.790  38.453   8.614
 1721POPC   D2A23776   9.162  38.319   8.356
 1721POPC   C3A23777   9.041  38.349   7.944
 1721POPC   C4A23778   9.179  38.403   7.555
 1721POPC   C1B23779   9.184  38.765   8.600
 1721POPC   C2B23780   8.992  38.818   8.203
 1721POPC   C3B23781   9.131  38.867   7.781
 1721POPC   C4B23782   9.035  38.839   7.339
 1722POPC   NC323783  31.123  33.631   9.547
 1722POPC   PO423784  31.546  34.127   9.453
 1722POPC   GL123785  31.313  33.934   9.155
 1722POPC   GL223786  31.556  34.082   8.913
 1722POPC   C1A23787  31.174  33.795   8.752
 1722POPC   D2A23788  31.257  33.878   8.326
 1722POPC   C3A23789  31.177  33.531   8.089
 1722POPC   C4A23790  31.101  33.642   7.697
 1722POPC   C1B23791  31.673  33.701   8.658
 1722POPC   C2B23792  31.667  33.567   8.214
 1722POPC   C3B23793  31.619  33.668   7.759
 1722POPC   C4B23794  31.863  33.649   7.344
 1723POPC   NC323795  31.524   3.214   9.423
 1723POPC   PO423796  31.079   3.725   9.492
 1723POPC   GL123797  31.304   3.564   9.097
 1723POPC   GL223798  31.689   3.573   9.048
 1723POPC   C1A23799  31.374   3.433   8.681
 1723POPC   D2A23800  31.426   3.313   8.256
 1723POPC   C3A23801  31.506   3.653   7.998
 1723POPC   C4A23802  31.297   3.912   7.779
 1723POPC   C1B23803  31.885   3.280   8.707
 1723POPC   C2B23804  31.693   2.923   8.449
 1723POPC   C3B23805  31.678   2.931   7.996
 1723POPC   C4B23806  31.693   3.294   7.716
 1724POPC   NC323807  26.590  29.420   9.485
 1724POPC   PO423808  27.116  28.901   9.585
 1724POPC   GL123809  26.943  29.143   9.205
 1724POPC   GL223810  26.586  29.188   9.045
 1724POPC   C1A23811  27.006  29.077   8.763
 1724POPC   D2A23812  27.243  29.078   8.393
 1724POPC   C3A23813  27.070  28.962   7.989
 1724POPC   C4A23814  26.781  29.112   7.677
 1724POPC   C1B23815  26.523  29.121   8.619
 1724POPC   C2B23816  26.634  29.063   8.235
 1724POPC   C3B23817  26.505  28.771   7.930
 1724POPC   C4B23818  26.471  28.777   7.460
 1725POPC   NC323819  16.850  35.601   9.606
 1725POPC   PO423820  16.336  35.272   9.353
 1725POPC   GL123821  16.446  35.316   9.004
 1725POPC   GL223822  16.780  35.466   9.073
 1725POPC   C1A23823  16.645  35.076   8.705
 1725POPC   D2A23824  16.959  35.071   8.416
 1725POPC   C3A23825  16.726  35.184   8.078
 1725POPC   C4A23826  16.707  35.034   7.709
 1725POPC   C1B23827  16.622  35.661   8.682
 1725POPC   C2B23828  16.709  35.717   8.279
 1725POPC   C3B23829  16.447  35.727   7.958
 1725POPC   C4B23830  16.716  35.560   7.701
 1726POPC   NC323831  27.526   2.467   9.580
 1726POPC   PO423832  27.638   3.074   9.503
 1726POPC   GL123833  27.451   2.848   9.196
 1726POPC   GL223834  27.787   2.712   9.154
 1726POPC   C1A23835  27.454   2.732   8.751
 1726POPC   D2A23836  27.320   2.852   8.344
 1726POPC   C3A23837  27.535   2.711   7.989
 1726POPC   C4A23838  27.487   2.642   7.578
 1726POPC   C1B23839  27.852   3.039   8.834
 1726POPC   C2B23840  27.827   2.961   8.388
 1726POPC   C3B23841  27.791   3.138   7.970
 1726POPC   C4B23842  27.801   3.051   7.533
 1727POPC   NC323843  13.982   4.494   9.489
 1727POPC   PO423844  13.224   4.361   9.546
 1727POPC   GL123845  13.458   4.408   9.150
 1727POPC   GL223846  13.766   4.564   9.044
 1727POPC   C1A23847  13.510   4.248   8.715
 1727POPC   D2A23848  13.412   4.004   8.354
 1727POPC   C3A23849  13.517   4.130   7.951
 1727POPC   C4A23850  13.384   4.191   7.527
 1727POPC   C1B23851  13.989   4.422   8.674
 1727POPC   C2B23852  13.868   4.291   8.317
 1727POPC   C3B23853  14.091   4.343   7.992
 1727POPC   C4B23854  13.886   4.259   7.618
 1728POPC   NC323855  19.976  32.924   9.584
 1728POPC   PO423856  19.620  33.378   9.292
 1728POPC   GL123857  19.837  33.086   9.060
 1728POPC   GL223858  19.728  32.775   9.134
 1728POPC   C1A23859  20.089  33.109   8.694
 1728POPC   D2A23860  20.030  33.363   8.339
 1728POPC   C3A23861  19.813  33.121   8.063
 1728POPC   C4A23862  19.780  33.145   7.655
 1728POPC   C1B23863  19.926  32.608   8.753
 1728POPC   C2B23864  20.030  32.723   8.325
 1728POPC   C3B23865  20.115  32.720   7.874
 1728POPC   C4B23866  19.996  32.743   7.432
 1729POPC   NC323867  41.761  24.162   9.575
 1729POPC   PO423868  41.614  24.778   9.428
 1729POPC   GL123869  41.567  24.649   9.076
 1729POPC   GL223870  41.478  24.296   9.172
 1729POPC   C1A23871  41.535  24.836   8.672
 1729POPC   D2A23872  41.354  24.670   8.323
 1729POPC   C3A23873  41.589  24.597   7.982
 1729POPC   C4A23874  41.362  24.416   7.659
 1729POPC   C1B23875  41.457  24.310   8.738
 1729POPC   C2B23876  41.686  24.289   8.417
 1729POPC   C3B23877  41.500  24.100   8.073
 1729POPC   C4B23878  41.706  24.073   7.706
 1730POPC   NC323879  15.430   3.715   9.422
 1730POPC   PO423880  14.780   3.666   9.492
 1730POPC   GL123881  15.011   3.561   9.105
 1730POPC   GL223882  14.869   3.306   8.896
 1730POPC   C1A23883  15.393   3.497   8.830
 1730POPC   D2A23884  15.468   3.368   8.434
 1730POPC   C3A23885  15.367   3.619   8.104
 1730POPC   C4A23886  15.328   3.555   7.728
 1730POPC   C1B23887  14.996   3.577   8.539
 1730POPC   C2B23888  14.994   3.970   8.330
 1730POPC   C3B23889  14.969   3.909   7.923
 1730POPC   C4B23890  14.826   3.476   7.915
 1731POPC   NC323891  42.848  20.684   9.675
 1731POPC   PO423892  43.230  20.122   9.506
 1731POPC   GL123893  42.987  20.430   9.242
 1731POPC   GL223894  43.213  20.737   9.195
 1731POPC   C1A23895  42.874  20.603   8.831
 1731POPC   D2A23896  43.176  20.648   8.477
 1731POPC   C3A23897  43.032  20.635   8.054
 1731POPC   C4A23898  43.044  20.501   7.621
 1731POPC   C1B23899  43.148  21.039   8.821
 1731POPC   C2B23900  43.032  21.155   8.428
 1731POPC   C3B23901  43.222  21.137   8.061
 1731POPC   C4B23902  43.220  20.965   7.674
 1732POPC   NC323903  27.138  18.653   9.468
 1732POPC   PO423904  26.667  18.319   9.746
 1732POPC   GL123905  26.815  18.325   9.253
 1732POPC   GL223906  26.696  18.616   9.142
 1732POPC   C1A23907  26.812  18.027   8.823
 1732POPC   D2A23908  26.707  18.134   8.375
 1732POPC   C3A23909  27.010  18.008   8.038
 1732POPC   C4A23910  27.027  18.023   7.594
 1732POPC   C1B23911  26.806  18.511   8.746
 1732POPC   C2B23912  27.053  18.629   8.453
 1732POPC   C3B23913  26.945  18.511   8.105
 1732POPC   C4B23914  26.827  18.443   7.751
 1733POPC   NC323915  14.813  31.652   9.547
 1733POPC   PO423916  14.149  31.392   9.526
 1733POPC   GL123917  14.312  31.378   9.156
 1733POPC   GL223918  14.039  31.118   9.091
 1733POPC   C1A23919  14.499  31.582   8.797
 1733POPC   D2A23920  14.299  31.802   8.456
 1733POPC   C3A23921  14.418  31.799   8.014
 1733POPC   C4A23922  14.543  31.511   7.713
 1733POPC   C1B23923  14.364  31.030   8.798
 1733POPC   C2B23924  14.507  31.206   8.434
 1733POPC   C3B23925  14.279  31.254   8.057
 1733POPC   C4B23926  14.274  31.042   7.634
 1734POPC   NC323927  22.938   6.955   9.442
 1734POPC   PO423928  22.999   6.294   9.374
 1734POPC   GL123929  22.826   6.588   9.089
 1734POPC   GL223930  23.171   6.720   9.039
 1734POPC   C1A23931  22.832   6.849   8.696
 1734POPC   D2A23932  23.164   6.870   8.361
 1734POPC   C3A23933  22.936   6.775   7.984
 1734POPC   C4A23934  22.515   6.686   7.910
 1734POPC   C1B23935  23.170   6.443   8.708
 1734POPC   C2B23936  22.901   6.424   8.362
 1734POPC   C3B23937  23.097   6.308   7.991
 1734POPC   C4B23938  23.310   6.407   7.618
 1735POPC   NC323939   9.178  40.224   9.543
 1735POPC   PO423940   8.581  40.192   9.378
 1735POPC   GL123941   8.922  40.135   9.093
 1735POPC   GL223942   9.120  39.831   9.050
 1735POPC   C1A23943   8.967  40.155   8.672
 1735POPC   D2A23944   9.098  40.254   8.321
 1735POPC   C3A23945   9.131  39.876   8.092
 1735POPC   C4A23946   9.042  39.898   7.665
 1735POPC   C1B23947   8.933  39.640   8.707
 1735POPC   C2B23948   8.701  39.710   8.329
 1735POPC   C3B23949   8.671  39.610   7.889
 1735POPC   C4B23950   8.641  39.614   7.427
 1736POPC   NC323951  39.590  24.903   9.565
 1736POPC   PO423952  39.200  25.448   9.451
 1736POPC   GL123953  39.223  25.079   9.227
 1736POPC   GL223954  39.548  25.105   9.104
 1736POPC   C1A23955  39.030  25.158   8.835
 1736POPC   D2A23956  39.203  25.338   8.451
 1736POPC   C3A23957  39.002  25.264   8.069
 1736POPC   C4A23958  39.045  24.994   7.704
 1736POPC   C1B23959  39.548  25.480   8.821
 1736POPC   C2B23960  39.622  25.639   8.391
 1736POPC   C3B23961  39.504  25.444   7.989
 1736POPC   C4B23962  39.547  25.601   7.581
 1737POPC   NC323963  10.697  19.073   9.413
 1737POPC   PO423964  10.079  19.269   9.620
 1737POPC   GL123965  10.245  19.313   9.164
 1737POPC   GL223966  10.600  19.364   9.018
 1737POPC   C1A23967  10.305  19.054   8.769
 1737POPC   D2A23968  10.539  18.916   8.411
 1737POPC   C3A23969  10.385  19.059   8.038
 1737POPC   C4A23970  10.456  18.956   7.637
 1737POPC   C1B23971  10.883  19.497   8.674
 1737POPC   C2B23972  10.814  19.345   8.257
 1737POPC   C3B23973  10.726  19.397   7.830
 1737POPC   C4B23974  10.617  19.357   7.374
 1738POPC   NC323975  23.263  32.021   9.309
 1738POPC   PO423976  22.861  32.501   9.432
 1738POPC   GL123977  22.930  32.365   9.063
 1738POPC   GL223978  22.763  32.063   9.164
 1738POPC   C1A23979  22.753  32.554   8.703
 1738POPC   D2A23980  22.566  32.411   8.353
 1738POPC   C3A23981  22.883  32.432   8.086
 1738POPC   C4A23982  23.126  32.218   7.819
 1738POPC   C1B23983  22.586  32.059   8.775
 1738POPC   C2B23984  22.714  31.905   8.390
 1738POPC   C3B23985  22.581  32.021   8.005
 1738POPC   C4B23986  22.665  32.099   7.596
 1739POPC   NC323987   7.701  36.190   9.581
 1739POPC   PO423988   7.018  36.212   9.505
 1739POPC   GL123989   7.281  36.100   9.174
 1739POPC   GL223990   7.584  36.249   9.073
 1739POPC   C1A23991   7.185  36.034   8.733
 1739POPC   D2A23992   7.463  36.105   8.392
 1739POPC   C3A23993   7.339  35.845   8.035
 1739POPC   C4A23994   7.405  35.771   7.570
 1739POPC   C1B23995   7.284  36.521   8.843
 1739POPC   C2B23996   7.129  36.522   8.447
 1739POPC   C3B23997   7.234  36.375   8.037
 1739POPC   C4B23998   7.603  36.203   7.812
 1740POPC   NC323999  43.333  21.557   9.579
 1740POPC   PO424000  42.928  21.075   9.474
 1740POPC   GL124001  43.063  21.358   9.197
 1740POPC   GL224002  43.414  21.212   9.213
 1740POPC   C1A24003  42.909  21.529   8.793
 1740POPC   D2A24004  42.886  21.699   8.361
 1740POPC   C3A24005  42.815  21.420   8.003
 1740POPC   C4A24006  42.907  21.346   7.531
 1740POPC   C1B24007  43.443  21.505   8.886
 1740POPC   C2B24008  43.373  21.522   8.477
 1740POPC   C3B24009  43.334  21.645   8.079
 1740POPC   C4B24010  43.386  21.450   7.689
 1741POPC   NC324011  10.949  22.440   9.525
 1741POPC   PO424012  10.472  22.145   9.506
 1741POPC   GL124013  10.700  22.278   9.119
 1741POPC   GL224014  10.755  21.955   9.054
 1741POPC   C1A24015  10.714  22.294   8.658
 1741POPC   D2A24016  10.568  22.126   8.260
 1741POPC   C3A24017  10.570  22.317   7.852
 1741POPC   C4A24018  10.316  22.495   7.482
 1741POPC   C1B24019  10.656  21.751   8.687
 1741POPC   C2B24020  10.763  21.677   8.265
 1741POPC   C3B24021  10.561  21.789   7.842
 1741POPC   C4B24022  10.571  22.036   7.434
 1742POPC   NC324023  13.763  19.416   9.614
 1742POPC   PO424024  14.010  18.820   9.783
 1742POPC   GL124025  13.837  18.948   9.316
 1742POPC   GL224026  13.769  19.303   9.127
 1742POPC   C1A24027  13.655  18.902   8.867
 1742POPC   D2A24028  13.300  18.937   8.571
 1742POPC   C3A24029  13.424  19.184   8.215
 1742POPC   C4A24030  13.608  19.054   7.840
 1742POPC   C1B24031  14.009  19.292   8.730
 1742POPC   C2B24032  13.954  19.076   8.341
 1742POPC   C3B24033  14.027  19.281   7.949
 1742POPC   C4B24034  14.333  19.299   7.678
 1743POPC   NC324035  20.262  15.964   9.516
 1743POPC   PO424036  20.824  16.282   9.229
 1743POPC   GL124037  20.846  15.947   9.027
 1743POPC   GL224038  20.539  15.778   9.125
 1743POPC   C1A24039  20.801  15.882   8.608
 1743POPC   D2A24040  20.980  15.655   8.281
 1743POPC   C3A24041  20.824  15.891   7.928
 1743POPC   C4A24042  20.651  16.318   7.940
 1743POPC   C1B24043  20.364  16.076   8.819
 1743POPC   C2B24044  20.352  16.134   8.351
 1743POPC   C3B24045  20.233  16.013   7.932
 1743POPC   C4B24046  20.401  15.727   7.655
 1744POPC   NC324047   1.594  25.250   9.505
 1744POPC   PO424048   1.995  25.783   9.631
 1744POPC   GL124049   2.025  25.457   9.217
 1744POPC   GL224050   2.356  25.407   9.086
 1744POPC   C1A24051   1.850  25.148   8.884
 1744POPC   D2A24052   1.724  24.968   8.464
 1744POPC   C3A24053   1.734  25.192   8.039
 1744POPC   C4A24054   1.773  25.546   7.723
 1744POPC   C1B24055   2.344  25.155   8.727
 1744POPC   C2B24056   2.183  25.191   8.317
 1744POPC   C3B24057   2.197  25.311   7.886
 1744POPC   C4B24058   2.085  25.240   7.451
 1745POPC   NC324059  30.363  28.232   9.515
 1745POPC   PO424060  31.008  28.457   9.402
 1745POPC   GL124061  30.827  28.475   9.027
 1745POPC   GL224062  30.556  28.256   9.041
 1745POPC   C1A24063  30.652  28.579   8.645
 1745POPC   D2A24064  30.793  28.399   8.292
 1745POPC   C3A24065  30.658  28.494   7.906
 1745POPC   C4A24066  30.869  28.375   7.500
 1745POPC   C1B24067  30.462  28.089   8.632
 1745POPC   C2B24068  30.515  27.965   8.206
 1745POPC   C3B24069  30.433  28.067   7.768
 1745POPC   C4B24070  30.273  27.808   7.420
 1746POPC   NC324071   9.619  31.939   9.484
 1746POPC   PO424072   9.425  32.601   9.651
 1746POPC   GL124073   9.517  32.421   9.238
 1746POPC   GL224074   9.827  32.543   9.026
 1746POPC   C1A24075   9.504  32.193   8.846
 1746POPC   D2A24076   9.562  32.357   8.412
 1746POPC   C3A24077   9.572  32.147   8.012
 1746POPC   C4A24078   9.684  32.214   7.597
 1746POPC   C1B24079   9.987  32.214   8.698
 1746POPC   C2B24080   9.894  31.909   8.353
 1746POPC   C3B24081  10.050  31.957   7.925
 1746POPC   C4B24082  10.130  32.397   7.778
 1747POPC   NC324083   5.389  21.733   9.372
 1747POPC   PO424084   5.778  21.259   9.604
 1747POPC   GL124085   5.916  21.216   9.175
 1747POPC   GL224086   6.057  21.552   9.081
 1747POPC   C1A24087   5.695  21.168   8.775
 1747POPC   D2A24088   5.758  21.021   8.355
 1747POPC   C3A24089   5.543  21.228   8.008
 1747POPC   C4A24090   5.835  21.387   7.672
 1747POPC   C1B24091   5.751  21.712   8.796
 1747POPC   C2B24092   5.573  21.586   8.408
 1747POPC   C3B24093   5.616  21.727   8.004
 1747POPC   C4B24094   5.394  21.666   7.643
 1748POPC   NC324095  43.981  33.425   9.527
 1748POPC   PO424096  43.490  32.923   9.565
 1748POPC   GL124097  43.802  33.034   9.252
 1748POPC   GL224098  43.633  33.330   9.147
 1748POPC   C1A24099  44.008  33.093   8.824
 1748POPC   D2A24100  44.087  32.886   8.392
 1748POPC   C3A24101  43.979  33.095   7.997
 1748POPC   C4A24102  44.106  33.309   7.600
 1748POPC   C1B24103  43.492  33.014   8.844
 1748POPC   C2B24104  43.588  33.035   8.414
 1748POPC   C3B24105  43.490  32.919   7.991
 1748POPC   C4B24106  43.610  33.158   7.617
 1749POPC   NC324107   3.640   5.485   9.490
 1749POPC   PO424108   3.816   6.076   9.478
 1749POPC   GL124109   3.481   5.909   9.152
 1749POPC   GL224110   3.416   5.575   9.017
 1749POPC   C1A24111   3.215   6.100   8.805
 1749POPC   D2A24112   3.189   5.905   8.380
 1749POPC   C3A24113   3.146   5.987   7.963
 1749POPC   C4A24114   3.531   5.953   7.804
 1749POPC   C1B24115   3.627   5.822   8.674
 1749POPC   C2B24116   3.761   5.899   8.250
 1749POPC   C3B24117   3.958   5.676   7.875
 1749POPC   C4B24118   4.073   5.835   7.468
 1750POPC   NC324119  31.571  20.924   9.511
 1750POPC   PO424120  31.245  20.380   9.599
 1750POPC   GL124121  31.423  20.522   9.224
 1750POPC   GL224122  31.268  20.826   9.114
 1750POPC   C1A24123  31.354  20.424   8.802
 1750POPC   D2A24124  31.133  20.329   8.406
 1750POPC   C3A24125  31.368  20.333   8.016
 1750POPC   C4A24126  31.326  20.597   7.674
 1750POPC   C1B24127  31.662  20.811   8.822
 1750POPC   C2B24128  31.577  20.626   8.381
 1750POPC   C3B24129  31.640  20.835   7.983
 1750POPC   C4B24130  31.859  20.968   7.606
 1751POPC   NC324131  34.211  10.879   9.359
 1751POPC   PO424132  34.821  10.534   9.524
 1751POPC   GL124133  34.589  10.506   9.156
 1751POPC   GL224134  34.614  10.795   9.032
 1751POPC   C1A24135  34.370  10.439   8.753
 1751POPC   D2A24136  34.412  10.222   8.351
 1751POPC   C3A24137  34.577  10.477   8.022
 1751POPC   C4A24138  34.567  10.343   7.615
 1751POPC   C1B24139  34.340  11.039   8.744
 1751POPC   C2B24140  34.114  11.035   8.363
 1751POPC   C3B24141  34.196  11.068   7.946
 1751POPC   C4B24142  34.276  10.753   7.640
 1752POPC   NC324143  42.247   9.393   9.760
 1752POPC   PO424144  42.445  10.010   9.572
 1752POPC   GL124145  42.360   9.941   9.085
 1752POPC   GL224146  42.530  10.203   8.973
 1752POPC   C1A24147  42.245   9.647   8.728
 1752POPC   D2A24148  42.378   9.486   8.334
 1752POPC   C3A24149  42.180   9.697   8.023
 1752POPC   C4A24150  42.277   9.895   7.632
 1752POPC   C1B24151  42.662   9.923   8.634
 1752POPC   C2B24152  42.551  10.007   8.204
 1752POPC   C3B24153  42.664  10.160   7.804
 1752POPC   C4B24154  42.662  10.020   7.326
 1753POPC   NC324155  16.130   5.955   9.358
 1753POPC   PO424156  15.492   5.661   9.458
 1753POPC   GL124157  15.723   5.763   9.104
 1753POPC   GL224158  16.001   5.539   9.035
 1753POPC   C1A24159  15.891   5.993   8.741
 1753POPC   D2A24160  16.063   6.010   8.321
 1753POPC   C3A24161  15.783   6.039   7.963
 1753POPC   C4A24162  15.751   5.978   7.512
 1753POPC   C1B24163  15.757   5.470   8.702
 1753POPC   C2B24164  15.660   5.674   8.362
 1753POPC   C3B24165  15.711   5.505   8.009
 1753POPC   C4B24166  15.789   5.437   7.621
 1754POPC   NC324167  40.502  44.878   9.499
 1754POPC   PO424168  39.999  44.418   9.509
 1754POPC   GL124169  39.842  44.734   9.198
 1754POPC   GL224170  40.176  44.737   9.096
 1754POPC   C1A24171  39.770  44.703   8.734
 1754POPC   D2A24172  39.982  44.757   8.316
 1754POPC   C3A24173  39.842  44.564   7.881
 1754POPC   C4A24174  39.852  44.404   7.468
 1754POPC   C1B24175  40.310  44.885   8.716
 1754POPC   C2B24176  40.497  44.770   8.327
 1754POPC   C3B24177  40.337  44.645   7.964
 1754POPC   C4B24178  40.223  44.749   7.578
 1755POPC   NC324179  16.854   3.817   9.325
 1755POPC   PO424180  16.675   4.424   9.595
 1755POPC   GL124181  16.530   4.417   9.138
 1755POPC   GL224182  16.449   4.070   9.071
 1755POPC   C1A24183  16.607   4.403   8.655
 1755POPC   D2A24184  16.740   4.614   8.247
 1755POPC   C3A24185  16.670   4.514   7.816
 1755POPC   C4A24186  16.407   4.211   7.669
 1755POPC   C1B24187  16.512   3.745   8.746
 1755POPC   C2B24188  16.477   3.774   8.320
 1755POPC   C3B24189  16.681   4.087   8.108
 1755POPC   C4B24190  16.871   4.025   7.716
 1756POPC   NC324191  37.851  43.941   9.399
 1756POPC   PO424192  37.286  44.074   9.423
 1756POPC   GL124193  37.423  43.820   9.083
 1756POPC   GL224194  37.612  43.510   9.104
 1756POPC   C1A24195  37.466  43.845   8.671
 1756POPC   D2A24196  37.598  44.188   8.439
 1756POPC   C3A24197  37.867  44.147   8.068
 1756POPC   C4A24198  37.787  44.137   7.639
 1756POPC   C1B24199  37.913  43.633   8.771
 1756POPC   C2B24200  37.805  43.694   8.320
 1756POPC   C3B24201  37.762  43.689   7.892
 1756POPC   C4B24202  37.382  43.809   7.713
 1757POPC   NC324203  12.535  33.628   9.462
 1757POPC   PO424204  13.170  33.971   9.487
 1757POPC   GL124205  12.913  33.800   9.159
 1757POPC   GL224206  12.589  33.899   9.019
 1757POPC   C1A24207  12.984  33.713   8.737
 1757POPC   D2A24208  12.869  33.557   8.344
 1757POPC   C3A24209  12.689  33.811   8.079
 1757POPC   C4A24210  12.855  33.792   7.720
 1757POPC   C1B24211  12.493  33.530   8.792
 1757POPC   C2B24212  12.356  33.488   8.381
 1757POPC   C3B24213  12.366  33.431   7.928
 1757POPC   C4B24214  12.207  33.652   7.550
 1758POPC   NC324215   3.274  11.075   9.595
 1758POPC   PO424216   2.764  11.398   9.577
 1758POPC   GL124217   3.045  11.471   9.239
 1758POPC   GL224218   2.733  11.454   9.057
 1758POPC   C1A24219   3.157  11.379   8.785
 1758POPC   D2A24220   2.880  11.312   8.425
 1758POPC   C3A24221   3.121  11.379   8.043
 1758POPC   C4A24222   3.008  11.384   7.646
 1758POPC   C1B24223   2.704  11.763   8.758
 1758POPC   C2B24224   2.538  11.698   8.388
 1758POPC   C3B24225   2.632  11.566   8.009
 1758POPC   C4B24226   2.439  11.727   7.651
 1759POPC   NC324227  21.830  33.098   9.527
 1759POPC   PO424228  22.396  32.767   9.724
 1759POPC   GL124229  22.284  32.922   9.303
 1759POPC   GL224230  22.433  33.257   9.367
 1759POPC   C1A24231  22.024  32.913   8.873
 1759POPC   D2A24232  21.694  33.052   8.560
 1759POPC   C3A24233  21.811  33.079   8.128
 1759POPC   C4A24234  22.126  32.881   7.842
 1759POPC   C1B24235  22.199  33.363   9.002
 1759POPC   C2B24236  22.112  33.328   8.548
 1759POPC   C3B24237  22.290  33.297   8.150
 1759POPC   C4B24238  22.191  33.367   7.738
 1760POPC   NC324239  30.230  34.045   9.369
 1760POPC   PO424240  30.837  33.950   9.774
 1760POPC   GL124241  30.792  33.947   9.269
 1760POPC   GL224242  30.831  33.622   9.071
 1760POPC   C1A24243  30.642  33.999   8.802
 1760POPC   D2A24244  30.770  33.709   8.460
 1760POPC   C3A24245  30.754  33.824   8.034
 1760POPC   C4A24246  30.659  33.873   7.609
 1760POPC   C1B24247  30.412  33.551   8.809
 1760POPC   C2B24248  30.343  33.457   8.329
 1760POPC   C3B24249  30.313  33.591   7.873
 1760POPC   C4B24250  30.297  33.543   7.397
 1761POPC   NC324251  23.917   3.974   9.468
 1761POPC   PO424252  23.767   3.428   9.785
 1761POPC   GL124253  23.633   3.500   9.332
 1761POPC   GL224254  23.921   3.563   9.163
 1761POPC   C1A24255  23.519   3.443   8.860
 1761POPC   D2A24256  23.264   3.653   8.522
 1761POPC   C3A24257  23.344   3.467   8.111
 1761POPC   C4A24258  23.522   3.568   7.700
 1761POPC   C1B24259  24.059   3.418   8.776
 1761POPC   C2B24260  24.224   3.447   8.358
 1761POPC   C3B24261  23.999   3.592   7.998
 1761POPC   C4B24262  24.003   3.475   7.574
 1762POPC   NC324263  20.958   6.169   9.656
 1762POPC   PO424264  20.591   5.691   9.421
 1762POPC   GL124265  20.624   6.037   9.197
 1762POPC   GL224266  20.985   5.999   9.176
 1762POPC   C1A24267  20.405   6.158   8.805
 1762POPC   D2A24268  20.186   6.110   8.413
 1762POPC   C3A24269  20.389   6.205   8.044
 1762POPC   C4A24270  20.365   5.990   7.633
 1762POPC   C1B24271  20.842   5.847   8.774
 1762POPC   C2B24272  20.697   5.972   8.381
 1762POPC   C3B24273  20.710   5.773   7.964
 1762POPC   C4B24274  20.911   5.727   7.563
 1763POPC   NC324275  19.137   0.189   9.845
 1763POPC   PO424276  19.156  44.539   9.485
 1763POPC   GL124277  19.004  44.714   9.134
 1763POPC   GL224278  18.671  44.591   9.160
 1763POPC   C1A24279  19.102  44.731   8.721
 1763POPC   D2A24280  19.136  44.445   8.384
 1763POPC   C3A24281  19.257  44.636   8.023
 1763POPC   C4A24282  19.633  44.836   7.885
 1763POPC   C1B24283  18.635  44.964   8.867
 1763POPC   C2B24284  18.768   0.027   8.433
 1763POPC   C3B24285  18.738  44.682   8.153
 1763POPC   C4B24286  18.824  44.562   7.746
 1764POPC   NC324287  40.571  11.597   9.494
 1764POPC   PO424288  41.107  11.038   9.373
 1764POPC   GL124289  40.921  11.212   9.038
 1764POPC   GL224290  40.569  11.181   9.165
 1764POPC   C1A24291  41.036  11.409   8.634
 1764POPC   D2A24292  41.197  11.742   8.339
 1764POPC   C3A24293  41.140  11.537   7.905
 1764POPC   C4A24294  40.738  11.253   7.879
 1764POPC   C1B24295  40.534  11.401   8.779
 1764POPC   C2B24296  40.577  11.210   8.372
 1764POPC   C3B24297  40.356  10.932   8.089
 1764POPC   C4B24298  40.186  11.015   7.711
 1765POPC   NC324299   0.266  12.183   9.473
 1765POPC   PO424300   0.885  12.444   9.155
 1765POPC   GL124301   0.573  12.078   9.047
 1765POPC   GL224302   0.238  11.904   9.059
 1765POPC   C1A24303   0.548  12.079   8.665
 1765POPC   D2A24304   0.677  12.423   8.477
 1765POPC   C3A24305   0.649  12.238   8.091
 1765POPC   C4A24306   0.273  12.318   7.828
 1765POPC   C1B24307   0.072  11.952   8.659
 1765POPC   C2B24308   0.222  11.992   8.246
 1765POPC   C3B24309   0.128  11.808   7.840
 1765POPC   C4B24310   0.282  11.854   7.434
 1766POPC   NC324311  16.645  12.397   9.610
 1766POPC   PO424312  16.969  11.796   9.711
 1766POPC   GL124313  16.998  11.822   9.248
 1766POPC   GL224314  16.937  12.185   9.252
 1766POPC   C1A24315  16.723  11.916   8.879
 1766POPC   D2A24316  16.752  11.997   8.444
 1766POPC   C3A24317  16.504  11.801   8.123
 1766POPC   C4A24318  16.602  12.005   7.755
 1766POPC   C1B24319  16.992  12.385   8.856
 1766POPC   C2B24320  17.104  12.378   8.425
 1766POPC   C3B24321  16.958  12.278   8.036
 1766POPC   C4B24322  17.067  12.496   7.698
 1767POPC   NC324323  34.807  22.236   9.618
 1767POPC   PO424324  34.228  21.902   9.705
 1767POPC   GL124325  34.415  22.116   9.282
 1767POPC   GL224326  34.678  22.410   9.162
 1767POPC   C1A24327  34.274  22.286   8.869
 1767POPC   D2A24328  34.371  22.119   8.478
 1767POPC   C3A24329  34.282  22.355   8.137
 1767POPC   C4A24330  34.460  22.263   7.773
 1767POPC   C1B24331  34.795  22.256   8.750
 1767POPC   C2B24332  34.786  22.401   8.323
 1767POPC   C3B24333  34.934  22.214   7.958
 1767POPC   C4B24334  34.963  22.374   7.586
 1768POPC   NC324335  27.085  19.306   9.504
 1768POPC   PO424336  26.686  19.976   9.525
 1768POPC   GL124337  26.848  19.958   9.142
 1768POPC   GL224338  26.823  19.620   9.174
 1768POPC   C1A24339  26.903  20.114   8.717
 1768POPC   D2A24340  26.686  20.126   8.317
 1768POPC   C3A24341  26.968  20.050   7.998
 1768POPC   C4A24342  26.921  19.819   7.659
 1768POPC   C1B24343  26.976  19.565   8.775
 1768POPC   C2B24344  27.039  19.675   8.349
 1768POPC   C3B24345  26.843  19.467   8.017
 1768POPC   C4B24346  26.717  19.364   7.627
 1769POPC   NC324347   9.282  37.244   9.733
 1769POPC   PO424348   8.907  36.758   9.549
 1769POPC   GL124349   8.847  37.090   9.168
 1769POPC   GL224350   8.522  37.062   9.032
 1769POPC   C1A24351   8.882  37.151   8.663
 1769POPC   D2A24352   8.633  37.023   8.281
 1769POPC   C3A24353   8.906  36.892   7.925
 1769POPC   C4A24354   9.327  36.917   7.781
 1769POPC   C1B24355   8.625  36.718   8.705
 1769POPC   C2B24356   8.804  36.535   8.289
 1769POPC   C3B24357   8.815  36.403   7.819
 1769POPC   C4B24358   8.701  36.593   7.385
 1770POPC   NC324359  40.344  36.581   9.491
 1770POPC   PO424360  40.940  36.988   9.575
 1770POPC   GL124361  40.898  36.899   9.149
 1770POPC   GL224362  40.610  37.071   9.172
 1770POPC   C1A24363  41.052  36.814   8.704
 1770POPC   D2A24364  41.119  37.058   8.331
 1770POPC   C3A24365  41.011  36.869   7.970
 1770POPC   C4A24366  40.654  36.949   7.786
 1770POPC   C1B24367  40.527  36.860   8.775
 1770POPC   C2B24368  40.642  36.788   8.324
 1770POPC   C3B24369  40.335  36.646   8.036
 1770POPC   C4B24370  40.297  36.490   7.615
 1771POPC   NC324371  34.798  15.581   9.227
 1771POPC   PO424372  34.453  16.128   9.501
 1771POPC   GL124373  34.440  16.048   9.083
 1771POPC   GL224374  34.301  15.725   9.141
 1771POPC   C1A24375  34.649  15.907   8.715
 1771POPC   D2A24376  34.684  15.646   8.351
 1771POPC   C3A24377  34.842  15.906   8.035
 1771POPC   C4A24378  34.645  16.141   7.723
 1771POPC   C1B24379  34.135  15.820   8.740
 1771POPC   C2B24380  34.307  16.000   8.360
 1771POPC   C3B24381  34.251  15.904   7.974
 1771POPC   C4B24382  34.509  15.633   7.761
 1772POPC   NC324383  13.318  33.449   9.507
 1772POPC   PO424384  13.294  32.760   9.544
 1772POPC   GL124385  13.603  32.864   9.194
 1772POPC   GL224386  13.519  33.196   9.140
 1772POPC   C1A24387  13.798  33.045   8.774
 1772POPC   D2A24388  13.658  33.200   8.399
 1772POPC   C3A24389  13.831  33.191   8.032
 1772POPC   C4A24390  13.758  32.861   7.782
 1772POPC   C1B24391  13.319  33.323   8.772
 1772POPC   C2B24392  13.363  33.595   8.401
 1772POPC   C3B24393  13.314  33.403   7.983
 1772POPC   C4B24394  13.599  33.373   7.631
 1773POPC   NC324395  42.453  42.799   9.488
 1773POPC   PO424396  42.156  43.431   9.456
 1773POPC   GL124397  42.391  43.198   9.162
 1773POPC   GL224398  42.165  42.934   9.082
 1773POPC   C1A24399  42.493  43.116   8.727
 1773POPC   D2A24400  42.413  43.322   8.320
 1773POPC   C3A24401  42.628  43.149   7.963
 1773POPC   C4A24402  42.517  42.751   7.733
 1773POPC   C1B24403  42.174  42.739   8.649
 1773POPC   C2B24404  42.042  42.939   8.264
 1773POPC   C3B24405  42.144  43.081   7.881
 1773POPC   C4B24406  42.093  42.949   7.463
 1774POPC   NC324407  44.986  21.249   9.588
 1774POPC   PO424408  44.316  21.449   9.625
 1774POPC   GL124409  44.552  21.232   9.291
 1774POPC   GL224410  44.355  21.001   9.080
 1774POPC   C1A24411  44.738  21.454   8.911
 1774POPC   D2A24412  44.749  21.812   8.576
 1774POPC   C3A24413  44.821  21.783   8.093
 1774POPC   C4A24414  44.962  21.662   7.645
 1774POPC   C1B24415  44.388  21.182   8.654
 1774POPC   C2B24416  44.754  21.337   8.400
 1774POPC   C3B24417  44.857  21.267   7.966
 1774POPC   C4B24418  44.687  21.236   7.532
 1775POPC   NC324419  10.721  15.453   9.329
 1775POPC   PO424420  11.456  15.443   9.401
 1775POPC   GL124421  11.285  15.120   9.079
 1775POPC   GL224422  10.960  14.972   9.016
 1775POPC   C1A24423  11.502  14.957   8.743
 1775POPC   D2A24424  11.413  15.149   8.373
 1775POPC   C3A24425  11.181  14.948   8.090
 1775POPC   C4A24426  11.427  15.026   7.770
 1775POPC   C1B24427  10.912  15.023   8.557
 1775POPC   C2B24428  10.921  15.357   8.225
 1775POPC   C3B24429  10.985  15.306   7.764
 1775POPC   C4B24430  11.102  15.039   7.366
 1776POPC   NC324431  13.729  31.165   9.527
 1776POPC   PO424432  13.523  31.829   9.483
 1776POPC   GL124433  13.702  31.539   9.174
 1776POPC   GL224434  13.460  31.235   9.126
 1776POPC   C1A24435  13.973  31.542   8.819
 1776POPC   D2A24436  14.000  31.264   8.508
 1776POPC   C3A24437  13.719  31.390   8.223
 1776POPC   C4A24438  13.867  31.476   7.849
 1776POPC   C1B24439  13.521  31.265   8.728
 1776POPC   C2B24440  13.169  31.279   8.500
 1776POPC   C3B24441  13.249  31.178   8.144
 1776POPC   C4B24442  13.355  31.431   7.805
 1777POPC   NC324443  29.240   5.579   9.838
 1777POPC   PO424444  29.458   6.214   9.517
 1777POPC   GL124445  29.367   5.905   9.200
 1777POPC   GL224446  29.031   5.827   9.214
 1777POPC   C1A24447  29.314   5.756   8.766
 1777POPC   D2A24448  29.444   5.944   8.371
 1777POPC   C3A24449  29.229   5.864   7.993
 1777POPC   C4A24450  29.278   5.813   7.522
 1777POPC   C1B24451  28.811   5.666   8.832
 1777POPC   C2B24452  28.970   5.587   8.424
 1777POPC   C3B24453  28.992   5.436   8.034
 1777POPC   C4B24454  28.733   5.516   7.724
 1778POPC   NC324455  33.474  32.048   9.609
 1778POPC   PO424456  32.781  32.108   9.483
 1778POPC   GL124457  32.935  32.267   9.116
 1778POPC   GL224458  33.221  32.097   9.102
 1778POPC   C1A24459  32.882  32.142   8.697
 1778POPC   D2A24460  33.053  32.314   8.336
 1778POPC   C3A24461  32.931  32.114   8.028
 1778POPC   C4A24462  32.731  32.249   7.656
 1778POPC   C1B24463  33.389  32.253   8.692
 1778POPC   C2B24464  33.443  32.646   8.444
 1778POPC   C3B24465  33.313  32.613   7.986
 1778POPC   C4B24466  33.274  32.267   7.689
 1779POPC   NC324467  28.052   0.982   9.610
 1779POPC   PO424468  28.661   1.239   9.632
 1779POPC   GL124469  28.669   1.319   9.203
 1779POPC   GL224470  28.513   1.005   9.121
 1779POPC   C1A24471  28.604   1.345   8.755
 1779POPC   D2A24472  28.694   1.533   8.363
 1779POPC   C3A24473  28.562   1.308   7.986
 1779POPC   C4A24474  28.494   0.978   7.747
 1779POPC   C1B24475  28.205   1.026   8.750
 1779POPC   C2B24476  28.166   1.210   8.312
 1779POPC   C3B24477  28.032   1.041   7.904
 1779POPC   C4B24478  28.030   0.866   7.483
 1780POPC   NC324479  27.861   8.366   9.557
 1780POPC   PO424480  28.433   8.003   9.703
 1780POPC   GL124481  28.349   8.290   9.342
 1780POPC   GL224482  28.088   8.112   9.172
 1780POPC   C1A24483  28.404   8.401   8.876
 1780POPC   D2A24484  28.360   8.131   8.472
 1780POPC   C3A24485  28.686   8.084   8.103
 1780POPC   C4A24486  28.596   7.916   7.654
 1780POPC   C1B24487  27.916   8.293   8.754
 1780POPC   C2B24488  28.020   8.505   8.356
 1780POPC   C3B24489  28.275   8.346   8.002
 1780POPC   C4B24490  28.350   8.394   7.556
 1781POPC   NC324491  31.290  32.152   9.275
 1781POPC   PO424492  31.801  32.233   9.626
 1781POPC   GL124493  31.791  32.183   9.148
 1781POPC   GL224494  31.655  31.834   9.110
 1781POPC   C1A24495  31.570  32.387   8.722
 1781POPC   D2A24496  31.567  32.615   8.300
 1781POPC   C3A24497  31.442  32.348   7.957
 1781POPC   C4A24498  31.632  32.375   7.539
 1781POPC   C1B24499  31.798  31.929   8.697
 1781POPC   C2B24500  31.696  32.075   8.308
 1781POPC   C3B24501  31.649  31.885   7.906
 1781POPC   C4B24502  31.313  31.991   7.610
 1782POPC   NC324503  13.059  18.331   9.956
 1782POPC   PO424504  12.666  18.684   9.510
 1782POPC   GL124505  12.867  18.429   9.197
 1782POPC   GL224506  12.859  18.052   9.173
 1782POPC   C1A24507  12.978  18.434   8.778
 1782POPC   D2A24508  12.799  18.280   8.420
 1782POPC   C3A24509  12.893  18.500   8.040
 1782POPC   C4A24510  12.594  18.507   7.703
 1782POPC   C1B24511  12.806  17.874   8.753
 1782POPC   C2B24512  12.681  17.796   8.309
 1782POPC   C3B24513  12.886  18.000   7.969
 1782POPC   C4B24514  13.101  18.206   7.662
 1783POPC   NC324515  16.995  36.740   9.464
 1783POPC   PO424516  17.587  36.424   9.718
 1783POPC   GL124517  17.512  36.634   9.287
 1783POPC   GL224518  17.512  37.002   9.200
 1783POPC   C1A24519  17.460  36.650   8.830
 1783POPC   D2A24520  17.326  36.877   8.470
 1783POPC   C3A24521  17.440  36.653   8.102
 1783POPC   C4A24522  17.446  36.816   7.674
 1783POPC   C1B24523  17.638  37.152   8.774
 1783POPC   C2B24524  17.599  37.284   8.290
 1783POPC   C3B24525  17.538  37.299   7.813
 1783POPC   C4B24526  17.666  37.337   7.343
 1784POPC   NC324527   0.316   2.437   9.480
 1784POPC   PO424528   0.381   3.120   9.472
 1784POPC   GL124529   0.200   2.837   9.185
 1784POPC   GL224530  44.895   2.917   9.058
 1784POPC   C1A24531   0.290   2.666   8.779
 1784POPC   D2A24532   0.534   2.808   8.426
 1784POPC   C3A24533   0.552   2.608   8.016
 1784POPC   C4A24534   0.685   2.580   7.595
 1784POPC   C1B24535   0.173   3.186   8.814
 1784POPC   C2B24536   0.339   3.275   8.425
 1784POPC   C3B24537   0.307   3.108   8.028
 1784POPC   C4B24538  44.965   3.238   7.843
 1785POPC   NC324539   3.272  11.898   9.546
 1785POPC   PO424540   3.922  12.177   9.559
 1785POPC   GL124541   3.709  11.929   9.273
 1785POPC   GL224542   3.470  12.157   9.173
 1785POPC   C1A24543   3.694  11.824   8.852
 1785POPC   D2A24544   3.794  11.871   8.422
 1785POPC   C3A24545   3.514  11.914   8.116
 1785POPC   C4A24546   3.516  11.970   7.700
 1785POPC   C1B24547   3.646  12.367   8.857
 1785POPC   C2B24548   3.546  12.350   8.430
 1785POPC   C3B24549   3.578  12.412   7.977
 1785POPC   C4B24550   3.179  12.369   7.755
 1786POPC   NC324551  33.566  34.033   9.437
 1786POPC   PO424552  33.686  33.393   9.439
 1786POPC   GL124553  34.018  33.642   9.183
 1786POPC   GL224554  33.950  34.009   9.094
 1786POPC   C1A24555  34.059  33.686   8.716
 1786POPC   D2A24556  33.756  33.747   8.365
 1786POPC   C3A24557  33.857  33.453   8.039
 1786POPC   C4A24558  34.061  33.570   7.662
 1786POPC   C1B24559  33.605  34.064   8.777
 1786POPC   C2B24560  33.507  34.313   8.418
 1786POPC   C3B24561  33.630  34.149   8.016
 1786POPC   C4B24562  33.603  33.808   7.748
 1787POPC   NC324563  16.875  32.473   9.606
 1787POPC   PO424564  16.618  31.996   9.296
 1787POPC   GL124565  16.914  32.289   9.095
 1787POPC   GL224566  17.157  32.559   9.190
 1787POPC   C1A24567  16.915  32.093   8.698
 1787POPC   D2A24568  16.533  32.111   8.426
 1787POPC   C3A24569  16.566  31.923   8.021
 1787POPC   C4A24570  16.541  32.173   7.650
 1787POPC   C1B24571  17.291  32.476   8.764
 1787POPC   C2B24572  17.216  32.306   8.365
 1787POPC   C3B24573  16.897  32.322   8.048
 1787POPC   C4B24574  16.928  32.457   7.604
 1788POPC   NC324575  40.465   4.861   9.590
 1788POPC   PO424576  41.004   5.167   9.452
 1788POPC   GL124577  40.757   5.065   9.117
 1788POPC   GL224578  40.401   4.962   9.064
 1788POPC   C1A24579  40.712   5.310   8.733
 1788POPC   D2A24580  40.568   5.324   8.318
 1788POPC   C3A24581  40.846   5.210   8.006
 1788POPC   C4A24582  40.781   5.160   7.602
 1788POPC   C1B24583  40.665   4.800   8.693
 1788POPC   C2B24584  40.787   4.747   8.251
 1788POPC   C3B24585  40.566   4.789   7.870
 1788POPC   C4B24586  40.539   4.754   7.388
 1789POPC   NC324587  44.495  38.424   9.490
 1789POPC   PO424588   0.183  38.310   9.410
 1789POPC   GL124589  44.897  38.508   9.188
 1789POPC   GL224590  44.655  38.268   9.027
 1789POPC   C1A24591  44.909  38.678   8.792
 1789POPC   D2A24592   0.001  38.878   8.391
 1789POPC   C3A24593  44.888  38.679   8.013
 1789POPC   C4A24594  44.895  38.243   7.914
 1789POPC   C1B24595  44.730  38.216   8.595
 1789POPC   C2B24596  44.413  38.201   8.273
 1789POPC   C3B24597  44.389  38.303   7.832
 1789POPC   C4B24598  44.390  38.340   7.385
 1790POPC   NC324599  27.928  26.851   9.485
 1790POPC   PO424600  27.571  27.348   9.704
 1790POPC   GL124601  27.472  26.998   9.289
 1790POPC   GL224602  27.159  27.091   9.038
 1790POPC   C1A24603  27.615  26.902   8.817
 1790POPC   D2A24604  27.736  26.548   8.501
 1790POPC   C3A24605  27.675  26.607   8.045
 1790POPC   C4A24606  27.645  26.546   7.600
 1790POPC   C1B24607  27.225  27.196   8.610
 1790POPC   C2B24608  27.465  27.018   8.270
 1790POPC   C3B24609  27.332  27.021   7.833
 1790POPC   C4B24610  27.017  27.191   7.576
 1791POPC   NC324611  39.774   4.249   9.734
 1791POPC   PO424612  40.220   4.554   9.350
 1791POPC   GL124613  39.907   4.460   9.082
 1791POPC   GL224614  39.880   4.102   9.113
 1791POPC   C1A24615  39.939   4.504   8.637
 1791POPC   D2A24616  40.276   4.624   8.343
 1791POPC   C3A24617  40.120   4.550   7.932
 1791POPC   C4A24618  40.288   4.365   7.572
 1791POPC   C1B24619  40.067   4.012   8.706
 1791POPC   C2B24620  40.070   4.152   8.267
 1791POPC   C3B24621  40.025   3.983   7.859
 1791POPC   C4B24622  39.684   3.905   7.563
 1792POPC   NC324623   6.984  23.770   9.237
 1792POPC   PO424624   6.703  23.357   9.640
 1792POPC   GL124625   6.581  23.446   9.145
 1792POPC   GL224626   6.285  23.378   9.073
 1792POPC   C1A24627   6.541  23.766   8.759
 1792POPC   D2A24628   6.341  23.876   8.342
 1792POPC   C3A24629   6.514  23.883   7.901
 1792POPC   C4A24630   6.975  23.819   7.801
 1792POPC   C1B24631   6.490  23.269   8.683
 1792POPC   C2B24632   6.364  23.357   8.274
 1792POPC   C3B24633   6.524  23.387   7.826
 1792POPC   C4B24634   6.453  23.441   7.357
 1793POPC   NC324635  30.239  39.872   9.224
 1793POPC   PO424636  30.761  40.315   9.496
 1793POPC   GL124637  30.722  39.982   9.095
 1793POPC   GL224638  30.474  40.117   8.840
 1793POPC   C1A24639  30.643  39.714   8.650
 1793POPC   D2A24640  30.549  39.982   8.327
 1793POPC   C3A24641  30.764  40.011   7.968
 1793POPC   C4A24642  30.530  40.373   7.853
 1793POPC   C1B24643  30.856  40.216   8.654
 1793POPC   C2B24644  30.887  40.402   8.268
 1793POPC   C3B24645  31.049  40.465   7.867
 1793POPC   C4B24646  31.192  40.202   7.520
 1794POPC   NC324647  16.972  19.456   9.601
 1794POPC   PO424648  16.469  19.130   9.317
 1794POPC   GL124649  16.864  19.039   9.099
 1794POPC   GL224650  16.933  19.377   9.090
 1794POPC   C1A24651  16.894  18.807   8.702
 1794POPC   D2A24652  16.488  18.843   8.484
 1794POPC   C3A24653  16.498  19.073   8.107
 1794POPC   C4A24654  16.563  18.925   7.688
 1794POPC   C1B24655  16.813  19.322   8.661
 1794POPC   C2B24656  16.989  19.142   8.283
 1794POPC   C3B24657  17.005  19.156   7.822
 1794POPC   C4B24658  17.013  18.982   7.390
 1795POPC   NC324659  42.464  26.418   9.960
 1795POPC   PO424660  42.651  25.845   9.640
 1795POPC   GL124661  42.461  25.765   9.213
 1795POPC   GL224662  42.266  26.033   9.213
 1795POPC   C1A24663  42.460  25.823   8.789
 1795POPC   D2A24664  42.602  26.078   8.458
 1795POPC   C3A24665  42.508  25.937   8.078
 1795POPC   C4A24666  42.388  25.898   7.705
 1795POPC   C1B24667  42.394  26.305   8.886
 1795POPC   C2B24668  42.229  26.443   8.488
 1795POPC   C3B24669  42.111  26.263   8.072
 1795POPC   C4B24670  42.124  26.453   7.654
 1796POPC   NC324671   7.361  44.644   9.553
 1796POPC   PO424672   7.847  44.265   9.713
 1796POPC   GL124673   7.756  44.504   9.253
 1796POPC   GL224674   7.616  44.815   9.135
 1796POPC   C1A24675   7.549  44.430   8.806
 1796POPC   D2A24676   7.317  44.373   8.407
 1796POPC   C3A24677   7.597  44.453   8.066
 1796POPC   C4A24678   7.669  44.474   7.605
 1796POPC   C1B24679   7.455   0.003   8.771
 1796POPC   C2B24680   7.266  44.924   8.394
 1796POPC   C3B24681   7.434  44.932   7.994
 1796POPC   C4B24682   7.220  44.635   7.769
 1797POPC   NC324683  10.961   8.256   9.416
 1797POPC   PO424684  11.561   7.867   9.449
 1797POPC   GL124685  11.295   8.026   9.139
 1797POPC   GL224686  10.969   7.809   9.109
 1797POPC   C1A24687  11.369   8.350   8.793
 1797POPC   D2A24688  11.307   8.600   8.420
 1797POPC   C3A24689  11.443   8.406   8.013
 1797POPC   C4A24690  11.599   8.127   7.668
 1797POPC   C1B24691  10.943   8.062   8.768
 1797POPC   C2B24692  11.080   8.104   8.389
 1797POPC   C3B24693  10.867   8.028   8.021
 1797POPC   C4B24694  11.029   8.015   7.632
 1798POPC   NC324695  41.713  42.131   9.415
 1798POPC   PO424696  41.378  41.597   9.537
 1798POPC   GL124697  41.651  41.666   9.169
 1798POPC   GL224698  41.951  41.443   9.085
 1798POPC   C1A24699  41.453  41.652   8.789
 1798POPC   D2A24700  41.505  41.540   8.381
 1798POPC   C3A24701  41.557  41.838   8.075
 1798POPC   C4A24702  41.657  41.657   7.692
 1798POPC   C1B24703  41.755  41.258   8.773
 1798POPC   C2B24704  41.798  41.113   8.401
 1798POPC   C3B24705  41.696  41.205   7.996
 1798POPC   C4B24706  41.891  40.997   7.666
 1799POPC   NC324707  14.863   9.935   9.553
 1799POPC   PO424708  14.179   9.931   9.541
 1799POPC   GL124709  14.189   9.715   9.140
 1799POPC   GL224710  14.553   9.805   9.154
 1799POPC   C1A24711  14.303   9.701   8.679
 1799POPC   D2A24712  14.634   9.990   8.480
 1799POPC   C3A24713  14.628   9.985   8.017
 1799POPC   C4A24714  14.304   9.746   7.758
 1799POPC   C1B24715  14.724   9.512   8.876
 1799POPC   C2B24716  14.723   9.479   8.446
 1799POPC   C3B24717  14.588   9.439   8.051
 1799POPC   C4B24718  14.803   9.627   7.689
 1800POPC   NC324719   2.343  10.154   9.384
 1800POPC   PO424720   1.982   9.576   9.558
 1800POPC   GL124721   1.961   9.580   9.128
 1800POPC   GL224722   2.260   9.728   9.123
 1800POPC   C1A24723   1.848   9.757   8.686
 1800POPC   D2A24724   1.765  10.064   8.353
 1800POPC   C3A24725   1.690   9.878   7.937
 1800POPC   C4A24726   1.797   9.992   7.481
 1800POPC   C1B24727   2.349   9.700   8.712
 1800POPC   C2B24728   2.215   9.798   8.307
 1800POPC   C3B24729   2.324   9.669   7.918
 1800POPC   C4B24730   2.304   9.781   7.505
 1801POPC   NC324731   1.590  23.981   9.542
 1801POPC   PO424732   2.186  23.551   9.496
 1801POPC   GL124733   1.878  23.695   9.219
 1801POPC   GL224734   1.744  23.426   9.112
 1801POPC   C1A24735   1.787  23.827   8.791
 1801POPC   D2A24736   1.892  24.000   8.404
 1801POPC   C3A24737   1.791  23.744   8.056
 1801POPC   C4A24738   1.584  23.536   7.690
 1801POPC   C1B24739   2.053  23.390   8.809
 1801POPC   C2B24740   1.851  23.379   8.423
 1801POPC   C3B24741   1.920  23.238   8.028
 1801POPC   C4B24742   2.092  23.493   7.701
 1802POPC   NC324743   6.848  22.016   9.472
 1802POPC   PO424744   6.178  22.175   9.638
 1802POPC   GL124745   6.436  22.141   9.196
 1802POPC   GL224746   6.668  22.438   9.155
 1802POPC   C1A24747   6.404  21.910   8.754
 1802POPC   D2A24748   6.656  21.962   8.349
 1802POPC   C3A24749   6.840  21.871   7.926
 1802POPC   C4A24750   7.077  22.044   7.541
 1802POPC   C1B24751   6.795  22.271   8.759
 1802POPC   C2B24752   6.935  22.405   8.334
 1802POPC   C3B24753   6.787  22.363   7.911
 1802POPC   C4B24754   6.490  22.567   7.698
 1803POPC   NC324755  42.927  13.033   9.390
 1803POPC   PO424756  43.289  12.483   9.393
 1803POPC   GL124757  43.168  12.708   9.048
 1803POPC   GL224758  42.811  12.651   9.089
 1803POPC   C1A24759  43.313  12.774   8.621
 1803POPC   D2A24760  43.203  12.569   8.262
 1803POPC   C3A24761  43.215  12.791   7.902
 1803POPC   C4A24762  43.038  13.136   7.750
 1803POPC   C1B24763  42.803  12.898   8.707
 1803POPC   C2B24764  42.942  13.022   8.300
 1803POPC   C3B24765  42.709  12.809   8.010
 1803POPC   C4B24766  42.761  12.741   7.595
 1804POPC   NC324767  13.701  40.498   9.714
 1804POPC   PO424768  13.424  41.012   9.365
 1804POPC   GL124769  13.599  40.961   9.048
 1804POPC   GL224770  13.929  41.017   9.132
 1804POPC   C1A24771  13.456  40.938   8.644
 1804POPC   D2A24772  13.391  41.048   8.252
 1804POPC   C3A24773  13.568  40.761   7.998
 1804POPC   C4A24774  13.725  40.786   7.623
 1804POPC   C1B24775  13.954  40.809   8.749
 1804POPC   C2B24776  13.914  40.903   8.346
 1804POPC   C3B24777  14.101  40.785   7.974
 1804POPC   C4B24778  14.194  40.619   7.575
 1805POPC   NC324779  16.559  21.438   9.546
 1805POPC   PO424780  17.286  21.515   9.503
 1805POPC   GL124781  16.951  21.409   9.159
 1805POPC   GL224782  16.604  21.242   9.096
 1805POPC   C1A24783  16.932  21.338   8.691
 1805POPC   D2A24784  17.216  21.273   8.327
 1805POPC   C3A24785  16.972  21.115   8.006
 1805POPC   C4A24786  16.753  21.210   7.646
 1805POPC   C1B24787  16.335  21.365   8.757
 1805POPC   C2B24788  16.403  21.264   8.319
 1805POPC   C3B24789  16.335  21.294   7.896
 1805POPC   C4B24790  16.293  21.347   7.444
 1806POPC   NC324791  41.842  26.099   9.527
 1806POPC   PO424792  41.222  26.039   9.672
 1806POPC   GL124793  41.444  25.833   9.266
 1806POPC   GL224794  41.804  25.834   9.092
 1806POPC   C1A24795  41.425  26.032   8.845
 1806POPC   D2A24796  41.561  25.922   8.447
 1806POPC   C3A24797  41.318  26.104   8.106
 1806POPC   C4A24798  41.485  26.090   7.699
 1806POPC   C1B24799  41.978  26.029   8.749
 1806POPC   C2B24800  42.120  25.817   8.394
 1806POPC   C3B24801  41.995  25.711   8.002
 1806POPC   C4B24802  41.906  25.827   7.589
 1807POPC   NC324803  19.725  11.886   9.517
 1807POPC   PO424804  20.183  12.389   9.706
 1807POPC   GL124805  20.090  12.135   9.261
 1807POPC   GL224806  19.750  12.081   9.060
 1807POPC   C1A24807  20.166  12.011   8.811
 1807POPC   D2A24808  20.013  12.122   8.398
 1807POPC   C3A24809  20.138  11.932   8.005
 1807POPC   C4A24810  20.297  12.192   7.693
 1807POPC   C1B24811  19.646  11.814   8.708
 1807POPC   C2B24812  19.538  11.992   8.302
 1807POPC   C3B24813  19.688  12.204   7.979
 1807POPC   C4B24814  19.662  11.939   7.691
 1808POPC   NC324815   3.170  24.060   9.544
 1808POPC   PO424816   3.792  23.768   9.548
 1808POPC   GL124817   3.618  23.831   9.143
 1808POPC   GL224818   3.322  23.671   9.131
 1808POPC   C1A24819   3.642  23.665   8.714
 1808POPC   D2A24820   3.752  23.329   8.444
 1808POPC   C3A24821   3.864  23.461   8.049
 1808POPC   C4A24822   3.671  23.559   7.691
 1808POPC   C1B24823   3.140  23.800   8.751
 1808POPC   C2B24824   3.309  24.002   8.399
 1808POPC   C3B24825   3.498  23.877   8.045
 1808POPC   C4B24826   3.385  23.986   7.639
 1809POPC   NC324827   8.955  17.992   9.580
 1809POPC   PO424828   8.599  18.560   9.525
 1809POPC   GL124829   8.843  18.335   9.206
 1809POPC   GL224830   8.698  18.024   9.141
 1809POPC   C1A24831   9.016  18.324   8.776
 1809POPC   D2A24832   9.201  18.363   8.378
 1809POPC   C3A24833   8.954  18.652   8.071
 1809POPC   C4A24834   9.037  18.618   7.628
 1809POPC   C1B24835   8.595  18.030   8.709
 1809POPC   C2B24836   8.684  18.254   8.316
 1809POPC   C3B24837   8.993  18.144   7.975
 1809POPC   C4B24838   8.952  18.141   7.531
 1810POPC   NC324839  32.790  21.855   9.588
 1810POPC   PO424840  33.391  22.152   9.667
 1810POPC   GL124841  33.159  22.136   9.289
 1810POPC   GL224842  33.414  22.203   9.068
 1810POPC   C1A24843  32.988  22.008   8.872
 1810POPC   D2A24844  32.887  21.978   8.425
 1810POPC   C3A24845  33.153  22.047   8.046
 1810POPC   C4A24846  32.940  22.178   7.664
 1810POPC   C1B24847  33.515  22.427   8.698
 1810POPC   C2B24848  33.391  22.433   8.280
 1810POPC   C3B24849  33.310  22.520   7.844
 1810POPC   C4B24850  33.324  22.401   7.418
 1811POPC   NC324851  32.939   0.661   9.534
 1811POPC   PO424852  33.524   0.551   9.540
 1811POPC   GL124853  33.280   0.512   9.167
 1811POPC   GL224854  32.959   0.336   9.142
 1811POPC   C1A24855  33.229   0.487   8.731
 1811POPC   D2A24856  33.158   0.317   8.358
 1811POPC   C3A24857  33.011   0.615   8.073
 1811POPC   C4A24858  33.069   0.356   7.730
 1811POPC   C1B24859  32.770   0.665   8.846
 1811POPC   C2B24860  32.651   0.537   8.448
 1811POPC   C3B24861  32.688   0.217   8.153
 1811POPC   C4B24862  32.582   0.382   7.805
 1812POPC   NC324863  29.297   5.393   9.360
 1812POPC   PO424864  28.966   4.880   9.623
 1812POPC   GL124865  29.110   4.944   9.182
 1812POPC   GL224866  29.063   5.255   8.955
 1812POPC   C1A24867  29.157   4.812   8.760
 1812POPC   D2A24868  29.074   5.061   8.401
 1812POPC   C3A24869  29.285   5.010   8.039
 1812POPC   C4A24870  29.137   4.883   7.669
 1812POPC   C1B24871  29.445   5.256   8.704
 1812POPC   C2B24872  29.443   5.426   8.289
 1812POPC   C3B24873  29.479   5.442   7.838
 1812POPC   C4B24874  29.645   5.461   7.424
 1813POPC   NC324875  12.224  34.526   9.557
 1813POPC   PO424876  11.536  34.300   9.638
 1813POPC   GL124877  11.858  34.340   9.248
 1813POPC   GL224878  12.215  34.248   9.120
 1813POPC   C1A24879  11.957  34.566   8.832
 1813POPC   D2A24880  12.124  34.539   8.411
 1813POPC   C3A24881  11.909  34.439   8.012
 1813POPC   C4A24882  12.117  34.503   7.583
 1813POPC   C1B24883  12.512  34.380   8.787
 1813POPC   C2B24884  12.628  34.537   8.366
 1813POPC   C3B24885  12.416  34.412   8.008
 1813POPC   C4B24886  12.446  34.117   7.696
 1814POPC   NC324887  19.195   5.685   9.613
 1814POPC   PO424888  18.659   5.196   9.537
 1814POPC   GL124889  18.873   5.551   9.196
 1814POPC   GL224890  19.194   5.736   9.114
 1814POPC   C1A24891  18.990   5.492   8.725
 1814POPC   D2A24892  18.958   5.309   8.318
 1814POPC   C3A24893  19.123   5.615   7.979
 1814POPC   C4A24894  18.875   5.987   7.817
 1814POPC   C1B24895  18.972   6.005   8.826
 1814POPC   C2B24896  19.003   5.946   8.387
 1814POPC   C3B24897  19.271   6.135   8.105
 1814POPC   C4B24898  19.317   6.244   7.685
 1815POPC   NC324899   6.240  25.257   9.696
 1815POPC   PO424900   6.812  25.008   9.427
 1815POPC   GL124901   6.433  25.117   9.196
 1815POPC   GL224902   6.670  25.213   8.960
 1815POPC   C1A24903   6.220  25.122   8.801
 1815POPC   D2A24904   6.473  25.009   8.447
 1815POPC   C3A24905   6.469  25.294   8.116
 1815POPC   C4A24906   6.692  25.283   7.744
 1815POPC   C1B24907   6.537  25.537   8.684
 1815POPC   C2B24908   6.652  25.771   8.319
 1815POPC   C3B24909   6.817  25.742   7.917
 1815POPC   C4B24910   6.862  25.671   7.452
 1816POPC   NC324911  11.627  28.754   9.484
 1816POPC   PO424912  12.304  28.500   9.563
 1816POPC   GL124913  12.216  28.298   9.208
 1816POPC   GL224914  12.108  28.653   9.115
 1816POPC   C1A24915  12.277  28.290   8.782
 1816POPC   D2A24916  11.992  28.297   8.443
 1816POPC   C3A24917  12.146  28.253   8.028
 1816POPC   C4A24918  11.955  28.001   7.714
 1816POPC   C1B24919  12.097  28.769   8.699
 1816POPC   C2B24920  11.901  28.784   8.327
 1816POPC   C3B24921  11.828  28.813   7.911
 1816POPC   C4B24922  11.937  28.520   7.618
 1817POPC   NC324923   9.997  18.805   9.603
 1817POPC   PO424924   9.438  19.098   9.607
 1817POPC   GL124925   9.748  19.119   9.207
 1817POPC   GL224926   9.965  18.859   9.104
 1817POPC   C1A24927   9.775  19.083   8.708
 1817POPC   D2A24928  10.016  19.238   8.373
 1817POPC   C3A24929   9.873  19.104   7.983
 1817POPC   C4A24930   9.601  18.926   7.705
 1817POPC   C1B24931  10.067  18.608   8.713
 1817POPC   C2B24932  10.059  18.729   8.309
 1817POPC   C3B24933   9.922  18.583   7.929
 1817POPC   C4B24934  10.000  18.678   7.520
 1818POPC   NC324935  41.801   2.913   9.447
 1818POPC   PO424936  41.325   2.429   9.505
 1818POPC   GL124937  41.532   2.547   9.173
 1818POPC   GL224938  41.834   2.409   9.284
 1818POPC   C1A24939  41.586   2.823   8.835
 1818POPC   D2A24940  41.623   3.108   8.518
 1818POPC   C3A24941  41.509   2.944   8.086
 1818POPC   C4A24942  41.213   2.967   7.730
 1818POPC   C1B24943  41.847   2.383   8.806
 1818POPC   C2B24944  41.685   2.536   8.408
 1818POPC   C3B24945  41.699   2.400   7.997
 1818POPC   C4B24946  41.517   2.553   7.639
 1819POPC   NC324947  24.251  29.690   9.358
 1819POPC   PO424948  24.734  30.097   9.425
 1819POPC   GL124949  24.616  30.053   9.024
 1819POPC   GL224950  24.268  30.045   8.971
 1819POPC   C1A24951  24.601  30.228   8.610
 1819POPC   D2A24952  24.365  30.236   8.221
 1819POPC   C3A24953  24.581  30.045   7.880
 1819POPC   C4A24954  24.865  30.218   7.588
 1819POPC   C1B24955  24.362  29.693   8.706
 1819POPC   C2B24956  24.132  29.688   8.344
 1819POPC   C3B24957  24.106  29.810   7.979
 1819POPC   C4B24958  24.183  29.910   7.607
 1820POPC   NC324959   8.947  32.398   9.658
 1820POPC   PO424960   9.117  31.758   9.554
 1820POPC   GL124961   9.096  32.108   9.206
 1820POPC   GL224962   8.910  32.438   9.153
 1820POPC   C1A24963   9.021  32.197   8.731
 1820POPC   D2A24964   9.149  32.066   8.308
 1820POPC   C3A24965   9.156  32.456   8.025
 1820POPC   C4A24966   8.985  32.503   7.575
 1820POPC   C1B24967   8.578  32.443   8.782
 1820POPC   C2B24968   8.442  32.576   8.340
 1820POPC   C3B24969   8.642  32.713   7.916
 1820POPC   C4B24970   8.480  32.576   7.502
 1821POPC   NC324971  37.737  21.055   9.487
 1821POPC   PO424972  37.975  20.482   9.594
 1821POPC   GL124973  37.713  20.397   9.221
 1821POPC   GL224974  37.719  20.736   9.071
 1821POPC   C1A24975  37.635  20.343   8.756
 1821POPC   D2A24976  37.619  20.575   8.363
 1821POPC   C3A24977  37.632  20.381   7.937
 1821POPC   C4A24978  37.487  20.352   7.515
 1821POPC   C1B24979  37.573  20.991   8.720
 1821POPC   C2B24980  37.639  21.084   8.282
 1821POPC   C3B24981  37.462  20.866   7.948
 1821POPC   C4B24982  37.645  20.811   7.574
 1822POPC   NC324983  19.538   1.671   9.355
 1822POPC   PO424984  20.034   2.228   9.420
 1822POPC   GL124985  19.993   1.872   9.174
 1822POPC   GL224986  19.709   2.034   9.017
 1822POPC   C1A24987  20.079   1.791   8.749
 1822POPC   D2A24988  20.142   2.041   8.399
 1822POPC   C3A24989  20.000   1.969   7.993
 1822POPC   C4A24990  19.821   2.287   7.726
 1822POPC   C1B24991  19.581   1.840   8.633
 1822POPC   C2B24992  19.570   1.845   8.203
 1822POPC   C3B24993  19.542   1.601   7.806
 1822POPC   C4B24994  19.452   1.668   7.320
 1823POPC   NC324995   4.797  24.930   9.475
 1823POPC   PO424996   4.270  25.456   9.544
 1823POPC   GL124997   4.314  25.165   9.264
 1823POPC   GL224998   4.629  25.299   9.174
 1823POPC   C1A24999   4.227  25.271   8.849
 1823POPC   D2A25000   4.430  25.267   8.450
 1823POPC   C3A25001   4.302  25.349   8.030
 1823POPC   C4A25002   4.102  25.065   7.770
 1823POPC   C1B25003   4.714  25.026   8.829
 1823POPC   C2B25004   4.847  24.997   8.398
 1823POPC   C3B25005   4.599  24.921   8.072
 1823POPC   C4B25006   4.605  25.129   7.686
 1824POPC   NC325007  13.506  10.829   9.393
 1824POPC   PO425008  13.719  10.506   9.953
 1824POPC   GL125009  13.818  10.382   9.444
 1824POPC   GL225010  13.956  10.670   9.236
 1824POPC   C1A25011  13.751  10.353   8.934
 1824POPC   D2A25012  13.439  10.459   8.600
 1824POPC   C3A25013  13.502  10.296   8.180
 1824POPC   C4A25014  13.508  10.411   7.738
 1824POPC   C1B25015  13.855  10.852   8.794
 1824POPC   C2B25016  13.637  10.945   8.370
 1824POPC   C3B25017  13.550  10.912   7.904
 1824POPC   C4B25018  13.769  10.797   7.518
 1825POPC   NC325019  22.816  34.418   9.489
 1825POPC   PO425020  23.025  35.076   9.629
 1825POPC   GL125021  22.969  34.856   9.212
 1825POPC   GL225022  23.206  34.577   9.126
 1825POPC   C1A25023  22.801  34.651   8.814
 1825POPC   D2A25024  22.961  34.700   8.387
 1825POPC   C3A25025  22.713  34.712   8.033
 1825POPC   C4A25026  22.759  34.896   7.649
 1825POPC   C1B25027  23.289  34.885   8.764
 1825POPC   C2B25028  23.270  35.093   8.321
 1825POPC   C3B25029  23.215  34.827   7.918
 1825POPC   C4B25030  23.002  34.460   7.691
 1826POPC   NC325031  29.322  19.707   9.328
 1826POPC   PO425032  28.774  20.074   9.500
 1826POPC   GL125033  28.913  19.943   9.119
 1826POPC   GL225034  29.219  20.109   9.031
 1826POPC   C1A25035  29.006  19.695   8.765
 1826POPC   D2A25036  29.213  19.603   8.389
 1826POPC   C3A25037  29.008  19.708   8.042
 1826POPC   C4A25038  28.866  19.723   7.662
 1826POPC   C1B25039  29.423  20.005   8.657
 1826POPC   C2B25040  29.266  20.113   8.252
 1826POPC   C3B25041  29.116  20.178   7.825
 1826POPC   C4B25042  29.299  20.279   7.435
 1827POPC   NC325043   6.358  23.650   9.523
 1827POPC   PO425044   5.717  23.958   9.379
 1827POPC   GL125045   5.929  23.725   9.128
 1827POPC   GL225046   6.208  23.927   9.109
 1827POPC   C1A25047   6.055  23.632   8.709
 1827POPC   D2A25048   5.853  23.561   8.368
 1827POPC   C3A25049   6.058  23.647   7.997
 1827POPC   C4A25050   6.038  23.504   7.632
 1827POPC   C1B25051   5.992  24.141   8.765
 1827POPC   C2B25052   5.896  24.100   8.342
 1827POPC   C3B25053   6.060  24.150   7.946
 1827POPC   C4B25054   5.780  23.946   7.674
 1828POPC   NC325055  41.874  11.046   9.360
 1828POPC   PO425056  41.707  10.456   9.561
 1828POPC   GL125057  41.606  10.607   9.157
 1828POPC   GL225058  41.461  10.298   9.045
 1828POPC   C1A25059  41.743  10.600   8.727
 1828POPC   D2A25060  41.677  10.880   8.385
 1828POPC   C3A25061  41.623  10.700   7.988
 1828POPC   C4A25062  41.262  10.528   7.776
 1828POPC   C1B25063  41.497  10.130   8.647
 1828POPC   C2B25064  41.697  10.258   8.273
 1828POPC   C3B25065  41.630  10.180   7.852
 1828POPC   C4B25066  41.256  10.004   7.694
 1829POPC   NC325067   5.129   0.012   9.502
 1829POPC   PO425068   4.731  44.546   9.443
 1829POPC   GL125069   5.015  44.676   9.118
 1829POPC   GL225070   5.376  44.655   9.174
 1829POPC   C1A25071   5.084  44.520   8.723
 1829POPC   D2A25072   4.921  44.239   8.433
 1829POPC   C3A25073   4.966  44.416   8.056
 1829POPC   C4A25074   5.010  44.596   7.672
 1829POPC   C1B25075   5.433  44.896   8.763
 1829POPC   C2B25076   5.237  44.852   8.357
 1829POPC   C3B25077   5.341  44.892   7.958
 1829POPC   C4B25078   5.188   0.058   7.614
 1830POPC   NC325079  23.733  11.105   9.511
 1830POPC   PO425080  23.536  11.768   9.469
 1830POPC   GL125081  23.749  11.468   9.149
 1830POPC   GL225082  23.568  11.113   9.039
 1830POPC   C1A25083  23.844  11.383   8.704
 1830POPC   D2A25084  23.698  11.109   8.361
 1830POPC   C3A25085  23.731  11.302   7.932
 1830POPC   C4A25086  23.441  11.291   7.570
 1830POPC   C1B25087  23.955  10.913   8.892
 1830POPC   C2B25088  24.211  11.010   8.530
 1830POPC   C3B25089  24.104  10.938   8.096
 1830POPC   C4B25090  24.171  11.143   7.721
 1831POPC   NC325091  11.302  24.866   9.521
 1831POPC   PO425092  10.959  25.362   9.835
 1831POPC   GL125093  11.060  25.332   9.363
 1831POPC   GL225094  11.360  25.535   9.260
 1831POPC   C1A25095  11.197  25.195   8.914
 1831POPC   D2A25096  11.439  25.409   8.549
 1831POPC   C3A25097  11.616  25.163   8.199
 1831POPC   C4A25098  11.493  25.205   7.760
 1831POPC   C1B25099  11.165  25.702   8.862
 1831POPC   C2B25100  11.089  25.785   8.384
 1831POPC   C3B25101  11.091  25.544   7.957
 1831POPC   C4B25102  11.114  25.435   7.486
 1832POPC   NC325103  23.113  29.746   9.422
 1832POPC   PO425104  22.555  30.193   9.588
 1832POPC   GL125105  22.746  30.260   9.181
 1832POPC   GL225106  22.810  29.907   9.038
 1832POPC   C1A25107  22.912  30.302   8.762
 1832POPC   D2A25108  22.835  30.052   8.402
 1832POPC   C3A25109  23.035  30.233   8.053
 1832POPC   C4A25110  23.251  30.106   7.677
 1832POPC   C1B25111  23.206  29.860   8.759
 1832POPC   C2B25112  23.286  29.826   8.308
 1832POPC   C3B25113  23.077  29.695   7.933
 1832POPC   C4B25114  23.265  29.597   7.562
 1833POPC   NC325115  36.401  13.413   9.465
 1833POPC   PO425116  35.796  13.705   9.497
 1833POPC   GL125117  36.009  13.541   9.146
 1833POPC   GL225118  36.287  13.784   9.110
 1833POPC   C1A25119  36.066  13.556   8.697
 1833POPC   D2A25120  35.735  13.670   8.377
 1833POPC   C3A25121  35.869  13.558   7.965
 1833POPC   C4A25122  36.224  13.728   7.723
 1833POPC   C1B25123  35.891  13.985   8.906
 1833POPC   C2B25124  35.957  14.120   8.502
 1833POPC   C3B25125  36.135  13.956   8.161
 1833POPC   C4B25126  35.810  14.062   7.857
 1834POPC   NC325127  35.957   1.721   9.339
 1834POPC   PO425128  36.379   2.285   9.478
 1834POPC   GL125129  36.311   2.073   9.124
 1834POPC   GL225130  35.978   2.169   9.105
 1834POPC   C1A25131  36.292   2.214   8.705
 1834POPC   D2A25132  36.045   2.280   8.336
 1834POPC   C3A25133  36.196   1.946   8.090
 1834POPC   C4A25134  36.391   1.913   7.729
 1834POPC   C1B25135  35.849   1.976   8.737
 1834POPC   C2B25136  35.771   1.832   8.368
 1834POPC   C3B25137  35.704   2.029   7.997
 1834POPC   C4B25138  35.859   1.921   7.631
 1835POPC   NC325139  25.097  39.287   9.448
 1835POPC   PO425140  25.723  39.309   9.263
 1835POPC   GL125141  25.387  39.221   9.025
 1835POPC   GL225142  25.112  39.420   8.956
 1835POPC   C1A25143  25.234  38.992   8.712
 1835POPC   D2A25144  25.058  39.052   8.358
 1835POPC   C3A25145  25.216  38.884   8.020
 1835POPC   C4A25146  25.250  39.042   7.624
 1835POPC   C1B25147  25.457  39.650   8.734
 1835POPC   C2B25148  25.597  39.580   8.324
 1835POPC   C3B25149  25.350  39.394   8.007
 1835POPC   C4B25150  25.239  39.538   7.608
 1836POPC   NC325151  22.119  38.943   9.239
 1836POPC   PO425152  22.150  38.384   9.665
 1836POPC   GL125153  22.335  38.469   9.240
 1836POPC   GL225154  22.059  38.478   8.959
 1836POPC   C1A25155  22.536  38.406   8.828
 1836POPC   D2A25156  22.351  38.276   8.442
 1836POPC   C3A25157  22.409  38.560   8.119
 1836POPC   C4A25158  22.247  38.544   7.743
 1836POPC   C1B25159  21.754  38.184   8.765
 1836POPC   C2B25160  21.892  38.000   8.398
 1836POPC   C3B25161  21.970  38.237   8.063
 1836POPC   C4B25162  21.795  38.332   7.696
 1837POPC   NC325163  34.876  26.441   9.433
 1837POPC   PO425164  34.494  25.855   9.358
 1837POPC   GL125165  34.717  26.028   9.073
 1837POPC   GL225166  34.560  26.351   9.042
 1837POPC   C1A25167  34.711  25.916   8.647
 1837POPC   D2A25168  34.518  25.687   8.315
 1837POPC   C3A25169  34.591  25.974   8.029
 1837POPC   C4A25170  34.726  25.993   7.611
 1837POPC   C1B25171  34.925  26.382   8.779
 1837POPC   C2B25172  34.845  26.330   8.373
 1837POPC   C3B25173  34.591  26.485   8.067
 1837POPC   C4B25174  34.817  26.473   7.717
 1838POPC   NC325175  20.453   9.645   9.502
 1838POPC   PO425176  20.363  10.307   9.394
 1838POPC   GL125177  20.663   9.961   9.114
 1838POPC   GL225178  20.739   9.543   9.110
 1838POPC   C1A25179  20.772   9.821   8.698
 1838POPC   D2A25180  20.441   9.815   8.438
 1838POPC   C3A25181  20.425   9.971   8.059
 1838POPC   C4A25182  20.394   9.722   7.739
 1838POPC   C1B25183  20.505   9.373   8.739
 1838POPC   C2B25184  20.368   9.237   8.335
 1838POPC   C3B25185  20.634   9.458   8.087
 1838POPC   C4B25186  20.911   9.793   7.945
 1839POPC   NC325187  11.483  30.284   9.685
 1839POPC   PO425188  10.998  29.833   9.469
 1839POPC   GL125189  11.336  29.868   9.170
 1839POPC   GL225190  11.579  30.121   9.188
 1839POPC   C1A25191  11.346  29.938   8.760
 1839POPC   D2A25192  11.168  30.098   8.436
 1839POPC   C3A25193  11.274  29.905   8.085
 1839POPC   C4A25194  11.146  29.978   7.707
 1839POPC   C1B25195  11.633  30.343   8.765
 1839POPC   C2B25196  11.644  30.207   8.326
 1839POPC   C3B25197  11.477  30.332   7.882
 1839POPC   C4B25198  11.422  30.250   7.385
 1840POPC   NC325199   8.618  12.171   9.323
 1840POPC   PO425200   8.132  11.681   9.430
 1840POPC   GL125201   8.148  11.996   9.102
 1840POPC   GL225202   8.139  12.359   9.188
 1840POPC   C1A25203   8.117  11.829   8.717
 1840POPC   D2A25204   8.371  11.838   8.363
 1840POPC   C3A25205   8.166  11.767   7.988
 1840POPC   C4A25206   8.274  11.932   7.616
 1840POPC   C1B25207   8.349  12.405   8.784
 1840POPC   C2B25208   8.342  12.490   8.363
 1840POPC   C3B25209   8.302  12.280   7.989
 1840POPC   C4B25210   8.151  12.436   7.571
 1841POPC   NC325211  25.773  10.007   9.521
 1841POPC   PO425212  26.425   9.808   9.402
 1841POPC   GL125213  26.078   9.817   9.129
 1841POPC   GL225214  25.797   9.590   9.217
 1841POPC   C1A25215  26.055   9.725   8.699
 1841POPC   D2A25216  26.403   9.690   8.380
 1841POPC   C3A25217  26.351   9.563   7.983
 1841POPC   C4A25218  26.227   9.826   7.669
 1841POPC   C1B25219  25.691   9.367   8.833
 1841POPC   C2B25220  25.588   9.577   8.457
 1841POPC   C3B25221  25.863   9.741   8.147
 1841POPC   C4B25222  25.727   9.658   7.744
 1842POPC   NC325223  42.249   8.895   9.505
 1842POPC   PO425224  42.106   9.562   9.353
 1842POPC   GL125225  42.389   9.253   9.076
 1842POPC   GL225226  42.435   8.853   9.052
 1842POPC   C1A25227  42.274   9.090   8.661
 1842POPC   D2A25228  42.285   8.799   8.331
 1842POPC   C3A25229  42.310   9.056   7.960
 1842POPC   C4A25230  42.235   9.376   7.618
 1842POPC   C1B25231  42.673   8.711   8.691
 1842POPC   C2B25232  42.919   8.652   8.344
 1842POPC   C3B25233  42.688   8.633   8.019
 1842POPC   C4B25234  42.612   8.721   7.625
 1843POPC   NC325235  36.667  14.245   9.562
 1843POPC   PO425236  37.119  14.621   9.322
 1843POPC   GL125237  37.057  14.239   9.112
 1843POPC   GL225238  36.724  14.119   9.063
 1843POPC   C1A25239  37.155  14.173   8.694
 1843POPC   D2A25240  36.920  14.184   8.320
 1843POPC   C3A25241  37.109  14.451   8.010
 1843POPC   C4A25242  37.228  14.361   7.581
 1843POPC   C1B25243  36.738  14.541   8.802
 1843POPC   C2B25244  36.792  14.705   8.375
 1843POPC   C3B25245  36.604  14.469   8.021
 1843POPC   C4B25246  36.743  14.500   7.623
 1844POPC   NC325247  26.267   5.991   9.498
 1844POPC   PO425248  26.915   6.145   9.665
 1844POPC   GL125249  26.860   6.090   9.238
 1844POPC   GL225250  26.588   5.838   9.139
 1844POPC   C1A25251  27.072   6.045   8.867
 1844POPC   D2A25252  26.920   5.783   8.554
 1844POPC   C3A25253  27.011   5.837   8.134
 1844POPC   C4A25254  26.993   5.932   7.720
 1844POPC   C1B25255  26.573   6.106   8.778
 1844POPC   C2B25256  26.500   6.249   8.363
 1844POPC   C3B25257  26.583   6.128   7.970
 1844POPC   C4B25258  26.490   6.266   7.586
 1845POPC   NC325259  10.946  20.041   9.406
 1845POPC   PO425260  11.628  19.902   9.471
 1845POPC   GL125261  11.370  19.957   9.133
 1845POPC   GL225262  11.214  19.651   9.033
 1845POPC   C1A25263  11.270  20.014   8.693
 1845POPC   D2A25264  11.462  19.930   8.298
 1845POPC   C3A25265  11.359  20.131   7.909
 1845POPC   C4A25266  11.008  20.125   7.623
 1845POPC   C1B25267  11.625  19.649   8.807
 1845POPC   C2B25268  11.817  19.580   8.392
 1845POPC   C3B25269  11.654  19.576   7.966
 1845POPC   C4B25270  11.194  19.649   7.875
 1846POPC   NC325271  42.837  19.847   9.488
 1846POPC   PO425272  42.205  19.805   9.359
 1846POPC   GL125273  42.373  19.785   8.992
 1846POPC   GL225274  42.538  19.475   9.052
 1846POPC   C1A25275  42.116  19.860   8.613
 1846POPC   D2A25276  41.931  19.791   8.196
 1846POPC   C3A25277  42.242  19.921   7.923
 1846POPC   C4A25278  42.671  19.783   7.884
 1846POPC   C1B25279  42.351  19.387   8.694
 1846POPC   C2B25280  42.434  19.564   8.312
 1846POPC   C3B25281  42.232  19.435   7.970
 1846POPC   C4B25282  42.409  19.484   7.574
 1847POPC   NC325283  38.019  30.614   9.337
 1847POPC   PO425284  38.641  30.822   9.447
 1847POPC   GL125285  38.554  30.646   9.079
 1847POPC   GL225286  38.462  30.319   9.186
 1847POPC   C1A25287  38.298  30.862   8.769
 1847POPC   D2A25288  38.070  31.076   8.432
 1847POPC   C3A25289  38.301  31.026   8.024
 1847POPC   C4A25290  38.489  30.721   7.713
 1847POPC   C1B25291  38.185  30.295   8.822
 1847POPC   C2B25292  38.103  30.490   8.489
 1847POPC   C3B25293  38.159  30.535   8.105
 1847POPC   C4B25294  38.309  30.217   7.861
 1848POPC   NC325295  20.096  20.790   9.393
 1848POPC   PO425296  19.583  20.369   9.410
 1848POPC   GL125297  19.872  20.414   9.079
 1848POPC   GL225298  19.822  20.782   8.963
 1848POPC   C1A25299  19.765  20.412   8.646
 1848POPC   D2A25300  19.777  20.757   8.368
 1848POPC   C3A25301  19.979  20.541   8.065
 1848POPC   C4A25302  19.767  20.314   7.724
 1848POPC   C1B25303  20.073  21.056   8.695
 1848POPC   C2B25304  20.270  20.959   8.316
 1848POPC   C3B25305  19.980  21.073   7.988
 1848POPC   C4B25306  19.704  20.829   7.764
 1849POPC   NC325307  31.462  37.628   9.970
 1849POPC   PO425308  31.388  37.570   9.355
 1849POPC   GL125309  31.458  37.608   8.976
 1849POPC   GL225310  31.142  37.827   8.931
 1849POPC   C1A25311  31.507  37.688   8.558
 1849POPC   D2A25312  31.567  38.050   8.340
 1849POPC   C3A25313  31.702  37.861   7.986
 1849POPC   C4A25314  31.712  37.604   7.673
 1849POPC   C1B25315  31.078  37.413   8.709
 1849POPC   C2B25316  31.182  37.335   8.280
 1849POPC   C3B25317  31.311  37.385   7.874
 1849POPC   C4B25318  31.225  37.793   7.703
 1850POPC   NC325319   6.432  43.366   9.610
 1850POPC   PO425320   6.931  42.952   9.662
 1850POPC   GL125321   6.692  43.089   9.218
 1850POPC   GL225322   6.475  43.410   9.109
 1850POPC   C1A25323   6.797  43.082   8.747
 1850POPC   D2A25324   6.953  42.969   8.304
 1850POPC   C3A25325   6.796  43.143   7.946
 1850POPC   C4A25326   6.783  43.028   7.511
 1850POPC   C1B25327   6.275  43.348   8.700
 1850POPC   C2B25328   6.426  43.432   8.280
 1850POPC   C3B25329   6.463  43.507   7.846
 1850POPC   C4B25330   6.309  43.077   7.773
 1851POPC   NC325331  30.836  31.278   9.449
 1851POPC   PO425332  30.952  31.861   9.251
 1851POPC   GL125333  30.597  31.611   9.047
 1851POPC   GL225334  30.572  31.259   9.020
 1851POPC   C1A25335  30.306  31.484   8.688
 1851POPC   D2A25336  30.336  31.510   8.272
 1851POPC   C3A25337  30.734  31.607   8.124
 1851POPC   C4A25338  30.824  31.798   7.733
 1851POPC   C1B25339  30.784  31.270   8.631
 1851POPC   C2B25340  31.098  31.282   8.311
 1851POPC   C3B25341  30.907  31.167   7.922
 1851POPC   C4B25342  30.450  31.251   7.831
 1852POPC   NC325343  10.703  14.607   9.332
 1852POPC   PO425344  10.288  14.144   9.399
 1852POPC   GL125345  10.404  14.345   9.027
 1852POPC   GL225346  10.199  14.616   9.204
 1852POPC   C1A25347  10.635  14.579   8.662
 1852POPC   D2A25348  10.921  14.539   8.249
 1852POPC   C3A25349  10.756  14.234   7.916
 1852POPC   C4A25350  10.465  14.114   7.575
 1852POPC   C1B25351  10.056  14.767   8.835
 1852POPC   C2B25352  10.126  14.589   8.460
 1852POPC   C3B25353  10.417  14.544   8.187
 1852POPC   C4B25354  10.404  14.574   7.776
 1853POPC   NC325355  40.689   9.214   9.501
 1853POPC   PO425356  40.945   8.508   9.500
 1853POPC   GL125357  41.030   8.767   9.147
 1853POPC   GL225358  40.726   8.889   9.119
 1853POPC   C1A25359  40.987   8.683   8.729
 1853POPC   D2A25360  40.733   8.862   8.406
 1853POPC   C3A25361  40.878   8.913   8.011
 1853POPC   C4A25362  41.085   8.632   7.747
 1853POPC   C1B25363  40.885   9.183   8.784
 1853POPC   C2B25364  41.097   9.270   8.402
 1853POPC   C3B25365  41.037   9.395   7.989
 1853POPC   C4B25366  40.985   9.197   7.560
 1854POPC   NC325367  32.679  14.870   9.306
 1854POPC   PO425368  32.222  15.190   9.703
 1854POPC   GL125369  32.219  15.087   9.230
 1854POPC   GL225370  32.507  15.309   9.066
 1854POPC   C1A25371  32.192  15.048   8.762
 1854POPC   D2A25372  32.341  15.317   8.407
 1854POPC   C3A25373  32.152  15.201   8.012
 1854POPC   C4A25374  31.903  14.798   7.901
 1854POPC   C1B25375  32.650  15.611   8.723
 1854POPC   C2B25376  32.716  15.693   8.273
 1854POPC   C3B25377  32.475  15.641   7.881
 1854POPC   C4B25378  32.586  15.707   7.412
 1855POPC   NC325379  25.692   9.270   9.609
 1855POPC   PO425380  25.061   9.225   9.411
 1855POPC   GL125381  25.389   9.005   9.203
 1855POPC   GL225382  25.070   8.812   9.065
 1855POPC   C1A25383  25.522   8.718   8.854
 1855POPC   D2A25384  25.224   8.635   8.537
 1855POPC   C3A25385  25.290   8.631   8.093
 1855POPC   C4A25386  25.390   8.869   7.755
 1855POPC   C1B25387  25.231   9.127   8.735
 1855POPC   C2B25388  25.499   9.080   8.367
 1855POPC   C3B25389  25.405   9.328   7.991
 1855POPC   C4B25390  25.175   9.307   7.589
 1856POPC   NC325391  20.861  29.446   9.479
 1856POPC   PO425392  20.584  30.138   9.408
 1856POPC   GL125393  20.649  29.850   9.078
 1856POPC   GL225394  20.768  29.553   8.995
 1856POPC   C1A25395  20.530  29.870   8.644
 1856POPC   D2A25396  20.349  29.993   8.237
 1856POPC   C3A25397  20.638  30.170   7.978
 1856POPC   C4A25398  20.904  30.111   7.641
 1856POPC   C1B25399  20.362  29.414   8.831
 1856POPC   C2B25400  20.383  29.425   8.380
 1856POPC   C3B25401  20.666  29.626   8.071
 1856POPC   C4B25402  20.454  29.747   7.717
 1857POPC   NC325403  23.215   9.702   9.666
 1857POPC   PO425404  23.886   9.711   9.540
 1857POPC   GL125405  23.577   9.620   9.217
 1857POPC   GL225406  23.787   9.454   9.012
 1857POPC   C1A25407  23.421   9.664   8.751
 1857POPC   D2A25408  23.599   9.504   8.364
 1857POPC   C3A25409  23.592   9.759   8.015
 1857POPC   C4A25410  23.425   9.666   7.628
 1857POPC   C1B25411  23.971   9.625   8.681
 1857POPC   C2B25412  24.081   9.738   8.283
 1857POPC   C3B25413  23.981   9.407   8.009
 1857POPC   C4B25414  24.109   9.321   7.599
 1858POPC   NC325415   7.070   1.112   9.469
 1858POPC   PO425416   7.765   1.025   9.407
 1858POPC   GL125417   7.683   1.216   9.061
 1858POPC   GL225418   7.376   1.372   9.152
 1858POPC   C1A25419   7.715   1.037   8.648
 1858POPC   D2A25420   7.481   0.844   8.311
 1858POPC   C3A25421   7.667   0.923   7.903
 1858POPC   C4A25422   7.586   1.056   7.483
 1858POPC   C1B25423   7.204   1.152   8.818
 1858POPC   C2B25424   7.032   1.142   8.423
 1858POPC   C3B25425   7.163   1.142   8.014
 1858POPC   C4B25426   7.328   1.424   7.700
 1859POPC   NC325427   6.963  38.297   9.514
 1859POPC   PO425428   6.507  38.685   9.699
 1859POPC   GL125429   6.541  38.476   9.256
 1859POPC   GL225430   6.356  38.739   9.098
 1859POPC   C1A25431   6.790  38.254   8.899
 1859POPC   D2A25432   6.818  38.314   8.451
 1859POPC   C3A25433   6.507  38.135   8.169
 1859POPC   C4A25434   6.442  38.190   7.719
 1859POPC   C1B25435   6.473  38.597   8.729
 1859POPC   C2B25436   6.430  38.627   8.331
 1859POPC   C3B25437   6.683  38.638   7.998
 1859POPC   C4B25438   6.444  38.734   7.653
 1860POPC   NC325439  28.162   6.053   9.478
 1860POPC   PO425440  28.740   5.537   9.511
 1860POPC   GL125441  28.510   5.790   9.233
 1860POPC   GL225442  28.228   5.612   9.123
 1860POPC   C1A25443  28.498   6.067   8.843
 1860POPC   D2A25444  28.511   5.847   8.435
 1860POPC   C3A25445  28.683   5.943   8.018
 1860POPC   C4A25446  28.336   5.835   7.733
 1860POPC   C1B25447  28.045   5.818   8.784
 1860POPC   C2B25448  27.910   5.687   8.399
 1860POPC   C3B25449  27.905   5.719   7.976
 1860POPC   C4B25450  27.927   5.533   7.585
 1861POPC   NC325451  37.405  26.701   9.561
 1861POPC   PO425452  38.011  27.027   9.453
 1861POPC   GL125453  37.803  26.919   9.115
 1861POPC   GL225454  38.050  26.661   9.096
 1861POPC   C1A25455  37.643  27.064   8.718
 1861POPC   D2A25456  37.739  26.902   8.299
 1861POPC   C3A25457  37.572  26.870   7.891
 1861POPC   C4A25458  37.787  26.866   7.457
 1861POPC   C1B25459  37.849  26.578   8.707
 1861POPC   C2B25460  37.944  26.397   8.306
 1861POPC   C3B25461  37.985  26.511   7.856
 1861POPC   C4B25462  38.062  26.445   7.386
 1862POPC   NC325463   9.313  19.467   9.310
 1862POPC   PO425464   8.649  19.696   9.495
 1862POPC   GL125465   8.977  19.840   9.162
 1862POPC   GL225466   9.120  20.184   9.138
 1862POPC   C1A25467   9.012  19.776   8.715
 1862POPC   D2A25468   8.934  19.604   8.306
 1862POPC   C3A25469   9.226  19.610   7.983
 1862POPC   C4A25470   9.097  19.634   7.578
 1862POPC   C1B25471   8.706  20.171   8.833
 1862POPC   C2B25472   8.640  20.030   8.365
 1862POPC   C3B25473   8.896  20.027   7.938
 1862POPC   C4B25474   9.014  20.105   7.472
 1863POPC   NC325475  26.085  24.054   9.494
 1863POPC   PO425476  25.920  24.726   9.572
 1863POPC   GL125477  26.121  24.594   9.202
 1863POPC   GL225478  25.917  24.302   9.077
 1863POPC   C1A25479  26.117  24.669   8.764
 1863POPC   D2A25480  26.008  24.404   8.450
 1863POPC   C3A25481  26.182  24.528   8.090
 1863POPC   C4A25482  26.119  24.707   7.710
 1863POPC   C1B25483  26.320  24.212   8.837
 1863POPC   C2B25484  26.337  23.994   8.469
 1863POPC   C3B25485  26.090  24.013   8.108
 1863POPC   C4B25486  25.925  24.203   7.733
 1864POPC   NC325487  19.111  22.189   9.458
 1864POPC   PO425488  18.519  21.987   9.455
 1864POPC   GL125489  18.696  22.310   9.120
 1864POPC   GL225490  19.081  22.328   8.986
 1864POPC   C1A25491  18.733  22.164   8.687
 1864POPC   D2A25492  19.014  22.151   8.344
 1864POPC   C3A25493  18.770  22.231   7.986
 1864POPC   C4A25494  18.965  22.149   7.624
 1864POPC   C1B25495  19.263  22.548   8.642
 1864POPC   C2B25496  19.571  22.391   8.356
 1864POPC   C3B25497  19.615  22.496   7.932
 1864POPC   C4B25498  19.407  22.398   7.528
 1865POPC   NC325499  13.039  31.698   9.546
 1865POPC   PO425500  12.308  31.711   9.521
 1865POPC   GL125501  12.639  31.692   9.235
 1865POPC   GL225502  12.821  31.370   9.222
 1865POPC   C1A25503  12.753  31.743   8.814
 1865POPC   D2A25504  12.700  31.488   8.451
 1865POPC   C3A25505  12.935  31.581   8.116
 1865POPC   C4A25506  12.870  31.609   7.709
 1865POPC   C1B25507  12.716  31.154   8.862
 1865POPC   C2B25508  12.729  30.968   8.455
 1865POPC   C3B25509  12.734  31.079   8.065
 1865POPC   C4B25510  12.963  31.103   7.742
 1866POPC   NC325511   0.510  27.936   9.544
 1866POPC   PO425512   0.405  28.572   9.492
 1866POPC   GL125513   0.544  28.275   9.162
 1866POPC   GL225514   0.898  28.145   9.141
 1866POPC   C1A25515   0.433  28.296   8.739
 1866POPC   D2A25516   0.177  28.518   8.438
 1866POPC   C3A25517   0.420  28.593   8.073
 1866POPC   C4A25518   0.249  28.755   7.718
 1866POPC   C1B25519   0.946  28.297   8.755
 1866POPC   C2B25520   0.807  28.450   8.389
 1866POPC   C3B25521   0.925  28.478   7.983
 1866POPC   C4B25522   0.644  28.379   7.667
 1867POPC   NC325523  10.407  10.451   9.522
 1867POPC   PO425524  10.739  11.089   9.539
 1867POPC   GL125525  10.598  10.778   9.179
 1867POPC   GL225526  10.332  10.511   9.028
 1867POPC   C1A25527  10.804  10.529   8.869
 1867POPC   D2A25528  10.970  10.546   8.468
 1867POPC   C3A25529  10.795  10.410   8.078
 1867POPC   C4A25530  10.576  10.514   7.711
 1867POPC   C1B25531  10.138  10.751   8.687
 1867POPC   C2B25532   9.982  10.806   8.251
 1867POPC   C3B25533  10.056  10.556   7.872
 1867POPC   C4B25534  10.211  10.188   7.641
 1868POPC   NC325535  18.172   4.663   9.569
 1868POPC   PO425536  17.896   5.293   9.535
 1868POPC   GL125537  18.211   5.099   9.270
 1868POPC   GL225538  18.401   5.396   9.141
 1868POPC   C1A25539  18.310   5.019   8.852
 1868POPC   D2A25540  18.489   5.265   8.540
 1868POPC   C3A25541  18.499   5.070   8.162
 1868POPC   C4A25542  18.407   5.049   7.737
 1868POPC   C1B25543  18.027   5.458   8.919
 1868POPC   C2B25544  17.980   5.406   8.524
 1868POPC   C3B25545  18.132   5.531   8.165
 1868POPC   C4B25546  18.112   5.455   7.740
 1869POPC   NC325547  11.371   5.663   9.572
 1869POPC   PO425548  11.196   6.326   9.665
 1869POPC   GL125549  11.235   6.019   9.246
 1869POPC   GL225550  11.512   5.852   9.133
 1869POPC   C1A25551  11.189   5.951   8.758
 1869POPC   D2A25552  11.082   5.708   8.382
 1869POPC   C3A25553  10.954   5.857   7.996
 1869POPC   C4A25554  11.145   5.894   7.619
 1869POPC   C1B25555  11.728   6.016   8.808
 1869POPC   C2B25556  11.574   6.027   8.385
 1869POPC   C3B25557  11.466   5.913   8.013
 1869POPC   C4B25558  11.611   6.077   7.633
 1870POPC   NC325559  20.097  32.158   9.764
 1870POPC   PO425560  19.717  31.557   9.643
 1870POPC   GL125561  19.863  31.450   9.225
 1870POPC   GL225562  19.612  31.226   9.222
 1870POPC   C1A25563  19.809  31.567   8.766
 1870POPC   D2A25564  19.628  31.764   8.365
 1870POPC   C3A25565  19.879  31.807   7.994
 1870POPC   C4A25566  20.220  31.553   7.827
 1870POPC   C1B25567  19.520  31.114   8.786
 1870POPC   C2B25568  19.486  31.264   8.342
 1870POPC   C3B25569  19.624  31.370   7.889
 1870POPC   C4B25570  19.515  31.554   7.454
 1871POPC   NC325571  27.082  23.204   9.526
 1871POPC   PO425572  26.603  22.776   9.393
 1871POPC   GL125573  26.788  23.071   9.134
 1871POPC   GL225574  27.151  22.988   9.048
 1871POPC   C1A25575  26.691  23.156   8.728
 1871POPC   D2A25576  26.967  23.021   8.396
 1871POPC   C3A25577  26.834  23.116   7.993
 1871POPC   C4A25578  26.926  22.992   7.618
 1871POPC   C1B25579  26.900  22.679   8.791
 1871POPC   C2B25580  26.693  22.579   8.405
 1871POPC   C3B25581  26.795  22.614   7.983
 1871POPC   C4B25582  26.646  22.589   7.585
 1872POPC   NC325583  37.299  10.624   9.537
 1872POPC   PO425584  37.969  10.411   9.400
 1872POPC   GL125585  37.654  10.577   9.167
 1872POPC   GL225586  37.482  10.290   9.185
 1872POPC   C1A25587  37.649  10.683   8.750
 1872POPC   D2A25588  37.931  10.633   8.420
 1872POPC   C3A25589  37.709  10.542   8.054
 1872POPC   C4A25590  37.889  10.406   7.693
 1872POPC   C1B25591  37.280  10.297   8.828
 1872POPC   C2B25592  37.338  10.395   8.420
 1872POPC   C3B25593  37.321  10.190   8.058
 1872POPC   C4B25594  37.306  10.436   7.705
 1873POPC   NC325595   2.701   8.702   9.280
 1873POPC   PO425596   2.667   8.170   9.712
 1873POPC   GL125597   2.345   8.214   9.271
 1873POPC   GL225598   2.377   8.469   8.988
 1873POPC   C1A25599   2.346   8.015   8.790
 1873POPC   D2A25600   2.638   7.950   8.395
 1873POPC   C3A25601   2.576   8.038   7.932
 1873POPC   C4A25602   2.614   8.415   7.649
 1873POPC   C1B25603   2.593   8.479   8.566
 1873POPC   C2B25604   2.925   8.384   8.248
 1873POPC   C3B25605   3.059   8.199   7.841
 1873POPC   C4B25606   3.013   8.148   7.431
 1874POPC   NC325607  38.082  22.490   9.338
 1874POPC   PO425608  37.432  22.262   9.446
 1874POPC   GL125609  37.647  22.358   9.121
 1874POPC   GL225610  37.418  22.515   8.965
 1874POPC   C1A25611  37.842  22.192   8.767
 1874POPC   D2A25612  38.001  22.287   8.402
 1874POPC   C3A25613  37.895  22.056   8.047
 1874POPC   C4A25614  37.808  22.168   7.655
 1874POPC   C1B25615  37.332  22.114   8.769
 1874POPC   C2B25616  37.465  22.010   8.361
 1874POPC   C3B25617  37.422  22.241   7.963
 1874POPC   C4B25618  37.539  22.621   7.718
 1875POPC   NC325619  25.602  36.599   9.435
 1875POPC   PO425620  25.096  37.085   9.488
 1875POPC   GL125621  25.192  36.880   9.158
 1875POPC   GL225622  25.483  37.039   9.101
 1875POPC   C1A25623  25.115  36.992   8.730
 1875POPC   D2A25624  25.339  37.125   8.379
 1875POPC   C3A25625  25.119  37.056   8.017
 1875POPC   C4A25626  25.207  37.115   7.568
 1875POPC   C1B25627  25.595  36.806   8.764
 1875POPC   C2B25628  25.740  36.775   8.353
 1875POPC   C3B25629  25.552  36.794   7.964
 1875POPC   C4B25630  25.570  36.769   7.467
 1876POPC   NC325631  12.062  42.211   9.486
 1876POPC   PO425632  12.579  41.762   9.559
 1876POPC   GL125633  12.419  42.052   9.168
 1876POPC   GL225634  12.376  42.404   9.099
 1876POPC   C1A25635  12.204  42.054   8.759
 1876POPC   D2A25636  11.802  41.992   8.526
 1876POPC   C3A25637  11.894  42.082   8.080
 1876POPC   C4A25638  12.229  42.186   7.814
 1876POPC   C1B25639  12.209  42.614   8.742
 1876POPC   C2B25640  12.017  42.780   8.376
 1876POPC   C3B25641  11.954  42.603   7.993
 1876POPC   C4B25642  11.947  42.746   7.570
 1877POPC   NC325643  24.278   2.444   9.417
 1877POPC   PO425644  24.622   2.969   9.546
 1877POPC   GL125645  24.501   2.893   9.133
 1877POPC   GL225646  24.177   2.866   9.131
 1877POPC   C1A25647  24.437   2.986   8.699
 1877POPC   D2A25648  24.753   2.853   8.432
 1877POPC   C3A25649  24.586   2.726   8.080
 1877POPC   C4A25650  24.235   2.825   7.882
 1877POPC   C1B25651  24.156   2.555   8.785
 1877POPC   C2B25652  24.067   2.540   8.341
 1877POPC   C3B25653  24.107   2.309   7.968
 1877POPC   C4B25654  24.102   2.440   7.547
 1878POPC   NC325655  30.367  15.796   9.607
 1878POPC   PO425656  30.802  16.291   9.705
 1878POPC   GL125657  30.656  16.130   9.235
 1878POPC   GL225658  30.469  15.809   9.108
 1878POPC   C1A25659  30.542  16.161   8.757
 1878POPC   D2A25660  30.676  16.287   8.339
 1878POPC   C3A25661  30.476  16.171   7.955
 1878POPC   C4A25662  30.683  16.030   7.575
 1878POPC   C1B25663  30.607  15.636   8.716
 1878POPC   C2B25664  30.534  15.780   8.319
 1878POPC   C3B25665  30.573  15.663   7.926
 1878POPC   C4B25666  30.242  15.790   7.659
 1879POPC   NC325667  12.400   5.191   9.297
 1879POPC   PO425668  13.029   5.339   9.628
 1879POPC   GL125669  12.931   5.212   9.176
 1879POPC   GL225670  12.711   5.458   9.007
 1879POPC   C1A25671  12.761   4.947   8.797
 1879POPC   D2A25672  12.796   4.693   8.406
 1879POPC   C3A25673  12.908   4.855   7.994
 1879POPC   C4A25674  12.799   4.822   7.572
 1879POPC   C1B25675  12.861   5.403   8.639
 1879POPC   C2B25676  12.738   5.219   8.317
 1879POPC   C3B25677  12.823   5.391   7.947
 1879POPC   C4B25678  13.118   5.268   7.647
 1880POPC   NC325679  20.529  36.894   9.570
 1880POPC   PO425680  20.272  36.428   9.214
 1880POPC   GL125681  20.568  36.727   9.073
 1880POPC   GL225682  20.480  37.102   9.116
 1880POPC   C1A25683  20.762  36.777   8.672
 1880POPC   D2A25684  20.587  36.864   8.267
 1880POPC   C3A25685  20.840  36.850   7.900
 1880POPC   C4A25686  20.909  36.764   7.474
 1880POPC   C1B25687  20.356  37.097   8.703
 1880POPC   C2B25688  20.442  37.351   8.351
 1880POPC   C3B25689  20.529  37.264   7.929
 1880POPC   C4B25690  20.250  36.961   7.858
 1881POPC   NC325691  29.436  38.692   9.425
 1881POPC   PO425692  30.117  38.799   9.411
 1881POPC   GL125693  29.965  38.443   9.136
 1881POPC   GL225694  29.620  38.324   9.116
 1881POPC   C1A25695  30.065  38.211   8.761
 1881POPC   D2A25696  30.018  38.368   8.339
 1881POPC   C3A25697  30.110  38.134   7.963
 1881POPC   C4A25698  30.189  38.321   7.519
 1881POPC   C1B25699  29.672  38.580   8.736
 1881POPC   C2B25700  29.617  38.727   8.317
 1881POPC   C3B25701  29.865  38.657   7.939
 1881POPC   C4B25702  29.775  38.695   7.518
 1882POPC   NC325703  41.190  36.586   9.474
 1882POPC   PO425704  41.675  37.086   9.488
 1882POPC   GL125705  41.387  37.070   9.173
 1882POPC   GL225706  41.417  36.767   9.047
 1882POPC   C1A25707  41.352  37.238   8.781
 1882POPC   D2A25708  41.589  36.996   8.501
 1882POPC   C3A25709  41.632  37.107   8.081
 1882POPC   C4A25710  41.472  36.847   7.778
 1882POPC   C1B25711  41.777  36.627   8.801
 1882POPC   C2B25712  41.812  36.524   8.392
 1882POPC   C3B25713  41.822  36.559   7.974
 1882POPC   C4B25714  41.872  36.436   7.540
 1883POPC   NC325715  26.122   4.457   9.516
 1883POPC   PO425716  25.974   3.824   9.545
 1883POPC   GL125717  25.892   4.099   9.181
 1883POPC   GL225718  26.228   4.180   9.121
 1883POPC   C1A25719  25.962   4.119   8.703
 1883POPC   D2A25720  25.708   4.154   8.322
 1883POPC   C3A25721  25.886   4.401   7.972
 1883POPC   C4A25722  26.334   4.260   7.947
 1883POPC   C1B25723  26.331   4.487   8.803
 1883POPC   C2B25724  26.164   4.515   8.395
 1883POPC   C3B25725  26.266   4.767   8.034
 1883POPC   C4B25726  26.292   4.641   7.608
 1884POPC   NC325727  12.279   5.449   9.763
 1884POPC   PO425728  11.966   5.000   9.352
 1884POPC   GL125729  11.980   5.211   9.016
 1884POPC   GL225730  11.639   5.352   9.100
 1884POPC   C1A25731  12.294   5.183   8.651
 1884POPC   D2A25732  12.324   4.875   8.307
 1884POPC   C3A25733  12.438   5.024   7.910
 1884POPC   C4A25734  12.264   4.902   7.512
 1884POPC   C1B25735  11.596   5.086   8.733
 1884POPC   C2B25736  11.847   5.089   8.390
 1884POPC   C3B25737  11.979   5.194   8.001
 1884POPC   C4B25738  11.713   5.137   7.690
 1885POPC   NC325739  36.526  31.804   9.582
 1885POPC   PO425740  36.052  31.325   9.573
 1885POPC   GL125741  36.035  31.516   9.208
 1885POPC   GL225742  36.382  31.493   9.181
 1885POPC   C1A25743  35.960  31.647   8.804
 1885POPC   D2A25744  36.110  31.572   8.414
 1885POPC   C3A25745  35.887  31.474   8.065
 1885POPC   C4A25746  35.930  31.350   7.665
 1885POPC   C1B25747  36.492  31.633   8.778
 1885POPC   C2B25748  36.591  31.412   8.387
 1885POPC   C3B25749  36.418  31.416   7.964
 1885POPC   C4B25750  36.487  31.750   7.654
 1886POPC   NC325751  16.823  30.269   9.564
 1886POPC   PO425752  16.902  29.657   9.498
 1886POPC   GL125753  16.908  29.790   9.101
 1886POPC   GL225754  16.571  29.934   9.109
 1886POPC   C1A25755  16.769  29.644   8.708
 1886POPC   D2A25756  16.572  29.795   8.340
 1886POPC   C3A25757  16.751  29.677   7.971
 1886POPC   C4A25758  16.889  29.872   7.610
 1886POPC   C1B25759  16.526  30.249   8.756
 1886POPC   C2B25760  16.423  30.303   8.300
 1886POPC   C3B25761  16.486  30.124   7.847
 1886POPC   C4B25762  16.378  29.850   7.461
 1887POPC   NC325763  11.383  19.500   9.494
 1887POPC   PO425764  11.104  18.870   9.475
 1887POPC   GL125765  11.128  19.149   9.146
 1887POPC   GL225766  11.511  19.200   9.109
 1887POPC   C1A25767  10.899  19.000   8.773
 1887POPC   D2A25768  11.085  18.907   8.388
 1887POPC   C3A25769  10.891  18.897   7.991
 1887POPC   C4A25770  11.204  18.795   7.684
 1887POPC   C1B25771  11.353  19.239   8.703
 1887POPC   C2B25772  11.308  19.436   8.345
 1887POPC   C3B25773  11.324  19.179   7.998
 1887POPC   C4B25774  11.668  18.995   7.796
 1888POPC   NC325775  39.210   2.906   9.524
 1888POPC   PO425776  38.719   2.348   9.573
 1888POPC   GL125777  38.960   2.521   9.223
 1888POPC   GL225778  39.272   2.709   9.065
 1888POPC   C1A25779  38.919   2.468   8.774
 1888POPC   D2A25780  39.175   2.518   8.400
 1888POPC   C3A25781  38.936   2.541   8.007
 1888POPC   C4A25782  39.016   2.757   7.595
 1888POPC   C1B25783  39.075   2.972   8.730
 1888POPC   C2B25784  38.963   2.978   8.281
 1888POPC   C3B25785  39.314   2.892   7.987
 1888POPC   C4B25786  39.512   2.966   7.572
 1889POPC   NC325787  38.966  36.502   9.546
 1889POPC   PO425788  39.338  35.940   9.669
 1889POPC   GL125789  39.252  35.893   9.226
 1889POPC   GL225790  39.043  36.171   9.117
 1889POPC   C1A25791  39.423  35.913   8.801
 1889POPC   D2A25792  39.527  36.139   8.428
 1889POPC   C3A25793  39.173  36.072   8.161
 1889POPC   C4A25794  39.162  36.120   7.717
 1889POPC   C1B25795  39.075  36.265   8.652
 1889POPC   C2B25796  38.898  36.549   8.330
 1889POPC   C3B25797  38.891  36.743   7.940
 1889POPC   C4B25798  39.093  36.610   7.589
 1890POPC   NC325799  10.297  43.938   9.591
 1890POPC   PO425800  10.971  43.979   9.536
 1890POPC   GL125801  10.690  43.950   9.197
 1890POPC   GL225802  10.517  43.623   9.158
 1890POPC   C1A25803  10.790  43.861   8.752
 1890POPC   D2A25804  10.864  44.085   8.363
 1890POPC   C3A25805  10.647  43.984   7.993
 1890POPC   C4A25806  10.338  44.148   7.741
 1890POPC   C1B25807  10.301  43.954   8.876
 1890POPC   C2B25808  10.124  43.887   8.508
 1890POPC   C3B25809  10.119  43.854   8.087
 1890POPC   C4B25810  10.132  43.697   7.671
 1891POPC   NC325811  15.471  19.190   9.516
 1891POPC   PO425812  14.844  19.064   9.542
 1891POPC   GL125813  15.151  18.996   9.168
 1891POPC   GL225814  15.040  19.286   9.002
 1891POPC   C1A25815  15.392  19.082   8.729
 1891POPC   D2A25816  15.185  19.076   8.323
 1891POPC   C3A25817  15.232  19.371   8.000
 1891POPC   C4A25818  15.316  19.079   7.710
 1891POPC   C1B25819  14.919  18.890   8.735
 1891POPC   C2B25820  14.936  18.626   8.365
 1891POPC   C3B25821  14.871  18.787   7.951
 1891POPC   C4B25822  14.970  18.726   7.506
 1892POPC   NC325823  34.043  35.599   9.481
 1892POPC   PO425824  33.473  35.289   9.537
 1892POPC   GL125825  33.521  35.324   9.094
 1892POPC   GL225826  33.887  35.416   9.037
 1892POPC   C1A25827  33.535  35.433   8.650
 1892POPC   D2A25828  33.963  35.502   8.516
 1892POPC   C3A25829  34.031  35.494   8.095
 1892POPC   C4A25830  33.637  35.632   7.858
 1892POPC   C1B25831  33.888  35.064   8.770
 1892POPC   C2B25832  33.974  35.000   8.345
 1892POPC   C3B25833  33.732  35.117   7.975
 1892POPC   C4B25834  33.951  35.269   7.640
 1893POPC   NC325835  26.131  21.458   9.683
 1893POPC   PO425836  26.552  21.790   9.324
 1893POPC   GL125837  26.248  21.481   9.157
 1893POPC   GL225838  25.966  21.243   9.228
 1893POPC   C1A25839  26.159  21.300   8.752
 1893POPC   D2A25840  26.272  21.550   8.410
 1893POPC   C3A25841  26.273  21.395   8.008
 1893POPC   C4A25842  26.486  21.630   7.705
 1893POPC   C1B25843  25.794  21.603   8.947
 1893POPC   C2B25844  25.731  21.523   8.528
 1893POPC   C3B25845  25.600  21.629   8.125
 1893POPC   C4B25846  25.827  21.646   7.752
 1894POPC   NC325847  35.393  24.601   9.452
 1894POPC   PO425848  35.224  25.284   9.363
 1894POPC   GL125849  35.419  25.334   9.009
 1894POPC   GL225850  35.623  25.038   9.100
 1894POPC   C1A25851  35.260  25.229   8.599
 1894POPC   D2A25852  35.092  24.859   8.373
 1894POPC   C3A25853  35.200  24.965   7.960
 1894POPC   C4A25854  35.323  25.428   7.975
 1894POPC   C1B25855  35.652  24.919   8.672
 1894POPC   C2B25856  35.640  25.124   8.281
 1894POPC   C3B25857  35.686  25.082   7.851
 1894POPC   C4B25858  35.752  24.997   7.425
 1895POPC   NC325859  18.539   3.760   9.790
 1895POPC   PO425860  17.969   3.456   9.487
 1895POPC   GL125861  18.127   3.614   9.152
 1895POPC   GL225862  18.435   3.750   9.273
 1895POPC   C1A25863  18.137   3.481   8.750
 1895POPC   D2A25864  18.186   3.735   8.422
 1895POPC   C3A25865  18.095   3.555   8.066
 1895POPC   C4A25866  18.120   3.537   7.655
 1895POPC   C1B25867  18.580   3.704   8.838
 1895POPC   C2B25868  18.657   3.520   8.437
 1895POPC   C3B25869  18.590   3.576   7.999
 1895POPC   C4B25870  18.561   3.299   7.643
 1896POPC   NC325871  40.413  30.815   9.867
 1896POPC   PO425872  40.986  30.626   9.541
 1896POPC   GL125873  40.789  30.749   9.160
 1896POPC   GL225874  41.126  30.664   8.990
 1896POPC   C1A25875  40.687  30.725   8.709
 1896POPC   D2A25876  40.994  30.515   8.441
 1896POPC   C3A25877  40.835  30.367   8.042
 1896POPC   C4A25878  40.483  30.642   7.968
 1896POPC   C1B25879  41.003  31.107   8.845
 1896POPC   C2B25880  40.856  31.178   8.436
 1896POPC   C3B25881  40.875  30.944   8.116
 1896POPC   C4B25882  41.016  30.776   7.777
 1897POPC   NC325883  39.782   5.270   9.701
 1897POPC   PO425884  39.804   4.708   9.752
 1897POPC   GL125885  39.926   4.949   9.307
 1897POPC   GL225886  39.989   5.309   9.207
 1897POPC   C1A25887  39.904   4.976   8.832
 1897POPC   D2A25888  39.781   5.047   8.385
 1897POPC   C3A25889  40.154   5.066   8.099
 1897POPC   C4A25890  40.209   5.050   7.635
 1897POPC   C1B25891  40.186   5.436   8.782
 1897POPC   C2B25892  40.111   5.548   8.321
 1897POPC   C3B25893  40.247   5.508   7.861
 1897POPC   C4B25894  40.028   5.494   7.435
 1898POPC   NC325895   6.054  29.822   9.529
 1898POPC   PO425896   5.363  29.967   9.604
 1898POPC   GL125897   5.638  29.904   9.277
 1898POPC   GL225898   5.678  30.192   9.134
 1898POPC   C1A25899   5.832  29.755   8.881
 1898POPC   D2A25900   5.960  30.014   8.497
 1898POPC   C3A25901   6.011  29.834   8.065
 1898POPC   C4A25902   5.745  29.501   7.856
 1898POPC   C1B25903   5.523  30.139   8.760
 1898POPC   C2B25904   5.450  30.190   8.364
 1898POPC   C3B25905   5.513  29.924   8.038
 1898POPC   C4B25906   5.452  29.862   7.617
 1899POPC   NC325907  38.195  16.882   9.318
 1899POPC   PO425908  38.741  16.451   9.466
 1899POPC   GL125909  38.465  16.450   9.142
 1899POPC   GL225910  38.101  16.434   9.135
 1899POPC   C1A25911  38.541  16.621   8.768
 1899POPC   D2A25912  38.681  16.432   8.410
 1899POPC   C3A25913  38.642  16.729   8.091
 1899POPC   C4A25914  38.586  16.934   7.722
 1899POPC   C1B25915  38.025  16.713   8.748
 1899POPC   C2B25916  38.204  16.624   8.375
 1899POPC   C3B25917  38.122  16.628   7.978
 1899POPC   C4B25918  38.139  16.745   7.539
 1900POPC   NC325919  20.037  39.255   9.716
 1900POPC   PO425920  20.784  39.241   9.590
 1900POPC   GL125921  20.508  39.192   9.245
 1900POPC   GL225922  20.247  38.969   9.156
 1900POPC   C1A25923  20.656  39.159   8.833
 1900POPC   D2A25924  20.725  39.383   8.481
 1900POPC   C3A25925  20.690  39.254   8.068
 1900POPC   C4A25926  20.665  39.452   7.660
 1900POPC   C1B25927  20.360  38.760   8.809
 1900POPC   C2B25928  20.547  38.857   8.408
 1900POPC   C3B25929  20.310  38.907   8.024
 1900POPC   C4B25930  20.142  39.013   7.625
 1901POPC   NC325931  35.592   4.160   9.515
 1901POPC   PO425932  35.016   4.518   9.438
 1901POPC   GL125933  35.287   4.357   9.136
 1901POPC   GL225934  35.555   4.596   9.202
 1901POPC   C1A25935  35.513   4.150   8.809
 1901POPC   D2A25936  35.475   3.887   8.443
 1901POPC   C3A25937  35.483   4.085   8.052
 1901POPC   C4A25938  35.247   4.308   7.760
 1901POPC   C1B25939  35.529   4.678   8.760
 1901POPC   C2B25940  35.358   4.626   8.348
 1901POPC   C3B25941  35.600   4.618   7.985
 1901POPC   C4B25942  35.720   4.439   7.609
 1902POPC   NC325943  27.822  20.990   9.465
 1902POPC   PO425944  27.426  21.530   9.484
 1902POPC   GL125945  27.643  21.421   9.160
 1902POPC   GL225946  27.913  21.645   9.131
 1902POPC   C1A25947  27.748  21.317   8.753
 1902POPC   D2A25948  27.910  21.198   8.370
 1902POPC   C3A25949  27.609  21.298   8.049
 1902POPC   C4A25950  27.477  21.348   7.622
 1902POPC   C1B25951  28.000  21.769   8.745
 1902POPC   C2B25952  27.794  21.696   8.355
 1902POPC   C3B25953  27.930  21.728   7.969
 1902POPC   C4B25954  27.853  21.864   7.542
 1903POPC   NC325955  22.540   6.400   9.518
 1903POPC   PO425956  22.410   7.066   9.610
 1903POPC   GL125957  22.252   6.766   9.304
 1903POPC   GL225958  21.944   6.909   9.168
 1903POPC   C1A25959  22.079   6.457   8.984
 1903POPC   D2A25960  21.980   6.474   8.521
 1903POPC   C3A25961  22.290   6.343   8.211
 1903POPC   C4A25962  22.196   6.296   7.769
 1903POPC   C1B25963  22.235   6.906   8.815
 1903POPC   C2B25964  22.366   6.835   8.405
 1903POPC   C3B25965  22.051   6.805   8.088
 1903POPC   C4B25966  22.185   7.023   7.727
 1904POPC   NC325967   4.544  18.331   9.511
 1904POPC   PO425968   3.973  17.980   9.487
 1904POPC   GL125969   4.199  18.099   9.145
 1904POPC   GL225970   4.181  18.391   9.105
 1904POPC   C1A25971   4.571  18.187   8.860
 1904POPC   D2A25972   4.601  18.265   8.435
 1904POPC   C3A25973   4.339  18.064   8.111
 1904POPC   C4A25974   4.461  18.184   7.694
 1904POPC   C1B25975   4.089  18.347   8.698
 1904POPC   C2B25976   4.165  18.494   8.312
 1904POPC   C3B25977   3.976  18.475   7.904
 1904POPC   C4B25978   4.060  18.435   7.472
 1905POPC   NC325979   9.895   9.662   9.393
 1905POPC   PO425980   9.342  10.138   9.471
 1905POPC   GL125981   9.568   9.983   9.106
 1905POPC   GL225982   9.903  10.101   9.137
 1905POPC   C1A25983   9.736   9.839   8.675
 1905POPC   D2A25984   9.956   9.677   8.312
 1905POPC   C3A25985   9.735   9.405   7.981
 1905POPC   C4A25986   9.949   9.346   7.512
 1905POPC   C1B25987  10.114  10.153   8.762
 1905POPC   C2B25988   9.966  10.308   8.379
 1905POPC   C3B25989   9.843  10.093   8.049
 1905POPC   C4B25990   9.937   9.798   7.785
 1906POPC   NC325991  37.395  35.062   9.264
 1906POPC   PO425992  37.829  35.627   9.473
 1906POPC   GL125993  37.664  35.459   9.121
 1906POPC   GL225994  37.382  35.645   9.128
 1906POPC   C1A25995  37.813  35.238   8.745
 1906POPC   D2A25996  38.112  35.299   8.415
 1906POPC   C3A25997  37.920  35.351   8.005
 1906POPC   C4A25998  37.785  35.040   7.737
 1906POPC   C1B25999  37.309  35.492   8.713
 1906POPC   C2B26000  37.389  35.187   8.393
 1906POPC   C3B26001  37.285  35.078   7.939
 1906POPC   C4B26002  37.389  35.179   7.485
 1907POPC   NC326003  25.073   3.107   9.519
 1907POPC   PO426004  25.396   2.579   9.670
 1907POPC   GL126005  25.330   2.705   9.220
 1907POPC   GL226006  25.562   2.449   9.084
 1907POPC   C1A26007  25.261   2.717   8.756
 1907POPC   D2A26008  25.257   2.934   8.376
 1907POPC   C3A26009  25.072   2.851   7.998
 1907POPC   C4A26010  25.197   2.706   7.626
 1907POPC   C1B26011  25.800   2.616   8.764
 1907POPC   C2B26012  25.681   2.470   8.405
 1907POPC   C3B26013  25.485   2.557   8.042
 1907POPC   C4B26014  25.693   2.609   7.656
 1908POPC   NC326015  20.832  10.279   9.478
 1908POPC   PO426016  20.717  10.942   9.487
 1908POPC   GL126017  20.692  10.642   9.135
 1908POPC   GL226018  20.955  10.788   8.999
 1908POPC   C1A26019  20.809  10.336   8.769
 1908POPC   D2A26020  21.045  10.141   8.398
 1908POPC   C3A26021  20.847  10.296   8.036
 1908POPC   C4A26022  20.684  10.196   7.659
 1908POPC   C1B26023  20.702  10.837   8.660
 1908POPC   C2B26024  20.760  10.750   8.244
 1908POPC   C3B26025  20.770  10.939   7.894
 1908POPC   C4B26026  20.584  10.708   7.589
 1909POPC   NC326027  37.113  29.667   9.438
 1909POPC   PO426028  36.654  30.016   9.737
 1909POPC   GL126029  36.688  29.886   9.221
 1909POPC   GL226030  36.984  30.044   9.109
 1909POPC   C1A26031  36.815  29.703   8.759
 1909POPC   D2A26032  36.644  29.727   8.318
 1909POPC   C3A26033  36.898  29.836   7.953
 1909POPC   C4A26034  36.894  29.943   7.521
 1909POPC   C1B26035  37.266  30.012   8.785
 1909POPC   C2B26036  37.141  30.021   8.390
 1909POPC   C3B26037  37.210  30.234   8.023
 1909POPC   C4B26038  37.402  30.031   7.712
 1910POPC   NC326039  15.783  23.410   9.445
 1910POPC   PO426040  15.919  22.710   9.527
 1910POPC   GL126041  15.906  22.981   9.180
 1910POPC   GL226042  15.711  22.781   8.927
 1910POPC   C1A26043  16.022  23.224   8.826
 1910POPC   D2A26044  15.963  23.047   8.422
 1910POPC   C3A26045  15.686  23.223   8.130
 1910POPC   C4A26046  15.674  23.073   7.709
 1910POPC   C1B26047  16.151  22.706   8.769
 1910POPC   C2B26048  16.302  22.658   8.309
 1910POPC   C3B26049  16.312  22.875   7.877
 1910POPC   C4B26050  16.314  22.795   7.407
 1911POPC   NC326051   3.666  33.516   9.536
 1911POPC   PO426052   3.506  32.933   9.804
 1911POPC   GL126053   3.600  32.975   9.319
 1911POPC   GL226054   3.684  33.277   9.093
 1911POPC   C1A26055   3.372  32.922   8.898
 1911POPC   D2A26056   3.254  33.107   8.486
 1911POPC   C3A26057   3.449  32.896   8.132
 1911POPC   C4A26058   3.501  32.801   7.710
 1911POPC   C1B26059   3.611  33.449   8.682
 1911POPC   C2B26060   3.708  33.306   8.280
 1911POPC   C3B26061   3.511  33.349   7.878
 1911POPC   C4B26062   3.755  33.516   7.579
 1912POPC   NC326063   7.276  25.131   9.473
 1912POPC   PO426064   7.042  25.702   9.618
 1912POPC   GL126065   7.172  25.534   9.159
 1912POPC   GL226066   7.474  25.363   8.999
 1912POPC   C1A26067   7.050  25.430   8.735
 1912POPC   D2A26068   6.898  25.348   8.368
 1912POPC   C3A26069   7.143  25.353   8.020
 1912POPC   C4A26070   7.161  25.012   7.769
 1912POPC   C1B26071   7.428  25.106   8.585
 1912POPC   C2B26072   7.528  24.986   8.135
 1912POPC   C3B26073   7.668  25.027   7.688
 1912POPC   C4B26074   7.878  24.765   7.376
 1913POPC   NC326075  44.149  42.936   9.378
 1913POPC   PO426076  43.766  43.304   9.755
 1913POPC   GL126077  43.757  43.221   9.257
 1913POPC   GL226078  43.665  43.485   9.039
 1913POPC   C1A26079  43.990  43.205   8.794
 1913POPC   D2A26080  44.029  42.885   8.444
 1913POPC   C3A26081  44.023  42.995   7.969
 1913POPC   C4A26082  44.271  43.326   7.794
 1913POPC   C1B26083  43.518  43.048   8.855
 1913POPC   C2B26084  43.413  43.099   8.458
 1913POPC   C3B26085  43.563  43.186   8.091
 1913POPC   C4B26086  43.550  42.901   7.749
 1914POPC   NC326087  33.823  16.154   9.512
 1914POPC   PO426088  33.954  15.457   9.443
 1914POPC   GL126089  33.799  15.811   9.122
 1914POPC   GL226090  33.940  16.181   9.034
 1914POPC   C1A26091  33.603  15.948   8.741
 1914POPC   D2A26092  33.818  15.875   8.327
 1914POPC   C3A26093  33.723  15.964   7.904
 1914POPC   C4A26094  33.674  15.995   7.443
 1914POPC   C1B26095  33.986  16.300   8.608
 1914POPC   C2B26096  33.972  16.341   8.146
 1914POPC   C3B26097  33.808  16.444   7.735
 1914POPC   C4B26098  33.638  16.501   7.340
 1915POPC   NC326099  19.503   9.448   9.414
 1915POPC   PO426100  19.726   8.778   9.553
 1915POPC   GL126101  19.846   8.878   9.150
 1915POPC   GL226102  19.799   9.217   9.051
 1915POPC   C1A26103  19.753   8.704   8.749
 1915POPC   D2A26104  19.512   8.677   8.377
 1915POPC   C3A26105  19.749   8.671   8.023
 1915POPC   C4A26106  19.916   8.550   7.644
 1915POPC   C1B26107  19.700   9.188   8.612
 1915POPC   C2B26108  19.681   9.172   8.165
 1915POPC   C3B26109  19.777   9.227   7.731
 1915POPC   C4B26110  19.583   9.418   7.351
 1916POPC   NC326111  33.031  16.211   9.439
 1916POPC   PO426112  33.526  15.755   9.549
 1916POPC   GL126113  33.276  15.832   9.151
 1916POPC   GL226114  33.018  15.563   9.094
 1916POPC   C1A26115  33.107  16.107   8.796
 1916POPC   D2A26116  32.774  16.195   8.499
 1916POPC   C3A26117  32.952  16.199   8.096
 1916POPC   C4A26118  32.905  15.882   7.784
 1916POPC   C1B26119  33.188  15.622   8.659
 1916POPC   C2B26120  33.291  15.829   8.232
 1916POPC   C3B26121  33.345  15.670   7.772
 1916POPC   C4B26122  33.516  15.532   7.325
 1917POPC   NC326123  33.407  26.787   9.460
 1917POPC   PO426124  32.938  27.165   9.562
 1917POPC   GL126125  33.015  26.981   9.179
 1917POPC   GL226126  32.745  26.756   9.122
 1917POPC   C1A26127  33.131  26.864   8.776
 1917POPC   D2A26128  32.874  26.816   8.408
 1917POPC   C3A26129  33.017  26.936   8.005
 1917POPC   C4A26130  32.810  27.052   7.623
 1917POPC   C1B26131  32.890  26.425   8.791
 1917POPC   C2B26132  33.232  26.443   8.468
 1917POPC   C3B26133  33.267  26.450   7.995
 1917POPC   C4B26134  33.002  26.565   7.626
 1918POPC   NC326135  23.768  22.888   9.621
 1918POPC   PO426136  23.296  23.219   9.428
 1918POPC   GL126137  23.653  23.182   9.154
 1918POPC   GL226138  23.735  22.853   9.104
 1918POPC   C1A26139  23.828  23.143   8.726
 1918POPC   D2A26140  23.846  23.324   8.378
 1918POPC   C3A26141  23.863  23.081   8.023
 1918POPC   C4A26142  23.672  23.125   7.640
 1918POPC   C1B26143  23.726  22.642   8.738
 1918POPC   C2B26144  23.574  22.721   8.340
 1918POPC   C3B26145  23.415  22.792   7.932
 1918POPC   C4B26146  23.556  22.644   7.525
 1919POPC   NC326147  38.919   8.562   9.470
 1919POPC   PO426148  39.335   9.111   9.674
 1919POPC   GL126149  39.258   8.962   9.258
 1919POPC   GL226150  38.905   9.082   9.215
 1919POPC   C1A26151  39.520   8.798   8.873
 1919POPC   D2A26152  39.411   8.612   8.491
 1919POPC   C3A26153  39.338   8.816   8.093
 1919POPC   C4A26154  39.048   8.748   7.757
 1919POPC   C1B26155  39.036   8.887   8.811
 1919POPC   C2B26156  39.294   9.135   8.510
 1919POPC   C3B26157  39.289   9.332   8.097
 1919POPC   C4B26158  38.965   9.376   7.791
 1920POPC   NC326159   5.866  27.281   9.381
 1920POPC   PO426160   6.110  26.652   9.481
 1920POPC   GL126161   5.914  26.861   9.087
 1920POPC   GL226162   5.977  27.206   8.909
 1920POPC   C1A26163   5.638  26.843   8.715
 1920POPC   D2A26164   5.412  26.755   8.321
 1920POPC   C3A26165   5.719  26.555   7.961
 1920POPC   C4A26166   5.727  26.595   7.480
 1920POPC   C1B26167   6.113  27.019   8.574
 1920POPC   C2B26168   5.869  26.949   8.226
 1920POPC   C3B26169   5.854  27.029   7.794
 1920POPC   C4B26170   6.200  27.292   7.683
 1921POPC   NC326171   0.695  35.118   9.471
 1921POPC   PO426172  44.953  35.223   9.536
 1921POPC   GL126173   0.284  35.272   9.183
 1921POPC   GL226174   0.433  34.991   9.060
 1921POPC   C1A26175   0.426  35.497   8.808
 1921POPC   D2A26176   0.483  35.386   8.375
 1921POPC   C3A26177   0.734  35.581   8.041
 1921POPC   C4A26178   0.489  35.529   7.671
 1921POPC   C1B26179   0.213  35.025   8.687
 1921POPC   C2B26180   0.376  34.882   8.308
 1921POPC   C3B26181   0.554  35.081   7.958
 1921POPC   C4B26182   0.295  35.061   7.616
 1922POPC   NC326183  30.407  21.123   9.554
 1922POPC   PO426184  30.426  21.770   9.502
 1922POPC   GL126185  30.634  21.476   9.218
 1922POPC   GL226186  30.308  21.332   9.107
 1922POPC   C1A26187  30.949  21.492   8.858
 1922POPC   D2A26188  31.020  21.298   8.442
 1922POPC   C3A26189  30.847  21.425   8.064
 1922POPC   C4A26190  30.419  21.427   7.914
 1922POPC   C1B26191  30.345  21.025   8.787
 1922POPC   C2B26192  30.503  21.170   8.392
 1922POPC   C3B26193  30.631  20.970   8.028
 1922POPC   C4B26194  30.557  21.009   7.592
 1923POPC   NC326195   9.744   2.344   9.473
 1923POPC   PO426196  10.125   1.836   9.549
 1923POPC   GL126197   9.932   1.931   9.153
 1923POPC   GL226198  10.133   2.175   9.113
 1923POPC   C1A26199   9.746   1.827   8.732
 1923POPC   D2A26200   9.932   1.674   8.347
 1923POPC   C3A26201   9.792   1.914   8.009
 1923POPC   C4A26202   9.461   2.158   7.817
 1923POPC   C1B26203   9.863   2.337   8.786
 1923POPC   C2B26204   9.714   2.312   8.382
 1923POPC   C3B26205   9.895   2.410   7.992
 1923POPC   C4B26206   9.889   2.289   7.558
 1924POPC   NC326207   4.665  38.846   9.639
 1924POPC   PO426208   4.234  38.337   9.618
 1924POPC   GL126209   4.252  38.520   9.207
 1924POPC   GL226210   4.611  38.577   9.177
 1924POPC   C1A26211   3.992  38.559   8.805
 1924POPC   D2A26212   3.883  38.708   8.389
 1924POPC   C3A26213   4.004  38.404   8.068
 1924POPC   C4A26214   4.066  38.146   7.686
 1924POPC   C1B26215   4.446  38.765   8.788
 1924POPC   C2B26216   4.374  38.853   8.348
 1924POPC   C3B26217   4.395  38.705   7.908
 1924POPC   C4B26218   4.583  38.859   7.525
 1925POPC   NC326219  10.351  20.810   9.543
 1925POPC   PO426220  10.490  20.159   9.424
 1925POPC   GL126221  10.545  20.501   9.135
 1925POPC   GL226222  10.785  20.815   9.218
 1925POPC   C1A26223  10.285  20.456   8.736
 1925POPC   D2A26224  10.127  20.208   8.369
 1925POPC   C3A26225  10.321  20.359   7.986
 1925POPC   C4A26226  10.768  20.444   7.931
 1925POPC   C1B26227  10.568  20.878   8.799
 1925POPC   C2B26228  10.619  20.694   8.382
 1925POPC   C3B26229  10.490  20.869   7.979
 1925POPC   C4B26230  10.723  20.899   7.583
 1926POPC   NC326231  42.173  10.377   9.599
 1926POPC   PO426232  42.323  10.975   9.342
 1926POPC   GL126233  42.131  10.600   9.136
 1926POPC   GL226234  41.973  10.255   9.137
 1926POPC   C1A26235  42.274  10.601   8.754
 1926POPC   D2A26236  42.409  10.925   8.487
 1926POPC   C3A26237  42.130  10.875   8.153
 1926POPC   C4A26238  42.233  10.840   7.762
 1926POPC   C1B26239  42.041  10.144   8.695
 1926POPC   C2B26240  42.188  10.365   8.314
 1926POPC   C3B26241  42.137  10.338   7.886
 1926POPC   C4B26242  42.332  10.412   7.496
 1927POPC   NC326243  12.190  39.396   9.598
 1927POPC   PO426244  11.730  38.977   9.605
 1927POPC   GL126245  11.855  39.246   9.230
 1927POPC   GL226246  12.073  38.984   9.137
 1927POPC   C1A26247  12.063  39.355   8.798
 1927POPC   D2A26248  12.108  39.152   8.396
 1927POPC   C3A26249  11.858  39.319   8.083
 1927POPC   C4A26250  11.976  39.637   7.820
 1927POPC   C1B26251  12.251  38.751   8.788
 1927POPC   C2B26252  12.419  38.759   8.347
 1927POPC   C3B26253  12.434  38.934   7.946
 1927POPC   C4B26254  12.087  39.126   7.670
 1928POPC   NC326255   7.997  12.929   9.524
 1928POPC   PO426256   8.617  13.113   9.551
 1928POPC   GL126257   8.442  13.075   9.082
 1928POPC   GL226258   8.205  12.854   9.068
 1928POPC   C1A26259   8.497  12.915   8.648
 1928POPC   D2A26260   8.297  13.002   8.258
 1928POPC   C3A26261   8.447  12.780   7.900
 1928POPC   C4A26262   8.420  12.963   7.518
 1928POPC   C1B26263   7.991  12.753   8.701
 1928POPC   C2B26264   7.820  12.608   8.368
 1928POPC   C3B26265   7.972  12.654   8.030
 1928POPC   C4B26266   7.955  12.881   7.733
 1929POPC   NC326267  12.669  28.123   9.458
 1929POPC   PO426268  13.296  28.406   9.574
 1929POPC   GL126269  12.955  28.464   9.210
 1929POPC   GL226270  12.629  28.621   9.184
 1929POPC   C1A26271  12.801  28.310   8.791
 1929POPC   D2A26272  12.917  28.391   8.355
 1929POPC   C3A26273  12.704  28.265   7.960
 1929POPC   C4A26274  12.784  28.439   7.522
 1929POPC   C1B26275  12.589  28.767   8.744
 1929POPC   C2B26276  12.427  28.605   8.306
 1929POPC   C3B26277  12.410  28.657   7.815
 1929POPC   C4B26278  12.360  28.695   7.322
 1930POPC   NC326279  32.015  37.878   9.648
 1930POPC   PO426280  31.793  37.312   9.823
 1930POPC   GL126281  31.917  37.494   9.314
 1930POPC   GL226282  32.192  37.776   9.190
 1930POPC   C1A26283  31.945  37.556   8.821
 1930POPC   D2A26284  32.021  37.798   8.463
 1930POPC   C3A26285  32.173  37.702   8.070
 1930POPC   C4A26286  32.129  37.886   7.661
 1930POPC   C1B26287  32.433  37.712   8.796
 1930POPC   C2B26288  32.532  37.903   8.398
 1930POPC   C3B26289  32.645  37.872   7.983
 1930POPC   C4B26290  32.633  37.783   7.555
 1931POPC   NC326291   0.025  30.200   9.551
 1931POPC   PO426292   0.059  29.674   9.107
 1931POPC   GL126293  44.691  30.039   9.163
 1931POPC   GL226294  44.271  30.067   9.184
 1931POPC   C1A26295  44.508  30.254   8.790
 1931POPC   D2A26296  44.484  29.991   8.418
 1931POPC   C3A26297  44.609  30.081   7.999
 1931POPC   C4A26298  44.881  29.807   7.728
 1931POPC   C1B26299  44.218  29.766   8.842
 1931POPC   C2B26300  44.065  29.718   8.430
 1931POPC   C3B26301  44.229  29.674   8.029
 1931POPC   C4B26302  44.286  29.889   7.657
 1932POPC   NC326303  21.605  21.501   9.576
 1932POPC   PO426304  21.215  20.950   9.610
 1932POPC   GL126305  21.527  21.099   9.234
 1932POPC   GL226306  21.411  21.422   9.090
 1932POPC   C1A26307  21.760  21.236   8.801
 1932POPC   D2A26308  21.726  21.267   8.350
 1932POPC   C3A26309  21.278  21.285   8.230
 1932POPC   C4A26310  20.981  21.159   7.860
 1932POPC   C1B26311  21.366  21.693   8.748
 1932POPC   C2B26312  21.557  21.816   8.383
 1932POPC   C3B26313  21.641  21.655   7.995
 1932POPC   C4B26314  21.256  21.596   7.823
 1933POPC   NC326315  28.176  43.341   9.633
 1933POPC   PO426316  28.609  42.913   9.499
 1933POPC   GL126317  28.474  42.897   9.090
 1933POPC   GL226318  28.365  43.248   9.106
 1933POPC   C1A26319  28.404  42.984   8.653
 1933POPC   D2A26320  28.314  42.963   8.223
 1933POPC   C3A26321  28.473  42.771   7.884
 1933POPC   C4A26322  28.698  42.962   7.515
 1933POPC   C1B26323  28.041  43.323   8.770
 1933POPC   C2B26324  28.092  43.380   8.359
 1933POPC   C3B26325  28.258  43.386   7.945
 1933POPC   C4B26326  28.077  43.521   7.563
 1934POPC   NC326327   4.052  11.702   9.586
 1934POPC   PO426328   4.312  11.021   9.570
 1934POPC   GL126329   4.318  11.291   9.137
 1934POPC   GL226330   4.010  11.502   9.127
 1934POPC   C1A26331   4.246  11.120   8.730
 1934POPC   D2A26332   4.461  11.121   8.363
 1934POPC   C3A26333   4.206  11.018   8.022
 1934POPC   C4A26334   4.397  11.191   7.693
 1934POPC   C1B26335   4.163  11.626   8.738
 1934POPC   C2B26336   4.079  11.455   8.343
 1934POPC   C3B26337   4.223  11.585   7.960
 1934POPC   C4B26338   4.006  11.669   7.596
 1935POPC   NC326339  22.488  19.507   9.349
 1935POPC   PO426340  21.915  19.455   9.694
 1935POPC   GL126341  22.102  19.079   9.320
 1935POPC   GL226342  22.455  18.997   9.195
 1935POPC   C1A26343  22.042  18.953   8.857
 1935POPC   D2A26344  22.355  18.819   8.500
 1935POPC   C3A26345  22.257  18.966   8.065
 1935POPC   C4A26346  21.873  19.026   7.811
 1935POPC   C1B26347  22.460  19.237   8.789
 1935POPC   C2B26348  22.502  19.316   8.377
 1935POPC   C3B26349  22.539  19.409   7.951
 1935POPC   C4B26350  22.243  19.361   7.626
 1936POPC   NC326351  36.737  23.533   9.477
 1936POPC   PO426352  37.220  24.026   9.487
 1936POPC   GL126353  37.291  23.843   9.103
 1936POPC   GL226354  37.172  23.504   9.121
 1936POPC   C1A26355  37.008  23.889   8.759
 1936POPC   D2A26356  36.781  23.949   8.391
 1936POPC   C3A26357  36.938  24.014   7.984
 1936POPC   C4A26358  36.559  24.061   7.690
 1936POPC   C1B26359  36.856  23.423   8.863
 1936POPC   C2B26360  36.813  23.432   8.451
 1936POPC   C3B26361  36.613  23.554   8.086
 1936POPC   C4B26362  36.876  23.552   7.776
 1937POPC   NC326363  28.650  24.909   9.932
 1937POPC   PO426364  28.259  25.364   9.689
 1937POPC   GL126365  28.204  25.320   9.218
 1937POPC   GL226366  28.175  25.665   9.161
 1937POPC   C1A26367  28.287  25.074   8.800
 1937POPC   D2A26368  28.482  25.210   8.373
 1937POPC   C3A26369  28.280  25.078   7.971
 1937POPC   C4A26370  28.240  24.855   7.599
 1937POPC   C1B26371  28.256  25.580   8.716
 1937POPC   C2B26372  28.205  25.667   8.291
 1937POPC   C3B26373  28.392  25.588   7.916
 1937POPC   C4B26374  28.475  25.333   7.531
 1938POPC   NC326375  16.960   6.995   9.456
 1938POPC   PO426376  16.651   7.708   9.440
 1938POPC   GL126377  16.803   7.489   9.124
 1938POPC   GL226378  16.619   7.198   9.063
 1938POPC   C1A26379  16.826   7.658   8.721
 1938POPC   D2A26380  16.999   7.648   8.322
 1938POPC   C3A26381  16.665   7.416   8.156
 1938POPC   C4A26382  16.635   7.326   7.741
 1938POPC   C1B26383  16.995   7.172   8.778
 1938POPC   C2B26384  17.168   7.136   8.385
 1938POPC   C3B26385  17.139   7.287   7.982
 1938POPC   C4B26386  17.063   7.067   7.635
 1939POPC   NC326387   2.199   0.004   9.408
 1939POPC   PO426388   2.066  44.479   9.746
 1939POPC   GL126389   1.985  44.594   9.259
 1939POPC   GL226390   2.069  44.374   9.060
 1939POPC   C1A26391   1.886  44.844   8.839
 1939POPC   D2A26392   1.778   0.067   8.447
 1939POPC   C3A26393   1.915  44.883   8.087
 1939POPC   C4A26394   2.042  44.742   7.707
 1939POPC   C1B26395   1.819  44.342   8.734
 1939POPC   C2B26396   1.671  44.560   8.392
 1939POPC   C3B26397   1.716  44.424   7.980
 1939POPC   C4B26398   1.725  44.384   7.540
 1940POPC   NC326399  29.560   6.685   9.511
 1940POPC   PO426400  30.246   6.534   9.466
 1940POPC   GL126401  30.003   6.655   9.108
 1940POPC   GL226402  29.719   6.432   9.103
 1940POPC   C1A26403  29.940   6.695   8.638
 1940POPC   D2A26404  30.080   6.609   8.191
 1940POPC   C3A26405  30.148   6.803   7.788
 1940POPC   C4A26406  30.141   6.639   7.342
 1940POPC   C1B26407  29.541   6.269   8.755
 1940POPC   C2B26408  29.565   6.450   8.349
 1940POPC   C3B26409  29.640   6.397   7.888
 1940POPC   C4B26410  29.690   6.747   7.561
 1941POPC   NC326411   2.906  43.450   9.449
 1941POPC   PO426412   2.738  42.864   9.538
 1941POPC   GL126413   2.957  42.935   9.136
 1941POPC   GL226414   2.896  43.276   8.991
 1941POPC   C1A26415   2.843  42.889   8.680
 1941POPC   D2A26416   2.504  42.893   8.377
 1941POPC   C3A26417   2.689  42.975   7.989
 1941POPC   C4A26418   3.076  43.048   7.791
 1941POPC   C1B26419   2.718  43.389   8.632
 1941POPC   C2B26420   2.915  43.345   8.258
 1941POPC   C3B26421   2.823  43.547   7.902
 1941POPC   C4B26422   2.504  43.500   7.640
 1942POPC   NC326423  19.248  31.404   9.591
 1942POPC   PO426424  18.604  31.619   9.537
 1942POPC   GL126425  18.879  31.458   9.191
 1942POPC   GL226426  19.111  31.203   9.141
 1942POPC   C1A26427  19.097  31.565   8.795
 1942POPC   D2A26428  18.928  31.547   8.409
 1942POPC   C3A26429  19.189  31.588   8.069
 1942POPC   C4A26430  19.057  31.735   7.695
 1942POPC   C1B26431  19.005  31.033   8.759
 1942POPC   C2B26432  19.001  31.043   8.339
 1942POPC   C3B26433  19.220  30.970   7.983
 1942POPC   C4B26434  19.186  31.220   7.648
 1943POPC   NC326435  14.722  29.980   9.777
 1943POPC   PO426436  14.260  29.813   9.327
 1943POPC   GL126437  14.597  30.018   9.207
 1943POPC   GL226438  14.725  29.759   9.007
 1943POPC   C1A26439  14.567  30.180   8.798
 1943POPC   D2A26440  14.673  29.945   8.415
 1943POPC   C3A26441  14.413  30.075   8.043
 1943POPC   C4A26442  14.382  29.946   7.618
 1943POPC   C1B26443  14.657  29.486   8.696
 1943POPC   C2B26444  14.431  29.390   8.343
 1943POPC   C3B26445  14.458  29.555   7.946
 1943POPC   C4B26446  14.543  29.478   7.524
 1944POPC   NC326447  21.796  10.667   9.498
 1944POPC   PO426448  22.451  10.493   9.414
 1944POPC   GL126449  22.160  10.624   9.108
 1944POPC   GL226450  21.965  10.316   9.154
 1944POPC   C1A26451  21.906  10.634   8.730
 1944POPC   D2A26452  21.730  10.746   8.310
 1944POPC   C3A26453  22.046  10.692   8.005
 1944POPC   C4A26454  22.218  10.501   7.639
 1944POPC   C1B26455  22.001  10.124   8.742
 1944POPC   C2B26456  22.084  10.294   8.382
 1944POPC   C3B26457  22.225  10.178   8.025
 1944POPC   C4B26458  22.205   9.995   7.649
 1945POPC   NC326459  29.563   0.555   9.309
 1945POPC   PO426460  29.990   0.184   9.792
 1945POPC   GL126461  30.103   0.224   9.288
 1945POPC   GL226462  29.820   0.222   9.030
 1945POPC   C1A26463  30.247   0.212   8.799
 1945POPC   D2A26464  29.963   0.214   8.405
 1945POPC   C3A26465  30.148   0.388   8.019
 1945POPC   C4A26466  30.077   0.419   7.579
 1945POPC   C1B26467  29.826   0.595   8.735
 1945POPC   C2B26468  29.544   0.715   8.407
 1945POPC   C3B26469  29.723   0.668   8.005
 1945POPC   C4B26470  29.607   0.279   7.824
 1946POPC   NC326471  15.878  27.316   9.749
 1946POPC   PO426472  16.252  27.903   9.447
 1946POPC   GL126473  16.087  27.639   9.138
 1946POPC   GL226474  15.797  27.471   9.173
 1946POPC   C1A26475  16.076  27.515   8.708
 1946POPC   D2A26476  15.871  27.418   8.323
 1946POPC   C3A26477  16.020  27.519   7.896
 1946POPC   C4A26478  15.952  27.561   7.440
 1946POPC   C1B26479  15.635  27.789   8.879
 1946POPC   C2B26480  15.563  27.822   8.443
 1946POPC   C3B26481  15.734  27.922   8.064
 1946POPC   C4B26482  15.601  27.854   7.699
 1947POPC   NC326483  39.764  32.535   9.377
 1947POPC   PO426484  40.180  31.917   9.388
 1947POPC   GL126485  40.139  32.009   8.995
 1947POPC   GL226486  39.790  31.976   9.040
 1947POPC   C1A26487  40.257  32.262   8.641
 1947POPC   D2A26488  40.261  32.446   8.229
 1947POPC   C3A26489  40.110  32.140   7.922
 1947POPC   C4A26490  40.250  32.153   7.455
 1947POPC   C1B26491  39.743  32.286   8.743
 1947POPC   C2B26492  39.783  32.269   8.322
 1947POPC   C3B26493  39.766  32.548   8.020
 1947POPC   C4B26494  40.042  32.615   7.738
 1948POPC   NC326495  38.405  26.764   9.506
 1948POPC   PO426496  38.918  26.391   9.277
 1948POPC   GL126497  38.592  26.568   9.083
 1948POPC   GL226498  38.598  26.939   9.060
 1948POPC   C1A26499  38.379  26.575   8.721
 1948POPC   D2A26500  38.229  26.818   8.420
 1948POPC   C3A26501  38.419  26.722   8.045
 1948POPC   C4A26502  38.295  26.876   7.633
 1948POPC   C1B26503  38.862  26.785   8.721
 1948POPC   C2B26504  38.825  26.594   8.346
 1948POPC   C3B26505  38.956  26.808   7.989
 1948POPC   C4B26506  38.814  26.881   7.603
 1949POPC   NC326507  13.048  40.054   9.575
 1949POPC   PO426508  12.536  39.654   9.392
 1949POPC   GL126509  12.658  39.895   9.008
 1949POPC   GL226510  12.909  40.085   9.097
 1949POPC   C1A26511  13.016  39.795   8.696
 1949POPC   D2A26512  13.179  39.996   8.352
 1949POPC   C3A26513  12.786  40.052   8.149
 1949POPC   C4A26514  12.614  39.822   7.810
 1949POPC   C1B26515  13.094  40.318   8.759
 1949POPC   C2B26516  13.240  40.521   8.363
 1949POPC   C3B26517  13.323  40.308   7.960
 1949POPC   C4B26518  12.962  40.218   7.707
 1950POPC   NC326519  24.614  38.412   9.410
 1950POPC   PO426520  24.238  38.964   9.522
 1950POPC   GL126521  24.421  38.796   9.136
 1950POPC   GL226522  24.193  38.584   9.131
 1950POPC   C1A26523  24.579  38.534   8.757
 1950POPC   D2A26524  24.802  38.583   8.314
 1950POPC   C3A26525  24.739  38.290   7.938
 1950POPC   C4A26526  24.418  38.192   7.682
 1950POPC   C1B26527  24.054  38.649   8.719
 1950POPC   C2B26528  24.274  38.466   8.365
 1950POPC   C3B26529  24.361  38.623   7.972
 1950POPC   C4B26530  24.265  39.034   7.754
 1951POPC   NC326531  18.656  40.341   9.701
 1951POPC   PO426532  19.058  39.914   9.305
 1951POPC   GL126533  19.280  40.153   9.038
 1951POPC   GL226534  19.031  39.992   8.830
 1951POPC   C1A26535  19.261  40.349   8.628
 1951POPC   D2A26536  19.097  40.057   8.340
 1951POPC   C3A26537  19.130  40.271   8.011
 1951POPC   C4A26538  19.048  40.024   7.722
 1951POPC   C1B26539  18.970  39.625   8.643
 1951POPC   C2B26540  18.789  39.434   8.291
 1951POPC   C3B26541  18.689  39.709   7.974
 1951POPC   C4B26542  18.667  39.775   7.512
 1952POPC   NC326543  10.243  38.291   9.400
 1952POPC   PO426544  10.778  38.688   9.505
 1952POPC   GL126545  10.589  38.547   9.150
 1952POPC   GL226546  10.327  38.810   9.137
 1952POPC   C1A26547  10.383  38.399   8.758
 1952POPC   D2A26548  10.111  38.398   8.389
 1952POPC   C3A26549  10.128  38.240   7.968
 1952POPC   C4A26550  10.461  38.162   7.653
 1952POPC   C1B26551  10.637  38.857   8.772
 1952POPC   C2B26552  10.545  38.876   8.348
 1952POPC   C3B26553  10.474  38.631   7.994
 1952POPC   C4B26554  10.703  38.603   7.615
 1953POPC   NC326555  16.781  33.983   9.536
 1953POPC   PO426556  17.111  33.474   9.291
 1953POPC   GL126557  16.953  33.820   9.065
 1953POPC   GL226558  16.598  33.931   9.060
 1953POPC   C1A26559  16.804  33.639   8.684
 1953POPC   D2A26560  16.431  33.554   8.447
 1953POPC   C3A26561  16.585  33.497   8.047
 1953POPC   C4A26562  16.501  33.565   7.624
 1953POPC   C1B26563  16.717  34.144   8.681
 1953POPC   C2B26564  16.764  33.956   8.263
 1953POPC   C3B26565  16.593  34.014   7.869
 1953POPC   C4B26566  16.682  34.005   7.424
 1954POPC   NC326567  21.180  23.888   9.331
 1954POPC   PO426568  21.645  23.444   9.490
 1954POPC   GL126569  21.479  23.508   9.061
 1954POPC   GL226570  21.134  23.428   9.048
 1954POPC   C1A26571  21.681  23.714   8.667
 1954POPC   D2A26572  21.677  23.930   8.228
 1954POPC   C3A26573  21.737  23.621   7.927
 1954POPC   C4A26574  21.357  23.391   7.907
 1954POPC   C1B26575  21.171  23.756   8.712
 1954POPC   C2B26576  21.185  24.017   8.346
 1954POPC   C3B26577  21.107  23.872   7.959
 1954POPC   C4B26578  21.111  24.007   7.531
 1955POPC   NC326579   5.204  33.019   9.683
 1955POPC   PO426580   4.560  33.009   9.784
 1955POPC   GL126581   4.860  33.179   9.330
 1955POPC   GL226582   5.242  33.188   9.198
 1955POPC   C1A26583   4.914  33.036   8.845
 1955POPC   D2A26584   4.865  33.260   8.424
 1955POPC   C3A26585   5.154  33.126   8.090
 1955POPC   C4A26586   5.104  32.921   7.682
 1955POPC   C1B26587   5.427  33.002   8.788
 1955POPC   C2B26588   5.367  32.778   8.401
 1955POPC   C3B26589   5.520  32.783   7.959
 1955POPC   C4B26590   5.568  32.765   7.494
 1956POPC   NC326591  42.313  42.210   9.425
 1956POPC   PO426592  42.773  42.529   9.277
 1956POPC   GL126593  42.509  42.568   9.001
 1956POPC   GL226594  42.478  42.247   8.940
 1956POPC   C1A26595  42.671  42.586   8.589
 1956POPC   D2A26596  42.779  42.256   8.303
 1956POPC   C3A26597  42.440  42.298   8.009
 1956POPC   C4A26598  42.058  42.545   7.906
 1956POPC   C1B26599  42.195  42.237   8.599
 1956POPC   C2B26600  41.933  42.124   8.263
 1956POPC   C3B26601  42.052  41.985   7.874
 1956POPC   C4B26602  42.433  41.820   7.756
 1957POPC   NC326603  20.671   5.238   9.429
 1957POPC   PO426604  21.041   4.684   9.455
 1957POPC   GL126605  20.813   4.842   9.076
 1957POPC   GL226606  20.473   4.837   9.110
 1957POPC   C1A26607  20.699   5.185   8.749
 1957POPC   D2A26608  20.657   5.395   8.332
 1957POPC   C3A26609  20.657   5.080   7.977
 1957POPC   C4A26610  20.778   5.206   7.588
 1957POPC   C1B26611  20.239   4.955   8.788
 1957POPC   C2B26612  20.331   4.980   8.378
 1957POPC   C3B26613  20.197   5.264   8.080
 1957POPC   C4B26614  20.184   5.145   7.692
 1958POPC   NC326615  33.304  17.734   9.366
 1958POPC   PO426616  32.868  17.274   9.595
 1958POPC   GL126617  32.973  17.378   9.174
 1958POPC   GL226618  32.826  17.733   9.157
 1958POPC   C1A26619  33.073  17.446   8.739
 1958POPC   D2A26620  33.341  17.435   8.369
 1958POPC   C3A26621  33.087  17.398   8.016
 1958POPC   C4A26622  33.156  17.222   7.608
 1958POPC   C1B26623  32.639  17.956   8.805
 1958POPC   C2B26624  32.799  17.769   8.411
 1958POPC   C3B26625  32.691  17.775   7.994
 1958POPC   C4B26626  32.982  17.774   7.703
 1959POPC   NC326627  22.284  29.752   9.704
 1959POPC   PO426628  21.854  30.031   9.325
 1959POPC   GL126629  22.241  30.116   9.083
 1959POPC   GL226630  22.315  29.780   8.966
 1959POPC   C1A26631  22.393  30.184   8.649
 1959POPC   D2A26632  22.360  29.810   8.388
 1959POPC   C3A26633  22.580  29.804   8.006
 1959POPC   C4A26634  22.716  30.068   7.708
 1959POPC   C1B26635  21.944  29.891   8.696
 1959POPC   C2B26636  21.921  30.050   8.304
 1959POPC   C3B26637  22.117  30.004   7.897
 1959POPC   C4B26638  21.915  30.061   7.497
 1960POPC   NC326639   1.010  22.482   9.566
 1960POPC   PO426640   1.363  21.924   9.483
 1960POPC   GL126641   1.259  22.215   9.188
 1960POPC   GL226642   0.906  22.158   9.188
 1960POPC   C1A26643   1.420  22.146   8.781
 1960POPC   D2A26644   1.446  21.892   8.414
 1960POPC   C3A26645   1.270  22.096   8.047
 1960POPC   C4A26646   0.940  21.908   7.818
 1960POPC   C1B26647   0.977  22.389   8.813
 1960POPC   C2B26648   0.982  22.140   8.473
 1960POPC   C3B26649   0.789  22.273   8.131
 1960POPC   C4B26650   0.834  22.405   7.763
 1961POPC   NC326651  12.850  17.137   9.443
 1961POPC   PO426652  13.159  16.421   9.517
 1961POPC   GL126653  12.856  16.654   9.247
 1961POPC   GL226654  13.117  16.850   9.128
 1961POPC   C1A26655  12.744  16.890   8.815
 1961POPC   D2A26656  12.600  16.911   8.379
 1961POPC   C3A26657  12.521  16.539   8.181
 1961POPC   C4A26658  12.699  16.652   7.815
 1961POPC   C1B26659  13.109  16.480   8.847
 1961POPC   C2B26660  12.964  16.405   8.444
 1961POPC   C3B26661  13.086  16.699   8.142
 1961POPC   C4B26662  13.195  16.768   7.711
 1962POPC   NC326663  40.596  31.191   9.394
 1962POPC   PO426664  40.992  31.702   9.537
 1962POPC   GL126665  40.884  31.568   9.138
 1962POPC   GL226666  40.520  31.610   9.074
 1962POPC   C1A26667  40.880  31.608   8.717
 1962POPC   D2A26668  40.550  31.617   8.444
 1962POPC   C3A26669  40.738  31.532   8.071
 1962POPC   C4A26670  40.860  31.289   7.730
 1962POPC   C1B26671  40.497  31.251   8.777
 1962POPC   C2B26672  40.281  31.180   8.359
 1962POPC   C3B26673  40.416  31.148   7.929
 1962POPC   C4B26674  40.400  31.244   7.470
 1963POPC   NC326675  19.851  38.180   9.615
 1963POPC   PO426676  20.073  38.816   9.592
 1963POPC   GL126677  20.034  38.470   9.221
 1963POPC   GL226678  19.735  38.186   9.136
 1963POPC   C1A26679  19.901  38.559   8.794
 1963POPC   D2A26680  20.017  38.746   8.418
 1963POPC   C3A26681  20.039  38.493   8.080
 1963POPC   C4A26682  19.895  38.590   7.710
 1963POPC   C1B26683  19.934  38.066   8.743
 1963POPC   C2B26684  19.713  38.260   8.385
 1963POPC   C3B26685  19.633  38.176   7.949
 1963POPC   C4B26686  19.649  38.196   7.506
 1964POPC   NC326687   2.915  34.169   9.439
 1964POPC   PO426688   3.006  34.737   9.788
 1964POPC   GL126689   2.835  34.661   9.311
 1964POPC   GL226690   3.053  34.732   9.079
 1964POPC   C1A26691   2.770  34.395   8.847
 1964POPC   D2A26692   2.950  34.282   8.425
 1964POPC   C3A26693   2.797  34.407   7.966
 1964POPC   C4A26694   2.643  34.357   7.501
 1964POPC   C1B26695   2.995  34.798   8.627
 1964POPC   C2B26696   2.874  35.060   8.328
 1964POPC   C3B26697   2.609  34.943   8.039
 1964POPC   C4B26698   2.677  34.845   7.663
 1965POPC   NC326699  15.145  32.278   9.580
 1965POPC   PO426700  15.679  32.251   9.230
 1965POPC   GL126701  15.238  32.295   9.075
 1965POPC   GL226702  14.911  32.433   9.138
 1965POPC   C1A26703  15.138  32.373   8.662
 1965POPC   D2A26704  15.391  32.529   8.366
 1965POPC   C3A26705  15.255  32.354   7.987
 1965POPC   C4A26706  15.452  32.482   7.646
 1965POPC   C1B26707  14.714  32.598   8.797
 1965POPC   C2B26708  14.856  32.739   8.397
 1965POPC   C3B26709  14.763  32.560   7.987
 1965POPC   C4B26710  14.962  32.561   7.574
 1966POPC   NC326711  34.196  22.525   9.526
 1966POPC   PO426712  33.768  22.954   9.713
 1966POPC   GL126713  33.926  22.907   9.266
 1966POPC   GL226714  33.785  23.215   9.139
 1966POPC   C1A26715  33.944  22.724   8.804
 1966POPC   D2A26716  33.772  22.777   8.381
 1966POPC   C3A26717  33.798  22.623   7.961
 1966POPC   C4A26718  33.667  22.764   7.507
 1966POPC   C1B26719  34.141  23.188   8.878
 1966POPC   C2B26720  34.160  23.121   8.453
 1966POPC   C3B26721  34.011  23.079   8.028
 1966POPC   C4B26722  34.141  22.860   7.658
 1967POPC   NC326723  22.298  38.882   9.709
 1967POPC   PO426724  21.870  39.308   9.403
 1967POPC   GL126725  22.158  39.452   9.098
 1967POPC   GL226726  21.866  39.521   8.934
 1967POPC   C1A26727  22.243  39.330   8.643
 1967POPC   D2A26728  21.983  39.105   8.305
 1967POPC   C3A26729  22.172  39.021   7.891
 1967POPC   C4A26730  22.341  39.395   7.781
 1967POPC   C1B26731  21.856  39.671   8.538
 1967POPC   C2B26732  21.686  39.527   8.198
 1967POPC   C3B26733  21.807  39.349   7.840
 1967POPC   C4B26734  21.556  39.277   7.514
 1968POPC   NC326735   2.475  39.871   9.511
 1968POPC   PO426736   3.078  40.303   9.385
 1968POPC   GL126737   2.729  40.136   9.120
 1968POPC   GL226738   2.633  39.774   9.047
 1968POPC   C1A26739   2.591  40.135   8.690
 1968POPC   D2A26740   2.836  40.136   8.300
 1968POPC   C3A26741   2.564  40.121   7.916
 1968POPC   C4A26742   2.174  40.228   7.694
 1968POPC   C1B26743   2.923  39.724   8.721
 1968POPC   C2B26744   3.147  39.577   8.389
 1968POPC   C3B26745   2.911  39.662   8.028
 1968POPC   C4B26746   3.015  39.612   7.626
 1969POPC   NC326747  20.027  34.762   9.404
 1969POPC   PO426748  19.532  34.314   9.633
 1969POPC   GL126749  19.734  34.410   9.211
 1969POPC   GL226750  20.092  34.400   9.047
 1969POPC   C1A26751  19.711  34.665   8.817
 1969POPC   D2A26752  19.849  34.479   8.439
 1969POPC   C3A26753  19.776  34.619   8.015
 1969POPC   C4A26754  20.066  34.495   7.696
 1969POPC   C1B26755  20.199  34.784   8.769
 1969POPC   C2B26756  20.207  34.862   8.324
 1969POPC   C3B26757  20.185  34.938   7.891
 1969POPC   C4B26758  20.155  34.912   7.424
 1970POPC   NC326759  41.400  16.425   9.395
 1970POPC   PO426760  41.335  17.072   9.524
 1970POPC   GL126761  41.524  16.890   9.122
 1970POPC   GL226762  41.840  16.688   9.185
 1970POPC   C1A26763  41.696  17.022   8.696
 1970POPC   D2A26764  41.825  17.104   8.248
 1970POPC   C3A26765  41.686  16.808   7.931
 1970POPC   C4A26766  41.654  16.908   7.457
 1970POPC   C1B26767  41.696  16.504   8.796
 1970POPC   C2B26768  41.579  16.506   8.372
 1970POPC   C3B26769  41.483  16.337   7.981
 1970POPC   C4B26770  41.679  16.401   7.605
 1971POPC   NC326771  34.817  11.982   9.581
 1971POPC   PO426772  34.159  12.330   9.423
 1971POPC   GL126773  34.351  12.246   9.045
 1971POPC   GL226774  34.671  12.125   9.115
 1971POPC   C1A26775  34.403  12.132   8.655
 1971POPC   D2A26776  34.359  11.902   8.317
 1971POPC   C3A26777  34.360  12.116   7.979
 1971POPC   C4A26778  34.425  11.871   7.643
 1971POPC   C1B26779  34.803  12.423   8.799
 1971POPC   C2B26780  34.682  12.544   8.407
 1971POPC   C3B26781  34.874  12.504   8.037
 1971POPC   C4B26782  34.698  12.371   7.667
 1972POPC   NC326783  33.351   3.491   9.461
 1972POPC   PO426784  32.667   3.480   9.361
 1972POPC   GL126785  32.969   3.485   9.105
 1972POPC   GL226786  33.039   3.824   9.135
 1972POPC   C1A26787  33.083   3.352   8.733
 1972POPC   D2A26788  32.994   3.222   8.353
 1972POPC   C3A26789  32.924   3.508   8.083
 1972POPC   C4A26790  33.074   3.476   7.691
 1972POPC   C1B26791  32.924   3.825   8.656
 1972POPC   C2B26792  32.592   3.827   8.321
 1972POPC   C3B26793  32.760   3.971   7.927
 1972POPC   C4B26794  33.209   3.921   7.930
 1973POPC   NC326795  16.054  18.994   9.468
 1973POPC   PO426796  15.447  18.715   9.506
 1973POPC   GL126797  15.669  18.870   9.129
 1973POPC   GL226798  15.726  19.198   9.074
 1973POPC   C1A26799  16.023  18.882   8.808
 1973POPC   D2A26800  15.952  18.819   8.366
 1973POPC   C3A26801  16.097  18.803   7.934
 1973POPC   C4A26802  15.782  18.843   7.623
 1973POPC   C1B26803  15.850  19.341   8.658
 1973POPC   C2B26804  16.030  19.340   8.247
 1973POPC   C3B26805  15.776  19.268   7.897
 1973POPC   C4B26806  15.676  19.335   7.466
 1974POPC   NC326807  14.844  29.562   9.451
 1974POPC   PO426808  15.171  30.106   9.614
 1974POPC   GL126809  15.150  29.937   9.225
 1974POPC   GL226810  15.235  29.570   9.124
 1974POPC   C1A26811  15.072  30.102   8.828
 1974POPC   D2A26812  15.242  30.188   8.428
 1974POPC   C3A26813  15.172  29.833   8.138
 1974POPC   C4A26814  14.910  29.822   7.754
 1974POPC   C1B26815  15.529  29.819   8.882
 1974POPC   C2B26816  15.614  29.850   8.462
 1974POPC   C3B26817  15.689  29.652   8.088
 1974POPC   C4B26818  15.456  29.706   7.719
 1975POPC   NC326819  34.756  20.594   9.837
 1975POPC   PO426820  35.364  20.755   9.540
 1975POPC   GL126821  35.469  20.665   9.136
 1975POPC   GL226822  35.144  20.722   9.056
 1975POPC   C1A26823  35.463  20.365   8.813
 1975POPC   D2A26824  35.704  20.323   8.455
 1975POPC   C3A26825  35.490  20.500   8.137
 1975POPC   C4A26826  35.341  20.388   7.748
 1975POPC   C1B26827  35.244  20.815   8.649
 1975POPC   C2B26828  35.082  20.810   8.246
 1975POPC   C3B26829  35.281  20.883   7.845
 1975POPC   C4B26830  35.063  21.026   7.515
 1976POPC   NC326831  21.661  29.344   9.506
 1976POPC   PO426832  21.950  28.824   9.224
 1976POPC   GL126833  21.562  29.064   9.052
 1976POPC   GL226834  21.365  29.358   9.087
 1976POPC   C1A26835  21.318  29.029   8.675
 1976POPC   D2A26836  21.513  29.102   8.278
 1976POPC   C3A26837  21.377  28.883   7.900
 1976POPC   C4A26838  20.994  28.931   7.805
 1976POPC   C1B26839  21.202  29.533   8.729
 1976POPC   C2B26840  21.117  29.481   8.312
 1976POPC   C3B26841  21.285  29.396   7.918
 1976POPC   C4B26842  21.725  29.259   7.838
 1977POPC   NC326843  12.220  18.785   9.614
 1977POPC   PO426844  11.814  19.304   9.532
 1977POPC   GL126845  12.063  19.265   9.156
 1977POPC   GL226846  12.371  19.047   9.173
 1977POPC   C1A26847  11.894  19.184   8.737
 1977POPC   D2A26848  11.709  19.072   8.333
 1977POPC   C3A26849  12.036  19.212   8.063
 1977POPC   C4A26850  12.027  19.360   7.654
 1977POPC   C1B26851  12.301  18.717   8.871
 1977POPC   C2B26852  12.095  18.758   8.476
 1977POPC   C3B26853  12.045  18.701   8.031
 1977POPC   C4B26854  12.212  18.866   7.678
 1978POPC   NC326855  15.585  34.882   9.430
 1978POPC   PO426856  15.043  34.521   9.672
 1978POPC   GL126857  15.137  34.627   9.249
 1978POPC   GL226858  15.325  34.325   9.150
 1978POPC   C1A26859  15.324  34.725   8.826
 1978POPC   D2A26860  15.444  34.755   8.391
 1978POPC   C3A26861  15.159  34.612   8.062
 1978POPC   C4A26862  15.132  34.896   7.708
 1978POPC   C1B26863  15.588  34.194   8.785
 1978POPC   C2B26864  15.462  34.247   8.368
 1978POPC   C3B26865  15.605  34.375   7.968
 1978POPC   C4B26866  15.337  34.435   7.598
 1979POPC   NC326867  11.814   3.951   9.577
 1979POPC   PO426868  12.052   3.294   9.475
 1979POPC   GL126869  12.005   3.638   9.198
 1979POPC   GL226870  11.669   3.645   9.158
 1979POPC   C1A26871  12.034   3.720   8.774
 1979POPC   D2A26872  12.056   3.420   8.440
 1979POPC   C3A26873  11.991   3.625   8.061
 1979POPC   C4A26874  12.154   3.646   7.703
 1979POPC   C1B26875  11.732   3.293   8.822
 1979POPC   C2B26876  11.618   3.199   8.380
 1979POPC   C3B26877  11.582   3.343   7.955
 1979POPC   C4B26878  11.747   3.399   7.514
 1980POPC   NC326879  33.481   6.043   9.488
 1980POPC   PO426880  34.074   5.647   9.649
 1980POPC   GL126881  33.841   5.726   9.280
 1980POPC   GL226882  33.940   6.063   9.183
 1980POPC   C1A26883  33.688   5.771   8.846
 1980POPC   D2A26884  33.924   5.882   8.426
 1980POPC   C3A26885  33.762   5.708   8.042
 1980POPC   C4A26886  34.070   5.716   7.714
 1980POPC   C1B26887  33.862   6.239   8.769
 1980POPC   C2B26888  33.631   6.311   8.375
 1980POPC   C3B26889  33.849   6.226   8.021
 1980POPC   C4B26890  33.961   6.225   7.589
 1981POPC   NC326891  18.842  17.733   9.547
 1981POPC   PO426892  18.837  17.059   9.593
 1981POPC   GL126893  18.882  17.375   9.203
 1981POPC   GL226894  19.221  17.504   9.247
 1981POPC   C1A26895  18.806  17.568   8.765
 1981POPC   D2A26896  18.745  17.376   8.316
 1981POPC   C3A26897  18.838  17.558   7.921
 1981POPC   C4A26898  19.081  17.415   7.606
 1981POPC   C1B26899  19.324  17.644   8.832
 1981POPC   C2B26900  19.176  17.615   8.409
 1981POPC   C3B26901  19.339  17.608   8.013
 1981POPC   C4B26902  19.375  17.859   7.664
 1982POPC   NC326903  40.965  29.295   9.464
 1982POPC   PO426904  41.633  29.366   9.476
 1982POPC   GL126905  41.622  29.192   9.090
 1982POPC   GL226906  41.274  29.289   8.996
 1982POPC   C1A26907  41.745  29.314   8.693
 1982POPC   D2A26908  41.551  29.251   8.318
 1982POPC   C3A26909  41.773  29.290   7.947
 1982POPC   C4A26910  41.493  29.003   7.691
 1982POPC   C1B26911  41.263  29.619   8.643
 1982POPC   C2B26912  41.405  29.718   8.206
 1982POPC   C3B26913  41.302  29.451   7.836
 1982POPC   C4B26914  41.280  29.353   7.392
 1983POPC   NC326915  13.581   7.853   9.377
 1983POPC   PO426916  13.391   8.499   9.505
 1983POPC   GL126917  13.605   8.288   9.124
 1983POPC   GL226918  13.886   8.446   9.010
 1983POPC   C1A26919  13.728   8.032   8.736
 1983POPC   D2A26920  13.676   8.296   8.368
 1983POPC   C3A26921  13.482   8.178   8.020
 1983POPC   C4A26922  13.629   7.885   7.771
 1983POPC   C1B26923  14.070   8.424   8.680
 1983POPC   C2B26924  14.170   8.142   8.367
 1983POPC   C3B26925  14.010   8.204   7.964
 1983POPC   C4B26926  13.941   8.200   7.513
 1984POPC   NC326927  30.061  39.296   9.517
 1984POPC   PO426928  29.431  39.096   9.681
 1984POPC   GL126929  29.693  39.085   9.216
 1984POPC   GL226930  29.873  39.397   9.066
 1984POPC   C1A26931  29.970  38.982   8.799
 1984POPC   D2A26932  30.129  38.862   8.383
 1984POPC   C3A26933  30.233  39.083   7.996
 1984POPC   C4A26934  29.870  39.141   7.742
 1984POPC   C1B26935  29.821  39.442   8.615
 1984POPC   C2B26936  29.848  39.416   8.163
 1984POPC   C3B26937  29.812  39.664   7.763
 1984POPC   C4B26938  29.660  39.561   7.360
 1985POPC   NC326939  40.583   1.404   9.408
 1985POPC   PO426940  41.043   0.893   9.532
 1985POPC   GL126941  40.950   1.132   9.156
 1985POPC   GL226942  40.604   0.994   9.099
 1985POPC   C1A26943  40.785   1.356   8.782
 1985POPC   D2A26944  40.658   1.279   8.371
 1985POPC   C3A26945  40.716   1.448   7.966
 1985POPC   C4A26946  40.558   1.372   7.525
 1985POPC   C1B26947  40.696   0.843   8.736
 1985POPC   C2B26948  40.640   0.768   8.338
 1985POPC   C3B26949  40.663   0.935   7.924
 1985POPC   C4B26950  41.054   0.850   7.709
 1986POPC   NC326951   8.255  44.944   9.493
 1986POPC   PO426952   8.301  44.267   9.276
 1986POPC   GL126953   8.198  44.652   9.067
 1986POPC   GL226954   8.460  44.885   9.051
 1986POPC   C1A26955   7.988  44.702   8.679
 1986POPC   D2A26956   8.118  44.485   8.292
 1986POPC   C3A26957   8.018  44.697   7.910
 1986POPC   C4A26958   8.198  44.439   7.611
 1986POPC   C1B26959   8.509  44.752   8.671
 1986POPC   C2B26960   8.369  44.926   8.311
 1986POPC   C3B26961   8.515  44.728   7.953
 1986POPC   C4B26962   8.409  44.898   7.574
 1987POPC   NC326963  23.323  35.264   9.322
 1987POPC   PO426964  22.809  35.819   9.373
 1987POPC   GL126965  22.950  35.571   9.072
 1987POPC   GL226966  23.165  35.839   8.970
 1987POPC   C1A26967  22.789  35.421   8.660
 1987POPC   D2A26968  22.641  35.148   8.315
 1987POPC   C3A26969  22.900  35.250   7.955
 1987POPC   C4A26970  23.179  35.197   7.565
 1987POPC   C1B26971  23.277  35.582   8.641
 1987POPC   C2B26972  23.180  35.588   8.212
 1987POPC   C3B26973  23.152  35.652   7.769
 1987POPC   C4B26974  22.813  35.529   7.483
 1988POPC   NC326975  41.715  43.310   9.295
 1988POPC   PO426976  41.912  42.782   9.660
 1988POPC   GL126977  41.675  42.850   9.149
 1988POPC   GL226978  41.380  43.079   8.983
 1988POPC   C1A26979  41.764  43.010   8.699
 1988POPC   D2A26980  41.511  43.055   8.313
 1988POPC   C3A26981  41.644  43.039   7.873
 1988POPC   C4A26982  41.521  43.080   7.416
 1988POPC   C1B26983  41.292  43.492   8.787
 1988POPC   C2B26984  41.395  43.584   8.358
 1988POPC   C3B26985  41.308  43.403   7.965
 1988POPC   C4B26986  41.395  43.547   7.548
 1989POPC   NC326987   5.761  20.806   9.468
 1989POPC   PO426988   6.422  20.949   9.501
 1989POPC   GL126989   6.168  20.707   9.151
 1989POPC   GL226990   5.830  20.476   9.105
 1989POPC   C1A26991   6.018  20.708   8.719
 1989POPC   D2A26992   6.150  20.533   8.366
 1989POPC   C3A26993   5.861  20.587   8.107
 1989POPC   C4A26994   5.822  20.872   7.773
 1989POPC   C1B26995   5.655  20.226   8.806
 1989POPC   C2B26996   5.580  20.253   8.392
 1989POPC   C3B26997   5.535  20.186   7.963
 1989POPC   C4B26998   5.834  20.330   7.685
 1990POPC   NC326999   0.940  16.984   9.535
 1990POPC   PO427000   1.450  16.529   9.525
 1990POPC   GL127001   1.291  16.794   9.206
 1990POPC   GL227002   0.970  16.680   9.127
 1990POPC   C1A27003   1.346  16.771   8.758
 1990POPC   D2A27004   1.214  17.010   8.381
 1990POPC   C3A27005   1.468  16.777   8.082
 1990POPC   C4A27006   1.490  16.879   7.654
 1990POPC   C1B27007   0.905  16.527   8.741
 1990POPC   C2B27008   1.066  16.534   8.353
 1990POPC   C3B27009   0.991  16.703   7.946
 1990POPC   C4B27010   1.107  16.571   7.536
 1991POPC   NC327011  39.016  16.079   9.410
 1991POPC   PO427012  39.637  16.065   9.628
 1991POPC   GL127013  39.419  15.955   9.129
 1991POPC   GL227014  39.172  16.276   8.996
 1991POPC   C1A27015  39.414  16.040   8.635
 1991POPC   D2A27016  39.496  15.807   8.244
 1991POPC   C3A27017  39.277  15.882   7.857
 1991POPC   C4A27018  39.336  16.251   7.554
 1991POPC   C1B27019  38.881  16.024   8.716
 1991POPC   C2B27020  39.013  16.051   8.287
 1991POPC   C3B27021  38.966  16.325   7.939
 1991POPC   C4B27022  38.820  16.028   7.679
 1992POPC   NC327023  31.111  34.257   9.583
 1992POPC   PO427024  31.019  34.909   9.526
 1992POPC   GL127025  31.346  34.728   9.256
 1992POPC   GL227026  31.196  34.460   9.155
 1992POPC   C1A27027  31.573  34.608   8.845
 1992POPC   D2A27028  31.567  34.711   8.400
 1992POPC   C3A27029  31.725  34.460   8.036
 1992POPC   C4A27030  31.516  34.480   7.673
 1992POPC   C1B27031  31.048  34.277   8.872
 1992POPC   C2B27032  31.241  34.343   8.530
 1992POPC   C3B27033  31.213  34.411   8.103
 1992POPC   C4B27034  31.113  34.141   7.759
 1993POPC   NC327035  31.144  19.293   9.443
 1993POPC   PO427036  31.783  19.027   9.548
 1993POPC   GL127037  31.493  18.986   9.209
 1993POPC   GL227038  31.560  19.325   9.146
 1993POPC   C1A27039  31.501  18.979   8.755
 1993POPC   D2A27040  31.377  18.834   8.348
 1993POPC   C3A27041  31.560  18.865   7.949
 1993POPC   C4A27042  31.496  19.123   7.621
 1993POPC   C1B27043  31.456  19.510   8.781
 1993POPC   C2B27044  31.254  19.349   8.450
 1993POPC   C3B27045  31.303  19.327   8.028
 1993POPC   C4B27046  31.070  19.416   7.613
 1994POPC   NC327047  15.809   5.319   9.449
 1994POPC   PO427048  16.058   4.707   9.529
 1994POPC   GL127049  16.107   4.991   9.167
 1994POPC   GL227050  15.782   5.028   9.027
 1994POPC   C1A27051  16.162   5.151   8.717
 1994POPC   D2A27052  15.875   5.096   8.332
 1994POPC   C3A27053  16.110   5.116   7.915
 1994POPC   C4A27054  16.195   5.134   7.447
 1994POPC   C1B27055  15.674   4.708   8.747
 1994POPC   C2B27056  15.799   4.558   8.351
 1994POPC   C3B27057  15.696   4.615   7.938
 1994POPC   C4B27058  15.736   4.923   7.605
 1995POPC   NC327059  20.689  19.307   9.504
 1995POPC   PO427060  20.636  18.696   9.494
 1995POPC   GL127061  20.525  18.972   9.154
 1995POPC   GL227062  20.892  19.037   9.108
 1995POPC   C1A27063  20.582  19.003   8.698
 1995POPC   D2A27064  20.939  19.064   8.413
 1995POPC   C3A27065  20.751  19.019   8.033
 1995POPC   C4A27066  20.422  19.075   7.772
 1995POPC   C1B27067  20.878  19.393   8.811
 1995POPC   C2B27068  21.127  19.538   8.455
 1995POPC   C3B27069  21.012  19.454   8.024
 1995POPC   C4B27070  20.871  19.292   7.604
 1996POPC   NC327071  24.571  24.898   9.537
 1996POPC   PO427072  24.707  25.550   9.584
 1996POPC   GL127073  24.602  25.244   9.166
 1996POPC   GL227074  24.748  24.887   9.058
 1996POPC   C1A27075  24.484  25.184   8.695
 1996POPC   D2A27076  24.567  25.514   8.346
 1996POPC   C3A27077  24.435  25.424   7.924
 1996POPC   C4A27078  24.046  25.295   7.657
 1996POPC   C1B27079  24.769  24.754   8.628
 1996POPC   C2B27080  24.644  24.816   8.209
 1996POPC   C3B27081  24.383  24.934   7.829
 1996POPC   C4B27082  24.513  25.229   7.456
 1997POPC   NC327083  44.384  26.806   9.629
 1997POPC   PO427084  43.791  27.090   9.447
 1997POPC   GL127085  44.000  26.855   9.168
 1997POPC   GL227086  43.817  26.602   9.181
 1997POPC   C1A27087  44.116  26.901   8.739
 1997POPC   D2A27088  44.196  26.867   8.318
 1997POPC   C3A27089  43.862  27.038   8.116
 1997POPC   C4A27090  43.884  27.124   7.723
 1997POPC   C1B27091  43.865  26.444   8.781
 1997POPC   C2B27092  44.013  26.398   8.391
 1997POPC   C3B27093  43.886  26.541   7.965
 1997POPC   C4B27094  43.607  26.655   7.619
 1998POPC   NC327095  39.572  28.009   9.460
 1998POPC   PO427096  38.999  28.462   9.489
 1998POPC   GL127097  39.272  28.325   9.174
 1998POPC   GL227098  39.310  28.610   9.066
 1998POPC   C1A27099  39.328  28.221   8.710
 1998POPC   D2A27100  39.155  28.133   8.292
 1998POPC   C3A27101  39.303  28.384   7.979
 1998POPC   C4A27102  39.438  28.223   7.616
 1998POPC   C1B27103  39.104  28.687   8.733
 1998POPC   C2B27104  38.950  28.613   8.356
 1998POPC   C3B27105  38.994  28.810   7.958
 1998POPC   C4B27106  39.244  28.820   7.601
 1999POPC   NC327107  19.843  24.217   9.448
 1999POPC   PO427108  19.906  23.570   9.391
 1999POPC   GL127109  19.804  23.820   9.082
 1999POPC   GL227110  19.507  23.919   9.234
 1999POPC   C1A27111  19.758  23.708   8.646
 1999POPC   D2A27112  19.766  23.334   8.396
 1999POPC   C3A27113  20.036  23.425   8.062
 1999POPC   C4A27114  20.059  23.863   7.862
 1999POPC   C1B27115  19.401  24.039   8.840
 1999POPC   C2B27116  19.396  24.028   8.413
 1999POPC   C3B27117  19.561  23.751   8.107
 1999POPC   C4B27118  19.359  23.742   7.728
 2000POPC   NC327119  18.400  16.858   9.712
 2000POPC   PO427120  18.400  17.507   9.412
 2000POPC   GL127121  18.402  17.386   9.036
 2000POPC   GL227122  18.249  17.618   8.882
 2000POPC   C1A27123  18.430  17.188   8.659
 2000POPC   D2A27124  18.191  17.262   8.327
 2000POPC   C3A27125  18.386  17.303   7.951
 2000POPC   C4A27126  18.305  17.085   7.570
 2000POPC   C1B27127  18.400  17.700   8.493
 2000POPC   C2B27128  18.697  17.906   8.257
 2000POPC   C3B27129  18.386  17.837   7.919
 2000POPC   C4B27130  18.112  17.603   7.645
 2001POPC   NC327131  29.646  42.131   9.243
 2001POPC   PO427132  29.045  42.373   9.517
 2001POPC   GL127133  28.972  42.323   9.087
 2001POPC   GL227134  28.941  42.668   9.094
 2001POPC   C1A27135  29.199  42.417   8.705
 2001POPC   D2A27136  29.274  42.642   8.312
 2001POPC   C3A27137  29.310  42.344   7.945
 2001POPC   C4A27138  29.107  42.056   7.673
 2001POPC   C1B27139  28.740  42.629   8.711
 2001POPC   C2B27140  28.780  42.793   8.311
 2001POPC   C3B27141  28.971  42.730   7.903
 2001POPC   C4B27142  29.022  42.578   7.489
 2002POPC   NC327143   1.824   9.163   9.416
 2002POPC   PO427144   2.463   8.952   9.638
 2002POPC   GL127145   2.454   9.058   9.080
 2002POPC   GL227146   2.336   9.266   8.964
 2002POPC   C1A27147   2.249   8.851   8.667
 2002POPC   D2A27148   2.056   8.641   8.376
 2002POPC   C3A27149   2.122   8.941   8.055
 2002POPC   C4A27150   1.800   9.042   7.758
 2002POPC   C1B27151   1.951   9.252   8.759
 2002POPC   C2B27152   1.811   9.133   8.397
 2002POPC   C3B27153   1.913   9.420   8.078
 2002POPC   C4B27154   1.903   9.516   7.634
 2003POPC   NC327155  11.462  15.926   9.378
 2003POPC   PO427156  10.748  15.917   9.399
 2003POPC   GL127157  11.009  15.919   9.054
 2003POPC   GL227158  11.128  15.613   9.072
 2003POPC   C1A27159  11.364  15.942   8.751
 2003POPC   D2A27160  11.634  16.130   8.467
 2003POPC   C3A27161  11.687  15.964   8.068
 2003POPC   C4A27162  11.491  16.100   7.708
 2003POPC   C1B27163  11.143  15.475   8.681
 2003POPC   C2B27164  11.302  15.683   8.323
 2003POPC   C3B27165  11.143  15.792   7.955
 2003POPC   C4B27166  11.288  15.665   7.581
 2004POPC   NC327167  17.543  25.801   9.579
 2004POPC   PO427168  17.678  26.464   9.503
 2004POPC   GL127169  17.714  26.148   9.220
 2004POPC   GL227170  17.383  26.042   9.162
 2004POPC   C1A27171  17.722  26.200   8.791
 2004POPC   D2A27172  17.851  26.342   8.416
 2004POPC   C3A27173  17.584  26.175   8.141
 2004POPC   C4A27174  17.662  26.380   7.771
 2004POPC   C1B27175  17.209  26.161   8.768
 2004POPC   C2B27176  17.019  26.061   8.376
 2004POPC   C3B27177  17.188  25.851   8.028
 2004POPC   C4B27178  17.411  25.934   7.676
 2005POPC   NC327179  20.654  35.904   9.626
 2005POPC   PO427180  20.188  35.521   9.406
 2005POPC   GL127181  20.376  35.299   9.058
 2005POPC   GL227182  20.743  35.287   9.076
 2005POPC   C1A27183  20.511  35.187   8.630
 2005POPC   D2A27184  20.651  35.142   8.219
 2005POPC   C3A27185  20.456  35.361   7.862
 2005POPC   C4A27186  20.606  35.037   7.627
 2005POPC   C1B27187  21.021  35.322   8.704
 2005POPC   C2B27188  21.087  35.439   8.283
 2005POPC   C3B27189  20.932  35.559   7.884
 2005POPC   C4B27190  21.164  35.767   7.549
 2006POPC   NC327191   3.708  37.077   9.557
 2006POPC   PO427192   3.240  36.637   9.718
 2006POPC   GL127193   3.296  36.911   9.292
 2006POPC   GL227194   3.484  36.705   9.141
 2006POPC   C1A27195   3.617  37.098   8.879
 2006POPC   D2A27196   3.539  37.015   8.409
 2006POPC   C3A27197   3.828  36.902   8.054
 2006POPC   C4A27198   4.042  37.251   7.821
 2006POPC   C1B27199   3.203  36.822   8.780
 2006POPC   C2B27200   3.173  36.660   8.363
 2006POPC   C3B27201   3.318  36.784   7.964
 2006POPC   C4B27202   3.578  36.598   7.662
 2007POPC   NC327203  31.380  11.098   9.848
 2007POPC   PO427204  31.787  11.486   9.402
 2007POPC   GL127205  31.716  11.464   8.994
 2007POPC   GL227206  31.359  11.469   9.032
 2007POPC   C1A27207  31.572  11.237   8.635
 2007POPC   D2A27208  31.555  11.346   8.232
 2007POPC   C3A27209  31.500  11.037   7.940
 2007POPC   C4A27210  31.653  11.084   7.550
 2007POPC   C1B27211  31.333  11.712   8.703
 2007POPC   C2B27212  31.155  11.684   8.341
 2007POPC   C3B27213  31.313  11.711   7.986
 2007POPC   C4B27214  31.229  11.416   7.745
 2008POPC   NC327215  41.281  34.951   9.484
 2008POPC   PO427216  41.869  34.718   9.553
 2008POPC   GL127217  41.649  34.497   9.144
 2008POPC   GL227218  41.353  34.335   8.974
 2008POPC   C1A27219  41.702  34.463   8.629
 2008POPC   D2A27220  41.889  34.809   8.326
 2008POPC   C3A27221  41.806  34.760   7.885
 2008POPC   C4A27222  41.538  34.350   7.853
 2008POPC   C1B27223  41.333  34.758   8.838
 2008POPC   C2B27224  41.403  34.969   8.480
 2008POPC   C3B27225  41.365  34.788   8.090
 2008POPC   C4B27226  41.384  34.882   7.629
 2009POPC   NC327227   8.084  30.729   9.638
 2009POPC   PO427228   8.578  30.354   9.286
 2009POPC   GL127229   8.165  30.580   9.128
 2009POPC   GL227230   8.020  30.893   9.136
 2009POPC   C1A27231   8.113  30.493   8.693
 2009POPC   D2A27232   8.375  30.613   8.332
 2009POPC   C3A27233   8.260  30.402   7.979
 2009POPC   C4A27234   7.864  30.414   7.781
 2009POPC   C1B27235   8.306  30.950   8.768
 2009POPC   C2B27236   8.238  31.110   8.340
 2009POPC   C3B27237   8.234  30.931   7.908
 2009POPC   C4B27238   7.944  30.989   7.566
 2010POPC   NC327239  23.475   8.603   9.414
 2010POPC   PO427240  23.877   7.959   9.481
 2010POPC   GL127241  23.714   8.163   9.156
 2010POPC   GL227242  23.339   8.143   9.182
 2010POPC   C1A27243  23.923   8.365   8.815
 2010POPC   D2A27244  24.064   8.258   8.441
 2010POPC   C3A27245  23.894   8.429   8.066
 2010POPC   C4A27246  23.683   8.194   7.748
 2010POPC   C1B27247  23.419   8.402   8.796
 2010POPC   C2B27248  23.446   8.383   8.335
 2010POPC   C3B27249  23.324   8.516   7.904
 2010POPC   C4B27250  23.337   8.501   7.384
 2011POPC   NC327251   1.022  19.285   9.443
 2011POPC   PO427252   1.523  18.857   9.434
 2011POPC   GL127253   1.273  18.984   9.086
 2011POPC   GL227254   1.313  19.370   9.032
 2011POPC   C1A27255   1.213  19.049   8.649
 2011POPC   D2A27256   1.251  19.369   8.337
 2011POPC   C3A27257   1.156  19.087   8.028
 2011POPC   C4A27258   1.010  18.985   7.639
 2011POPC   C1B27259   1.644  19.313   8.709
 2011POPC   C2B27260   1.672  19.077   8.324
 2011POPC   C3B27261   1.634  19.276   7.939
 2011POPC   C4B27262   1.497  19.096   7.560
 2012POPC   NC327263  19.472  40.049   9.493
 2012POPC   PO427264  20.107  40.303   9.447
 2012POPC   GL127265  19.835  40.032   9.114
 2012POPC   GL227266  19.605  39.741   9.109
 2012POPC   C1A27267  19.989  39.896   8.719
 2012POPC   D2A27268  19.879  39.649   8.398
 2012POPC   C3A27269  20.027  39.907   8.099
 2012POPC   C4A27270  19.966  39.942   7.694
 2012POPC   C1B27271  19.497  39.884   8.696
 2012POPC   C2B27272  19.597  40.085   8.329
 2012POPC   C3B27273  19.521  39.969   7.931
 2012POPC   C4B27274  19.507  40.103   7.471
 2013POPC   NC327275  41.802  22.698   9.477
 2013POPC   PO427276  41.183  22.982   9.280
 2013POPC   GL127277  41.465  22.780   9.069
 2013POPC   GL227278  41.722  23.029   9.099
 2013POPC   C1A27279  41.442  22.833   8.638
 2013POPC   D2A27280  41.317  22.639   8.301
 2013POPC   C3A27281  41.481  22.872   8.040
 2013POPC   C4A27282  41.347  22.978   7.671
 2013POPC   C1B27283  41.917  22.766   8.779
 2013POPC   C2B27284  41.913  22.948   8.349
 2013POPC   C3B27285  41.996  22.756   7.944
 2013POPC   C4B27286  41.762  22.718   7.550
 2014POPC   NC327287  21.036  27.932   9.796
 2014POPC   PO427288  20.508  28.311   9.640
 2014POPC   GL127289  20.431  28.352   9.185
 2014POPC   GL227290  20.229  28.063   9.061
 2014POPC   C1A27291  20.603  28.287   8.747
 2014POPC   D2A27292  20.455  28.424   8.324
 2014POPC   C3A27293  20.538  28.230   7.922
 2014POPC   C4A27294  20.563  28.208   7.469
 2014POPC   C1B27295  20.018  27.947   8.649
 2014POPC   C2B27296  20.051  28.038   8.187
 2014POPC   C3B27297  20.310  27.780   7.882
 2014POPC   C4B27298  20.730  27.772   7.649
 2015POPC   NC327299  42.027   0.358   9.519
 2015POPC   PO427300  42.684   0.522   9.500
 2015POPC   GL127301  42.415   0.742   9.178
 2015POPC   GL227302  42.187   0.484   9.059
 2015POPC   C1A27303  42.473   0.782   8.699
 2015POPC   D2A27304  42.469   0.777   8.227
 2015POPC   C3A27305  42.278   0.452   7.958
 2015POPC   C4A27306  41.893   0.201   7.885
 2015POPC   C1B27307  42.546   0.319   8.891
 2015POPC   C2B27308  42.637   0.334   8.447
 2015POPC   C3B27309  42.650   0.095   8.084
 2015POPC   C4B27310  42.653   0.245   7.671
 2016POPC   NC327311   6.167  17.493   9.765
 2016POPC   PO427312   6.621  17.951   9.617
 2016POPC   GL127313   6.575  17.819   9.188
 2016POPC   GL227314   6.395  17.515   9.280
 2016POPC   C1A27315   6.845  17.656   8.811
 2016POPC   D2A27316   6.826  17.351   8.470
 2016POPC   C3A27317   6.721  17.556   8.103
 2016POPC   C4A27318   6.686  17.607   7.690
 2016POPC   C1B27319   6.391  17.435   8.851
 2016POPC   C2B27320   6.390  17.131   8.546
 2016POPC   C3B27321   6.424  17.137   8.123
 2016POPC   C4B27322   6.222  17.439   7.913
 2017POPC   NC327323  27.829  18.660   9.765
 2017POPC   PO427324  27.429  18.287   9.332
 2017POPC   GL127325  27.232  18.288   8.964
 2017POPC   GL227326  27.230  18.640   8.959
 2017POPC   C1A27327  27.201  18.152   8.527
 2017POPC   D2A27328  27.407  18.319   8.197
 2017POPC   C3A27329  27.814  18.201   8.181
 2017POPC   C4A27330  27.780  18.255   7.762
 2017POPC   C1B27331  27.557  18.532   8.638
 2017POPC   C2B27332  27.870  18.714   8.365
 2017POPC   C3B27333  27.752  18.745   7.933
 2017POPC   C4B27334  27.344  18.610   7.766
 2018POPC   NC327335  32.054  39.588   9.390
 2018POPC   PO427336  31.976  38.991   9.751
 2018POPC   GL127337  32.210  39.060   9.293
 2018POPC   GL227338  32.566  38.942   9.173
 2018POPC   C1A27339  32.197  39.225   8.864
 2018POPC   D2A27340  31.931  39.437   8.570
 2018POPC   C3A27341  32.120  39.464   8.171
 2018POPC   C4A27342  32.247  39.218   7.813
 2018POPC   C1B27343  32.554  38.895   8.730
 2018POPC   C2B27344  32.517  39.098   8.312
 2018POPC   C3B27345  32.631  38.911   7.910
 2018POPC   C4B27346  32.751  38.767   7.518
 2019POPC   NC327347  10.399  27.189   9.443
 2019POPC   PO427348  10.627  27.859   9.474
 2019POPC   GL127349  10.397  27.701   9.119
 2019POPC   GL227350  10.453  27.349   8.976
 2019POPC   C1A27351  10.262  27.731   8.703
 2019POPC   D2A27352  10.439  27.467   8.399
 2019POPC   C3A27353  10.325  27.652   8.014
 2019POPC   C4A27354  10.303  27.941   7.697
 2019POPC   C1B27355  10.798  27.186   8.730
 2019POPC   C2B27356  10.970  27.230   8.311
 2019POPC   C3B27357  10.718  27.336   7.954
 2019POPC   C4B27358  10.700  27.302   7.477
 2020POPC   NC327359  27.534  12.756   9.499
 2020POPC   PO427360  27.137  13.373   9.408
 2020POPC   GL127361  27.464  13.096   9.153
 2020POPC   GL227362  27.351  12.739   9.028
 2020POPC   C1A27363  27.615  13.072   8.744
 2020POPC   D2A27364  27.466  12.942   8.342
 2020POPC   C3A27365  27.807  12.881   8.023
 2020POPC   C4A27366  27.761  12.988   7.586
 2020POPC   C1B27367  27.629  12.536   8.748
 2020POPC   C2B27368  27.649  12.456   8.308
 2020POPC   C3B27369  27.394  12.601   7.946
 2020POPC   C4B27370  27.116  12.429   7.626
 2021POPC   NC327371  44.197  21.794  10.023
 2021POPC   PO427372  43.873  22.245   9.546
 2021POPC   GL127373  43.927  22.178   9.131
 2021POPC   GL227374  43.755  21.835   9.145
 2021POPC   C1A27375  43.942  22.474   8.795
 2021POPC   D2A27376  43.793  22.524   8.422
 2021POPC   C3A27377  43.897  22.679   8.086
 2021POPC   C4A27378  43.906  22.396   7.722
 2021POPC   C1B27379  43.716  21.962   8.724
 2021POPC   C2B27380  43.558  22.072   8.335
 2021POPC   C3B27381  43.696  21.985   7.958
 2021POPC   C4B27382  43.474  21.974   7.625
 2022POPC   NC327383  29.044   7.411   9.558
 2022POPC   PO427384  29.394   7.808   9.899
 2022POPC   GL127385  29.449   7.361   9.320
 2022POPC   GL227386  29.158   7.210   9.117
 2022POPC   C1A27387  29.440   7.498   8.825
 2022POPC   D2A27388  29.257   7.666   8.435
 2022POPC   C3A27389  29.166   7.363   8.127
 2022POPC   C4A27390  29.282   7.207   7.734
 2022POPC   C1B27391  28.992   7.223   8.695
 2022POPC   C2B27392  28.711   7.079   8.349
 2022POPC   C3B27393  28.820   7.036   7.905
 2022POPC   C4B27394  28.845   7.448   7.593
 2023POPC   NC327395   3.122  24.740   9.801
 2023POPC   PO427396   2.708  24.316   9.504
 2023POPC   GL127397   2.826  24.468   9.141
 2023POPC   GL227398   3.026  24.174   9.082
 2023POPC   C1A27399   2.586  24.525   8.755
 2023POPC   D2A27400   2.469  24.741   8.361
 2023POPC   C3A27401   2.560  24.512   7.962
 2023POPC   C4A27402   2.715  24.578   7.521
 2023POPC   C1B27403   3.059  24.332   8.701
 2023POPC   C2B27404   2.897  24.396   8.327
 2023POPC   C3B27405   2.995  24.150   7.964
 2023POPC   C4B27406   2.675  24.084   7.678
 2024POPC   NC327407  39.979  14.870   9.334
 2024POPC   PO427408  40.382  15.397   9.439
 2024POPC   GL127409  40.221  15.415   9.044
 2024POPC   GL227410  39.883  15.370   9.110
 2024POPC   C1A27411  40.180  15.207   8.638
 2024POPC   D2A27412  40.128  14.843   8.356
 2024POPC   C3A27413  40.051  14.951   7.941
 2024POPC   C4A27414  40.206  15.298   7.726
 2024POPC   C1B27415  39.669  15.139   8.780
 2024POPC   C2B27416  39.576  15.359   8.447
 2024POPC   C3B27417  39.713  15.302   8.039
 2024POPC   C4B27418  39.525  14.923   7.869
 2025POPC   NC327419  11.766  44.722   9.482
 2025POPC   PO427420  11.178  44.990   9.508
 2025POPC   GL127421  11.341  44.771   9.164
 2025POPC   GL227422  11.568   0.027   9.094
 2025POPC   C1A27423  11.273  44.477   8.810
 2025POPC   D2A27424  11.433  44.493   8.393
 2025POPC   C3A27425  11.180  44.424   8.043
 2025POPC   C4A27426  11.227  44.740   7.730
 2025POPC   C1B27427  11.672  44.811   8.734
 2025POPC   C2B27428  11.713  44.946   8.351
 2025POPC   C3B27429  11.578   0.005   7.966
 2025POPC   C4B27430  11.499   0.179   7.535
 2026POPC   NC327431  22.680  18.542   9.350
 2026POPC   PO427432  22.920  19.152   9.459
 2026POPC   GL127433  22.922  19.218   9.060
 2026POPC   GL227434  22.957  18.845   9.042
 2026POPC   C1A27435  22.919  19.129   8.630
 2026POPC   D2A27436  22.983  19.328   8.249
 2026POPC   C3A27437  22.796  18.973   8.062
 2026POPC   C4A27438  22.598  18.988   7.673
 2026POPC   C1B27439  23.324  18.745   8.826
 2026POPC   C2B27440  23.286  18.518   8.437
 2026POPC   C3B27441  23.121  18.515   8.003
 2026POPC   C4B27442  23.061  18.792   7.630
 2027POPC   NC327443  25.780  12.970   9.399
 2027POPC   PO427444  26.252  12.465   9.591
 2027POPC   GL127445  26.302  12.577   9.148
 2027POPC   GL227446  25.957  12.585   9.104
 2027POPC   C1A27447  26.261  12.711   8.676
 2027POPC   D2A27448  26.016  12.947   8.320
 2027POPC   C3A27449  26.132  12.875   7.892
 2027POPC   C4A27450  26.010  13.073   7.479
 2027POPC   C1B27451  25.812  12.442   8.735
 2027POPC   C2B27452  25.626  12.492   8.361
 2027POPC   C3B27453  25.650  12.720   7.992
 2027POPC   C4B27454  25.809  12.628   7.583
 2028POPC   NC327455  17.226  34.461   9.622
 2028POPC   PO427456  17.817  34.802   9.438
 2028POPC   GL127457  17.683  34.546   9.089
 2028POPC   GL227458  17.340  34.538   9.139
 2028POPC   C1A27459  17.469  34.616   8.666
 2028POPC   D2A27460  17.299  34.706   8.267
 2028POPC   C3A27461  17.551  34.562   7.939
 2028POPC   C4A27462  17.925  34.819   7.884
 2028POPC   C1B27463  17.200  34.215   8.844
 2028POPC   C2B27464  17.165  34.234   8.389
 2028POPC   C3B27465  17.118  34.235   7.914
 2028POPC   C4B27466  17.153  34.409   7.477
 2029POPC   NC327467  35.032  32.247   9.765
 2029POPC   PO427468  35.381  31.994   9.253
 2029POPC   GL127469  35.279  32.354   9.053
 2029POPC   GL227470  35.620  32.293   8.880
 2029POPC   C1A27471  35.285  32.575   8.670
 2029POPC   D2A27472  35.550  32.426   8.361
 2029POPC   C3A27473  35.287  32.507   8.055
 2029POPC   C4A27474  35.280  32.440   7.639
 2029POPC   C1B27475  35.568  31.933   8.628
 2029POPC   C2B27476  35.728  31.927   8.240
 2029POPC   C3B27477  35.517  32.054   7.888
 2029POPC   C4B27478  35.425  31.990   7.470
 2030POPC   NC327479  15.802   0.225   9.517
 2030POPC   PO427480  16.353   0.646   9.479
 2030POPC   GL127481  16.194   0.385   9.119
 2030POPC   GL227482  15.891   0.183   9.039
 2030POPC   C1A27483  15.949   0.598   8.762
 2030POPC   D2A27484  15.763   0.801   8.394
 2030POPC   C3A27485  15.947   0.645   8.033
 2030POPC   C4A27486  15.862   0.519   7.621
 2030POPC   C1B27487  15.637   0.196   8.691
 2030POPC   C2B27488  15.708   0.256   8.280
 2030POPC   C3B27489  15.932   0.131   7.948
 2030POPC   C4B27490  16.236   0.145   7.621
 2031POPC   NC327491   2.597  23.231   9.469
 2031POPC   PO427492   2.951  22.673   9.394
 2031POPC   GL127493   3.119  22.929   9.135
 2031POPC   GL227494   2.913  23.216   9.042
 2031POPC   C1A27495   3.050  22.837   8.716
 2031POPC   D2A27496   2.830  22.889   8.343
 2031POPC   C3A27497   3.143  22.875   8.028
 2031POPC   C4A27498   3.034  22.803   7.603
 2031POPC   C1B27499   2.537  22.991   8.830
 2031POPC   C2B27500   2.308  23.118   8.447
 2031POPC   C3B27501   2.431  23.293   8.101
 2031POPC   C4B27502   2.746  23.131   7.840
 2032POPC   NC327503   3.266   9.374   9.413
 2032POPC   PO427504   3.410   8.655   9.515
 2032POPC   GL127505   3.574   8.977   9.219
 2032POPC   GL227506   3.887   9.120   9.345
 2032POPC   C1A27507   3.481   9.041   8.752
 2032POPC   D2A27508   3.491   8.831   8.319
 2032POPC   C3A27509   3.397   9.117   7.964
 2032POPC   C4A27510   3.452   8.942   7.547
 2032POPC   C1B27511   3.989   9.025   8.884
 2032POPC   C2B27512   3.917   9.109   8.438
 2032POPC   C3B27513   3.892   9.007   7.991
 2032POPC   C4B27514   3.781   9.294   7.666
 2033POPC   NC327515  35.481  35.526   9.551
 2033POPC   PO427516  35.010  35.146   9.397
 2033POPC   GL127517  35.253  35.259   9.084
 2033POPC   GL227518  35.585  35.274   9.115
 2033POPC   C1A27519  35.228  35.179   8.665
 2033POPC   D2A27520  35.461  35.227   8.302
 2033POPC   C3A27521  35.193  35.339   7.997
 2033POPC   C4A27522  35.017  35.169   7.650
 2033POPC   C1B27523  35.703  35.461   8.722
 2033POPC   C2B27524  35.943  35.390   8.344
 2033POPC   C3B27525  35.788  35.400   7.929
 2033POPC   C4B27526  35.545  35.186   7.617
 2034POPC   NC327527  43.761  37.972   9.580
 2034POPC   PO427528  43.977  38.567   9.552
 2034POPC   GL127529  43.872  38.357   9.193
 2034POPC   GL227530  44.151  38.124   9.249
 2034POPC   C1A27531  43.873  38.556   8.785
 2034POPC   D2A27532  44.112  38.667   8.440
 2034POPC   C3A27533  43.966  38.513   8.057
 2034POPC   C4A27534  44.042  38.633   7.642
 2034POPC   C1B27535  44.176  38.101   8.801
 2034POPC   C2B27536  43.916  38.135   8.435
 2034POPC   C3B27537  43.982  37.994   8.009
 2034POPC   C4B27538  43.963  38.131   7.580
 2035POPC   NC327539  40.974  27.882   9.747
 2035POPC   PO427540  40.584  27.352   9.461
 2035POPC   GL127541  40.799  27.532   9.118
 2035POPC   GL227542  40.732  27.862   9.093
 2035POPC   C1A27543  40.820  27.638   8.663
 2035POPC   D2A27544  40.570  27.465   8.383
 2035POPC   C3A27545  40.755  27.545   8.022
 2035POPC   C4A27546  40.695  27.366   7.667
 2035POPC   C1B27547  41.177  27.926   8.879
 2035POPC   C2B27548  41.293  28.033   8.440
 2035POPC   C3B27549  41.099  28.024   8.023
 2035POPC   C4B27550  40.988  27.791   7.619
 2036POPC   NC327551  41.469   6.317   9.724
 2036POPC   PO427552  41.321   5.819   9.316
 2036POPC   GL127553  41.511   5.854   8.977
 2036POPC   GL227554  41.208   6.039   8.864
 2036POPC   C1A27555  41.600   5.960   8.571
 2036POPC   D2A27556  41.455   5.935   8.202
 2036POPC   C3A27557  41.800   5.826   7.955
 2036POPC   C4A27558  41.842   5.776   7.512
 2036POPC   C1B27559  41.151   5.650   8.671
 2036POPC   C2B27560  41.006   5.600   8.302
 2036POPC   C3B27561  41.187   5.592   7.919
 2036POPC   C4B27562  41.385   5.860   7.662
 2037POPC   NC327563   2.468  16.938   9.502
 2037POPC   PO427564   2.917  16.479   9.401
 2037POPC   GL127565   2.802  16.801   9.136
 2037POPC   GL227566   2.560  16.548   9.032
 2037POPC   C1A27567   2.589  17.007   8.821
 2037POPC   D2A27568   2.500  16.797   8.448
 2037POPC   C3A27569   2.659  17.024   8.110
 2037POPC   C4A27570   2.762  17.087   7.719
 2037POPC   C1B27571   2.917  16.499   8.735
 2037POPC   C2B27572   2.984  16.644   8.336
 2037POPC   C3B27573   2.785  16.548   7.960
 2037POPC   C4B27574   2.969  16.625   7.574
 2038POPC   NC327575   5.001  40.139   9.361
 2038POPC   PO427576   5.260  39.544   9.593
 2038POPC   GL127577   5.253  39.750   9.189
 2038POPC   GL227578   4.899  39.662   9.160
 2038POPC   C1A27579   5.184  39.958   8.776
 2038POPC   D2A27580   5.354  40.100   8.413
 2038POPC   C3A27581   5.225  39.958   8.049
 2038POPC   C4A27582   5.086  40.018   7.667
 2038POPC   C1B27583   4.715  39.720   8.754
 2038POPC   C2B27584   4.899  39.742   8.364
 2038POPC   C3B27585   4.739  39.763   7.947
 2038POPC   C4B27586   4.743  39.660   7.529
 2039POPC   NC327587  26.242  23.047   9.459
 2039POPC   PO427588  25.640  22.973   9.459
 2039POPC   GL127589  25.904  22.938   9.089
 2039POPC   GL227590  26.022  23.295   9.078
 2039POPC   C1A27591  26.135  22.984   8.667
 2039POPC   D2A27592  26.440  23.031   8.303
 2039POPC   C3A27593  26.358  22.922   7.874
 2039POPC   C4A27594  25.974  22.812   7.666
 2039POPC   C1B27595  25.689  23.281   8.791
 2039POPC   C2B27596  25.604  23.292   8.371
 2039POPC   C3B27597  25.767  23.138   7.999
 2039POPC   C4B27598  26.073  23.318   7.710
 2040POPC   NC327599  16.267  23.013   9.588
 2040POPC   PO427600  16.856  22.695   9.569
 2040POPC   GL127601  16.799  23.008   9.238
 2040POPC   GL227602  16.440  23.030   9.104
 2040POPC   C1A27603  17.060  23.121   8.867
 2040POPC   D2A27604  17.029  23.379   8.500
 2040POPC   C3A27605  17.097  23.199   8.108
 2040POPC   C4A27606  16.854  23.031   7.773
 2040POPC   C1B27607  16.668  22.766   8.788
 2040POPC   C2B27608  16.822  22.833   8.363
 2040POPC   C3B27609  16.741  22.594   7.987
 2040POPC   C4B27610  16.463  22.384   7.706
 2041POPC   NC327611  14.244   7.682   9.543
 2041POPC   PO427612  14.232   6.992   9.425
 2041POPC   GL127613  14.318   7.380   9.156
 2041POPC   GL227614  14.040   7.647   9.089
 2041POPC   C1A27615  14.604   7.439   8.826
 2041POPC   D2A27616  14.742   7.164   8.509
 2041POPC   C3A27617  14.578   7.321   8.129
 2041POPC   C4A27618  14.452   7.146   7.752
 2041POPC   C1B27619  14.227   7.782   8.747
 2041POPC   C2B27620  14.215   7.575   8.416
 2041POPC   C3B27621  13.944   7.718   8.141
 2041POPC   C4B27622  14.132   7.759   7.764
 2042POPC   NC327623   5.794  40.591   9.490
 2042POPC   PO427624   6.020  41.192   9.518
 2042POPC   GL127625   5.831  40.966   9.128
 2042POPC   GL227626   5.492  40.788   9.090
 2042POPC   C1A27627   5.840  40.677   8.732
 2042POPC   D2A27628   5.552  40.560   8.353
 2042POPC   C3A27629   5.793  40.485   7.961
 2042POPC   C4A27630   6.186  40.715   7.771
 2042POPC   C1B27631   5.458  40.976   8.646
 2042POPC   C2B27632   5.779  41.013   8.304
 2042POPC   C3B27633   5.776  41.002   7.860
 2042POPC   C4B27634   5.630  41.146   7.431
 2043POPC   NC327635   0.856  17.751   9.371
 2043POPC   PO427636   1.348  17.309   9.538
 2043POPC   GL127637   1.206  17.452   9.161
 2043POPC   GL227638   1.037  17.186   8.972
 2043POPC   C1A27639   1.146  17.650   8.764
 2043POPC   D2A27640   1.282  17.531   8.369
 2043POPC   C3A27641   1.154  17.596   7.954
 2043POPC   C4A27642   1.106  17.215   7.736
 2043POPC   C1B27643   1.478  17.250   8.772
 2043POPC   C2B27644   1.708  17.129   8.406
 2043POPC   C3B27645   1.552  17.266   8.017
 2043POPC   C4B27646   1.609  17.375   7.597
 2044POPC   NC327647  16.655   2.844   9.448
 2044POPC   PO427648  16.961   2.237   9.407
 2044POPC   GL127649  16.779   2.550   9.051
 2044POPC   GL227650  16.953   2.889   9.038
 2044POPC   C1A27651  16.598   2.813   8.671
 2044POPC   D2A27652  16.335   2.859   8.292
 2044POPC   C3A27653  16.588   2.804   7.922
 2044POPC   C4A27654  16.971   3.016   7.776
 2044POPC   C1B27655  17.115   2.706   8.663
 2044POPC   C2B27656  17.070   2.800   8.253
 2044POPC   C3B27657  17.024   2.538   7.931
 2044POPC   C4B27658  16.720   2.279   7.799
 2045POPC   NC327659  39.848  17.377   9.586
 2045POPC   PO427660  40.363  17.067   9.286
 2045POPC   GL127661  40.056  17.342   9.103
 2045POPC   GL227662  39.661  17.350   9.128
 2045POPC   C1A27663  40.215  17.536   8.754
 2045POPC   D2A27664  40.312  17.382   8.366
 2045POPC   C3A27665  40.268  17.699   8.078
 2045POPC   C4A27666  40.314  17.518   7.713
 2045POPC   C1B27667  39.702  17.549   8.765
 2045POPC   C2B27668  39.815  17.546   8.376
 2045POPC   C3B27669  39.762  17.898   8.142
 2045POPC   C4B27670  39.781  17.647   7.812
 2046POPC   NC327671  44.483  18.716   9.416
 2046POPC   PO427672  44.489  18.025   9.492
 2046POPC   GL127673  44.691  18.301   9.213
 2046POPC   GL227674  44.939  18.120   9.077
 2046POPC   C1A27675  44.586  18.493   8.814
 2046POPC   D2A27676  44.670  18.598   8.418
 2046POPC   C3A27677  44.788  18.336   8.088
 2046POPC   C4A27678  44.682  18.454   7.689
 2046POPC   C1B27679  44.595  17.986   8.830
 2046POPC   C2B27680  44.434  18.009   8.442
 2046POPC   C3B27681  44.497  17.732   8.123
 2046POPC   C4B27682  44.585  17.947   7.769
 2047POPC   NC327683  11.434   9.104   9.655
 2047POPC   PO427684  11.066   8.696   9.324
 2047POPC   GL127685  11.304   8.895   8.990
 2047POPC   GL227686  11.424   9.233   9.112
 2047POPC   C1A27687  11.162   9.142   8.626
 2047POPC   D2A27688  10.944   9.051   8.247
 2047POPC   C3A27689  11.236   8.892   7.986
 2047POPC   C4A27690  11.304   8.831   7.570
 2047POPC   C1B27691  11.669   9.143   8.728
 2047POPC   C2B27692  11.612   8.996   8.328
 2047POPC   C3B27693  11.744   9.061   7.907
 2047POPC   C4B27694  11.601   9.218   7.528
 2048POPC   NC327695  28.597   6.953   9.489
 2048POPC   PO427696  28.482   6.376   9.449
 2048POPC   GL127697  28.408   6.695   9.095
 2048POPC   GL227698  28.697   6.945   9.006
 2048POPC   C1A27699  28.402   6.671   8.659
 2048POPC   D2A27700  28.286   6.482   8.286
 2048POPC   C3A27701  28.297   6.837   8.007
 2048POPC   C4A27702  28.028   6.889   7.661
 2048POPC   C1B27703  28.905   6.665   8.743
 2048POPC   C2B27704  28.792   6.583   8.329
 2048POPC   C3B27705  28.668   6.472   7.925
 2048POPC   C4B27706  28.543   6.658   7.565
 2049POPC   NC327707  24.403  15.781   9.428
 2049POPC   PO427708  24.774  16.330   9.475
 2049POPC   GL127709  24.681  16.118   9.137
 2049POPC   GL227710  24.331  16.194   9.115
 2049POPC   C1A27711  24.639  16.064   8.715
 2049POPC   D2A27712  24.438  15.852   8.376
 2049POPC   C3A27713  24.545  15.973   7.963
 2049POPC   C4A27714  24.549  15.720   7.596
 2049POPC   C1B27715  24.141  16.234   8.711
 2049POPC   C2B27716  24.254  16.335   8.292
 2049POPC   C3B27717  24.109  16.227   7.924
 2049POPC   C4B27718  24.070  15.775   7.776
 2050POPC   NC327719  43.486  37.394   9.264
 2050POPC   PO427720  43.942  37.569   9.720
 2050POPC   GL127721  43.964  37.623   9.246
 2050POPC   GL227722  43.749  37.861   9.053
 2050POPC   C1A27723  44.076  37.557   8.794
 2050POPC   D2A27724  44.212  37.716   8.380
 2050POPC   C3A27725  44.180  37.483   8.022
 2050POPC   C4A27726  44.038  37.619   7.653
 2050POPC   C1B27727  43.597  37.746   8.634
 2050POPC   C2B27728  43.724  37.556   8.241
 2050POPC   C3B27729  43.726  37.288   7.868
 2050POPC   C4B27730  43.611  37.388   7.433
 2051POPC   NC327731  17.336  14.257   9.449
 2051POPC   PO427732  17.684  14.894   9.407
 2051POPC   GL127733  17.616  14.541   9.086
 2051POPC   GL227734  17.539  14.162   8.997
 2051POPC   C1A27735  17.262  14.496   8.779
 2051POPC   D2A27736  17.269  14.559   8.357
 2051POPC   C3A27737  17.285  14.283   8.021
 2051POPC   C4A27738  17.484  14.377   7.642
 2051POPC   C1B27739  17.833  13.996   8.749
 2051POPC   C2B27740  17.925  14.184   8.397
 2051POPC   C3B27741  17.799  14.234   8.007
 2051POPC   C4B27742  17.863  14.052   7.616
 2052POPC   NC327743  16.199  15.576   9.521
 2052POPC   PO427744  15.798  16.071   9.481
 2052POPC   GL127745  16.059  16.120   9.182
 2052POPC   GL227746  15.995  15.781   9.085
 2052POPC   C1A27747  16.008  16.202   8.776
 2052POPC   D2A27748  15.999  15.917   8.452
 2052POPC   C3A27749  15.944  16.099   8.083
 2052POPC   C4A27750  15.891  16.179   7.661
 2052POPC   C1B27751  16.181  15.563   8.780
 2052POPC   C2B27752  16.392  15.580   8.419
 2052POPC   C3B27753  16.192  15.583   8.075
 2052POPC   C4B27754  16.218  15.807   7.752
 2053POPC   NC327755  36.413  39.799   9.512
 2053POPC   PO427756  35.863  40.281   9.522
 2053POPC   GL127757  36.074  40.019   9.186
 2053POPC   GL227758  36.342  39.825   9.026
 2053POPC   C1A27759  35.898  39.859   8.781
 2053POPC   D2A27760  35.857  40.179   8.445
 2053POPC   C3A27761  35.768  40.035   8.041
 2053POPC   C4A27762  35.942  39.780   7.702
 2053POPC   C1B27763  36.354  39.974   8.629
 2053POPC   C2B27764  36.230  39.921   8.231
 2053POPC   C3B27765  36.360  40.040   7.858
 2053POPC   C4B27766  36.701  39.841   7.727
 2054POPC   NC327767  24.627  23.335   9.424
 2054POPC   PO427768  24.212  22.867   9.712
 2054POPC   GL127769  24.172  23.046   9.245
 2054POPC   GL227770  24.421  23.142   9.029
 2054POPC   C1A27771  24.205  22.809   8.763
 2054POPC   D2A27772  24.270  23.060   8.404
 2054POPC   C3A27773  24.357  22.895   8.003
 2054POPC   C4A27774  24.492  22.587   7.742
 2054POPC   C1B27775  24.703  23.371   8.778
 2054POPC   C2B27776  24.754  23.237   8.415
 2054POPC   C3B27777  24.537  23.378   8.090
 2054POPC   C4B27778  24.770  23.342   7.776
 2055POPC   NC327779  43.806  39.639   9.517
 2055POPC   PO427780  44.000  40.289   9.461
 2055POPC   GL127781  44.033  40.037   9.076
 2055POPC   GL227782  43.688  39.921   9.092
 2055POPC   C1A27783  43.849  40.157   8.637
 2055POPC   D2A27784  43.548  40.225   8.306
 2055POPC   C3A27785  43.762  40.002   8.009
 2055POPC   C4A27786  44.218  40.032   7.976
 2055POPC   C1B27787  43.801  39.663   8.725
 2055POPC   C2B27788  44.043  39.715   8.361
 2055POPC   C3B27789  43.952  39.528   7.978
 2055POPC   C4B27790  43.551  39.547   7.773
 2056POPC   NC327791  36.869  19.661   9.757
 2056POPC   PO427792  36.869  19.013   9.492
 2056POPC   GL127793  37.067  18.981   9.086
 2056POPC   GL227794  36.953  19.329   9.058
 2056POPC   C1A27795  37.250  19.091   8.682
 2056POPC   D2A27796  37.103  19.220   8.270
 2056POPC   C3A27797  36.913  18.934   7.948
 2056POPC   C4A27798  37.280  19.045   7.706
 2056POPC   C1B27799  36.911  19.502   8.668
 2056POPC   C2B27800  36.618  19.461   8.325
 2056POPC   C3B27801  36.777  19.408   7.929
 2056POPC   C4B27802  36.842  19.242   7.501
 2057POPC   NC327803  11.448  18.545   9.517
 2057POPC   PO427804  11.025  17.975   9.566
 2057POPC   GL127805  11.160  18.233   9.230
 2057POPC   GL227806  11.466  18.170   9.126
 2057POPC   C1A27807  11.063  18.398   8.814
 2057POPC   D2A27808  11.084  18.365   8.352
 2057POPC   C3A27809  11.435  18.610   8.129
 2057POPC   C4A27810  11.626  18.494   7.731
 2057POPC   C1B27811  11.499  17.893   8.800
 2057POPC   C2B27812  11.641  17.913   8.393
 2057POPC   C3B27813  11.420  18.067   8.051
 2057POPC   C4B27814  11.145  18.297   7.838
 2058POPC   NC327815   6.730  10.866   9.535
 2058POPC   PO427816   6.549  11.498   9.733
 2058POPC   GL127817   6.681  11.287   9.254
 2058POPC   GL227818   6.861  11.021   9.074
 2058POPC   C1A27819   6.703  11.394   8.779
 2058POPC   D2A27820   6.568  11.223   8.384
 2058POPC   C3A27821   6.500  11.434   7.978
 2058POPC   C4A27822   6.759  11.257   7.657
 2058POPC   C1B27823   6.510  10.877   8.814
 2058POPC   C2B27824   6.324  10.763   8.395
 2058POPC   C3B27825   6.442  10.935   7.962
 2058POPC   C4B27826   6.338  11.008   7.503
 2059POPC   NC327827  15.794  14.468   9.682
 2059POPC   PO427828  15.500  14.842   9.216
 2059POPC   GL127829  15.781  14.424   9.169
 2059POPC   GL227830  16.190  14.409   9.088
 2059POPC   C1A27831  15.823  14.179   8.806
 2059POPC   D2A27832  16.022  14.401   8.482
 2059POPC   C3A27833  16.140  14.310   8.066
 2059POPC   C4A27834  15.815  14.434   7.772
 2059POPC   C1B27835  16.404  14.638   8.718
 2059POPC   C2B27836  16.309  14.787   8.258
 2059POPC   C3B27837  16.239  14.734   7.763
 2059POPC   C4B27838  16.317  14.801   7.296
 2060POPC   NC327839  29.841  31.762   9.620
 2060POPC   PO427840  30.393  31.460   9.503
 2060POPC   GL127841  30.082  31.468   9.178
 2060POPC   GL227842  30.138  31.774   9.161
 2060POPC   C1A27843  29.849  31.312   8.814
 2060POPC   D2A27844  29.774  31.506   8.415
 2060POPC   C3A27845  29.928  31.315   8.046
 2060POPC   C4A27846  29.670  31.347   7.739
 2060POPC   C1B27847  29.957  31.833   8.765
 2060POPC   C2B27848  30.059  31.940   8.359
 2060POPC   C3B27849  29.896  31.841   7.952
 2060POPC   C4B27850  30.245  31.699   7.750
 2061POPC   NC327851   8.323  15.692   9.680
 2061POPC   PO427852   8.324  15.079   9.337
 2061POPC   GL127853   8.136  15.236   8.924
 2061POPC   GL227854   7.988  15.583   8.982
 2061POPC   C1A27855   7.934  15.316   8.501
 2061POPC   D2A27856   7.912  15.433   8.050
 2061POPC   C3A27857   8.208  15.200   7.850
 2061POPC   C4A27858   8.116  14.841   7.674
 2061POPC   C1B27859   8.288  15.650   8.637
 2061POPC   C2B27860   8.373  15.493   8.264
 2061POPC   C3B27861   8.393  15.675   7.878
 2061POPC   C4B27862   8.433  15.588   7.435
 2062POPC   NC327863   4.542   0.490  10.013
 2062POPC   PO427864   4.085   0.305   9.524
 2062POPC   GL127865   4.414   0.457   9.287
 2062POPC   GL227866   4.219   0.767   9.238
 2062POPC   C1A27867   4.595   0.439   8.867
 2062POPC   D2A27868   4.379   0.276   8.507
 2062POPC   C3A27869   4.548   0.326   8.095
 2062POPC   C4A27870   4.364   0.339   7.714
 2062POPC   C1B27871   4.109   0.593   8.859
 2062POPC   C2B27872   4.097   0.760   8.441
 2062POPC   C3B27873   4.187   0.686   8.046
 2062POPC   C4B27874   4.175   0.795   7.620
 2063POPC   NC327875  11.015   4.160   9.404
 2063POPC   PO427876  11.610   4.532   9.611
 2063POPC   GL127877  11.365   4.468   9.221
 2063POPC   GL227878  11.508   4.151   9.221
 2063POPC   C1A27879  11.218   4.343   8.801
 2063POPC   D2A27880  11.214   4.584   8.391
 2063POPC   C3A27881  10.960   4.479   8.044
 2063POPC   C4A27882  11.052   4.321   7.646
 2063POPC   C1B27883  11.655   4.073   8.816
 2063POPC   C2B27884  11.527   4.193   8.395
 2063POPC   C3B27885  11.480   4.345   7.962
 2063POPC   C4B27886  11.647   4.140   7.549
 2064POPC   NC327887  27.335  14.763   9.348
 2064POPC   PO427888  27.606  15.208   9.805
 2064POPC   GL127889  27.622  15.233   9.333
 2064POPC   GL227890  27.912  15.056   9.228
 2064POPC   C1A27891  27.402  15.305   8.900
 2064POPC   D2A27892  27.264  15.391   8.457
 2064POPC   C3A27893  27.562  15.404   8.119
 2064POPC   C4A27894  27.610  15.235   7.716
 2064POPC   C1B27895  27.751  14.926   8.836
 2064POPC   C2B27896  27.723  15.055   8.445
 2064POPC   C3B27897  27.614  14.880   8.072
 2064POPC   C4B27898  27.868  14.621   7.819
 2065POPC   NC327899  15.289   1.575   9.536
 2065POPC   PO427900  14.679   1.198   9.446
 2065POPC   GL127901  15.086   1.223   9.224
 2065POPC   GL227902  15.284   0.903   9.211
 2065POPC   C1A27903  15.368   1.299   8.880
 2065POPC   D2A27904  15.363   1.578   8.523
 2065POPC   C3A27905  15.362   1.452   8.077
 2065POPC   C4A27906  15.478   1.401   7.634
 2065POPC   C1B27907  15.451   0.805   8.803
 2065POPC   C2B27908  15.296   1.048   8.453
 2065POPC   C3B27909  15.142   0.984   8.092
 2065POPC   C4B27910  15.145   1.028   7.681
 2066POPC   NC327911  17.863  32.343   9.437
 2066POPC   PO427912  17.266  32.238   9.592
 2066POPC   GL127913  17.499  32.194   9.131
 2066POPC   GL227914  17.850  32.085   8.997
 2066POPC   C1A27915  17.439  31.980   8.723
 2066POPC   D2A27916  17.640  31.980   8.332
 2066POPC   C3A27917  17.401  32.013   8.007
 2066POPC   C4A27918  17.352  32.432   7.862
 2066POPC   C1B27919  17.787  32.384   8.695
 2066POPC   C2B27920  17.689  32.487   8.263
 2066POPC   C3B27921  17.832  32.315   7.842
 2066POPC   C4B27922  17.858  32.375   7.318
 2067POPC   NC327923  30.039  12.860   9.668
 2067POPC   PO427924  29.439  12.766   9.496
 2067POPC   GL127925  29.828  12.728   9.201
 2067POPC   GL227926  30.148  12.913   9.175
 2067POPC   C1A27927  29.942  12.712   8.765
 2067POPC   D2A27928  29.712  12.966   8.443
 2067POPC   C3A27929  29.630  12.880   8.028
 2067POPC   C4A27930  29.760  12.617   7.706
 2067POPC   C1B27931  30.343  13.023   8.745
 2067POPC   C2B27932  30.221  12.933   8.340
 2067POPC   C3B27933  30.158  12.865   7.925
 2067POPC   C4B27934  29.892  13.104   7.657
 2068POPC   NC327935   8.698  27.950   9.323
 2068POPC   PO427936   9.178  27.505   9.422
 2068POPC   GL127937   8.968  27.612   9.086
 2068POPC   GL227938   9.267  27.681   8.900
 2068POPC   C1A27939   8.835  27.842   8.703
 2068POPC   D2A27940   9.026  27.733   8.359
 2068POPC   C3A27941   8.837  27.669   8.015
 2068POPC   C4A27942   9.040  27.995   7.816
 2068POPC   C1B27943   9.018  27.342   8.684
 2068POPC   C2B27944   8.873  27.218   8.307
 2068POPC   C3B27945   9.042  27.205   7.925
 2068POPC   C4B27946   9.394  27.227   7.673
 2069POPC   NC327947  19.183  41.003   9.424
 2069POPC   PO427948  19.116  40.333   9.576
 2069POPC   GL127949  19.179  40.629   9.110
 2069POPC   GL227950  18.917  40.834   8.996
 2069POPC   C1A27951  19.332  40.840   8.696
 2069POPC   D2A27952  19.515  40.641   8.304
 2069POPC   C3A27953  19.344  40.737   7.890
 2069POPC   C4A27954  19.175  40.485   7.534
 2069POPC   C1B27955  18.839  40.648   8.648
 2069POPC   C2B27956  18.999  40.689   8.272
 2069POPC   C3B27957  18.821  40.658   7.860
 2069POPC   C4B27958  18.646  40.932   7.541
 2070POPC   NC327959  24.689   8.956   9.417
 2070POPC   PO427960  23.996   8.736   9.355
 2070POPC   GL127961  24.284   9.044   9.072
 2070POPC   GL227962  24.658   9.215   8.997
 2070POPC   C1A27963  24.279   9.203   8.660
 2070POPC   D2A27964  24.525   9.269   8.293
 2070POPC   C3A27965  24.382   9.041   7.928
 2070POPC   C4A27966  24.483   8.924   7.489
 2070POPC   C1B27967  24.759   8.932   8.675
 2070POPC   C2B27968  24.972   8.999   8.288
 2070POPC   C3B27969  24.887   9.014   7.880
 2070POPC   C4B27970  24.969   8.804   7.502
 2071POPC   NC327971  11.774  26.346   9.434
 2071POPC   PO427972  12.141  25.821   9.431
 2071POPC   GL127973  12.123  26.144   9.126
 2071POPC   GL227974  12.449  26.238   9.002
 2071POPC   C1A27975  11.955  26.265   8.733
 2071POPC   D2A27976  12.052  26.099   8.345
 2071POPC   C3A27977  11.789  26.096   8.024
 2071POPC   C4A27978  11.889  26.142   7.654
 2071POPC   C1B27979  12.318  25.863   8.729
 2071POPC   C2B27980  12.401  25.738   8.302
 2071POPC   C3B27981  12.247  25.875   7.906
 2071POPC   C4B27982  12.000  25.613   7.615
 2072POPC   NC327983   0.457  20.023   9.810
 2072POPC   PO427984   1.006  19.725   9.537
 2072POPC   GL127985   0.653  19.593   9.170
 2072POPC   GL227986   0.288  19.750   9.162
 2072POPC   C1A27987   0.421  19.585   8.717
 2072POPC   D2A27988   0.417  19.864   8.360
 2072POPC   C3A27989   0.341  19.666   7.991
 2072POPC   C4A27990   0.506  19.705   7.605
 2072POPC   C1B27991   0.121  20.004   8.763
 2072POPC   C2B27992  44.916  19.918   8.346
 2072POPC   C3B27993  44.923  19.933   7.860
 2072POPC   C4B27994   0.142  20.006   7.455
 2073POPC   NC327995  44.399   7.323   9.414
 2073POPC   PO427996  44.808   7.866   9.367
 2073POPC   GL127997  44.734   7.547   9.084
 2073POPC   GL227998  44.397   7.619   9.010
 2073POPC   C1A27999  44.630   7.175   8.811
 2073POPC   D2A28000  44.736   7.110   8.385
 2073POPC   C3A28001  44.452   7.223   8.087
 2073POPC   C4A28002  44.629   7.116   7.728
 2073POPC   C1B28003  44.489   7.603   8.594
 2073POPC   C2B28004  44.716   7.653   8.251
 2073POPC   C3B28005  44.789   7.852   7.859
 2073POPC   C4B28006   0.148   7.947   7.620
 2074POPC   NC328007  38.291  17.856   9.527
 2074POPC   PO428008  38.368  17.177   9.619
 2074POPC   GL128009  38.469  17.423   9.264
 2074POPC   GL228010  38.215  17.602   9.106
 2074POPC   C1A28011  38.534  17.354   8.822
 2074POPC   D2A28012  38.473  17.074   8.472
 2074POPC   C3A28013  38.638  17.296   8.122
 2074POPC   C4A28014  38.497  17.416   7.734
 2074POPC   C1B28015  38.092  17.757   8.719
 2074POPC   C2B28016  38.093  17.558   8.303
 2074POPC   C3B28017  38.033  17.572   7.829
 2074POPC   C4B28018  38.096  17.745   7.364
 2075POPC   NC328019   3.597  40.415   9.488
 2075POPC   PO428020   3.156  40.860   9.732
 2075POPC   GL128021   3.307  40.757   9.249
 2075POPC   GL228022   3.672  40.823   9.150
 2075POPC   C1A28023   3.389  40.740   8.760
 2075POPC   D2A28024   3.557  40.975   8.448
 2075POPC   C3A28025   3.274  41.072   8.128
 2075POPC   C4A28026   3.265  40.834   7.758
 2075POPC   C1B28027   3.936  40.807   8.765
 2075POPC   C2B28028   3.932  40.646   8.357
 2075POPC   C3B28029   3.677  40.686   8.007
 2075POPC   C4B28030   3.737  40.647   7.543
 2076POPC   NC328031   0.927  11.999   9.385
 2076POPC   PO428032   1.579  12.372   9.488
 2076POPC   GL128033   1.356  12.217   9.109
 2076POPC   GL228034   1.325  11.834   9.070
 2076POPC   C1A28035   1.344  12.335   8.663
 2076POPC   D2A28036   1.131  12.401   8.243
 2076POPC   C3A28037   1.100  12.016   7.968
 2076POPC   C4A28038   1.456  11.776   7.816
 2076POPC   C1B28039   1.036  11.921   8.699
 2076POPC   C2B28040   0.765  11.767   8.328
 2076POPC   C3B28041   0.625  11.754   7.907
 2076POPC   C4B28042   0.689  12.104   7.609
 2077POPC   NC328043  12.263   0.649   9.665
 2077POPC   PO428044  12.101   0.048   9.516
 2077POPC   GL128045  12.045   0.337   9.184
 2077POPC   GL228046  12.395   0.388   9.197
 2077POPC   C1A28047  11.877   0.345   8.742
 2077POPC   D2A28048  11.803   0.637   8.384
 2077POPC   C3A28049  11.800   0.459   7.985
 2077POPC   C4A28050  12.045   0.115   7.807
 2077POPC   C1B28051  12.365   0.545   8.783
 2077POPC   C2B28052  12.292   0.382   8.369
 2077POPC   C3B28053  12.305   0.597   7.969
 2077POPC   C4B28054  12.340   0.446   7.558
 2078POPC   NC328055  44.354  44.531   9.754
 2078POPC   PO428056  44.055   0.043   9.515
 2078POPC   GL128057  44.046  44.771   9.118
 2078POPC   GL228058  43.632  44.702   9.030
 2078POPC   C1A28059  44.016  44.873   8.736
 2078POPC   D2A28060  43.736   0.079   8.514
 2078POPC   C3A28061  43.869  44.852   8.174
 2078POPC   C4A28062  44.128  44.948   7.856
 2078POPC   C1B28063  43.790  44.417   8.732
 2078POPC   C2B28064  44.080  44.444   8.409
 2078POPC   C3B28065  44.024  44.360   7.969
 2078POPC   C4B28066  43.757  44.480   7.610
 2079POPC   NC328067  30.430  33.754   9.774
 2079POPC   PO428068  29.797  33.696   9.482
 2079POPC   GL128069  29.816  33.879   9.103
 2079POPC   GL228070  29.779  33.534   8.992
 2079POPC   C1A28071  30.085  33.945   8.739
 2079POPC   D2A28072  30.001  33.839   8.328
 2079POPC   C3A28073  30.128  34.090   7.992
 2079POPC   C4A28074  29.935  33.892   7.653
 2079POPC   C1B28075  29.600  33.719   8.649
 2079POPC   C2B28076  29.463  33.685   8.266
 2079POPC   C3B28077  29.462  33.850   7.846
 2079POPC   C4B28078  29.570  33.551   7.505
 2080POPC   NC328079  17.860  25.139   9.216
 2080POPC   PO428080  17.291  24.851   9.438
 2080POPC   GL128081  17.340  25.132   9.122
 2080POPC   GL228082  17.453  25.466   9.206
 2080POPC   C1A28083  17.430  25.250   8.716
 2080POPC   D2A28084  17.327  25.104   8.363
 2080POPC   C3A28085  17.183  25.305   8.031
 2080POPC   C4A28086  17.372  25.340   7.666
 2080POPC   C1B28087  17.580  25.714   8.863
 2080POPC   C2B28088  17.493  25.729   8.434
 2080POPC   C3B28089  17.636  25.601   8.024
 2080POPC   C4B28090  17.804  25.587   7.571
 2081POPC   NC328091  33.669  39.945   9.588
 2081POPC   PO428092  34.168  39.580   9.518
 2081POPC   GL128093  33.893  39.653   9.139
 2081POPC   GL228094  33.570  39.864   9.104
 2081POPC   C1A28095  33.921  39.829   8.719
 2081POPC   D2A28096  33.871  40.040   8.337
 2081POPC   C3A28097  33.915  39.762   8.018
 2081POPC   C4A28098  33.617  39.848   7.738
 2081POPC   C1B28099  33.557  40.200   8.779
 2081POPC   C2B28100  33.417  40.317   8.386
 2081POPC   C3B28101  33.538  40.325   7.972
 2081POPC   C4B28102  33.928  40.248   7.824
 2082POPC   NC328103  44.037  30.350   9.576
 2082POPC   PO428104  44.034  31.027   9.495
 2082POPC   GL128105  43.853  30.758   9.180
 2082POPC   GL228106  44.145  30.570   9.126
 2082POPC   C1A28107  43.710  30.648   8.755
 2082POPC   D2A28108  43.879  30.758   8.346
 2082POPC   C3A28109  43.745  30.610   7.975
 2082POPC   C4A28110  43.893  30.680   7.561
 2082POPC   C1B28111  44.235  30.699   8.717
 2082POPC   C2B28112  44.336  30.474   8.331
 2082POPC   C3B28113  44.229  30.411   7.874
 2082POPC   C4B28114  44.159  30.301   7.410
 2083POPC   NC328115  13.894  29.626   9.542
 2083POPC   PO428116  13.680  29.039   9.562
 2083POPC   GL128117  13.651  29.251   9.212
 2083POPC   GL228118  13.402  29.511   9.220
 2083POPC   C1A28119  13.827  29.042   8.845
 2083POPC   D2A28120  13.583  28.927   8.509
 2083POPC   C3A28121  13.762  28.845   8.140
 2083POPC   C4A28122  13.685  29.021   7.738
 2083POPC   C1B28123  13.337  29.269   8.826
 2083POPC   C2B28124  13.201  29.300   8.424
 2083POPC   C3B28125  13.406  29.298   8.060
 2083POPC   C4B28126  13.203  29.247   7.683
 2084POPC   NC328127  16.735  15.546   9.906
 2084POPC   PO428128  16.380  15.162   9.457
 2084POPC   GL128129  16.503  15.361   9.122
 2084POPC   GL228130  16.850  15.434   9.180
 2084POPC   C1A28131  16.464  15.149   8.724
 2084POPC   D2A28132  16.731  15.204   8.396
 2084POPC   C3A28133  16.563  15.190   8.040
 2084POPC   C4A28134  16.671  14.977   7.669
 2084POPC   C1B28135  16.780  15.568   8.748
 2084POPC   C2B28136  17.053  15.589   8.335
 2084POPC   C3B28137  17.063  15.335   7.952
 2084POPC   C4B28138  17.007  15.346   7.508
 2085POPC   NC328139  24.805  18.904   9.331
 2085POPC   PO428140  25.137  19.426   9.653
 2085POPC   GL128141  25.230  19.292   9.190
 2085POPC   GL228142  25.381  18.962   9.244
 2085POPC   C1A28143  25.079  19.075   8.777
 2085POPC   D2A28144  24.909  18.905   8.386
 2085POPC   C3A28145  25.005  19.191   8.064
 2085POPC   C4A28146  25.063  19.154   7.635
 2085POPC   C1B28147  25.553  18.899   8.826
 2085POPC   C2B28148  25.415  18.939   8.391
 2085POPC   C3B28149  25.534  19.024   7.969
 2085POPC   C4B28150  25.521  18.977   7.522
 2086POPC   NC328151  20.064  20.063   9.501
 2086POPC   PO428152  19.562  19.638   9.371
 2086POPC   GL128153  19.696  19.666   8.985
 2086POPC   GL228154  20.012  19.763   9.076
 2086POPC   C1A28155  19.614  19.871   8.589
 2086POPC   D2A28156  19.678  20.130   8.223
 2086POPC   C3A28157  19.497  19.926   7.886
 2086POPC   C4A28158  19.694  19.604   7.721
 2086POPC   C1B28159  20.096  20.016   8.724
 2086POPC   C2B28160  20.119  19.835   8.300
 2086POPC   C3B28161  20.087  19.942   7.849
 2086POPC   C4B28162  20.197  20.118   7.417
 2087POPC   NC328163  39.684   0.435   9.357
 2087POPC   PO428164  40.305   0.302   9.495
 2087POPC   GL128165  40.179   0.575   9.174
 2087POPC   GL228166  40.041   0.244   9.043
 2087POPC   C1A28167  39.987   0.757   8.801
 2087POPC   D2A28168  39.942   0.630   8.391
 2087POPC   C3A28169  40.234   0.658   8.073
 2087POPC   C4A28170  39.973   0.510   7.855
 2087POPC   C1B28171  39.800   0.219   8.682
 2087POPC   C2B28172  39.664   0.186   8.264
 2087POPC   C3B28173  39.838   0.049   7.888
 2087POPC   C4B28174  39.746  44.901   7.486
 2088POPC   NC328175  33.931  26.499   9.462
 2088POPC   PO428176  33.650  27.176   9.481
 2088POPC   GL128177  33.767  26.890   9.110
 2088POPC   GL228178  34.016  26.613   8.992
 2088POPC   C1A28179  33.624  26.762   8.685
 2088POPC   D2A28180  33.703  26.616   8.298
 2088POPC   C3A28181  33.550  26.895   7.997
 2088POPC   C4A28182  33.547  26.753   7.594
 2088POPC   C1B28183  34.112  26.957   8.736
 2088POPC   C2B28184  34.217  26.809   8.326
 2088POPC   C3B28185  34.029  26.696   7.907
 2088POPC   C4B28186  33.997  26.980   7.525
 2089POPC   NC328187  18.989  12.013   9.371
 2089POPC   PO428188  19.538  12.347   9.432
 2089POPC   GL128189  19.193  12.380   9.090
 2089POPC   GL228190  19.253  12.083   8.923
 2089POPC   C1A28191  19.084  12.458   8.640
 2089POPC   D2A28192  19.282  12.434   8.225
 2089POPC   C3A28193  19.177  12.132   7.903
 2089POPC   C4A28194  18.867  12.158   7.559
 2089POPC   C1B28195  19.127  11.839   8.555
 2089POPC   C2B28196  19.343  11.531   8.288
 2089POPC   C3B28197  19.302  11.578   7.849
 2089POPC   C4B28198  19.207  11.810   7.475
 2090POPC   NC328199  10.163  31.147   9.513
 2090POPC   PO428200  10.680  31.559   9.449
 2090POPC   GL128201  10.740  31.321   9.115
 2090POPC   GL228202  10.499  31.091   9.145
 2090POPC   C1A28203  10.532  31.415   8.743
 2090POPC   D2A28204  10.321  31.606   8.419
 2090POPC   C3A28205  10.478  31.650   7.997
 2090POPC   C4A28206  10.446  31.772   7.568
 2090POPC   C1B28207  10.424  30.915   8.748
 2090POPC   C2B28208  10.517  31.097   8.346
 2090POPC   C3B28209  10.366  31.151   7.946
 2090POPC   C4B28210  10.598  31.295   7.625
 2091POPC   NC328211  16.292   9.204   9.341
 2091POPC   PO428212  15.747   8.925   9.531
 2091POPC   GL128213  15.894   8.910   9.133
 2091POPC   GL228214  15.867   8.578   9.041
 2091POPC   C1A28215  15.835   8.977   8.704
 2091POPC   D2A28216  15.816   8.774   8.295
 2091POPC   C3A28217  15.952   9.045   8.011
 2091POPC   C4A28218  15.744   9.289   7.717
 2091POPC   C1B28219  16.084   8.527   8.648
 2091POPC   C2B28220  16.317   8.735   8.296
 2091POPC   C3B28221  16.289   8.687   7.837
 2091POPC   C4B28222  16.384   8.693   7.387
 2092POPC   NC328223  38.801  11.063   9.620
 2092POPC   PO428224  38.216  11.365   9.520
 2092POPC   GL128225  38.422  11.424   9.145
 2092POPC   GL228226  38.638  11.694   9.180
 2092POPC   C1A28227  38.361  11.335   8.725
 2092POPC   D2A28228  38.196  11.095   8.371
 2092POPC   C3A28229  38.404  11.196   8.002
 2092POPC   C4A28230  38.291  11.425   7.659
 2092POPC   C1B28231  38.665  11.777   8.731
 2092POPC   C2B28232  38.520  11.650   8.309
 2092POPC   C3B28233  38.617  11.750   7.875
 2092POPC   C4B28234  38.719  11.848   7.424
 2093POPC   NC328235  29.299  34.963   9.680
 2093POPC   PO428236  29.008  34.332   9.497
 2093POPC   GL128237  29.014  34.457   9.090
 2093POPC   GL228238  29.353  34.312   9.056
 2093POPC   C1A28239  28.892  34.868   8.862
 2093POPC   D2A28240  28.832  35.140   8.476
 2093POPC   C3A28241  29.117  35.094   8.104
 2093POPC   C4A28242  29.278  34.840   7.731
 2093POPC   C1B28243  29.237  34.527   8.634
 2093POPC   C2B28244  29.207  34.563   8.172
 2093POPC   C3B28245  29.176  34.328   7.761
 2093POPC   C4B28246  29.334  34.490   7.358
 2094POPC   NC328247  15.908  11.748   9.423
 2094POPC   PO428248  16.153  12.337   9.541
 2094POPC   GL128249  16.035  12.149   9.141
 2094POPC   GL228250  16.226  11.850   9.027
 2094POPC   C1A28251  16.044  12.294   8.724
 2094POPC   D2A28252  16.189  12.116   8.363
 2094POPC   C3A28253  15.973  12.308   8.040
 2094POPC   C4A28254  15.647  12.583   7.949
 2094POPC   C1B28255  15.909  11.792   8.702
 2094POPC   C2B28256  15.791  11.785   8.265
 2094POPC   C3B28257  15.944  11.841   7.843
 2094POPC   C4B28258  15.787  11.769   7.416
 2095POPC   NC328259   3.979  19.142   9.357
 2095POPC   PO428260   3.289  18.935   9.405
 2095POPC   GL128261   3.527  18.939   9.031
 2095POPC   GL228262   3.818  18.742   9.057
 2095POPC   C1A28263   3.513  19.116   8.600
 2095POPC   D2A28264   3.571  19.462   8.299
 2095POPC   C3A28265   3.608  19.307   7.908
 2095POPC   C4A28266   3.483  18.898   7.813
 2095POPC   C1B28267   3.959  18.847   8.639
 2095POPC   C2B28268   3.889  18.940   8.181
 2095POPC   C3B28269   3.978  18.976   7.720
 2095POPC   C4B28270   3.776  18.826   7.335
 2096POPC   NC328271  41.688  15.469   9.454
 2096POPC   PO428272  41.877  14.855   9.274
 2096POPC   GL128273  41.508  15.139   9.075
 2096POPC   GL228274  41.266  15.474   9.170
 2096POPC   C1A28275  41.514  15.131   8.604
 2096POPC   D2A28276  41.842  15.097   8.284
 2096POPC   C3A28277  41.784  15.017   7.818
 2096POPC   C4A28278  41.527  14.799   7.481
 2096POPC   C1B28279  41.392  15.623   8.761
 2096POPC   C2B28280  41.588  15.581   8.375
 2096POPC   C3B28281  41.465  15.359   8.035
 2096POPC   C4B28282  41.645  15.528   7.688
 2097POPC   NC328283  21.590  19.604   9.366
 2097POPC   PO428284  21.303  20.190   9.403
 2097POPC   GL128285  21.345  19.970   9.012
 2097POPC   GL228286  21.264  19.634   8.981
 2097POPC   C1A28287  21.366  19.995   8.565
 2097POPC   D2A28288  21.664  20.260   8.290
 2097POPC   C3A28289  21.710  20.075   7.881
 2097POPC   C4A28290  21.498  19.805   7.623
 2097POPC   C1B28291  21.589  19.545   8.674
 2097POPC   C2B28292  21.665  19.721   8.260
 2097POPC   C3B28293  21.833  19.535   7.899
 2097POPC   C4B28294  21.743  19.382   7.471
 2098POPC   NC328295  16.476  42.746   9.619
 2098POPC   PO428296  16.949  43.277   9.748
 2098POPC   GL128297  16.784  43.237   9.289
 2098POPC   GL228298  17.058  43.112   9.123
 2098POPC   C1A28299  16.588  43.081   8.872
 2098POPC   D2A28300  16.726  42.899   8.455
 2098POPC   C3A28301  16.538  43.048   8.060
 2098POPC   C4A28302  16.564  42.913   7.604
 2098POPC   C1B28303  17.017  43.382   8.759
 2098POPC   C2B28304  16.977  43.509   8.340
 2098POPC   C3B28305  16.997  43.235   7.978
 2098POPC   C4B28306  17.014  43.152   7.517
 2099POPC   NC328307  32.371   4.722   9.456
 2099POPC   PO428308  31.843   4.255   9.347
 2099POPC   GL128309  32.249   4.255   9.083
 2099POPC   GL228310  32.413   4.588   8.983
 2099POPC   C1A28311  32.358   4.208   8.621
 2099POPC   D2A28312  32.129   4.042   8.248
 2099POPC   C3A28313  32.264   4.088   7.794
 2099POPC   C4A28314  32.232   4.043   7.328
 2099POPC   C1B28315  31.991   4.558   8.772
 2099POPC   C2B28316  31.812   4.482   8.371
 2099POPC   C3B28317  32.054   4.534   8.018
 2099POPC   C4B28318  32.165   4.588   7.614
 2100POPC   NC328319  43.203  35.653   9.500
 2100POPC   PO428320  42.707  35.147   9.430
 2100POPC   GL128321  43.056  35.292   9.142
 2100POPC   GL228322  43.228  35.630   9.002
 2100POPC   C1A28323  43.230  35.164   8.751
 2100POPC   D2A28324  43.371  35.191   8.325
 2100POPC   C3A28325  43.026  35.183   8.023
 2100POPC   C4A28326  42.951  35.237   7.582
 2100POPC   C1B28327  43.243  35.668   8.557
 2100POPC   C2B28328  43.519  35.660   8.227
 2100POPC   C3B28329  43.420  35.437   7.831
 2100POPC   C4B28330  43.261  35.630   7.436
 2101POPC   NC328331  44.596  34.925   9.461
 2101POPC   PO428332  44.922  34.352   9.448
 2101POPC   GL128333  44.850  34.561   9.083
 2101POPC   GL228334  44.505  34.571   9.091
 2101POPC   C1A28335  44.965  34.562   8.649
 2101POPC   D2A28336  44.853  34.227   8.364
 2101POPC   C3A28337  44.883  34.379   7.945
 2101POPC   C4A28338  44.982  34.399   7.513
 2101POPC   C1B28339  44.490  34.392   8.692
 2101POPC   C2B28340  44.565  34.638   8.294
 2101POPC   C3B28341  44.396  34.641   7.897
 2101POPC   C4B28342  44.261  34.938   7.571
 2102POPC   NC328343   0.295  16.267   9.535
 2102POPC   PO428344   0.740  15.846   9.357
 2102POPC   GL128345   0.404  15.998   9.129
 2102POPC   GL228346   0.564  16.333   9.100
 2102POPC   C1A28347   0.120  15.905   8.783
 2102POPC   D2A28348   0.207  16.027   8.349
 2102POPC   C3A28349   0.073  15.846   7.975
 2102POPC   C4A28350   0.449  15.927   7.774
 2102POPC   C1B28351   0.552  16.179   8.696
 2102POPC   C2B28352   0.548  16.408   8.364
 2102POPC   C3B28353   0.715  16.277   8.026
 2102POPC   C4B28354   0.660  16.382   7.649
 2103POPC   NC328355  25.596  23.442   9.484
 2103POPC   PO428356  26.300  23.613   9.462
 2103POPC   GL128357  26.167  23.790   9.071
 2103POPC   GL228358  25.805  23.772   9.101
 2103POPC   C1A28359  26.034  23.647   8.667
 2103POPC   D2A28360  26.091  23.406   8.317
 2103POPC   C3A28361  26.391  23.553   8.044
 2103POPC   C4A28362  26.303  23.811   7.696
 2103POPC   C1B28363  25.542  23.772   8.722
 2103POPC   C2B28364  25.645  23.823   8.323
 2103POPC   C3B28365  25.767  23.647   7.957
 2103POPC   C4B28366  25.820  23.729   7.524
 2104POPC   NC328367  15.072  30.536   9.486
 2104POPC   PO428368  14.921  31.195   9.445
 2104POPC   GL128369  15.095  30.894   9.113
 2104POPC   GL228370  15.432  30.961   9.009
 2104POPC   C1A28371  15.245  30.591   8.759
 2104POPC   D2A28372  15.360  30.695   8.338
 2104POPC   C3A28373  15.045  30.749   8.049
 2104POPC   C4A28374  15.208  30.494   7.745
 2104POPC   C1B28375  15.406  31.167   8.620
 2104POPC   C2B28376  15.263  31.213   8.198
 2104POPC   C3B28377  15.393  31.049   7.807
 2104POPC   C4B28378  15.718  31.127   7.443
 2105POPC   NC328379  43.059   4.496   9.477
 2105POPC   PO428380  42.781   3.798   9.457
 2105POPC   GL128381  42.984   4.102   9.163
 2105POPC   GL228382  42.770   4.419   9.045
 2105POPC   C1A28383  43.213   4.338   8.812
 2105POPC   D2A28384  43.106   4.520   8.406
 2105POPC   C3A28385  43.348   4.325   8.082
 2105POPC   C4A28386  43.239   4.322   7.656
 2105POPC   C1B28387  42.750   4.091   8.713
 2105POPC   C2B28388  42.988   4.005   8.360
 2105POPC   C3B28389  42.848   4.161   7.992
 2105POPC   C4B28390  42.811   4.041   7.597
 2106POPC   NC328391  42.884   0.831   9.789
 2106POPC   PO428392  43.267   1.329   9.480
 2106POPC   GL128393  43.036   1.327   9.123
 2106POPC   GL228394  43.336   1.332   8.951
 2106POPC   C1A28395  42.839   1.248   8.724
 2106POPC   D2A28396  42.705   1.326   8.308
 2106POPC   C3A28397  43.038   1.175   8.048
 2106POPC   C4A28398  42.955   0.980   7.695
 2106POPC   C1B28399  43.332   0.971   8.754
 2106POPC   C2B28400  43.421   1.045   8.369
 2106POPC   C3B28401  43.608   0.886   8.052
 2106POPC   C4B28402  43.452   1.041   7.670
 2107POPC   NC328403   4.684   0.895   9.347
 2107POPC   PO428404   4.145   1.293   9.384
 2107POPC   GL128405   4.282   1.316   8.997
 2107POPC   GL228406   4.646   1.283   9.001
 2107POPC   C1A28407   4.409   1.430   8.584
 2107POPC   D2A28408   4.641   1.291   8.243
 2107POPC   C3A28409   4.354   1.160   7.965
 2107POPC   C4A28410   4.180   1.300   7.630
 2107POPC   C1B28411   4.485   0.937   8.734
 2107POPC   C2B28412   4.642   0.722   8.402
 2107POPC   C3B28413   4.709   0.808   7.967
 2107POPC   C4B28414   4.636   0.993   7.550
 2108POPC   NC328415  26.180   8.502   9.334
 2108POPC   PO428416  26.126   9.125   9.605
 2108POPC   GL128417  25.961   9.044   9.201
 2108POPC   GL228418  26.157   9.281   9.056
 2108POPC   C1A28419  25.969   8.932   8.745
 2108POPC   D2A28420  26.255   8.857   8.427
 2108POPC   C3A28421  26.142   8.711   8.037
 2108POPC   C4A28422  25.882   8.842   7.734
 2108POPC   C1B28423  26.354   9.297   8.712
 2108POPC   C2B28424  26.047   9.316   8.391
 2108POPC   C3B28425  25.925   9.253   8.003
 2108POPC   C4B28426  26.126   9.285   7.604
 2109POPC   NC328427   1.933  34.309   9.319
 2109POPC   PO428428   2.095  34.961   9.442
 2109POPC   GL128429   2.059  34.732   9.092
 2109POPC   GL228430   2.361  34.535   9.137
 2109POPC   C1A28431   1.831  34.729   8.698
 2109POPC   D2A28432   1.897  34.473   8.353
 2109POPC   C3A28433   1.701  34.597   8.012
 2109POPC   C4A28434   1.873  34.761   7.645
 2109POPC   C1B28435   2.267  34.371   8.725
 2109POPC   C2B28436   2.400  34.331   8.295
 2109POPC   C3B28437   2.298  34.526   7.873
 2109POPC   C4B28438   2.136  34.355   7.480
 2110POPC   NC328439  12.305  22.424   9.388
 2110POPC   PO428440  11.907  21.947   9.492
 2110POPC   GL128441  12.028  22.120   9.085
 2110POPC   GL228442  11.911  22.484   9.067
 2110POPC   C1A28443  12.154  22.047   8.663
 2110POPC   D2A28444  12.251  21.787   8.329
 2110POPC   C3A28445  12.074  22.020   8.012
 2110POPC   C4A28446  11.942  22.240   7.676
 2110POPC   C1B28447  12.034  22.528   8.622
 2110POPC   C2B28448  12.021  22.505   8.164
 2110POPC   C3B28449  11.703  22.617   7.894
 2110POPC   C4B28450  11.771  22.696   7.449
 2111POPC   NC328451  35.949   8.190   9.428
 2111POPC   PO428452  35.383   8.547   9.533
 2111POPC   GL128453  35.360   8.326   9.151
 2111POPC   GL228454  35.276   8.023   9.310
 2111POPC   C1A28455  35.537   8.376   8.738
 2111POPC   D2A28456  35.676   8.195   8.362
 2111POPC   C3A28457  35.610   8.423   7.976
 2111POPC   C4A28458  35.581   8.302   7.555
 2111POPC   C1B28459  35.180   7.832   8.949
 2111POPC   C2B28460  35.188   7.999   8.546
 2111POPC   C3B28461  35.171   7.995   8.071
 2111POPC   C4B28462  35.254   7.876   7.647
 2112POPC   NC328463   6.357   8.268   9.903
 2112POPC   PO428464   6.921   8.279   9.539
 2112POPC   GL128465   6.780   8.345   9.120
 2112POPC   GL228466   6.432   8.251   9.028
 2112POPC   C1A28467   6.796   8.330   8.670
 2112POPC   D2A28468   6.920   8.252   8.266
 2112POPC   C3A28469   6.694   8.305   7.900
 2112POPC   C4A28470   6.697   8.068   7.544
 2112POPC   C1B28471   6.330   8.580   8.714
 2112POPC   C2B28472   6.525   8.623   8.298
 2112POPC   C3B28473   6.300   8.665   7.886
 2112POPC   C4B28474   6.383   8.514   7.457
 2113POPC   NC328475  12.367  30.441  10.124
 2113POPC   PO428476  12.206  30.859   9.554
 2113POPC   GL128477  12.281  30.793   9.112
 2113POPC   GL228478  12.341  30.441   9.151
 2113POPC   C1A28479  12.265  30.988   8.686
 2113POPC   D2A28480  12.299  31.220   8.286
 2113POPC   C3A28481  12.234  30.909   7.978
 2113POPC   C4A28482  11.837  30.713   7.889
 2113POPC   C1B28483  12.130  30.488   8.736
 2113POPC   C2B28484  12.088  30.508   8.294
 2113POPC   C3B28485  11.984  30.226   7.966
 2113POPC   C4B28486  11.870  30.304   7.570
 2114POPC   NC328487  18.863  26.578   9.485
 2114POPC   PO428488  19.151  25.986   9.469
 2114POPC   GL128489  19.079  26.027   9.074
 2114POPC   GL228490  18.900  25.721   9.087
 2114POPC   C1A28491  19.060  26.276   8.698
 2114POPC   D2A28492  18.945  26.460   8.282
 2114POPC   C3A28493  19.180  26.304   7.924
 2114POPC   C4A28494  18.902  26.179   7.618
 2114POPC   C1B28495  19.156  25.697   8.705
 2114POPC   C2B28496  19.132  25.934   8.304
 2114POPC   C3B28497  19.103  25.766   7.883
 2114POPC   C4B28498  19.431  25.640   7.620
 2115POPC   NC328499  18.948  29.086   9.544
 2115POPC   PO428500  19.496  29.431   9.436
 2115POPC   GL128501  19.259  29.203   9.162
 2115POPC   GL228502  19.438  28.959   9.063
 2115POPC   C1A28503  18.922  29.267   8.876
 2115POPC   D2A28504  18.957  29.408   8.447
 2115POPC   C3A28505  19.085  29.059   8.186
 2115POPC   C4A28506  19.097  29.011   7.751
 2115POPC   C1B28507  19.366  29.131   8.650
 2115POPC   C2B28508  19.482  29.394   8.302
 2115POPC   C3B28509  19.456  29.380   7.860
 2115POPC   C4B28510  19.580  29.195   7.474
 2116POPC   NC328511  26.787  41.460   9.267
 2116POPC   PO428512  26.454  41.265   9.767
 2116POPC   GL128513  26.319  41.281   9.223
 2116POPC   GL228514  26.587  41.121   8.991
 2116POPC   C1A28515  26.400  41.450   8.699
 2116POPC   D2A28516  26.343  41.300   8.272
 2116POPC   C3A28517  26.559  41.566   7.960
 2116POPC   C4A28518  26.706  41.535   7.534
 2116POPC   C1B28519  26.984  41.152   8.745
 2116POPC   C2B28520  26.893  41.414   8.394
 2116POPC   C3B28521  27.045  41.447   7.979
 2116POPC   C4B28522  27.217  41.395   7.567
 2117POPC   NC328523  16.301  19.912   9.776
 2117POPC   PO428524  15.851  19.480   9.465
 2117POPC   GL128525  15.946  19.668   9.041
 2117POPC   GL228526  16.105  19.991   9.044
 2117POPC   C1A28527  16.170  19.744   8.605
 2117POPC   D2A28528  16.139  20.104   8.368
 2117POPC   C3A28529  15.988  20.002   7.980
 2117POPC   C4A28530  16.078  19.670   7.704
 2117POPC   C1B28531  15.751  20.019   8.720
 2117POPC   C2B28532  15.628  20.170   8.315
 2117POPC   C3B28533  15.515  20.263   7.894
 2117POPC   C4B28534  15.819  20.209   7.560
 2118POPC   NC328535  33.449  38.604   9.511
 2118POPC   PO428536  34.161  38.584   9.463
 2118POPC   GL128537  34.080  38.390   9.076
 2118POPC   GL228538  33.730  38.475   9.098
 2118POPC   C1A28539  34.005  38.504   8.652
 2118POPC   D2A28540  33.753  38.503   8.290
 2118POPC   C3A28541  34.001  38.562   7.914
 2118POPC   C4A28542  34.057  38.216   7.670
 2118POPC   C1B28543  33.573  38.798   8.774
 2118POPC   C2B28544  33.366  38.850   8.358
 2118POPC   C3B28545  33.526  38.822   7.935
 2118POPC   C4B28546  33.521  38.380   7.829
 2119POPC   NC328547  13.852  21.537   9.456
 2119POPC   PO428548  13.435  21.074   9.306
 2119POPC   GL128549  13.734  21.236   9.042
 2119POPC   GL228550  13.561  21.533   9.041
 2119POPC   C1A28551  13.656  21.197   8.598
 2119POPC   D2A28552  13.782  21.294   8.184
 2119POPC   C3A28553  13.476  21.219   7.875
 2119POPC   C4A28554  13.642  20.851   7.627
 2119POPC   C1B28555  13.672  21.709   8.691
 2119POPC   C2B28556  13.877  21.765   8.325
 2119POPC   C3B28557  13.702  21.750   7.894
 2119POPC   C4B28558  13.735  21.738   7.429
 2120POPC   NC328559   1.304   2.523   9.350
 2120POPC   PO428560   1.149   3.070   9.482
 2120POPC   GL128561   1.125   2.906   9.074
 2120POPC   GL228562   1.479   2.920   9.065
 2120POPC   C1A28563   1.027   2.786   8.640
 2120POPC   D2A28564   0.987   2.868   8.204
 2120POPC   C3A28565   1.111   2.610   7.863
 2120POPC   C4A28566   1.150   2.676   7.401
 2120POPC   C1B28567   1.533   2.678   8.716
 2120POPC   C2B28568   1.414   2.591   8.304
 2120POPC   C3B28569   1.538   2.336   7.982
 2120POPC   C4B28570   1.568   2.314   7.581
 2121POPC   NC328571  36.669  30.340   9.418
 2121POPC   PO428572  36.904  30.943   9.455
 2121POPC   GL128573  36.864  30.801   9.097
 2121POPC   GL228574  37.095  30.536   9.211
 2121POPC   C1A28575  36.686  31.015   8.746
 2121POPC   D2A28576  36.655  30.737   8.400
 2121POPC   C3A28577  36.578  30.845   7.997
 2121POPC   C4A28578  36.635  30.532   7.692
 2121POPC   C1B28579  37.192  30.507   8.794
 2121POPC   C2B28580  37.224  30.628   8.372
 2121POPC   C3B28581  37.075  30.733   7.970
 2121POPC   C4B28582  37.125  30.508   7.583
 2122POPC   NC328583   8.762   8.073   9.415
 2122POPC   PO428584   9.284   8.514   9.559
 2122POPC   GL128585   9.195   8.262   9.223
 2122POPC   GL228586   8.931   8.499   9.166
 2122POPC   C1A28587   9.149   8.143   8.791
 2122POPC   D2A28588   9.246   7.906   8.387
 2122POPC   C3A28589   9.123   8.199   8.085
 2122POPC   C4A28590   8.878   8.141   7.699
 2122POPC   C1B28591   8.723   8.507   8.811
 2122POPC   C2B28592   8.766   8.311   8.437
 2122POPC   C3B28593   8.695   8.482   8.054
 2122POPC   C4B28594   8.718   8.621   7.653
 2123POPC   NC328595  43.568  24.308   9.476
 2123POPC   PO428596  42.958  24.531   9.596
 2123POPC   GL128597  43.097  24.573   9.165
 2123POPC   GL228598  43.202  24.272   9.092
 2123POPC   C1A28599  42.981  24.557   8.713
 2123POPC   D2A28600  43.213  24.813   8.411
 2123POPC   C3A28601  43.167  24.705   8.031
 2123POPC   C4A28602  42.885  24.557   7.760
 2123POPC   C1B28603  43.134  24.061   8.678
 2123POPC   C2B28604  43.047  24.216   8.258
 2123POPC   C3B28605  42.889  24.034   7.867
 2123POPC   C4B28606  42.854  24.192   7.410
 2124POPC   NC328607  13.268   3.091   9.790
 2124POPC   PO428608  13.584   2.534   9.516
 2124POPC   GL128609  13.643   2.715   9.136
 2124POPC   GL228610  13.672   3.072   8.960
 2124POPC   C1A28611  13.554   2.595   8.765
 2124POPC   D2A28612  13.680   2.753   8.412
 2124POPC   C3A28613  13.471   2.531   8.129
 2124POPC   C4A28614  13.767   2.582   7.817
 2124POPC   C1B28615  13.385   3.100   8.648
 2124POPC   C2B28616  13.246   3.020   8.251
 2124POPC   C3B28617  13.412   2.954   7.867
 2124POPC   C4B28618  13.283   2.603   7.637
 2125POPC   NC328619  20.158  29.910   9.423
 2125POPC   PO428620  19.632  30.154   9.084
 2125POPC   GL128621  19.949  29.915   8.962
 2125POPC   GL228622  20.241  30.118   8.977
 2125POPC   C1A28623  20.041  29.773   8.583
 2125POPC   D2A28624  19.937  29.660   8.205
 2125POPC   C3A28625  19.992  29.920   7.854
 2125POPC   C4A28626  19.921  29.533   7.673
 2125POPC   C1B28627  20.141  30.288   8.610
 2125POPC   C2B28628  19.895  30.267   8.246
 2125POPC   C3B28629  20.149  30.415   7.899
 2125POPC   C4B28630  20.396  30.251   7.545
 2126POPC   NC328631  16.871  24.901   9.586
 2126POPC   PO428632  16.444  25.381   9.467
 2126POPC   GL128633  16.727  25.168   9.174
 2126POPC   GL228634  16.934  25.445   9.216
 2126POPC   C1A28635  16.955  25.046   8.797
 2126POPC   D2A28636  16.806  25.087   8.383
 2126POPC   C3A28637  16.688  24.946   8.000
 2126POPC   C4A28638  16.924  25.039   7.644
 2126POPC   C1B28639  17.086  25.605   8.831
 2126POPC   C2B28640  16.983  25.560   8.427
 2126POPC   C3B28641  16.765  25.598   8.032
 2126POPC   C4B28642  16.928  25.557   7.628
 2127POPC   NC328643  34.116  12.859   9.410
 2127POPC   PO428644  34.655  12.427   9.561
 2127POPC   GL128645  34.557  12.668   9.204
 2127POPC   GL228646  34.782  12.898   9.154
 2127POPC   C1A28647  34.361  12.695   8.780
 2127POPC   D2A28648  34.391  12.964   8.365
 2127POPC   C3A28649  34.434  12.749   7.935
 2127POPC   C4A28650  34.397  12.775   7.454
 2127POPC   C1B28651  34.756  13.010   8.745
 2127POPC   C2B28652  34.969  12.969   8.368
 2127POPC   C3B28653  34.822  13.085   8.001
 2127POPC   C4B28654  34.855  12.887   7.611
 2128POPC   NC328655  28.980   6.197   9.621
 2128POPC   PO428656  29.070   6.930   9.564
 2128POPC   GL128657  29.170   6.715   9.182
 2128POPC   GL228658  29.183   6.396   9.141
 2128POPC   C1A28659  29.412   6.782   8.802
 2128POPC   D2A28660  29.229   6.885   8.396
 2128POPC   C3A28661  29.422   6.831   8.028
 2128POPC   C4A28662  29.193   6.701   7.665
 2128POPC   C1B28663  29.010   6.160   8.835
 2128POPC   C2B28664  28.973   6.118   8.420
 2128POPC   C3B28665  29.152   6.352   8.073
 2128POPC   C4B28666  29.044   6.221   7.687
 2129POPC   NC328667  15.451  22.181   9.523
 2129POPC   PO428668  14.933  22.515   9.664
 2129POPC   GL128669  15.005  22.184   9.250
 2129POPC   GL228670  15.320  22.255   9.058
 2129POPC   C1A28671  15.003  21.960   8.809
 2129POPC   D2A28672  14.811  22.078   8.398
 2129POPC   C3A28673  14.967  22.052   7.990
 2129POPC   C4A28674  15.040  22.416   7.764
 2129POPC   C1B28675  15.372  22.381   8.661
 2129POPC   C2B28676  15.283  22.363   8.256
 2129POPC   C3B28677  15.519  22.301   7.913
 2129POPC   C4B28678  15.484  22.609   7.623
 2130POPC   NC328679  38.767  28.101   9.298
 2130POPC   PO428680  38.214  27.850   9.389
 2130POPC   GL128681  38.424  27.825   9.023
 2130POPC   GL228682  38.697  27.591   9.091
 2130POPC   C1A28683  38.462  27.686   8.618
 2130POPC   D2A28684  38.272  27.441   8.306
 2130POPC   C3A28685  38.363  27.661   7.944
 2130POPC   C4A28686  38.420  27.705   7.546
 2130POPC   C1B28687  38.819  27.298   8.755
 2130POPC   C2B28688  38.650  27.096   8.371
 2130POPC   C3B28689  38.592  27.197   7.951
 2130POPC   C4B28690  38.954  27.356   7.792
 2131POPC   NC328691  16.354  26.987   9.394
 2131POPC   PO428692  15.812  26.776   9.761
 2131POPC   GL128693  15.863  26.909   9.307
 2131POPC   GL228694  16.076  26.641   9.126
 2131POPC   C1A28695  15.908  27.063   8.861
 2131POPC   D2A28696  15.883  26.909   8.417
 2131POPC   C3A28697  15.944  27.000   7.970
 2131POPC   C4A28698  15.746  26.742   7.622
 2131POPC   C1B28699  16.341  26.764   8.758
 2131POPC   C2B28700  16.408  26.879   8.360
 2131POPC   C3B28701  16.316  26.652   8.015
 2131POPC   C4B28702  16.269  26.637   7.592
 2132POPC   NC328703  18.485  35.026   9.563
 2132POPC   PO428704  18.096  35.600   9.471
 2132POPC   GL128705  18.237  35.373   9.133
 2132POPC   GL228706  18.572  35.419   9.212
 2132POPC   C1A28707  18.233  35.172   8.725
 2132POPC   D2A28708  18.092  35.044   8.331
 2132POPC   C3A28709  18.288  35.202   7.968
 2132POPC   C4A28710  18.096  35.488   7.690
 2132POPC   C1B28711  18.557  35.635   8.790
 2132POPC   C2B28712  18.357  35.571   8.384
 2132POPC   C3B28713  18.433  35.716   7.971
 2132POPC   C4B28714  18.586  35.588   7.560
 2133POPC   NC328715  27.260  13.696   9.700
 2133POPC   PO428716  26.548  13.665   9.518
 2133POPC   GL128717  26.817  13.688   9.152
 2133POPC   GL228718  27.100  13.912   9.246
 2133POPC   C1A28719  26.711  13.862   8.751
 2133POPC   D2A28720  26.701  13.647   8.366
 2133POPC   C3A28721  26.690  13.829   8.010
 2133POPC   C4A28722  26.879  13.468   7.835
 2133POPC   C1B28723  27.205  13.942   8.786
 2133POPC   C2B28724  27.063  14.066   8.355
 2133POPC   C3B28725  27.178  13.899   7.936
 2133POPC   C4B28726  27.123  13.748   7.479
 2134POPC   NC328727  28.513  37.153   9.408
 2134POPC   PO428728  28.176  36.479   9.342
 2134POPC   GL128729  28.089  36.795   9.058
 2134POPC   GL228730  28.022  37.137   9.163
 2134POPC   C1A28731  28.365  37.013   8.786
 2134POPC   D2A28732  28.313  37.135   8.383
 2134POPC   C3A28733  28.415  36.794   8.124
 2134POPC   C4A28734  28.485  36.802   7.725
 2134POPC   C1B28735  27.860  37.138   8.726
 2134POPC   C2B28736  27.852  37.304   8.295
 2134POPC   C3B28737  28.068  37.125   7.898
 2134POPC   C4B28738  28.318  37.326   7.531
 2135POPC   NC328739  38.242  32.793   9.633
 2135POPC   PO428740  38.617  33.373   9.493
 2135POPC   GL128741  38.474  33.059   9.218
 2135POPC   GL228742  38.495  33.318   8.973
 2135POPC   C1A28743  38.227  32.893   8.847
 2135POPC   D2A28744  38.071  32.960   8.408
 2135POPC   C3A28745  38.371  32.992   8.058
 2135POPC   C4A28746  38.324  32.856   7.630
 2135POPC   C1B28747  38.522  33.235   8.542
 2135POPC   C2B28748  38.536  33.468   8.183
 2135POPC   C3B28749  38.180  33.461   7.900
 2135POPC   C4B28750  38.238  33.369   7.475
 2136POPC   NC328751  14.087  15.444   9.389
 2136POPC   PO428752  14.635  15.067   9.433
 2136POPC   GL128753  14.559  15.013   9.024
 2136POPC   GL228754  14.239  15.101   9.048
 2136POPC   C1A28755  14.544  15.228   8.652
 2136POPC   D2A28756  14.641  15.220   8.236
 2136POPC   C3A28757  14.420  14.916   7.985
 2136POPC   C4A28758  14.466  14.913   7.536
 2136POPC   C1B28759  13.974  15.122   8.729
 2136POPC   C2B28760  14.109  15.246   8.355
 2136POPC   C3B28761  14.275  15.579   8.140
 2136POPC   C4B28762  14.434  15.381   7.777
 2137POPC   NC328763  40.153  24.327   9.472
 2137POPC   PO428764  39.568  24.529   9.310
 2137POPC   GL128765  39.804  24.241   9.082
 2137POPC   GL228766  40.051  23.967   9.167
 2137POPC   C1A28767  39.964  24.492   8.762
 2137POPC   D2A28768  39.740  24.614   8.427
 2137POPC   C3A28769  39.953  24.533   8.105
 2137POPC   C4A28770  39.859  24.632   7.726
 2137POPC   C1B28771  40.285  24.108   8.850
 2137POPC   C2B28772  40.292  24.256   8.441
 2137POPC   C3B28773  40.390  24.151   8.056
 2137POPC   C4B28774  40.250  24.313   7.688
 2138POPC   NC328775  37.569  15.593   9.595
 2138POPC   PO428776  37.965  15.070   9.482
 2138POPC   GL128777  37.778  15.150   9.082
 2138POPC   GL228778  37.562  15.436   9.102
 2138POPC   C1A28779  37.904  15.312   8.663
 2138POPC   D2A28780  38.182  15.363   8.288
 2138POPC   C3A28781  37.955  15.279   7.920
 2138POPC   C4A28782  37.551  15.158   7.796
 2138POPC   C1B28783  37.359  15.482   8.687
 2138POPC   C2B28784  37.373  15.434   8.223
 2138POPC   C3B28785  37.136  15.446   7.821
 2138POPC   C4B28786  37.318  15.602   7.392
 2139POPC   NC328787  27.005  34.311   9.248
 2139POPC   PO428788  26.438  34.123   9.492
 2139POPC   GL128789  26.525  34.485   9.198
 2139POPC   GL228790  26.406  34.259   8.966
 2139POPC   C1A28791  26.745  34.697   8.837
 2139POPC   D2A28792  26.965  34.605   8.501
 2139POPC   C3A28793  26.912  34.854   8.144
 2139POPC   C4A28794  27.052  34.762   7.750
 2139POPC   C1B28795  26.475  34.360   8.557
 2139POPC   C2B28796  26.548  34.490   8.167
 2139POPC   C3B28797  26.580  34.556   7.716
 2139POPC   C4B28798  26.439  34.555   7.279
 2140POPC   NC328799  43.780  44.668   9.513
 2140POPC   PO428800  43.135  44.661   9.426
 2140POPC   GL128801  43.014  44.650   9.033
 2140POPC   GL228802  42.667  44.748   9.123
 2140POPC   C1A28803  43.253  44.489   8.724
 2140POPC   D2A28804  43.444  44.678   8.396
 2140POPC   C3A28805  43.449  44.518   8.007
 2140POPC   C4A28806  43.243  44.656   7.648
 2140POPC   C1B28807  42.760  44.912   8.699
 2140POPC   C2B28808  42.907  44.670   8.396
 2140POPC   C3B28809  42.924  44.525   8.032
 2140POPC   C4B28810  42.753  44.734   7.701
 2141POPC   NC328811   5.199  27.982   9.449
 2141POPC   PO428812   5.310  28.605   9.455
 2141POPC   GL128813   5.034  28.358   9.167
 2141POPC   GL228814   4.702  28.407   9.251
 2141POPC   C1A28815   4.991  28.109   8.788
 2141POPC   D2A28816   5.195  28.248   8.425
 2141POPC   C3A28817   5.110  28.158   8.021
 2141POPC   C4A28818   5.313  28.292   7.676
 2141POPC   C1B28819   4.721  28.534   8.795
 2141POPC   C2B28820   4.670  28.346   8.411
 2141POPC   C3B28821   4.575  28.228   8.004
 2141POPC   C4B28822   4.809  28.302   7.634
 2142POPC   NC328823   6.539  22.954   9.520
 2142POPC   PO428824   7.048  23.315   9.157
 2142POPC   GL128825   6.784  22.944   9.051
 2142POPC   GL228826   6.429  22.900   9.048
 2142POPC   C1A28827   6.679  22.750   8.655
 2142POPC   D2A28828   6.760  22.996   8.329
 2142POPC   C3A28829   6.892  22.849   7.959
 2142POPC   C4A28830   6.769  23.005   7.575
 2142POPC   C1B28831   6.157  22.903   8.712
 2142POPC   C2B28832   6.061  22.796   8.334
 2142POPC   C3B28833   6.360  22.927   8.020
 2142POPC   C4B28834   6.265  23.015   7.592
 2143POPC   NC328835  44.569   9.897   9.504
 2143POPC   PO428836  44.600   9.276   9.599
 2143POPC   GL128837  44.818   9.606   9.192
 2143POPC   GL228838  44.593   9.854   9.005
 2143POPC   C1A28839   0.007   9.804   8.755
 2143POPC   D2A28840  44.834  10.020   8.360
 2143POPC   C3A28841  44.795   9.769   7.960
 2143POPC   C4A28842  44.563   9.390   7.806
 2143POPC   C1B28843  44.291  10.101   8.802
 2143POPC   C2B28844  44.309  10.247   8.380
 2143POPC   C3B28845  44.511  10.212   8.000
 2143POPC   C4B28846  44.376   9.952   7.705
 2144POPC   NC328847  22.775  35.468   9.657
 2144POPC   PO428848  22.080  35.402   9.582
 2144POPC   GL128849  22.106  35.540   9.166
 2144POPC   GL228850  22.415  35.459   9.035
 2144POPC   C1A28851  21.968  35.617   8.750
 2144POPC   D2A28852  22.163  35.443   8.390
 2144POPC   C3A28853  22.112  35.520   7.933
 2144POPC   C4A28854  22.419  35.263   7.687
 2144POPC   C1B28855  22.096  35.115   8.852
 2144POPC   C2B28856  22.048  34.875   8.458
 2144POPC   C3B28857  22.131  35.025   8.072
 2144POPC   C4B28858  21.952  35.040   7.699
 2145POPC   NC328859  35.547  10.449   9.173
 2145POPC   PO428860  35.267  10.925   9.537
 2145POPC   GL128861  35.108  10.729   9.146
 2145POPC   GL228862  35.057  10.391   9.030
 2145POPC   C1A28863  35.032  10.771   8.687
 2145POPC   D2A28864  35.168  11.055   8.341
 2145POPC   C3A28865  35.208  10.907   7.929
 2145POPC   C4A28866  34.997  10.602   7.711
 2145POPC   C1B28867  35.270  10.257   8.643
 2145POPC   C2B28868  35.277  10.486   8.265
 2145POPC   C3B28869  35.477  10.395   7.886
 2145POPC   C4B28870  35.714  10.087   7.652
 2146POPC   NC328871  39.897  34.994   9.386
 2146POPC   PO428872  40.244  35.595   9.426
 2146POPC   GL128873  40.010  35.437   9.111
 2146POPC   GL228874  39.719  35.640   9.139
 2146POPC   C1A28875  40.109  35.208   8.745
 2146POPC   D2A28876  39.989  35.321   8.316
 2146POPC   C3A28877  40.179  35.233   7.927
 2146POPC   C4A28878  40.186  35.606   7.653
 2146POPC   C1B28879  39.674  35.485   8.694
 2146POPC   C2B28880  39.478  35.542   8.252
 2146POPC   C3B28881  39.704  35.455   7.829
 2146POPC   C4B28882  39.681  35.110   7.525
 2147POPC   NC328883   0.350  37.184   9.795
 2147POPC   PO428884   0.172  36.631   9.539
 2147POPC   GL128885   0.390  36.782   9.216
 2147POPC   GL228886   0.428  37.128   9.277
 2147POPC   C1A28887   0.444  36.693   8.808
 2147POPC   D2A28888   0.648  36.561   8.494
 2147POPC   C3A28889   0.470  36.660   8.123
 2147POPC   C4A28890   0.517  36.529   7.742
 2147POPC   C1B28891   0.272  37.161   8.837
 2147POPC   C2B28892   0.335  37.058   8.425
 2147POPC   C3B28893   0.116  37.038   8.056
 2147POPC   C4B28894   0.295  36.990   7.709
 2148POPC   NC328895  33.400  23.949   9.915
 2148POPC   PO428896  33.500  24.524   9.562
 2148POPC   GL128897  33.324  24.410   9.108
 2148POPC   GL228898  33.272  24.035   9.100
 2148POPC   C1A28899  33.286  24.412   8.639
 2148POPC   D2A28900  33.114  24.648   8.280
 2148POPC   C3A28901  33.246  24.830   7.899
 2148POPC   C4A28902  32.931  25.065   7.637
 2148POPC   C1B28903  33.066  23.957   8.692
 2148POPC   C2B28904  33.030  24.133   8.248
 2148POPC   C3B28905  33.057  24.347   7.827
 2148POPC   C4B28906  32.876  24.219   7.407
 2149POPC   NC328907  41.076  18.101   9.391
 2149POPC   PO428908  40.499  18.470   9.287
 2149POPC   GL128909  40.784  18.255   8.989
 2149POPC   GL228910  41.169  18.328   8.962
 2149POPC   C1A28911  40.881  18.242   8.558
 2149POPC   D2A28912  40.931  18.456   8.208
 2149POPC   C3A28913  40.720  18.222   7.937
 2149POPC   C4A28914  40.819  18.100   7.537
 2149POPC   C1B28915  41.254  17.922   8.740
 2149POPC   C2B28916  41.173  17.898   8.281
 2149POPC   C3B28917  41.202  18.098   7.873
 2149POPC   C4B28918  41.318  18.067   7.405
 2150POPC   NC328919  11.975  38.575   9.600
 2150POPC   PO428920  12.523  38.172   9.578
 2150POPC   GL128921  12.307  38.370   9.185
 2150POPC   GL228922  11.939  38.450   9.133
 2150POPC   C1A28923  12.189  38.225   8.746
 2150POPC   D2A28924  11.857  38.083   8.454
 2150POPC   C3A28925  11.985  38.217   8.058
 2150POPC   C4A28926  12.308  38.064   7.800
 2150POPC   C1B28927  11.740  38.467   8.787
 2150POPC   C2B28928  11.931  38.599   8.413
 2150POPC   C3B28929  11.943  38.755   8.018
 2150POPC   C4B28930  12.188  38.552   7.725
 2151POPC   NC328931   0.010  28.327   9.399
 2151POPC   PO428932  44.581  28.776   9.518
 2151POPC   GL128933  44.483  28.527   9.154
 2151POPC   GL228934  44.801  28.554   8.978
 2151POPC   C1A28935  44.444  28.271   8.751
 2151POPC   D2A28936  44.671  28.274   8.342
 2151POPC   C3A28937  44.373  28.251   7.996
 2151POPC   C4A28938  44.340  28.435   7.589
 2151POPC   C1B28939  44.947  28.160   8.776
 2151POPC   C2B28940   0.098  27.984   8.406
 2151POPC   C3B28941   0.170  28.163   8.013
 2151POPC   C4B28942  44.830  28.394   7.804
 2152POPC   NC328943  42.510  21.092   9.308
 2152POPC   PO428944  42.072  21.585   9.518
 2152POPC   GL128945  42.202  21.563   9.122
 2152POPC   GL228946  42.016  21.895   9.062
 2152POPC   C1A28947  42.372  21.320   8.736
 2152POPC   D2A28948  42.533  21.121   8.357
 2152POPC   C3A28949  42.351  21.225   7.960
 2152POPC   C4A28950  42.027  21.329   7.707
 2152POPC   C1B28951  42.346  21.830   8.733
 2152POPC   C2B28952  42.355  21.619   8.336
 2152POPC   C3B28953  42.211  21.721   7.962
 2152POPC   C4B28954  42.484  21.666   7.688
 2153POPC   NC328955  15.434  41.235   9.397
 2153POPC   PO428956  14.991  41.627   9.546
 2153POPC   GL128957  15.020  41.572   9.136
 2153POPC   GL228958  15.345  41.710   9.130
 2153POPC   C1A28959  14.956  41.408   8.724
 2153POPC   D2A28960  15.193  41.472   8.338
 2153POPC   C3A28961  15.018  41.416   7.915
 2153POPC   C4A28962  15.109  41.711   7.584
 2153POPC   C1B28963  15.502  41.552   8.752
 2153POPC   C2B28964  15.694  41.631   8.349
 2153POPC   C3B28965  15.493  41.633   7.945
 2153POPC   C4B28966  15.461  41.284   7.644
 2154POPC   NC328967  19.217  10.406   9.454
 2154POPC   PO428968  18.950  10.986   9.536
 2154POPC   GL128969  19.054  10.874   9.091
 2154POPC   GL228970  19.378  10.946   9.009
 2154POPC   C1A28971  19.006  10.827   8.611
 2154POPC   D2A28972  18.789  10.785   8.194
 2154POPC   C3A28973  18.996  10.512   7.922
 2154POPC   C4A28974  18.881  10.072   7.940
 2154POPC   C1B28975  19.367  10.533   8.833
 2154POPC   C2B28976  19.426  10.445   8.423
 2154POPC   C3B28977  19.417  10.134   8.122
 2154POPC   C4B28978  19.332  10.152   7.728
 2155POPC   NC328979  36.503  19.284   9.381
 2155POPC   PO428980  35.914  19.056   9.563
 2155POPC   GL128981  35.850  19.124   9.135
 2155POPC   GL228982  36.073  19.390   9.106
 2155POPC   C1A28983  35.866  18.941   8.718
 2155POPC   D2A28984  36.072  18.719   8.396
 2155POPC   C3A28985  35.946  18.824   7.980
 2155POPC   C4A28986  35.833  19.217   7.754
 2155POPC   C1B28987  36.242  19.336   8.690
 2155POPC   C2B28988  36.136  19.237   8.258
 2155POPC   C3B28989  36.350  19.118   7.883
 2155POPC   C4B28990  36.386  19.447   7.631
 2156POPC   NC328991  16.507  17.812   9.520
 2156POPC   PO428992  15.814  17.785   9.495
 2156POPC   GL128993  15.903  17.557   9.098
 2156POPC   GL228994  15.732  17.232   9.062
 2156POPC   C1A28995  16.056  17.429   8.684
 2156POPC   D2A28996  16.204  17.390   8.257
 2156POPC   C3A28997  15.955  17.414   7.888
 2156POPC   C4A28998  15.805  17.181   7.500
 2156POPC   C1B28999  15.541  17.362   8.745
 2156POPC   C2B29000  15.729  17.174   8.381
 2156POPC   C3B29001  15.607  17.071   7.975
 2156POPC   C4B29002  15.345  17.010   7.639
 2157POPC   NC329003  13.554   1.325   9.435
 2157POPC   PO429004  13.039   0.923   9.615
 2157POPC   GL129005  13.201   1.035   9.207
 2157POPC   GL229006  13.556   0.910   9.139
 2157POPC   C1A29007  13.293   1.252   8.817
 2157POPC   D2A29008  13.151   1.229   8.410
 2157POPC   C3A29009  13.365   1.257   8.065
 2157POPC   C4A29010  13.494   1.105   7.695
 2157POPC   C1B29011  13.801   1.168   8.801
 2157POPC   C2B29012  13.895   1.343   8.377
 2157POPC   C3B29013  13.866   1.299   7.949
 2157POPC   C4B29014  13.721   1.567   7.594
 2158POPC   NC329015  32.224  32.433   9.493
 2158POPC   PO429016  32.104  31.770   9.319
 2158POPC   GL129017  32.279  31.785   8.932
 2158POPC   GL229018  32.460  32.074   9.052
 2158POPC   C1A29019  32.277  32.076   8.565
 2158POPC   D2A29020  32.047  32.455   8.389
 2158POPC   C3A29021  31.950  32.337   7.964
 2158POPC   C4A29022  32.149  31.975   7.828
 2158POPC   C1B29023  32.510  32.473   8.880
 2158POPC   C2B29024  32.567  32.504   8.463
 2158POPC   C3B29025  32.453  32.286   8.109
 2158POPC   C4B29026  32.363  32.582   7.801
 2159POPC   NC329027   6.747   0.171   9.569
 2159POPC   PO429028   6.324   0.621   9.565
 2159POPC   GL129029   6.528   0.593   9.139
 2159POPC   GL229030   6.779   0.357   9.098
 2159POPC   C1A29031   6.405   0.356   8.738
 2159POPC   D2A29032   6.176   0.245   8.348
 2159POPC   C3A29033   6.442   0.376   8.018
 2159POPC   C4A29034   6.622   0.243   7.682
 2159POPC   C1B29035   6.915   0.165   8.742
 2159POPC   C2B29036   6.693   0.082   8.365
 2159POPC   C3B29037   6.908  44.990   8.012
 2159POPC   C4B29038   7.129   0.196   7.676
 2160POPC   NC329039  43.789  42.010   9.488
 2160POPC   PO429040  43.648  42.630   9.366
 2160POPC   GL129041  44.060  42.425   9.188
 2160POPC   GL229042  43.979  42.073   9.037
 2160POPC   C1A29043  44.217  42.410   8.750
 2160POPC   D2A29044  43.897  42.262   8.468
 2160POPC   C3A29045  43.801  42.549   8.148
 2160POPC   C4A29046  43.898  42.515   7.751
 2160POPC   C1B29047  44.221  41.863   8.752
 2160POPC   C2B29048  44.348  41.984   8.374
 2160POPC   C3B29049  44.163  42.155   8.010
 2160POPC   C4B29050  44.418  42.424   7.745
 2161POPC   NC329051  31.261   0.739   9.468
 2161POPC   PO429052  31.629   0.175   9.720
 2161POPC   GL129053  31.574   0.348   9.275
 2161POPC   GL229054  31.236   0.367   9.130
 2161POPC   C1A29055  31.639   0.405   8.807
 2161POPC   D2A29056  31.439   0.435   8.393
 2161POPC   C3A29057  31.650   0.376   7.990
 2161POPC   C4A29058  31.732   0.723   7.735
 2161POPC   C1B29059  31.080   0.535   8.755
 2161POPC   C2B29060  30.954   0.586   8.332
 2161POPC   C3B29061  31.127   0.465   7.953
 2161POPC   C4B29062  31.333   0.428   7.550
 2162POPC   NC329063  42.851  18.261   9.595
 2162POPC   PO429064  43.318  18.617   9.505
 2162POPC   GL129065  43.328  18.365   9.128
 2162POPC   GL229066  43.021  18.116   9.129
 2162POPC   C1A29067  43.197  18.327   8.695
 2162POPC   D2A29068  42.912  18.514   8.447
 2162POPC   C3A29069  43.081  18.459   8.055
 2162POPC   C4A29070  43.063  18.449   7.627
 2162POPC   C1B29071  42.928  17.864   8.745
 2162POPC   C2B29072  42.915  18.025   8.294
 2162POPC   C3B29073  42.962  17.974   7.830
 2162POPC   C4B29074  42.702  17.732   7.539
 2163POPC   NC329075  28.991  28.679   9.418
 2163POPC   PO429076  29.371  29.267   9.441
 2163POPC   GL129077  29.146  29.175   9.076
 2163POPC   GL229078  28.820  29.315   8.974
 2163POPC   C1A29079  29.303  29.196   8.664
 2163POPC   D2A29080  29.411  28.954   8.292
 2163POPC   C3A29081  29.312  29.118   7.906
 2163POPC   C4A29082  29.408  29.482   7.705
 2163POPC   C1B29083  28.817  28.946   8.748
 2163POPC   C2B29084  28.877  28.865   8.364
 2163POPC   C3B29085  28.775  29.123   8.070
 2163POPC   C4B29086  28.852  29.018   7.721
 2164POPC   NC329087   8.584  13.688   9.807
 2164POPC   PO429088   8.008  13.402   9.563
 2164POPC   GL129089   8.007  13.377   9.088
 2164POPC   GL229090   8.233  13.661   8.921
 2164POPC   C1A29091   8.099  13.237   8.686
 2164POPC   D2A29092   8.097  13.485   8.334
 2164POPC   C3A29093   8.120  13.349   7.885
 2164POPC   C4A29094   7.960  13.712   7.615
 2164POPC   C1B29095   8.551  13.451   8.632
 2164POPC   C2B29096   8.589  13.481   8.223
 2164POPC   C3B29097   8.344  13.790   7.998
 2164POPC   C4B29098   8.433  13.914   7.620
 2165POPC   NC329099   2.767  12.722   9.474
 2165POPC   PO429100   3.256  13.126   9.355
 2165POPC   GL129101   2.905  12.959   9.036
 2165POPC   GL229102   2.525  12.823   9.065
 2165POPC   C1A29103   2.790  12.782   8.644
 2165POPC   D2A29104   3.003  12.579   8.320
 2165POPC   C3A29105   2.802  12.809   8.067
 2165POPC   C4A29106   2.853  12.749   7.680
 2165POPC   C1B29107   2.380  12.493   8.755
 2165POPC   C2B29108   2.463  12.518   8.301
 2165POPC   C3B29109   2.410  12.588   7.837
 2165POPC   C4B29110   2.497  12.602   7.377
 2166POPC   NC329111  13.111  29.698   9.605
 2166POPC   PO429112  12.861  30.360   9.685
 2166POPC   GL129113  12.805  30.093   9.293
 2166POPC   GL229114  13.149  29.972   9.180
 2166POPC   C1A29115  12.837  30.146   8.828
 2166POPC   D2A29116  13.129  30.081   8.489
 2166POPC   C3A29117  12.947  30.162   8.114
 2166POPC   C4A29118  12.777  30.090   7.704
 2166POPC   C1B29119  13.060  29.693   8.792
 2166POPC   C2B29120  12.853  29.676   8.347
 2166POPC   C3B29121  12.996  29.671   7.910
 2166POPC   C4B29122  13.090  29.757   7.457
 2167POPC   NC329123  27.382   3.456   9.547
 2167POPC   PO429124  27.958   3.695   9.438
 2167POPC   GL129125  27.654   3.682   9.137
 2167POPC   GL229126  27.550   3.354   9.085
 2167POPC   C1A29127  27.505   3.682   8.707
 2167POPC   D2A29128  27.645   3.450   8.353
 2167POPC   C3A29129  27.780   3.644   7.960
 2167POPC   C4A29130  27.612   3.911   7.683
 2167POPC   C1B29131  27.279   3.211   8.767
 2167POPC   C2B29132  27.141   3.343   8.365
 2167POPC   C3B29133  27.262   3.190   7.955
 2167POPC   C4B29134  27.446   3.404   7.633
 2168POPC   NC329135  28.042  15.257   9.684
 2168POPC   PO429136  28.575  15.047   9.554
 2168POPC   GL129137  28.408  15.225   9.182
 2168POPC   GL229138  28.679  15.432   9.027
 2168POPC   C1A29139  28.131  15.309   8.836
 2168POPC   D2A29140  28.216  15.388   8.427
 2168POPC   C3A29141  28.075  15.230   8.029
 2168POPC   C4A29142  28.292  15.523   7.737
 2168POPC   C1B29143  28.605  15.123   8.695
 2168POPC   C2B29144  28.604  15.144   8.213
 2168POPC   C3B29145  28.673  15.108   7.762
 2168POPC   C4B29146  28.733  14.853   7.343
 2169POPC   NC329147   4.160  36.272   9.342
 2169POPC   PO429148   4.511  35.731   9.535
 2169POPC   GL129149   4.480  35.943   9.118
 2169POPC   GL229150   4.129  35.959   8.952
 2169POPC   C1A29151   4.580  36.002   8.680
 2169POPC   D2A29152   4.535  36.060   8.225
 2169POPC   C3A29153   4.618  36.444   8.045
 2169POPC   C4A29154   4.526  36.320   7.648
 2169POPC   C1B29155   3.831  35.914   8.608
 2169POPC   C2B29156   3.866  35.930   8.149
 2169POPC   C3B29157   4.147  35.989   7.754
 2169POPC   C4B29158   4.341  35.754   7.398
 2170POPC   NC329159  36.983  34.843   9.667
 2170POPC   PO429160  36.840  35.484   9.463
 2170POPC   GL129161  36.953  35.336   9.116
 2170POPC   GL229162  36.866  34.985   9.167
 2170POPC   C1A29163  36.791  35.494   8.726
 2170POPC   D2A29164  36.929  35.739   8.417
 2170POPC   C3A29165  37.154  35.555   8.124
 2170POPC   C4A29166  37.215  35.679   7.734
 2170POPC   C1B29167  37.024  35.034   8.729
 2170POPC   C2B29168  36.892  35.151   8.347
 2170POPC   C3B29169  36.755  35.227   7.957
 2170POPC   C4B29170  36.900  35.302   7.556
 2171POPC   NC329171  17.975  36.647   9.628
 2171POPC   PO429172  18.404  37.087   9.644
 2171POPC   GL129173  18.395  37.024   9.169
 2171POPC   GL229174  18.029  36.969   9.212
 2171POPC   C1A29175  18.550  36.722   8.788
 2171POPC   D2A29176  18.284  36.548   8.450
 2171POPC   C3A29177  18.308  36.943   8.212
 2171POPC   C4A29178  18.426  37.180   7.806
 2171POPC   C1B29179  18.056  36.865   8.792
 2171POPC   C2B29180  17.839  36.835   8.420
 2171POPC   C3B29181  17.842  36.933   8.006
 2171POPC   C4B29182  17.944  37.009   7.638
 2172POPC   NC329183  11.653  22.380   9.603
 2172POPC   PO429184  11.111  22.014   9.447
 2172POPC   GL129185  11.221  22.152   9.094
 2172POPC   GL229186  11.529  22.129   9.159
 2172POPC   C1A29187  11.115  21.982   8.680
 2172POPC   D2A29188  11.238  21.859   8.289
 2172POPC   C3A29189  11.011  22.028   7.943
 2172POPC   C4A29190  11.040  21.988   7.528
 2172POPC   C1B29191  11.637  22.182   8.749
 2172POPC   C2B29192  11.593  22.312   8.360
 2172POPC   C3B29193  11.554  22.107   7.983
 2172POPC   C4B29194  11.433  22.252   7.640
 2173POPC   NC329195  34.899  38.673   9.423
 2173POPC   PO429196  34.733  38.000   9.568
 2173POPC   GL129197  34.594  38.322   9.178
 2173POPC   GL229198  34.504  38.669   9.108
 2173POPC   C1A29199  34.504  38.335   8.732
 2173POPC   D2A29200  34.770  38.322   8.397
 2173POPC   C3A29201  34.487  38.259   8.056
 2173POPC   C4A29202  34.560  38.092   7.669
 2173POPC   C1B29203  34.808  38.730   8.766
 2173POPC   C2B29204  34.722  38.840   8.365
 2173POPC   C3B29205  34.786  38.672   7.993
 2173POPC   C4B29206  34.524  38.608   7.678
 2174POPC   NC329207  43.578  34.093   9.885
 2174POPC   PO429208  44.116  33.896   9.467
 2174POPC   GL129209  44.053  33.675   9.084
 2174POPC   GL229210  43.752  33.800   9.001
 2174POPC   C1A29211  44.122  33.829   8.666
 2174POPC   D2A29212  43.902  33.911   8.301
 2174POPC   C3A29213  44.190  34.014   8.006
 2174POPC   C4A29214  44.139  33.821   7.619
 2174POPC   C1B29215  43.717  33.490   8.672
 2174POPC   C2B29216  43.528  33.519   8.278
 2174POPC   C3B29217  43.758  33.579   7.910
 2174POPC   C4B29218  43.697  33.990   7.752
 2175POPC   NC329219  42.114  37.343   9.602
 2175POPC   PO429220  42.672  37.702   9.507
 2175POPC   GL129221  42.275  37.768   9.293
 2175POPC   GL229222  42.353  38.074   9.137
 2175POPC   C1A29223  42.165  37.575   8.889
 2175POPC   D2A29224  42.350  37.414   8.509
 2175POPC   C3A29225  42.111  37.363   8.118
 2175POPC   C4A29226  42.248  37.411   7.716
 2175POPC   C1B29227  42.103  38.055   8.749
 2175POPC   C2B29228  42.055  37.813   8.365
 2175POPC   C3B29229  42.208  37.901   7.938
 2175POPC   C4B29230  42.591  38.148   7.841
 2176POPC   NC329231  29.510  19.002   9.459
 2176POPC   PO429232  28.944  19.375   9.393
 2176POPC   GL129233  29.178  19.218   9.124
 2176POPC   GL229234  29.176  18.850   9.105
 2176POPC   C1A29235  29.228  19.214   8.718
 2176POPC   D2A29236  29.427  19.142   8.343
 2176POPC   C3A29237  29.129  19.193   8.027
 2176POPC   C4A29238  28.823  18.932   7.805
 2176POPC   C1B29239  29.332  18.706   8.698
 2176POPC   C2B29240  29.144  18.731   8.267
 2176POPC   C3B29241  29.271  18.723   7.822
 2176POPC   C4B29242  29.042  18.625   7.415
 2177POPC   NC329243  18.836  14.501   9.345
 2177POPC   PO429244  19.333  14.033   9.497
 2177POPC   GL129245  19.329  14.327   9.143
 2177POPC   GL229246  19.311  14.722   9.146
 2177POPC   C1A29247  19.244  14.228   8.729
 2177POPC   D2A29248  18.858  14.311   8.536
 2177POPC   C3A29249  18.899  14.362   8.092
 2177POPC   C4A29250  19.309  14.367   7.888
 2177POPC   C1B29251  19.111  14.744   8.720
 2177POPC   C2B29252  19.272  14.703   8.285
 2177POPC   C3B29253  19.287  14.889   7.842
 2177POPC   C4B29254  19.253  14.895   7.370
 2178POPC   NC329255  36.776   6.600   9.550
 2178POPC   PO429256  36.303   7.023   9.306
 2178POPC   GL129257  36.622   6.792   9.081
 2178POPC   GL229258  36.996   6.689   9.105
 2178POPC   C1A29259  36.767   6.865   8.684
 2178POPC   D2A29260  36.582   6.908   8.306
 2178POPC   C3A29261  36.708   6.561   8.082
 2178POPC   C4A29262  36.855   6.693   7.732
 2178POPC   C1B29263  37.306   6.483   8.843
 2178POPC   C2B29264  37.470   6.560   8.427
 2178POPC   C3B29265  37.260   6.598   8.050
 2178POPC   C4B29266  37.327   6.559   7.633
 2179POPC   NC329267  28.590  19.658   9.427
 2179POPC   PO429268  28.036  19.812   9.510
 2179POPC   GL129269  28.244  19.944   9.139
 2179POPC   GL229270  28.461  20.204   9.100
 2179POPC   C1A29271  28.478  19.815   8.783
 2179POPC   D2A29272  28.641  19.673   8.413
 2179POPC   C3A29273  28.475  19.850   8.076
 2179POPC   C4A29274  28.366  19.709   7.680
 2179POPC   C1B29275  28.224  20.291   8.703
 2179POPC   C2B29276  28.072  20.201   8.258
 2179POPC   C3B29277  28.110  20.157   7.795
 2179POPC   C4B29278  28.281  20.115   7.360
 2180POPC   NC329279   0.864  23.804   9.411
 2180POPC   PO429280   1.476  23.522   9.558
 2180POPC   GL129281   1.306  23.679   9.203
 2180POPC   GL229282   1.407  23.990   9.077
 2180POPC   C1A29283   1.296  23.598   8.789
 2180POPC   D2A29284   1.423  23.789   8.427
 2180POPC   C3A29285   1.247  23.645   8.068
 2180POPC   C4A29286   1.051  23.682   7.692
 2180POPC   C1B29287   1.083  24.076   8.780
 2180POPC   C2B29288   0.906  24.220   8.387
 2180POPC   C3B29289   1.029  24.115   7.965
 2180POPC   C4B29290   1.417  24.033   7.767
 2181POPC   NC329291  17.407  21.159   9.214
 2181POPC   PO429292  17.491  20.648   9.677
 2181POPC   GL129293  17.399  20.598   9.201
 2181POPC   GL229294  17.090  20.385   9.171
 2181POPC   C1A29295  17.592  20.558   8.771
 2181POPC   D2A29296  17.653  20.273   8.414
 2181POPC   C3A29297  17.540  20.424   8.012
 2181POPC   C4A29298  17.822  20.624   7.793
 2181POPC   C1B29299  17.058  20.672   8.804
 2181POPC   C2B29300  17.230  20.678   8.404
 2181POPC   C3B29301  17.063  20.603   8.030
 2181POPC   C4B29302  16.885  20.261   7.816
 2182POPC   NC329303  12.842  32.677   9.499
 2182POPC   PO429304  12.877  33.335   9.409
 2182POPC   GL129305  12.784  33.057   9.103
 2182POPC   GL229306  13.080  32.877   9.091
 2182POPC   C1A29307  12.834  33.171   8.681
 2182POPC   D2A29308  12.667  33.102   8.273
 2182POPC   C3A29309  12.845  33.132   7.879
 2182POPC   C4A29310  12.502  32.952   7.653
 2182POPC   C1B29311  13.216  32.818   8.701
 2182POPC   C2B29312  13.177  33.033   8.327
 2182POPC   C3B29313  13.276  32.844   7.966
 2182POPC   C4B29314  13.285  32.959   7.562
 2183POPC   NC329315  30.001  14.878   9.456
 2183POPC   PO429316  29.643  14.316   9.545
 2183POPC   GL129317  29.748  14.555   9.140
 2183POPC   GL229318  30.121  14.562   9.079
 2183POPC   C1A29319  29.795  14.440   8.700
 2183POPC   D2A29320  29.759  14.567   8.296
 2183POPC   C3A29321  29.768  14.302   7.979
 2183POPC   C4A29322  29.832  14.357   7.552
 2183POPC   C1B29323  30.320  14.520   8.693
 2183POPC   C2B29324  30.214  14.371   8.293
 2183POPC   C3B29325  30.301  14.530   7.896
 2183POPC   C4B29326  30.332  14.395   7.482
 2184POPC   NC329327  43.543  38.729   9.474
 2184POPC   PO429328  42.867  38.679   9.455
 2184POPC   GL129329  43.075  38.486   9.137
 2184POPC   GL229330  43.399  38.577   9.017
 2184POPC   C1A29331  42.964  38.315   8.757
 2184POPC   D2A29332  43.064  38.025   8.431
 2184POPC   C3A29333  43.054  38.263   8.071
 2184POPC   C4A29334  43.071  38.318   7.673
 2184POPC   C1B29335  43.470  38.258   8.716
 2184POPC   C2B29336  43.499  38.419   8.299
 2184POPC   C3B29337  43.547  38.284   7.875
 2184POPC   C4B29338  43.534  38.382   7.434
 2185POPC   NC329339  26.549  20.831   9.537
 2185POPC   PO429340  27.109  20.605   9.274
 2185POPC   GL129341  26.797  20.788   9.048
 2185POPC   GL229342  26.604  20.484   9.088
 2185POPC   C1A29343  26.884  20.771   8.606
 2185POPC   D2A29344  27.078  20.466   8.329
 2185POPC   C3A29345  26.963  20.555   7.914
 2185POPC   C4A29346  26.848  20.920   7.695
 2185POPC   C1B29347  26.464  20.453   8.660
 2185POPC   C2B29348  26.543  20.640   8.235
 2185POPC   C3B29349  26.473  20.578   7.801
 2185POPC   C4B29350  26.683  20.269   7.574
 2186POPC   NC329351   5.504   1.378   9.364
 2186POPC   PO429352   6.189   1.367   9.605
 2186POPC   GL129353   5.958   1.165   9.234
 2186POPC   GL229354   5.645   0.951   9.165
 2186POPC   C1A29355   5.894   1.286   8.794
 2186POPC   D2A29356   6.047   1.144   8.399
 2186POPC   C3A29357   6.159   1.433   8.066
 2186POPC   C4A29358   5.910   1.522   7.738
 2186POPC   C1B29359   5.490   0.942   8.764
 2186POPC   C2B29360   5.545   1.072   8.362
 2186POPC   C3B29361   5.753   1.095   7.961
 2186POPC   C4B29362   5.480   1.219   7.609
 2187POPC   NC329363   3.933  11.030   9.296
 2187POPC   PO429364   3.508  11.488   9.516
 2187POPC   GL129365   3.526  11.288   9.131
 2187POPC   GL229366   3.437  10.930   9.139
 2187POPC   C1A29367   3.718  11.342   8.732
 2187POPC   D2A29368   3.505  11.453   8.376
 2187POPC   C3A29369   3.700  11.442   7.967
 2187POPC   C4A29370   3.515  11.487   7.559
 2187POPC   C1B29371   3.597  10.852   8.733
 2187POPC   C2B29372   3.718  10.998   8.360
 2187POPC   C3B29373   3.454  10.996   8.069
 2187POPC   C4B29374   3.554  10.971   7.707
 2188POPC   NC329375  34.348  33.994   9.627
 2188POPC   PO429376  34.603  33.414   9.838
 2188POPC   GL129377  34.702  33.679   9.384
 2188POPC   GL229378  34.468  33.936   9.154
 2188POPC   C1A29379  34.767  33.648   8.893
 2188POPC   D2A29380  34.550  33.634   8.481
 2188POPC   C3A29381  34.791  33.754   8.111
 2188POPC   C4A29382  34.728  34.046   7.795
 2188POPC   C1B29383  34.428  34.077   8.711
 2188POPC   C2B29384  34.522  34.240   8.283
 2188POPC   C3B29385  34.350  34.417   7.890
 2188POPC   C4B29386  34.517  34.393   7.472
 2189POPC   NC329387  33.992  14.489  10.003
 2189POPC   PO429388  33.701  14.124   9.546
 2189POPC   GL129389  33.853  14.426   9.247
 2189POPC   GL229390  33.629  14.262   8.999
 2189POPC   C1A29391  34.059  14.471   8.843
 2189POPC   D2A29392  33.818  14.510   8.461
 2189POPC   C3A29393  34.023  14.476   8.092
 2189POPC   C4A29394  34.164  14.469   7.701
 2189POPC   C1B29395  33.391  14.585   8.755
 2189POPC   C2B29396  33.219  14.697   8.318
 2189POPC   C3B29397  33.343  14.663   7.864
 2189POPC   C4B29398  33.653  14.443   7.736
 2190POPC   NC329399  37.579   2.853   9.492
 2190POPC   PO429400  38.140   3.041   9.567
 2190POPC   GL129401  37.823   3.058   9.105
 2190POPC   GL229402  37.557   2.740   9.013
 2190POPC   C1A29403  37.741   2.980   8.631
 2190POPC   D2A29404  37.436   2.714   8.408
 2190POPC   C3A29405  37.641   2.631   8.041
 2190POPC   C4A29406  37.928   2.957   7.910
 2190POPC   C1B29407  37.258   2.397   8.925
 2190POPC   C2B29408  37.156   2.264   8.508
 2190POPC   C3B29409  37.223   2.240   8.069
 2190POPC   C4B29410  37.352   2.393   7.693
 2191POPC   NC329411  40.310   6.020   9.745
 2191POPC   PO429412  40.000   6.616   9.544
 2191POPC   GL129413  40.019   6.484   9.125
 2191POPC   GL229414  39.858   6.801   9.006
 2191POPC   C1A29415  39.949   6.428   8.688
 2191POPC   D2A29416  40.079   6.547   8.303
 2191POPC   C3A29417  39.815   6.718   8.005
 2191POPC   C4A29418  39.830   6.427   7.720
 2191POPC   C1B29419  40.080   7.019   8.685
 2191POPC   C2B29420  40.094   7.079   8.256
 2191POPC   C3B29421  40.306   6.839   7.957
 2191POPC   C4B29422  40.135   6.831   7.560
 2192POPC   NC329423  16.420  14.692   9.493
 2192POPC   PO429424  16.880  14.299   9.424
 2192POPC   GL129425  16.726  14.490   9.080
 2192POPC   GL229426  16.698  14.879   9.123
 2192POPC   C1A29427  16.795  14.310   8.671
 2192POPC   D2A29428  16.776  14.209   8.228
 2192POPC   C3A29429  16.626  14.466   7.937
 2192POPC   C4A29430  16.648  14.487   7.504
 2192POPC   C1B29431  16.901  14.861   8.755
 2192POPC   C2B29432  16.793  14.714   8.378
 2192POPC   C3B29433  16.958  14.833   8.043
 2192POPC   C4B29434  17.074  14.633   7.702
 2193POPC   NC329435   7.260   8.601   9.470
 2193POPC   PO429436   7.631   9.113   9.616
 2193POPC   GL129437   7.495   9.044   9.176
 2193POPC   GL229438   7.600   8.714   9.066
 2193POPC   C1A29439   7.576   9.068   8.708
 2193POPC   D2A29440   7.589   8.818   8.346
 2193POPC   C3A29441   7.447   8.965   7.950
 2193POPC   C4A29442   7.609   9.072   7.541
 2193POPC   C1B29443   7.229   8.651   8.754
 2193POPC   C2B29444   7.075   8.740   8.311
 2193POPC   C3B29445   7.187   8.519   7.919
 2193POPC   C4B29446   7.386   8.596   7.544
 2194POPC   NC329447  14.567  28.119   9.693
 2194POPC   PO429448  14.165  28.623   9.715
 2194POPC   GL129449  14.355  28.547   9.314
 2194POPC   GL229450  14.709  28.522   9.362
 2194POPC   C1A29451  14.339  28.542   8.864
 2194POPC   D2A29452  14.404  28.397   8.447
 2194POPC   C3A29453  14.179  28.534   8.113
 2194POPC   C4A29454  14.286  28.266   7.812
 2194POPC   C1B29455  14.816  28.693   8.977
 2194POPC   C2B29456  14.770  28.731   8.547
 2194POPC   C3B29457  14.843  28.506   8.173
 2194POPC   C4B29458  14.692  28.588   7.774
 2195POPC   NC329459  14.404  18.917   9.540
 2195POPC   PO429460  14.169  19.534   9.386
 2195POPC   GL129461  14.264  19.158   9.131
 2195POPC   GL229462  14.598  19.024   9.090
 2195POPC   C1A29463  14.228  18.840   8.788
 2195POPC   D2A29464  14.507  18.960   8.446
 2195POPC   C3A29465  14.374  18.926   8.051
 2195POPC   C4A29466  14.010  18.739   7.848
 2195POPC   C1B29467  14.578  19.369   8.788
 2195POPC   C2B29468  14.810  19.399   8.420
 2195POPC   C3B29469  14.708  19.445   8.007
 2195POPC   C4B29470  14.838  19.215   7.656
 2196POPC   NC329471  28.163   9.989   9.590
 2196POPC   PO429472  28.311   9.429   9.382
 2196POPC   GL129473  28.250   9.658   9.071
 2196POPC   GL229474  28.420   9.942   9.147
 2196POPC   C1A29475  28.156   9.563   8.656
 2196POPC   D2A29476  28.335   9.788   8.355
 2196POPC   C3A29477  28.308   9.575   8.012
 2196POPC   C4A29478  28.456   9.413   7.658
 2196POPC   C1B29479  28.396  10.178   8.767
 2196POPC   C2B29480  28.496  10.298   8.363
 2196POPC   C3B29481  28.397  10.143   7.983
 2196POPC   C4B29482  28.356   9.944   7.609
 2197POPC   NC329483  38.167  36.632   9.182
 2197POPC   PO429484  38.232  37.248   9.492
 2197POPC   GL129485  38.430  37.082   9.134
 2197POPC   GL229486  38.694  36.873   9.288
 2197POPC   C1A29487  38.453  36.921   8.682
 2197POPC   D2A29488  38.383  36.526   8.448
 2197POPC   C3A29489  38.395  36.616   8.018
 2197POPC   C4A29490  38.478  37.065   7.886
 2197POPC   C1B29491  38.895  37.070   8.935
 2197POPC   C2B29492  38.929  37.034   8.495
 2197POPC   C3B29493  38.895  37.340   8.192
 2197POPC   C4B29494  38.758  37.477   7.816
 2198POPC   NC329495  39.758  37.082   9.351
 2198POPC   PO429496  39.165  36.925   9.649
 2198POPC   GL129497  39.281  36.919   9.237
 2198POPC   GL229498  39.424  36.598   9.257
 2198POPC   C1A29499  39.383  37.004   8.798
 2198POPC   D2A29500  39.370  37.276   8.433
 2198POPC   C3A29501  39.290  37.010   8.105
 2198POPC   C4A29502  39.447  36.943   7.697
 2198POPC   C1B29503  39.497  36.495   8.837
 2198POPC   C2B29504  39.384  36.642   8.443
 2198POPC   C3B29505  39.359  36.516   8.033
 2198POPC   C4B29506  39.584  36.404   7.715
 2199POPC   NC329507  17.140   4.418   9.645
 2199POPC   PO429508  17.750   4.527   9.426
 2199POPC   GL129509  17.404   4.565   9.100
 2199POPC   GL229510  17.020   4.622   9.184
 2199POPC   C1A29511  17.489   4.498   8.638
 2199POPC   D2A29512  17.670   4.651   8.222
 2199POPC   C3A29513  17.780   4.381   7.875
 2199POPC   C4A29514  17.835   4.469   7.409
 2199POPC   C1B29515  17.051   4.268   8.876
 2199POPC   C2B29516  17.074   4.276   8.428
 2199POPC   C3B29517  17.162   4.400   8.016
 2199POPC   C4B29518  17.315   4.252   7.655
 2200POPC   NC329519  44.537  20.411   9.897
 2200POPC   PO429520   0.070  20.813   9.792
 2200POPC   GL129521  44.765  20.749   9.427
 2200POPC   GL229522  44.972  20.917   9.192
 2200POPC   C1A29523  44.633  20.571   9.001
 2200POPC   D2A29524  44.882  20.453   8.604
 2200POPC   C3A29525  44.706  20.343   8.161
 2200POPC   C4A29526  44.444  20.587   7.844
 2200POPC   C1B29527  44.841  20.968   8.764
 2200POPC   C2B29528  44.728  20.847   8.319
 2200POPC   C3B29529  44.931  20.742   7.929
 2200POPC   C4B29530  44.864  20.399   7.612
 2201POPC   NC329531   4.450  44.952   9.504
 2201POPC   PO429532   3.994  44.456   9.577
 2201POPC   GL129533   4.104  44.666   9.205
 2201POPC   GL229534   4.179   0.028   9.068
 2201POPC   C1A29535   4.278  44.539   8.839
 2201POPC   D2A29536   4.178  44.778   8.483
 2201POPC   C3A29537   4.082  44.580   8.093
 2201POPC   C4A29538   4.336  44.665   7.723
 2201POPC   C1B29539   4.598  44.923   8.834
 2201POPC   C2B29540   4.713  44.742   8.422
 2201POPC   C3B29541   4.802  44.903   8.003
 2201POPC   C4B29542   4.692  44.986   7.555
 2202POPC   NC329543  42.752  24.031   9.574
 2202POPC   PO429544  43.454  23.811   9.497
 2202POPC   GL129545  43.295  23.771   9.075
 2202POPC   GL229546  42.950  23.830   9.132
 2202POPC   C1A29547  43.086  23.565   8.703
 2202POPC   D2A29548  43.157  23.706   8.263
 2202POPC   C3A29549  43.171  23.537   7.856
 2202POPC   C4A29550  43.198  23.821   7.496
 2202POPC   C1B29551  42.656  24.032   8.836
 2202POPC   C2B29552  42.707  23.865   8.421
 2202POPC   C3B29553  42.694  23.535   8.089
 2202POPC   C4B29554  42.709  23.595   7.625
 2203POPC   NC329555  15.025  21.201   9.407
 2203POPC   PO429556  15.267  21.759   9.436
 2203POPC   GL129557  15.321  21.529   9.074
 2203POPC   GL229558  15.455  21.208   9.071
 2203POPC   C1A29559  15.037  21.394   8.763
 2203POPC   D2A29560  15.027  21.614   8.386
 2203POPC   C3A29561  14.758  21.549   8.044
 2203POPC   C4A29562  15.028  21.652   7.668
 2203POPC   C1B29563  15.349  20.962   8.729
 2203POPC   C2B29564  15.077  21.024   8.385
 2203POPC   C3B29565  15.179  21.240   8.022
 2203POPC   C4B29566  15.505  21.168   7.753
 2204POPC   NC329567  16.932  29.210   9.668
 2204POPC   PO429568  17.450  28.868   9.401
 2204POPC   GL129569  17.525  29.182   9.134
 2204POPC   GL229570  17.298  29.436   9.252
 2204POPC   C1A29571  17.504  29.099   8.706
 2204POPC   D2A29572  17.625  28.876   8.353
 2204POPC   C3A29573  17.593  29.165   8.019
 2204POPC   C4A29574  17.367  29.045   7.678
 2204POPC   C1B29575  17.278  29.533   8.822
 2204POPC   C2B29576  17.334  29.471   8.389
 2204POPC   C3B29577  17.255  29.588   7.968
 2204POPC   C4B29578  17.262  29.533   7.528
 2205POPC   NC329579  40.637  34.825   9.570
 2205POPC   PO429580  41.199  34.485   9.457
 2205POPC   GL129581  40.924  34.617   9.154
 2205POPC   GL229582  40.613  34.452   9.205
 2205POPC   C1A29583  40.900  34.489   8.733
 2205POPC   D2A29584  41.189  34.381   8.405
 2205POPC   C3A29585  41.027  34.407   7.965
 2205POPC   C4A29586  40.748  34.256   7.646
 2205POPC   C1B29587  40.485  34.759   8.884
 2205POPC   C2B29588  40.459  34.677   8.454
 2205POPC   C3B29589  40.532  34.602   7.994
 2205POPC   C4B29590  40.251  34.328   7.779
 2206POPC   NC329591  37.770  14.650   9.358
 2206POPC   PO429592  37.605  14.124   9.666
 2206POPC   GL129593  37.591  14.211   9.129
 2206POPC   GL229594  37.462  14.541   8.959
 2206POPC   C1A29595  37.766  14.282   8.667
 2206POPC   D2A29596  37.544  14.487   8.318
 2206POPC   C3A29597  37.579  14.259   7.926
 2206POPC   C4A29598  37.869  14.120   7.627
 2206POPC   C1B29599  37.748  14.807   8.699
 2206POPC   C2B29600  37.702  15.006   8.289
 2206POPC   C3B29601  37.820  14.748   7.944
 2206POPC   C4B29602  37.639  14.667   7.560
 2207POPC   NC329603  14.834  13.057   9.763
 2207POPC   PO429604  15.329  13.567   9.462
 2207POPC   GL129605  15.267  13.562   9.059
 2207POPC   GL229606  14.993  13.768   9.121
 2207POPC   C1A29607  15.103  13.487   8.674
 2207POPC   D2A29608  15.240  13.612   8.293
 2207POPC   C3A29609  15.065  13.410   7.990
 2207POPC   C4A29610  15.417  13.392   7.802
 2207POPC   C1B29611  14.937  14.065   8.874
 2207POPC   C2B29612  14.949  13.995   8.457
 2207POPC   C3B29613  15.032  14.058   8.050
 2207POPC   C4B29614  15.035  13.814   7.694
 2208POPC   NC329615  38.040  36.855   9.678
 2208POPC   PO429616  37.469  37.171   9.472
 2208POPC   GL129617  37.771  37.030   9.094
 2208POPC   GL229618  37.531  36.802   8.956
 2208POPC   C1A29619  37.909  36.779   8.629
 2208POPC   D2A29620  37.720  36.765   8.208
 2208POPC   C3A29621  37.968  36.810   7.826
 2208POPC   C4A29622  38.091  36.598   7.407
 2208POPC   C1B29623  37.567  37.156   8.648
 2208POPC   C2B29624  37.637  37.340   8.254
 2208POPC   C3B29625  37.546  37.161   7.847
 2208POPC   C4B29626  37.397  36.742   7.798
 2209POPC   NC329627   7.707  31.338   9.487
 2209POPC   PO429628   7.553  31.988   9.552
 2209POPC   GL129629   7.453  31.699   9.146
 2209POPC   GL229630   7.435  31.313   9.044
 2209POPC   C1A29631   7.555  31.664   8.690
 2209POPC   D2A29632   7.444  31.909   8.315
 2209POPC   C3A29633   7.663  31.778   7.965
 2209POPC   C4A29634   7.622  31.717   7.522
 2209POPC   C1B29635   7.169  31.312   8.672
 2209POPC   C2B29636   7.357  31.176   8.274
 2209POPC   C3B29637   7.424  31.325   7.844
 2209POPC   C4B29638   7.135  31.484   7.524
 2210POPC   NC329639  25.928  35.693   9.285
 2210POPC   PO429640  26.098  34.983   9.516
 2210POPC   GL129641  25.968  35.181   9.162
 2210POPC   GL229642  26.309  35.336   9.159
 2210POPC   C1A29643  25.832  35.034   8.755
 2210POPC   D2A29644  25.764  35.252   8.386
 2210POPC   C3A29645  25.881  35.091   7.998
 2210POPC   C4A29646  25.835  35.248   7.557
 2210POPC   C1B29647  26.219  35.415   8.728
 2210POPC   C2B29648  26.227  35.438   8.298
 2210POPC   C3B29649  25.996  35.592   7.955
 2210POPC   C4B29650  26.317  35.367   7.753
 2211POPC   NC329651  21.011  44.467   9.451
 2211POPC   PO429652  21.567  44.866   9.505
 2211POPC   GL129653  21.360  44.722   9.171
 2211POPC   GL229654  21.044  44.860   9.121
 2211POPC   C1A29655  21.300  44.485   8.814
 2211POPC   D2A29656  21.582  44.440   8.457
 2211POPC   C3A29657  21.395  44.488   8.083
 2211POPC   C4A29658  21.527  44.468   7.695
 2211POPC   C1B29659  21.172  44.966   8.740
 2211POPC   C2B29660  21.104  44.746   8.402
 2211POPC   C3B29661  21.176  44.971   8.019
 2211POPC   C4B29662  21.277  44.914   7.605
 2212POPC   NC329663  21.969  16.476   9.516
 2212POPC   PO429664  22.114  17.093   9.474
 2212POPC   GL129665  22.262  16.849   9.140
 2212POPC   GL229666  22.362  16.479   9.204
 2212POPC   C1A29667  22.117  16.987   8.735
 2212POPC   D2A29668  22.223  17.036   8.296
 2212POPC   C3A29669  22.064  16.936   7.891
 2212POPC   C4A29670  22.323  16.969   7.566
 2212POPC   C1B29671  22.077  16.475   8.843
 2212POPC   C2B29672  21.914  16.648   8.426
 2212POPC   C3B29673  22.015  16.456   8.018
 2212POPC   C4B29674  22.149  16.501   7.578
 2213POPC   NC329675   6.806  10.087   9.439
 2213POPC   PO429676   6.325  10.559   9.472
 2213POPC   GL129677   6.479  10.352   9.149
 2213POPC   GL229678   6.801  10.514   9.051
 2213POPC   C1A29679   6.467  10.360   8.736
 2213POPC   D2A29680   6.777  10.526   8.486
 2213POPC   C3A29681   6.630  10.490   8.092
 2213POPC   C4A29682   6.363  10.507   7.719
 2213POPC   C1B29683   6.902  10.116   8.821
 2213POPC   C2B29684   6.987  10.068   8.410
 2213POPC   C3B29685   6.918  10.081   7.997
 2213POPC   C4B29686   6.881  10.388   7.681
 2214POPC   NC329687   1.895  33.701   9.551
 2214POPC   PO429688   2.454  34.033   9.341
 2214POPC   GL129689   2.245  33.693   9.095
 2214POPC   GL229690   1.967  33.876   9.057
 2214POPC   C1A29691   2.137  33.590   8.660
 2214POPC   D2A29692   2.218  33.841   8.295
 2214POPC   C3A29693   2.098  33.664   7.921
 2214POPC   C4A29694   1.769  33.394   7.727
 2214POPC   C1B29695   1.888  34.035   8.652
 2214POPC   C2B29696   1.741  33.990   8.252
 2214POPC   C3B29697   1.936  34.160   7.917
 2214POPC   C4B29698   1.659  34.312   7.584
 2215POPC   NC329699  23.686   2.075   9.480
 2215POPC   PO429700  23.239   1.588   9.479
 2215POPC   GL129701  23.604   1.741   9.116
 2215POPC   GL229702  23.869   2.098   9.022
 2215POPC   C1A29703  23.618   1.850   8.679
 2215POPC   D2A29704  23.785   2.077   8.345
 2215POPC   C3A29705  23.517   2.225   8.073
 2215POPC   C4A29706  23.667   2.191   7.702
 2215POPC   C1B29707  24.165   2.046   8.677
 2215POPC   C2B29708  24.253   1.892   8.243
 2215POPC   C3B29709  23.945   1.812   7.879
 2215POPC   C4B29710  23.979   1.972   7.379
 2216POPC   NC329711  14.892   4.893   9.376
 2216POPC   PO429712  15.472   4.984   9.445
 2216POPC   GL129713  15.328   5.263   9.114
 2216POPC   GL229714  14.952   5.313   9.046
 2216POPC   C1A29715  15.380   5.133   8.686
 2216POPC   D2A29716  15.390   4.878   8.312
 2216POPC   C3A29717  15.402   5.090   7.950
 2216POPC   C4A29718  15.330   5.223   7.539
 2216POPC   C1B29719  14.870   5.145   8.651
 2216POPC   C2B29720  14.845   4.911   8.278
 2216POPC   C3B29721  14.875   4.911   7.842
 2216POPC   C4B29722  14.918   4.962   7.405
 2217POPC   NC329723  41.503   3.789   9.396
 2217POPC   PO429724  41.381   3.121   9.425
 2217POPC   GL129725  41.511   3.301   9.040
 2217POPC   GL229726  41.758   3.539   9.046
 2217POPC   C1A29727  41.321   3.516   8.691
 2217POPC   D2A29728  41.315   3.412   8.266
 2217POPC   C3A29729  41.431   3.703   7.967
 2217POPC   C4A29730  41.377   3.457   7.608
 2217POPC   C1B29731  41.778   3.740   8.672
 2217POPC   C2B29732  41.844   3.525   8.311
 2217POPC   C3B29733  41.785   3.350   7.940
 2217POPC   C4B29734  41.935   3.629   7.647
 2218POPC   NC329735   3.392  22.518   9.346
 2218POPC   PO429736   2.947  22.205   9.780
 2218POPC   GL129737   2.848  22.213   9.246
 2218POPC   GL229738   2.786  21.927   9.072
 2218POPC   C1A29739   2.930  22.327   8.791
 2218POPC   D2A29740   2.748  22.277   8.369
 2218POPC   C3A29741   2.839  22.465   7.983
 2218POPC   C4A29742   2.704  22.414   7.585
 2218POPC   C1B29743   2.612  21.873   8.675
 2218POPC   C2B29744   2.884  21.776   8.325
 2218POPC   C3B29745   3.027  21.969   7.951
 2218POPC   C4B29746   2.646  21.947   7.767
 2219POPC   NC329747  39.546  28.752   9.482
 2219POPC   PO429748  40.205  28.933   9.681
 2219POPC   GL129749  39.956  29.141   9.339
 2219POPC   GL229750  40.162  28.988   9.120
 2219POPC   C1A29751  39.938  29.375   8.921
 2219POPC   D2A29752  39.926  29.148   8.513
 2219POPC   C3A29753  39.895  29.340   8.112
 2219POPC   C4A29754  40.151  29.299   7.759
 2219POPC   C1B29755  40.189  28.716   8.747
 2219POPC   C2B29756  40.016  28.681   8.351
 2219POPC   C3B29757  40.142  28.887   8.056
 2219POPC   C4B29758  40.138  28.784   7.671
 2220POPC   NC329759  32.113   2.955   9.589
 2220POPC   PO429760  32.620   2.570   9.400
 2220POPC   GL129761  32.334   2.691   9.112
 2220POPC   GL229762  32.038   2.562   9.266
 2220POPC   C1A29763  32.327   2.931   8.716
 2220POPC   D2A29764  32.179   2.801   8.341
 2220POPC   C3A29765  32.387   2.780   7.986
 2220POPC   C4A29766  32.150   3.084   7.810
 2220POPC   C1B29767  31.917   2.619   8.820
 2220POPC   C2B29768  31.862   2.414   8.417
 2220POPC   C3B29769  31.956   2.485   7.968
 2220POPC   C4B29770  31.766   2.623   7.556
 2221POPC   NC329771  41.453  32.533   9.344
 2221POPC   PO429772  41.724  31.999   9.657
 2221POPC   GL129773  41.679  31.997   9.220
 2221POPC   GL229774  42.030  32.033   9.171
 2221POPC   C1A29775  41.666  32.183   8.788
 2221POPC   D2A29776  41.948  32.472   8.566
 2221POPC   C3A29777  41.802  32.506   8.148
 2221POPC   C4A29778  41.401  32.397   7.959
 2221POPC   C1B29779  41.983  31.783   8.842
 2221POPC   C2B29780  41.746  31.711   8.469
 2221POPC   C3B29781  41.469  31.914   8.204
 2221POPC   C4B29782  41.545  31.899   7.783
 2222POPC   NC329783  18.434   0.510   9.516
 2222POPC   PO429784  17.824   0.454   9.391
 2222POPC   GL129785  18.118   0.359   9.117
 2222POPC   GL229786  18.198   0.713   9.118
 2222POPC   C1A29787  18.274   0.327   8.706
 2222POPC   D2A29788  18.078   0.408   8.321
 2222POPC   C3A29789  18.250   0.326   7.947
 2222POPC   C4A29790  18.559   0.020   7.826
 2222POPC   C1B29791  18.399   0.815   8.742
 2222POPC   C2B29792  18.534   0.691   8.352
 2222POPC   C3B29793  18.386   0.856   7.984
 2222POPC   C4B29794  18.261   0.686   7.596
 2223POPC   NC329795  34.687   2.584   9.753
 2223POPC   PO429796  34.647   1.979   9.525
 2223POPC   GL129797  34.712   2.111   9.129
 2223POPC   GL229798  34.970   1.909   9.036
 2223POPC   C1A29799  34.455   1.935   8.777
 2223POPC   D2A29800  34.306   1.690   8.404
 2223POPC   C3A29801  34.426   1.857   8.009
 2223POPC   C4A29802  34.601   2.235   7.832
 2223POPC   C1B29803  34.937   2.026   8.636
 2223POPC   C2B29804  34.895   1.892   8.216
 2223POPC   C3B29805  34.923   1.833   7.772
 2223POPC   C4B29806  34.955   1.700   7.326
 2224POPC   NC329807   9.934  29.466   9.536
 2224POPC   PO429808   9.480  28.993   9.613
 2224POPC   GL129809   9.623  29.014   9.231
 2224POPC   GL229810   9.937  28.843   9.260
 2224POPC   C1A29811   9.540  29.037   8.787
 2224POPC   D2A29812   9.636  29.337   8.455
 2224POPC   C3A29813   9.612  29.145   8.064
 2224POPC   C4A29814   9.460  29.368   7.683
 2224POPC   C1B29815   9.996  29.178   8.927
 2224POPC   C2B29816  10.133  29.320   8.545
 2224POPC   C3B29817  10.106  29.306   8.105
 2224POPC   C4B29818   9.951  29.236   7.698
 2225POPC   NC329819  33.938   0.753   9.513
 2225POPC   PO429820  33.825   1.489   9.498
 2225POPC   GL129821  33.879   1.381   9.127
 2225POPC   GL229822  34.175   1.178   9.213
 2225POPC   C1A29823  33.921   1.466   8.699
 2225POPC   D2A29824  33.677   1.469   8.330
 2225POPC   C3A29825  33.982   1.408   8.058
 2225POPC   C4A29826  34.124   1.597   7.704
 2225POPC   C1B29827  34.014   0.983   8.855
 2225POPC   C2B29828  33.823   1.007   8.453
 2225POPC   C3B29829  33.906   0.894   8.084
 2225POPC   C4B29830  33.756   0.872   7.695
 2226POPC   NC329831  27.479  11.518   9.752
 2226POPC   PO429832  27.913  11.021   9.507
 2226POPC   GL129833  27.755  11.205   9.107
 2226POPC   GL229834  27.458  11.101   8.930
 2226POPC   C1A29835  27.700  11.484   8.709
 2226POPC   D2A29836  27.395  11.392   8.386
 2226POPC   C3A29837  27.313  11.645   7.984
 2226POPC   C4A29838  27.677  11.672   7.689
 2226POPC   C1B29839  27.743  10.932   8.650
 2226POPC   C2B29840  27.764  10.947   8.210
 2226POPC   C3B29841  27.585  11.216   7.897
 2226POPC   C4B29842  27.303  11.350   7.562
 2227POPC   NC329843   6.313  35.090   9.833
 2227POPC   PO429844   6.747  35.420   9.376
 2227POPC   GL129845   6.531  35.675   9.107
 2227POPC   GL229846   6.868  35.815   9.076
 2227POPC   C1A29847   6.327  35.610   8.755
 2227POPC   D2A29848   6.399  35.298   8.453
 2227POPC   C3A29849   6.434  35.458   8.044
 2227POPC   C4A29850   6.643  35.211   7.730
 2227POPC   C1B29851   6.846  35.548   8.699
 2227POPC   C2B29852   6.859  35.695   8.265
 2227POPC   C3B29853   6.961  35.593   7.822
 2227POPC   C4B29854   7.034  35.389   7.404
 2228POPC   NC329855  15.985  35.496   9.559
 2228POPC   PO429856  15.983  34.860   9.662
 2228POPC   GL129857  15.917  35.067   9.126
 2228POPC   GL229858  15.904  35.402   9.075
 2228POPC   C1A29859  16.100  35.089   8.680
 2228POPC   D2A29860  16.339  35.351   8.351
 2228POPC   C3A29861  16.203  35.240   7.902
 2228POPC   C4A29862  15.736  35.227   7.764
 2228POPC   C1B29863  16.087  35.577   8.761
 2228POPC   C2B29864  15.870  35.525   8.372
 2228POPC   C3B29865  15.930  35.665   7.955
 2228POPC   C4B29866  16.054  35.588   7.494
 2229POPC   NC329867  35.684  32.302   9.373
 2229POPC   PO429868  36.313  32.292   9.537
 2229POPC   GL129869  36.145  32.267   9.109
 2229POPC   GL229870  36.475  32.212   8.973
 2229POPC   C1A29871  36.075  32.122   8.668
 2229POPC   D2A29872  36.430  32.005   8.402
 2229POPC   C3A29873  36.215  31.907   8.044
 2229POPC   C4A29874  35.938  31.853   7.689
 2229POPC   C1B29875  36.391  32.515   8.657
 2229POPC   C2B29876  36.205  32.464   8.269
 2229POPC   C3B29877  35.930  32.357   7.954
 2229POPC   C4B29878  36.267  32.263   7.686
 2230POPC   NC329879   6.534  20.175   9.530
 2230POPC   PO429880   6.669  19.464   9.488
 2230POPC   GL129881   6.747  19.756   9.137
 2230POPC   GL229882   6.485  19.998   9.062
 2230POPC   C1A29883   6.726  19.781   8.676
 2230POPC   D2A29884   6.454  19.690   8.315
 2230POPC   C3A29885   6.586  19.848   7.944
 2230POPC   C4A29886   6.756  19.743   7.556
 2230POPC   C1B29887   6.191  20.198   8.765
 2230POPC   C2B29888   6.037  20.051   8.385
 2230POPC   C3B29889   6.170  20.132   7.992
 2230POPC   C4B29890   6.373  20.173   7.577
 2231POPC   NC329891  13.854  12.878   9.677
 2231POPC   PO429892  13.579  12.251   9.521
 2231POPC   GL129893  13.441  12.163   9.105
 2231POPC   GL229894  13.777  12.094   9.078
 2231POPC   C1A29895  13.571  12.074   8.629
 2231POPC   D2A29896  13.343  12.003   8.247
 2231POPC   C3A29897  13.542  11.943   7.871
 2231POPC   C4A29898  13.744  12.026   7.448
 2231POPC   C1B29899  13.960  12.369   8.795
 2231POPC   C2B29900  14.068  12.430   8.361
 2231POPC   C3B29901  13.878  12.320   7.972
 2231POPC   C4B29902  14.057  12.373   7.591
 2232POPC   NC329903   2.477  35.201   9.460
 2232POPC   PO429904   1.977  35.711   9.449
 2232POPC   GL129905   2.127  35.427   9.118
 2232POPC   GL229906   1.846  35.191   8.975
 2232POPC   C1A29907   2.055  35.548   8.689
 2232POPC   D2A29908   1.873  35.287   8.383
 2232POPC   C3A29909   2.024  35.441   7.981
 2232POPC   C4A29910   1.884  35.426   7.554
 2232POPC   C1B29911   2.230  35.057   8.771
 2232POPC   C2B29912   2.292  34.813   8.436
 2232POPC   C3B29913   2.084  34.932   8.083
 2232POPC   C4B29914   2.242  35.082   7.697
 2233POPC   NC329915  31.143   7.188   9.577
 2233POPC   PO429916  31.632   7.650   9.427
 2233POPC   GL129917  31.545   7.358   9.111
 2233POPC   GL229918  31.200   7.315   9.097
 2233POPC   C1A29919  31.776   7.302   8.717
 2233POPC   D2A29920  31.785   7.519   8.339
 2233POPC   C3A29921  31.688   7.311   7.943
 2233POPC   C4A29922  31.644   7.546   7.539
 2233POPC   C1B29923  31.249   7.464   8.689
 2233POPC   C2B29924  31.280   7.435   8.275
 2233POPC   C3B29925  31.260   7.589   7.891
 2233POPC   C4B29926  31.121   7.238   7.740
 2234POPC   NC329927   2.284  32.782   9.611
 2234POPC   PO429928   1.830  33.257   9.425
 2234POPC   GL129929   2.187  33.106   9.188
 2234POPC   GL229930   2.221  32.730   9.115
 2234POPC   C1A29931   2.137  33.084   8.746
 2234POPC   D2A29932   1.752  33.142   8.526
 2234POPC   C3A29933   1.895  33.285   8.193
 2234POPC   C4A29934   2.226  33.169   7.905
 2234POPC   C1B29935   1.825  32.711   8.851
 2234POPC   C2B29936   1.840  32.613   8.404
 2234POPC   C3B29937   1.865  32.777   7.980
 2234POPC   C4B29938   1.688  32.532   7.663
 2235POPC   NC329939  36.729  10.590   9.633
 2235POPC   PO429940  37.293  10.166   9.634
 2235POPC   GL129941  36.982  10.255   9.287
 2235POPC   GL229942  36.943  10.607   9.165
 2235POPC   C1A29943  36.774  10.245   8.871
 2235POPC   D2A29944  36.868  10.546   8.533
 2235POPC   C3A29945  36.833  10.308   8.149
 2235POPC   C4A29946  36.794  10.285   7.703
 2235POPC   C1B29947  37.178  10.841   8.863
 2235POPC   C2B29948  37.306  10.902   8.420
 2235POPC   C3B29949  37.080  10.741   8.075
 2235POPC   C4B29950  36.886  10.771   7.667
 2236POPC   NC329951  14.010  22.977   9.587
 2236POPC   PO429952  13.436  22.645   9.640
 2236POPC   GL129953  13.681  22.726   9.226
 2236POPC   GL229954  13.762  23.075   9.054
 2236POPC   C1A29955  13.531  22.726   8.779
 2236POPC   D2A29956  13.314  22.932   8.447
 2236POPC   C3A29957  13.477  22.975   8.056
 2236POPC   C4A29958  13.426  22.768   7.670
 2236POPC   C1B29959  13.917  23.387   8.759
 2236POPC   C2B29960  14.089  23.420   8.346
 2236POPC   C3B29961  13.805  23.388   8.011
 2236POPC   C4B29962  13.840  23.081   7.714
 2237POPC   NC329963  43.735  43.670   9.488
 2237POPC   PO429964  44.035  44.251   9.578
 2237POPC   GL129965  43.807  44.113   9.191
 2237POPC   GL229966  44.049  43.871   9.111
 2237POPC   C1A29967  43.623  43.938   8.778
 2237POPC   D2A29968  43.776  44.028   8.347
 2237POPC   C3A29969  43.616  43.749   8.048
 2237POPC   C4A29970  43.790  43.485   7.758
 2237POPC   C1B29971  44.149  44.013   8.718
 2237POPC   C2B29972  44.221  43.712   8.378
 2237POPC   C3B29973  44.158  43.804   7.960
 2237POPC   C4B29974  44.338  44.053   7.676
 2238POPC   NC329975  41.267  28.343   9.404
 2238POPC   PO429976  41.933  28.519   9.472
 2238POPC   GL129977  41.678  28.573   9.117
 2238POPC   GL229978  41.682  28.234   9.098
 2238POPC   C1A29979  41.397  28.468   8.731
 2238POPC   D2A29980  41.263  28.697   8.338
 2238POPC   C3A29981  41.346  28.501   7.937
 2238POPC   C4A29982  41.409  28.133   7.655
 2238POPC   C1B29983  41.902  28.355   8.705
 2238POPC   C2B29984  41.725  28.333   8.286
 2238POPC   C3B29985  41.859  28.382   7.833
 2238POPC   C4B29986  41.875  28.450   7.404
 2239POPC   NC329987  40.302  41.691   9.573
 2239POPC   PO429988  39.699  41.476   9.394
 2239POPC   GL129989  39.949  41.760   9.155
 2239POPC   GL229990  40.257  41.644   9.066
 2239POPC   C1A29991  39.916  41.909   8.725
 2239POPC   D2A29992  39.686  42.063   8.362
 2239POPC   C3A29993  39.675  41.819   7.979
 2239POPC   C4A29994  40.039  41.930   7.758
 2239POPC   C1B29995  40.125  41.459   8.666
 2239POPC   C2B29996  40.030  41.628   8.279
 2239POPC   C3B29997  40.003  41.432   7.916
 2239POPC   C4B29998  39.682  41.268   7.712
 2240POPC   NC329999   0.264  23.419   9.644
 2240POPC   PO430000   0.448  24.037   9.379
 2240POPC   GL130001   0.367  23.747   9.061
 2240POPC   GL230002   0.601  23.542   9.091
 2240POPC   C1A30003   0.394  23.771   8.608
 2240POPC   D2A30004   0.103  23.679   8.251
 2240POPC   C3A30005   0.273  23.841   7.900
 2240POPC   C4A30006   0.604  23.899   7.590
 2240POPC   C1B30007   0.817  23.384   8.771
 2240POPC   C2B30008   0.902  23.682   8.457
 2240POPC   C3B30009   0.715  23.694   8.078
 2240POPC   C4B30010   0.680  23.347   7.779
 2241POPC   NC330011  18.473   7.343   9.692
 2241POPC   PO430012  18.132   7.807   9.478
 2241POPC   GL130013  18.173   7.449   9.217
 2241POPC   GL230014  18.527   7.371   9.173
 2241POPC   C1A30015  18.190   7.529   8.766
 2241POPC   D2A30016  18.316   7.722   8.366
 2241POPC   C3A30017  18.004   7.743   8.037
 2241POPC   C4A30018  17.985   7.606   7.615
 2241POPC   C1B30019  18.576   7.197   8.756
 2241POPC   C2B30020  18.317   7.201   8.361
 2241POPC   C3B30021  18.386   7.405   7.955
 2241POPC   C4B30022  18.315   7.130   7.658
 2242POPC   NC330023   9.685  39.645   9.539
 2242POPC   PO430024  10.005  39.036   9.515
 2242POPC   GL130025   9.838  39.114   9.104
 2242POPC   GL230026   9.669  39.442   9.083
 2242POPC   C1A30027   9.752  39.197   8.650
 2242POPC   D2A30028   9.490  39.046   8.307
 2242POPC   C3A30029   9.605  39.085   7.906
 2242POPC   C4A30030   9.922  39.132   7.602
 2242POPC   C1B30031   9.507  39.680   8.725
 2242POPC   C2B30032   9.539  39.565   8.269
 2242POPC   C3B30033   9.741  39.589   7.845
 2242POPC   C4B30034   9.859  39.592   7.388
 2243POPC   NC330035  10.742  40.376   9.428
 2243POPC   PO430036  11.027  40.958   9.409
 2243POPC   GL130037  11.322  40.746   9.141
 2243POPC   GL230038  11.069  40.842   8.916
 2243POPC   C1A30039  11.389  40.505   8.724
 2243POPC   D2A30040  11.057  40.653   8.436
 2243POPC   C3A30041  11.127  40.744   8.003
 2243POPC   C4A30042  11.301  40.501   7.672
 2243POPC   C1B30043  11.443  41.007   8.719
 2243POPC   C2B30044  11.511  40.899   8.318
 2243POPC   C3B30045  11.648  40.775   7.938
 2243POPC   C4B30046  11.392  40.987   7.621
 2244POPC   NC330047  41.492  17.373   9.860
 2244POPC   PO430048  41.030  17.646   9.477
 2244POPC   GL130049  40.836  17.735   9.092
 2244POPC   GL230050  40.622  17.454   9.062
 2244POPC   C1A30051  40.733  17.760   8.661
 2244POPC   D2A30052  40.798  17.529   8.299
 2244POPC   C3A30053  40.805  17.709   7.890
 2244POPC   C4A30054  41.080  17.653   7.527
 2244POPC   C1B30055  40.672  17.201   8.694
 2244POPC   C2B30056  40.828  17.010   8.318
 2244POPC   C3B30057  40.972  17.202   7.957
 2244POPC   C4B30058  40.746  17.293   7.591
 2245POPC   NC330059  31.994  34.205   9.383
 2245POPC   PO430060  32.447  33.692   9.442
 2245POPC   GL130061  32.331  33.564   9.089
 2245POPC   GL230062  32.013  33.758   9.079
 2245POPC   C1A30063  32.420  33.699   8.708
 2245POPC   D2A30064  32.411  33.892   8.330
 2245POPC   C3A30065  32.489  33.564   8.005
 2245POPC   C4A30066  32.283  33.523   7.595
 2245POPC   C1B30067  32.054  34.062   8.729
 2245POPC   C2B30068  31.904  34.014   8.320
 2245POPC   C3B30069  32.050  33.832   7.966
 2245POPC   C4B30070  32.021  34.051   7.602
 2246POPC   NC330071  40.388  25.285   9.533
 2246POPC   PO430072  40.999  25.099   9.415
 2246POPC   GL130073  40.796  25.295   9.079
 2246POPC   GL230074  40.485  25.507   9.095
 2246POPC   C1A30075  40.637  25.109   8.715
 2246POPC   D2A30076  40.552  25.257   8.319
 2246POPC   C3A30077  40.721  25.130   7.949
 2246POPC   C4A30078  41.060  25.259   7.744
 2246POPC   C1B30079  40.594  25.631   8.700
 2246POPC   C2B30080  40.540  25.783   8.304
 2246POPC   C3B30081  40.493  25.600   7.915
 2246POPC   C4B30082  40.318  25.255   7.676
 2247POPC   NC330083  24.011  19.440   9.393
 2247POPC   PO430084  23.504  19.891   9.477
 2247POPC   GL130085  23.678  19.954   9.100
 2247POPC   GL230086  23.669  19.622   9.047
 2247POPC   C1A30087  23.731  20.052   8.690
 2247POPC   D2A30088  23.963  19.919   8.365
 2247POPC   C3A30089  23.793  19.788   8.005
 2247POPC   C4A30090  23.826  19.905   7.582
 2247POPC   C1B30091  23.898  19.505   8.688
 2247POPC   C2B30092  23.752  19.355   8.284
 2247POPC   C3B30093  23.419  19.465   8.001
 2247POPC   C4B30094  23.455  19.556   7.559
 2248POPC   NC330095  24.383  23.278   9.880
 2248POPC   PO430096  24.640  23.809   9.516
 2248POPC   GL130097  24.586  23.946   9.126
 2248POPC   GL230098  24.425  23.641   9.095
 2248POPC   C1A30099  24.502  23.920   8.695
 2248POPC   D2A30100  24.717  23.759   8.382
 2248POPC   C3A30101  24.529  23.945   8.062
 2248POPC   C4A30102  24.486  23.754   7.711
 2248POPC   C1B30103  24.204  23.497   8.736
 2248POPC   C2B30104  24.185  23.689   8.352
 2248POPC   C3B30105  24.070  23.579   7.941
 2248POPC   C4B30106  24.243  23.281   7.655
 2249POPC   NC330107   1.227   4.947   9.450
 2249POPC   PO430108   1.107   5.550   9.475
 2249POPC   GL130109   1.157   5.320   9.131
 2249POPC   GL230110   0.906   5.458   8.998
 2249POPC   C1A30111   1.391   5.098   8.809
 2249POPC   D2A30112   1.280   4.975   8.424
 2249POPC   C3A30113   1.400   5.066   8.028
 2249POPC   C4A30114   1.181   5.025   7.638
 2249POPC   C1B30115   1.034   5.405   8.600
 2249POPC   C2B30116   0.753   5.207   8.340
 2249POPC   C3B30117   0.887   5.258   7.969
 2249POPC   C4B30118   0.894   5.450   7.567
 2250POPC   NC330119   1.373  28.087   9.525
 2250POPC   PO430120   1.220  28.721   9.562
 2250POPC   GL130121   1.255  28.555   9.148
 2250POPC   GL230122   1.399  28.233   9.054
 2250POPC   C1A30123   1.451  28.609   8.728
 2250POPC   D2A30124   1.314  28.375   8.380
 2250POPC   C3A30125   1.440  28.565   8.015
 2250POPC   C4A30126   1.246  28.724   7.659
 2250POPC   C1B30127   1.285  27.936   8.740
 2250POPC   C2B30128   1.126  27.900   8.338
 2250POPC   C3B30129   1.255  28.056   7.930
 2250POPC   C4B30130   1.016  28.032   7.549
 2251POPC   NC330131  36.480  20.226   9.465
 2251POPC   PO430132  37.005  20.640   9.408
 2251POPC   GL130133  36.904  20.449   9.019
 2251POPC   GL230134  36.526  20.408   8.972
 2251POPC   C1A30135  37.185  20.629   8.718
 2251POPC   D2A30136  37.176  20.868   8.377
 2251POPC   C3A30137  36.906  20.649   8.094
 2251POPC   C4A30138  37.075  20.569   7.748
 2251POPC   C1B30139  36.651  20.806   8.741
 2251POPC   C2B30140  36.700  21.025   8.342
 2251POPC   C3B30141  36.741  21.080   7.847
 2251POPC   C4B30142  36.720  21.220   7.363
 2252POPC   NC330143  39.901  19.378   9.902
 2252POPC   PO430144  40.058  18.917   9.443
 2252POPC   GL130145  40.007  18.960   9.020
 2252POPC   GL230146  40.119  18.615   8.930
 2252POPC   C1A30147  39.962  19.299   8.749
 2252POPC   D2A30148  39.728  19.324   8.380
 2252POPC   C3A30149  39.789  19.082   8.001
 2252POPC   C4A30150  39.889  19.458   7.828
 2252POPC   C1B30151  40.151  18.854   8.541
 2252POPC   C2B30152  40.245  19.247   8.327
 2252POPC   C3B30153  40.284  19.111   7.935
 2252POPC   C4B30154  40.157  18.729   7.850
 2253POPC   NC330155  38.357  23.449   9.407
 2253POPC   PO430156  38.745  24.020   9.563
 2253POPC   GL130157  38.503  23.887   9.188
 2253POPC   GL230158  38.657  23.624   9.000
 2253POPC   C1A30159  38.290  23.930   8.795
 2253POPC   D2A30160  38.436  24.002   8.387
 2253POPC   C3A30161  38.269  23.847   8.025
 2253POPC   C4A30162  38.635  23.657   7.795
 2253POPC   C1B30163  38.436  23.427   8.630
 2253POPC   C2B30164  38.075  23.225   8.408
 2253POPC   C3B30165  37.912  23.403   8.026
 2253POPC   C4B30166  38.165  23.473   7.687
 2254POPC   NC330167  44.738  13.146   9.502
 2254POPC   PO430168  44.911  12.546   9.355
 2254POPC   GL130169  44.641  12.819   9.108
 2254POPC   GL230170  44.794  13.131   9.013
 2254POPC   C1A30171  44.414  12.927   8.746
 2254POPC   D2A30172  44.386  12.786   8.312
 2254POPC   C3A30173  44.617  12.897   7.929
 2254POPC   C4A30174  44.831  12.606   7.727
 2254POPC   C1B30175  44.905  12.928   8.628
 2254POPC   C2B30176  44.939  13.142   8.237
 2254POPC   C3B30177   0.160  12.962   7.870
 2254POPC   C4B30178   0.091  12.913   7.416
 2255POPC   NC330179  38.048  34.465   9.480
 2255POPC   PO430180  38.702  34.426   9.398
 2255POPC   GL130181  38.392  34.500   9.087
 2255POPC   GL230182  38.285  34.832   9.197
 2255POPC   C1A30183  38.418  34.343   8.668
 2255POPC   D2A30184  38.660  34.466   8.301
 2255POPC   C3A30185  38.426  34.450   7.903
 2255POPC   C4A30186  38.447  34.561   7.443
 2255POPC   C1B30187  38.265  34.927   8.765
 2255POPC   C2B30188  38.229  34.725   8.366
 2255POPC   C3B30189  38.220  34.921   7.978
 2255POPC   C4B30190  38.280  35.018   7.571
 2256POPC   NC330191   6.611  34.258   9.528
 2256POPC   PO430192   6.323  33.573   9.509
 2256POPC   GL130193   6.534  33.507   9.111
 2256POPC   GL230194   6.665  33.825   9.184
 2256POPC   C1A30195   6.697  33.535   8.669
 2256POPC   D2A30196   6.685  33.477   8.202
 2256POPC   C3A30197   6.926  33.640   7.890
 2256POPC   C4A30198   6.648  33.621   7.567
 2256POPC   C1B30199   6.615  34.014   8.808
 2256POPC   C2B30200   6.780  33.952   8.386
 2256POPC   C3B30201   6.687  34.070   7.961
 2256POPC   C4B30202   7.054  34.077   7.648
 2257POPC   NC330203  11.306  38.760   9.603
 2257POPC   PO430204  10.954  39.335   9.535
 2257POPC   GL130205  11.268  39.121   9.217
 2257POPC   GL230206  11.561  38.836   9.155
 2257POPC   C1A30207  11.457  39.339   8.875
 2257POPC   D2A30208  11.631  39.482   8.517
 2257POPC   C3A30209  11.336  39.368   8.184
 2257POPC   C4A30210  11.460  39.350   7.743
 2257POPC   C1B30211  11.753  38.957   8.762
 2257POPC   C2B30212  11.599  38.986   8.388
 2257POPC   C3B30213  11.449  38.897   8.008
 2257POPC   C4B30214  11.546  38.807   7.619
 2258POPC   NC330215  11.388  14.145   9.510
 2258POPC   PO430216  11.094  14.788   9.497
 2258POPC   GL130217  11.272  14.565   9.152
 2258POPC   GL230218  11.060  14.253   9.118
 2258POPC   C1A30219  11.193  14.563   8.693
 2258POPC   D2A30220  11.491  14.605   8.324
 2258POPC   C3A30221  11.412  14.507   7.901
 2258POPC   C4A30222  11.049  14.626   7.706
 2258POPC   C1B30223  11.426  14.127   8.844
 2258POPC   C2B30224  11.453  14.069   8.392
 2258POPC   C3B30225  11.560  13.997   7.946
 2258POPC   C4B30226  11.190  14.062   7.723
 2259POPC   NC330227  20.224   7.428   9.435
 2259POPC   PO430228  19.557   7.112   9.457
 2259POPC   GL130229  19.810   7.317   9.108
 2259POPC   GL230230  20.123   7.129   9.052
 2259POPC   C1A30231  19.726   7.622   8.721
 2259POPC   D2A30232  19.899   7.713   8.296
 2259POPC   C3A30233  19.673   7.537   7.928
 2259POPC   C4A30234  19.685   7.542   7.444
 2259POPC   C1B30235  20.089   7.250   8.667
 2259POPC   C2B30236  19.932   7.091   8.351
 2259POPC   C3B30237  20.066   7.213   8.003
 2259POPC   C4B30238  19.787   7.094   7.680
 2260POPC   NC330239  14.834   3.210   9.481
 2260POPC   PO430240  15.225   2.662   9.528
 2260POPC   GL130241  15.211   2.584   9.114
 2260POPC   GL230242  14.963   2.852   9.105
 2260POPC   C1A30243  15.058   2.555   8.684
 2260POPC   D2A30244  14.903   2.488   8.279
 2260POPC   C3A30245  15.002   2.694   7.898
 2260POPC   C4A30246  14.755   3.019   7.672
 2260POPC   C1B30247  15.305   2.989   8.804
 2260POPC   C2B30248  15.366   2.880   8.360
 2260POPC   C3B30249  15.185   3.133   8.051
 2260POPC   C4B30250  15.271   3.050   7.630
 2261POPC   NC330251  15.096  24.121   9.299
 2261POPC   PO430252  15.334  23.501   9.569
 2261POPC   GL130253  15.437  23.738   9.214
 2261POPC   GL230254  15.112  23.671   9.025
 2261POPC   C1A30255  15.540  23.777   8.782
 2261POPC   D2A30256  15.203  23.818   8.481
 2261POPC   C3A30257  15.325  23.625   8.105
 2261POPC   C4A30258  15.275  23.800   7.700
 2261POPC   C1B30259  14.759  23.921   8.796
 2261POPC   C2B30260  14.708  24.059   8.397
 2261POPC   C3B30261  14.873  23.866   8.049
 2261POPC   C4B30262  14.753  23.711   7.648
 2262POPC   NC330263  43.425  13.979   9.533
 2262POPC   PO430264  43.082  13.460   9.428
 2262POPC   GL130265  43.103  13.516   9.054
 2262POPC   GL230266  43.087  13.896   9.044
 2262POPC   C1A30267  43.157  13.343   8.661
 2262POPC   D2A30268  43.322  13.699   8.445
 2262POPC   C3A30269  43.244  13.804   8.048
 2262POPC   C4A30270  43.319  13.548   7.748
 2262POPC   C1B30271  42.811  13.724   8.709
 2262POPC   C2B30272  42.734  13.503   8.345
 2262POPC   C3B30273  42.815  13.545   7.933
 2262POPC   C4B30274  42.815  13.889   7.718
 2263POPC   NC330275   1.637  44.629   9.650
 2263POPC   PO430276   1.008  44.885   9.481
 2263POPC   GL130277   1.131  44.583   9.175
 2263POPC   GL230278   1.497  44.569   9.088
 2263POPC   C1A30279   1.044  44.795   8.799
 2263POPC   D2A30280   1.292  44.913   8.497
 2263POPC   C3A30281   1.175  44.858   8.095
 2263POPC   C4A30282   1.489  44.900   7.811
 2263POPC   C1B30283   1.311  44.378   8.711
 2263POPC   C2B30284   0.986  44.471   8.410
 2263POPC   C3B30285   0.880  44.398   8.001
 2263POPC   C4B30286   1.249  44.461   7.767
 2264POPC   NC330287   1.857   8.233   9.538
 2264POPC   PO430288   2.075   8.808   9.250
 2264POPC   GL130289   1.866   8.503   8.924
 2264POPC   GL230290   1.699   8.194   9.048
 2264POPC   C1A30291   1.916   8.163   8.580
 2264POPC   D2A30292   2.107   8.006   8.202
 2264POPC   C3A30293   2.181   8.355   7.953
 2264POPC   C4A30294   1.823   8.558   7.920
 2264POPC   C1B30295   1.455   7.985   8.700
 2264POPC   C2B30296   1.579   7.815   8.340
 2264POPC   C3B30297   1.580   8.118   8.063
 2264POPC   C4B30298   1.787   8.075   7.735
 2265POPC   NC330299  30.543  40.801   9.437
 2265POPC   PO430300  30.228  40.326   9.211
 2265POPC   GL130301  30.394  40.599   8.964
 2265POPC   GL230302  30.733  40.527   9.031
 2265POPC   C1A30303  30.405  40.532   8.517
 2265POPC   D2A30304  30.588  40.823   8.234
 2265POPC   C3A30305  30.593  40.899   7.824
 2265POPC   C4A30306  30.794  41.114   7.481
 2265POPC   C1B30307  30.869  40.757   8.663
 2265POPC   C2B30308  31.115  40.869   8.279
 2265POPC   C3B30309  31.140  40.979   7.841
 2265POPC   C4B30310  31.255  40.740   7.448
 2266POPC   NC330311  11.538  37.676   9.576
 2266POPC   PO430312  10.993  37.802   9.217
 2266POPC   GL130313  11.412  37.759   9.043
 2266POPC   GL230314  11.590  37.425   9.145
 2266POPC   C1A30315  11.468  37.726   8.570
 2266POPC   D2A30316  11.146  37.550   8.263
 2266POPC   C3A30317  11.217  37.593   7.804
 2266POPC   C4A30318  11.384  37.973   7.635
 2266POPC   C1B30319  11.343  37.290   8.815
 2266POPC   C2B30320  11.509  37.200   8.450
 2266POPC   C3B30321  11.640  37.443   8.113
 2266POPC   C4B30322  11.699  37.307   7.705
 2267POPC   NC330323   6.722  19.150   9.888
 2267POPC   PO430324   6.313  18.773   9.454
 2267POPC   GL130325   6.638  18.930   9.138
 2267POPC   GL230326   6.949  19.081   9.242
 2267POPC   C1A30327   6.591  18.903   8.683
 2267POPC   D2A30328   6.384  18.679   8.331
 2267POPC   C3A30329   6.481  18.916   7.929
 2267POPC   C4A30330   6.706  19.328   7.889
 2267POPC   C1B30331   6.860  19.316   8.853
 2267POPC   C2B30332   6.835  19.281   8.409
 2267POPC   C3B30333   6.930  18.904   8.180
 2267POPC   C4B30334   6.992  18.879   7.751
 2268POPC   NC330335  42.260  19.349   9.458
 2268POPC   PO430336  42.473  18.669   9.456
 2268POPC   GL130337  42.453  18.971   9.171
 2268POPC   GL230338  42.133  19.052   9.058
 2268POPC   C1A30339  42.528  18.892   8.749
 2268POPC   D2A30340  42.502  19.043   8.357
 2268POPC   C3A30341  42.683  18.782   8.091
 2268POPC   C4A30342  42.633  18.742   7.687
 2268POPC   C1B30343  41.887  19.184   8.705
 2268POPC   C2B30344  41.990  18.980   8.311
 2268POPC   C3B30345  42.227  18.946   7.935
 2268POPC   C4B30346  42.065  19.117   7.606
 2269POPC   NC330347  17.593   4.983   9.353
 2269POPC   PO430348  16.941   5.110   9.351
 2269POPC   GL130349  17.169   5.141   8.983
 2269POPC   GL230350  17.529   5.272   8.943
 2269POPC   C1A30351  17.193   5.297   8.563
 2269POPC   D2A30352  17.555   5.240   8.320
 2269POPC   C3A30353  17.498   5.094   7.911
 2269POPC   C4A30354  17.462   4.724   7.680
 2269POPC   C1B30355  17.785   4.950   8.730
 2269POPC   C2B30356  18.081   4.890   8.420
 2269POPC   C3B30357  17.991   5.054   8.057
 2269POPC   C4B30358  17.922   4.918   7.671
 2270POPC   NC330359   1.219  43.747   9.505
 2270POPC   PO430360   1.696  44.218   9.411
 2270POPC   GL130361   1.356  44.039   9.107
 2270POPC   GL230362   1.003  43.815   9.071
 2270POPC   C1A30363   1.407  43.851   8.712
 2270POPC   D2A30364   1.537  44.075   8.345
 2270POPC   C3A30365   1.381  44.009   7.946
 2270POPC   C4A30366   1.436  43.651   7.715
 2270POPC   C1B30367   0.905  44.078   8.749
 2270POPC   C2B30368   1.044  43.974   8.345
 2270POPC   C3B30369   1.005  43.660   8.034
 2270POPC   C4B30370   0.927  43.911   7.702
 2271POPC   NC330371  17.903  22.618   9.471
 2271POPC   PO430372  18.412  22.952   9.740
 2271POPC   GL130373  18.308  22.965   9.288
 2271POPC   GL230374  18.571  22.982   9.091
 2271POPC   C1A30375  18.169  22.791   8.870
 2271POPC   D2A30376  18.216  22.806   8.432
 2271POPC   C3A30377  18.088  23.188   8.218
 2271POPC   C4A30378  18.079  23.125   7.779
 2271POPC   C1B30379  18.438  23.179   8.724
 2271POPC   C2B30380  18.591  23.137   8.340
 2271POPC   C3B30381  18.796  23.101   7.975
 2271POPC   C4B30382  18.599  23.113   7.623
 2272POPC   NC330383  23.796  38.842   9.384
 2272POPC   PO430384  23.401  38.326   9.484
 2272POPC   GL130385  23.431  38.498   9.093
 2272POPC   GL230386  23.755  38.355   9.063
 2272POPC   C1A30387  23.532  38.534   8.651
 2272POPC   D2A30388  23.762  38.423   8.292
 2272POPC   C3A30389  23.488  38.569   7.943
 2272POPC   C4A30390  23.283  38.573   7.540
 2272POPC   C1B30391  24.070  38.158   8.776
 2272POPC   C2B30392  24.175  37.941   8.447
 2272POPC   C3B30393  24.120  38.097   8.068
 2272POPC   C4B30394  23.947  38.430   7.792
 2273POPC   NC330395   7.382  16.035   9.586
 2273POPC   PO430396   7.149  15.511   9.460
 2273POPC   GL130397   7.490  15.731   9.161
 2273POPC   GL230398   7.648  16.079   9.151
 2273POPC   C1A30399   7.510  15.837   8.703
 2273POPC   D2A30400   7.391  15.766   8.245
 2273POPC   C3A30401   7.516  15.676   7.803
 2273POPC   C4A30402   7.544  15.654   7.339
 2273POPC   C1B30403   7.579  16.364   8.794
 2273POPC   C2B30404   7.620  16.242   8.363
 2273POPC   C3B30405   7.404  16.191   7.951
 2273POPC   C4B30406   7.270  16.087   7.529
 2274POPC   NC330407  16.661  23.637   9.416
 2274POPC   PO430408  16.144  23.985   9.610
 2274POPC   GL130409  16.438  24.058   9.227
 2274POPC   GL230410  16.818  24.085   9.195
 2274POPC   C1A30411  16.510  23.989   8.782
 2274POPC   D2A30412  16.681  23.788   8.412
 2274POPC   C3A30413  16.586  23.961   8.015
 2274POPC   C4A30414  16.706  24.040   7.609
 2274POPC   C1B30415  17.021  23.859   8.837
 2274POPC   C2B30416  17.218  23.846   8.437
 2274POPC   C3B30417  17.047  23.712   8.051
 2274POPC   C4B30418  16.701  23.502   7.851
 2275POPC   NC330419  14.839   0.769   9.443
 2275POPC   PO430420  15.385   0.439   9.444
 2275POPC   GL130421  15.281   0.393   9.041
 2275POPC   GL230422  14.946   0.484   9.043
 2275POPC   C1A30423  15.144   0.100   8.746
 2275POPC   D2A30424  15.001   0.053   8.380
 2275POPC   C3A30425  15.203   0.154   8.035
 2275POPC   C4A30426  14.957   0.031   7.700
 2275POPC   C1B30427  14.990   0.628   8.649
 2275POPC   C2B30428  15.291   0.544   8.344
 2275POPC   C3B30429  15.453   0.623   7.913
 2275POPC   C4B30430  15.419   0.698   7.434
 2276POPC   NC330431  42.350  17.144   9.776
 2276POPC   PO430432  42.178  16.540   9.597
 2276POPC   GL130433  42.346  16.760   9.275
 2276POPC   GL230434  42.479  16.432   9.167
 2276POPC   C1A30435  42.305  16.794   8.832
 2276POPC   D2A30436  42.078  16.720   8.465
 2276POPC   C3A30437  42.327  16.803   8.082
 2276POPC   C4A30438  42.125  16.844   7.691
 2276POPC   C1B30439  42.732  16.419   8.790
 2276POPC   C2B30440  42.631  16.525   8.390
 2276POPC   C3B30441  42.609  16.381   7.949
 2276POPC   C4B30442  42.599  16.665   7.617
 2277POPC   NC330443  21.038  18.502   9.402
 2277POPC   PO430444  21.697  18.580   9.568
 2277POPC   GL130445  21.679  18.299   9.176
 2277POPC   GL230446  21.328  18.268   9.057
 2277POPC   C1A30447  21.691  18.177   8.711
 2277POPC   D2A30448  21.399  18.101   8.382
 2277POPC   C3A30449  21.479  18.284   8.000
 2277POPC   C4A30450  21.771  18.178   7.689
 2277POPC   C1B30451  21.034  18.159   8.734
 2277POPC   C2B30452  20.899  18.044   8.341
 2277POPC   C3B30453  21.101  17.903   7.998
 2277POPC   C4B30454  21.265  18.024   7.613
 2278POPC   NC330455  32.129  19.329   9.476
 2278POPC   PO430456  32.161  19.979   9.600
 2278POPC   GL130457  32.109  19.989   9.194
 2278POPC   GL230458  31.908  19.693   9.183
 2278POPC   C1A30459  32.384  19.911   8.846
 2278POPC   D2A30460  32.378  20.055   8.440
 2278POPC   C3A30461  32.408  19.880   8.018
 2278POPC   C4A30462  32.579  19.846   7.597
 2278POPC   C1B30463  31.899  19.795   8.750
 2278POPC   C2B30464  32.087  19.635   8.379
 2278POPC   C3B30465  31.933  19.642   7.983
 2278POPC   C4B30466  32.093  19.699   7.615
 2279POPC   NC330467  11.261   1.715   9.435
 2279POPC   PO430468  10.922   2.300   9.388
 2279POPC   GL130469  11.129   2.065   9.039
 2279POPC   GL230470  11.484   1.972   9.044
 2279POPC   C1A30471  11.187   1.912   8.611
 2279POPC   D2A30472  11.066   1.752   8.233
 2279POPC   C3A30473  11.207   1.999   7.953
 2279POPC   C4A30474  11.222   2.139   7.573
 2279POPC   C1B30475  11.510   1.568   8.774
 2279POPC   C2B30476  11.532   1.583   8.310
 2279POPC   C3B30477  11.405   1.547   7.863
 2279POPC   C4B30478  11.621   1.803   7.570
 2280POPC   NC330479  40.683  13.379   9.471
 2280POPC   PO430480  40.942  12.724   9.303
 2280POPC   GL130481  40.633  12.985   9.110
 2280POPC   GL230482  40.787  13.319   8.993
 2280POPC   C1A30483  40.415  12.860   8.713
 2280POPC   D2A30484  40.490  12.656   8.284
 2280POPC   C3A30485  40.695  12.851   7.926
 2280POPC   C4A30486  41.100  12.879   7.762
 2280POPC   C1B30487  40.904  13.068   8.671
 2280POPC   C2B30488  40.674  13.148   8.345
 2280POPC   C3B30489  40.927  13.298   8.062
 2280POPC   C4B30490  40.717  13.327   7.694
 2281POPC   NC330491  33.360   1.520   9.415
 2281POPC   PO430492  32.908   1.088   9.377
 2281POPC   GL130493  33.126   0.987   9.079
 2281POPC   GL230494  33.498   0.999   9.228
 2281POPC   C1A30495  32.991   1.159   8.691
 2281POPC   D2A30496  33.155   1.411   8.346
 2281POPC   C3A30497  32.972   1.355   7.921
 2281POPC   C4A30498  32.905   1.157   7.505
 2281POPC   C1B30499  33.502   1.148   8.802
 2281POPC   C2B30500  33.340   0.902   8.428
 2281POPC   C3B30501  33.394   1.053   8.024
 2281POPC   C4B30502  33.247   0.833   7.674
 2282POPC   NC330503  43.785  25.937   9.552
 2282POPC   PO430504  44.335  26.302   9.735
 2282POPC   GL130505  44.124  26.184   9.247
 2282POPC   GL230506  43.737  26.098   9.099
 2282POPC   C1A30507  44.105  25.959   8.804
 2282POPC   D2A30508  43.910  25.869   8.404
 2282POPC   C3A30509  44.014  26.043   8.016
 2282POPC   C4A30510  44.112  26.135   7.623
 2282POPC   C1B30511  43.543  25.881   8.767
 2282POPC   C2B30512  43.437  25.706   8.347
 2282POPC   C3B30513  43.695  25.648   7.988
 2282POPC   C4B30514  43.747  25.757   7.561
 2283POPC   NC330515  40.911  26.982   9.410
 2283POPC   PO430516  40.415  26.625   9.643
 2283POPC   GL130517  40.534  26.872   9.130
 2283POPC   GL230518  40.343  27.126   8.994
 2283POPC   C1A30519  40.878  26.671   8.777
 2283POPC   D2A30520  41.069  26.505   8.380
 2283POPC   C3A30521  40.818  26.649   8.044
 2283POPC   C4A30522  40.587  26.514   7.676
 2283POPC   C1B30523  40.742  27.156   8.772
 2283POPC   C2B30524  40.878  27.033   8.382
 2283POPC   C3B30525  41.057  27.118   8.003
 2283POPC   C4B30526  41.027  26.877   7.653
 2284POPC   NC330527   9.847   0.664   9.464
 2284POPC   PO430528   9.516   0.079   9.542
 2284POPC   GL130529   9.674   0.223   9.178
 2284POPC   GL230530  10.010   0.190   9.187
 2284POPC   C1A30531   9.578   0.427   8.777
 2284POPC   D2A30532   9.511   0.755   8.452
 2284POPC   C3A30533   9.564   0.611   8.008
 2284POPC   C4A30534   9.644   0.177   7.780
 2284POPC   C1B30535  10.072   0.311   8.779
 2284POPC   C2B30536   9.879   0.305   8.366
 2284POPC   C3B30537  10.038   0.456   7.961
 2284POPC   C4B30538  10.046   0.500   7.499
 2285POPC   NC330539  36.553  22.768   9.700
 2285POPC   PO430540  37.116  23.206   9.539
 2285POPC   GL130541  36.905  22.993   9.190
 2285POPC   GL230542  36.560  23.120   9.165
 2285POPC   C1A30543  37.008  22.728   8.811
 2285POPC   D2A30544  36.849  22.670   8.389
 2285POPC   C3A30545  37.126  22.693   8.048
 2285POPC   C4A30546  37.032  22.659   7.634
 2285POPC   C1B30547  36.622  23.014   8.706
 2285POPC   C2B30548  36.518  23.061   8.268
 2285POPC   C3B30549  36.750  23.055   7.884
 2285POPC   C4B30550  36.603  23.237   7.510
 2286POPC   NC330551  42.020   1.995   9.570
 2286POPC   PO430552  42.652   2.116   9.428
 2286POPC   GL130553  42.444   1.932   9.114
 2286POPC   GL230554  42.294   2.270   9.081
 2286POPC   C1A30555  42.549   1.720   8.706
 2286POPC   D2A30556  42.457   1.994   8.333
 2286POPC   C3A30557  42.663   1.998   7.912
 2286POPC   C4A30558  42.509   2.133   7.514
 2286POPC   C1B30559  42.347   2.429   8.672
 2286POPC   C2B30560  42.191   2.512   8.263
 2286POPC   C3B30561  42.212   2.250   7.935
 2286POPC   C4B30562  42.005   2.283   7.575
 2287POPC   NC330563  18.513  27.711   9.726
 2287POPC   PO430564  17.966  27.481   9.948
 2287POPC   GL130565  18.092  27.614   9.416
 2287POPC   GL230566  18.444  27.641   9.222
 2287POPC   C1A30567  18.078  27.852   8.958
 2287POPC   D2A30568  17.930  27.954   8.514
 2287POPC   C3A30569  18.189  27.976   8.136
 2287POPC   C4A30570  18.323  27.826   7.738
 2287POPC   C1B30571  18.457  27.411   8.831
 2287POPC   C2B30572  18.191  27.251   8.523
 2287POPC   C3B30573  18.197  27.446   8.122
 2287POPC   C4B30574  18.446  27.336   7.790
 2288POPC   NC330575  17.237  17.788   9.525
 2288POPC   PO430576  16.716  17.423   9.687
 2288POPC   GL130577  16.760  17.456   9.233
 2288POPC   GL230578  16.905  17.740   9.136
 2288POPC   C1A30579  16.507  17.592   8.871
 2288POPC   D2A30580  16.612  17.618   8.450
 2288POPC   C3A30581  16.706  17.219   8.251
 2288POPC   C4A30582  16.535  17.249   7.850
 2288POPC   C1B30583  17.028  17.760   8.730
 2288POPC   C2B30584  17.095  17.601   8.303
 2288POPC   C3B30585  16.986  17.472   7.896
 2288POPC   C4B30586  17.015  17.063   7.740
 2289POPC   NC330587  10.621   3.052   9.444
 2289POPC   PO430588  10.040   2.736   9.566
 2289POPC   GL130589  10.358   2.604   9.229
 2289POPC   GL230590  10.602   2.785   9.038
 2289POPC   C1A30591  10.357   2.468   8.755
 2289POPC   D2A30592  10.607   2.525   8.384
 2289POPC   C3A30593  10.390   2.589   8.017
 2289POPC   C4A30594  10.556   2.750   7.647
 2289POPC   C1B30595  10.796   2.920   8.668
 2289POPC   C2B30596  10.664   3.225   8.354
 2289POPC   C3B30597  10.485   3.132   7.949
 2289POPC   C4B30598  10.750   3.216   7.548
 2290POPC   NC330599  11.566  33.831   9.603
 2290POPC   PO430600  12.235  33.977   9.547
 2290POPC   GL130601  12.110  33.747   9.168
 2290POPC   GL230602  11.869  33.466   9.142
 2290POPC   C1A30603  12.132  33.887   8.744
 2290POPC   D2A30604  12.386  34.045   8.413
 2290POPC   C3A30605  12.167  33.898   8.051
 2290POPC   C4A30606  11.926  34.043   7.704
 2290POPC   C1B30607  11.891  33.338   8.672
 2290POPC   C2B30608  11.889  33.465   8.199
 2290POPC   C3B30609  11.756  33.567   7.769
 2290POPC   C4B30610  11.820  33.409   7.323
 2291POPC   NC330611  23.056  11.621   9.447
 2291POPC   PO430612  23.244  10.962   9.453
 2291POPC   GL130613  23.054  11.206   9.115
 2291POPC   GL230614  23.249  11.515   8.989
 2291POPC   C1A30615  22.920  11.265   8.688
 2291POPC   D2A30616  23.240  11.434   8.399
 2291POPC   C3A30617  23.239  11.210   8.042
 2291POPC   C4A30618  22.896  11.171   7.811
 2291POPC   C1B30619  22.993  11.780   8.696
 2291POPC   C2B30620  23.067  11.912   8.263
 2291POPC   C3B30621  23.014  11.680   7.878
 2291POPC   C4B30622  22.587  11.536   7.692
 2292POPC   NC330623   3.184  29.073   9.771
 2292POPC   PO430624   3.642  29.496   9.534
 2292POPC   GL130625   3.548  29.162   9.204
 2292POPC   GL230626   3.229  28.944   9.166
 2292POPC   C1A30627   3.645  29.009   8.802
 2292POPC   D2A30628   3.762  29.233   8.439
 2292POPC   C3A30629   3.832  29.011   8.077
 2292POPC   C4A30630   3.744  29.100   7.671
 2292POPC   C1B30631   3.153  29.138   8.777
 2292POPC   C2B30632   3.298  29.016   8.405
 2292POPC   C3B30633   3.297  28.919   8.018
 2292POPC   C4B30634   3.244  29.053   7.625
 2293POPC   NC330635   2.573  37.490   9.381
 2293POPC   PO430636   2.844  38.169   9.451
 2293POPC   GL130637   2.802  37.866   9.121
 2293POPC   GL230638   3.088  37.727   9.025
 2293POPC   C1A30639   2.719  37.865   8.669
 2293POPC   D2A30640   2.375  37.965   8.380
 2293POPC   C3A30641   2.473  37.745   8.019
 2293POPC   C4A30642   2.845  37.742   7.799
 2293POPC   C1B30643   2.964  37.403   8.749
 2293POPC   C2B30644   2.722  37.397   8.379
 2293POPC   C3B30645   2.880  37.230   8.020
 2293POPC   C4B30646   3.088  37.326   7.661
 2294POPC   NC330647  41.461  42.710   9.580
 2294POPC   PO430648  41.979  42.449   9.217
 2294POPC   GL130649  41.465  42.407   9.093
 2294POPC   GL230650  41.331  42.059   9.079
 2294POPC   C1A30651  41.419  42.616   8.731
 2294POPC   D2A30652  41.727  42.565   8.428
 2294POPC   C3A30653  41.563  42.579   8.047
 2294POPC   C4A30654  41.233  42.740   7.751
 2294POPC   C1B30655  41.517  42.127   8.648
 2294POPC   C2B30656  41.249  42.243   8.303
 2294POPC   C3B30657  41.264  42.232   7.865
 2294POPC   C4B30658  41.638  42.160   7.662
 2295POPC   NC330659  31.417  30.164   9.723
 2295POPC   PO430660  31.889  29.745   9.813
 2295POPC   GL130661  31.481  29.772   9.438
 2295POPC   GL230662  31.539  30.152   9.234
 2295POPC   C1A30663  31.275  29.830   8.981
 2295POPC   D2A30664  31.469  29.705   8.560
 2295POPC   C3A30665  31.381  29.919   8.167
 2295POPC   C4A30666  31.459  29.931   7.737
 2295POPC   C1B30667  31.604  30.171   8.747
 2295POPC   C2B30668  31.823  30.093   8.363
 2295POPC   C3B30669  31.894  29.822   8.006
 2295POPC   C4B30670  31.941  30.006   7.607
 2296POPC   NC330671  21.180  36.309   9.417
 2296POPC   PO430672  21.813  35.905   9.353
 2296POPC   GL130673  21.516  36.054   9.055
 2296POPC   GL230674  21.460  36.419   9.021
 2296POPC   C1A30675  21.495  36.120   8.614
 2296POPC   D2A30676  21.131  35.939   8.414
 2296POPC   C3A30677  21.135  36.023   7.997
 2296POPC   C4A30678  21.571  36.093   7.834
 2296POPC   C1B30679  21.072  36.365   8.731
 2296POPC   C2B30680  21.023  36.518   8.272
 2296POPC   C3B30681  21.214  36.491   7.833
 2296POPC   C4B30682  21.152  36.261   7.434
 2297POPC   NC330683   0.270  31.161   9.446
 2297POPC   PO430684   0.082  30.636   9.382
 2297POPC   GL130685   0.321  30.758   9.060
 2297POPC   GL230686   0.620  30.964   9.094
 2297POPC   C1A30687   0.476  30.513   8.753
 2297POPC   D2A30688   0.637  30.558   8.360
 2297POPC   C3A30689   0.381  30.567   7.990
 2297POPC   C4A30690   0.456  30.398   7.559
 2297POPC   C1B30691   0.615  30.986   8.663
 2297POPC   C2B30692   0.503  31.142   8.266
 2297POPC   C3B30693   0.740  30.923   7.973
 2297POPC   C4B30694   0.715  30.854   7.542
 2298POPC   NC330695  21.137  41.214   9.531
 2298POPC   PO430696  21.632  41.732   9.433
 2298POPC   GL130697  21.316  41.553   9.171
 2298POPC   GL230698  21.487  41.243   9.173
 2298POPC   C1A30699  21.253  41.679   8.757
 2298POPC   D2A30700  21.591  41.804   8.467
 2298POPC   C3A30701  21.539  41.725   8.024
 2298POPC   C4A30702  21.567  41.830   7.590
 2298POPC   C1B30703  21.468  41.190   8.784
 2298POPC   C2B30704  21.379  41.328   8.385
 2298POPC   C3B30705  21.612  41.216   8.033
 2298POPC   C4B30706  21.353  41.255   7.697
 2299POPC   NC330707  31.379  18.512   9.495
 2299POPC   PO430708  31.181  17.895   9.115
 2299POPC   GL130709  31.554  18.228   9.105
 2299POPC   GL230710  31.776  18.558   9.150
 2299POPC   C1A30711  31.472  18.463   8.738
 2299POPC   D2A30712  31.463  18.304   8.323
 2299POPC   C3A30713  31.217  18.496   8.007
 2299POPC   C4A30714  31.328  18.552   7.562
 2299POPC   C1B30715  31.936  18.677   8.752
 2299POPC   C2B30716  31.842  18.659   8.333
 2299POPC   C3B30717  31.834  18.424   7.960
 2299POPC   C4B30718  31.945  18.675   7.637
 2300POPC   NC330719   5.155  41.044   9.437
 2300POPC   PO430720   4.669  40.452   9.367
 2300POPC   GL130721   4.984  40.648   9.104
 2300POPC   GL230722   4.935  41.002   8.979
 2300POPC   C1A30723   5.207  40.520   8.739
 2300POPC   D2A30724   5.019  40.478   8.326
 2300POPC   C3A30725   5.231  40.463   7.934
 2300POPC   C4A30726   4.998  40.507   7.549
 2300POPC   C1B30727   4.953  40.947   8.534
 2300POPC   C2B30728   5.269  40.935   8.171
 2300POPC   C3B30729   5.214  40.951   7.748
 2300POPC   C4B30730   4.883  41.263   7.804
 2301POPC   NC330731  35.606  42.627   9.527
 2301POPC   PO430732  35.236  42.105   9.385
 2301POPC   GL130733  35.594  42.250   9.120
 2301POPC   GL230734  35.797  42.596   9.063
 2301POPC   C1A30735  35.435  42.324   8.718
 2301POPC   D2A30736  35.133  42.341   8.385
 2301POPC   C3A30737  35.369  42.267   8.045
 2301POPC   C4A30738  35.435  42.167   7.641
 2301POPC   C1B30739  35.657  42.793   8.693
 2301POPC   C2B30740  35.500  42.752   8.275
 2301POPC   C3B30741  35.736  42.641   7.916
 2301POPC   C4B30742  35.797  42.476   7.508
 2302POPC   NC330743  13.541  14.618   9.381
 2302POPC   PO430744  13.464  13.997   9.556
 2302POPC   GL130745  13.513  14.144   9.165
 2302POPC   GL230746  13.847  14.295   9.079
 2302POPC   C1A30747  13.427  14.276   8.763
 2302POPC   D2A30748  13.706  14.264   8.393
 2302POPC   C3A30749  13.562  14.362   7.973
 2302POPC   C4A30750  13.804  14.182   7.631
 2302POPC   C1B30751  13.777  14.646   8.761
 2302POPC   C2B30752  13.812  14.790   8.352
 2302POPC   C3B30753  13.854  14.778   7.941
 2302POPC   C4B30754  13.853  14.925   7.578
 2303POPC   NC330755  28.705  21.139   9.478
 2303POPC   PO430756  28.098  21.486   9.572
 2303POPC   GL130757  28.359  21.379   9.176
 2303POPC   GL230758  28.647  21.595   9.086
 2303POPC   C1A30759  28.392  21.313   8.731
 2303POPC   D2A30760  28.318  21.512   8.329
 2303POPC   C3A30761  28.239  21.247   7.972
 2303POPC   C4A30762  27.973  21.332   7.666
 2303POPC   C1B30763  28.912  21.536   8.754
 2303POPC   C2B30764  28.833  21.365   8.405
 2303POPC   C3B30765  28.738  21.440   8.008
 2303POPC   C4B30766  28.426  21.698   7.827
 2304POPC   NC330767   6.573  26.662   9.404
 2304POPC   PO430768   6.945  27.191   9.501
 2304POPC   GL130769   6.818  26.990   9.102
 2304POPC   GL230770   6.439  27.007   9.039
 2304POPC   C1A30771   6.698  26.640   8.790
 2304POPC   D2A30772   6.487  26.705   8.420
 2304POPC   C3A30773   6.775  26.810   8.125
 2304POPC   C4A30774   6.754  26.679   7.717
 2304POPC   C1B30775   6.664  27.145   8.652
 2304POPC   C2B30776   6.481  27.215   8.271
 2304POPC   C3B30777   6.303  26.891   7.984
 2304POPC   C4B30778   6.209  26.675   7.620
 2305POPC   NC330779   1.938  42.458   9.411
 2305POPC   PO430780   2.000  41.856   9.201
 2305POPC   GL130781   2.094  42.226   8.983
 2305POPC   GL230782   1.740  42.400   8.965
 2305POPC   C1A30783   2.284  42.451   8.643
 2305POPC   D2A30784   2.166  42.499   8.237
 2305POPC   C3A30785   1.913  42.144   8.110
 2305POPC   C4A30786   2.052  42.083   7.729
 2305POPC   C1B30787   1.759  42.333   8.565
 2305POPC   C2B30788   1.664  42.611   8.235
 2305POPC   C3B30789   1.843  42.571   7.832
 2305POPC   C4B30790   1.629  42.370   7.478
 2306POPC   NC330791   2.137  26.139   9.373
 2306POPC   PO430792   1.573  25.654   9.281
 2306POPC   GL130793   1.852  25.907   9.042
 2306POPC   GL230794   2.225  25.881   8.943
 2306POPC   C1A30795   1.901  26.247   8.759
 2306POPC   D2A30796   1.760  26.237   8.347
 2306POPC   C3A30797   2.008  26.381   8.050
 2306POPC   C4A30798   2.121  26.327   7.648
 2306POPC   C1B30799   2.004  25.599   8.661
 2306POPC   C2B30800   1.870  25.681   8.235
 2306POPC   C3B30801   2.126  25.859   7.902
 2306POPC   C4B30802   2.198  25.734   7.475
 2307POPC   NC330803  36.550  35.889   9.392
 2307POPC   PO430804  37.088  36.298   9.456
 2307POPC   GL130805  37.171  36.134   9.085
 2307POPC   GL230806  36.931  35.865   9.056
 2307POPC   C1A30807  37.119  36.150   8.675
 2307POPC   D2A30808  36.854  36.266   8.380
 2307POPC   C3A30809  36.972  36.111   8.028
 2307POPC   C4A30810  37.034  36.195   7.613
 2307POPC   C1B30811  36.612  36.002   8.742
 2307POPC   C2B30812  36.486  35.930   8.280
 2307POPC   C3B30813  36.717  35.715   7.890
 2307POPC   C4B30814  36.774  35.799   7.429
 2308POPC   NC330815  40.410  27.840   9.520
 2308POPC   PO430816  39.728  27.568   9.455
 2308POPC   GL130817  39.941  27.773   9.124
 2308POPC   GL230818  40.264  27.609   9.104
 2308POPC   C1A30819  39.919  27.588   8.715
 2308POPC   D2A30820  39.771  27.403   8.332
 2308POPC   C3A30821  39.778  27.702   8.007
 2308POPC   C4A30822  39.835  27.500   7.632
 2308POPC   C1B30823  40.360  27.831   8.733
 2308POPC   C2B30824  40.182  27.799   8.318
 2308POPC   C3B30825  40.245  27.507   7.963
 2308POPC   C4B30826  40.314  27.705   7.580
 2309POPC   NC330827   5.326  21.199   9.774
 2309POPC   PO430828   4.920  21.658   9.512
 2309POPC   GL130829   5.065  21.280   9.269
 2309POPC   GL230830   5.412  21.243   9.199
 2309POPC   C1A30831   5.073  21.044   8.857
 2309POPC   D2A30832   5.236  21.096   8.436
 2309POPC   C3A30833   4.938  21.209   8.113
 2309POPC   C4A30834   5.023  21.338   7.710
 2309POPC   C1B30835   5.281  21.488   8.814
 2309POPC   C2B30836   5.043  21.572   8.472
 2309POPC   C3B30837   5.068  21.715   8.060
 2309POPC   C4B30838   4.896  21.898   7.691
 2310POPC   NC330839  15.613  42.735   9.467
 2310POPC   PO430840  15.695  42.010   9.403
 2310POPC   GL130841  16.020  42.172   9.106
 2310POPC   GL230842  15.978  42.522   9.164
 2310POPC   C1A30843  16.115  42.243   8.673
 2310POPC   D2A30844  15.873  42.292   8.287
 2310POPC   C3A30845  16.106  42.293   7.911
 2310POPC   C4A30846  16.125  42.068   7.513
 2310POPC   C1B30847  15.683  42.506   8.779
 2310POPC   C2B30848  15.708  42.774   8.401
 2310POPC   C3B30849  15.613  42.670   7.930
 2310POPC   C4B30850  15.701  42.336   7.614
 2311POPC   NC330851  20.174  40.745   9.298
 2311POPC   PO430852  19.602  41.144   9.255
 2311POPC   GL130853  19.723  40.800   9.028
 2311POPC   GL230854  19.661  40.494   9.206
 2311POPC   C1A30855  19.964  40.836   8.641
 2311POPC   D2A30856  19.904  40.957   8.202
 2311POPC   C3A30857  20.147  40.787   7.872
 2311POPC   C4A30858  20.071  40.848   7.435
 2311POPC   C1B30859  19.758  40.372   8.748
 2311POPC   C2B30860  19.969  40.423   8.332
 2311POPC   C3B30861  19.819  40.390   7.916
 2311POPC   C4B30862  19.673  40.575   7.538
 2312POPC   NC330863   0.543  38.077   9.589
 2312POPC   PO430864   0.591  38.694   9.781
 2312POPC   GL130865   0.569  38.603   9.300
 2312POPC   GL230866   0.639  38.261   9.113
 2312POPC   C1A30867   0.436  38.668   8.867
 2312POPC   D2A30868   0.651  38.819   8.497
 2312POPC   C3A30869   0.409  38.857   8.107
 2312POPC   C4A30870   0.333  38.511   7.796
 2312POPC   C1B30871   0.379  38.175   8.710
 2312POPC   C2B30872   0.261  38.151   8.256
 2312POPC   C3B30873   0.343  37.946   7.833
 2312POPC   C4B30874   0.624  38.074   7.472
 2313POPC   NC330875  34.747  43.107   9.702
 2313POPC   PO430876  34.631  42.515   9.873
 2313POPC   GL130877  34.783  42.752   9.354
 2313POPC   GL230878  34.682  43.143   9.208
 2313POPC   C1A30879  34.832  42.836   8.831
 2313POPC   D2A30880  34.832  43.079   8.398
 2313POPC   C3A30881  34.530  43.026   8.077
 2313POPC   C4A30882  34.377  42.725   7.796
 2313POPC   C1B30883  34.831  43.376   8.805
 2313POPC   C2B30884  34.902  43.603   8.373
 2313POPC   C3B30885  34.860  43.406   7.952
 2313POPC   C4B30886  34.581  43.185   7.585
 2314POPC   NC330887   7.976  25.666   9.612
 2314POPC   PO430888   8.377  26.080   9.608
 2314POPC   GL130889   8.072  26.016   9.253
 2314POPC   GL230890   8.133  26.250   9.038
 2314POPC   C1A30891   7.957  25.793   8.831
 2314POPC   D2A30892   7.771  25.887   8.396
 2314POPC   C3A30893   8.019  25.963   8.001
 2314POPC   C4A30894   8.424  25.841   7.834
 2314POPC   C1B30895   8.113  26.238   8.586
 2314POPC   C2B30896   8.431  26.145   8.276
 2314POPC   C3B30897   8.670  26.313   7.935
 2314POPC   C4B30898   8.635  26.179   7.506
 2315POPC   NC330899  23.960  18.476   9.652
 2315POPC   PO430900  23.597  18.023   9.559
 2315POPC   GL130901  23.574  18.289   9.176
 2315POPC   GL230902  23.809  18.572   9.149
 2315POPC   C1A30903  23.478  18.116   8.772
 2315POPC   D2A30904  23.728  18.049   8.455
 2315POPC   C3A30905  23.589  18.305   8.094
 2315POPC   C4A30906  23.536  18.538   7.701
 2315POPC   C1B30907  23.756  18.511   8.684
 2315POPC   C2B30908  24.064  18.410   8.370
 2315POPC   C3B30909  24.053  18.192   7.981
 2315POPC   C4B30910  24.064  18.557   7.771
 2316POPC   NC330911  44.317   5.607   9.555
 2316POPC   PO430912  44.649   6.215   9.561
 2316POPC   GL130913  44.687   5.863   9.286
 2316POPC   GL230914  44.372   5.985   9.187
 2316POPC   C1A30915  44.576   5.646   8.869
 2316POPC   D2A30916  44.444   5.737   8.439
 2316POPC   C3A30917  44.804   5.562   8.201
 2316POPC   C4A30918   0.098   5.352   7.914
 2316POPC   C1B30919  44.663   6.140   8.846
 2316POPC   C2B30920  44.859   6.086   8.427
 2316POPC   C3B30921  44.623   6.067   8.060
 2316POPC   C4B30922  44.515   5.741   7.831
 2317POPC   NC330923  34.046   5.160   9.659
 2317POPC   PO430924  33.496   4.804   9.519
 2317POPC   GL130925  33.817   4.969   9.236
 2317POPC   GL230926  34.042   4.793   9.017
 2317POPC   C1A30927  33.938   5.303   8.953
 2317POPC   D2A30928  33.808   5.404   8.526
 2317POPC   C3A30929  34.064   5.277   8.194
 2317POPC   C4A30930  33.791   5.154   7.861
 2317POPC   C1B30931  33.983   4.914   8.591
 2317POPC   C2B30932  34.097   4.733   8.220
 2317POPC   C3B30933  33.908   4.646   7.841
 2317POPC   C4B30934  33.537   4.729   7.636
 2318POPC   NC330935  29.423  15.743   9.790
 2318POPC   PO430936  29.690  15.246   9.422
 2318POPC   GL130937  29.775  15.137   9.054
 2318POPC   GL230938  30.102  15.081   9.016
 2318POPC   C1A30939  29.663  15.339   8.713
 2318POPC   D2A30940  29.758  15.538   8.369
 2318POPC   C3A30941  29.624  15.330   8.028
 2318POPC   C4A30942  29.546  15.180   7.655
 2318POPC   C1B30943  29.985  14.924   8.623
 2318POPC   C2B30944  29.977  15.003   8.191
 2318POPC   C3B30945  29.891  14.825   7.810
 2318POPC   C4B30946  30.021  14.842   7.391
 2319POPC   NC330947  18.913   4.007   9.429
 2319POPC   PO430948  19.335   4.594   9.456
 2319POPC   GL130949  19.111   4.610   9.106
 2319POPC   GL230950  19.164   4.253   9.071
 2319POPC   C1A30951  19.238   4.560   8.692
 2319POPC   D2A30952  19.147   4.312   8.385
 2319POPC   C3A30953  19.291   4.547   8.045
 2319POPC   C4A30954  19.092   4.368   7.750
 2319POPC   C1B30955  18.778   4.272   8.818
 2319POPC   C2B30956  18.614   4.054   8.457
 2319POPC   C3B30957  18.768   4.066   8.038
 2319POPC   C4B30958  18.603   4.278   7.695
 2320POPC   NC330959  29.846  13.890   9.478
 2320POPC   PO430960  30.140  13.299   9.773
 2320POPC   GL130961  29.999  13.386   9.295
 2320POPC   GL230962  29.826  13.654   9.043
 2320POPC   C1A30963  29.890  13.206   8.865
 2320POPC   D2A30964  29.872  13.456   8.525
 2320POPC   C3A30965  29.944  13.319   8.126
 2320POPC   C4A30966  29.909  13.593   7.799
 2320POPC   C1B30967  29.993  13.935   8.696
 2320POPC   C2B30968  30.030  13.890   8.224
 2320POPC   C3B30969  30.160  14.022   7.777
 2320POPC   C4B30970  30.053  13.977   7.281
 2321POPC   NC330971  31.115   4.991   9.597
 2321POPC   PO430972  30.567   5.219   9.489
 2321POPC   GL130973  30.673   5.259   9.078
 2321POPC   GL230974  31.005   5.283   9.173
 2321POPC   C1A30975  30.533   5.123   8.621
 2321POPC   D2A30976  30.468   4.900   8.175
 2321POPC   C3A30977  30.466   5.166   7.742
 2321POPC   C4A30978  30.479   5.316   7.256
 2321POPC   C1B30979  30.951   4.921   8.842
 2321POPC   C2B30980  31.019   5.083   8.415
 2321POPC   C3B30981  30.906   5.103   8.000
 2321POPC   C4B30982  30.853   4.813   7.681
 2322POPC   NC330983  26.614   5.053   9.513
 2322POPC   PO430984  27.196   5.364   9.527
 2322POPC   GL130985  26.975   5.266   9.173
 2322POPC   GL230986  27.018   5.574   9.037
 2322POPC   C1A30987  26.861   4.988   8.838
 2322POPC   D2A30988  26.990   4.861   8.443
 2322POPC   C3A30989  26.735   4.962   8.099
 2322POPC   C4A30990  26.651   4.998   7.701
 2322POPC   C1B30991  26.628   5.448   8.814
 2322POPC   C2B30992  26.734   5.337   8.417
 2322POPC   C3B30993  26.682   5.465   7.996
 2322POPC   C4B30994  26.962   5.431   7.692
 2323POPC   NC330995  42.577   5.847   9.443
 2323POPC   PO430996  41.846   6.097   9.551
 2323POPC   GL130997  42.003   5.907   9.130
 2323POPC   GL230998  42.349   5.798   9.020
 2323POPC   C1A30999  42.006   5.706   8.709
 2323POPC   D2A31000  42.358   5.608   8.484
 2323POPC   C3A31001  42.227   5.503   8.081
 2323POPC   C4A31002  42.302   5.763   7.754
 2323POPC   C1B31003  42.490   6.063   8.697
 2323POPC   C2B31004  42.586   6.266   8.296
 2323POPC   C3B31005  42.634   6.137   7.884
 2323POPC   C4B31006  42.811   5.708   7.883
 2324POPC   NC331007  40.482   8.406   9.481
 2324POPC   PO431008  39.759   8.390   9.473
 2324POPC   GL131009  40.080   8.329   9.138
 2324POPC   GL231010  40.265   8.623   9.090
 2324POPC   C1A31011  40.113   8.159   8.701
 2324POPC   D2A31012  40.266   7.953   8.333
 2324POPC   C3A31013  40.188   8.071   7.904
 2324POPC   C4A31014  39.865   8.220   7.606
 2324POPC   C1B31015  39.988   8.650   8.738
 2324POPC   C2B31016  39.900   8.536   8.327
 2324POPC   C3B31017  39.868   8.641   7.919
 2324POPC   C4B31018  39.524   8.616   7.652
 2325POPC   NC331019  25.709   5.380   9.420
 2325POPC   PO431020  25.847   4.753   9.743
 2325POPC   GL131021  25.978   4.911   9.304
 2325POPC   GL231022  25.893   4.642   9.054
 2325POPC   C1A31023  26.296   4.996   8.950
 2325POPC   D2A31024  26.430   4.943   8.524
 2325POPC   C3A31025  26.258   5.260   8.236
 2325POPC   C4A31026  26.232   5.271   7.787
 2325POPC   C1B31027  25.804   5.063   8.831
 2325POPC   C2B31028  25.744   5.167   8.412
 2325POPC   C3B31029  25.839   5.057   8.016
 2325POPC   C4B31030  25.711   5.192   7.630
 2326POPC   NC331031  11.784  11.454   9.641
 2326POPC   PO431032  12.358  11.067   9.549
 2326POPC   GL131033  12.224  11.233   9.177
 2326POPC   GL231034  12.089  11.564   9.222
 2326POPC   C1A31035  12.142  11.030   8.776
 2326POPC   D2A31036  12.304  11.082   8.372
 2326POPC   C3A31037  12.083  11.248   8.088
 2326POPC   C4A31038  12.229  11.173   7.748
 2326POPC   C1B31039  11.935  11.481   8.833
 2326POPC   C2B31040  11.800  11.493   8.437
 2326POPC   C3B31041  11.821  11.688   8.040
 2326POPC   C4B31042  11.779  11.442   7.666
 2327POPC   NC331043  16.002   1.727   9.571
 2327POPC   PO431044  15.449   2.006   9.469
 2327POPC   GL131045  15.779   1.981   9.146
 2327POPC   GL231046  16.134   1.983   9.127
 2327POPC   C1A31047  15.866   2.115   8.729
 2327POPC   D2A31048  15.701   1.940   8.381
 2327POPC   C3A31049  15.797   2.127   8.014
 2327POPC   C4A31050  15.693   1.885   7.673
 2327POPC   C1B31051  16.276   1.814   8.710
 2327POPC   C2B31052  16.222   1.976   8.307
 2327POPC   C3B31053  16.207   1.862   7.881
 2327POPC   C4B31054  16.147   1.912   7.420
 2328POPC   NC331055  10.593  29.557   9.411
 2328POPC   PO431056  10.331  30.129   9.339
 2328POPC   GL131057  10.550  29.992   9.044
 2328POPC   GL231058  10.915  30.124   9.020
 2328POPC   C1A31059  10.369  29.751   8.702
 2328POPC   D2A31060  10.496  29.585   8.307
 2328POPC   C3A31061  10.245  29.791   7.989
 2328POPC   C4A31062  10.311  29.581   7.628
 2328POPC   C1B31063  10.862  29.804   8.704
 2328POPC   C2B31064  10.672  30.053   8.363
 2328POPC   C3B31065  10.714  29.948   7.944
 2328POPC   C4B31066  10.534  30.033   7.541
 2329POPC   NC331067  24.580  34.960   9.282
 2329POPC   PO431068  24.432  34.371   9.566
 2329POPC   GL131069  24.746  34.441   9.208
 2329POPC   GL231070  24.512  34.570   8.975
 2329POPC   C1A31071  24.862  34.316   8.743
 2329POPC   D2A31072  24.474  34.383   8.481
 2329POPC   C3A31073  24.496  34.472   8.039
 2329POPC   C4A31074  24.718  34.664   7.699
 2329POPC   C1B31075  24.479  34.868   8.654
 2329POPC   C2B31076  24.684  34.869   8.325
 2329POPC   C3B31077  24.428  34.972   8.049
 2329POPC   C4B31078  24.240  34.802   7.715
 2330POPC   NC331079   5.468  39.099   9.571
 2330POPC   PO431080   4.909  39.092   9.954
 2330POPC   GL131081   4.963  39.147   9.358
 2330POPC   GL231082   5.255  39.260   9.130
 2330POPC   C1A31083   4.882  38.985   8.935
 2330POPC   D2A31084   5.175  39.094   8.606
 2330POPC   C3A31085   5.173  39.037   8.164
 2330POPC   C4A31086   4.955  39.021   7.813
 2330POPC   C1B31087   5.439  39.507   8.750
 2330POPC   C2B31088   5.401  39.499   8.255
 2330POPC   C3B31089   5.175  39.492   7.818
 2330POPC   C4B31090   5.244  39.644   7.368
 2331POPC   NC331091  43.033  39.462   9.494
 2331POPC   PO431092  43.677  39.171   9.561
 2331POPC   GL131093  43.422  39.327   9.224
 2331POPC   GL231094  43.183  39.043   9.184
 2331POPC   C1A31095  43.323  39.406   8.789
 2331POPC   D2A31096  43.090  39.251   8.438
 2331POPC   C3A31097  43.142  39.411   8.063
 2331POPC   C4A31098  43.063  39.342   7.693
 2331POPC   C1B31099  43.032  38.865   8.786
 2331POPC   C2B31100  43.034  38.709   8.353
 2331POPC   C3B31101  43.013  38.844   7.906
 2331POPC   C4B31102  43.144  38.775   7.458
 2332POPC   NC331103  28.960  13.892   9.360
 2332POPC   PO431104  28.754  14.473   9.594
 2332POPC   GL131105  29.026  14.402   9.245
 2332POPC   GL231106  28.827  14.222   8.964
 2332POPC   C1A31107  29.319  14.354   8.899
 2332POPC   D2A31108  29.288  14.496   8.463
 2332POPC   C3A31109  29.176  14.294   8.088
 2332POPC   C4A31110  29.338  14.348   7.688
 2332POPC   C1B31111  28.931  14.696   8.840
 2332POPC   C2B31112  28.993  14.901   8.453
 2332POPC   C3B31113  28.883  14.732   8.075
 2332POPC   C4B31114  28.833  14.479   7.721
 2333POPC   NC331115  31.392  44.779   9.719
 2333POPC   PO431116  31.439  44.255   9.572
 2333POPC   GL131117  31.528  44.548   9.190
 2333POPC   GL231118  31.370  44.873   9.160
 2333POPC   C1A31119  31.617  44.630   8.709
 2333POPC   D2A31120  31.695  44.363   8.315
 2333POPC   C3A31121  31.522  44.524   7.914
 2333POPC   C4A31122  31.685  44.811   7.598
 2333POPC   C1B31123  31.270   0.035   8.716
 2333POPC   C2B31124  31.111   0.078   8.277
 2333POPC   C3B31125  31.250  44.978   7.860
 2333POPC   C4B31126  31.056  44.656   7.611
 2334POPC   NC331127  20.306  37.558   9.538
 2334POPC   PO431128  19.599  37.792   9.554
 2334POPC   GL131129  19.827  37.604   9.249
 2334POPC   GL231130  20.079  37.819   9.177
 2334POPC   C1A31131  19.770  37.562   8.794
 2334POPC   D2A31132  19.804  37.748   8.362
 2334POPC   C3A31133  20.049  37.518   8.062
 2334POPC   C4A31134  19.812  37.216   7.820
 2334POPC   C1B31135  20.278  37.592   8.850
 2334POPC   C2B31136  20.372  37.834   8.496
 2334POPC   C3B31137  20.181  38.019   8.139
 2334POPC   C4B31138  20.255  37.991   7.707
 2335POPC   NC331139  40.289  29.407   9.620
 2335POPC   PO431140  40.754  28.890   9.458
 2335POPC   GL131141  40.708  29.059   9.083
 2335POPC   GL231142  40.527  29.334   9.152
 2335POPC   C1A31143  40.880  29.231   8.675
 2335POPC   D2A31144  40.988  29.360   8.241
 2335POPC   C3A31145  41.053  28.982   7.942
 2335POPC   C4A31146  40.991  28.921   7.468
 2335POPC   C1B31147  40.380  29.203   8.732
 2335POPC   C2B31148  40.380  29.318   8.327
 2335POPC   C3B31149  40.577  29.163   7.986
 2335POPC   C4B31150  40.823  29.375   7.697
 2336POPC   NC331151  37.023  40.579   9.650
 2336POPC   PO431152  37.323  41.219   9.528
 2336POPC   GL131153  37.075  40.935   9.248
 2336POPC   GL231154  36.735  41.047   9.101
 2336POPC   C1A31155  37.022  40.642   8.914
 2336POPC   D2A31156  37.075  40.548   8.438
 2336POPC   C3A31157  36.781  40.749   8.149
 2336POPC   C4A31158  36.803  40.739   7.694
 2336POPC   C1B31159  36.886  41.064   8.677
 2336POPC   C2B31160  37.156  41.048   8.328
 2336POPC   C3B31161  36.955  41.170   7.937
 2336POPC   C4B31162  36.502  41.199   7.883
 2337POPC   NC331163  37.043  21.941   9.424
 2337POPC   PO431164  36.708  22.513   9.353
 2337POPC   GL131165  36.895  22.258   9.017
 2337POPC   GL231166  36.907  21.856   8.956
 2337POPC   C1A31167  36.858  22.188   8.572
 2337POPC   D2A31168  36.969  21.788   8.440
 2337POPC   C3A31169  37.117  21.826   8.034
 2337POPC   C4A31170  36.943  22.203   7.826
 2337POPC   C1B31171  36.501  21.897   8.803
 2337POPC   C2B31172  36.359  21.859   8.357
 2337POPC   C3B31173  36.529  22.187   8.132
 2337POPC   C4B31174  36.528  22.601   7.985
 2338POPC   NC331175  41.797  29.777   9.567
 2338POPC   PO431176  42.020  30.229   9.136
 2338POPC   GL131177  41.903  29.783   9.057
 2338POPC   GL231178  41.544  29.715   9.114
 2338POPC   C1A31179  41.736  29.826   8.650
 2338POPC   D2A31180  41.882  30.161   8.391
 2338POPC   C3A31181  41.731  30.110   8.011
 2338POPC   C4A31182  41.677  29.768   7.759
 2338POPC   C1B31183  41.384  30.078   8.911
 2338POPC   C2B31184  41.357  30.160   8.456
 2338POPC   C3B31185  41.350  30.424   8.078
 2338POPC   C4B31186  41.317  30.153   7.695
 2339POPC   NC331187  39.742  31.082   9.548
 2339POPC   PO431188  40.214  30.546   9.548
 2339POPC   GL131189  40.103  30.846   9.238
 2339POPC   GL231190  39.772  30.765   9.087
 2339POPC   C1A31191  40.094  30.977   8.805
 2339POPC   D2A31192  40.016  30.719   8.455
 2339POPC   C3A31193  39.865  30.875   8.076
 2339POPC   C4A31194  40.095  30.839   7.681
 2339POPC   C1B31195  39.590  30.516   8.737
 2339POPC   C2B31196  39.635  30.419   8.276
 2339POPC   C3B31197  39.909  30.376   7.886
 2339POPC   C4B31198  39.832  30.459   7.400
 2340POPC   NC331199   4.644  31.186   9.436
 2340POPC   PO431200   5.228  30.882   9.448
 2340POPC   GL131201   5.227  30.685   9.037
 2340POPC   GL231202   5.313  31.023   8.927
 2340POPC   C1A31203   5.272  30.639   8.583
 2340POPC   D2A31204   5.145  30.939   8.273
 2340POPC   C3A31205   4.987  30.699   7.932
 2340POPC   C4A31206   5.187  30.582   7.588
 2340POPC   C1B31207   4.868  30.957   8.737
 2340POPC   C2B31208   4.633  31.014   8.328
 2340POPC   C3B31209   4.816  31.148   7.916
 2340POPC   C4B31210   4.880  30.987   7.467
 2341POPC   NC331211  40.035  41.183   9.214
 2341POPC   PO431212  39.787  40.664   9.576
 2341POPC   GL131213  40.009  40.539   9.152
 2341POPC   GL231214  40.169  40.769   8.937
 2341POPC   C1A31215  39.932  40.407   8.700
 2341POPC   D2A31216  39.701  40.519   8.342
 2341POPC   C3A31217  39.950  40.515   7.960
 2341POPC   C4A31218  39.986  40.820   7.640
 2341POPC   C1B31219  40.099  40.909   8.520
 2341POPC   C2B31220  40.340  40.940   8.158
 2341POPC   C3B31221  40.418  41.169   7.815
 2341POPC   C4B31222  40.354  41.085   7.401
 2342POPC   NC331223  16.264   1.107   9.419
 2342POPC   PO431224  15.697   1.385   9.636
 2342POPC   GL131225  15.747   1.460   9.203
 2342POPC   GL231226  15.796   1.117   9.095
 2342POPC   C1A31227  15.823   1.552   8.760
 2342POPC   D2A31228  15.951   1.299   8.372
 2342POPC   C3A31229  15.775   1.153   7.978
 2342POPC   C4A31230  15.985   1.446   7.690
 2342POPC   C1B31231  16.134   1.074   8.786
 2342POPC   C2B31232  16.281   0.851   8.416
 2342POPC   C3B31233  16.270   1.023   8.017
 2342POPC   C4B31234  16.338   1.119   7.575
 2343POPC   NC331235  29.779  41.087   9.474
 2343POPC   PO431236  29.935  40.500   9.738
 2343POPC   GL131237  29.869  40.652   9.251
 2343POPC   GL231238  29.586  40.571   9.059
 2343POPC   C1A31239  29.966  40.836   8.830
 2343POPC   D2A31240  30.172  41.034   8.463
 2343POPC   C3A31241  30.021  40.977   8.026
 2343POPC   C4A31242  30.124  40.691   7.751
 2343POPC   C1B31243  29.488  40.691   8.680
 2343POPC   C2B31244  29.764  40.699   8.366
 2343POPC   C3B31245  29.672  40.586   7.979
 2343POPC   C4B31246  29.508  40.835   7.705
 2344POPC   NC331247   4.547  32.800   9.379
 2344POPC   PO431248   4.093  32.334   9.648
 2344POPC   GL131249   4.306  32.257   9.227
 2344POPC   GL231250   4.273  32.553   9.064
 2344POPC   C1A31251   4.123  32.187   8.777
 2344POPC   D2A31252   3.966  32.064   8.365
 2344POPC   C3A31253   4.215  32.028   8.002
 2344POPC   C4A31254   4.326  32.213   7.577
 2344POPC   C1B31255   4.589  32.390   8.787
 2344POPC   C2B31256   4.424  32.347   8.380
 2344POPC   C3B31257   4.593  32.379   7.991
 2344POPC   C4B31258   4.687  32.589   7.629
 2345POPC   NC331259  18.635   8.017   9.533
 2345POPC   PO431260  19.305   8.222   9.565
 2345POPC   GL131261  19.213   8.010   9.193
 2345POPC   GL231262  18.917   8.096   9.118
 2345POPC   C1A31263  19.211   7.880   8.754
 2345POPC   D2A31264  19.254   7.764   8.323
 2345POPC   C3A31265  19.121   8.010   7.967
 2345POPC   C4A31266  19.437   7.897   7.672
 2345POPC   C1B31267  18.854   8.282   8.731
 2345POPC   C2B31268  19.103   8.364   8.353
 2345POPC   C3B31269  18.985   8.530   7.944
 2345POPC   C4B31270  18.578   8.545   7.737
 2346POPC   NC331271  38.907  32.049   9.567
 2346POPC   PO431272  39.535  32.131   9.457
 2346POPC   GL131273  39.362  32.314   9.108
 2346POPC   GL231274  39.274  32.684   9.111
 2346POPC   C1A31275  39.167  32.137   8.769
 2346POPC   D2A31276  38.778  32.160   8.515
 2346POPC   C3A31277  38.851  32.125   8.073
 2346POPC   C4A31278  38.989  32.292   7.695
 2346POPC   C1B31279  39.344  32.616   8.667
 2346POPC   C2B31280  39.276  32.317   8.313
 2346POPC   C3B31281  39.434  32.196   7.920
 2346POPC   C4B31282  39.477  32.484   7.605
 2347POPC   NC331283  33.946   4.470   9.390
 2347POPC   PO431284  33.531   3.928   9.592
 2347POPC   GL131285  33.556   4.113   9.172
 2347POPC   GL231286  33.525   4.487   9.110
 2347POPC   C1A31287  33.716   4.047   8.741
 2347POPC   D2A31288  33.952   4.247   8.392
 2347POPC   C3A31289  34.063   4.020   8.014
 2347POPC   C4A31290  33.951   4.003   7.564
 2347POPC   C1B31291  33.639   4.552   8.683
 2347POPC   C2B31292  33.576   4.578   8.232
 2347POPC   C3B31293  33.597   4.251   7.923
 2347POPC   C4B31294  33.490   4.240   7.499
 2348POPC   NC331295  18.070  40.806   9.456
 2348POPC   PO431296  18.715  40.711   9.415
 2348POPC   GL131297  18.422  40.627   9.099
 2348POPC   GL231298  18.392  40.982   9.064
 2348POPC   C1A31299  18.360  40.497   8.658
 2348POPC   D2A31300  18.488  40.773   8.280
 2348POPC   C3A31301  18.325  40.603   7.918
 2348POPC   C4A31302  18.318  40.502   7.484
 2348POPC   C1B31303  18.228  40.981   8.662
 2348POPC   C2B31304  18.121  41.130   8.262
 2348POPC   C3B31305  18.245  41.083   7.868
 2348POPC   C4B31306  18.131  40.956   7.436
 2349POPC   NC331307   2.886  18.666   9.358
 2349POPC   PO431308   2.575  19.359   9.491
 2349POPC   GL131309   2.644  19.107   9.179
 2349POPC   GL231310   2.965  19.168   9.074
 2349POPC   C1A31311   2.573  18.890   8.808
 2349POPC   D2A31312   2.657  18.722   8.443
 2349POPC   C3A31313   2.703  18.952   8.109
 2349POPC   C4A31314   2.945  18.792   7.798
 2349POPC   C1B31315   3.077  18.851   8.746
 2349POPC   C2B31316   3.190  18.802   8.307
 2349POPC   C3B31317   3.152  19.185   8.091
 2349POPC   C4B31318   3.110  19.275   7.660
 2350POPC   NC331319  32.243   9.555   9.318
 2350POPC   PO431320  31.762   9.977   9.531
 2350POPC   GL131321  31.982   9.943   9.125
 2350POPC   GL231322  32.388  10.016   9.131
 2350POPC   C1A31323  32.135   9.879   8.697
 2350POPC   D2A31324  32.380  10.014   8.342
 2350POPC   C3A31325  32.208   9.930   7.951
 2350POPC   C4A31326  31.993   9.796   7.568
 2350POPC   C1B31327  32.644   9.780   8.778
 2350POPC   C2B31328  32.574   9.538   8.386
 2350POPC   C3B31329  32.560   9.567   7.950
 2350POPC   C4B31330  32.418   9.380   7.568
 2351POPC   NC331331  16.131  41.804   9.440
 2351POPC   PO431332  15.866  41.127   9.494
 2351POPC   GL131333  15.830  41.488   9.175
 2351POPC   GL231334  16.151  41.375   9.150
 2351POPC   C1A31335  15.979  41.752   8.782
 2351POPC   D2A31336  16.203  41.764   8.357
 2351POPC   C3A31337  15.978  41.798   7.938
 2351POPC   C4A31338  15.749  41.696   7.511
 2351POPC   C1B31339  15.959  41.252   8.731
 2351POPC   C2B31340  16.046  41.250   8.283
 2351POPC   C3B31341  15.946  41.302   7.838
 2351POPC   C4B31342  16.023  41.163   7.411
 2352POPC   NC331343  10.726   6.108   9.326
 2352POPC   PO431344  10.102   5.829   9.539
 2352POPC   GL131345  10.236   5.695   9.122
 2352POPC   GL231346  10.604   5.715   8.998
 2352POPC   C1A31347  10.219   5.766   8.644
 2352POPC   D2A31348  10.526   5.798   8.271
 2352POPC   C3A31349  10.451   5.826   7.805
 2352POPC   C4A31350  10.353   5.539   7.415
 2352POPC   C1B31351  10.672   6.049   8.698
 2352POPC   C2B31352  10.914   6.229   8.406
 2352POPC   C3B31353  10.661   6.278   8.063
 2352POPC   C4B31354  10.767   6.248   7.671
 2353POPC   NC331355  28.447  21.770   9.507
 2353POPC   PO431356  28.084  22.260   9.671
 2353POPC   GL131357  28.365  22.174   9.213
 2353POPC   GL231358  28.681  22.107   9.205
 2353POPC   C1A31359  28.351  22.232   8.720
 2353POPC   D2A31360  28.190  22.021   8.336
 2353POPC   C3A31361  28.224  22.145   7.910
 2353POPC   C4A31362  28.290  22.128   7.464
 2353POPC   C1B31363  28.810  22.027   8.796
 2353POPC   C2B31364  28.695  21.867   8.376
 2353POPC   C3B31365  28.856  21.970   7.962
 2353POPC   C4B31366  28.877  22.360   7.687
 2354POPC   NC331367  14.622  22.715   9.354
 2354POPC   PO431368  14.353  23.310   9.545
 2354POPC   GL131369  14.254  23.197   9.134
 2354POPC   GL231370  14.205  22.829   9.072
 2354POPC   C1A31371  14.343  23.130   8.698
 2354POPC   D2A31372  14.515  23.038   8.349
 2354POPC   C3A31373  14.259  23.048   8.020
 2354POPC   C4A31374  14.339  22.871   7.644
 2354POPC   C1B31375  14.042  22.704   8.655
 2354POPC   C2B31376  13.885  22.719   8.217
 2354POPC   C3B31377  13.938  22.593   7.764
 2354POPC   C4B31378  14.064  22.623   7.309
 2355POPC   NC331379  28.122  29.362   9.560
 2355POPC   PO431380  28.685  29.042   9.372
 2355POPC   GL131381  28.317  29.102   9.164
 2355POPC   GL231382  28.348  29.455   9.108
 2355POPC   C1A31383  28.137  29.109   8.776
 2355POPC   D2A31384  28.411  29.112   8.443
 2355POPC   C3A31385  28.155  29.110   8.098
 2355POPC   C4A31386  27.952  29.197   7.725
 2355POPC   C1B31387  28.476  29.589   8.684
 2355POPC   C2B31388  28.465  29.555   8.190
 2355POPC   C3B31389  28.443  29.377   7.764
 2355POPC   C4B31390  28.677  29.312   7.354
 2356POPC   NC331391  42.101  31.417   9.451
 2356POPC   PO431392  42.443  31.982   9.534
 2356POPC   GL131393  42.451  31.702   9.171
 2356POPC   GL231394  42.748  31.467   9.182
 2356POPC   C1A31395  42.421  31.510   8.759
 2356POPC   D2A31396  42.566  31.651   8.359
 2356POPC   C3A31397  42.300  31.679   8.017
 2356POPC   C4A31398  42.210  31.438   7.682
 2356POPC   C1B31399  42.931  31.311   8.763
 2356POPC   C2B31400  42.936  31.254   8.296
 2356POPC   C3B31401  42.634  31.252   7.957
 2356POPC   C4B31402  42.642  31.252   7.469
 2357POPC   NC331403   6.345  35.203   9.339
 2357POPC   PO431404   6.391  34.642   9.675
 2357POPC   GL131405   6.527  34.712   9.211
 2357POPC   GL231406   6.666  35.018   9.010
 2357POPC   C1A31407   6.656  34.522   8.800
 2357POPC   D2A31408   6.850  34.459   8.394
 2357POPC   C3A31409   6.794  34.724   8.035
 2357POPC   C4A31410   6.630  34.514   7.712
 2357POPC   C1B31411   6.306  34.878   8.760
 2357POPC   C2B31412   6.381  34.747   8.359
 2357POPC   C3B31413   6.312  34.886   7.967
 2357POPC   C4B31414   6.308  34.861   7.537
 2358POPC   NC331415  38.658  44.190   9.442
 2358POPC   PO431416  38.207  43.666   9.418
 2358POPC   GL131417  38.564  43.747   9.148
 2358POPC   GL231418  38.942  43.733   9.093
 2358POPC   C1A31419  38.507  43.955   8.778
 2358POPC   D2A31420  38.259  43.886   8.440
 2358POPC   C3A31421  38.371  44.057   8.067
 2358POPC   C4A31422  38.245  43.907   7.660
 2358POPC   C1B31423  39.005  44.018   8.691
 2358POPC   C2B31424  38.880  44.014   8.231
 2358POPC   C3B31425  38.738  43.789   7.854
 2358POPC   C4B31426  38.710  43.875   7.421
 2359POPC   NC331427  22.964  38.152   9.561
 2359POPC   PO431428  22.718  38.790   9.519
 2359POPC   GL131429  22.910  38.597   9.171
 2359POPC   GL231430  22.944  38.268   9.082
 2359POPC   C1A31431  23.029  38.705   8.770
 2359POPC   D2A31432  22.833  38.541   8.421
 2359POPC   C3A31433  22.964  38.618   8.037
 2359POPC   C4A31434  22.758  38.533   7.681
 2359POPC   C1B31435  23.127  38.206   8.705
 2359POPC   C2B31436  23.267  38.234   8.283
 2359POPC   C3B31437  23.152  38.171   7.840
 2359POPC   C4B31438  23.239  38.057   7.417
 2360POPC   NC331439  25.186  28.491   9.577
 2360POPC   PO431440  25.735  28.394   9.383
 2360POPC   GL131441  25.470  28.480   9.036
 2360POPC   GL231442  25.073  28.495   9.061
 2360POPC   C1A31443  25.530  28.452   8.593
 2360POPC   D2A31444  25.339  28.198   8.289
 2360POPC   C3A31445  25.246  28.458   7.948
 2360POPC   C4A31446  25.338  28.324   7.526
 2360POPC   C1B31447  25.068  28.222   8.722
 2360POPC   C2B31448  24.809  28.123   8.383
 2360POPC   C3B31449  24.895  28.106   7.962
 2360POPC   C4B31450  24.842  28.393   7.621
 2361POPC   NC331451  32.250  27.931   9.783
 2361POPC   PO431452  32.388  28.500   9.397
 2361POPC   GL131453  32.315  28.462   9.014
 2361POPC   GL231454  32.001  28.362   9.041
 2361POPC   C1A31455  32.481  28.330   8.670
 2361POPC   D2A31456  32.476  28.546   8.312
 2361POPC   C3A31457  32.416  28.248   7.983
 2361POPC   C4A31458  32.606  28.233   7.598
 2361POPC   C1B31459  31.853  28.699   8.754
 2361POPC   C2B31460  31.949  28.885   8.330
 2361POPC   C3B31461  32.109  28.672   7.954
 2361POPC   C4B31462  32.099  28.416   7.554
 2362POPC   NC331463   3.243  35.833   9.347
 2362POPC   PO431464   2.786  36.282   9.588
 2362POPC   GL131465   2.838  36.141   9.191
 2362POPC   GL231466   3.151  36.339   9.232
 2362POPC   C1A31467   2.786  35.887   8.799
 2362POPC   D2A31468   2.485  35.841   8.431
 2362POPC   C3A31469   2.616  35.984   8.008
 2362POPC   C4A31470   2.827  35.859   7.626
 2362POPC   C1B31471   3.094  36.322   8.792
 2362POPC   C2B31472   2.925  36.180   8.400
 2362POPC   C3B31473   2.995  36.334   8.001
 2362POPC   C4B31474   3.175  36.252   7.645
 2363POPC   NC331475  42.573   3.359   9.469
 2363POPC   PO431476  41.987   3.773   9.432
 2363POPC   GL131477  42.273   3.607   9.132
 2363POPC   GL231478  42.185   3.247   9.149
 2363POPC   C1A31479  42.619   3.520   8.818
 2363POPC   D2A31480  42.856   3.511   8.403
 2363POPC   C3A31481  42.758   3.609   7.928
 2363POPC   C4A31482  42.530   3.553   7.538
 2363POPC   C1B31483  42.101   3.336   8.730
 2363POPC   C2B31484  42.350   3.381   8.392
 2363POPC   C3B31485  42.282   3.447   7.993
 2363POPC   C4B31486  42.231   3.170   7.680
 2364POPC   NC331487  27.022   9.271   9.531
 2364POPC   PO431488  26.529   8.828   9.373
 2364POPC   GL131489  26.632   8.956   8.997
 2364POPC   GL231490  26.952   9.073   9.054
 2364POPC   C1A31491  26.748   8.896   8.565
 2364POPC   D2A31492  26.610   9.211   8.288
 2364POPC   C3A31493  26.499   9.057   7.895
 2364POPC   C4A31494  26.804   8.953   7.558
 2364POPC   C1B31495  26.986   9.328   8.656
 2364POPC   C2B31496  27.255   9.318   8.290
 2364POPC   C3B31497  27.159   9.002   7.970
 2364POPC   C4B31498  27.131   8.606   7.772
 2365POPC   NC331499  40.795  17.143   9.437
 2365POPC   PO431500  40.948  16.433   9.342
 2365POPC   GL131501  40.769  16.761   9.084
 2365POPC   GL231502  41.026  17.025   9.018
 2365POPC   C1A31503  40.670  16.683   8.675
 2365POPC   D2A31504  40.892  16.429   8.375
 2365POPC   C3A31505  40.694  16.483   8.012
 2365POPC   C4A31506  40.771  16.791   7.737
 2365POPC   C1B31507  41.209  16.798   8.706
 2365POPC   C2B31508  41.333  16.952   8.330
 2365POPC   C3B31509  41.176  16.735   8.038
 2365POPC   C4B31510  41.250  16.663   7.645
 2366POPC   NC331511  13.288  23.552   9.443
 2366POPC   PO431512  12.668  23.615   9.574
 2366POPC   GL131513  12.862  23.691   9.170
 2366POPC   GL231514  13.147  23.902   9.068
 2366POPC   C1A31515  12.922  23.561   8.762
 2366POPC   D2A31516  12.607  23.645   8.481
 2366POPC   C3A31517  12.719  23.654   8.049
 2366POPC   C4A31518  12.849  23.405   7.660
 2366POPC   C1B31519  13.331  23.845   8.699
 2366POPC   C2B31520  13.093  23.831   8.363
 2366POPC   C3B31521  13.060  24.015   8.006
 2366POPC   C4B31522  13.238  23.805   7.709
 2367POPC   NC331523   0.317   8.551   9.425
 2367POPC   PO431524   0.593   7.925   9.425
 2367POPC   GL131525   0.216   8.124   9.122
 2367POPC   GL231526  44.907   8.349   9.217
 2367POPC   C1A31527   0.168   7.959   8.690
 2367POPC   D2A31528   0.547   7.928   8.419
 2367POPC   C3A31529   0.682   8.254   8.139
 2367POPC   C4A31530   0.630   8.084   7.739
 2367POPC   C1B31531  44.948   8.425   8.756
 2367POPC   C2B31532   0.207   8.376   8.362
 2367POPC   C3B31533   0.234   8.370   7.898
 2367POPC   C4B31534   0.287   8.428   7.447
 2368POPC   NC331535  25.810  12.356   9.545
 2368POPC   PO431536  26.349  11.921   9.364
 2368POPC   GL131537  26.164  12.089   9.010
 2368POPC   GL231538  25.831  11.969   8.941
 2368POPC   C1A31539  26.204  12.149   8.566
 2368POPC   D2A31540  26.122  12.453   8.227
 2368POPC   C3A31541  26.130  12.307   7.809
 2368POPC   C4A31542  25.945  12.037   7.481
 2368POPC   C1B31543  25.549  11.998   8.604
 2368POPC   C2B31544  25.810  12.028   8.254
 2368POPC   C3B31545  25.893  11.761   7.944
 2368POPC   C4B31546  25.587  11.695   7.661
 2369POPC   NC331547  25.730  35.890   9.779
 2369POPC   PO431548  25.766  36.210   9.211
 2369POPC   GL131549  25.844  35.990   8.878
 2369POPC   GL231550  26.179  35.991   8.940
 2369POPC   C1A31551  25.869  35.763   8.514
 2369POPC   D2A31552  26.147  35.972   8.268
 2369POPC   C3A31553  25.986  36.158   7.923
 2369POPC   C4A31554  25.661  36.353   7.744
 2369POPC   C1B31555  26.471  35.876   8.657
 2369POPC   C2B31556  26.610  35.770   8.247
 2369POPC   C3B31557  26.413  35.880   7.837
 2369POPC   C4B31558  26.236  36.180   7.490
 2370POPC   NC331559  14.662   8.286   9.416
 2370POPC   PO431560  14.010   8.063   9.386
 2370POPC   GL131561  14.316   8.151   9.075
 2370POPC   GL231562  14.526   7.860   9.156
 2370POPC   C1A31563  14.570   8.441   8.783
 2370POPC   D2A31564  14.423   8.647   8.406
 2370POPC   C3A31565  14.508   8.388   8.049
 2370POPC   C4A31566  14.480   8.138   7.698
 2370POPC   C1B31567  14.747   7.939   8.816
 2370POPC   C2B31568  14.674   8.074   8.425
 2370POPC   C3B31569  14.526   7.837   8.100
 2370POPC   C4B31570  14.606   7.635   7.699
 2371POPC   NC331571  27.050   2.126   9.673
 2371POPC   PO431572  26.498   1.957   9.533
 2371POPC   GL131573  26.786   2.168   9.241
 2371POPC   GL231574  27.034   1.979   9.146
 2371POPC   C1A31575  26.728   2.239   8.791
 2371POPC   D2A31576  26.593   2.127   8.380
 2371POPC   C3A31577  26.798   2.037   7.976
 2371POPC   C4A31578  26.787   2.268   7.590
 2371POPC   C1B31579  26.995   1.820   8.698
 2371POPC   C2B31580  26.778   1.645   8.313
 2371POPC   C3B31581  26.525   1.520   7.924
 2371POPC   C4B31582  26.604   1.420   7.463
 2372POPC   NC331583  16.324  41.049   9.555
 2372POPC   PO431584  16.981  40.895   9.614
 2372POPC   GL131585  16.763  41.009   9.234
 2372POPC   GL231586  17.061  40.867   9.089
 2372POPC   C1A31587  16.594  40.810   8.820
 2372POPC   D2A31588  16.592  40.514   8.456
 2372POPC   C3A31589  16.868  40.577   8.076
 2372POPC   C4A31590  16.704  40.721   7.669
 2372POPC   C1B31591  16.956  41.140   8.773
 2372POPC   C2B31592  16.957  40.959   8.395
 2372POPC   C3B31593  16.860  41.104   8.010
 2372POPC   C4B31594  16.988  41.181   7.621
 2373POPC   NC331595  44.922  41.500   9.427
 2373POPC   PO431596  44.259  41.841   9.433
 2373POPC   GL131597  44.504  41.621   9.110
 2373POPC   GL231598  44.680  41.291   9.034
 2373POPC   C1A31599  44.818  41.741   8.808
 2373POPC   D2A31600  44.888  41.846   8.393
 2373POPC   C3A31601  44.787  41.537   8.115
 2373POPC   C4A31602  44.896  41.569   7.694
 2373POPC   C1B31603  44.649  41.316   8.589
 2373POPC   C2B31604  44.318  41.486   8.408
 2373POPC   C3B31605  44.291  41.654   7.986
 2373POPC   C4B31606  44.469  41.321   7.754
 2374POPC   NC331607  42.552  22.849   9.598
 2374POPC   PO431608  41.922  23.162   9.601
 2374POPC   GL131609  42.181  23.241   9.224
 2374POPC   GL231610  42.249  22.897   9.183
 2374POPC   C1A31611  42.223  23.166   8.748
 2374POPC   D2A31612  42.557  23.159   8.438
 2374POPC   C3A31613  42.481  22.988   8.041
 2374POPC   C4A31614  42.665  23.073   7.639
 2374POPC   C1B31615  42.442  22.688   8.831
 2374POPC   C2B31616  42.307  22.641   8.410
 2374POPC   C3B31617  42.443  22.489   8.034
 2374POPC   C4B31618  42.338  22.560   7.615
 2375POPC   NC331619   0.234  19.238   9.273
 2375POPC   PO431620   0.759  18.887   9.439
 2375POPC   GL131621   0.523  18.861   9.077
 2375POPC   GL231622   0.755  19.109   8.965
 2375POPC   C1A31623   0.576  18.686   8.682
 2375POPC   D2A31624   0.743  18.982   8.401
 2375POPC   C3A31625   0.365  19.152   8.191
 2375POPC   C4A31626   0.252  19.091   7.759
 2375POPC   C1B31627   0.890  19.428   8.712
 2375POPC   C2B31628   0.752  19.481   8.296
 2375POPC   C3B31629   0.726  19.332   7.881
 2375POPC   C4B31630   0.636  19.248   7.456
 2376POPC   NC331631   7.523  17.008   9.579
 2376POPC   PO431632   7.114  16.491   9.655
 2376POPC   GL131633   7.314  16.535   9.220
 2376POPC   GL231634   7.557  16.786   9.136
 2376POPC   C1A31635   7.213  16.742   8.789
 2376POPC   D2A31636   7.420  16.731   8.388
 2376POPC   C3A31637   7.340  16.941   8.000
 2376POPC   C4A31638   7.145  16.615   7.756
 2376POPC   C1B31639   7.732  16.938   8.752
 2376POPC   C2B31640   7.731  17.137   8.345
 2376POPC   C3B31641   7.864  17.022   7.951
 2376POPC   C4B31642   7.664  16.818   7.597
 2377POPC   NC331643   7.336  21.434   9.517
 2377POPC   PO431644   6.904  21.708   9.145
 2377POPC   GL131645   7.182  21.441   9.007
 2377POPC   GL231646   7.537  21.462   9.069
 2377POPC   C1A31647   7.286  21.571   8.627
 2377POPC   D2A31648   7.477  21.539   8.293
 2377POPC   C3A31649   7.222  21.510   7.976
 2377POPC   C4A31650   7.162  21.124   7.754
 2377POPC   C1B31651   7.736  21.343   8.696
 2377POPC   C2B31652   7.760  21.123   8.277
 2377POPC   C3B31653   7.699  21.312   7.843
 2377POPC   C4B31654   7.746  21.262   7.379
 2378POPC   NC331655   3.087  19.434   9.522
 2378POPC   PO431656   3.699  19.806   9.373
 2378POPC   GL131657   3.508  19.754   9.040
 2378POPC   GL231658   3.414  19.426   9.103
 2378POPC   C1A31659   3.647  19.804   8.661
 2378POPC   D2A31660   3.486  19.991   8.313
 2378POPC   C3A31661   3.724  19.922   7.963
 2378POPC   C4A31662   3.908  20.013   7.559
 2378POPC   C1B31663   3.166  19.487   8.725
 2378POPC   C2B31664   3.022  19.630   8.326
 2378POPC   C3B31665   3.248  19.682   7.965
 2378POPC   C4B31666   3.482  19.705   7.585
 2379POPC   NC331667  31.124  37.208   9.461
 2379POPC   PO431668  31.490  36.600   9.576
 2379POPC   GL131669  31.579  36.759   9.201
 2379POPC   GL231670  31.588  37.106   9.256
 2379POPC   C1A31671  31.575  36.639   8.769
 2379POPC   D2A31672  31.366  36.945   8.547
 2379POPC   C3A31673  31.467  36.934   8.138
 2379POPC   C4A31674  31.405  36.664   7.799
 2379POPC   C1B31675  31.765  37.097   8.864
 2379POPC   C2B31676  31.910  37.104   8.466
 2379POPC   C3B31677  31.775  37.357   8.138
 2379POPC   C4B31678  31.760  37.097   7.774
 2380POPC   NC331679   4.856  41.856   9.382
 2380POPC   PO431680   5.378  41.443   9.497
 2380POPC   GL131681   5.154  41.503   9.121
 2380POPC   GL231682   5.373  41.271   9.023
 2380POPC   C1A31683   4.891  41.465   8.719
 2380POPC   D2A31684   5.060  41.396   8.291
 2380POPC   C3A31685   5.080  41.708   7.987
 2380POPC   C4A31686   4.735  41.741   7.793
 2380POPC   C1B31687   5.404  41.492   8.675
 2380POPC   C2B31688   5.558  41.475   8.315
 2380POPC   C3B31689   5.443  41.375   7.889
 2380POPC   C4B31690   5.204  41.381   7.453
 2381POPC   NC331691   7.781  37.046   9.532
 2381POPC   PO431692   7.119  37.107   9.438
 2381POPC   GL131693   7.324  36.983   9.088
 2381POPC   GL231694   7.554  36.740   9.202
 2381POPC   C1A31695   7.450  37.018   8.666
 2381POPC   D2A31696   7.619  37.153   8.247
 2381POPC   C3A31697   7.371  37.061   7.871
 2381POPC   C4A31698   7.339  36.673   7.645
 2381POPC   C1B31699   7.775  36.651   8.800
 2381POPC   C2B31700   7.632  36.625   8.374
 2381POPC   C3B31701   7.734  36.672   7.958
 2381POPC   C4B31702   7.823  36.558   7.507
 2382POPC   NC331703  40.630  31.973   9.429
 2382POPC   PO431704  40.988  32.601   9.333
 2382POPC   GL131705  40.674  32.447   9.018
 2382POPC   GL231706  40.673  32.085   8.935
 2382POPC   C1A31707  40.705  32.489   8.561
 2382POPC   D2A31708  41.013  32.454   8.265
 2382POPC   C3A31709  40.907  32.254   7.901
 2382POPC   C4A31710  40.524  32.423   7.791
 2382POPC   C1B31711  41.080  32.086   8.728
 2382POPC   C2B31712  40.968  31.942   8.328
 2382POPC   C3B31713  40.556  32.031   8.174
 2382POPC   C4B31714  40.529  31.892   7.773
 2383POPC   NC331715  18.581  16.939   9.227
 2383POPC   PO431716  18.073  16.569   9.523
 2383POPC   GL131717  18.250  16.533   9.102
 2383POPC   GL231718  18.586  16.461   8.960
 2383POPC   C1A31719  18.173  16.722   8.716
 2383POPC   D2A31720  18.159  16.573   8.339
 2383POPC   C3A31721  18.170  16.790   7.998
 2383POPC   C4A31722  18.242  16.586   7.646
 2383POPC   C1B31723  18.679  16.721   8.627
 2383POPC   C2B31724  18.583  16.888   8.266
 2383POPC   C3B31725  18.678  16.902   7.867
 2383POPC   C4B31726  18.807  17.009   7.507
 2384POPC   NC331727  17.305  15.228   9.395
 2384POPC   PO431728  17.762  15.756   9.456
 2384POPC   GL131729  17.699  15.457   9.040
 2384POPC   GL231730  17.587  15.120   8.978
 2384POPC   C1A31731  17.659  15.399   8.569
 2384POPC   D2A31732  17.531  15.441   8.152
 2384POPC   C3A31733  17.817  15.242   7.838
 2384POPC   C4A31734  17.811  15.090   7.384
 2384POPC   C1B31735  17.211  15.298   8.765
 2384POPC   C2B31736  17.222  15.089   8.397
 2384POPC   C3B31737  17.450  14.939   8.060
 2384POPC   C4B31738  17.381  15.025   7.660
 2385POPC   NC331739  40.063   2.436   9.322
 2385POPC   PO431740  40.298   1.778   9.458
 2385POPC   GL131741  40.163   1.944   9.119
 2385POPC   GL231742  39.826   2.014   9.134
 2385POPC   C1A31743  40.054   1.915   8.681
 2385POPC   D2A31744  39.934   2.133   8.314
 2385POPC   C3A31745  40.246   2.016   8.028
 2385POPC   C4A31746  40.280   1.740   7.701
 2385POPC   C1B31747  39.737   2.325   8.771
 2385POPC   C2B31748  39.689   2.605   8.400
 2385POPC   C3B31749  39.608   2.478   7.991
 2385POPC   C4B31750  39.793   2.118   7.810
 2386POPC   NC331751  14.717  12.417   9.476
 2386POPC   PO431752  14.533  13.090   9.403
 2386POPC   GL131753  14.577  13.024   9.049
 2386POPC   GL231754  14.533  12.694   9.069
 2386POPC   C1A31755  14.699  13.124   8.695
 2386POPC   D2A31756  14.701  13.385   8.362
 2386POPC   C3A31757  14.643  13.135   8.005
 2386POPC   C4A31758  14.239  13.136   7.844
 2386POPC   C1B31759  14.341  12.728   8.692
 2386POPC   C2B31760  14.517  12.787   8.332
 2386POPC   C3B31761  14.353  12.648   7.939
 2386POPC   C4B31762  14.567  12.463   7.585
 2387POPC   NC331763   7.380  14.559  10.060
 2387POPC   PO431764   7.795  14.472   9.699
 2387POPC   GL131765   7.753  14.483   9.219
 2387POPC   GL231766   7.872  14.787   9.045
 2387POPC   C1A31767   7.634  14.388   8.748
 2387POPC   D2A31768   7.606  14.458   8.245
 2387POPC   C3A31769   7.232  14.431   7.938
 2387POPC   C4A31770   6.916  14.399   7.607
 2387POPC   C1B31771   7.810  14.834   8.568
 2387POPC   C2B31772   7.810  14.911   8.103
 2387POPC   C3B31773   7.671  14.641   7.750
 2387POPC   C4B31774   7.740  14.638   7.292
 2388POPC   NC331775  28.507  17.260   9.540
 2388POPC   PO431776  27.952  17.439   9.269
 2388POPC   GL131777  28.373  17.568   9.072
 2388POPC   GL231778  28.708  17.380   9.076
 2388POPC   C1A31779  28.449  17.476   8.623
 2388POPC   D2A31780  28.617  17.560   8.209
 2388POPC   C3A31781  28.242  17.612   7.949
 2388POPC   C4A31782  28.187  17.623   7.502
 2388POPC   C1B31783  28.384  17.058   8.922
 2388POPC   C2B31784  28.168  17.005   8.540
 2388POPC   C3B31785  28.235  17.130   8.142
 2388POPC   C4B31786  28.146  17.138   7.730
 2389POPC   NC331787  36.311  22.660   9.165
 2389POPC   PO431788  35.853  22.167   9.429
 2389POPC   GL131789  36.087  22.203   9.084
 2389POPC   GL231790  35.808  22.422   8.983
 2389POPC   C1A31791  36.127  22.217   8.640
 2389POPC   D2A31792  35.881  22.389   8.340
 2389POPC   C3A31793  36.026  22.369   7.910
 2389POPC   C4A31794  36.212  21.999   7.781
 2389POPC   C1B31795  35.689  22.003   8.838
 2389POPC   C2B31796  35.708  21.910   8.450
 2389POPC   C3B31797  35.820  21.882   8.069
 2389POPC   C4B31798  35.698  21.949   7.660
 2390POPC   NC331799  17.093  22.283   9.537
 2390POPC   PO431800  16.519  21.910   9.526
 2390POPC   GL131801  16.666  22.143   9.207
 2390POPC   GL231802  16.981  21.947   9.150
 2390POPC   C1A31803  16.477  22.248   8.807
 2390POPC   D2A31804  16.680  22.329   8.437
 2390POPC   C3A31805  16.636  22.082   8.082
 2390POPC   C4A31806  16.923  22.165   7.777
 2390POPC   C1B31807  16.666  21.746   8.884
 2390POPC   C2B31808  16.587  21.723   8.447
 2390POPC   C3B31809  16.728  21.583   8.018
 2390POPC   C4B31810  16.833  21.706   7.575
 2391POPC   NC331811  23.534   7.641   9.365
 2391POPC   PO431812  24.014   7.168   9.311
 2391POPC   GL131813  23.882   7.415   9.055
 2391POPC   GL231814  24.084   7.693   9.113
 2391POPC   C1A31815  23.722   7.371   8.654
 2391POPC   D2A31816  23.633   7.569   8.269
 2391POPC   C3A31817  23.692   7.363   7.862
 2391POPC   C4A31818  23.485   7.428   7.467
 2391POPC   C1B31819  23.933   7.841   8.757
 2391POPC   C2B31820  24.134   7.745   8.405
 2391POPC   C3B31821  24.053   7.714   8.015
 2391POPC   C4B31822  24.200   7.430   7.744
 2392POPC   NC331823  25.789  39.750   9.383
 2392POPC   PO431824  26.358  40.173   9.500
 2392POPC   GL131825  26.283  39.949   9.096
 2392POPC   GL231826  25.991  40.100   9.039
 2392POPC   C1A31827  26.184  39.731   8.677
 2392POPC   D2A31828  26.069  39.796   8.211
 2392POPC   C3A31829  26.311  39.685   7.788
 2392POPC   C4A31830  26.382  39.774   7.332
 2392POPC   C1B31831  25.790  40.077   8.646
 2392POPC   C2B31832  25.668  40.452   8.416
 2392POPC   C3B31833  25.920  40.469   8.060
 2392POPC   C4B31834  26.013  40.119   7.799
 2393POPC   NC331835  24.223  13.476   9.807
 2393POPC   PO431836  24.821  13.493   9.690
 2393POPC   GL131837  24.767  13.631   9.216
 2393POPC   GL231838  24.912  13.968   9.099
 2393POPC   C1A31839  24.870  13.631   8.740
 2393POPC   D2A31840  24.620  13.757   8.390
 2393POPC   C3A31841  24.409  13.464   8.133
 2393POPC   C4A31842  24.354  13.513   7.712
 2393POPC   C1B31843  24.868  14.200   8.684
 2393POPC   C2B31844  24.762  14.205   8.219
 2393POPC   C3B31845  24.653  13.916   7.885
 2393POPC   C4B31846  24.741  13.799   7.478
 2394POPC   NC331847  14.648  19.749   9.416
 2394POPC   PO431848  14.100  20.160   9.379
 2394POPC   GL131849  14.316  19.983   9.089
 2394POPC   GL231850  14.628  20.201   9.153
 2394POPC   C1A31851  14.233  19.761   8.684
 2394POPC   D2A31852  14.302  19.483   8.338
 2394POPC   C3A31853  14.263  19.741   7.967
 2394POPC   C4A31854  14.513  19.759   7.608
 2394POPC   C1B31855  14.637  20.064   8.732
 2394POPC   C2B31856  14.675  19.885   8.343
 2394POPC   C3B31857  14.668  20.085   7.975
 2394POPC   C4B31858  14.362  20.221   7.695
 2395POPC   NC331859   0.369  18.616   9.498
 2395POPC   PO431860   0.523  18.024   9.560
 2395POPC   GL131861   0.629  18.168   9.134
 2395POPC   GL231862   0.373  18.365   9.050
 2395POPC   C1A31863   0.571  18.138   8.660
 2395POPC   D2A31864   0.475  18.009   8.240
 2395POPC   C3A31865   0.655  18.343   7.992
 2395POPC   C4A31866   0.647  18.797   7.939
 2395POPC   C1B31867   0.114  18.373   8.638
 2395POPC   C2B31868   0.211  18.613   8.255
 2395POPC   C3B31869   0.196  18.558   7.817
 2395POPC   C4B31870   0.078  18.609   7.397
 2396POPC   NC331871   1.616  26.032   9.547
 2396POPC   PO431872   0.952  26.183   9.352
 2396POPC   GL131873   1.125  26.272   8.977
 2396POPC   GL231874   1.458  26.229   9.080
 2396POPC   C1A31875   0.986  26.141   8.570
 2396POPC   D2A31876   0.869  26.087   8.146
 2396POPC   C3A31877   1.139  26.131   7.796
 2396POPC   C4A31878   0.919  26.014   7.405
 2396POPC   C1B31879   1.471  25.972   8.681
 2396POPC   C2B31880   1.371  25.917   8.249
 2396POPC   C3B31881   1.631  26.024   7.889
 2396POPC   C4B31882   1.577  26.349   7.589
 2397POPC   NC331883  18.787   9.705   9.388
 2397POPC   PO431884  19.418   9.979   9.404
 2397POPC   GL131885  19.228   9.743   9.070
 2397POPC   GL231886  19.320   9.411   8.938
 2397POPC   C1A31887  19.270   9.824   8.627
 2397POPC   D2A31888  19.516   9.659   8.307
 2397POPC   C3A31889  19.214   9.657   8.023
 2397POPC   C4A31890  19.234   9.358   7.725
 2397POPC   C1B31891  18.890   9.470   8.755
 2397POPC   C2B31892  18.702   9.456   8.338
 2397POPC   C3B31893  18.755   9.520   7.887
 2397POPC   C4B31894  18.693   9.819   7.538
 2398POPC   NC331895  16.771  13.187   9.455
 2398POPC   PO431896  17.060  12.604   9.638
 2398POPC   GL131897  16.830  12.696   9.231
 2398POPC   GL231898  16.495  12.769   9.265
 2398POPC   C1A31899  16.774  12.846   8.791
 2398POPC   D2A31900  16.608  12.980   8.393
 2398POPC   C3A31901  16.812  12.856   8.022
 2398POPC   C4A31902  16.670  13.013   7.641
 2398POPC   C1B31903  16.489  12.422   8.951
 2398POPC   C2B31904  16.554  12.467   8.512
 2398POPC   C3B31905  16.467  12.456   8.084
 2398POPC   C4B31906  16.571  12.517   7.677
 2399POPC   NC331907  21.931  15.551   9.655
 2399POPC   PO431908  22.284  16.114   9.584
 2399POPC   GL131909  22.128  16.007   9.194
 2399POPC   GL231910  22.308  15.720   9.053
 2399POPC   C1A31911  21.906  15.954   8.813
 2399POPC   D2A31912  21.993  16.144   8.435
 2399POPC   C3A31913  22.250  16.001   8.141
 2399POPC   C4A31914  22.299  16.042   7.745
 2399POPC   C1B31915  22.257  15.678   8.565
 2399POPC   C2B31916  21.957  15.601   8.216
 2399POPC   C3B31917  22.055  15.600   7.768
 2399POPC   C4B31918  22.491  15.559   7.561
 2400POPC   NC331919   8.334   2.400   9.129
 2400POPC   PO431920   8.329   2.876   9.554
 2400POPC   GL131921   8.138   2.890   9.142
 2400POPC   GL231922   8.430   2.865   8.951
 2400POPC   C1A31923   8.014   2.732   8.679
 2400POPC   D2A31924   7.928   2.888   8.288
 2400POPC   C3A31925   7.960   2.683   7.915
 2400POPC   C4A31926   8.135   2.988   7.652
 2400POPC   C1B31927   8.500   2.645   8.561
 2400POPC   C2B31928   8.394   2.698   8.175
 2400POPC   C3B31929   8.441   2.562   7.792
 2400POPC   C4B31930   8.269   2.265   7.510
 2401POPC   NC331931  37.248   5.781   9.454
 2401POPC   PO431932  37.804   6.179   9.305
 2401POPC   GL131933  37.639   5.813   9.115
 2401POPC   GL231934  37.364   5.988   9.011
 2401POPC   C1A31935  37.613   5.578   8.738
 2401POPC   D2A31936  37.883   5.627   8.382
 2401POPC   C3A31937  37.784   5.742   7.978
 2401POPC   C4A31938  37.413   5.675   7.768
 2401POPC   C1B31939  37.657   6.094   8.675
 2401POPC   C2B31940  37.724   6.156   8.262
 2401POPC   C3B31941  37.514   6.165   7.885
 2401POPC   C4B31942  37.712   6.223   7.505
 2402POPC   NC331943   3.402   2.407   9.336
 2402POPC   PO431944   3.578   3.067   9.622
 2402POPC   GL131945   3.622   2.882   9.200
 2402POPC   GL231946   3.253   2.886   9.138
 2402POPC   C1A31947   3.901   2.689   8.833
 2402POPC   D2A31948   3.949   2.876   8.372
 2402POPC   C3A31949   3.788   2.798   7.924
 2402POPC   C4A31950   3.651   2.878   7.479
 2402POPC   C1B31951   3.436   2.833   8.706
 2402POPC   C2B31952   3.406   2.799   8.264
 2402POPC   C3B31953   3.324   3.035   7.881
 2402POPC   C4B31954   3.241   2.652   7.650
 2403POPC   NC331955  15.819  13.491   9.472
 2403POPC   PO431956  16.142  14.145   9.536
 2403POPC   GL131957  16.116  13.882   9.152
 2403POPC   GL231958  15.785  13.703   9.016
 2403POPC   C1A31959  16.173  13.817   8.698
 2403POPC   D2A31960  15.794  13.671   8.484
 2403POPC   C3A31961  15.765  13.672   8.073
 2403POPC   C4A31962  15.992  13.914   7.787
 2403POPC   C1B31963  16.017  13.335   8.794
 2403POPC   C2B31964  16.229  13.343   8.364
 2403POPC   C3B31965  16.180  13.432   7.895
 2403POPC   C4B31966  15.856  13.488   7.559
 2404POPC   NC331967  23.976   9.264   9.428
 2404POPC   PO431968  23.348   9.060   9.493
 2404POPC   GL131969  23.540   9.017   9.102
 2404POPC   GL231970  23.298   9.234   8.980
 2404POPC   C1A31971  23.759   9.081   8.676
 2404POPC   D2A31972  24.033   8.897   8.326
 2404POPC   C3A31973  23.894   8.923   7.906
 2404POPC   C4A31974  23.689   8.719   7.658
 2404POPC   C1B31975  23.275   8.878   8.680
 2404POPC   C2B31976  23.486   8.894   8.274
 2404POPC   C3B31977  23.447   9.182   7.950
 2404POPC   C4B31978  23.228   8.944   7.629
 2405POPC   NC331979  12.420  29.733   9.421
 2405POPC   PO431980  11.923  30.202   9.566
 2405POPC   GL131981  12.072  30.019   9.214
 2405POPC   GL231982  11.923  29.678   9.240
 2405POPC   C1A31983  12.322  30.032   8.830
 2405POPC   D2A31984  12.150  30.005   8.424
 2405POPC   C3A31985  12.428  30.003   8.066
 2405POPC   C4A31986  12.278  29.974   7.606
 2405POPC   C1B31987  11.831  29.820   8.830
 2405POPC   C2B31988  11.721  29.697   8.457
 2405POPC   C3B31989  11.830  29.757   8.066
 2405POPC   C4B31990  11.648  29.867   7.706
 2406POPC   NC331991  34.294  14.743   9.436
 2406POPC   PO431992  34.632  14.201   9.656
 2406POPC   GL131993  34.524  14.332   9.232
 2406POPC   GL231994  34.270  14.130   9.191
 2406POPC   C1A31995  34.580  14.521   8.824
 2406POPC   D2A31996  34.388  14.408   8.440
 2406POPC   C3A31997  34.554  14.498   8.044
 2406POPC   C4A31998  34.547  14.813   7.737
 2406POPC   C1B31999  34.521  14.029   8.804
 2406POPC   C2B32000  34.581  13.925   8.357
 2406POPC   C3B32001  34.358  14.025   7.975
 2406POPC   C4B32002  34.535  14.150   7.592
 2407POPC   NC332003   2.368  28.592   9.450
 2407POPC   PO432004   2.016  29.184   9.435
 2407POPC   GL132005   1.755  29.203   9.077
 2407POPC   GL232006   1.517  29.486   9.067
 2407POPC   C1A32007   1.865  29.078   8.663
 2407POPC   D2A32008   1.637  28.956   8.307
 2407POPC   C3A32009   1.856  29.003   7.919
 2407POPC   C4A32010   2.223  28.805   7.745
 2407POPC   C1B32011   1.730  29.585   8.681
 2407POPC   C2B32012   1.822  29.463   8.248
 2407POPC   C3B32013   1.734  29.510   7.788
 2407POPC   C4B32014   1.783  29.571   7.339
 2408POPC   NC332015  45.000  13.970   9.624
 2408POPC   PO432016  44.502  13.537   9.390
 2408POPC   GL132017  44.625  13.608   9.016
 2408POPC   GL232018  44.837  13.889   9.084
 2408POPC   C1A32019  44.637  13.410   8.624
 2408POPC   D2A32020  44.837  13.666   8.358
 2408POPC   C3A32021  44.769  13.580   7.980
 2408POPC   C4A32022  44.880  13.332   7.725
 2408POPC   C1B32023  44.616  14.007   8.688
 2408POPC   C2B32024  44.322  13.766   8.455
 2408POPC   C3B32025  44.284  13.768   8.030
 2408POPC   C4B32026  44.570  13.987   7.777
 2409POPC   NC332027  31.479   3.950   9.388
 2409POPC   PO432028  31.130   4.548   9.483
 2409POPC   GL132029  31.308   4.359   9.135
 2409POPC   GL232030  31.066   4.063   9.068
 2409POPC   C1A32031  31.452   4.526   8.760
 2409POPC   D2A32032  31.134   4.593   8.468
 2409POPC   C3A32033  31.250   4.710   8.074
 2409POPC   C4A32034  31.536   4.556   7.768
 2409POPC   C1B32035  31.350   4.007   8.710
 2409POPC   C2B32036  31.404   4.163   8.271
 2409POPC   C3B32037  31.720   4.136   7.968
 2409POPC   C4B32038  31.828   3.878   7.659
 2410POPC   NC332039  39.182  24.553   9.551
 2410POPC   PO432040  39.622  24.067   9.563
 2410POPC   GL132041  39.264  24.211   9.109
 2410POPC   GL232042  39.131  24.598   9.049
 2410POPC   C1A32043  39.237  24.345   8.627
 2410POPC   D2A32044  38.920  24.422   8.292
 2410POPC   C3A32045  39.100  24.513   7.881
 2410POPC   C4A32046  39.051  24.392   7.462
 2410POPC   C1B32047  39.377  24.822   8.720
 2410POPC   C2B32048  39.246  24.838   8.294
 2410POPC   C3B32049  39.470  24.880   7.923
 2410POPC   C4B32050  39.436  24.737   7.473
 2411POPC   NC332051   0.049   9.284   9.519
 2411POPC   PO432052   0.639   8.906   9.486
 2411POPC   GL132053   0.370   8.976   9.151
 2411POPC   GL232054   0.408   9.310   9.122
 2411POPC   C1A32055   0.267   8.807   8.738
 2411POPC   D2A32056   0.623   8.710   8.440
 2411POPC   C3A32057   0.517   8.759   8.023
 2411POPC   C4A32058   0.228   8.872   7.690
 2411POPC   C1B32059   0.605   9.166   8.728
 2411POPC   C2B32060   0.495   9.203   8.272
 2411POPC   C3B32061   0.585   9.221   7.800
 2411POPC   C4B32062   0.530   9.440   7.377
 2412POPC   NC332063  22.198  41.973   9.452
 2412POPC   PO432064  22.058  42.632   9.533
 2412POPC   GL132065  22.028  42.403   9.156
 2412POPC   GL232066  21.739  42.156   9.126
 2412POPC   C1A32067  22.168  42.508   8.747
 2412POPC   D2A32068  22.231  42.301   8.340
 2412POPC   C3A32069  22.215  42.558   7.976
 2412POPC   C4A32070  22.006  42.500   7.586
 2412POPC   C1B32071  21.689  42.308   8.673
 2412POPC   C2B32072  21.715  42.236   8.205
 2412POPC   C3B32073  21.969  42.065   7.853
 2412POPC   C4B32074  22.024  41.955   7.381
 2413POPC   NC332075  34.688  29.537   9.415
 2413POPC   PO432076  34.194  29.223   9.555
 2413POPC   GL132077  34.558  29.046   9.298
 2413POPC   GL232078  34.412  29.281   9.093
 2413POPC   C1A32079  34.778  28.969   8.884
 2413POPC   D2A32080  34.645  29.043   8.480
 2413POPC   C3A32081  34.656  28.832   8.134
 2413POPC   C4A32082  34.711  28.898   7.721
 2413POPC   C1B32083  34.578  29.445   8.776
 2413POPC   C2B32084  34.490  29.540   8.405
 2413POPC   C3B32085  34.565  29.334   8.072
 2413POPC   C4B32086  34.501  29.353   7.699
 2414POPC   NC332087  38.055  42.988   9.734
 2414POPC   PO432088  37.570  43.261   9.551
 2414POPC   GL132089  37.837  43.039   9.265
 2414POPC   GL232090  37.551  42.978   9.067
 2414POPC   C1A32091  38.001  43.103   8.838
 2414POPC   D2A32092  37.691  43.220   8.536
 2414POPC   C3A32093  37.787  43.221   8.092
 2414POPC   C4A32094  37.448  43.299   7.805
 2414POPC   C1B32095  37.675  42.732   8.718
 2414POPC   C2B32096  37.779  42.752   8.308
 2414POPC   C3B32097  37.627  42.795   7.859
 2414POPC   C4B32098  37.364  42.901   7.518
 2415POPC   NC332099   8.898   1.056   9.492
 2415POPC   PO432100   9.351   1.378   9.805
 2415POPC   GL132101   9.244   1.369   9.288
 2415POPC   GL232102   8.863   1.445   9.153
 2415POPC   C1A32103   9.179   1.198   8.832
 2415POPC   D2A32104   9.033   1.254   8.400
 2415POPC   C3A32105   9.258   1.042   8.061
 2415POPC   C4A32106   9.107   1.192   7.695
 2415POPC   C1B32107   8.654   1.277   8.764
 2415POPC   C2B32108   8.553   1.015   8.377
 2415POPC   C3B32109   8.563   1.182   7.961
 2415POPC   C4B32110   8.421   1.426   7.571
 2416POPC   NC332111   8.880   1.841   9.512
 2416POPC   PO432112   9.486   1.829   9.348
 2416POPC   GL132113   9.181   1.828   9.045
 2416POPC   GL232114   8.894   2.050   9.038
 2416POPC   C1A32115   9.233   1.688   8.647
 2416POPC   D2A32116   9.381   1.944   8.328
 2416POPC   C3A32117   9.058   1.948   8.061
 2416POPC   C4A32118   8.817   1.618   7.848
 2416POPC   C1B32119   8.892   2.313   8.664
 2416POPC   C2B32120   8.700   2.292   8.238
 2416POPC   C3B32121   8.633   2.104   7.825
 2416POPC   C4B32122   8.739   2.325   7.392
 2417POPC   NC332123  15.059   2.240   9.503
 2417POPC   PO432124  14.815   1.678   9.538
 2417POPC   GL132125  14.988   1.764   9.146
 2417POPC   GL232126  15.330   1.751   9.048
 2417POPC   C1A32127  14.954   1.840   8.712
 2417POPC   D2A32128  15.162   2.039   8.360
 2417POPC   C3A32129  14.968   2.080   7.958
 2417POPC   C4A32130  15.147   1.781   7.723
 2417POPC   C1B32131  15.362   2.150   8.828
 2417POPC   C2B32132  15.503   2.406   8.477
 2417POPC   C3B32133  15.378   2.405   8.052
 2417POPC   C4B32134  15.350   2.247   7.632
 2418POPC   NC332135  35.196  18.461   9.400
 2418POPC   PO432136  35.686  18.083   9.518
 2418POPC   GL132137  35.482  18.156   9.112
 2418POPC   GL232138  35.101  18.141   9.032
 2418POPC   C1A32139  35.432  18.366   8.700
 2418POPC   D2A32140  35.406  18.179   8.318
 2418POPC   C3A32141  35.368  18.433   7.970
 2418POPC   C4A32142  35.088  18.640   7.714
 2418POPC   C1B32143  34.952  18.169   8.613
 2418POPC   C2B32144  34.902  18.342   8.211
 2418POPC   C3B32145  34.999  18.104   7.865
 2418POPC   C4B32146  35.025  18.114   7.381
 2419POPC   NC332147  13.304   3.069   9.276
 2419POPC   PO432148  12.770   2.695   9.484
 2419POPC   GL132149  12.966   2.748   9.110
 2419POPC   GL232150  13.104   2.452   9.010
 2419POPC   C1A32151  12.903   2.965   8.724
 2419POPC   D2A32152  12.794   3.244   8.409
 2419POPC   C3A32153  12.794   3.010   8.018
 2419POPC   C4A32154  12.987   3.025   7.599
 2419POPC   C1B32155  12.682   2.501   8.784
 2419POPC   C2B32156  12.686   2.642   8.371
 2419POPC   C3B32157  12.935   2.515   8.024
 2419POPC   C4B32158  12.776   2.515   7.626
 2420POPC   NC332159  32.750  34.140   9.465
 2420POPC   PO432160  33.360  34.332   9.718
 2420POPC   GL132161  33.214  34.485   9.272
 2420POPC   GL232162  32.847  34.578   9.213
 2420POPC   C1A32163  33.112  34.432   8.803
 2420POPC   D2A32164  33.057  34.652   8.428
 2420POPC   C3A32165  33.173  34.396   8.050
 2420POPC   C4A32166  33.172  34.119   7.709
 2420POPC   C1B32167  32.714  34.799   8.825
 2420POPC   C2B32168  32.543  34.763   8.416
 2420POPC   C3B32169  32.752  34.758   8.029
 2420POPC   C4B32170  32.753  34.417   7.774
 2421POPC   NC332171  22.294  35.913   9.494
 2421POPC   PO432172  22.287  36.565   9.787
 2421POPC   GL132173  22.349  36.382   9.291
 2421POPC   GL232174  22.469  36.041   9.059
 2421POPC   C1A32175  22.288  36.420   8.812
 2421POPC   D2A32176  22.039  36.121   8.578
 2421POPC   C3A32177  21.981  36.224   8.175
 2421POPC   C4A32178  22.105  36.033   7.833
 2421POPC   C1B32179  22.454  35.834   8.681
 2421POPC   C2B32180  22.403  35.881   8.247
 2421POPC   C3B32181  22.598  35.823   7.857
 2421POPC   C4B32182  22.362  35.730   7.503
 2422POPC   NC332183  29.653   4.587   9.484
 2422POPC   PO432184  30.214   4.292   9.615
 2422POPC   GL132185  30.029   4.366   9.194
 2422POPC   GL232186  29.769   4.204   9.085
 2422POPC   C1A32187  30.104   4.386   8.734
 2422POPC   D2A32188  29.901   4.494   8.349
 2422POPC   C3A32189  30.052   4.417   7.975
 2422POPC   C4A32190  29.898   4.512   7.614
 2422POPC   C1B32191  29.635   4.052   8.725
 2422POPC   C2B32192  29.532   4.122   8.321
 2422POPC   C3B32193  29.656   4.088   7.930
 2422POPC   C4B32194  29.960   3.998   7.695
 2423POPC   NC332195   5.840  11.200   9.586
 2423POPC   PO432196   6.247  11.526   9.230
 2423POPC   GL132197   6.019  11.205   9.069
 2423POPC   GL232198   5.665  11.271   9.124
 2423POPC   C1A32199   6.095  11.148   8.647
 2423POPC   D2A32200   5.853  11.239   8.304
 2423POPC   C3A32201   6.014  11.189   7.891
 2423POPC   C4A32202   5.614  11.179   7.731
 2423POPC   C1B32203   5.679  11.496   8.746
 2423POPC   C2B32204   5.757  11.752   8.392
 2423POPC   C3B32205   5.794  11.628   7.980
 2423POPC   C4B32206   6.124  11.690   7.738
 2424POPC   NC332207  35.862   6.974   9.391
 2424POPC   PO432208  36.317   6.495   9.578
 2424POPC   GL132209  36.171   6.555   9.126
 2424POPC   GL232210  35.907   6.389   8.962
 2424POPC   C1A32211  36.258   6.731   8.698
 2424POPC   D2A32212  36.085   6.648   8.283
 2424POPC   C3A32213  36.283   6.759   7.890
 2424POPC   C4A32214  36.402   6.364   7.679
 2424POPC   C1B32215  35.744   6.776   8.774
 2424POPC   C2B32216  35.869   7.075   8.448
 2424POPC   C3B32217  35.795   6.962   7.991
 2424POPC   C4B32218  35.643   7.022   7.576
 2425POPC   NC332219  34.270  38.084   9.467
 2425POPC   PO432220  33.532  38.049   9.600
 2425POPC   GL132221  33.581  37.779   9.226
 2425POPC   GL232222  33.864  37.947   9.164
 2425POPC   C1A32223  33.789  37.608   8.804
 2425POPC   D2A32224  34.105  37.541   8.481
 2425POPC   C3A32225  33.885  37.425   8.129
 2425POPC   C4A32226  34.036  37.302   7.739
 2425POPC   C1B32227  33.624  38.101   8.781
 2425POPC   C2B32228  33.598  37.862   8.381
 2425POPC   C3B32229  33.716  37.936   7.962
 2425POPC   C4B32230  33.593  37.968   7.535
 2426POPC   NC332231  28.297  14.603   9.570
 2426POPC   PO432232  28.081  13.934   9.421
 2426POPC   GL132233  28.246  14.295   9.116
 2426POPC   GL232234  28.530  14.589   9.140
 2426POPC   C1A32235  28.404  14.396   8.679
 2426POPC   D2A32236  28.770  14.374   8.432
 2426POPC   C3A32237  28.649  14.137   8.067
 2426POPC   C4A32238  28.391  14.257   7.715
 2426POPC   C1B32239  28.237  14.809   8.913
 2426POPC   C2B32240  28.209  14.872   8.474
 2426POPC   C3B32241  28.356  14.666   8.093
 2426POPC   C4B32242  28.336  14.750   7.657
 2427POPC   NC332243  32.365  29.868   9.613
 2427POPC   PO432244  31.884  29.780   9.158
 2427POPC   GL132245  32.339  29.764   9.121
 2427POPC   GL232246  32.485  30.109   9.166
 2427POPC   C1A32247  32.515  29.842   8.743
 2427POPC   D2A32248  32.285  29.845   8.383
 2427POPC   C3A32249  32.441  29.657   8.012
 2427POPC   C4A32250  32.415  29.826   7.602
 2427POPC   C1B32251  32.515  30.370   8.783
 2427POPC   C2B32252  32.241  30.434   8.419
 2427POPC   C3B32253  32.222  30.214   8.031
 2427POPC   C4B32254  32.339  30.324   7.659
 2428POPC   NC332255  11.159  31.201   9.454
 2428POPC   PO432256  11.643  31.674   9.694
 2428POPC   GL132257  11.394  31.691   9.227
 2428POPC   GL232258  11.234  31.367   8.997
 2428POPC   C1A32259  11.527  31.663   8.765
 2428POPC   D2A32260  11.371  31.432   8.405
 2428POPC   C3A32261  11.390  31.639   8.016
 2428POPC   C4A32262  11.585  31.590   7.630
 2428POPC   C1B32263  11.002  31.623   8.745
 2428POPC   C2B32264  10.845  31.531   8.350
 2428POPC   C3B32265  10.952  31.391   7.967
 2428POPC   C4B32266  10.969  31.677   7.652
 2429POPC   NC332267  41.473  19.443   9.578
 2429POPC   PO432268  41.668  20.044   9.627
 2429POPC   GL132269  41.635  19.855   9.264
 2429POPC   GL232270  41.510  20.162   9.142
 2429POPC   C1A32271  41.444  19.715   8.894
 2429POPC   D2A32272  41.589  19.590   8.511
 2429POPC   C3A32273  41.424  19.671   8.085
 2429POPC   C4A32274  41.700  19.712   7.723
 2429POPC   C1B32275  41.501  20.285   8.713
 2429POPC   C2B32276  41.537  20.148   8.279
 2429POPC   C3B32277  41.393  20.172   7.835
 2429POPC   C4B32278  41.382  20.136   7.368
 2430POPC   NC332279  31.518   9.545   9.579
 2430POPC   PO432280  30.956   9.881   9.514
 2430POPC   GL132281  31.365   9.880   9.188
 2430POPC   GL232282  31.589   9.574   9.090
 2430POPC   C1A32283  31.508   9.870   8.695
 2430POPC   D2A32284  31.429   9.556   8.345
 2430POPC   C3A32285  31.567   9.621   7.909
 2430POPC   C4A32286  31.469  10.007   7.729
 2430POPC   C1B32287  31.816   9.461   8.710
 2430POPC   C2B32288  31.932   9.643   8.295
 2430POPC   C3B32289  32.060   9.439   7.932
 2430POPC   C4B32290  31.859   9.304   7.573
 2431POPC   NC332291  27.063  38.561   9.377
 2431POPC   PO432292  26.676  38.021   9.533
 2431POPC   GL132293  26.564  38.212   9.151
 2431POPC   GL232294  26.574  38.595   9.150
 2431POPC   C1A32295  26.703  38.304   8.742
 2431POPC   D2A32296  26.616  38.474   8.358
 2431POPC   C3A32297  26.931  38.429   8.085
 2431POPC   C4A32298  27.059  38.388   7.688
 2431POPC   C1B32299  26.720  38.816   8.738
 2431POPC   C2B32300  26.815  38.946   8.319
 2431POPC   C3B32301  26.600  38.801   7.958
 2431POPC   C4B32302  26.516  38.357   7.808
 2432POPC   NC332303  14.413  32.554   9.385
 2432POPC   PO432304  14.595  33.203   9.549
 2432POPC   GL132305  14.344  33.049   9.184
 2432POPC   GL232306  14.040  33.248   9.181
 2432POPC   C1A32307  14.256  32.816   8.776
 2432POPC   D2A32308  14.109  32.942   8.373
 2432POPC   C3A32309  14.264  32.827   7.971
 2432POPC   C4A32310  14.539  32.854   7.628
 2432POPC   C1B32311  14.226  33.342   8.760
 2432POPC   C2B32312  14.133  33.469   8.347
 2432POPC   C3B32313  14.310  33.407   7.945
 2432POPC   C4B32314  14.119  33.205   7.602
 2433POPC   NC332315  41.723   5.588   9.418
 2433POPC   PO432316  41.677   4.895   9.456
 2433POPC   GL132317  41.549   5.185   9.154
 2433POPC   GL232318  41.901   5.306   9.036
 2433POPC   C1A32319  41.207   5.152   8.850
 2433POPC   D2A32320  41.108   5.130   8.440
 2433POPC   C3A32321  41.375   4.947   8.132
 2433POPC   C4A32322  41.155   4.840   7.794
 2433POPC   C1B32323  41.604   5.417   8.693
 2433POPC   C2B32324  41.524   5.433   8.258
 2433POPC   C3B32325  41.643   5.359   7.808
 2433POPC   C4B32326  42.061   5.326   7.620
 2434POPC   NC332327   9.238  29.377   9.471
 2434POPC   PO432328   8.567  29.368   9.454
 2434POPC   GL132329   8.847  29.205   9.153
 2434POPC   GL232330   9.103  28.930   9.225
 2434POPC   C1A32331   9.091  29.295   8.801
 2434POPC   D2A32332   9.189  29.105   8.421
 2434POPC   C3A32333   9.154  29.352   8.098
 2434POPC   C4A32334   8.976  29.246   7.726
 2434POPC   C1B32335   9.106  28.756   8.806
 2434POPC   C2B32336   9.356  28.623   8.439
 2434POPC   C3B32337   9.251  28.782   7.999
 2434POPC   C4B32338   9.293  28.883   7.559
 2435POPC   NC332339  33.735  29.275   9.564
 2435POPC   PO432340  33.433  28.774   9.368
 2435POPC   GL132341  33.735  28.904   9.090
 2435POPC   GL232342  34.075  28.894   9.162
 2435POPC   C1A32343  33.701  29.123   8.703
 2435POPC   D2A32344  33.697  29.464   8.423
 2435POPC   C3A32345  33.819  29.380   7.995
 2435POPC   C4A32346  33.674  28.992   7.787
 2435POPC   C1B32347  34.200  29.035   8.734
 2435POPC   C2B32348  34.135  29.152   8.324
 2435POPC   C3B32349  34.181  29.008   7.887
 2435POPC   C4B32350  34.077  29.133   7.447
 2436POPC   NC332351   1.301  42.807   9.339
 2436POPC   PO432352   1.021  43.362   9.654
 2436POPC   GL132353   1.158  43.312   9.210
 2436POPC   GL232354   0.846  43.187   9.077
 2436POPC   C1A32355   1.251  43.324   8.745
 2436POPC   D2A32356   1.445  43.075   8.376
 2436POPC   C3A32357   1.270  43.221   7.976
 2436POPC   C4A32358   1.163  43.236   7.524
 2436POPC   C1B32359   0.946  42.891   8.707
 2436POPC   C2B32360   0.945  42.911   8.254
 2436POPC   C3B32361   0.789  43.114   7.855
 2436POPC   C4B32362   0.770  42.931   7.403
 2437POPC   NC332363  41.868  43.546   9.805
 2437POPC   PO432364  41.535  44.124   9.551
 2437POPC   GL132365  41.626  43.859   9.189
 2437POPC   GL232366  41.347  43.984   9.045
 2437POPC   C1A32367  41.751  43.729   8.740
 2437POPC   D2A32368  41.895  43.420   8.425
 2437POPC   C3A32369  41.812  43.527   8.024
 2437POPC   C4A32370  41.872  43.406   7.617
 2437POPC   C1B32371  41.599  44.211   8.783
 2437POPC   C2B32372  41.389  44.091   8.434
 2437POPC   C3B32373  41.493  44.183   8.050
 2437POPC   C4B32374  41.649  43.936   7.749
 2438POPC   NC332375   0.280  34.249   9.740
 2438POPC   PO432376   0.765  34.642   9.479
 2438POPC   GL132377   0.616  34.522   9.067
 2438POPC   GL232378   0.713  34.201   8.991
 2438POPC   C1A32379   0.481  34.485   8.622
 2438POPC   D2A32380   0.323  34.330   8.220
 2438POPC   C3A32381   0.388  34.602   7.856
 2438POPC   C4A32382   0.793  34.704   7.653
 2438POPC   C1B32383   0.888  34.066   8.624
 2438POPC   C2B32384   0.825  34.279   8.269
 2438POPC   C3B32385   0.778  34.228   7.858
 2438POPC   C4B32386   0.852  34.197   7.412
 2439POPC   NC332387  35.403  13.449   9.545
 2439POPC   PO432388  35.255  14.144   9.612
 2439POPC   GL132389  35.384  13.845   9.238
 2439POPC   GL232390  35.112  13.582   9.157
 2439POPC   C1A32391  35.429  13.739   8.805
 2439POPC   D2A32392  35.118  13.879   8.504
 2439POPC   C3A32393  35.368  13.976   8.154
 2439POPC   C4A32394  35.399  13.746   7.782
 2439POPC   C1B32395  35.155  13.313   8.801
 2439POPC   C2B32396  35.283  13.401   8.405
 2439POPC   C3B32397  35.426  13.314   8.048
 2439POPC   C4B32398  35.169  13.300   7.710
 2440POPC   NC332399  36.469  36.657   9.436
 2440POPC   PO432400  35.834  36.901   9.470
 2440POPC   GL132401  35.963  36.724   9.055
 2440POPC   GL232402  36.268  36.520   8.975
 2440POPC   C1A32403  35.955  36.707   8.601
 2440POPC   D2A32404  36.010  36.589   8.184
 2440POPC   C3A32405  36.012  36.882   7.894
 2440POPC   C4A32406  36.135  37.326   7.868
 2440POPC   C1B32407  36.407  36.924   8.779
 2440POPC   C2B32408  36.359  37.121   8.356
 2440POPC   C3B32409  36.517  36.966   7.955
 2440POPC   C4B32410  36.429  36.657   7.659
 2441POPC   NC332411   8.182   2.275   9.605
 2441POPC   PO432412   8.474   1.655   9.413
 2441POPC   GL132413   8.415   1.892   9.128
 2441POPC   GL232414   8.090   1.945   9.134
 2441POPC   C1A32415   8.463   1.770   8.717
 2441POPC   D2A32416   8.384   1.895   8.308
 2441POPC   C3A32417   8.227   1.658   7.982
 2441POPC   C4A32418   8.077   1.798   7.561
 2441POPC   C1B32419   8.040   2.061   8.700
 2441POPC   C2B32420   8.102   2.327   8.368
 2441POPC   C3B32421   8.109   2.181   7.975
 2441POPC   C4B32422   7.791   2.216   7.676
 2442POPC   NC332423  43.764   1.325   9.528
 2442POPC   PO432424  44.186   0.945   9.105
 2442POPC   GL132425  43.808   1.160   9.044
 2442POPC   GL232426  43.813   1.539   9.081
 2442POPC   C1A32427  43.797   1.299   8.635
 2442POPC   D2A32428  44.209   1.203   8.499
 2442POPC   C3A32429  44.111   0.981   8.151
 2442POPC   C4A32430  43.964   1.125   7.774
 2442POPC   C1B32431  43.604   1.763   8.754
 2442POPC   C2B32432  43.659   1.694   8.316
 2442POPC   C3B32433  43.530   1.421   7.996
 2442POPC   C4B32434  43.628   1.490   7.552
 2443POPC   NC332435  24.928  21.673   9.532
 2443POPC   PO432436  25.640  21.451   9.558
 2443POPC   GL132437  25.351  21.606   9.245
 2443POPC   GL232438  25.113  21.327   9.194
 2443POPC   C1A32439  25.212  21.735   8.832
 2443POPC   D2A32440  24.918  21.591   8.509
 2443POPC   C3A32441  25.053  21.709   8.092
 2443POPC   C4A32442  24.975  21.521   7.678
 2443POPC   C1B32443  25.418  21.256   8.875
 2443POPC   C2B32444  25.303  21.255   8.466
 2443POPC   C3B32445  25.226  21.224   8.061
 2443POPC   C4B32446  25.435  21.333   7.710
 2444POPC   NC332447  41.321   0.450   9.561
 2444POPC   PO432448  41.774   0.831   9.613
 2444POPC   GL132449  41.655   0.465   9.202
 2444POPC   GL232450  41.364   0.179   9.146
 2444POPC   C1A32451  41.804   0.250   8.825
 2444POPC   D2A32452  42.068   0.421   8.441
 2444POPC   C3A32453  41.825   0.666   8.103
 2444POPC   C4A32454  41.507   0.615   7.777
 2444POPC   C1B32455  41.323   0.027   8.744
 2444POPC   C2B32456  41.295   0.260   8.362
 2444POPC   C3B32457  41.386   0.123   7.952
 2444POPC   C4B32458  41.507   0.193   7.514
 2445POPC   NC332459  37.419   8.973   9.519
 2445POPC   PO432460  36.791   9.053   9.558
 2445POPC   GL132461  36.804   8.927   9.142
 2445POPC   GL232462  37.164   8.866   9.071
 2445POPC   C1A32463  36.796   8.799   8.736
 2445POPC   D2A32464  37.027   8.958   8.424
 2445POPC   C3A32465  36.891   8.807   8.028
 2445POPC   C4A32466  36.747   8.872   7.647
 2445POPC   C1B32467  37.184   9.275   8.821
 2445POPC   C2B32468  37.215   9.443   8.381
 2445POPC   C3B32469  37.283   9.139   8.002
 2445POPC   C4B32470  37.211   9.027   7.560
 2446POPC   NC332471  21.793  39.759   9.401
 2446POPC   PO432472  22.265  40.222   9.498
 2446POPC   GL132473  22.044  40.244   9.129
 2446POPC   GL232474  21.821  40.025   8.958
 2446POPC   C1A32475  22.091  40.395   8.727
 2446POPC   D2A32476  21.998  40.168   8.357
 2446POPC   C3A32477  22.110  40.347   7.969
 2446POPC   C4A32478  22.169  40.173   7.573
 2446POPC   C1B32479  22.250  39.893   8.782
 2446POPC   C2B32480  22.342  39.774   8.338
 2446POPC   C3B32481  22.067  39.813   7.952
 2446POPC   C4B32482  21.997  39.712   7.502
 2447POPC   NC332483  26.303  20.201   9.381
 2447POPC   PO432484  26.023  19.652   9.632
 2447POPC   GL132485  25.967  19.821   9.247
 2447POPC   GL232486  26.306  19.717   9.178
 2447POPC   C1A32487  25.953  19.737   8.801
 2447POPC   D2A32488  26.001  19.548   8.398
 2447POPC   C3A32489  25.902  19.788   8.073
 2447POPC   C4A32490  25.787  19.928   7.691
 2447POPC   C1B32491  26.472  19.849   8.823
 2447POPC   C2B32492  26.544  19.643   8.480
 2447POPC   C3B32493  26.414  19.715   8.093
 2447POPC   C4B32494  26.311  19.700   7.680
 2448POPC   NC332495  44.757  24.908   9.420
 2448POPC   PO432496   0.031  25.459   9.486
 2448POPC   GL132497  44.656  25.379   9.217
 2448POPC   GL232498  44.475  25.095   9.041
 2448POPC   C1A32499  44.464  25.581   8.857
 2448POPC   D2A32500  44.309  25.564   8.456
 2448POPC   C3A32501  44.587  25.377   8.189
 2448POPC   C4A32502  44.659  25.436   7.783
 2448POPC   C1B32503  44.814  24.959   8.746
 2448POPC   C2B32504  44.971  25.034   8.313
 2448POPC   C3B32505  44.722  24.923   7.929
 2448POPC   C4B32506  44.776  25.025   7.504
 2449POPC   NC332507  44.407  10.848   9.286
 2449POPC   PO432508  43.896  11.147   9.595
 2449POPC   GL132509  43.984  11.275   9.191
 2449POPC   GL232510  43.942  10.946   9.087
 2449POPC   C1A32511  43.826  11.455   8.798
 2449POPC   D2A32512  43.743  11.371   8.357
 2449POPC   C3A32513  44.077  11.587   8.121
 2449POPC   C4A32514  44.148  11.685   7.688
 2449POPC   C1B32515  43.788  10.946   8.687
 2449POPC   C2B32516  43.557  10.881   8.321
 2449POPC   C3B32517  43.798  10.937   7.952
 2449POPC   C4B32518  43.726  11.354   7.809
 2450POPC   NC332519   6.117  37.515   9.411
 2450POPC   PO432520   6.615  37.969   9.482
 2450POPC   GL132521   6.479  37.860   9.079
 2450POPC   GL232522   6.504  37.512   9.078
 2450POPC   C1A32523   6.598  37.850   8.621
 2450POPC   D2A32524   6.915  37.796   8.279
 2450POPC   C3A32525   6.732  37.771   7.863
 2450POPC   C4A32526   6.749  37.918   7.428
 2450POPC   C1B32527   6.771  37.379   8.740
 2450POPC   C2B32528   6.659  37.358   8.312
 2450POPC   C3B32529   6.907  37.297   7.935
 2450POPC   C4B32530   6.851  37.404   7.505
 2451POPC   NC332531  23.148  20.255   9.410
 2451POPC   PO432532  22.880  20.930   9.395
 2451POPC   GL132533  22.918  20.623   9.102
 2451POPC   GL232534  22.737  20.307   9.096
 2451POPC   C1A32535  23.032  20.567   8.699
 2451POPC   D2A32536  23.201  20.739   8.346
 2451POPC   C3A32537  22.973  20.637   7.984
 2451POPC   C4A32538  23.138  20.449   7.662
 2451POPC   C1B32539  22.718  20.160   8.696
 2451POPC   C2B32540  22.916  20.246   8.307
 2451POPC   C3B32541  22.681  20.225   7.923
 2451POPC   C4B32542  22.789  20.117   7.528
 2452POPC   NC332543  11.642   0.308   9.519
 2452POPC   PO432544  11.062   0.674   9.542
 2452POPC   GL132545  11.217   0.406   9.218
 2452POPC   GL232546  11.010   0.157   9.053
 2452POPC   C1A32547  11.386   0.444   8.820
 2452POPC   D2A32548  11.389   0.341   8.388
 2452POPC   C3A32549  11.325   0.681   8.126
 2452POPC   C4A32550  11.412   0.683   7.709
 2452POPC   C1B32551  11.177  44.961   8.683
 2452POPC   C2B32552  11.145  44.922   8.231
 2452POPC   C3B32553  11.136   0.243   7.908
 2452POPC   C4B32554  10.897   0.132   7.587
 2453POPC   NC332555  36.438  35.245   9.492
 2453POPC   PO432556  35.895  35.610   9.386
 2453POPC   GL132557  36.104  35.383   9.052
 2453POPC   GL232558  36.455  35.269   9.009
 2453POPC   C1A32559  36.269  35.600   8.687
 2453POPC   D2A32560  36.461  35.433   8.326
 2453POPC   C3A32561  36.247  35.594   7.974
 2453POPC   C4A32562  36.314  35.609   7.541
 2453POPC   C1B32563  36.334  35.064   8.680
 2453POPC   C2B32564  36.452  34.907   8.310
 2453POPC   C3B32565  36.247  35.081   7.979
 2453POPC   C4B32566  36.080  35.167   7.590
 2454POPC   NC332567  40.912   5.594   9.314
 2454POPC   PO432568  40.763   6.163   9.554
 2454POPC   GL132569  40.706   6.051   9.128
 2454POPC   GL232570  40.465   6.272   8.981
 2454POPC   C1A32571  40.673   5.825   8.718
 2454POPC   D2A32572  40.512   5.870   8.294
 2454POPC   C3A32573  40.703   5.710   7.912
 2454POPC   C4A32574  40.914   5.808   7.496
 2454POPC   C1B32575  40.818   6.315   8.705
 2454POPC   C2B32576  40.995   6.097   8.383
 2454POPC   C3B32577  41.031   6.102   7.947
 2454POPC   C4B32578  41.144   6.286   7.548
 2455POPC   NC332579  26.666   7.498   9.504
 2455POPC   PO432580  27.207   7.099   9.588
 2455POPC   GL132581  27.015   7.259   9.162
 2455POPC   GL232582  27.034   7.582   9.123
 2455POPC   C1A32583  26.751   7.182   8.744
 2455POPC   D2A32584  26.441   7.189   8.414
 2455POPC   C3A32585  26.615   7.170   8.024
 2455POPC   C4A32586  26.714   7.277   7.619
 2455POPC   C1B32587  26.847   7.705   8.758
 2455POPC   C2B32588  26.650   7.668   8.366
 2455POPC   C3B32589  26.813   7.641   7.955
 2455POPC   C4B32590  26.996   7.690   7.533
 2456POPC   NC332591  17.132  30.909   9.578
 2456POPC   PO432592  16.478  30.563   9.501
 2456POPC   GL132593  16.734  30.605   9.143
 2456POPC   GL232594  16.927  30.307   9.071
 2456POPC   C1A32595  16.613  30.758   8.739
 2456POPC   D2A32596  16.739  30.709   8.322
 2456POPC   C3A32597  16.545  30.663   7.934
 2456POPC   C4A32598  16.612  30.991   7.644
 2456POPC   C1B32599  17.061  30.516   8.688
 2456POPC   C2B32600  17.221  30.605   8.275
 2456POPC   C3B32601  17.081  30.666   7.852
 2456POPC   C4B32602  17.028  30.362   7.537
 2457POPC   NC332603   3.938  28.851   9.387
 2457POPC   PO432604   4.538  29.240   9.462
 2457POPC   GL132605   4.310  29.103   9.154
 2457POPC   GL232606   4.489  28.857   9.083
 2457POPC   C1A32607   4.161  29.118   8.743
 2457POPC   D2A32608   4.293  28.969   8.334
 2457POPC   C3A32609   4.565  29.273   8.141
 2457POPC   C4A32610   4.478  29.535   7.794
 2457POPC   C1B32611   4.684  29.045   8.723
 2457POPC   C2B32612   4.808  28.845   8.347
 2457POPC   C3B32613   4.603  28.777   7.954
 2457POPC   C4B32614   4.264  29.054   7.775
 2458POPC   NC332615  34.968   6.594   9.362
 2458POPC   PO432616  34.352   6.241   9.417
 2458POPC   GL132617  34.497   6.487   9.113
 2458POPC   GL232618  34.489   6.780   9.085
 2458POPC   C1A32619  34.743   6.477   8.746
 2458POPC   D2A32620  34.653   6.680   8.392
 2458POPC   C3A32621  34.669   6.515   8.004
 2458POPC   C4A32622  34.395   6.537   7.669
 2458POPC   C1B32623  34.469   7.054   8.739
 2458POPC   C2B32624  34.277   7.041   8.348
 2458POPC   C3B32625  34.433   6.971   7.956
 2458POPC   C4B32626  34.525   6.979   7.475
 2459POPC   NC332627  34.741  36.257   9.530
 2459POPC   PO432628  34.182  36.338   9.263
 2459POPC   GL132629  34.541  36.324   9.045
 2459POPC   GL232630  34.743  36.001   9.106
 2459POPC   C1A32631  34.548  36.378   8.606
 2459POPC   D2A32632  34.682  36.156   8.254
 2459POPC   C3A32633  34.504  36.202   7.865
 2459POPC   C4A32634  34.817  36.151   7.607
 2459POPC   C1B32635  34.750  35.901   8.703
 2459POPC   C2B32636  34.864  35.621   8.373
 2459POPC   C3B32637  35.004  35.826   7.990
 2459POPC   C4B32638  34.906  35.648   7.616
 2460POPC   NC332639  30.960   8.790   9.617
 2460POPC   PO432640  30.479   9.174   9.423
 2460POPC   GL132641  30.883   9.153   9.212
 2460POPC   GL232642  31.047   9.476   9.205
 2460POPC   C1A32643  30.859   8.984   8.788
 2460POPC   D2A32644  30.579   9.124   8.429
 2460POPC   C3A32645  30.628   8.933   8.020
 2460POPC   C4A32646  30.376   8.583   7.881
 2460POPC   C1B32647  31.219   9.355   8.787
 2460POPC   C2B32648  31.080   9.188   8.365
 2460POPC   C3B32649  30.981   9.311   7.960
 2460POPC   C4B32650  30.788   9.261   7.549
 2461POPC   NC332651   7.624   0.596   9.397
 2461POPC   PO432652   6.901   0.674   9.491
 2461POPC   GL132653   7.158   0.720   9.126
 2461POPC   GL232654   7.295   0.384   9.076
 2461POPC   C1A32655   7.092   0.668   8.680
 2461POPC   D2A32656   7.093   0.403   8.328
 2461POPC   C3A32657   6.939   0.561   7.986
 2461POPC   C4A32658   7.237   0.732   7.729
 2461POPC   C1B32659   7.582   0.516   8.741
 2461POPC   C2B32660   7.595   0.342   8.330
 2461POPC   C3B32661   7.602   0.409   7.900
 2461POPC   C4B32662   7.910   0.166   7.699
 2462POPC   NC332663   8.024   8.044   9.459
 2462POPC   PO432664   8.524   8.508   9.467
 2462POPC   GL132665   8.366   8.266   9.134
 2462POPC   GL232666   8.023   8.345   9.061
 2462POPC   C1A32667   8.441   8.076   8.750
 2462POPC   D2A32668   8.270   7.905   8.373
 2462POPC   C3A32669   8.344   8.105   7.970
 2462POPC   C4A32670   8.238   8.531   7.832
 2462POPC   C1B32671   7.961   7.958   8.813
 2462POPC   C2B32672   7.752   7.876   8.443
 2462POPC   C3B32673   7.916   7.792   8.013
 2462POPC   C4B32674   7.902   8.073   7.660
 2463POPC   NC332675   0.330   0.834   9.454
 2463POPC   PO432676   0.728   1.407   9.488
 2463POPC   GL132677   0.398   1.255   9.179
 2463POPC   GL232678   0.420   0.947   8.944
 2463POPC   C1A32679   0.108   1.332   8.831
 2463POPC   D2A32680   0.161   1.159   8.424
 2463POPC   C3A32681   0.246   1.489   8.137
 2463POPC   C4A32682   0.222   1.331   7.738
 2463POPC   C1B32683   0.607   1.240   8.718
 2463POPC   C2B32684   0.709   1.307   8.339
 2463POPC   C3B32685   0.616   1.113   7.998
 2463POPC   C4B32686   0.535   0.939   7.639
 2464POPC   NC332687  18.742   2.276   9.337
 2464POPC   PO432688  19.357   2.026   9.599
 2464POPC   GL132689  19.222   2.026   9.159
 2464POPC   GL232690  18.966   1.821   9.134
 2464POPC   C1A32691  19.206   2.167   8.719
 2464POPC   D2A32692  18.896   2.167   8.380
 2464POPC   C3A32693  19.067   1.900   8.071
 2464POPC   C4A32694  19.364   2.061   7.778
 2464POPC   C1B32695  18.936   1.712   8.692
 2464POPC   C2B32696  18.637   1.711   8.365
 2464POPC   C3B32697  18.551   1.958   8.011
 2464POPC   C4B32698  18.771   1.839   7.644
 2465POPC   NC332699  14.093  12.977   9.244
 2465POPC   PO432700  13.436  13.000   9.487
 2465POPC   GL132701  13.607  12.925   9.093
 2465POPC   GL232702  13.708  12.612   9.176
 2465POPC   C1A32703  13.830  12.838   8.671
 2465POPC   D2A32704  14.043  12.955   8.285
 2465POPC   C3A32705  13.835  12.814   7.898
 2465POPC   C4A32706  13.429  12.906   7.722
 2465POPC   C1B32707  13.419  12.557   8.801
 2465POPC   C2B32708  13.543  12.524   8.383
 2465POPC   C3B32709  13.385  12.481   8.011
 2465POPC   C4B32710  13.422  12.384   7.620
 2466POPC   NC332711  23.918  17.495   9.461
 2466POPC   PO432712  23.224  17.444   9.311
 2466POPC   GL132713  23.444  17.643   8.969
 2466POPC   GL232714  23.728  17.809   9.102
 2466POPC   C1A32715  23.516  17.575   8.535
 2466POPC   D2A32716  23.730  17.197   8.365
 2466POPC   C3A32717  23.772  17.266   7.934
 2466POPC   C4A32718  23.412  17.505   7.779
 2466POPC   C1B32719  23.971  17.629   8.773
 2466POPC   C2B32720  24.002  17.618   8.344
 2466POPC   C3B32721  23.750  17.768   8.053
 2466POPC   C4B32722  23.924  17.729   7.704
 2467POPC   NC332723  39.888  42.648   9.517
 2467POPC   PO432724  40.414  42.143   9.606
 2467POPC   GL132725  40.183  42.253   9.210
 2467POPC   GL232726  39.805  42.261   9.190
 2467POPC   C1A32727  40.066  42.376   8.772
 2467POPC   D2A32728  40.190  42.449   8.374
 2467POPC   C3A32729  39.984  42.384   8.002
 2467POPC   C4A32730  40.242  42.395   7.584
 2467POPC   C1B32731  39.646  42.608   8.915
 2467POPC   C2B32732  39.664  42.567   8.461
 2467POPC   C3B32733  39.562  42.683   8.025
 2467POPC   C4B32734  39.756  42.576   7.593
 2468POPC   NC332735  39.660  22.753   9.674
 2468POPC   PO432736  40.292  22.597   9.428
 2468POPC   GL132737  39.977  22.722   9.068
 2468POPC   GL232738  39.640  22.860   9.168
 2468POPC   C1A32739  39.898  23.077   8.725
 2468POPC   D2A32740  40.043  23.178   8.269
 2468POPC   C3A32741  40.252  22.869   7.943
 2468POPC   C4A32742  40.277  22.770   7.471
 2468POPC   C1B32743  39.437  22.890   8.794
 2468POPC   C2B32744  39.488  23.035   8.401
 2468POPC   C3B32745  39.590  23.193   8.009
 2468POPC   C4B32746  39.846  23.017   7.678
 2469POPC   NC332747   5.074  29.635   9.468
 2469POPC   PO432748   4.923  30.278   9.343
 2469POPC   GL132749   5.168  30.003   9.090
 2469POPC   GL232750   5.328  29.608   9.029
 2469POPC   C1A32751   5.032  30.176   8.688
 2469POPC   D2A32752   4.884  30.366   8.329
 2469POPC   C3A32753   5.109  30.222   7.983
 2469POPC   C4A32754   5.008  30.092   7.622
 2469POPC   C1B32755   5.012  29.665   8.744
 2469POPC   C2B32756   5.087  29.825   8.321
 2469POPC   C3B32757   5.086  29.643   7.911
 2469POPC   C4B32758   5.319  29.372   7.594
 2470POPC   NC332759   6.627  28.715   9.421
 2470POPC   PO432760   6.999  28.142   9.509
 2470POPC   GL132761   6.747  28.276   9.149
 2470POPC   GL232762   6.379  28.355   9.149
 2470POPC   C1A32763   6.654  28.110   8.738
 2470POPC   D2A32764   6.949  28.097   8.405
 2470POPC   C3A32765   6.885  27.906   8.060
 2470POPC   C4A32766   6.769  27.963   7.664
 2470POPC   C1B32767   6.534  28.624   8.786
 2470POPC   C2B32768   6.596  28.469   8.368
 2470POPC   C3B32769   6.476  28.248   7.990
 2470POPC   C4B32770   6.516  28.404   7.561
 2471POPC   NC332771   7.380  27.086   9.582
 2471POPC   PO432772   7.681  26.463   9.513
 2471POPC   GL132773   7.693  26.883   9.220
 2471POPC   GL232774   7.335  26.942   9.107
 2471POPC   C1A32775   7.657  27.104   8.768
 2471POPC   D2A32776   7.341  27.065   8.418
 2471POPC   C3A32777   7.464  27.049   7.996
 2471POPC   C4A32778   7.749  26.715   7.839
 2471POPC   C1B32779   7.238  26.576   8.869
 2471POPC   C2B32780   7.082  26.608   8.452
 2471POPC   C3B32781   7.231  26.606   8.023
 2471POPC   C4B32782   7.202  26.346   7.670
 2472POPC   NC332783  11.379  21.006   9.578
 2472POPC   PO432784  11.241  20.382   9.470
 2472POPC   GL132785  11.228  20.449   9.075
 2472POPC   GL232786  11.381  20.784   9.109
 2472POPC   C1A32787  11.435  20.497   8.676
 2472POPC   D2A32788  11.599  20.415   8.281
 2472POPC   C3A32789  11.500  20.728   8.005
 2472POPC   C4A32790  11.226  20.569   7.710
 2472POPC   C1B32791  11.058  20.811   8.787
 2472POPC   C2B32792  11.158  20.844   8.391
 2472POPC   C3B32793  11.008  20.886   8.026
 2472POPC   C4B32794  11.191  21.066   7.695
 2473POPC   NC332795  38.764  10.114   9.425
 2473POPC   PO432796  38.443   9.541   9.537
 2473POPC   GL132797  38.444   9.796   9.162
 2473POPC   GL232798  38.218  10.052   9.136
 2473POPC   C1A32799  38.607   9.794   8.745
 2473POPC   D2A32800  38.468   9.429   8.485
 2473POPC   C3A32801  38.226   9.477   8.107
 2473POPC   C4A32802  38.417   9.498   7.701
 2473POPC   C1B32803  38.099   9.769   8.768
 2473POPC   C2B32804  38.235   9.906   8.392
 2473POPC   C3B32805  38.268  10.214   8.111
 2473POPC   C4B32806  38.244  10.012   7.729
 2474POPC   NC332807  28.104  12.112   9.714
 2474POPC   PO432808  28.702  12.296   9.586
 2474POPC   GL132809  28.514  12.188   9.203
 2474POPC   GL232810  28.552  11.885   9.218
 2474POPC   C1A32811  28.650  12.174   8.785
 2474POPC   D2A32812  28.638  11.921   8.434
 2474POPC   C3A32813  28.468  12.038   8.065
 2474POPC   C4A32814  28.436  12.286   7.704
 2474POPC   C1B32815  28.321  11.790   8.826
 2474POPC   C2B32816  28.108  11.691   8.459
 2474POPC   C3B32817  27.988  11.833   8.067
 2474POPC   C4B32818  28.231  11.725   7.738
 2475POPC   NC332819  17.104   8.495   9.576
 2475POPC   PO432820  17.505   8.023   9.348
 2475POPC   GL132821  17.399   8.115   9.009
 2475POPC   GL232822  17.269   8.426   9.089
 2475POPC   C1A32823  17.516   8.128   8.630
 2475POPC   D2A32824  17.427   7.978   8.256
 2475POPC   C3A32825  17.651   8.124   7.915
 2475POPC   C4A32826  17.661   7.983   7.475
 2475POPC   C1B32827  17.488   8.626   8.748
 2475POPC   C2B32828  17.601   8.520   8.306
 2475POPC   C3B32829  17.320   8.535   7.962
 2475POPC   C4B32830  17.349   8.396   7.563
 2476POPC   NC332831  17.383  16.879   9.464
 2476POPC   PO432832  17.336  16.324   9.830
 2476POPC   GL132833  17.509  16.345   9.314
 2476POPC   GL232834  17.728  16.604   9.151
 2476POPC   C1A32835  17.363  16.523   8.826
 2476POPC   D2A32836  17.287  16.817   8.441
 2476POPC   C3A32837  17.307  16.682   7.990
 2476POPC   C4A32838  17.382  16.764   7.515
 2476POPC   C1B32839  17.696  16.906   8.776
 2476POPC   C2B32840  17.782  16.957   8.321
 2476POPC   C3B32841  17.879  17.207   7.929
 2476POPC   C4B32842  17.838  16.905   7.628
 2477POPC   NC332843  13.035   2.180   9.449
 2477POPC   PO432844  12.485   1.752   9.540
 2477POPC   GL132845  12.693   1.904   9.168
 2477POPC   GL232846  12.464   2.148   9.079
 2477POPC   C1A32847  12.882   2.050   8.760
 2477POPC   D2A32848  12.718   2.142   8.345
 2477POPC   C3A32849  12.874   1.990   7.922
 2477POPC   C4A32850  13.086   2.133   7.534
 2477POPC   C1B32851  12.387   1.862   8.722
 2477POPC   C2B32852  12.520   1.680   8.329
 2477POPC   C3B32853  12.426   1.638   7.897
 2477POPC   C4B32854  12.494   1.903   7.539
 2478POPC   NC332855  10.836  42.698   9.509
 2478POPC   PO432856  10.326  42.237   9.735
 2478POPC   GL132857  10.279  42.324   9.273
 2478POPC   GL232858  10.251  42.689   9.230
 2478POPC   C1A32859  10.378  42.159   8.835
 2478POPC   D2A32860  10.442  41.921   8.433
 2478POPC   C3A32861  10.549  42.037   8.012
 2478POPC   C4A32862  10.460  41.777   7.621
 2478POPC   C1B32863  10.290  42.662   8.759
 2478POPC   C2B32864  10.530  42.447   8.409
 2478POPC   C3B32865  10.684  42.578   8.000
 2478POPC   C4B32866  10.562  42.615   7.582
 2479POPC   NC332867  17.963  17.663   9.312
 2479POPC   PO432868  17.425  17.330   9.544
 2479POPC   GL132869  17.291  17.406   9.151
 2479POPC   GL232870  17.490  17.697   9.071
 2479POPC   C1A32871  17.348  17.342   8.713
 2479POPC   D2A32872  17.597  17.435   8.367
 2479POPC   C3A32873  17.396  17.213   8.051
 2479POPC   C4A32874  17.466  17.272   7.608
 2479POPC   C1B32875  17.491  17.941   8.685
 2479POPC   C2B32876  17.468  17.922   8.261
 2479POPC   C3B32877  17.443  17.734   7.895
 2479POPC   C4B32878  17.415  18.085   7.604
 2480POPC   NC332879  15.876  16.522   9.498
 2480POPC   PO432880  16.257  16.932   9.771
 2480POPC   GL132881  16.089  16.932   9.280
 2480POPC   GL232882  16.248  16.626   9.139
 2480POPC   C1A32883  15.928  16.846   8.792
 2480POPC   D2A32884  15.933  16.539   8.412
 2480POPC   C3A32885  15.705  16.554   8.009
 2480POPC   C4A32886  15.753  16.671   7.597
 2480POPC   C1B32887  16.431  16.494   8.750
 2480POPC   C2B32888  16.362  16.280   8.340
 2480POPC   C3B32889  16.241  16.471   7.941
 2480POPC   C4B32890  16.254  16.521   7.500
 2481POPC   NC332891   2.247  27.957   9.778
 2481POPC   PO432892   1.898  28.427   9.525
 2481POPC   GL132893   2.000  28.412   9.120
 2481POPC   GL232894   2.327  28.288   9.055
 2481POPC   C1A32895   2.051  28.564   8.717
 2481POPC   D2A32896   1.817  28.476   8.379
 2481POPC   C3A32897   1.960  28.426   7.980
 2481POPC   C4A32898   1.761  28.581   7.612
 2481POPC   C1B32899   2.284  27.987   8.745
 2481POPC   C2B32900   2.170  28.094   8.328
 2481POPC   C3B32901   2.292  28.017   7.905
 2481POPC   C4B32902   2.223  28.272   7.557
 2482POPC   NC332903  34.212  41.424   9.443
 2482POPC   PO432904  34.773  41.675   9.417
 2482POPC   GL132905  34.716  41.387   9.068
 2482POPC   GL232906  34.386  41.334   8.971
 2482POPC   C1A32907  34.754  41.205   8.644
 2482POPC   D2A32908  34.509  41.339   8.301
 2482POPC   C3A32909  34.518  41.160   7.907
 2482POPC   C4A32910  34.388  41.356   7.509
 2482POPC   C1B32911  34.528  41.675   8.678
 2482POPC   C2B32912  34.406  41.846   8.264
 2482POPC   C3B32913  34.247  41.714   7.855
 2482POPC   C4B32914  34.172  41.905   7.444
 2483POPC   NC332915  43.066  34.878   9.534
 2483POPC   PO432916  43.281  34.225   9.558
 2483POPC   GL132917  43.050  34.320   9.199
 2483POPC   GL232918  43.326  34.237   8.996
 2483POPC   C1A32919  43.085  34.681   8.892
 2483POPC   D2A32920  43.132  34.756   8.424
 2483POPC   C3A32921  43.104  34.695   7.942
 2483POPC   C4A32922  43.199  34.801   7.493
 2483POPC   C1B32923  42.956  34.234   8.692
 2483POPC   C2B32924  42.967  34.273   8.262
 2483POPC   C3B32925  43.366  34.276   8.060
 2483POPC   C4B32926  43.425  34.389   7.653
 2484POPC   NC332927  35.715  14.179   9.504
 2484POPC   PO432928  36.312  14.587   9.554
 2484POPC   GL132929  36.201  14.283   9.271
 2484POPC   GL232930  35.927  14.481   9.158
 2484POPC   C1A32931  36.295  14.278   8.842
 2484POPC   D2A32932  36.321  14.512   8.468
 2484POPC   C3A32933  36.084  14.446   8.072
 2484POPC   C4A32934  36.246  14.252   7.666
 2484POPC   C1B32935  35.851  14.575   8.751
 2484POPC   C2B32936  35.940  14.832   8.404
 2484POPC   C3B32937  35.869  14.900   7.962
 2484POPC   C4B32938  35.745  14.610   7.663
 2485POPC   NC332939   8.259  29.701   9.445
 2485POPC   PO432940   8.149  30.271   9.663
 2485POPC   GL132941   8.139  30.095   9.187
 2485POPC   GL232942   7.876  30.160   8.993
 2485POPC   C1A32943   8.352  29.994   8.779
 2485POPC   D2A32944   8.359  29.627   8.465
 2485POPC   C3A32945   8.245  29.808   8.040
 2485POPC   C4A32946   8.420  29.790   7.619
 2485POPC   C1B32947   7.918  29.738   8.775
 2485POPC   C2B32948   7.859  29.526   8.360
 2485POPC   C3B32949   7.736  29.726   7.985
 2485POPC   C4B32950   7.886  29.928   7.630
 2486POPC   NC332951   2.321  41.536   9.346
 2486POPC   PO432952   2.917  41.911   9.574
 2486POPC   GL132953   2.995  41.623   9.202
 2486POPC   GL232954   2.704  41.479   9.021
 2486POPC   C1A32955   3.064  41.700   8.743
 2486POPC   D2A32956   2.932  41.400   8.403
 2486POPC   C3A32957   2.766  41.519   7.992
 2486POPC   C4A32958   2.769  41.392   7.563
 2486POPC   C1B32959   2.397  41.525   8.695
 2486POPC   C2B32960   2.151  41.819   8.469
 2486POPC   C3B32961   2.246  41.702   8.054
 2486POPC   C4B32962   2.423  41.745   7.653
 2487POPC   NC332963  17.767  44.002   9.435
 2487POPC   PO432964  17.219  43.552   9.341
 2487POPC   GL132965  17.385  43.888   9.116
 2487POPC   GL232966  17.211  44.227   9.158
 2487POPC   C1A32967  17.690  43.864   8.787
 2487POPC   D2A32968  17.727  44.057   8.398
 2487POPC   C3A32969  17.856  43.815   8.049
 2487POPC   C4A32970  17.632  43.752   7.678
 2487POPC   C1B32971  17.326  44.228   8.736
 2487POPC   C2B32972  17.231  44.013   8.337
 2487POPC   C3B32973  17.441  44.144   7.950
 2487POPC   C4B32974  17.294  44.118   7.526
 2488POPC   NC332975  33.298   4.360   9.553
 2488POPC   PO432976  32.622   4.322   9.452
 2488POPC   GL132977  32.956   4.337   9.160
 2488POPC   GL232978  32.743   4.188   8.958
 2488POPC   C1A32979  33.227   4.224   8.806
 2488POPC   D2A32980  33.344   4.141   8.391
 2488POPC   C3A32981  33.087   4.388   8.114
 2488POPC   C4A32982  33.030   4.350   7.670
 2488POPC   C1B32983  32.797   4.502   8.671
 2488POPC   C2B32984  32.517   4.647   8.331
 2488POPC   C3B32985  32.580   4.459   7.923
 2488POPC   C4B32986  32.591   4.385   7.435
 2489POPC   NC332987   2.489  16.152   9.424
 2489POPC   PO432988   3.023  15.748   9.625
 2489POPC   GL132989   2.881  15.928   9.184
 2489POPC   GL232990   2.576  15.737   9.136
 2489POPC   C1A32991   2.670  16.050   8.751
 2489POPC   D2A32992   2.797  16.132   8.304
 2489POPC   C3A32993   2.921  15.849   7.942
 2489POPC   C4A32994   2.767  16.130   7.619
 2489POPC   C1B32995   2.556  15.545   8.716
 2489POPC   C2B32996   2.463  15.557   8.256
 2489POPC   C3B32997   2.417  15.848   7.893
 2489POPC   C4B32998   2.356  15.887   7.436
 2490POPC   NC332999  17.463  13.370   9.445
 2490POPC   PO433000  17.795  14.099   9.411
 2490POPC   GL133001  17.713  13.707   9.171
 2490POPC   GL233002  17.342  13.680   9.086
 2490POPC   C1A33003  17.728  13.485   8.782
 2490POPC   D2A33004  17.433  13.558   8.439
 2490POPC   C3A33005  17.556  13.769   8.058
 2490POPC   C4A33006  17.824  13.567   7.762
 2490POPC   C1B33007  17.111  13.938   8.851
 2490POPC   C2B33008  17.198  14.029   8.452
 2490POPC   C3B33009  17.042  13.798   8.091
 2490POPC   C4B33010  17.109  13.507   7.767
 2491POPC   NC333011  26.216  38.043   9.539
 2491POPC   PO433012  25.841  38.561   9.431
 2491POPC   GL133013  26.081  38.397   9.147
 2491POPC   GL233014  25.910  38.076   9.125
 2491POPC   C1A33015  26.246  38.578   8.769
 2491POPC   D2A33016  26.086  38.837   8.484
 2491POPC   C3A33017  26.132  38.718   8.089
 2491POPC   C4A33018  26.066  38.556   7.704
 2491POPC   C1B33019  26.223  38.073   8.785
 2491POPC   C2B33020  26.188  38.234   8.359
 2491POPC   C3B33021  26.045  38.125   7.952
 2491POPC   C4B33022  26.091  38.055   7.504
 2492POPC   NC333023  12.964  41.822   9.298
 2492POPC   PO433024  12.605  41.213   9.390
 2492POPC   GL133025  12.775  41.416   9.074
 2492POPC   GL233026  12.526  41.593   9.045
 2492POPC   C1A33027  12.823  41.322   8.668
 2492POPC   D2A33028  12.643  41.449   8.309
 2492POPC   C3A33029  12.965  41.499   8.023
 2492POPC   C4A33030  12.792  41.248   7.736
 2492POPC   C1B33031  12.689  41.844   8.702
 2492POPC   C2B33032  12.662  41.951   8.280
 2492POPC   C3B33033  12.568  41.796   7.870
 2492POPC   C4B33034  12.389  41.855   7.449
 2493POPC   NC333035  25.439  31.590   9.388
 2493POPC   PO433036  24.925  31.065   9.266
 2493POPC   GL133037  25.224  31.278   9.035
 2493POPC   GL233038  25.503  31.105   9.226
 2493POPC   C1A33039  25.258  31.688   8.775
 2493POPC   D2A33040  25.387  31.795   8.365
 2493POPC   C3A33041  25.177  31.497   8.108
 2493POPC   C4A33042  25.236  31.328   7.715
 2493POPC   C1B33043  25.625  31.051   8.809
 2493POPC   C2B33044  25.580  31.245   8.411
 2493POPC   C3B33045  25.853  31.232   8.076
 2493POPC   C4B33046  25.749  31.301   7.674
 2494POPC   NC333047  22.570  40.593   9.439
 2494POPC   PO433048  23.141  41.048   9.476
 2494POPC   GL133049  22.951  40.852   9.164
 2494POPC   GL233050  22.958  40.499   9.081
 2494POPC   C1A33051  22.920  40.929   8.767
 2494POPC   D2A33052  22.795  40.704   8.436
 2494POPC   C3A33053  22.889  41.004   8.128
 2494POPC   C4A33054  22.826  40.937   7.712
 2494POPC   C1B33055  23.241  40.510   8.717
 2494POPC   C2B33056  23.263  40.667   8.295
 2494POPC   C3B33057  23.025  40.499   7.973
 2494POPC   C4B33058  23.045  40.506   7.530
 2495POPC   NC333059  33.261  17.824   9.966
 2495POPC   PO433060  32.835  18.151   9.508
 2495POPC   GL133061  32.941  18.251   9.115
 2495POPC   GL233062  33.288  18.211   9.130
 2495POPC   C1A33063  32.980  18.446   8.722
 2495POPC   D2A33064  32.760  18.280   8.396
 2495POPC   C3A33065  32.977  18.193   8.045
 2495POPC   C4A33066  32.753  18.218   7.669
 2495POPC   C1B33067  33.148  17.961   8.757
 2495POPC   C2B33068  33.308  17.953   8.362
 2495POPC   C3B33069  33.427  17.909   7.952
 2495POPC   C4B33070  33.281  18.166   7.634
 2496POPC   NC333071   6.731  25.484   9.383
 2496POPC   PO433072   6.713  26.220   9.461
 2496POPC   GL133073   6.734  25.924   9.144
 2496POPC   GL233074   6.390  25.772   9.148
 2496POPC   C1A33075   6.888  25.961   8.729
 2496POPC   D2A33076   6.702  26.254   8.441
 2496POPC   C3A33077   6.856  26.251   8.054
 2496POPC   C4A33078   6.676  26.160   7.667
 2496POPC   C1B33079   6.385  26.024   8.776
 2496POPC   C2B33080   6.206  25.986   8.405
 2496POPC   C3B33081   6.242  25.757   8.034
 2496POPC   C4B33082   6.373  25.671   7.649
 2497POPC   NC333083   3.250  13.589   9.354
 2497POPC   PO433084   2.648  13.875   9.619
 2497POPC   GL133085   2.754  13.707   9.242
 2497POPC   GL233086   2.703  13.358   9.276
 2497POPC   C1A33087   2.813  13.722   8.814
 2497POPC   D2A33088   2.606  13.600   8.431
 2497POPC   C3A33089   2.870  13.646   8.082
 2497POPC   C4A33090   2.662  13.679   7.708
 2497POPC   C1B33091   2.526  13.284   8.846
 2497POPC   C2B33092   2.470  13.104   8.404
 2497POPC   C3B33093   2.568  13.241   7.982
 2497POPC   C4B33094   2.950  13.255   7.726
 2498POPC   NC333095  32.381  16.316   9.231
 2498POPC   PO433096  32.082  16.731   9.585
 2498POPC   GL133097  32.174  16.842   9.167
 2498POPC   GL233098  31.949  17.116   9.192
 2498POPC   C1A33099  32.313  16.734   8.728
 2498POPC   D2A33100  32.584  16.696   8.382
 2498POPC   C3A33101  32.368  16.645   8.001
 2498POPC   C4A33102  31.963  16.491   7.886
 2498POPC   C1B33103  32.120  17.189   8.789
 2498POPC   C2B33104  31.979  17.248   8.380
 2498POPC   C3B33105  32.103  17.074   8.004
 2498POPC   C4B33106  32.323  17.009   7.619
 2499POPC   NC333107  18.473  25.736   9.426
 2499POPC   PO433108  18.397  26.469   9.471
 2499POPC   GL133109  18.257  26.149   9.139
 2499POPC   GL233110  18.578  26.109   9.013
 2499POPC   C1A33111  18.188  26.025   8.678
 2499POPC   D2A33112  18.120  25.759   8.265
 2499POPC   C3A33113  17.969  25.960   7.898
 2499POPC   C4A33114  18.013  26.050   7.468
 2499POPC   C1B33115  18.694  25.897   8.597
 2499POPC   C2B33116  18.633  25.799   8.138
 2499POPC   C3B33117  18.450  26.042   7.781
 2499POPC   C4B33118  18.481  26.139   7.316
 2500POPC   NC333119  35.591  31.373   9.530
 2500POPC   PO433120  35.092  31.772   9.689
 2500POPC   GL133121  35.195  31.549   9.260
 2500POPC   GL233122  35.093  31.333   9.134
 2500POPC   C1A33123  35.500  31.458   8.880
 2500POPC   D2A33124  35.535  31.389   8.434
 2500POPC   C3A33125  35.334  31.596   8.085
 2500POPC   C4A33126  35.458  31.532   7.672
 2500POPC   C1B33127  35.025  31.579   8.765
 2500POPC   C2B33128  34.989  31.340   8.408
 2500POPC   C3B33129  35.114  31.129   8.062
 2500POPC   C4B33130  34.949  31.266   7.721
 2501POPC   NC333131  43.860  15.451   9.565
 2501POPC   PO433132  44.149  14.783   9.484
 2501POPC   GL133133  44.041  15.089   9.125
 2501POPC   GL233134  43.786  15.366   9.084
 2501POPC   C1A33135  44.004  15.176   8.666
 2501POPC   D2A33136  43.800  14.998   8.278
 2501POPC   C3A33137  43.985  15.187   7.918
 2501POPC   C4A33138  44.397  15.270   7.823
 2501POPC   C1B33139  43.858  15.669   8.775
 2501POPC   C2B33140  43.914  15.598   8.331
 2501POPC   C3B33141  43.643  15.554   7.996
 2501POPC   C4B33142  43.554  15.340   7.615
 2502POPC   NC333143  33.702   7.762   9.479
 2502POPC   PO433144  33.668   8.431   9.602
 2502POPC   GL133145  33.681   8.194   9.192
 2502POPC   GL233146  34.001   8.020   9.112
 2502POPC   C1A33147  33.687   8.216   8.734
 2502POPC   D2A33148  33.879   8.407   8.367
 2502POPC   C3A33149  33.811   8.241   7.929
 2502POPC   C4A33150  33.701   7.977   7.559
 2502POPC   C1B33151  34.200   8.122   8.684
 2502POPC   C2B33152  34.236   8.103   8.197
 2502POPC   C3B33153  34.147   7.894   7.780
 2502POPC   C4B33154  34.119   8.077   7.303
 2503POPC   NC333155  28.498   4.862   9.641
 2503POPC   PO433156  28.434   4.224   9.720
 2503POPC   GL133157  28.536   4.346   9.269
 2503POPC   GL233158  28.704   4.650   9.219
 2503POPC   C1A33159  28.282   4.255   8.846
 2503POPC   D2A33160  28.063   4.415   8.464
 2503POPC   C3A33161  28.142   4.268   8.033
 2503POPC   C4A33162  28.159   4.334   7.589
 2503POPC   C1B33163  28.749   4.493   8.836
 2503POPC   C2B33164  28.822   4.607   8.441
 2503POPC   C3B33165  28.945   4.605   8.068
 2503POPC   C4B33166  28.608   4.586   7.768
 2504POPC   NC333167   5.482  31.274   9.420
 2504POPC   PO433168   4.837  31.681   9.505
 2504POPC   GL133169   4.877  31.543   9.112
 2504POPC   GL233170   5.215  31.639   9.162
 2504POPC   C1A33171   5.066  31.447   8.719
 2504POPC   D2A33172   4.900  31.456   8.331
 2504POPC   C3A33173   5.189  31.475   7.991
 2504POPC   C4A33174   4.992  31.480   7.568
 2504POPC   C1B33175   5.276  31.945   8.866
 2504POPC   C2B33176   5.254  31.881   8.437
 2504POPC   C3B33177   5.137  31.984   8.040
 2504POPC   C4B33178   5.285  31.865   7.678
 2505POPC   NC333179  19.240  16.819   9.625
 2505POPC   PO433180  18.639  16.537   9.458
 2505POPC   GL133181  19.007  16.665   9.194
 2505POPC   GL233182  19.201  16.983   9.164
 2505POPC   C1A33183  19.158  16.643   8.789
 2505POPC   D2A33184  19.044  16.420   8.428
 2505POPC   C3A33185  19.059  16.615   8.060
 2505POPC   C4A33186  18.981  16.534   7.655
 2505POPC   C1B33187  19.110  17.161   8.788
 2505POPC   C2B33188  19.065  16.988   8.409
 2505POPC   C3B33189  19.125  17.120   8.012
 2505POPC   C4B33190  19.303  16.929   7.634
 2506POPC   NC333191   7.486  20.460   9.645
 2506POPC   PO433192   7.575  19.860   9.337
 2506POPC   GL133193   7.425  19.858   8.995
 2506POPC   GL233194   7.163  20.088   9.092
 2506POPC   C1A33195   7.629  19.873   8.622
 2506POPC   D2A33196   7.502  20.064   8.249
 2506POPC   C3A33197   7.581  19.760   7.974
 2506POPC   C4A33198   7.473  19.583   7.579
 2506POPC   C1B33199   7.155  20.116   8.650
 2506POPC   C2B33200   6.977  19.977   8.285
 2506POPC   C3B33201   7.085  19.804   7.938
 2506POPC   C4B33202   7.241  20.037   7.647
 2507POPC   NC333203  18.103  42.356   9.412
 2507POPC   PO433204  18.609  42.803   9.353
 2507POPC   GL133205  18.509  42.418   9.090
 2507POPC   GL233206  18.479  42.043   9.110
 2507POPC   C1A33207  18.361  42.314   8.674
 2507POPC   D2A33208  18.537  42.397   8.283
 2507POPC   C3A33209  18.255  42.542   7.944
 2507POPC   C4A33210  18.296  42.478   7.484
 2507POPC   C1B33211  18.082  41.932   8.871
 2507POPC   C2B33212  17.911  42.109   8.511
 2507POPC   C3B33213  18.124  42.089   8.146
 2507POPC   C4B33214  18.169  42.065   7.740
 2508POPC   NC333215   5.354  30.415   9.447
 2508POPC   PO433216   6.076  30.291   9.411
 2508POPC   GL133217   6.057  30.736   9.215
 2508POPC   GL233218   5.698  30.810   9.252
 2508POPC   C1A33219   5.913  31.058   8.857
 2508POPC   D2A33220   5.617  31.053   8.504
 2508POPC   C3A33221   5.845  31.013   8.104
 2508POPC   C4A33222   5.784  30.814   7.685
 2508POPC   C1B33223   5.709  30.603   8.850
 2508POPC   C2B33224   5.781  30.579   8.420
 2508POPC   C3B33225   5.494  30.605   8.064
 2508POPC   C4B33226   5.590  30.333   7.725
 2509POPC   NC333227  24.889   7.241   9.443
 2509POPC   PO433228  25.634   7.129   9.361
 2509POPC   GL133229  25.279   7.180   9.106
 2509POPC   GL233230  25.199   7.521   9.129
 2509POPC   C1A33231  25.008   7.209   8.745
 2509POPC   D2A33232  25.199   7.304   8.343
 2509POPC   C3A33233  25.138   7.147   7.905
 2509POPC   C4A33234  25.060   7.285   7.436
 2509POPC   C1B33235  25.266   7.670   8.716
 2509POPC   C2B33236  25.046   7.829   8.372
 2509POPC   C3B33237  25.091   7.649   7.983
 2509POPC   C4B33238  25.140   7.765   7.599
 2510POPC   NC333239   5.438  10.718   9.631
 2510POPC   PO433240   5.018  10.249   9.518
 2510POPC   GL133241   4.926  10.436   9.137
 2510POPC   GL233242   4.995  10.760   9.191
 2510POPC   C1A33243   4.927  10.330   8.733
 2510POPC   D2A33244   5.091  10.474   8.345
 2510POPC   C3A33245   4.853  10.330   7.963
 2510POPC   C4A33246   4.943  10.467   7.561
 2510POPC   C1B33247   5.136  10.869   8.751
 2510POPC   C2B33248   5.331  10.941   8.306
 2510POPC   C3B33249   5.245  10.722   7.906
 2510POPC   C4B33250   5.439  10.546   7.517
 2511POPC   NC333251   6.927  44.229   9.463
 2511POPC   PO433252   6.454  43.813   9.485
 2511POPC   GL133253   6.505  44.113   9.188
 2511POPC   GL233254   6.715  43.883   9.021
 2511POPC   C1A33255   6.628  44.317   8.795
 2511POPC   D2A33256   6.890  44.067   8.510
 2511POPC   C3A33257   6.647  43.911   8.176
 2511POPC   C4A33258   6.660  44.026   7.750
 2511POPC   C1B33259   6.714  43.599   8.680
 2511POPC   C2B33260   6.934  43.488   8.302
 2511POPC   C3B33261   6.983  43.645   7.887
 2511POPC   C4B33262   6.839  43.554   7.469
 2512POPC   NC333263   7.710  38.354   9.412
 2512POPC   PO433264   7.186  38.777   9.625
 2512POPC   GL133265   7.266  38.594   9.223
 2512POPC   GL233266   7.549  38.744   9.135
 2512POPC   C1A33267   7.279  38.421   8.776
 2512POPC   D2A33268   7.281  38.124   8.415
 2512POPC   C3A33269   7.137  38.368   8.035
 2512POPC   C4A33270   7.225  38.814   7.977
 2512POPC   C1B33271   7.781  38.562   8.804
 2512POPC   C2B33272   7.863  38.714   8.423
 2512POPC   C3B33273   7.767  38.560   8.024
 2512POPC   C4B33274   7.998  38.232   7.776
 2513POPC   NC333275  42.410  35.854   9.522
 2513POPC   PO433276  41.876  36.290   9.406
 2513POPC   GL133277  42.217  36.207   9.168
 2513POPC   GL233278  42.100  35.896   9.107
 2513POPC   C1A33279  42.370  36.193   8.740
 2513POPC   D2A33280  42.350  36.511   8.412
 2513POPC   C3A33281  42.320  36.327   8.010
 2513POPC   C4A33282  42.569  35.992   7.826
 2513POPC   C1B33283  41.872  36.114   8.768
 2513POPC   C2B33284  42.000  36.067   8.363
 2513POPC   C3B33285  41.865  36.064   7.973
 2513POPC   C4B33286  42.083  35.998   7.664
 2514POPC   NC333287   1.786  40.200   9.589
 2514POPC   PO433288   2.401  40.324   9.481
 2514POPC   GL133289   2.185  40.120   9.134
 2514POPC   GL233290   1.830  40.003   9.126
 2514POPC   C1A33291   2.093  40.040   8.698
 2514POPC   D2A33292   2.187  40.231   8.298
 2514POPC   C3A33293   2.118  39.862   8.038
 2514POPC   C4A33294   1.845  39.817   7.674
 2514POPC   C1B33295   1.690  39.720   8.809
 2514POPC   C2B33296   1.868  39.615   8.421
 2514POPC   C3B33297   1.611  39.679   8.088
 2514POPC   C4B33298   1.385  39.572   7.746
 2515POPC   NC333299  22.418  20.992   9.278
 2515POPC   PO433300  21.973  21.233   9.687
 2515POPC   GL133301  22.029  21.319   9.221
 2515POPC   GL233302  22.124  21.653   9.186
 2515POPC   C1A33303  22.260  21.366   8.764
 2515POPC   D2A33304  22.318  21.131   8.349
 2515POPC   C3A33305  22.098  21.250   7.949
 2515POPC   C4A33306  22.157  20.972   7.557
 2515POPC   C1B33307  21.895  21.739   8.782
 2515POPC   C2B33308  22.063  21.658   8.353
 2515POPC   C3B33309  22.206  21.780   7.936
 2515POPC   C4B33310  21.945  21.796   7.611
 2516POPC   NC333311   2.400  24.666   9.417
 2516POPC   PO433312   1.788  24.816   9.488
 2516POPC   GL133313   1.958  24.582   9.141
 2516POPC   GL233314   1.875  24.217   9.147
 2516POPC   C1A33315   2.081  24.679   8.733
 2516POPC   D2A33316   1.932  24.514   8.368
 2516POPC   C3A33317   2.069  24.760   8.035
 2516POPC   C4A33318   2.312  24.860   7.689
 2516POPC   C1B33319   2.184  24.176   8.809
 2516POPC   C2B33320   2.361  24.225   8.382
 2516POPC   C3B33321   2.114  24.221   7.997
 2516POPC   C4B33322   1.899  24.005   7.642
 2517POPC   NC333323  44.409  29.673   9.456
 2517POPC   PO433324  43.762  29.967   9.570
 2517POPC   GL133325  43.775  29.888   9.177
 2517POPC   GL233326  43.750  30.239   9.119
 2517POPC   C1A33327  43.700  29.773   8.780
 2517POPC   D2A33328  43.641  29.435   8.462
 2517POPC   C3A33329  43.695  29.618   8.090
 2517POPC   C4A33330  43.865  29.586   7.668
 2517POPC   C1B33331  43.998  30.219   8.751
 2517POPC   C2B33332  43.901  30.207   8.321
 2517POPC   C3B33333  43.854  30.067   7.900
 2517POPC   C4B33334  43.582  30.277   7.627
 2518POPC   NC333335  24.733  36.733   9.501
 2518POPC   PO433336  24.304  37.293   9.436
 2518POPC   GL133337  24.453  37.001   9.134
 2518POPC   GL233338  24.283  36.678   9.207
 2518POPC   C1A33339  24.597  37.045   8.690
 2518POPC   D2A33340  24.794  36.799   8.348
 2518POPC   C3A33341  24.675  36.782   7.908
 2518POPC   C4A33342  24.727  36.904   7.478
 2518POPC   C1B33343  24.198  36.733   8.773
 2518POPC   C2B33344  24.125  36.868   8.343
 2518POPC   C3B33345  24.185  36.644   7.951
 2518POPC   C4B33346  24.290  36.649   7.491
 2519POPC   NC333347  37.293  26.094   9.531
 2519POPC   PO433348  36.699  25.913   9.616
 2519POPC   GL133349  36.861  25.968   9.214
 2519POPC   GL233350  36.564  25.947   9.073
 2519POPC   C1A33351  36.899  26.266   8.840
 2519POPC   D2A33352  37.039  26.168   8.425
 2519POPC   C3A33353  36.903  26.248   8.016
 2519POPC   C4A33354  37.200  25.961   7.842
 2519POPC   C1B33355  36.647  25.856   8.696
 2519POPC   C2B33356  36.575  25.962   8.331
 2519POPC   C3B33357  36.811  25.741   8.082
 2519POPC   C4B33358  36.721  25.828   7.706
 2520POPC   NC333359  20.572  38.765   9.587
 2520POPC   PO433360  20.361  38.065   9.549
 2520POPC   GL133361  20.574  38.401   9.219
 2520POPC   GL233362  20.770  38.752   9.126
 2520POPC   C1A33363  20.707  38.394   8.783
 2520POPC   D2A33364  20.392  38.356   8.476
 2520POPC   C3A33365  20.564  38.436   8.093
 2520POPC   C4A33366  20.410  38.489   7.718
 2520POPC   C1B33367  21.038  38.802   8.764
 2520POPC   C2B33368  21.014  38.605   8.385
 2520POPC   C3B33369  20.938  38.799   8.004
 2520POPC   C4B33370  20.647  38.932   7.667
 2521POPC   NC333371  30.161  37.392   9.264
 2521POPC   PO433372  30.000  37.989   9.415
 2521POPC   GL133373  29.880  37.780   9.025
 2521POPC   GL233374  29.562  37.868   8.912
 2521POPC   C1A33375  29.988  37.738   8.570
 2521POPC   D2A33376  30.349  37.766   8.258
 2521POPC   C3A33377  30.267  37.562   7.896
 2521POPC   C4A33378  30.035  37.766   7.570
 2521POPC   C1B33379  29.517  37.510   8.675
 2521POPC   C2B33380  29.656  37.366   8.296
 2521POPC   C3B33381  29.807  37.686   8.067
 2521POPC   C4B33382  29.552  37.770   7.750
 2522POPC   NC333383   6.931   2.012   9.557
 2522POPC   PO433384   6.282   2.313   9.536
 2522POPC   GL133385   6.537   2.135   9.213
 2522POPC   GL233386   6.541   1.768   9.189
 2522POPC   C1A33387   6.753   2.051   8.826
 2522POPC   D2A33388   6.642   2.190   8.432
 2522POPC   C3A33389   6.906   2.227   8.076
 2522POPC   C4A33390   6.760   2.147   7.680
 2522POPC   C1B33391   6.265   1.690   8.869
 2522POPC   C2B33392   6.331   1.748   8.444
 2522POPC   C3B33393   6.532   1.859   8.073
 2522POPC   C4B33394   6.493   1.719   7.684
 2523POPC   NC333395  21.992   2.601   9.638
 2523POPC   PO433396  22.459   2.940   9.333
 2523POPC   GL133397  22.223   2.654   9.083
 2523POPC   GL233398  21.954   2.415   9.168
 2523POPC   C1A33399  22.242   2.697   8.649
 2523POPC   D2A33400  22.378   2.985   8.359
 2523POPC   C3A33401  22.210   2.791   8.023
 2523POPC   C4A33402  22.102   2.975   7.642
 2523POPC   C1B33403  21.969   2.174   8.814
 2523POPC   C2B33404  21.897   2.350   8.421
 2523POPC   C3B33405  21.759   2.487   8.032
 2523POPC   C4B33406  21.978   2.495   7.678
 2524POPC   NC333407  18.576  16.066   9.525
 2524POPC   PO433408  19.021  15.667   9.439
 2524POPC   GL133409  18.778  15.774   9.142
 2524POPC   GL233410  18.923  16.137   9.166
 2524POPC   C1A33411  18.742  15.946   8.739
 2524POPC   D2A33412  18.969  15.840   8.397
 2524POPC   C3A33413  18.749  15.922   8.021
 2524POPC   C4A33414  18.897  15.806   7.619
 2524POPC   C1B33415  19.205  16.124   8.815
 2524POPC   C2B33416  19.425  16.099   8.401
 2524POPC   C3B33417  19.219  16.119   8.021
 2524POPC   C4B33418  19.302  16.153   7.610
 2525POPC   NC333419  40.551  37.241   9.677
 2525POPC   PO433420  40.827  37.805   9.471
 2525POPC   GL133421  40.729  37.584   9.117
 2525POPC   GL233422  40.990  37.395   9.124
 2525POPC   C1A33423  40.606  37.702   8.705
 2525POPC   D2A33424  40.667  37.959   8.368
 2525POPC   C3A33425  40.821  37.826   7.950
 2525POPC   C4A33426  40.717  37.740   7.513
 2525POPC   C1B33427  40.839  37.259   8.749
 2525POPC   C2B33428  40.642  37.286   8.388
 2525POPC   C3B33429  40.772  37.345   8.057
 2525POPC   C4B33430  41.012  37.345   7.730
 2526POPC   NC333431  23.851  28.120   9.934
 2526POPC   PO433432  23.464  28.641   9.727
 2526POPC   GL133433  23.732  28.469   9.376
 2526POPC   GL233434  23.910  28.753   9.206
 2526POPC   C1A33435  23.685  28.423   8.901
 2526POPC   D2A33436  23.801  28.346   8.473
 2526POPC   C3A33437  23.575  28.450   8.083
 2526POPC   C4A33438  23.338  28.324   7.693
 2526POPC   C1B33439  24.142  28.673   8.809
 2526POPC   C2B33440  24.169  28.669   8.358
 2526POPC   C3B33441  24.057  28.671   7.914
 2526POPC   C4B33442  23.850  28.379   7.627
 2527POPC   NC333443  17.721   5.961   9.517
 2527POPC   PO433444  17.145   5.938   9.394
 2527POPC   GL133445  17.434   5.764   9.094
 2527POPC   GL233446  17.717   5.996   9.016
 2527POPC   C1A33447  17.530   5.695   8.652
 2527POPC   D2A33448  17.740   5.835   8.307
 2527POPC   C3A33449  17.655   5.593   7.956
 2527POPC   C4A33450  17.255   5.527   7.748
 2527POPC   C1B33451  17.369   6.191   8.808
 2527POPC   C2B33452  17.261   6.094   8.377
 2527POPC   C3B33453  17.469   6.109   7.971
 2527POPC   C4B33454  17.613   5.928   7.581
 2528POPC   NC333455  35.819  17.625   9.503
 2528POPC   PO433456  35.237  17.199   9.636
 2528POPC   GL133457  35.416  17.397   9.265
 2528POPC   GL233458  35.208  17.661   9.151
 2528POPC   C1A33459  35.472  17.360   8.817
 2528POPC   D2A33460  35.196  17.395   8.443
 2528POPC   C3A33461  35.416  17.260   8.109
 2528POPC   C4A33462  35.499  17.420   7.682
 2528POPC   C1B33463  35.376  17.839   8.738
 2528POPC   C2B33464  35.611  17.697   8.406
 2528POPC   C3B33465  35.385  17.757   8.047
 2528POPC   C4B33466  35.440  17.980   7.703
 2529POPC   NC333467  29.425  30.855   9.560
 2529POPC   PO433468  28.791  30.885   9.419
 2529POPC   GL133469  29.126  30.844   9.117
 2529POPC   GL233470  29.318  30.539   9.146
 2529POPC   C1A33471  29.050  30.669   8.718
 2529POPC   D2A33472  29.217  30.601   8.320
 2529POPC   C3A33473  28.976  30.547   7.964
 2529POPC   C4A33474  29.197  30.651   7.608
 2529POPC   C1B33475  29.601  30.358   8.823
 2529POPC   C2B33476  29.688  30.456   8.381
 2529POPC   C3B33477  29.512  30.353   7.948
 2529POPC   C4B33478  29.621  30.421   7.479
 2530POPC   NC333479  34.206  30.630   9.691
 2530POPC   PO433480  33.870  31.028   9.279
 2530POPC   GL133481  33.711  30.837   8.945
 2530POPC   GL233482  33.811  30.512   8.973
 2530POPC   C1A33483  33.430  30.815   8.582
 2530POPC   D2A33484  33.538  30.664   8.165
 2530POPC   C3A33485  33.833  30.905   7.903
 2530POPC   C4A33486  33.934  30.952   7.488
 2530POPC   C1B33487  33.905  30.562   8.553
 2530POPC   C2B33488  34.086  30.291   8.291
 2530POPC   C3B33489  33.987  30.196   7.907
 2530POPC   C4B33490  33.693  30.457   7.709
 2531POPC   NC333491   0.458  26.459   9.471
 2531POPC   PO433492   0.118  25.951   9.766
 2531POPC   GL133493   0.280  26.009   9.286
 2531POPC   GL233494   0.346  25.677   9.128
 2531POPC   C1A33495   0.454  26.265   8.861
 2531POPC   D2A33496   0.417  26.456   8.420
 2531POPC   C3A33497   0.335  26.313   8.006
 2531POPC   C4A33498   0.416  26.175   7.555
 2531POPC   C1B33499   0.579  25.790   8.763
 2531POPC   C2B33500   0.437  25.931   8.354
 2531POPC   C3B33501   0.461  25.820   7.904
 2531POPC   C4B33502   0.527  25.685   7.446
 2532POPC   NC333503   8.017   1.530   9.469
 2532POPC   PO433504   8.451   1.085   9.620
 2532POPC   GL133505   8.395   1.149   9.186
 2532POPC   GL233506   8.217   1.431   9.020
 2532POPC   C1A33507   8.222   0.994   8.791
 2532POPC   D2A33508   8.159   1.335   8.482
 2532POPC   C3A33509   8.074   1.139   8.125
 2532POPC   C4A33510   8.128   1.047   7.698
 2532POPC   C1B33511   7.864   1.592   8.798
 2532POPC   C2B33512   7.507   1.477   8.533
 2532POPC   C3B33513   7.599   1.362   8.152
 2532POPC   C4B33514   7.817   1.431   7.778
 2533POPC   NC333515  19.838  10.205   9.399
 2533POPC   PO433516  19.989   9.492   9.466
 2533POPC   GL133517  19.879   9.737   9.164
 2533POPC   GL233518  20.218   9.702   9.017
 2533POPC   C1A33519  19.737   9.687   8.777
 2533POPC   D2A33520  20.017   9.556   8.484
 2533POPC   C3A33521  19.986   9.593   8.043
 2533POPC   C4A33522  19.634   9.720   7.770
 2533POPC   C1B33523  20.103  10.053   8.760
 2533POPC   C2B33524  19.866  10.037   8.376
 2533POPC   C3B33525  19.931  10.092   7.943
 2533POPC   C4B33526  20.184  10.159   7.611
 2534POPC   NC333527   4.038  42.469   9.500
 2534POPC   PO433528   4.576  42.117   9.661
 2534POPC   GL133529   4.351  42.172   9.237
 2534POPC   GL233530   4.385  42.549   9.136
 2534POPC   C1A33531   4.336  42.168   8.765
 2534POPC   D2A33532   4.501  42.298   8.349
 2534POPC   C3A33533   4.400  42.082   7.971
 2534POPC   C4A33534   4.036  42.082   7.794
 2534POPC   C1B33535   4.222  42.678   8.741
 2534POPC   C2B33536   4.271  42.766   8.317
 2534POPC   C3B33537   4.156  42.553   7.956
 2534POPC   C4B33538   4.489  42.535   7.752
 2535POPC   NC333539   6.390   8.604   9.390
 2535POPC   PO433540   6.668   9.195   9.358
 2535POPC   GL133541   6.478   9.033   9.063
 2535POPC   GL233542   6.732   8.822   8.928
 2535POPC   C1A33543   6.519   9.253   8.710
 2535POPC   D2A33544   6.730   9.103   8.423
 2535POPC   C3A33545   6.476   9.101   8.129
 2535POPC   C4A33546   6.467   9.227   7.744
 2535POPC   C1B33547   7.073   9.133   8.804
 2535POPC   C2B33548   7.229   9.253   8.365
 2535POPC   C3B33549   6.979   9.174   7.980
 2535POPC   C4B33550   6.778   8.812   7.843
 2536POPC   NC333551  14.009  20.598   9.474
 2536POPC   PO433552  14.679  20.907   9.504
 2536POPC   GL133553  14.451  20.721   9.194
 2536POPC   GL233554  14.197  20.961   9.154
 2536POPC   C1A33555  14.455  20.541   8.785
 2536POPC   D2A33556  14.331  20.326   8.383
 2536POPC   C3A33557  14.419  20.577   8.031
 2536POPC   C4A33558  14.653  20.648   7.645
 2536POPC   C1B33559  14.059  20.888   8.759
 2536POPC   C2B33560  14.049  20.831   8.342
 2536POPC   C3B33561  14.125  20.981   7.934
 2536POPC   C4B33562  14.180  20.825   7.508
 2537POPC   NC333563  10.866  32.913   9.550
 2537POPC   PO433564  11.520  33.279   9.526
 2537POPC   GL133565  11.484  33.122   9.119
 2537POPC   GL233566  11.124  33.109   9.032
 2537POPC   C1A33567  11.516  32.960   8.736
 2537POPC   D2A33568  11.171  32.984   8.495
 2537POPC   C3A33569  11.243  32.883   8.125
 2537POPC   C4A33570  11.103  32.901   7.727
 2537POPC   C1B33571  11.315  33.422   8.713
 2537POPC   C2B33572  11.381  33.390   8.244
 2537POPC   C3B33573  11.071  33.361   7.897
 2537POPC   C4B33574  10.795  33.385   7.509
 2538POPC   NC333575  37.830  11.439   9.770
 2538POPC   PO433576  37.258  11.085   9.566
 2538POPC   GL133577  37.453  11.156   9.198
 2538POPC   GL233578  37.538  11.513   9.228
 2538POPC   C1A33579  37.459  11.267   8.764
 2538POPC   D2A33580  37.525  11.392   8.348
 2538POPC   C3A33581  37.709  11.071   8.116
 2538POPC   C4A33582  37.446  10.932   7.783
 2538POPC   C1B33583  37.899  11.482   8.927
 2538POPC   C2B33584  37.992  11.557   8.473
 2538POPC   C3B33585  37.956  11.526   8.038
 2538POPC   C4B33586  37.774  11.470   7.627
 2539POPC   NC333587  30.533   9.643   9.440
 2539POPC   PO433588  30.433  10.304   9.468
 2539POPC   GL133589  30.436   9.999   9.087
 2539POPC   GL233590  30.758   9.918   9.073
 2539POPC   C1A33591  30.536   9.576   8.798
 2539POPC   D2A33592  30.758   9.594   8.416
 2539POPC   C3A33593  30.615   9.918   8.162
 2539POPC   C4A33594  30.632   9.718   7.763
 2539POPC   C1B33595  31.016   9.831   8.792
 2539POPC   C2B33596  31.091   9.977   8.397
 2539POPC   C3B33597  31.094   9.799   8.014
 2539POPC   C4B33598  31.109   9.664   7.585
 2540POPC   NC333599  38.173  32.105   9.407
 2540POPC   PO433600  38.660  32.550   9.617
 2540POPC   GL133601  38.595  32.323   9.208
 2540POPC   GL233602  38.773  32.033   9.069
 2540POPC   C1A33603  38.395  32.388   8.787
 2540POPC   D2A33604  38.526  32.661   8.437
 2540POPC   C3A33605  38.513  32.500   7.990
 2540POPC   C4A33606  38.207  32.352   7.693
 2540POPC   C1B33607  38.452  31.858   8.803
 2540POPC   C2B33608  38.205  31.972   8.474
 2540POPC   C3B33609  38.347  31.986   8.059
 2540POPC   C4B33610  38.554  31.970   7.677
 2541POPC   NC333611  14.066   2.543   9.464
 2541POPC   PO433612  14.405   3.101   9.585
 2541POPC   GL133613  14.407   2.902   9.199
 2541POPC   GL233614  14.074   2.996   9.222
 2541POPC   C1A33615  14.576   2.887   8.777
 2541POPC   D2A33616  14.879   3.001   8.475
 2541POPC   C3A33617  14.625   2.932   8.141
 2541POPC   C4A33618  14.501   2.589   7.837
 2541POPC   C1B33619  14.060   2.796   8.792
 2541POPC   C2B33620  14.173   2.945   8.371
 2541POPC   C3B33621  14.151   2.959   7.896
 2541POPC   C4B33622  14.153   3.082   7.429
 2542POPC   NC333623  39.341  41.790   9.461
 2542POPC   PO433624  39.460  42.437   9.538
 2542POPC   GL133625  39.273  42.270   9.174
 2542POPC   GL233626  38.997  42.481   9.091
 2542POPC   C1A33627  39.345  42.241   8.732
 2542POPC   D2A33628  39.214  42.379   8.334
 2542POPC   C3A33629  39.398  42.225   7.947
 2542POPC   C4A33630  39.209  42.164   7.565
 2542POPC   C1B33631  38.969  42.723   8.699
 2542POPC   C2B33632  38.772  42.620   8.292
 2542POPC   C3B33633  38.928  42.428   7.915
 2542POPC   C4B33634  38.963  42.592   7.514
 2543POPC   NC333635  39.247   7.618   9.489
 2543POPC   PO433636  39.325   6.935   9.422
 2543POPC   GL133637  39.033   7.088   9.105
 2543POPC   GL233638  39.082   7.448   9.047
 2543POPC   C1A33639  39.187   7.131   8.669
 2543POPC   D2A33640  39.352   7.424   8.389
 2543POPC   C3A33641  39.488   7.364   7.976
 2543POPC   C4A33642  39.450   7.614   7.580
 2543POPC   C1B33643  39.305   7.752   8.788
 2543POPC   C2B33644  39.160   7.948   8.419
 2543POPC   C3B33645  39.194   7.778   8.035
 2543POPC   C4B33646  38.949   7.762   7.712
 2544POPC   NC333647   6.681  35.869   9.539
 2544POPC   PO433648   6.351  36.476   9.497
 2544POPC   GL133649   6.509  36.256   9.125
 2544POPC   GL233650   6.844  36.325   9.020
 2544POPC   C1A33651   6.519  36.487   8.689
 2544POPC   D2A33652   6.675  36.360   8.316
 2544POPC   C3A33653   6.409  36.452   8.051
 2544POPC   C4A33654   6.608  36.439   7.696
 2544POPC   C1B33655   6.645  36.010   8.687
 2544POPC   C2B33656   6.387  35.919   8.311
 2544POPC   C3B33657   6.603  35.971   7.907
 2544POPC   C4B33658   7.002  36.091   7.679
 2545POPC   NC333659  41.225  13.082   9.249
 2545POPC   PO433660  41.778  13.102   9.552
 2545POPC   GL133661  41.776  13.026   9.124
 2545POPC   GL233662  41.800  12.693   9.102
 2545POPC   C1A33663  41.570  13.082   8.714
 2545POPC   D2A33664  41.312  13.012   8.306
 2545POPC   C3A33665  41.579  13.099   7.951
 2545POPC   C4A33666  41.955  13.331   7.821
 2545POPC   C1B33667  41.526  12.578   8.809
 2545POPC   C2B33668  41.685  12.680   8.423
 2545POPC   C3B33669  41.573  12.595   8.043
 2545POPC   C4B33670  41.778  12.638   7.666
 2546POPC   NC333671   4.740  34.081   9.334
 2546POPC   PO433672   5.100  34.595   9.720
 2546POPC   GL133673   5.182  34.792   9.216
 2546POPC   GL233674   4.846  34.853   8.963
 2546POPC   C1A33675   5.277  34.707   8.738
 2546POPC   D2A33676   4.992  34.729   8.350
 2546POPC   C3A33677   5.133  34.609   7.947
 2546POPC   C4A33678   5.396  34.919   7.800
 2546POPC   C1B33679   4.844  34.418   8.714
 2546POPC   C2B33680   4.711  34.277   8.296
 2546POPC   C3B33681   4.692  34.335   7.840
 2546POPC   C4B33682   4.999  34.332   7.498
 2547POPC   NC333683  23.600  24.663   9.490
 2547POPC   PO433684  23.717  24.045   9.330
 2547POPC   GL133685  23.711  24.349   9.076
 2547POPC   GL233686  24.021  24.427   9.114
 2547POPC   C1A33687  23.503  24.453   8.724
 2547POPC   D2A33688  23.330  24.212   8.400
 2547POPC   C3A33689  23.410  24.355   8.005
 2547POPC   C4A33690  23.297  24.173   7.638
 2547POPC   C1B33691  23.961  24.683   8.754
 2547POPC   C2B33692  23.792  24.581   8.324
 2547POPC   C3B33693  23.889  24.549   7.884
 2547POPC   C4B33694  23.970  24.785   7.512
 2548POPC   NC333695   4.070   3.156   9.724
 2548POPC   PO433696   4.245   3.804   9.785
 2548POPC   GL133697   4.126   3.670   9.316
 2548POPC   GL233698   4.126   3.300   9.229
 2548POPC   C1A33699   4.151   3.682   8.843
 2548POPC   D2A33700   4.038   3.818   8.457
 2548POPC   C3A33701   4.352   3.862   8.151
 2548POPC   C4A33702   4.190   3.965   7.761
 2548POPC   C1B33703   4.029   3.189   8.794
 2548POPC   C2B33704   4.229   3.351   8.409
 2548POPC   C3B33705   4.224   3.358   7.950
 2548POPC   C4B33706   4.090   3.064   7.597
 2549POPC   NC333707  36.962  41.884   9.407
 2549POPC   PO433708  36.843  42.576   9.496
 2549POPC   GL133709  36.827  42.315   9.102
 2549POPC   GL233710  37.057  42.017   8.954
 2549POPC   C1A33711  36.811  42.341   8.649
 2549POPC   D2A33712  36.887  42.644   8.341
 2549POPC   C3A33713  36.681  42.497   7.987
 2549POPC   C4A33714  36.549  42.103   7.811
 2549POPC   C1B33715  37.253  41.963   8.580
 2549POPC   C2B33716  37.014  42.074   8.220
 2549POPC   C3B33717  37.056  42.051   7.786
 2549POPC   C4B33718  37.128  42.014   7.345
 2550POPC   NC333719  42.333  33.504   9.552
 2550POPC   PO433720  42.483  34.186   9.514
 2550POPC   GL133721  42.365  34.031   9.144
 2550POPC   GL233722  42.291  33.718   9.096
 2550POPC   C1A33723  42.503  34.006   8.748
 2550POPC   D2A33724  42.394  33.790   8.397
 2550POPC   C3A33725  42.623  33.906   8.065
 2550POPC   C4A33726  42.399  34.038   7.746
 2550POPC   C1B33727  42.113  33.496   8.735
 2550POPC   C2B33728  41.928  33.560   8.310
 2550POPC   C3B33729  42.226  33.569   7.945
 2550POPC   C4B33730  42.280  33.606   7.493
 2551POPC   NC333731  28.883   9.995   9.378
 2551POPC   PO433732  29.295   9.531   9.531
 2551POPC   GL133733  29.133   9.633   9.112
 2551POPC   GL233734  28.771   9.554   9.164
 2551POPC   C1A33735  29.187   9.714   8.656
 2551POPC   D2A33736  29.210   9.431   8.311
 2551POPC   C3A33737  29.449   9.659   8.028
 2551POPC   C4A33738  29.241   9.853   7.718
 2551POPC   C1B33739  28.682   9.745   8.748
 2551POPC   C2B33740  28.837   9.888   8.315
 2551POPC   C3B33741  28.797   9.697   7.904
 2551POPC   C4B33742  28.795   9.750   7.421
 2552POPC   NC333743  20.523  30.579   9.532
 2552POPC   PO433744  20.043  30.976   9.478
 2552POPC   GL133745  20.425  30.877   9.142
 2552POPC   GL233746  20.821  30.812   9.155
 2552POPC   C1A33747  20.572  30.501   8.856
 2552POPC   D2A33748  20.646  30.379   8.453
 2552POPC   C3A33749  20.537  30.664   8.127
 2552POPC   C4A33750  20.590  30.691   7.702
 2552POPC   C1B33751  20.733  30.994   8.743
 2552POPC   C2B33752  20.921  30.871   8.377
 2552POPC   C3B33753  21.067  31.024   8.034
 2552POPC   C4B33754  20.915  31.081   7.639
 2553POPC   NC333755  14.941  13.956   9.586
 2553POPC   PO433756  15.320  14.538   9.707
 2553POPC   GL133757  15.257  14.367   9.263
 2553POPC   GL233758  15.422  14.044   9.180
 2553POPC   C1A33759  15.336  14.394   8.796
 2553POPC   D2A33760  15.160  14.455   8.408
 2553POPC   C3A33761  15.286  14.492   7.988
 2553POPC   C4A33762  14.928  14.583   7.707
 2553POPC   C1B33763  15.400  13.904   8.717
 2553POPC   C2B33764  15.498  14.071   8.296
 2553POPC   C3B33765  15.487  14.016   7.830
 2553POPC   C4B33766  15.556  14.160   7.427
 2554POPC   NC333767  29.614  10.033   9.385
 2554POPC   PO433768  30.044   9.580   9.322
 2554POPC   GL133769  29.949   9.853   8.996
 2554POPC   GL233770  29.604   9.770   8.951
 2554POPC   C1A33771  30.187   9.893   8.609
 2554POPC   D2A33772  30.216   9.530   8.361
 2554POPC   C3A33773  29.954   9.566   8.013
 2554POPC   C4A33774  30.125   9.733   7.666
 2554POPC   C1B33775  29.698   9.754   8.518
 2554POPC   C2B33776  29.851  10.043   8.215
 2554POPC   C3B33777  29.745  10.045   7.794
 2554POPC   C4B33778  29.660   9.789   7.447
 2555POPC   NC333779  32.067   0.259   9.814
 2555POPC   PO433780  32.490   0.671   9.606
 2555POPC   GL133781  32.416   0.567   9.180
 2555POPC   GL233782  32.459   0.209   9.097
 2555POPC   C1A33783  32.212   0.547   8.752
 2555POPC   D2A33784  31.923   0.579   8.395
 2555POPC   C3A33785  32.169   0.641   8.018
 2555POPC   C4A33786  32.215   0.586   7.559
 2555POPC   C1B33787  32.474   0.096   8.637
 2555POPC   C2B33788  32.180   0.163   8.277
 2555POPC   C3B33789  32.143   0.123   7.843
 2555POPC   C4B33790  32.516  44.892   7.685
 2556POPC   NC333791  39.138   9.525   9.627
 2556POPC   PO433792  39.604   9.341   9.204
 2556POPC   GL133793  39.270   9.629   9.079
 2556POPC   GL233794  38.923   9.624   9.175
 2556POPC   C1A33795  39.145   9.896   8.726
 2556POPC   D2A33796  39.365  10.036   8.340
 2556POPC   C3A33797  39.172   9.973   7.942
 2556POPC   C4A33798  39.306   9.966   7.511
 2556POPC   C1B33799  38.922   9.396   8.769
 2556POPC   C2B33800  38.929   9.600   8.347
 2556POPC   C3B33801  38.683   9.794   8.015
 2556POPC   C4B33802  38.828   9.809   7.571
 2557POPC   NC333803  41.082  44.064   9.468
 2557POPC   PO433804  40.508  43.678   9.338
 2557POPC   GL133805  40.477  43.950   8.985
 2557POPC   GL233806  40.771  44.112   9.066
 2557POPC   C1A33807  40.456  43.966   8.555
 2557POPC   D2A33808  40.400  44.207   8.214
 2557POPC   C3A33809  40.602  43.954   7.918
 2557POPC   C4A33810  40.752  43.520   7.911
 2557POPC   C1B33811  40.962  43.951   8.723
 2557POPC   C2B33812  40.934  43.821   8.310
 2557POPC   C3B33813  41.129  43.866   7.929
 2557POPC   C4B33814  41.009  44.148   7.678
 2558POPC   NC333815  27.067  27.360   9.500
 2558POPC   PO433816  26.809  28.083   9.564
 2558POPC   GL133817  27.033  27.849   9.187
 2558POPC   GL233818  26.859  27.536   9.090
 2558POPC   C1A33819  27.110  27.748   8.718
 2558POPC   D2A33820  26.930  27.573   8.385
 2558POPC   C3A33821  27.056  27.772   7.989
 2558POPC   C4A33822  26.905  27.702   7.591
 2558POPC   C1B33823  26.720  27.239   8.796
 2558POPC   C2B33824  26.476  27.298   8.443
 2558POPC   C3B33825  26.686  27.317   8.034
 2558POPC   C4B33826  26.523  27.180   7.712
 2559POPC   NC333827  17.408  11.752   9.580
 2559POPC   PO433828  17.753  12.260   9.300
 2559POPC   GL133829  17.417  12.130   9.106
 2559POPC   GL233830  17.544  11.816   9.096
 2559POPC   C1A33831  17.228  11.961   8.722
 2559POPC   D2A33832  17.433  11.948   8.315
 2559POPC   C3A33833  17.432  12.075   7.897
 2559POPC   C4A33834  17.116  11.996   7.600
 2559POPC   C1B33835  17.758  11.971   8.720
 2559POPC   C2B33836  18.043  12.269   8.510
 2559POPC   C3B33837  17.927  12.345   8.086
 2559POPC   C4B33838  17.938  12.131   7.686
 2560POPC   NC333839  25.611  19.383   9.529
 2560POPC   PO433840  25.792  18.690   9.483
 2560POPC   GL133841  25.923  19.028   9.196
 2560POPC   GL233842  26.235  18.866   9.146
 2560POPC   C1A33843  26.101  19.235   8.789
 2560POPC   D2A33844  26.350  19.191   8.353
 2560POPC   C3A33845  26.163  19.272   7.948
 2560POPC   C4A33846  25.804  19.404   7.720
 2560POPC   C1B33847  26.024  18.725   8.791
 2560POPC   C2B33848  25.925  18.910   8.432
 2560POPC   C3B33849  26.062  18.781   8.083
 2560POPC   C4B33850  25.948  18.810   7.702
 2561POPC   NC333851  35.496  19.280   9.488
 2561POPC   PO433852  35.565  18.672   9.243
 2561POPC   GL133853  35.354  18.987   9.047
 2561POPC   GL233854  35.236  19.302   9.019
 2561POPC   C1A33855  35.336  18.956   8.634
 2561POPC   D2A33856  35.553  18.743   8.342
 2561POPC   C3A33857  35.443  18.947   7.994
 2561POPC   C4A33858  35.561  18.817   7.641
 2561POPC   C1B33859  35.248  19.470   8.606
 2561POPC   C2B33860  35.081  19.232   8.270
 2561POPC   C3B33861  34.991  19.121   7.848
 2561POPC   C4B33862  35.266  19.232   7.542
 2562POPC   NC333863   6.865  36.659   9.430
 2562POPC   PO433864   6.440  37.188   9.491
 2562POPC   GL133865   6.694  37.047   9.152
 2562POPC   GL233866   6.505  36.769   9.098
 2562POPC   C1A33867   6.906  36.871   8.771
 2562POPC   D2A33868   7.044  37.020   8.360
 2562POPC   C3A33869   6.908  36.767   8.020
 2562POPC   C4A33870   6.812  36.892   7.618
 2562POPC   C1B33871   6.414  37.008   8.730
 2562POPC   C2B33872   6.498  36.870   8.341
 2562POPC   C3B33873   6.469  37.038   7.951
 2562POPC   C4B33874   6.395  37.163   7.515
 2563POPC   NC333875  23.108  28.787   9.977
 2563POPC   PO433876  23.187  29.257   9.464
 2563POPC   GL133877  22.949  29.396   9.081
 2563POPC   GL233878  22.805  29.100   9.017
 2563POPC   C1A33879  22.795  29.541   8.658
 2563POPC   D2A33880  22.587  29.373   8.289
 2563POPC   C3A33881  22.799  29.095   8.039
 2563POPC   C4A33882  22.998  29.171   7.661
 2563POPC   C1B33883  22.887  29.030   8.584
 2563POPC   C2B33884  23.199  28.837   8.304
 2563POPC   C3B33885  23.118  28.724   7.895
 2563POPC   C4B33886  22.817  28.480   7.616
 2564POPC   NC333887  34.556  24.152   9.678
 2564POPC   PO433888  34.597  23.440   9.554
 2564POPC   GL133889  34.635  23.715   9.178
 2564POPC   GL233890  34.315  23.644   9.070
 2564POPC   C1A33891  34.589  24.015   8.823
 2564POPC   D2A33892  34.232  24.026   8.528
 2564POPC   C3A33893  34.233  23.994   8.088
 2564POPC   C4A33894  34.443  23.792   7.754
 2564POPC   C1B33895  34.454  23.544   8.648
 2564POPC   C2B33896  34.384  23.508   8.206
 2564POPC   C3B33897  34.433  23.282   7.825
 2564POPC   C4B33898  34.323  23.374   7.413
 2565POPC   NC333899  29.523  43.886   9.479
 2565POPC   PO433900  28.971  44.305   9.416
 2565POPC   GL133901  29.066  44.053   9.047
 2565POPC   GL233902  28.979  43.691   9.122
 2565POPC   C1A33903  28.867  43.874   8.664
 2565POPC   D2A33904  29.031  43.674   8.313
 2565POPC   C3A33905  29.131  43.956   7.982
 2565POPC   C4A33906  29.551  44.163   7.849
 2565POPC   C1B33907  29.262  43.474   8.797
 2565POPC   C2B33908  29.524  43.463   8.407
 2565POPC   C3B33909  29.522  43.639   7.985
 2565POPC   C4B33910  29.521  43.562   7.540
 2566POPC   NC333911  28.438  24.074   9.399
 2566POPC   PO433912  28.411  24.713   9.603
 2566POPC   GL133913  28.222  24.553   9.183
 2566POPC   GL233914  27.938  24.296   9.216
 2566POPC   C1A33915  28.378  24.522   8.713
 2566POPC   D2A33916  28.414  24.671   8.251
 2566POPC   C3A33917  28.450  24.419   7.838
 2566POPC   C4A33918  28.833  24.457   7.549
 2566POPC   C1B33919  27.891  24.423   8.788
 2566POPC   C2B33920  27.982  24.444   8.366
 2566POPC   C3B33921  27.953  24.575   7.941
 2566POPC   C4B33922  27.989  24.386   7.542
 2567POPC   NC333923   4.358  31.828   9.523
 2567POPC   PO433924   3.891  31.407   9.332
 2567POPC   GL133925   4.319  31.441   9.142
 2567POPC   GL233926   4.392  31.782   9.011
 2567POPC   C1A33927   4.540  31.373   8.745
 2567POPC   D2A33928   4.332  31.509   8.395
 2567POPC   C3A33929   4.484  31.502   7.991
 2567POPC   C4A33930   4.509  31.354   7.570
 2567POPC   C1B33931   3.997  31.700   8.770
 2567POPC   C2B33932   3.803  31.554   8.411
 2567POPC   C3B33933   3.987  31.521   8.020
 2567POPC   C4B33934   4.127  31.702   7.633
 2568POPC   NC333935  38.844  25.125   9.567
 2568POPC   PO433936  38.210  25.515   9.566
 2568POPC   GL133937  38.429  25.241   9.265
 2568POPC   GL233938  38.350  24.888   9.217
 2568POPC   C1A33939  38.436  25.240   8.816
 2568POPC   D2A33940  38.281  25.433   8.458
 2568POPC   C3A33941  38.471  25.292   8.119
 2568POPC   C4A33942  38.597  25.210   7.731
 2568POPC   C1B33943  38.654  24.783   8.855
 2568POPC   C2B33944  38.746  24.960   8.456
 2568POPC   C3B33945  38.712  24.831   8.065
 2568POPC   C4B33946  38.655  24.665   7.675
 2569POPC   NC333947  14.455  16.373   9.438
 2569POPC   PO433948  14.085  15.878   9.237
 2569POPC   GL133949  14.538  15.922   9.139
 2569POPC   GL233950  14.666  15.560   9.043
 2569POPC   C1A33951  14.689  16.202   8.808
 2569POPC   D2A33952  14.762  16.053   8.393
 2569POPC   C3A33953  14.466  16.066   8.080
 2569POPC   C4A33954  14.358  15.884   7.714
 2569POPC   C1B33955  14.443  15.737   8.653
 2569POPC   C2B33956  14.115  16.017   8.450
 2569POPC   C3B33957  13.958  16.013   8.017
 2569POPC   C4B33958  13.934  15.611   7.751
 2570POPC   NC333959  30.531   7.918   9.590
 2570POPC   PO433960  30.970   8.326   9.624
 2570POPC   GL133961  30.934   8.189   9.177
 2570POPC   GL233962  30.748   7.879   9.131
 2570POPC   C1A33963  30.705   8.342   8.802
 2570POPC   D2A33964  30.610   8.589   8.418
 2570POPC   C3A33965  30.860   8.466   8.064
 2570POPC   C4A33966  30.784   8.414   7.620
 2570POPC   C1B33967  30.512   7.830   8.755
 2570POPC   C2B33968  30.529   8.077   8.395
 2570POPC   C3B33969  30.529   8.073   7.980
 2570POPC   C4B33970  30.424   8.054   7.580
 2571POPC   NC333971  32.753  44.565   9.596
 2571POPC   PO433972  33.376  44.582   9.591
 2571POPC   GL133973  33.179  44.836   9.218
 2571POPC   GL233974  32.797  44.810   9.135
 2571POPC   C1A33975  33.091  44.983   8.769
 2571POPC   D2A33976  32.962  44.822   8.362
 2571POPC   C3A33977  33.057  44.885   7.913
 2571POPC   C4A33978  33.310  44.563   7.649
 2571POPC   C1B33979  32.636  44.617   8.717
 2571POPC   C2B33980  32.750  44.328   8.371
 2571POPC   C3B33981  32.937  44.393   7.951
 2571POPC   C4B33982  32.833  44.546   7.485
 2572POPC   NC333983  30.773  16.703   9.492
 2572POPC   PO433984  30.141  16.888   9.536
 2572POPC   GL133985  30.340  16.646   9.129
 2572POPC   GL233986  30.724  16.587   8.988
 2572POPC   C1A33987  30.345  16.728   8.655
 2572POPC   D2A33988  30.630  16.801   8.299
 2572POPC   C3A33989  30.523  16.827   7.870
 2572POPC   C4A33990  30.460  16.514   7.552
 2572POPC   C1B33991  31.053  16.414   8.666
 2572POPC   C2B33992  31.170  16.397   8.198
 2572POPC   C3B33993  30.914  16.444   7.811
 2572POPC   C4B33994  30.965  16.428   7.338
 2573POPC   NC333995  29.448  11.372   9.399
 2573POPC   PO433996  28.833  11.059   9.494
 2573POPC   GL133997  29.006  11.248   9.150
 2573POPC   GL233998  28.984  11.576   9.271
 2573POPC   C1A33999  29.227  11.328   8.779
 2573POPC   D2A34000  29.473  11.245   8.425
 2573POPC   C3A34001  29.291  11.257   7.986
 2573POPC   C4A34002  29.244  11.085   7.521
 2573POPC   C1B34003  28.874  11.697   8.844
 2573POPC   C2B34004  29.085  11.669   8.423
 2573POPC   C3B34005  28.935  11.686   8.011
 2573POPC   C4B34006  28.995  11.490   7.606
 2574POPC   NC334007  17.220  26.508   9.536
 2574POPC   PO434008  16.625  26.623   9.315
 2574POPC   GL134009  16.925  26.730   9.040
 2574POPC   GL234010  16.788  27.052   9.044
 2574POPC   C1A34011  16.912  26.825   8.605
 2574POPC   D2A34012  16.892  26.983   8.195
 2574POPC   C3A34013  16.792  26.714   7.837
 2574POPC   C4A34014  16.748  26.494   7.459
 2574POPC   C1B34015  16.530  27.242   8.728
 2574POPC   C2B34016  16.400  27.392   8.311
 2574POPC   C3B34017  16.489  27.165   7.927
 2574POPC   C4B34018  16.920  27.189   7.735
 2575POPC   NC334019  36.875   1.355   9.494
 2575POPC   PO434020  37.462   1.476   9.218
 2575POPC   GL134021  37.105   1.247   9.039
 2575POPC   GL234022  36.821   1.483   9.018
 2575POPC   C1A34023  37.085   1.065   8.644
 2575POPC   D2A34024  37.054   1.197   8.259
 2575POPC   C3A34025  37.137   1.045   7.895
 2575POPC   C4A34026  37.101   1.441   7.721
 2575POPC   C1B34027  36.613   1.165   8.819
 2575POPC   C2B34028  36.547   1.165   8.401
 2575POPC   C3B34029  36.645   1.293   7.963
 2575POPC   C4B34030  36.742   1.050   7.596
 2576POPC   NC334031  14.058  17.119   9.333
 2576POPC   PO434032  14.512  16.749   9.688
 2576POPC   GL134033  14.507  16.853   9.221
 2576POPC   GL234034  14.772  17.068   9.110
 2576POPC   C1A34035  14.321  16.737   8.795
 2576POPC   D2A34036  14.434  16.463   8.433
 2576POPC   C3A34037  14.265  16.530   8.012
 2576POPC   C4A34038  14.157  16.846   7.724
 2576POPC   C1B34039  14.810  16.850   8.743
 2576POPC   C2B34040  14.782  16.976   8.305
 2576POPC   C3B34041  14.773  16.927   7.851
 2576POPC   C4B34042  14.619  16.590   7.597
 2577POPC   NC334043  42.667  40.840   9.443
 2577POPC   PO434044  42.030  40.934   9.596
 2577POPC   GL134045  42.207  40.843   9.190
 2577POPC   GL234046  42.405  41.179   9.138
 2577POPC   C1A34047  42.426  40.587   8.824
 2577POPC   D2A34048  42.669  40.525   8.438
 2577POPC   C3A34049  42.502  40.599   8.027
 2577POPC   C4A34050  42.135  40.574   7.779
 2577POPC   C1B34051  42.237  41.052   8.733
 2577POPC   C2B34052  42.154  40.746   8.406
 2577POPC   C3B34053  42.190  41.015   8.071
 2577POPC   C4B34054  42.438  41.058   7.712
 2578POPC   NC334055  15.659   2.765   9.418
 2578POPC   PO434056  16.288   2.548   9.446
 2578POPC   GL134057  16.277   2.800   9.096
 2578POPC   GL234058  16.017   3.058   9.177
 2578POPC   C1A34059  16.074   2.743   8.717
 2578POPC   D2A34060  16.001   2.466   8.384
 2578POPC   C3A34061  15.813   2.659   8.039
 2578POPC   C4A34062  15.823   2.495   7.639
 2578POPC   C1B34063  15.829   3.185   8.764
 2578POPC   C2B34064  15.867   3.081   8.324
 2578POPC   C3B34065  15.680   3.199   7.923
 2578POPC   C4B34066  15.770   2.983   7.501
 2579POPC   NC334067  20.235  35.977   9.299
 2579POPC   PO434068  20.729  36.351   9.602
 2579POPC   GL134069  20.727  36.174   9.162
 2579POPC   GL234070  20.672  35.804   9.111
 2579POPC   C1A34071  20.583  36.196   8.720
 2579POPC   D2A34072  20.680  36.146   8.317
 2579POPC   C3A34073  20.524  36.415   8.021
 2579POPC   C4A34074  20.747  36.293   7.704
 2579POPC   C1B34075  20.687  35.697   8.689
 2579POPC   C2B34076  20.582  35.642   8.282
 2579POPC   C3B34077  20.503  35.877   7.910
 2579POPC   C4B34078  20.647  35.805   7.487
 2580POPC   NC334079   4.589  40.893   9.355
 2580POPC   PO434080   4.014  40.646   9.467
 2580POPC   GL134081   4.238  40.549   9.066
 2580POPC   GL234082   4.493  40.746   8.897
 2580POPC   C1A34083   4.268  40.386   8.649
 2580POPC   D2A34084   4.503  40.668   8.386
 2580POPC   C3A34085   4.264  40.862   8.054
 2580POPC   C4A34086   4.127  40.508   7.860
 2580POPC   C1B34087   4.390  41.107   8.636
 2580POPC   C2B34088   4.595  41.194   8.244
 2580POPC   C3B34089   4.780  40.820   7.996
 2580POPC   C4B34090   4.542  40.678   7.645
 2581POPC   NC334091  36.547  11.481   9.420
 2581POPC   PO434092  35.895  11.403   9.518
 2581POPC   GL134093  36.113  11.400   9.147
 2581POPC   GL234094  36.326  11.119   9.100
 2581POPC   C1A34095  36.224  11.473   8.724
 2581POPC   D2A34096  36.056  11.315   8.345
 2581POPC   C3A34097  36.100  11.541   7.989
 2581POPC   C4A34098  35.956  11.399   7.606
 2581POPC   C1B34099  36.056  10.983   8.749
 2581POPC   C2B34100  36.098  10.814   8.291
 2581POPC   C3B34101  36.177  11.015   7.875
 2581POPC   C4B34102  36.473  11.172   7.570
 2582POPC   NC334103  18.151  34.471   9.358
 2582POPC   PO434104  18.609  34.857   9.157
 2582POPC   GL134105  18.456  34.431   8.939
 2582POPC   GL234106  18.149  34.248   8.918
 2582POPC   C1A34107  18.393  34.388   8.499
 2582POPC   D2A34108  18.494  34.757   8.276
 2582POPC   C3A34109  18.424  34.692   7.872
 2582POPC   C4A34110  18.647  34.336   7.747
 2582POPC   C1B34111  18.016  34.656   8.728
 2582POPC   C2B34112  17.870  34.596   8.352
 2582POPC   C3B34113  18.069  34.364   8.063
 2582POPC   C4B34114  17.973  34.361   7.657
 2583POPC   NC334115  19.159  20.484   9.560
 2583POPC   PO434116  18.800  21.103   9.430
 2583POPC   GL134117  18.953  20.752   9.109
 2583POPC   GL234118  19.277  20.546   9.042
 2583POPC   C1A34119  18.923  20.633   8.654
 2583POPC   D2A34120  18.831  20.320   8.315
 2583POPC   C3A34121  18.791  20.551   7.939
 2583POPC   C4A34122  18.864  20.938   7.793
 2583POPC   C1B34123  19.281  20.291   8.629
 2583POPC   C2B34124  19.320  20.507   8.242
 2583POPC   C3B34125  19.289  20.528   7.811
 2583POPC   C4B34126  19.286  20.227   7.507
 2584POPC   NC334127  27.978  38.952   9.512
 2584POPC   PO434128  28.398  38.314   9.454
 2584POPC   GL134129  28.457  38.451   9.086
 2584POPC   GL234130  28.363  38.801   9.101
 2584POPC   C1A34131  28.276  38.488   8.698
 2584POPC   D2A34132  28.146  38.380   8.298
 2584POPC   C3A34133  28.379  38.167   7.971
 2584POPC   C4A34134  28.355  38.159   7.493
 2584POPC   C1B34135  28.687  38.780   8.770
 2584POPC   C2B34136  28.652  38.581   8.376
 2584POPC   C3B34137  28.489  38.670   8.016
 2584POPC   C4B34138  28.767  38.506   7.731
 2585POPC   NC334139  29.557  30.051   9.471
 2585POPC   PO434140  30.049  29.595   9.633
 2585POPC   GL134141  30.052  29.646   9.202
 2585POPC   GL234142  29.713  29.554   9.157
 2585POPC   C1A34143  29.916  29.963   8.910
 2585POPC   D2A34144  29.825  29.946   8.474
 2585POPC   C3A34145  29.999  30.150   8.134
 2585POPC   C4A34146  29.937  30.089   7.706
 2585POPC   C1B34147  29.527  29.647   8.757
 2585POPC   C2B34148  29.565  29.507   8.323
 2585POPC   C3B34149  29.621  29.823   7.999
 2585POPC   C4B34150  29.467  29.956   7.602
 2586POPC   NC334151  39.769  30.421   9.444
 2586POPC   PO434152  39.680  29.701   9.534
 2586POPC   GL134153  39.922  29.817   9.238
 2586POPC   GL234154  39.658  30.004   9.072
 2586POPC   C1A34155  40.125  29.851   8.856
 2586POPC   D2A34156  39.943  29.666   8.504
 2586POPC   C3A34157  39.877  29.929   8.167
 2586POPC   C4A34158  40.068  29.821   7.786
 2586POPC   C1B34159  39.540  29.984   8.627
 2586POPC   C2B34160  39.444  29.651   8.321
 2586POPC   C3B34161  39.571  29.646   7.875
 2586POPC   C4B34162  39.642  30.019   7.593
 2587POPC   NC334163  42.095  16.108   9.728
 2587POPC   PO434164  42.457  15.647   9.461
 2587POPC   GL134165  42.330  15.936   9.134
 2587POPC   GL234166  42.011  16.170   9.208
 2587POPC   C1A34167  42.537  15.944   8.713
 2587POPC   D2A34168  42.634  15.976   8.270
 2587POPC   C3A34169  42.304  15.967   7.994
 2587POPC   C4A34170  42.236  15.828   7.610
 2587POPC   C1B34171  42.166  16.300   8.806
 2587POPC   C2B34172  42.218  16.245   8.405
 2587POPC   C3B34173  42.021  16.412   8.030
 2587POPC   C4B34174  42.176  16.343   7.637
 2588POPC   NC334175  37.356  42.829   9.520
 2588POPC   PO434176  36.845  43.308   9.476
 2588POPC   GL134177  36.905  43.111   9.097
 2588POPC   GL234178  37.056  42.808   9.101
 2588POPC   C1A34179  36.703  42.917   8.741
 2588POPC   D2A34180  36.857  43.161   8.389
 2588POPC   C3A34181  36.605  43.252   8.063
 2588POPC   C4A34182  36.551  43.056   7.702
 2588POPC   C1B34183  37.217  42.941   8.685
 2588POPC   C2B34184  37.317  42.958   8.255
 2588POPC   C3B34185  37.042  42.980   7.926
 2588POPC   C4B34186  36.910  42.715   7.598
 2589POPC   NC334187   7.950  17.470   9.580
 2589POPC   PO434188   8.569  17.696   9.547
 2589POPC   GL134189   8.240  17.820   9.250
 2589POPC   GL234190   8.255  17.474   9.168
 2589POPC   C1A34191   8.151  17.794   8.784
 2589POPC   D2A34192   8.442  17.556   8.469
 2589POPC   C3A34193   8.218  17.481   8.060
 2589POPC   C4A34194   8.193  17.582   7.623
 2589POPC   C1B34195   8.155  17.272   8.800
 2589POPC   C2B34196   8.219  17.093   8.423
 2589POPC   C3B34197   8.537  17.084   8.132
 2589POPC   C4B34198   8.313  17.088   7.725
 2590POPC   NC334199  26.642   8.451   9.860
 2590POPC   PO434200  27.043   7.934   9.533
 2590POPC   GL134201  26.818   8.054   9.150
 2590POPC   GL234202  26.672   8.390   9.149
 2590POPC   C1A34203  26.925   8.221   8.733
 2590POPC   D2A34204  27.011   8.457   8.357
 2590POPC   C3A34205  26.845   8.144   8.066
 2590POPC   C4A34206  26.634   8.032   7.684
 2590POPC   C1B34207  26.475   8.511   8.751
 2590POPC   C2B34208  26.503   8.438   8.301
 2590POPC   C3B34209  26.606   8.547   7.851
 2590POPC   C4B34210  26.683   8.456   7.399
 2591POPC   NC334211  41.441  30.710   9.627
 2591POPC   PO434212  41.897  30.229   9.655
 2591POPC   GL134213  41.580  30.422   9.235
 2591POPC   GL234214  41.634  30.783   9.146
 2591POPC   C1A34215  41.593  30.514   8.719
 2591POPC   D2A34216  41.805  30.671   8.311
 2591POPC   C3A34217  41.890  30.620   7.868
 2591POPC   C4A34218  41.823  30.941   7.515
 2591POPC   C1B34219  41.491  31.009   8.787
 2591POPC   C2B34220  41.326  30.909   8.390
 2591POPC   C3B34221  41.475  30.933   7.966
 2591POPC   C4B34222  41.456  30.626   7.606
 2592POPC   NC334223   2.414  17.677   9.575
 2592POPC   PO434224   2.877  17.208   9.465
 2592POPC   GL134225   2.723  17.486   9.190
 2592POPC   GL234226   2.988  17.340   8.983
 2592POPC   C1A34227   2.595  17.585   8.790
 2592POPC   D2A34228   2.703  17.365   8.479
 2592POPC   C3A34229   2.545  17.540   8.123
 2592POPC   C4A34230   2.467  17.530   7.707
 2592POPC   C1B34231   3.094  17.677   8.718
 2592POPC   C2B34232   3.006  17.718   8.291
 2592POPC   C3B34233   3.013  17.459   7.942
 2592POPC   C4B34234   2.927  17.545   7.509
 2593POPC   NC334235  24.357  41.264   9.564
 2593POPC   PO434236  24.903  41.615   9.741
 2593POPC   GL134237  24.587  41.602   9.265
 2593POPC   GL234238  24.441  41.959   9.233
 2593POPC   C1A34239  24.586  41.377   8.816
 2593POPC   D2A34240  24.609  41.210   8.388
 2593POPC   C3A34241  24.427  41.353   8.019
 2593POPC   C4A34242  24.677  41.377   7.718
 2593POPC   C1B34243  24.523  41.868   8.817
 2593POPC   C2B34244  24.469  41.712   8.399
 2593POPC   C3B34245  24.670  41.813   8.020
 2593POPC   C4B34246  24.590  41.852   7.577
 2594POPC   NC334247  38.892  38.341   9.661
 2594POPC   PO434248  39.514  38.404   9.562
 2594POPC   GL134249  39.286  38.339   9.205
 2594POPC   GL234250  38.927  38.319   9.145
 2594POPC   C1A34251  39.289  38.281   8.767
 2594POPC   D2A34252  39.298  38.533   8.412
 2594POPC   C3A34253  39.323  38.269   8.062
 2594POPC   C4A34254  39.471  38.489   7.725
 2594POPC   C1B34255  38.948  38.677   8.833
 2594POPC   C2B34256  38.823  38.763   8.393
 2594POPC   C3B34257  39.008  38.684   7.980
 2594POPC   C4B34258  39.060  38.883   7.600
 2595POPC   NC334259  19.560  27.284   9.604
 2595POPC   PO434260  18.958  27.647   9.636
 2595POPC   GL134261  19.007  27.641   9.201
 2595POPC   GL234262  19.179  27.300   9.207
 2595POPC   C1A34263  18.788  27.796   8.832
 2595POPC   D2A34264  18.484  27.788   8.500
 2595POPC   C3A34265  18.685  27.744   8.109
 2595POPC   C4A34266  18.861  27.621   7.737
 2595POPC   C1B34267  19.018  27.316   8.794
 2595POPC   C2B34268  19.151  27.549   8.467
 2595POPC   C3B34269  19.215  27.472   8.056
 2595POPC   C4B34270  19.104  27.179   7.715
 2596POPC   NC334271  38.774  19.548   9.305
 2596POPC   PO434272  38.275  19.977   9.346
 2596POPC   GL134273  38.514  19.894   9.019
 2596POPC   GL234274  38.848  20.006   9.094
 2596POPC   C1A34275  38.531  19.675   8.630
 2596POPC   D2A34276  38.227  19.633   8.269
 2596POPC   C3A34277  38.420  19.705   7.861
 2596POPC   C4A34278  38.651  19.556   7.491
 2596POPC   C1B34279  38.776  20.141   8.672
 2596POPC   C2B34280  38.413  20.121   8.404
 2596POPC   C3B34281  38.489  20.192   7.996
 2596POPC   C4B34282  38.402  20.130   7.582
 2597POPC   NC334283  36.553  42.934   9.429
 2597POPC   PO434284  35.901  42.979   9.490
 2597POPC   GL134285  36.111  43.034   9.143
 2597POPC   GL234286  36.007  43.337   9.131
 2597POPC   C1A34287  36.141  43.011   8.716
 2597POPC   D2A34288  36.059  42.741   8.371
 2597POPC   C3A34289  36.143  42.991   8.032
 2597POPC   C4A34290  36.061  43.151   7.622
 2597POPC   C1B34291  36.129  43.531   8.772
 2597POPC   C2B34292  36.262  43.429   8.391
 2597POPC   C3B34293  36.088  43.505   8.007
 2597POPC   C4B34294  35.833  43.651   7.680
 2598POPC   NC334295  44.450  11.701   9.445
 2598POPC   PO434296  44.822  11.049   9.420
 2598POPC   GL134297  44.810  11.394   9.174
 2598POPC   GL234298  44.468  11.400   9.033
 2598POPC   C1A34299  44.884  11.487   8.735
 2598POPC   D2A34300  44.630  11.354   8.400
 2598POPC   C3A34301  44.752  11.454   7.990
 2598POPC   C4A34302  44.567  11.391   7.548
 2598POPC   C1B34303  44.273  11.138   8.719
 2598POPC   C2B34304  44.178  11.114   8.293
 2598POPC   C3B34305  44.247  11.172   7.862
 2598POPC   C4B34306  44.191  11.072   7.423
 2599POPC   NC334307   6.189  33.136   9.556
 2599POPC   PO434308   6.484  32.552   9.565
 2599POPC   GL134309   6.570  32.921   9.278
 2599POPC   GL234310   6.326  32.929   9.068
 2599POPC   C1A34311   6.773  33.093   8.912
 2599POPC   D2A34312   6.768  33.068   8.479
 2599POPC   C3A34313   7.010  32.958   8.150
 2599POPC   C4A34314   6.836  33.162   7.793
 2599POPC   C1B34315   6.299  33.213   8.716
 2599POPC   C2B34316   6.231  33.260   8.283
 2599POPC   C3B34317   6.342  33.318   7.846
 2599POPC   C4B34318   6.238  33.326   7.394
 2600POPC   NC334319  19.481  15.659   9.396
 2600POPC   PO434320  19.836  16.240   9.519
 2600POPC   GL134321  19.920  16.173   9.076
 2600POPC   GL234322  19.625  15.966   9.010
 2600POPC   C1A34323  19.906  16.029   8.608
 2600POPC   D2A34324  19.873  16.292   8.233
 2600POPC   C3A34325  19.716  16.017   7.925
 2600POPC   C4A34326  19.880  15.691   7.641
 2600POPC   C1B34327  19.436  15.674   8.684
 2600POPC   C2B34328  19.448  15.613   8.226
 2600POPC   C3B34329  19.383  15.677   7.780
 2600POPC   C4B34330  19.319  15.736   7.333
 2601POPC   NC334331  19.636  41.883   9.769
 2601POPC   PO434332  19.129  41.458   9.531
 2601POPC   GL134333  19.098  41.661   9.143
 2601POPC   GL234334  19.075  41.309   8.996
 2601POPC   C1A34335  19.307  41.661   8.756
 2601POPC   D2A34336  19.118  41.387   8.431
 2601POPC   C3A34337  19.046  41.605   8.043
 2601POPC   C4A34338  19.099  41.873   7.707
 2601POPC   C1B34339  18.714  41.182   8.691
 2601POPC   C2B34340  18.579  41.350   8.280
 2601POPC   C3B34341  18.671  41.349   7.830
 2601POPC   C4B34342  18.736  41.596   7.447
 2602POPC   NC334343  14.420   9.337   9.435
 2602POPC   PO434344  14.364   8.643   9.459
 2602POPC   GL134345  14.288   8.832   9.033
 2602POPC   GL234346  14.209   9.206   8.972
 2602POPC   C1A34347  14.604   9.022   8.716
 2602POPC   D2A34348  14.821   9.006   8.302
 2602POPC   C3A34349  14.495   8.911   7.983
 2602POPC   C4A34350  14.193   8.619   7.737
 2602POPC   C1B34351  13.970   8.966   8.648
 2602POPC   C2B34352  14.009   8.925   8.182
 2602POPC   C3B34353  14.061   9.092   7.750
 2602POPC   C4B34354  14.429   9.260   7.597
 2603POPC   NC334355  10.744  30.292   9.462
 2603POPC   PO434356  10.198  30.699   9.569
 2603POPC   GL134357  10.442  30.586   9.160
 2603POPC   GL234358  10.801  30.686   9.104
 2603POPC   C1A34359  10.548  30.409   8.748
 2603POPC   D2A34360  10.722  30.617   8.407
 2603POPC   C3A34361  10.394  30.658   8.103
 2603POPC   C4A34362  10.258  30.413   7.773
 2603POPC   C1B34363  10.930  31.002   8.762
 2603POPC   C2B34364  11.038  31.031   8.322
 2603POPC   C3B34365  10.841  30.886   7.918
 2603POPC   C4B34366  10.868  30.915   7.444
 2604POPC   NC334367  38.198  25.865   9.890
 2604POPC   PO434368  37.712  26.247   9.604
 2604POPC   GL134369  37.725  26.248   9.170
 2604POPC   GL234370  37.551  26.475   9.131
 2604POPC   C1A34371  37.799  26.072   8.758
 2604POPC   D2A34372  37.548  25.991   8.359
 2604POPC   C3A34373  37.772  26.040   7.980
 2604POPC   C4A34374  37.869  25.829   7.633
 2604POPC   C1B34375  37.387  26.345   8.768
 2604POPC   C2B34376  37.435  26.496   8.360
 2604POPC   C3B34377  37.410  26.397   7.970
 2604POPC   C4B34378  37.596  26.333   7.585
 2605POPC   NC334379  40.900  23.728   9.540
 2605POPC   PO434380  40.299  23.580   9.404
 2605POPC   GL134381  40.556  23.699   9.058
 2605POPC   GL234382  40.871  23.872   9.069
 2605POPC   C1A34383  40.836  23.492   8.739
 2605POPC   D2A34384  41.122  23.653   8.420
 2605POPC   C3A34385  40.881  23.745   8.036
 2605POPC   C4A34386  40.895  23.519   7.643
 2605POPC   C1B34387  40.747  24.006   8.664
 2605POPC   C2B34388  40.809  24.332   8.395
 2605POPC   C3B34389  40.984  24.294   8.001
 2605POPC   C4B34390  40.731  24.123   7.679
 2606POPC   NC334391  30.871   1.659   9.461
 2606POPC   PO434392  30.765   2.322   9.367
 2606POPC   GL134393  30.846   2.017   9.088
 2606POPC   GL234394  30.520   1.809   9.103
 2606POPC   C1A34395  30.983   1.909   8.686
 2606POPC   D2A34396  30.807   1.597   8.416
 2606POPC   C3A34397  30.826   1.751   7.983
 2606POPC   C4A34398  30.807   1.852   7.532
 2606POPC   C1B34399  30.463   2.051   8.738
 2606POPC   C2B34400  30.418   1.916   8.324
 2606POPC   C3B34401  30.508   2.144   7.950
 2606POPC   C4B34402  30.302   2.561   8.000
 2607POPC   NC334403  44.166  35.824   9.367
 2607POPC   PO434404  43.528  35.975   9.348
 2607POPC   GL134405  43.619  36.190   9.007
 2607POPC   GL234406  43.948  36.333   9.126
 2607POPC   C1A34407  43.707  35.956   8.640
 2607POPC   D2A34408  43.941  35.996   8.253
 2607POPC   C3A34409  44.254  35.925   7.919
 2607POPC   C4A34410  44.128  35.943   7.480
 2607POPC   C1B34411  43.995  36.560   8.737
 2607POPC   C2B34412  43.836  36.480   8.320
 2607POPC   C3B34413  43.734  36.290   7.881
 2607POPC   C4B34414  43.925  36.416   7.466
 2608POPC   NC334415   2.996   0.615   9.392
 2608POPC   PO434416   2.597   0.172   9.534
 2608POPC   GL134417   2.492   0.352   9.145
 2608POPC   GL234418   2.763   0.473   8.964
 2608POPC   C1A34419   2.266   0.291   8.773
 2608POPC   D2A34420   2.288   0.088   8.408
 2608POPC   C3A34421   2.265   0.220   8.004
 2608POPC   C4A34422   2.555   0.120   7.673
 2608POPC   C1B34423   2.752   0.194   8.605
 2608POPC   C2B34424   2.739   0.187   8.155
 2608POPC   C3B34425   2.708   0.553   7.876
 2608POPC   C4B34426   3.016   0.828   7.761
 2609POPC   NC334427   5.367  25.763   9.496
 2609POPC   PO434428   5.166  25.202   9.522
 2609POPC   GL134429   5.137  25.128   9.128
 2609POPC   GL234430   5.278  25.452   9.065
 2609POPC   C1A34431   5.231  25.080   8.726
 2609POPC   D2A34432   5.210  25.383   8.398
 2609POPC   C3A34433   5.255  25.124   8.017
 2609POPC   C4A34434   5.586  25.197   7.707
 2609POPC   C1B34435   4.911  25.523   8.833
 2609POPC   C2B34436   4.716  25.664   8.479
 2609POPC   C3B34437   4.803  25.423   8.095
 2609POPC   C4B34438   5.006  25.456   7.716
 2610POPC   NC334439  33.541  15.373   9.248
 2610POPC   PO434440  33.943  14.922   9.724
 2610POPC   GL134441  33.915  15.002   9.222
 2610POPC   GL234442  33.972  15.327   8.958
 2610POPC   C1A34443  33.767  14.896   8.827
 2610POPC   D2A34444  33.846  15.047   8.444
 2610POPC   C3A34445  33.682  14.915   8.125
 2610POPC   C4A34446  33.886  14.892   7.771
 2610POPC   C1B34447  33.706  15.479   8.628
 2610POPC   C2B34448  33.611  15.427   8.179
 2610POPC   C3B34449  33.749  15.394   7.750
 2610POPC   C4B34450  34.050  15.636   7.456
 2611POPC   NC334451   1.929  30.446   9.581
 2611POPC   PO434452   1.631  30.852   9.166
 2611POPC   GL134453   1.834  30.478   9.058
 2611POPC   GL234454   2.169  30.544   9.140
 2611POPC   C1A34455   2.012  30.470   8.643
 2611POPC   D2A34456   2.141  30.634   8.290
 2611POPC   C3A34457   1.842  30.860   8.076
 2611POPC   C4A34458   1.742  30.689   7.696
 2611POPC   C1B34459   2.448  30.336   8.860
 2611POPC   C2B34460   2.499  30.289   8.376
 2611POPC   C3B34461   2.266  30.270   7.956
 2611POPC   C4B34462   2.355  30.381   7.505
 2612POPC   NC334463   4.853  20.389   9.428
 2612POPC   PO434464   5.296  20.850   9.497
 2612POPC   GL134465   5.342  20.676   9.089
 2612POPC   GL234466   5.190  20.347   9.017
 2612POPC   C1A34467   5.484  20.699   8.659
 2612POPC   D2A34468   5.379  20.663   8.198
 2612POPC   C3A34469   5.222  20.860   7.850
 2612POPC   C4A34470   4.804  20.878   7.681
 2612POPC   C1B34471   5.157  20.113   8.631
 2612POPC   C2B34472   5.081  20.237   8.213
 2612POPC   C3B34473   5.011  20.387   7.809
 2612POPC   C4B34474   4.910  20.177   7.408
 2613POPC   NC334475  26.335  37.210   9.524
 2613POPC   PO434476  25.882  37.699   9.554
 2613POPC   GL134477  25.958  37.513   9.192
 2613POPC   GL234478  26.266  37.704   9.162
 2613POPC   C1A34479  25.884  37.691   8.779
 2613POPC   D2A34480  26.143  37.723   8.424
 2613POPC   C3A34481  25.890  37.676   8.103
 2613POPC   C4A34482  25.997  37.600   7.711
 2613POPC   C1B34483  26.351  37.459   8.831
 2613POPC   C2B34484  26.366  37.256   8.472
 2613POPC   C3B34485  26.361  37.394   8.065
 2613POPC   C4B34486  26.251  37.151   7.694
 2614POPC   NC334487  13.884  43.097   9.519
 2614POPC   PO434488  14.550  43.173   9.622
 2614POPC   GL134489  14.437  43.255   9.192
 2614POPC   GL234490  14.698  43.445   8.999
 2614POPC   C1A34491  14.377  43.101   8.764
 2614POPC   D2A34492  14.357  42.697   8.547
 2614POPC   C3A34493  14.295  42.736   8.105
 2614POPC   C4A34494  14.134  42.959   7.736
 2614POPC   C1B34495  14.754  43.365   8.539
 2614POPC   C2B34496  14.461  43.187   8.263
 2614POPC   C3B34497  14.118  43.359   8.070
 2614POPC   C4B34498  14.112  43.543   7.694
 2615POPC   NC334499  27.726  37.404   9.511
 2615POPC   PO434500  27.467  37.975   9.506
 2615POPC   GL134501  27.646  37.748   9.158
 2615POPC   GL234502  27.501  37.970   8.983
 2615POPC   C1A34503  27.804  37.650   8.737
 2615POPC   D2A34504  27.533  37.715   8.373
 2615POPC   C3A34505  27.672  37.655   7.950
 2615POPC   C4A34506  27.317  37.546   7.695
 2615POPC   C1B34507  27.220  38.213   8.805
 2615POPC   C2B34508  27.067  38.069   8.427
 2615POPC   C3B34509  27.306  38.075   8.064
 2615POPC   C4B34510  27.439  38.037   7.691
 2616POPC   NC334511  19.041  42.690   9.503
 2616POPC   PO434512  19.227  42.031   9.577
 2616POPC   GL134513  18.969  42.169   9.208
 2616POPC   GL234514  19.029  42.482   9.055
 2616POPC   C1A34515  18.834  42.147   8.754
 2616POPC   D2A34516  18.998  41.913   8.443
 2616POPC   C3A34517  18.936  42.139   8.093
 2616POPC   C4A34518  18.737  42.455   7.813
 2616POPC   C1B34519  19.073  42.632   8.630
 2616POPC   C2B34520  19.046  42.628   8.184
 2616POPC   C3B34521  19.289  42.412   7.854
 2616POPC   C4B34522  19.495  42.593   7.472
 2617POPC   NC334523  19.263  21.096   9.335
 2617POPC   PO434524  19.252  21.759   9.516
 2617POPC   GL134525  19.108  21.560   9.143
 2617POPC   GL234526  18.902  21.848   9.103
 2617POPC   C1A34527  19.186  21.316   8.740
 2617POPC   D2A34528  19.044  21.071   8.395
 2617POPC   C3A34529  19.323  21.014   8.066
 2617POPC   C4A34530  19.177  21.336   7.839
 2617POPC   C1B34531  19.111  21.819   8.716
 2617POPC   C2B34532  19.085  21.608   8.323
 2617POPC   C3B34533  18.976  21.772   7.960
 2617POPC   C4B34534  18.904  21.631   7.555
 2618POPC   NC334535  42.716  40.104   9.435
 2618POPC   PO434536  43.347  39.817   9.472
 2618POPC   GL134537  43.172  39.811   9.102
 2618POPC   GL234538  43.143  40.148   9.120
 2618POPC   C1A34539  43.354  39.927   8.706
 2618POPC   D2A34540  43.470  39.707   8.333
 2618POPC   C3A34541  43.251  39.920   8.015
 2618POPC   C4A34542  43.023  39.850   7.685
 2618POPC   C1B34543  42.897  40.223   8.804
 2618POPC   C2B34544  42.986  40.116   8.409
 2618POPC   C3B34545  42.786  40.173   8.048
 2618POPC   C4B34546  42.982  40.379   7.737
 2619POPC   NC334547  23.193  19.534   9.491
 2619POPC   PO434548  22.695  19.948   9.449
 2619POPC   GL134549  22.848  19.763   9.083
 2619POPC   GL234550  23.171  19.847   9.079
 2619POPC   C1A34551  22.895  19.648   8.652
 2619POPC   D2A34552  22.708  19.795   8.253
 2619POPC   C3A34553  22.951  19.727   7.893
 2619POPC   C4A34554  23.014  19.299   7.732
 2619POPC   C1B34555  23.221  20.062   8.704
 2619POPC   C2B34556  23.278  19.872   8.293
 2619POPC   C3B34557  23.374  20.039   7.871
 2619POPC   C4B34558  23.313  20.023   7.420
 2620POPC   NC334559  30.802  36.746   9.869
 2620POPC   PO434560  30.496  37.121   9.412
 2620POPC   GL134561  30.675  36.927   9.074
 2620POPC   GL234562  30.412  36.700   9.075
 2620POPC   C1A34563  30.810  36.850   8.626
 2620POPC   D2A34564  31.007  36.709   8.240
 2620POPC   C3A34565  30.997  36.970   7.875
 2620POPC   C4A34566  30.979  36.712   7.500
 2620POPC   C1B34567  30.291  36.857   8.701
 2620POPC   C2B34568  30.228  36.694   8.304
 2620POPC   C3B34569  30.539  36.742   7.996
 2620POPC   C4B34570  30.521  37.134   7.753
 2621POPC   NC334571  32.652  28.821   9.592
 2621POPC   PO434572  32.348  29.399   9.543
 2621POPC   GL134573  32.234  29.248   9.127
 2621POPC   GL234574  32.084  28.912   9.158
 2621POPC   C1A34575  32.243  29.399   8.695
 2621POPC   D2A34576  32.026  29.411   8.289
 2621POPC   C3A34577  32.128  29.207   7.900
 2621POPC   C4A34578  32.507  29.268   7.599
 2621POPC   C1B34579  32.334  28.890   8.749
 2621POPC   C2B34580  32.443  29.074   8.354
 2621POPC   C3B34581  32.535  28.930   7.972
 2621POPC   C4B34582  32.510  28.731   7.623
 2622POPC   NC334583  25.094  13.845   9.550
 2622POPC   PO434584  25.608  13.396   9.577
 2622POPC   GL134585  25.497  13.720   9.249
 2622POPC   GL234586  25.250  13.499   9.152
 2622POPC   C1A34587  25.356  13.873   8.809
 2622POPC   D2A34588  25.397  13.696   8.386
 2622POPC   C3A34589  25.138  13.797   8.042
 2622POPC   C4A34590  25.214  13.642   7.640
 2622POPC   C1B34591  25.284  13.328   8.730
 2622POPC   C2B34592  25.037  13.326   8.327
 2622POPC   C3B34593  24.853  13.386   7.903
 2622POPC   C4B34594  24.835  13.304   7.470
 2623POPC   NC334595  44.328   2.286   9.442
 2623POPC   PO434596   0.002   2.095   9.474
 2623POPC   GL134597  44.979   1.874   9.081
 2623POPC   GL234598  44.630   1.953   9.007
 2623POPC   C1A34599  44.971   1.805   8.642
 2623POPC   D2A34600  44.604   1.873   8.430
 2623POPC   C3A34601  44.679   1.768   8.027
 2623POPC   C4A34602  44.975   1.822   7.732
 2623POPC   C1B34603  44.388   2.218   8.716
 2623POPC   C2B34604  44.418   2.348   8.320
 2623POPC   C3B34605  44.273   2.104   8.021
 2623POPC   C4B34606  44.354   1.900   7.675
 2624POPC   NC334607  14.483   1.469   9.773
 2624POPC   PO434608  14.178   2.073   9.508
 2624POPC   GL134609  14.290   2.261   9.103
 2624POPC   GL234610  13.966   2.343   8.990
 2624POPC   C1A34611  14.600   2.333   8.763
 2624POPC   D2A34612  14.635   2.064   8.388
 2624POPC   C3A34613  14.449   2.090   7.989
 2624POPC   C4A34614  14.550   1.743   7.701
 2624POPC   C1B34615  14.141   2.203   8.587
 2624POPC   C2B34616  14.139   1.811   8.342
 2624POPC   C3B34617  14.071   1.763   7.900
 2624POPC   C4B34618  13.963   2.048   7.551
 2625POPC   NC334619   2.152  31.916   9.321
 2625POPC   PO434620   1.823  32.515   9.637
 2625POPC   GL134621   1.867  32.368   9.229
 2625POPC   GL234622   1.660  32.120   9.118
 2625POPC   C1A34623   2.086  32.290   8.811
 2625POPC   D2A34624   2.123  32.086   8.408
 2625POPC   C3A34625   2.157  32.355   8.050
 2625POPC   C4A34626   2.178  32.330   7.630
 2625POPC   C1B34627   1.447  31.885   8.785
 2625POPC   C2B34628   1.658  31.835   8.394
 2625POPC   C3B34629   1.707  32.122   8.071
 2625POPC   C4B34630   1.640  32.014   7.675
 2626POPC   NC334631  31.133  11.882   9.509
 2626POPC   PO434632  30.455  11.857   9.421
 2626POPC   GL134633  30.634  11.928   9.008
 2626POPC   GL234634  30.995  11.948   9.019
 2626POPC   C1A34635  30.453  12.239   8.696
 2626POPC   D2A34636  30.467  12.472   8.316
 2626POPC   C3A34637  30.618  12.264   7.951
 2626POPC   C4A34638  30.787  12.301   7.546
 2626POPC   C1B34639  30.924  12.049   8.599
 2626POPC   C2B34640  30.655  11.909   8.342
 2626POPC   C3B34641  30.737  11.631   8.052
 2626POPC   C4B34642  30.888  11.825   7.731
 2627POPC   NC334643   3.243  36.187   9.733
 2627POPC   PO434644   3.824  35.898   9.381
 2627POPC   GL134645   3.700  36.252   9.155
 2627POPC   GL234646   3.506  36.058   8.987
 2627POPC   C1A34647   3.647  36.455   8.733
 2627POPC   D2A34648   3.444  36.227   8.426
 2627POPC   C3A34649   3.517  36.310   8.057
 2627POPC   C4A34650   3.648  36.086   7.700
 2627POPC   C1B34651   3.290  35.842   8.702
 2627POPC   C2B34652   3.420  35.712   8.340
 2627POPC   C3B34653   3.252  35.876   7.995
 2627POPC   C4B34654   3.322  35.706   7.603
 2628POPC   NC334655  41.613  26.585  10.002
 2628POPC   PO434656  41.362  26.921   9.523
 2628POPC   GL134657  41.661  26.753   9.210
 2628POPC   GL234658  41.708  27.074   9.104
 2628POPC   C1A34659  41.758  26.619   8.749
 2628POPC   D2A34660  41.802  26.646   8.270
 2628POPC   C3A34661  41.442  26.649   7.949
 2628POPC   C4A34662  41.470  26.664   7.492
 2628POPC   C1B34663  41.349  26.946   8.832
 2628POPC   C2B34664  41.389  26.918   8.394
 2628POPC   C3B34665  41.576  27.160   8.067
 2628POPC   C4B34666  41.450  27.143   7.662
 2629POPC   NC334667  18.679  30.491   9.599
 2629POPC   PO434668  19.201  30.922   9.557
 2629POPC   GL134669  18.995  30.720   9.260
 2629POPC   GL234670  18.684  30.935   9.276
 2629POPC   C1A34671  19.151  30.568   8.894
 2629POPC   D2A34672  18.993  30.551   8.501
 2629POPC   C3A34673  19.245  30.332   8.203
 2629POPC   C4A34674  18.995  30.432   7.876
 2629POPC   C1B34675  18.621  30.703   8.912
 2629POPC   C2B34676  18.492  30.791   8.522
 2629POPC   C3B34677  18.605  30.837   8.097
 2629POPC   C4B34678  18.794  30.885   7.720
 2630POPC   NC334679  12.217  24.779   9.426
 2630POPC   PO434680  12.555  24.201   9.292
 2630POPC   GL134681  12.251  24.433   9.045
 2630POPC   GL234682  11.922  24.457   9.145
 2630POPC   C1A34683  12.178  24.681   8.702
 2630POPC   D2A34684  12.336  24.495   8.341
 2630POPC   C3A34685  12.198  24.640   7.960
 2630POPC   C4A34686  12.164  24.454   7.576
 2630POPC   C1B34687  11.886  24.259   8.708
 2630POPC   C2B34688  11.856  24.292   8.230
 2630POPC   C3B34689  11.700  24.245   7.780
 2630POPC   C4B34690  11.371  24.031   7.513
 2631POPC   NC334691  26.587  34.970   9.490
 2631POPC   PO434692  26.991  35.429   9.568
 2631POPC   GL134693  26.801  35.506   9.160
 2631POPC   GL234694  26.828  35.142   9.083
 2631POPC   C1A34695  26.761  35.459   8.697
 2631POPC   D2A34696  26.985  35.333   8.345
 2631POPC   C3A34697  26.768  35.329   8.003
 2631POPC   C4A34698  26.884  35.670   7.829
 2631POPC   C1B34699  27.113  35.054   8.742
 2631POPC   C2B34700  27.380  34.977   8.380
 2631POPC   C3B34701  27.323  35.145   7.987
 2631POPC   C4B34702  27.114  35.266   7.625
 2632POPC   NC334703  39.848  23.661   9.494
 2632POPC   PO434704  39.945  23.101   9.801
 2632POPC   GL134705  39.997  23.216   9.221
 2632POPC   GL234706  39.909  23.490   9.026
 2632POPC   C1A34707  40.316  23.340   8.792
 2632POPC   D2A34708  40.330  23.712   8.529
 2632POPC   C3A34709  40.121  23.707   8.137
 2632POPC   C4A34710  39.929  23.515   7.806
 2632POPC   C1B34711  39.836  23.841   8.750
 2632POPC   C2B34712  39.800  24.076   8.380
 2632POPC   C3B34713  39.803  24.084   7.938
 2632POPC   C4B34714  39.534  24.245   7.605
 2633POPC   NC334715  31.870  36.889   9.634
 2633POPC   PO434716  32.546  36.753   9.476
 2633POPC   GL134717  32.441  36.761   9.116
 2633POPC   GL234718  32.135  36.987   9.192
 2633POPC   C1A34719  32.646  36.729   8.728
 2633POPC   D2A34720  32.425  36.829   8.376
 2633POPC   C3A34721  32.592  36.800   7.971
 2633POPC   C4A34722  32.253  36.783   7.706
 2633POPC   C1B34723  32.315  37.175   8.818
 2633POPC   C2B34724  32.365  37.363   8.424
 2633POPC   C3B34725  32.252  37.187   8.047
 2633POPC   C4B34726  32.165  37.372   7.683
 2634POPC   NC334727  33.544  21.783   9.370
 2634POPC   PO434728  33.777  22.423   9.351
 2634POPC   GL134729  33.904  22.057   9.137
 2634POPC   GL234730  34.045  21.726   9.248
 2634POPC   C1A34731  33.758  21.979   8.725
 2634POPC   D2A34732  33.850  22.231   8.366
 2634POPC   C3A34733  33.655  22.126   7.979
 2634POPC   C4A34734  33.776  22.262   7.602
 2634POPC   C1B34735  34.205  21.771   8.820
 2634POPC   C2B34736  34.044  21.757   8.356
 2634POPC   C3B34737  34.103  21.901   7.964
 2634POPC   C4B34738  33.821  21.747   7.660
 2635POPC   NC334739  43.310  17.372   9.614
 2635POPC   PO434740  42.662  17.401   9.533
 2635POPC   GL134741  43.021  17.343   9.173
 2635POPC   GL234742  43.257  17.637   9.178
 2635POPC   C1A34743  43.153  17.393   8.704
 2635POPC   D2A34744  42.861  17.515   8.356
 2635POPC   C3A34745  42.919  17.356   7.927
 2635POPC   C4A34746  43.331  17.351   7.717
 2635POPC   C1B34747  43.430  17.913   8.886
 2635POPC   C2B34748  43.358  17.829   8.474
 2635POPC   C3B34749  43.296  17.690   8.100
 2635POPC   C4B34750  43.492  17.863   7.766
 2636POPC   NC334751  42.392  32.867   9.419
 2636POPC   PO434752  42.736  33.484   9.329
 2636POPC   GL134753  42.452  33.241   9.075
 2636POPC   GL234754  42.080  33.239   9.184
 2636POPC   C1A34755  42.489  33.102   8.658
 2636POPC   D2A34756  42.352  32.944   8.284
 2636POPC   C3A34757  42.438  33.091   7.854
 2636POPC   C4A34758  42.393  32.876   7.415
 2636POPC   C1B34759  42.007  32.969   8.805
 2636POPC   C2B34760  41.820  32.968   8.402
 2636POPC   C3B34761  41.967  33.135   8.038
 2636POPC   C4B34762  42.021  33.179   7.593
 2637POPC   NC334763  12.899   8.477   9.489
 2637POPC   PO434764  13.029   7.924   9.252
 2637POPC   GL134765  12.877   8.296   9.020
 2637POPC   GL234766  13.153   8.513   9.046
 2637POPC   C1A34767  12.694   8.323   8.623
 2637POPC   D2A34768  12.583   7.892   8.468
 2637POPC   C3A34769  12.651   7.834   8.035
 2637POPC   C4A34770  12.621   8.031   7.642
 2637POPC   C1B34771  13.255   8.232   8.694
 2637POPC   C2B34772  13.049   8.095   8.338
 2637POPC   C3B34773  12.971   8.253   7.945
 2637POPC   C4B34774  13.172   8.057   7.620
 2638POPC   NC334775   9.266  40.878   9.453
 2638POPC   PO434776   8.637  40.837   9.583
 2638POPC   GL134777   8.874  40.644   9.234
 2638POPC   GL234778   8.934  40.988   9.105
 2638POPC   C1A34779   9.102  40.629   8.794
 2638POPC   D2A34780   9.061  40.848   8.375
 2638POPC   C3A34781   9.180  40.637   8.009
 2638POPC   C4A34782   8.950  40.404   7.708
 2638POPC   C1B34783   8.780  41.107   8.730
 2638POPC   C2B34784   8.825  41.341   8.350
 2638POPC   C3B34785   8.851  41.183   7.966
 2638POPC   C4B34786   8.960  40.921   7.664
 2639POPC   NC334787  32.377  28.052   9.303
 2639POPC   PO434788  32.150  27.486   9.620
 2639POPC   GL134789  32.268  27.558   9.217
 2639POPC   GL234790  32.611  27.568   9.315
 2639POPC   C1A34791  32.309  27.688   8.767
 2639POPC   D2A34792  32.478  27.813   8.365
 2639POPC   C3A34793  32.262  27.725   7.990
 2639POPC   C4A34794  32.231  27.908   7.593
 2639POPC   C1B34795  32.641  27.304   8.944
 2639POPC   C2B34796  32.665  27.311   8.492
 2639POPC   C3B34797  32.637  27.345   8.028
 2639POPC   C4B34798  32.447  27.424   7.597
 2640POPC   NC334799  43.431  19.706   9.366
 2640POPC   PO434800  42.796  19.388   9.484
 2640POPC   GL134801  43.020  19.607   9.085
 2640POPC   GL234802  42.879  19.934   8.998
 2640POPC   C1A34803  43.212  19.683   8.673
 2640POPC   D2A34804  42.964  19.706   8.294
 2640POPC   C3A34805  43.160  19.615   7.887
 2640POPC   C4A34806  43.219  19.641   7.442
 2640POPC   C1B34807  43.174  20.194   8.801
 2640POPC   C2B34808  43.258  20.128   8.382
 2640POPC   C3B34809  43.120  20.122   7.986
 2640POPC   C4B34810  43.401  20.099   7.652
 2641POPC   NC334811  33.349  14.415   9.430
 2641POPC   PO434812  32.686  14.472   9.539
 2641POPC   GL134813  32.848  14.392   9.125
 2641POPC   GL234814  33.013  14.103   9.160
 2641POPC   C1A34815  32.944  14.386   8.666
 2641POPC   D2A34816  32.731  14.486   8.279
 2641POPC   C3A34817  32.861  14.611   7.937
 2641POPC   C4A34818  32.969  14.372   7.633
 2641POPC   C1B34819  33.248  13.977   8.815
 2641POPC   C2B34820  33.395  14.177   8.450
 2641POPC   C3B34821  33.205  14.215   8.070
 2641POPC   C4B34822  33.358  14.051   7.694
 2642POPC   NC334823  25.031  30.130   9.766
 2642POPC   PO434824  25.707  30.171   9.495
 2642POPC   GL134825  25.440  30.014   9.164
 2642POPC   GL234826  25.099  29.834   9.140
 2642POPC   C1A34827  25.438  29.933   8.749
 2642POPC   D2A34828  25.655  29.914   8.368
 2642POPC   C3A34829  25.405  29.809   8.066
 2642POPC   C4A34830  25.322  30.090   7.758
 2642POPC   C1B34831  24.923  29.799   8.691
 2642POPC   C2B34832  24.914  29.918   8.246
 2642POPC   C3B34833  24.965  29.703   7.836
 2642POPC   C4B34834  25.094  29.397   7.517
 2643POPC   NC334835  38.032  35.214   9.428
 2643POPC   PO434836  38.637  35.417   9.541
 2643POPC   GL134837  38.443  35.375   9.118
 2643POPC   GL234838  38.152  35.584   9.066
 2643POPC   C1A34839  38.648  35.326   8.691
 2643POPC   D2A34840  38.561  35.096   8.300
 2643POPC   C3A34841  38.740  35.068   7.869
 2643POPC   C4A34842  38.846  35.381   7.554
 2643POPC   C1B34843  38.322  35.729   8.689
 2643POPC   C2B34844  38.489  35.625   8.291
 2643POPC   C3B34845  38.410  35.459   7.901
 2643POPC   C4B34846  38.163  35.739   7.669
 2644POPC   NC334847   2.152  44.105   9.473
 2644POPC   PO434848   1.651  43.602   9.325
 2644POPC   GL134849   1.865  43.884   9.055
 2644POPC   GL234850   2.237  43.883   9.025
 2644POPC   C1A34851   1.933  43.863   8.633
 2644POPC   D2A34852   2.028  44.111   8.307
 2644POPC   C3A34853   1.885  43.938   7.915
 2644POPC   C4A34854   2.001  43.542   7.731
 2644POPC   C1B34855   2.355  44.194   8.698
 2644POPC   C2B34856   2.532  44.255   8.274
 2644POPC   C3B34857   2.232  44.333   7.925
 2644POPC   C4B34858   2.190  44.175   7.559
 2645POPC   NC334859  28.713  23.110   9.360
 2645POPC   PO434860  29.097  22.618   9.622
 2645POPC   GL134861  29.128  22.885   9.174
 2645POPC   GL234862  29.394  22.796   8.939
 2645POPC   C1A34863  28.968  22.872   8.704
 2645POPC   D2A34864  29.154  22.826   8.290
 2645POPC   C3A34865  28.904  22.873   7.893
 2645POPC   C4A34866  28.677  22.779   7.479
 2645POPC   C1B34867  29.387  23.160   8.619
 2645POPC   C2B34868  29.270  23.321   8.194
 2645POPC   C3B34869  29.296  23.221   7.750
 2645POPC   C4B34870  29.322  23.311   7.289
 2646POPC   NC334871   2.560   6.822   9.388
 2646POPC   PO434872   3.078   6.587   9.436
 2646POPC   GL134873   2.925   6.698   9.045
 2646POPC   GL234874   2.680   6.447   9.064
 2646POPC   C1A34875   2.967   6.547   8.628
 2646POPC   D2A34876   3.030   6.432   8.207
 2646POPC   C3A34877   2.997   6.792   7.934
 2646POPC   C4A34878   2.889   6.809   7.486
 2646POPC   C1B34879   2.468   6.696   8.726
 2646POPC   C2B34880   2.577   6.692   8.278
 2646POPC   C3B34881   2.438   6.586   7.870
 2646POPC   C4B34882   2.430   6.353   7.469
 2647POPC   NC334883   3.387   6.260   9.484
 2647POPC   PO434884   3.731   6.894   9.537
 2647POPC   GL134885   3.677   6.594   9.215
 2647POPC   GL234886   3.431   6.732   9.095
 2647POPC   C1A34887   3.662   6.395   8.778
 2647POPC   D2A34888   3.944   6.430   8.394
 2647POPC   C3A34889   3.754   6.379   7.980
 2647POPC   C4A34890   3.363   6.446   7.791
 2647POPC   C1B34891   3.371   6.866   8.719
 2647POPC   C2B34892   3.465   6.668   8.342
 2647POPC   C3B34893   3.541   6.888   7.987
 2647POPC   C4B34894   3.367   6.984   7.621
 2648POPC   NC334895   3.939  38.705   9.570
 2648POPC   PO434896   3.515  38.195   9.481
 2648POPC   GL134897   3.665  38.512   9.185
 2648POPC   GL234898   3.600  38.243   8.963
 2648POPC   C1A34899   3.519  38.744   8.798
 2648POPC   D2A34900   3.391  38.531   8.433
 2648POPC   C3A34901   3.495  38.671   8.040
 2648POPC   C4A34902   3.284  38.573   7.644
 2648POPC   C1B34903   3.868  38.036   8.676
 2648POPC   C2B34904   3.763  37.967   8.244
 2648POPC   C3B34905   3.570  38.187   7.875
 2648POPC   C4B34906   3.515  38.199   7.411
 2649POPC   NC334907  24.108   5.621   9.523
 2649POPC   PO434908  23.998   6.322   9.421
 2649POPC   GL134909  24.307   6.035   9.148
 2649POPC   GL234910  24.214   5.706   9.045
 2649POPC   C1A34911  24.680   5.907   8.845
 2649POPC   D2A34912  24.817   5.804   8.397
 2649POPC   C3A34913  24.593   6.001   8.067
 2649POPC   C4A34914  24.644   6.152   7.662
 2649POPC   C1B34915  24.244   5.405   8.730
 2649POPC   C2B34916  24.098   5.444   8.307
 2649POPC   C3B34917  23.973   5.671   7.935
 2649POPC   C4B34918  24.304   5.779   7.602
 2650POPC   NC334919  28.777  30.444   9.296
 2650POPC   PO434920  28.164  30.637   9.627
 2650POPC   GL134921  28.232  30.458   9.217
 2650POPC   GL234922  28.372  30.765   9.154
 2650POPC   C1A34923  28.343  30.477   8.753
 2650POPC   D2A34924  28.146  30.613   8.389
 2650POPC   C3A34925  28.311  30.544   7.991
 2650POPC   C4A34926  28.203  30.713   7.574
 2650POPC   C1B34927  28.599  30.928   8.783
 2650POPC   C2B34928  28.653  30.783   8.367
 2650POPC   C3B34929  28.620  30.951   7.968
 2650POPC   C4B34930  28.707  30.779   7.566
 2651POPC   NC334931  39.161  18.958   9.415
 2651POPC   PO434932  39.466  19.464   9.810
 2651POPC   GL134933  39.615  19.144   9.318
 2651POPC   GL234934  39.610  18.750   9.257
 2651POPC   C1A34935  39.470  19.188   8.807
 2651POPC   D2A34936  39.209  19.294   8.390
 2651POPC   C3A34937  39.414  19.428   7.991
 2651POPC   C4A34938  39.501  19.196   7.568
 2651POPC   C1B34939  39.633  18.705   8.808
 2651POPC   C2B34940  39.611  18.815   8.388
 2651POPC   C3B34941  39.353  18.766   8.012
 2651POPC   C4B34942  39.069  19.079   7.859
 2652POPC   NC334943  38.820  28.875   9.403
 2652POPC   PO434944  38.246  29.321   9.454
 2652POPC   GL134945  38.412  29.044   9.139
 2652POPC   GL234946  38.233  29.138   8.888
 2652POPC   C1A34947  38.676  28.959   8.736
 2652POPC   D2A34948  38.520  28.896   8.308
 2652POPC   C3A34949  38.605  29.183   7.953
 2652POPC   C4A34950  38.805  29.061   7.543
 2652POPC   C1B34951  38.196  28.740   8.725
 2652POPC   C2B34952  37.929  28.769   8.378
 2652POPC   C3B34953  38.093  28.991   8.037
 2652POPC   C4B34954  38.101  29.335   7.742
 2653POPC   NC334955  16.130  10.186   9.435
 2653POPC   PO434956  15.782  10.705   9.494
 2653POPC   GL134957  15.840  10.529   9.116
 2653POPC   GL234958  16.164  10.537   9.065
 2653POPC   C1A34959  15.728  10.394   8.739
 2653POPC   D2A34960  15.931  10.361   8.386
 2653POPC   C3A34961  15.700  10.497   8.061
 2653POPC   C4A34962  15.679  10.401   7.662
 2653POPC   C1B34963  16.111  10.790   8.686
 2653POPC   C2B34964  16.049  10.840   8.229
 2653POPC   C3B34965  16.204  10.608   7.900
 2653POPC   C4B34966  16.185  10.638   7.452
 2654POPC   NC334967  16.205   8.451   9.399
 2654POPC   PO434968  15.828   7.920   9.492
 2654POPC   GL134969  15.972   8.072   9.115
 2654POPC   GL234970  16.316   7.943   9.099
 2654POPC   C1A34971  15.736   7.947   8.740
 2654POPC   D2A34972  15.681   8.192   8.400
 2654POPC   C3A34973  15.630   8.160   7.971
 2654POPC   C4A34974  15.919   8.335   7.636
 2654POPC   C1B34975  16.223   8.042   8.661
 2654POPC   C2B34976  16.159   8.221   8.219
 2654POPC   C3B34977  16.065   7.927   7.909
 2654POPC   C4B34978  16.150   7.526   7.795
 2655POPC   NC334979  27.996  24.978   9.546
 2655POPC   PO434980  27.656  25.598   9.570
 2655POPC   GL134981  27.695  25.440   9.187
 2655POPC   GL234982  27.443  25.189   9.160
 2655POPC   C1A34983  27.802  25.259   8.787
 2655POPC   D2A34984  27.980  25.218   8.382
 2655POPC   C3A34985  27.852  25.344   7.962
 2655POPC   C4A34986  27.717  25.002   7.710
 2655POPC   C1B34987  27.353  25.511   8.808
 2655POPC   C2B34988  27.537  25.510   8.391
 2655POPC   C3B34989  27.356  25.251   8.055
 2655POPC   C4B34990  27.209  25.448   7.698
 2656POPC   NC334991  39.097  12.174   9.636
 2656POPC   PO434992  39.516  11.729   9.643
 2656POPC   GL134993  39.388  11.977   9.264
 2656POPC   GL234994  39.021  12.042   9.150
 2656POPC   C1A34995  39.410  12.238   8.898
 2656POPC   D2A34996  39.186  12.116   8.523
 2656POPC   C3A34997  39.392  12.143   8.134
 2656POPC   C4A34998  39.107  12.336   7.885
 2656POPC   C1B34999  39.192  11.736   8.863
 2656POPC   C2B35000  39.081  11.572   8.481
 2656POPC   C3B35001  39.036  11.791   8.155
 2656POPC   C4B35002  39.111  11.804   7.760
 2657POPC   NC335003  32.006  35.730   9.617
 2657POPC   PO435004  32.609  35.527   9.478
 2657POPC   GL135005  32.415  35.391   9.133
 2657POPC   GL235006  32.110  35.479   9.166
 2657POPC   C1A35007  32.333  35.156   8.792
 2657POPC   D2A35008  32.399  35.266   8.416
 2657POPC   C3A35009  32.361  35.095   8.071
 2657POPC   C4A35010  32.339  35.177   7.672
 2657POPC   C1B35011  32.235  35.717   8.773
 2657POPC   C2B35012  32.067  35.639   8.350
 2657POPC   C3B35013  32.134  35.575   7.898
 2657POPC   C4B35014  32.294  35.661   7.441
 2658POPC   NC335015  35.738  38.611   9.371
 2658POPC   PO435016  35.087  38.298   9.217
 2658POPC   GL135017  35.386  38.460   9.012
 2658POPC   GL235018  35.237  38.769   9.025
 2658POPC   C1A35019  35.262  38.503   8.587
 2658POPC   D2A35020  35.225  38.480   8.176
 2658POPC   C3A35021  34.988  38.198   7.942
 2658POPC   C4A35022  35.061  38.245   7.546
 2658POPC   C1B35023  35.562  38.891   8.761
 2658POPC   C2B35024  35.620  38.787   8.339
 2658POPC   C3B35025  35.421  38.898   7.959
 2658POPC   C4B35026  35.584  38.937   7.555
 2659POPC   NC335027  12.986  40.998   9.249
 2659POPC   PO435028  12.607  40.447   9.483
 2659POPC   GL135029  12.771  40.577   9.081
 2659POPC   GL235030  12.543  40.400   8.911
 2659POPC   C1A35031  12.925  40.794   8.658
 2659POPC   D2A35032  12.896  41.003   8.254
 2659POPC   C3A35033  13.049  40.749   7.931
 2659POPC   C4A35034  13.248  40.978   7.685
 2659POPC   C1B35035  12.434  40.837   8.796
 2659POPC   C2B35036  12.480  40.759   8.375
 2659POPC   C3B35037  12.551  40.790   7.928
 2659POPC   C4B35038  12.540  40.883   7.503
 2660POPC   NC335039  27.274  39.125   9.436
 2660POPC   PO435040  27.826  39.444   9.487
 2660POPC   GL135041  27.624  39.308   9.112
 2660POPC   GL235042  27.708  38.973   9.077
 2660POPC   C1A35043  27.523  39.215   8.676
 2660POPC   D2A35044  27.809  39.277   8.343
 2660POPC   C3A35045  27.682  39.375   7.934
 2660POPC   C4A35046  27.518  39.088   7.656
 2660POPC   C1B35047  28.013  38.958   8.768
 2660POPC   C2B35048  28.154  38.884   8.387
 2660POPC   C3B35049  27.889  38.851   8.051
 2660POPC   C4B35050  28.028  39.064   7.719
 2661POPC   NC335051  29.466  12.343   9.293
 2661POPC   PO435052  28.946  12.778   9.441
 2661POPC   GL135053  29.072  12.919   9.076
 2661POPC   GL235054  29.357  12.763   8.999
 2661POPC   C1A35055  28.835  13.052   8.753
 2661POPC   D2A35056  28.816  12.884   8.358
 2661POPC   C3A35057  29.123  13.011   8.106
 2661POPC   C4A35058  28.971  13.092   7.717
 2661POPC   C1B35059  29.474  12.545   8.674
 2661POPC   C2B35060  29.351  12.565   8.316
 2661POPC   C3B35061  29.423  12.363   7.974
 2661POPC   C4B35062  29.227  12.647   7.763
 2662POPC   NC335063  39.289  17.790   9.533
 2662POPC   PO435064  39.230  18.488   9.471
 2662POPC   GL135065  39.493  18.181   9.231
 2662POPC   GL235066  39.402  17.821   9.060
 2662POPC   C1A35067  39.588  18.203   8.814
 2662POPC   D2A35068  39.359  18.372   8.475
 2662POPC   C3A35069  39.318  18.208   8.081
 2662POPC   C4A35070  39.030  18.374   7.773
 2662POPC   C1B35071  39.092  18.039   8.807
 2662POPC   C2B35072  38.910  18.006   8.380
 2662POPC   C3B35073  38.955  17.876   7.966
 2662POPC   C4B35074  39.310  17.818   7.714
 2663POPC   NC335075  40.439  28.558   9.889
 2663POPC   PO435076  39.937  28.366   9.449
 2663POPC   GL135077  39.790  28.289   9.080
 2663POPC   GL235078  39.812  28.639   9.058
 2663POPC   C1A35079  39.943  28.131   8.707
 2663POPC   D2A35080  40.307  28.285   8.480
 2663POPC   C3A35081  40.315  28.388   8.051
 2663POPC   C4A35082  40.289  28.311   7.608
 2663POPC   C1B35083  39.665  28.581   8.687
 2663POPC   C2B35084  39.681  28.296   8.305
 2663POPC   C3B35085  39.836  28.399   7.878
 2663POPC   C4B35086  39.692  28.644   7.472
 2664POPC   NC335087   7.922  21.106   9.522
 2664POPC   PO435088   7.837  21.763   9.502
 2664POPC   GL135089   8.024  21.576   9.115
 2664POPC   GL235090   8.053  21.260   9.070
 2664POPC   C1A35091   8.189  21.624   8.695
 2664POPC   D2A35092   7.973  21.585   8.326
 2664POPC   C3A35093   8.146  21.605   7.964
 2664POPC   C4A35094   8.166  21.443   7.569
 2664POPC   C1B35095   8.154  21.072   8.680
 2664POPC   C2B35096   8.319  21.182   8.306
 2664POPC   C3B35097   8.154  21.084   7.932
 2664POPC   C4B35098   7.945  20.858   7.642
 2665POPC   NC335099   9.884  32.708   9.554
 2665POPC   PO435100  10.456  33.119   9.594
 2665POPC   GL135101  10.607  33.053   9.126
 2665POPC   GL235102  10.373  33.245   8.959
 2665POPC   C1A35103  10.691  32.996   8.642
 2665POPC   D2A35104  10.765  32.997   8.154
 2665POPC   C3A35105  10.502  33.107   7.829
 2665POPC   C4A35106  10.087  32.983   7.790
 2665POPC   C1B35107  10.398  33.410   8.521
 2665POPC   C2B35108  10.156  33.394   8.141
 2665POPC   C3B35109  10.124  33.545   7.735
 2665POPC   C4B35110  10.344  33.747   7.399
 2666POPC   NC335111   6.406  31.164   9.460
 2666POPC   PO435112   7.170  31.395   9.459
 2666POPC   GL135113   6.817  31.365   9.184
 2666POPC   GL235114   6.527  31.595   9.206
 2666POPC   C1A35115   6.673  31.213   8.797
 2666POPC   D2A35116   6.721  31.447   8.411
 2666POPC   C3A35117   6.940  31.384   8.047
 2666POPC   C4A35118   6.707  31.204   7.722
 2666POPC   C1B35119   6.636  31.737   8.810
 2666POPC   C2B35120   6.374  31.807   8.392
 2666POPC   C3B35121   6.516  31.652   7.962
 2666POPC   C4B35122   6.293  31.491   7.607
 2667POPC   NC335123   4.905   3.046   9.441
 2667POPC   PO435124   5.368   2.572   9.541
 2667POPC   GL135125   5.203   2.643   9.155
 2667POPC   GL235126   4.946   2.397   9.022
 2667POPC   C1A35127   5.391   2.724   8.750
 2667POPC   D2A35128   5.289   2.452   8.429
 2667POPC   C3A35129   5.292   2.589   8.014
 2667POPC   C4A35130   5.123   2.978   7.872
 2667POPC   C1B35131   4.890   2.774   8.783
 2667POPC   C2B35132   4.968   2.842   8.370
 2667POPC   C3B35133   4.782   2.550   8.111
 2667POPC   C4B35134   4.782   2.648   7.717
 2668POPC   NC335135  11.548  21.655   9.369
 2668POPC   PO435136  11.023  21.313   9.571
 2668POPC   GL135137  11.197  21.282   9.149
 2668POPC   GL235138  11.152  21.624   9.041
 2668POPC   C1A35139  11.390  21.181   8.728
 2668POPC   D2A35140  11.244  21.354   8.381
 2668POPC   C3A35141  11.455  21.284   8.051
 2668POPC   C4A35142  11.301  21.625   7.798
 2668POPC   C1B35143  11.504  21.677   8.724
 2668POPC   C2B35144  11.740  21.813   8.358
 2668POPC   C3B35145  11.810  21.618   7.925
 2668POPC   C4B35146  11.713  21.792   7.510
 2669POPC   NC335147  16.162  30.917   9.486
 2669POPC   PO435148  15.528  30.651   9.421
 2669POPC   GL135149  15.833  30.643   9.080
 2669POPC   GL235150  16.209  30.679   9.049
 2669POPC   C1A35151  15.771  30.786   8.647
 2669POPC   D2A35152  15.738  31.022   8.238
 2669POPC   C3A35153  15.745  30.699   7.913
 2669POPC   C4A35154  16.064  30.404   7.933
 2669POPC   C1B35155  16.191  31.039   8.782
 2669POPC   C2B35156  16.221  30.844   8.370
 2669POPC   C3B35157  16.183  31.023   7.989
 2669POPC   C4B35158  16.149  31.309   7.667
 2670POPC   NC335159   0.852   9.396   9.437
 2670POPC   PO435160   0.229   9.818   9.496
 2670POPC   GL135161   0.398   9.812   9.097
 2670POPC   GL235162   0.667  10.007   9.015
 2670POPC   C1A35163   0.501   9.653   8.676
 2670POPC   D2A35164   0.705   9.673   8.292
 2670POPC   C3A35165   0.501   9.699   7.932
 2670POPC   C4A35166   0.635   9.963   7.618
 2670POPC   C1B35167   0.396  10.148   8.705
 2670POPC   C2B35168   0.336  10.040   8.293
 2670POPC   C3B35169   0.211  10.131   7.884
 2670POPC   C4B35170  44.854  10.144   7.605
 2671POPC   NC335171  42.283  34.916   9.362
 2671POPC   PO435172  41.978  35.549   9.494
 2671POPC   GL135173  42.281  35.415   9.217
 2671POPC   GL235174  42.025  35.389   9.001
 2671POPC   C1A35175  42.504  35.297   8.817
 2671POPC   D2A35176  42.769  35.156   8.469
 2671POPC   C3A35177  42.509  35.167   8.073
 2671POPC   C4A35178  42.486  35.487   7.785
 2671POPC   C1B35179  42.110  35.652   8.667
 2671POPC   C2B35180  42.284  35.663   8.256
 2671POPC   C3B35181  42.005  35.571   7.947
 2671POPC   C4B35182  42.053  35.196   7.755
 2672POPC   NC335183  29.137  12.430   9.668
 2672POPC   PO435184  29.456  11.850   9.370
 2672POPC   GL135185  29.072  12.057   9.149
 2672POPC   GL235186  28.982  12.392   9.138
 2672POPC   C1A35187  29.167  12.097   8.704
 2672POPC   D2A35188  29.485  12.068   8.386
 2672POPC   C3A35189  29.426  11.819   8.037
 2672POPC   C4A35190  29.269  11.968   7.640
 2672POPC   C1B35191  28.970  12.560   8.731
 2672POPC   C2B35192  28.891  12.358   8.346
 2672POPC   C3B35193  28.939  12.208   7.951
 2672POPC   C4B35194  28.913  12.347   7.522
 2673POPC   NC335195  43.305   3.741   9.500
 2673POPC   PO435196  42.960   3.074   9.511
 2673POPC   GL135197  43.025   3.398   9.188
 2673POPC   GL235198  43.379   3.387   9.140
 2673POPC   C1A35199  43.105   3.700   8.833
 2673POPC   D2A35200  43.382   3.663   8.485
 2673POPC   C3A35201  43.237   3.600   8.063
 2673POPC   C4A35202  43.354   3.849   7.752
 2673POPC   C1B35203  43.312   3.217   8.746
 2673POPC   C2B35204  43.247   3.163   8.336
 2673POPC   C3B35205  43.258   3.058   7.913
 2673POPC   C4B35206  43.340   3.163   7.491
 2674POPC   NC335207  35.076  23.906   9.348
 2674POPC   PO435208  35.350  23.446   9.749
 2674POPC   GL135209  35.408  23.564   9.230
 2674POPC   GL235210  35.083  23.439   9.099
 2674POPC   C1A35211  35.492  23.835   8.814
 2674POPC   D2A35212  35.746  23.840   8.411
 2674POPC   C3A35213  35.564  23.720   8.027
 2674POPC   C4A35214  35.303  23.836   7.686
 2674POPC   C1B35215  34.966  23.664   8.709
 2674POPC   C2B35216  34.730  23.890   8.360
 2674POPC   C3B35217  34.885  23.971   7.971
 2674POPC   C4B35218  34.889  23.573   7.822
 2675POPC   NC335219  17.293  28.371   9.439
 2675POPC   PO435220  17.854  28.654   9.692
 2675POPC   GL135221  17.825  28.582   9.204
 2675POPC   GL235222  17.736  28.219   9.130
 2675POPC   C1A35223  17.589  28.591   8.797
 2675POPC   D2A35224  17.379  28.396   8.434
 2675POPC   C3A35225  17.726  28.321   8.186
 2675POPC   C4A35226  17.754  28.664   7.901
 2675POPC   C1B35227  17.487  28.021   8.779
 2675POPC   C2B35228  17.333  27.809   8.386
 2675POPC   C3B35229  17.170  28.052   8.040
 2675POPC   C4B35230  17.405  28.329   7.789
 2676POPC   NC335231   2.824  14.443   9.534
 2676POPC   PO435232   3.284  14.034   9.252
 2676POPC   GL135233   2.888  14.232   9.041
 2676POPC   GL235234   2.561  14.178   9.180
 2676POPC   C1A35235   2.667  14.540   8.723
 2676POPC   D2A35236   2.485  14.516   8.295
 2676POPC   C3A35237   2.804  14.533   7.981
 2676POPC   C4A35238   2.981  14.826   7.710
 2676POPC   C1B35239   2.451  14.084   8.763
 2676POPC   C2B35240   2.735  14.093   8.429
 2676POPC   C3B35241   2.587  14.067   8.029
 2676POPC   C4B35242   2.729  14.166   7.625
 2677POPC   NC335243  23.618  39.825   9.407
 2677POPC   PO435244  23.814  40.421   9.215
 2677POPC   GL135245  23.589  40.132   9.005
 2677POPC   GL235246  23.908  39.931   8.984
 2677POPC   C1A35247  23.428  40.005   8.616
 2677POPC   D2A35248  23.549  40.270   8.275
 2677POPC   C3A35249  23.455  40.187   7.850
 2677POPC   C4A35250  23.457  39.762   7.694
 2677POPC   C1B35251  23.934  39.995   8.536
 2677POPC   C2B35252  23.702  39.799   8.181
 2677POPC   C3B35253  23.923  39.960   7.862
 2677POPC   C4B35254  24.135  40.371   7.851
 2678POPC   NC335255  34.102   9.964   9.433
 2678POPC   PO435256  33.424   9.918   9.575
 2678POPC   GL135257  33.647   9.775   9.224
 2678POPC   GL235258  33.829   9.450   9.255
 2678POPC   C1A35259  33.729   9.817   8.798
 2678POPC   D2A35260  33.525   9.645   8.451
 2678POPC   C3A35261  33.440   9.912   8.068
 2678POPC   C4A35262  33.761  10.008   7.725
 2678POPC   C1B35263  33.824   9.273   8.824
 2678POPC   C2B35264  33.998   9.427   8.435
 2678POPC   C3B35265  33.891   9.645   8.083
 2678POPC   C4B35266  33.988   9.522   7.714
 2679POPC   NC335267  39.771  14.405   9.812
 2679POPC   PO435268  40.336  14.680   9.563
 2679POPC   GL135269  40.148  14.397   9.219
 2679POPC   GL235270  39.802  14.392   9.257
 2679POPC   C1A35271  40.135  14.529   8.772
 2679POPC   D2A35272  40.297  14.344   8.370
 2679POPC   C3A35273  40.274  14.503   7.980
 2679POPC   C4A35274  40.331  14.362   7.561
 2679POPC   C1B35275  39.657  14.324   8.852
 2679POPC   C2B35276  39.706  14.541   8.483
 2679POPC   C3B35277  39.788  14.500   8.089
 2679POPC   C4B35278  39.859  14.561   7.674
 2680POPC   NC335279  35.160  29.965   9.638
 2680POPC   PO435280  34.467  30.265   9.526
 2680POPC   GL135281  34.700  30.022   9.195
 2680POPC   GL235282  34.389  29.814   9.093
 2680POPC   C1A35283  34.791  29.896   8.746
 2680POPC   D2A35284  34.966  29.728   8.350
 2680POPC   C3A35285  34.784  29.773   7.909
 2680POPC   C4A35286  34.841  30.038   7.525
 2680POPC   C1B35287  34.316  30.063   8.711
 2680POPC   C2B35288  34.532  30.036   8.304
 2680POPC   C3B35289  34.533  30.236   7.902
 2680POPC   C4B35290  34.318  30.091   7.522
 2681POPC   NC335291  27.465  28.623   9.713
 2681POPC   PO435292  27.806  28.144   9.623
 2681POPC   GL135293  27.726  28.454   9.303
 2681POPC   GL235294  27.353  28.483   9.232
 2681POPC   C1A35295  27.790  28.553   8.875
 2681POPC   D2A35296  27.892  28.278   8.537
 2681POPC   C3A35297  27.814  28.425   8.145
 2681POPC   C4A35298  27.946  28.698   7.848
 2681POPC   C1B35299  27.243  28.635   8.823
 2681POPC   C2B35300  27.398  28.568   8.388
 2681POPC   C3B35301  27.394  28.564   7.902
 2681POPC   C4B35302  27.419  28.556   7.425
 2682POPC   NC335303   7.798  41.454   9.392
 2682POPC   PO435304   8.362  41.842   9.359
 2682POPC   GL135305   8.119  41.627   9.055
 2682POPC   GL235306   7.800  41.834   9.047
 2682POPC   C1A35307   8.072  41.354   8.683
 2682POPC   D2A35308   8.373  41.173   8.416
 2682POPC   C3A35309   8.358  41.321   8.006
 2682POPC   C4A35310   7.940  41.330   7.838
 2682POPC   C1B35311   8.002  41.855   8.634
 2682POPC   C2B35312   7.755  41.697   8.298
 2682POPC   C3B35313   7.811  41.866   7.923
 2682POPC   C4B35314   8.236  41.786   7.849
 2683POPC   NC335315   1.151  25.791   9.200
 2683POPC   PO435316   1.142  25.261   9.627
 2683POPC   GL135317   1.209  25.271   9.151
 2683POPC   GL235318   1.286  24.961   8.985
 2683POPC   C1A35319   1.405  25.380   8.715
 2683POPC   D2A35320   1.311  25.228   8.308
 2683POPC   C3A35321   1.313  25.505   7.962
 2683POPC   C4A35322   0.936  25.669   7.825
 2683POPC   C1B35323   0.962  25.100   8.706
 2683POPC   C2B35324   0.853  25.021   8.287
 2683POPC   C3B35325   1.031  25.088   7.862
 2683POPC   C4B35326   1.015  24.956   7.430
 2684POPC   NC335327   0.433  39.867   9.545
 2684POPC   PO435328  44.842  40.260   9.555
 2684POPC   GL135329   0.063  40.268   9.136
 2684POPC   GL235330   0.417  40.090   9.089
 2684POPC   C1A35331   0.113  40.122   8.684
 2684POPC   D2A35332   0.311  39.888   8.379
 2684POPC   C3A35333   0.265  39.982   7.941
 2684POPC   C4A35334   0.505  39.802   7.593
 2684POPC   C1B35335   0.662  40.192   8.714
 2684POPC   C2B35336   0.583  40.341   8.279
 2684POPC   C3B35337   0.728  40.225   7.857
 2684POPC   C4B35338   0.745  40.221   7.378
 2685POPC   NC335339  18.723  15.320   9.466
 2685POPC   PO435340  19.404  15.202   9.486
 2685POPC   GL135341  19.143  15.260   9.135
 2685POPC   GL235342  18.870  15.000   9.097
 2685POPC   C1A35343  18.988  15.424   8.759
 2685POPC   D2A35344  19.109  15.237   8.379
 2685POPC   C3A35345  18.993  15.469   8.019
 2685POPC   C4A35346  19.073  15.316   7.606
 2685POPC   C1B35347  18.628  15.044   8.723
 2685POPC   C2B35348  18.611  15.276   8.326
 2685POPC   C3B35349  18.788  15.018   7.978
 2685POPC   C4B35350  18.592  14.680   7.825
 2686POPC   NC335351  12.363  13.940   9.605
 2686POPC   PO435352  11.754  14.441   9.425
 2686POPC   GL135353  11.840  14.680   9.090
 2686POPC   GL235354  12.206  14.672   9.036
 2686POPC   C1A35355  11.800  14.500   8.704
 2686POPC   D2A35356  11.929  14.246   8.349
 2686POPC   C3A35357  11.926  14.387   7.927
 2686POPC   C4A35358  12.042  14.728   7.682
 2686POPC   C1B35359  12.321  14.522   8.626
 2686POPC   C2B35360  12.459  14.328   8.243
 2686POPC   C3B35361  12.446  14.489   7.856
 2686POPC   C4B35362  12.292  14.287   7.505
 2687POPC   NC335363  10.933  11.643   9.406
 2687POPC   PO435364  11.374  11.174   9.688
 2687POPC   GL135365  11.478  11.132   9.254
 2687POPC   GL235366  11.138  11.183   9.201
 2687POPC   C1A35367  11.616  11.099   8.819
 2687POPC   D2A35368  11.776  10.971   8.414
 2687POPC   C3A35369  11.568  11.196   8.075
 2687POPC   C4A35370  11.398  11.085   7.682
 2687POPC   C1B35371  11.064  11.281   8.779
 2687POPC   C2B35372  11.215  11.423   8.380
 2687POPC   C3B35373  11.098  11.401   7.924
 2687POPC   C4B35374  10.891  11.244   7.572
 2688POPC   NC335375  38.298  15.399   9.559
 2688POPC   PO435376  38.806  14.967   9.636
 2688POPC   GL135377  38.678  15.215   9.231
 2688POPC   GL235378  38.295  15.265   9.080
 2688POPC   C1A35379  38.700  15.342   8.788
 2688POPC   D2A35380  38.601  15.098   8.425
 2688POPC   C3A35381  38.648  15.294   8.030
 2688POPC   C4A35382  38.877  15.523   7.737
 2688POPC   C1B35383  38.261  14.928   8.796
 2688POPC   C2B35384  38.168  14.821   8.360
 2688POPC   C3B35385  38.310  14.921   7.947
 2688POPC   C4B35386  38.085  14.950   7.514
 2689POPC   NC335387  10.027  37.842   9.742
 2689POPC   PO435388   9.769  37.217   9.764
 2689POPC   GL135389  10.002  37.451   9.328
 2689POPC   GL235390  10.017  37.829   9.201
 2689POPC   C1A35391  10.032  37.508   8.813
 2689POPC   D2A35392   9.701  37.593   8.460
 2689POPC   C3A35393   9.573  37.363   8.056
 2689POPC   C4A35394   9.960  37.269   7.816
 2689POPC   C1B35395   9.910  38.062   8.775
 2689POPC   C2B35396   9.714  38.075   8.311
 2689POPC   C3B35397   9.859  37.802   7.931
 2689POPC   C4B35398   9.989  38.002   7.527
 2690POPC   NC335399  40.361   4.132   9.305
 2690POPC   PO435400  40.782   4.517   9.674
 2690POPC   GL135401  40.694   4.513   9.176
 2690POPC   GL235402  40.909   4.290   8.990
 2690POPC   C1A35403  40.485   4.329   8.728
 2690POPC   D2A35404  40.730   4.234   8.390
 2690POPC   C3A35405  40.570   4.291   8.000
 2690POPC   C4A35406  40.860   4.445   7.655
 2690POPC   C1B35407  40.976   3.911   8.735
 2690POPC   C2B35408  41.091   3.871   8.317
 2690POPC   C3B35409  41.008   4.029   7.932
 2690POPC   C4B35410  41.273   3.990   7.579
 2691POPC   NC335411  36.795  38.160   9.421
 2691POPC   PO435412  37.140  38.808   9.472
 2691POPC   GL135413  37.043  38.516   9.153
 2691POPC   GL235414  36.653  38.566   9.150
 2691POPC   C1A35415  36.897  38.406   8.739
 2691POPC   D2A35416  36.649  38.328   8.378
 2691POPC   C3A35417  36.872  38.432   8.045
 2691POPC   C4A35418  37.036  38.506   7.672
 2691POPC   C1B35419  36.418  38.625   8.767
 2691POPC   C2B35420  36.550  38.840   8.436
 2691POPC   C3B35421  36.464  38.729   8.048
 2691POPC   C4B35422  36.507  38.644   7.639
 2692POPC   NC335423  11.051  43.563   9.315
 2692POPC   PO435424  10.558  43.076   9.416
 2692POPC   GL135425  10.695  43.089   9.037
 2692POPC   GL235426  10.754  42.724   9.003
 2692POPC   C1A35427  10.581  43.350   8.692
 2692POPC   D2A35428  10.543  43.640   8.359
 2692POPC   C3A35429  10.514  43.473   7.965
 2692POPC   C4A35430  10.894  43.551   7.817
 2692POPC   C1B35431  10.775  42.862   8.584
 2692POPC   C2B35432  10.432  42.960   8.309
 2692POPC   C3B35433  10.348  42.976   7.885
 2692POPC   C4B35434  10.756  43.061   7.710
 2693POPC   NC335435  12.970  20.015   9.503
 2693POPC   PO435436  12.527  19.465   9.440
 2693POPC   GL135437  12.611  19.531   9.015
 2693POPC   GL235438  12.933  19.667   9.107
 2693POPC   C1A35439  12.562  19.865   8.663
 2693POPC   D2A35440  12.809  20.038   8.307
 2693POPC   C3A35441  12.690  19.869   7.893
 2693POPC   C4A35442  12.651  20.141   7.537
 2693POPC   C1B35443  13.049  19.895   8.735
 2693POPC   C2B35444  13.276  19.759   8.390
 2693POPC   C3B35445  13.175  19.818   7.993
 2693POPC   C4B35446  13.174  19.632   7.588
 2694POPC   NC335447  24.273  33.884   9.545
 2694POPC   PO435448  24.807  33.458   9.543
 2694POPC   GL135449  24.662  33.629   9.130
 2694POPC   GL235450  24.757  33.360   8.936
 2694POPC   C1A35451  24.531  33.857   8.707
 2694POPC   D2A35452  24.754  34.010   8.294
 2694POPC   C3A35453  24.475  33.997   7.903
 2694POPC   C4A35454  24.613  34.138   7.493
 2694POPC   C1B35455  24.681  33.352   8.505
 2694POPC   C2B35456  24.632  33.555   8.132
 2694POPC   C3B35457  24.859  33.710   7.777
 2694POPC   C4B35458  24.586  33.652   7.425
 2695POPC   NC335459  11.518   4.936   9.365
 2695POPC   PO435460  10.996   4.877   9.714
 2695POPC   GL135461  11.023   4.868   9.262
 2695POPC   GL235462  11.126   5.183   9.157
 2695POPC   C1A35463  11.138   4.853   8.801
 2695POPC   D2A35464  11.206   5.115   8.409
 2695POPC   C3A35465  11.380   4.914   8.032
 2695POPC   C4A35466  11.088   4.850   7.698
 2695POPC   C1B35467  11.240   5.451   8.813
 2695POPC   C2B35468  11.538   5.536   8.508
 2695POPC   C3B35469  11.525   5.412   8.106
 2695POPC   C4B35470  11.274   5.380   7.748
 2696POPC   NC335471  34.923  32.006   9.303
 2696POPC   PO435472  34.610  32.423   9.724
 2696POPC   GL135473  34.578  32.401   9.178
 2696POPC   GL235474  34.611  32.091   8.917
 2696POPC   C1A35475  34.444  32.489   8.680
 2696POPC   D2A35476  34.705  32.308   8.307
 2696POPC   C3A35477  34.472  32.066   7.990
 2696POPC   C4A35478  34.241  32.332   7.729
 2696POPC   C1B35479  35.016  32.129   8.681
 2696POPC   C2B35480  35.191  32.045   8.297
 2696POPC   C3B35481  35.005  32.088   7.915
 2696POPC   C4B35482  34.779  32.395   7.725
 2697POPC   NC335483  34.832  33.124   9.534
 2697POPC   PO435484  35.370  32.622   9.500
 2697POPC   GL135485  35.264  32.875   9.093
 2697POPC   GL235486  35.016  33.168   9.080
 2697POPC   C1A35487  35.555  33.011   8.754
 2697POPC   D2A35488  35.376  32.963   8.346
 2697POPC   C3A35489  35.514  33.126   8.026
 2697POPC   C4A35490  35.590  32.839   7.762
 2697POPC   C1B35491  35.099  33.204   8.698
 2697POPC   C2B35492  34.961  33.339   8.360
 2697POPC   C3B35493  34.840  33.164   8.007
 2697POPC   C4B35494  35.066  32.884   7.795
 2698POPC   NC335495  43.367  36.412   9.410
 2698POPC   PO435496  42.833  36.055   9.576
 2698POPC   GL135497  43.039  36.089   9.182
 2698POPC   GL235498  42.746  36.274   9.101
 2698POPC   C1A35499  43.148  36.140   8.722
 2698POPC   D2A35500  43.407  36.182   8.301
 2698POPC   C3A35501  43.291  35.986   7.893
 2698POPC   C4A35502  42.965  35.677   7.849
 2698POPC   C1B35503  42.706  36.578   8.790
 2698POPC   C2B35504  42.922  36.559   8.421
 2698POPC   C3B35505  42.747  36.678   8.046
 2698POPC   C4B35506  42.811  36.438   7.716
 2699POPC   NC335507  28.420   2.019   9.597
 2699POPC   PO435508  27.943   1.813   9.240
 2699POPC   GL135509  28.380   1.828   9.119
 2699POPC   GL235510  28.542   2.177   9.107
 2699POPC   C1A35511  28.535   1.854   8.722
 2699POPC   D2A35512  28.500   2.003   8.318
 2699POPC   C3A35513  28.287   1.727   8.069
 2699POPC   C4A35514  28.391   1.685   7.646
 2699POPC   C1B35515  28.408   2.332   8.711
 2699POPC   C2B35516  28.134   2.344   8.341
 2699POPC   C3B35517  28.265   2.218   7.892
 2699POPC   C4B35518  28.221   2.127   7.441
 2700POPC   NC335519  19.749  22.544   9.377
 2700POPC   PO435520  20.236  22.062   9.488
 2700POPC   GL135521  19.928  22.111   9.164
 2700POPC   GL235522  19.567  22.074   9.243
 2700POPC   C1A35523  20.025  22.237   8.754
 2700POPC   D2A35524  20.106  22.398   8.371
 2700POPC   C3A35525  19.951  22.142   8.077
 2700POPC   C4A35526  20.060  22.282   7.663
 2700POPC   C1B35527  19.527  22.103   8.801
 2700POPC   C2B35528  19.530  21.883   8.404
 2700POPC   C3B35529  19.429  22.014   7.983
 2700POPC   C4B35530  19.377  21.851   7.571
 2701POPC   NC335531  43.713   0.335   9.616
 2701POPC   PO435532  44.055   0.927   9.610
 2701POPC   GL135533  43.908   0.545   9.208
 2701POPC   GL235534  43.727   0.203   9.120
 2701POPC   C1A35535  44.089   0.376   8.783
 2701POPC   D2A35536  43.936   0.542   8.377
 2701POPC   C3A35537  44.023   0.486   7.935
 2701POPC   C4A35538  43.756   0.650   7.625
 2701POPC   C1B35539  43.563   0.495   8.803
 2701POPC   C2B35540  43.413   0.529   8.382
 2701POPC   C3B35541  43.576   0.277   8.059
 2701POPC   C4B35542  43.610  44.968   7.763
 2702POPC   NC335543  19.266   8.676   9.599
 2702POPC   PO435544  18.999   9.273   9.388
 2702POPC   GL135545  19.264   8.956   9.184
 2702POPC   GL235546  19.029   8.641   9.134
 2702POPC   C1A35547  19.287   8.925   8.769
 2702POPC   D2A35548  19.214   9.233   8.436
 2702POPC   C3A35549  19.195   8.992   8.096
 2702POPC   C4A35550  19.395   8.883   7.733
 2702POPC   C1B35551  18.786   8.792   8.759
 2702POPC   C2B35552  18.640   8.659   8.354
 2702POPC   C3B35553  18.684   8.967   8.039
 2702POPC   C4B35554  18.895   8.986   7.678
 2703POPC   NC335555  39.872  38.702   9.509
 2703POPC   PO435556  40.428  38.306   9.428
 2703POPC   GL135557  40.172  38.456   9.152
 2703POPC   GL235558  39.919  38.215   9.274
 2703POPC   C1A35559  40.136  38.592   8.732
 2703POPC   D2A35560  39.901  38.627   8.350
 2703POPC   C3A35561  40.150  38.566   7.979
 2703POPC   C4A35562  39.939  38.691   7.651
 2703POPC   C1B35563  39.807  38.190   8.860
 2703POPC   C2B35564  39.681  38.168   8.448
 2703POPC   C3B35565  39.819  38.174   8.049
 2703POPC   C4B35566  39.881  38.173   7.643
 2704POPC   NC335567  19.408  37.290   9.508
 2704POPC   PO435568  20.102  37.100   9.494
 2704POPC   GL135569  19.962  37.145   9.073
 2704POPC   GL235570  19.604  37.141   9.075
 2704POPC   C1A35571  19.852  37.053   8.639
 2704POPC   D2A35572  20.068  36.801   8.342
 2704POPC   C3A35573  19.816  36.713   8.003
 2704POPC   C4A35574  19.934  36.533   7.633
 2704POPC   C1B35575  19.382  36.857   8.801
 2704POPC   C2B35576  19.392  36.672   8.391
 2704POPC   C3B35577  19.246  36.692   8.006
 2704POPC   C4B35578  19.458  36.891   7.659
 2705POPC   NC335579  13.232  43.354   9.476
 2705POPC   PO435580  13.582  42.752   9.555
 2705POPC   GL135581  13.536  43.045   9.179
 2705POPC   GL235582  13.252  42.918   9.131
 2705POPC   C1A35583  13.808  43.247   8.844
 2705POPC   D2A35584  13.962  43.055   8.457
 2705POPC   C3A35585  13.643  43.114   8.142
 2705POPC   C4A35586  13.705  43.233   7.739
 2705POPC   C1B35587  13.297  43.093   8.717
 2705POPC   C2B35588  13.273  43.410   8.415
 2705POPC   C3B35589  13.283  43.495   8.017
 2705POPC   C4B35590  13.209  43.160   7.713
 2706POPC   NC335591  36.636   0.332   9.166
 2706POPC   PO435592  36.984   0.900   9.431
 2706POPC   GL135593  37.109   0.593   9.126
 2706POPC   GL235594  36.853   0.728   8.932
 2706POPC   C1A35595  37.098   0.313   8.732
 2706POPC   D2A35596  36.854   0.357   8.347
 2706POPC   C3A35597  37.125   0.217   8.021
 2706POPC   C4A35598  37.236   0.278   7.560
 2706POPC   C1B35599  36.502   0.676   8.649
 2706POPC   C2B35600  36.355   0.717   8.279
 2706POPC   C3B35601  36.729   0.797   8.097
 2706POPC   C4B35602  36.887   0.591   7.789
 2707POPC   NC335603   9.541   4.804   9.482
 2707POPC   PO435604  10.141   5.110   9.513
 2707POPC   GL135605   9.952   5.006   9.131
 2707POPC   GL235606   9.649   5.155   9.102
 2707POPC   C1A35607   9.906   4.981   8.684
 2707POPC   D2A35608   9.751   4.960   8.266
 2707POPC   C3A35609   9.990   4.966   7.889
 2707POPC   C4A35610  10.099   4.732   7.496
 2707POPC   C1B35611   9.774   5.461   8.779
 2707POPC   C2B35612   9.928   5.451   8.342
 2707POPC   C3B35613   9.700   5.396   7.951
 2707POPC   C4B35614   9.397   5.465   7.615
 2708POPC   NC335615  10.848  37.392   9.390
 2708POPC   PO435616  10.452  37.927   9.583
 2708POPC   GL135617  10.513  37.940   9.151
 2708POPC   GL235618  10.471  37.586   9.124
 2708POPC   C1A35619  10.397  37.886   8.730
 2708POPC   D2A35620  10.166  37.846   8.373
 2708POPC   C3A35621  10.420  37.824   8.040
 2708POPC   C4A35622  10.339  37.615   7.703
 2708POPC   C1B35623  10.643  37.422   8.733
 2708POPC   C2B35624  10.617  37.424   8.296
 2708POPC   C3B35625  10.767  37.286   7.893
 2708POPC   C4B35626  10.800  37.397   7.466
 2709POPC   NC335627  30.164  41.897   9.494
 2709POPC   PO435628  30.295  41.200   9.468
 2709POPC   GL135629  30.018  41.427   9.162
 2709POPC   GL235630  29.952  41.770   9.012
 2709POPC   C1A35631  29.788  41.318   8.795
 2709POPC   D2A35632  29.718  41.252   8.360
 2709POPC   C3A35633  29.991  41.481   8.004
 2709POPC   C4A35634  30.285  41.295   7.673
 2709POPC   C1B35635  29.614  41.790   8.678
 2709POPC   C2B35636  29.583  41.744   8.225
 2709POPC   C3B35637  29.566  41.844   7.802
 2709POPC   C4B35638  29.813  42.099   7.507
 2710POPC   NC335639  34.411   5.764   9.339
 2710POPC   PO435640  35.041   5.517   9.432
 2710POPC   GL135641  34.846   5.721   9.084
 2710POPC   GL235642  34.738   6.059   9.112
 2710POPC   C1A35643  34.573   5.614   8.720
 2710POPC   D2A35644  34.447   5.669   8.297
 2710POPC   C3A35645  34.765   5.867   8.042
 2710POPC   C4A35646  34.603   5.663   7.654
 2710POPC   C1B35647  34.399   6.100   8.776
 2710POPC   C2B35648  34.468   6.170   8.367
 2710POPC   C3B35649  34.347   6.108   7.934
 2710POPC   C4B35650  34.708   6.162   7.640
 2711POPC   NC335651  14.458   1.571   9.245
 2711POPC   PO435652  14.011   1.089   9.439
 2711POPC   GL135653  14.332   1.057   9.079
 2711POPC   GL235654  14.706   0.966   8.988
 2711POPC   C1A35655  14.318   1.190   8.645
 2711POPC   D2A35656  14.223   0.988   8.224
 2711POPC   C3A35657  14.364   1.303   7.939
 2711POPC   C4A35658  14.184   1.399   7.536
 2711POPC   C1B35659  14.876   1.313   8.738
 2711POPC   C2B35660  14.892   1.494   8.312
 2711POPC   C3B35661  14.866   1.386   7.879
 2711POPC   C4B35662  14.642   1.205   7.510
 2712POPC   NC335663  41.395  39.027   9.517
 2712POPC   PO435664  42.026  39.220   9.462
 2712POPC   GL135665  41.702  39.174   9.135
 2712POPC   GL235666  41.407  39.396   9.153
 2712POPC   C1A35667  41.733  39.004   8.730
 2712POPC   D2A35668  41.864  39.235   8.377
 2712POPC   C3A35669  41.632  39.388   8.027
 2712POPC   C4A35670  41.760  39.112   7.684
 2712POPC   C1B35671  41.425  39.411   8.709
 2712POPC   C2B35672  41.348  39.096   8.384
 2712POPC   C3B35673  41.235  39.057   7.957
 2712POPC   C4B35674  41.278  39.340   7.624
 2713POPC   NC335675  40.595  19.885   9.391
 2713POPC   PO435676  41.166  19.740   9.776
 2713POPC   GL135677  41.116  19.860   9.318
 2713POPC   GL235678  40.979  19.619   9.089
 2713POPC   C1A35679  41.065  20.058   8.879
 2713POPC   D2A35680  41.139  19.857   8.480
 2713POPC   C3A35681  40.973  20.000   8.084
 2713POPC   C4A35682  40.754  19.797   7.740
 2713POPC   C1B35683  40.685  19.734   8.738
 2713POPC   C2B35684  40.612  19.682   8.300
 2713POPC   C3B35685  40.359  19.595   7.969
 2713POPC   C4B35686  40.315  19.487   7.560
 2714POPC   NC335687  15.094  34.987   9.642
 2714POPC   PO435688  15.554  35.349   9.443
 2714POPC   GL135689  15.299  35.603   9.209
 2714POPC   GL235690  15.076  35.298   9.200
 2714POPC   C1A35691  15.156  35.668   8.784
 2714POPC   D2A35692  15.353  35.410   8.473
 2714POPC   C3A35693  15.435  35.572   8.065
 2714POPC   C4A35694  15.248  35.402   7.712
 2714POPC   C1B35695  14.988  35.139   8.784
 2714POPC   C2B35696  14.889  34.881   8.406
 2714POPC   C3B35697  14.704  34.890   7.986
 2714POPC   C4B35698  14.757  35.265   7.778
 2715POPC   NC335699  28.721  18.924   9.398
 2715POPC   PO435700  28.046  18.942   9.468
 2715POPC   GL135701  28.292  19.084   9.157
 2715POPC   GL235702  28.251  19.430   9.097
 2715POPC   C1A35703  28.275  18.962   8.746
 2715POPC   D2A35704  28.314  19.238   8.409
 2715POPC   C3A35705  28.202  19.004   8.088
 2715POPC   C4A35706  28.281  18.991   7.711
 2715POPC   C1B35707  28.640  19.319   8.819
 2715POPC   C2B35708  28.814  19.201   8.406
 2715POPC   C3B35709  28.620  19.354   7.982
 2715POPC   C4B35710  28.654  19.299   7.503
 2716POPC   NC335711  35.183  15.704   9.621
 2716POPC   PO435712  35.140  16.333   9.694
 2716POPC   GL135713  35.248  16.144   9.285
 2716POPC   GL235714  34.924  16.069   9.267
 2716POPC   C1A35715  35.444  16.135   8.819
 2716POPC   D2A35716  35.516  16.167   8.358
 2716POPC   C3A35717  35.366  15.891   8.098
 2716POPC   C4A35718  35.600  15.917   7.744
 2716POPC   C1B35719  34.957  16.312   8.890
 2716POPC   C2B35720  35.007  16.190   8.462
 2716POPC   C3B35721  35.120  16.372   8.081
 2716POPC   C4B35722  35.158  16.172   7.712
 2717POPC   NC335723  26.175   6.984   9.433
 2717POPC   PO435724  25.948   6.400   9.652
 2717POPC   GL135725  26.181   6.507   9.242
 2717POPC   GL235726  25.910   6.710   9.097
 2717POPC   C1A35727  26.190   6.446   8.763
 2717POPC   D2A35728  26.278   6.698   8.355
 2717POPC   C3A35729  26.160   6.478   7.968
 2717POPC   C4A35730  25.802   6.482   7.662
 2717POPC   C1B35731  25.834   6.798   8.676
 2717POPC   C2B35732  25.775   6.698   8.255
 2717POPC   C3B35733  25.859   6.940   7.873
 2717POPC   C4B35734  25.891   7.035   7.428
 2718POPC   NC335735  17.272  31.557   9.556
 2718POPC   PO435736  17.839  31.855   9.444
 2718POPC   GL135737  17.531  31.683   9.138
 2718POPC   GL235738  17.148  31.841   9.170
 2718POPC   C1A35739  17.549  31.336   8.836
 2718POPC   D2A35740  17.664  31.210   8.439
 2718POPC   C3A35741  17.525  31.485   8.151
 2718POPC   C4A35742  17.536  31.448   7.741
 2718POPC   C1B35743  17.113  31.587   8.834
 2718POPC   C2B35744  17.131  31.669   8.414
 2718POPC   C3B35745  17.048  31.630   7.989
 2718POPC   C4B35746  16.989  31.957   7.711
 2719POPC   NC335747  32.602  13.318   9.459
 2719POPC   PO435748  33.092  13.752   9.516
 2719POPC   GL135749  33.047  13.563   9.113
 2719POPC   GL235750  32.714  13.658   9.097
 2719POPC   C1A35751  33.045  13.542   8.643
 2719POPC   D2A35752  33.253  13.716   8.257
 2719POPC   C3A35753  33.022  13.742   7.912
 2719POPC   C4A35754  32.935  13.487   7.598
 2719POPC   C1B35755  32.683  13.969   8.787
 2719POPC   C2B35756  32.834  13.988   8.367
 2719POPC   C3B35757  32.648  14.078   7.967
 2719POPC   C4B35758  32.727  13.945   7.518
 2720POPC   NC335759  24.721   4.130   9.417
 2720POPC   PO435760  24.293   4.637   9.416
 2720POPC   GL135761  24.477   4.464   9.015
 2720POPC   GL235762  24.604   4.101   8.929
 2720POPC   C1A35763  24.443   4.380   8.547
 2720POPC   D2A35764  24.808   4.237   8.292
 2720POPC   C3A35765  24.755   4.174   7.869
 2720POPC   C4A35766  24.460   4.473   7.831
 2720POPC   C1B35767  24.257   3.904   8.669
 2720POPC   C2B35768  24.310   3.950   8.224
 2720POPC   C3B35769  24.248   4.017   7.793
 2720POPC   C4B35770  24.207   3.906   7.361
 2721POPC   NC335771   3.750   4.495   9.401
 2721POPC   PO435772   3.089   4.742   9.489
 2721POPC   GL135773   3.332   4.677   9.119
 2721POPC   GL235774   3.453   4.348   9.007
 2721POPC   C1A35775   3.225   4.617   8.669
 2721POPC   D2A35776   3.486   4.420   8.369
 2721POPC   C3A35777   3.563   4.563   7.984
 2721POPC   C4A35778   3.339   4.506   7.633
 2721POPC   C1B35779   3.482   4.029   8.698
 2721POPC   C2B35780   3.561   3.886   8.314
 2721POPC   C3B35781   3.474   4.048   7.937
 2721POPC   C4B35782   3.753   4.200   7.675
 2722POPC   NC335783  39.124  19.772   9.899
 2722POPC   PO435784  39.219  19.447   9.322
 2722POPC   GL135785  39.278  19.723   9.045
 2722POPC   GL235786  39.367  20.028   9.216
 2722POPC   C1A35787  39.069  19.717   8.682
 2722POPC   D2A35788  39.181  19.820   8.295
 2722POPC   C3A35789  38.937  19.608   7.995
 2722POPC   C4A35790  39.144  19.585   7.597
 2722POPC   C1B35791  39.276  20.175   8.799
 2722POPC   C2B35792  39.204  20.341   8.397
 2722POPC   C3B35793  39.010  20.216   8.024
 2722POPC   C4B35794  38.874  19.998   7.676
 2723POPC   NC335795  31.721  27.559   9.466
 2723POPC   PO435796  31.166  27.548   9.343
 2723POPC   GL135797  31.518  27.389   9.035
 2723POPC   GL235798  31.803  27.615   8.970
 2723POPC   C1A35799  31.614  27.331   8.575
 2723POPC   D2A35800  31.327  27.430   8.214
 2723POPC   C3A35801  31.531  27.345   7.834
 2723POPC   C4A35802  31.837  27.616   7.697
 2723POPC   C1B35803  31.429  27.784   8.707
 2723POPC   C2B35804  31.521  27.921   8.272
 2723POPC   C3B35805  31.423  27.876   7.832
 2723POPC   C4B35806  31.260  28.053   7.443
 2724POPC   NC335807  15.614  17.363   9.515
 2724POPC   PO435808  14.909  17.361   9.499
 2724POPC   GL135809  15.129  17.471   9.134
 2724POPC   GL235810  15.406  17.698   9.172
 2724POPC   C1A35811  15.013  17.344   8.718
 2724POPC   D2A35812  15.230  17.235   8.337
 2724POPC   C3A35813  15.042  17.358   7.986
 2724POPC   C4A35814  14.973  17.337   7.574
 2724POPC   C1B35815  15.579  17.876   8.797
 2724POPC   C2B35816  15.698  17.697   8.404
 2724POPC   C3B35817  15.460  17.687   8.047
 2724POPC   C4B35818  15.454  17.498   7.669
 2725POPC   NC335819  31.815   5.550   9.534
 2725POPC   PO435820  31.345   6.070   9.502
 2725POPC   GL135821  31.488   5.971   9.118
 2725POPC   GL235822  31.412   5.635   9.111
 2725POPC   C1A35823  31.489   5.898   8.661
 2725POPC   D2A35824  31.771   5.769   8.319
 2725POPC   C3A35825  31.685   6.036   8.022
 2725POPC   C4A35826  31.721   5.895   7.603
 2725POPC   C1B35827  31.048   5.672   8.799
 2725POPC   C2B35828  30.938   5.610   8.335
 2725POPC   C3B35829  31.234   5.797   7.991
 2725POPC   C4B35830  31.356   5.555   7.594
 2726POPC   NC335831   6.277  21.387   9.530
 2726POPC   PO435832   6.893  21.476   9.651
 2726POPC   GL135833   6.701  21.269   9.162
 2726POPC   GL235834   6.402  21.167   9.049
 2726POPC   C1A35835   6.663  21.382   8.666
 2726POPC   D2A35836   6.446  21.486   8.273
 2726POPC   C3A35837   6.726  21.383   7.947
 2726POPC   C4A35838   6.907  21.553   7.527
 2726POPC   C1B35839   6.201  21.171   8.654
 2726POPC   C2B35840   6.332  20.985   8.263
 2726POPC   C3B35841   6.271  21.119   7.860
 2726POPC   C4B35842   6.160  21.067   7.409
 2727POPC   NC335843  36.481  31.105   9.530
 2727POPC   PO435844  36.204  30.385   9.443
 2727POPC   GL135845  36.357  30.720   9.207
 2727POPC   GL235846  36.100  30.989   9.180
 2727POPC   C1A35847  36.288  30.694   8.784
 2727POPC   D2A35848  36.005  30.532   8.517
 2727POPC   C3A35849  36.193  30.519   8.128
 2727POPC   C4A35850  36.126  30.515   7.712
 2727POPC   C1B35851  36.201  31.196   8.789
 2727POPC   C2B35852  36.231  31.042   8.371
 2727POPC   C3B35853  36.100  30.985   7.951
 2727POPC   C4B35854  36.338  31.046   7.584
 2728POPC   NC335855  35.407  38.091   9.448
 2728POPC   PO435856  35.545  37.434   9.427
 2728POPC   GL135857  35.259  37.442   9.075
 2728POPC   GL235858  35.163  37.811   9.065
 2728POPC   C1A35859  35.181  37.559   8.633
 2728POPC   D2A35860  35.138  37.902   8.322
 2728POPC   C3A35861  35.232  37.704   7.912
 2728POPC   C4A35862  34.978  37.329   7.806
 2728POPC   C1B35863  35.447  38.033   8.717
 2728POPC   C2B35864  35.639  38.174   8.308
 2728POPC   C3B35865  35.492  38.158   7.878
 2728POPC   C4B35866  35.448  37.931   7.471
 2729POPC   NC335867  33.697  12.286   9.540
 2729POPC   PO435868  33.637  12.916   9.447
 2729POPC   GL135869  33.745  12.641   9.140
 2729POPC   GL235870  33.462  12.452   9.121
 2729POPC   C1A35871  33.886  12.869   8.765
 2729POPC   D2A35872  33.892  13.114   8.420
 2729POPC   C3A35873  33.995  13.036   8.009
 2729POPC   C4A35874  33.599  13.073   7.858
 2729POPC   C1B35875  33.472  12.582   8.716
 2729POPC   C2B35876  33.670  12.639   8.329
 2729POPC   C3B35877  33.511  12.581   7.935
 2729POPC   C4B35878  33.424  12.413   7.578
 2730POPC   NC335879  12.742   0.760   9.288
 2730POPC   PO435880  12.764   0.184   9.491
 2730POPC   GL135881  12.938   0.277   9.153
 2730POPC   GL235882  13.178   0.533   9.158
 2730POPC   C1A35883  12.856   0.360   8.756
 2730POPC   D2A35884  13.004   0.197   8.408
 2730POPC   C3A35885  12.771   0.398   8.134
 2730POPC   C4A35886  12.819   0.393   7.751
 2730POPC   C1B35887  13.217   0.750   8.776
 2730POPC   C2B35888  13.066   0.728   8.394
 2730POPC   C3B35889  13.213   0.737   7.973
 2730POPC   C4B35890  13.145   0.796   7.543
 2731POPC   NC335891   2.392  18.318   9.750
 2731POPC   PO435892   2.808  17.876   9.742
 2731POPC   GL135893   2.588  18.109   9.326
 2731POPC   GL235894   2.402  17.899   9.133
 2731POPC   C1A35895   2.658  18.294   8.854
 2731POPC   D2A35896   2.995  18.355   8.525
 2731POPC   C3A35897   2.818  18.325   8.094
 2731POPC   C4A35898   2.818  17.926   7.840
 2731POPC   C1B35899   2.263  17.970   8.734
 2731POPC   C2B35900   2.531  17.987   8.390
 2731POPC   C3B35901   2.343  18.011   7.990
 2731POPC   C4B35902   2.371  18.060   7.561
 2732POPC   NC335903  42.355  17.773   9.551
 2732POPC   PO435904  41.937  17.332   9.757
 2732POPC   GL135905  42.184  17.345   9.312
 2732POPC   GL235906  42.054  17.650   9.145
 2732POPC   C1A35907  42.131  17.278   8.832
 2732POPC   D2A35908  42.345  17.171   8.449
 2732POPC   C3A35909  42.259  17.299   8.019
 2732POPC   C4A35910  42.471  17.237   7.624
 2732POPC   C1B35911  42.415  17.741   8.889
 2732POPC   C2B35912  42.462  17.844   8.463
 2732POPC   C3B35913  42.529  17.746   8.034
 2732POPC   C4B35914  42.240  17.712   7.713
 2733POPC   NC335915  21.219  11.070   9.475
 2733POPC   PO435916  21.412  10.430   9.577
 2733POPC   GL135917  21.365  10.599   9.218
 2733POPC   GL235918  21.171  10.325   9.106
 2733POPC   C1A35919  21.412  10.692   8.793
 2733POPC   D2A35920  21.163  10.633   8.505
 2733POPC   C3A35921  21.277  10.580   8.090
 2733POPC   C4A35922  21.090  10.594   7.683
 2733POPC   C1B35923  21.532  10.216   8.898
 2733POPC   C2B35924  21.566  10.289   8.454
 2733POPC   C3B35925  21.710  10.269   8.015
 2733POPC   C4B35926  21.634  10.596   7.710
 2734POPC   NC335927  40.893  38.302   9.497
 2734POPC   PO435928  41.089  38.897   9.196
 2734POPC   GL135929  40.744  38.572   9.067
 2734POPC   GL235930  40.742  38.162   9.027
 2734POPC   C1A35931  40.648  38.534   8.633
 2734POPC   D2A35932  40.604  38.432   8.204
 2734POPC   C3A35933  40.744  38.698   7.903
 2734POPC   C4A35934  41.098  38.681   7.635
 2734POPC   C1B35935  40.360  38.141   8.779
 2734POPC   C2B35936  40.191  38.176   8.395
 2734POPC   C3B35937  40.323  38.070   7.986
 2734POPC   C4B35938  40.570  38.218   7.704
 2735POPC   NC335939  26.123  27.038   9.575
 2735POPC   PO435940  26.255  26.290   9.635
 2735POPC   GL135941  26.218  26.637   9.279
 2735POPC   GL235942  25.878  26.751   9.217
 2735POPC   C1A35943  26.271  26.915   8.891
 2735POPC   D2A35944  26.349  26.777   8.457
 2735POPC   C3A35945  26.226  26.989   8.091
 2735POPC   C4A35946  26.015  26.727   7.818
 2735POPC   C1B35947  25.727  27.038   8.899
 2735POPC   C2B35948  25.906  27.080   8.490
 2735POPC   C3B35949  25.695  27.036   8.085
 2735POPC   C4B35950  25.738  27.145   7.660
 2736POPC   NC335951  17.910  11.180   9.468
 2736POPC   PO435952  17.242  11.352   9.420
 2736POPC   GL135953  17.525  11.310   9.147
 2736POPC   GL235954  17.561  10.944   9.185
 2736POPC   C1A35955  17.439  11.477   8.750
 2736POPC   D2A35956  17.647  11.502   8.411
 2736POPC   C3A35957  17.447  11.474   8.055
 2736POPC   C4A35958  17.504  11.176   7.747
 2736POPC   C1B35959  17.548  10.971   8.765
 2736POPC   C2B35960  17.315  11.103   8.396
 2736POPC   C3B35961  17.097  10.996   8.026
 2736POPC   C4B35962  17.133  10.879   7.592
 2737POPC   NC335963  28.862  33.127   9.404
 2737POPC   PO435964  29.406  32.808   9.427
 2737POPC   GL135965  29.207  32.940   9.084
 2737POPC   GL235966  29.261  33.273   9.117
 2737POPC   C1A35967  28.975  33.015   8.718
 2737POPC   D2A35968  28.853  32.782   8.366
 2737POPC   C3A35969  28.937  33.014   8.026
 2737POPC   C4A35970  28.986  32.920   7.631
 2737POPC   C1B35971  29.476  33.212   8.728
 2737POPC   C2B35972  29.336  33.165   8.320
 2737POPC   C3B35973  29.471  33.104   7.897
 2737POPC   C4B35974  29.457  33.055   7.452
 2738POPC   NC335975  35.156  34.025   9.523
 2738POPC   PO435976  35.268  33.385   9.459
 2738POPC   GL135977  35.178  33.687   9.164
 2738POPC   GL235978  35.515  33.860   9.158
 2738POPC   C1A35979  35.180  33.957   8.778
 2738POPC   D2A35980  35.411  34.140   8.412
 2738POPC   C3A35981  35.199  34.112   8.022
 2738POPC   C4A35982  35.262  33.894   7.660
 2738POPC   C1B35983  35.493  33.513   8.839
 2738POPC   C2B35984  35.469  33.472   8.425
 2738POPC   C3B35985  35.290  33.590   8.059
 2738POPC   C4B35986  35.100  33.429   7.689
 2739POPC   NC335987  18.150  31.557   9.592
 2739POPC   PO435988  17.552  31.143   9.493
 2739POPC   GL135989  17.927  31.326   9.197
 2739POPC   GL235990  18.345  31.356   9.177
 2739POPC   C1A35991  18.062  31.386   8.771
 2739POPC   D2A35992  17.953  31.642   8.494
 2739POPC   C3A35993  18.034  31.493   8.120
 2739POPC   C4A35994  18.029  31.589   7.703
 2739POPC   C1B35995  18.569  31.287   8.786
 2739POPC   C2B35996  18.508  31.279   8.335
 2739POPC   C3B35997  18.740  31.351   7.967
 2739POPC   C4B35998  18.699  31.354   7.544
 2740POPC   NC335999   1.219  34.687   9.544
 2740POPC   PO436000   1.509  34.264   9.113
 2740POPC   GL136001   1.127  34.537   9.070
 2740POPC   GL236002   1.002  34.884   9.093
 2740POPC   C1A36003   0.978  34.557   8.694
 2740POPC   D2A36004   1.306  34.460   8.403
 2740POPC   C3A36005   1.188  34.519   7.996
 2740POPC   C4A36006   1.346  34.712   7.665
 2740POPC   C1B36007   1.311  34.929   8.739
 2740POPC   C2B36008   1.470  34.953   8.298
 2740POPC   C3B36009   1.594  35.124   7.870
 2740POPC   C4B36010   1.566  35.060   7.370
 2741POPC   NC336011  29.787   3.007   9.525
 2741POPC   PO436012  29.967   2.422   9.599
 2741POPC   GL136013  29.948   2.609   9.193
 2741POPC   GL236014  30.140   2.908   9.182
 2741POPC   C1A36015  29.756   2.637   8.772
 2741POPC   D2A36016  29.606   2.721   8.340
 2741POPC   C3A36017  29.791   2.551   7.994
 2741POPC   C4A36018  29.668   2.434   7.593
 2741POPC   C1B36019  30.021   3.121   8.804
 2741POPC   C2B36020  30.033   2.998   8.378
 2741POPC   C3B36021  29.879   3.059   7.969
 2741POPC   C4B36022  30.182   3.061   7.663
 2742POPC   NC336023  35.884   3.539   9.635
 2742POPC   PO436024  36.471   3.812   9.509
 2742POPC   GL136025  36.227   3.528   9.208
 2742POPC   GL236026  35.864   3.433   9.139
 2742POPC   C1A36027  36.317   3.500   8.767
 2742POPC   D2A36028  36.202   3.381   8.362
 2742POPC   C3A36029  36.517   3.386   8.076
 2742POPC   C4A36030  36.458   3.516   7.696
 2742POPC   C1B36031  35.881   3.779   8.830
 2742POPC   C2B36032  35.992   3.856   8.403
 2742POPC   C3B36033  36.064   3.749   7.971
 2742POPC   C4B36034  35.772   3.931   7.672
 2743POPC   NC336035  14.272  44.581   9.469
 2743POPC   PO436036  14.869  44.651   9.293
 2743POPC   GL136037  14.551  44.396   9.056
 2743POPC   GL236038  14.157  44.276   9.087
 2743POPC   C1A36039  14.407  44.567   8.688
 2743POPC   D2A36040  14.517  44.800   8.324
 2743POPC   C3A36041  14.559  44.487   8.010
 2743POPC   C4A36042  14.519  44.772   7.692
 2743POPC   C1B36043  13.933  44.363   8.697
 2743POPC   C2B36044  14.058  44.519   8.293
 2743POPC   C3B36045  14.089  44.569   7.860
 2743POPC   C4B36046  14.175  44.361   7.452
 2744POPC   NC336047  18.818  40.301   9.209
 2744POPC   PO436048  18.212  40.380   9.560
 2744POPC   GL136049  18.327  40.107   9.159
 2744POPC   GL236050  18.597  39.847   9.063
 2744POPC   C1A36051  18.164  39.834   8.800
 2744POPC   D2A36052  18.275  39.763   8.349
 2744POPC   C3A36053  18.164  40.167   8.172
 2744POPC   C4A36054  17.963  40.282   7.775
 2744POPC   C1B36055  18.599  40.043   8.616
 2744POPC   C2B36056  18.659  40.295   8.239
 2744POPC   C3B36057  18.547  40.168   7.830
 2744POPC   C4B36058  18.228  39.835   7.788
 2745POPC   NC336059  12.489  37.727   9.730
 2745POPC   PO436060  11.911  37.427   9.694
 2745POPC   GL136061  12.008  37.692   9.323
 2745POPC   GL236062  12.293  37.595   9.119
 2745POPC   C1A36063  11.896  37.790   8.885
 2745POPC   D2A36064  11.944  37.522   8.531
 2745POPC   C3A36065  12.078  37.705   8.153
 2745POPC   C4A36066  11.834  37.810   7.792
 2745POPC   C1B36067  12.381  37.742   8.660
 2745POPC   C2B36068  12.570  37.793   8.261
 2745POPC   C3B36069  12.500  37.599   7.880
 2745POPC   C4B36070  12.161  37.244   7.872
 2746POPC   NC336071  28.730  38.734   9.439
 2746POPC   PO436072  29.191  38.215   9.420
 2746POPC   GL136073  28.975  38.416   9.102
 2746POPC   GL236074  29.177  38.629   8.887
 2746POPC   C1A36075  28.760  38.234   8.748
 2746POPC   D2A36076  28.820  38.086   8.316
 2746POPC   C3A36077  29.108  38.410   8.132
 2746POPC   C4A36078  29.318  38.595   7.758
 2746POPC   C1B36079  29.280  38.255   8.707
 2746POPC   C2B36080  29.615  38.116   8.484
 2746POPC   C3B36081  29.591  38.196   8.064
 2746POPC   C4B36082  29.715  38.225   7.662
 2747POPC   NC336083   8.310  16.397   9.500
 2747POPC   PO436084   7.982  17.007   9.563
 2747POPC   GL136085   8.086  16.829   9.166
 2747POPC   GL236086   7.957  16.493   9.151
 2747POPC   C1A36087   8.405  16.850   8.846
 2747POPC   D2A36088   8.451  16.650   8.410
 2747POPC   C3A36089   8.271  16.678   8.001
 2747POPC   C4A36090   8.132  16.627   7.579
 2747POPC   C1B36091   8.059  16.523   8.726
 2747POPC   C2B36092   7.922  16.659   8.355
 2747POPC   C3B36093   7.806  16.493   7.959
 2747POPC   C4B36094   7.754  16.275   7.554
 2748POPC   NC336095  10.613  32.036   9.430
 2748POPC   PO436096   9.970  32.262   9.421
 2748POPC   GL136097  10.297  32.279   9.105
 2748POPC   GL236098  10.541  32.536   9.207
 2748POPC   C1A36099  10.458  31.999   8.753
 2748POPC   D2A36100  10.420  32.090   8.305
 2748POPC   C3A36101  10.807  32.037   8.067
 2748POPC   C4A36102  10.787  32.164   7.637
 2748POPC   C1B36103  10.667  32.477   8.766
 2748POPC   C2B36104  10.726  32.515   8.314
 2748POPC   C3B36105  10.602  32.588   7.876
 2748POPC   C4B36106  10.701  32.756   7.468
 2749POPC   NC336107  29.696   7.674   9.572
 2749POPC   PO436108  29.864   7.031   9.480
 2749POPC   GL136109  29.903   7.186   9.093
 2749POPC   GL236110  29.868   7.530   9.105
 2749POPC   C1A36111  29.772   7.170   8.670
 2749POPC   D2A36112  29.714   7.454   8.333
 2749POPC   C3A36113  29.782   7.247   7.956
 2749POPC   C4A36114  29.768   7.282   7.536
 2749POPC   C1B36115  30.017   7.633   8.713
 2749POPC   C2B36116  30.195   7.693   8.311
 2749POPC   C3B36117  30.131   7.715   7.876
 2749POPC   C4B36118  30.208   7.628   7.424
 2750POPC   NC336119  12.830   9.439   9.734
 2750POPC   PO436120  12.562   8.801   9.490
 2750POPC   GL136121  12.711   8.804   9.098
 2750POPC   GL236122  12.905   9.113   9.173
 2750POPC   C1A36123  12.951   8.802   8.706
 2750POPC   D2A36124  12.783   8.930   8.340
 2750POPC   C3A36125  13.028   9.011   8.012
 2750POPC   C4A36126  12.832   8.746   7.761
 2750POPC   C1B36127  12.704   9.243   8.800
 2750POPC   C2B36128  12.508   9.341   8.478
 2750POPC   C3B36129  12.570   9.325   8.068
 2750POPC   C4B36130  12.525   9.285   7.660
 2751POPC   NC336131  40.466  14.220   9.625
 2751POPC   PO436132  41.065  14.471   9.501
 2751POPC   GL136133  40.979  14.345   9.121
 2751POPC   GL236134  40.649  14.441   9.182
 2751POPC   C1A36135  41.051  14.352   8.682
 2751POPC   D2A36136  40.809  14.567   8.342
 2751POPC   C3A36137  41.050  14.866   8.079
 2751POPC   C4A36138  41.068  14.818   7.641
 2751POPC   C1B36139  40.555  14.242   8.798
 2751POPC   C2B36140  40.723  14.060   8.415
 2751POPC   C3B36141  40.685  14.156   7.996
 2751POPC   C4B36142  40.730  14.528   7.816
 2752POPC   NC336143  36.827  41.322   9.524
 2752POPC   PO436144  36.541  41.897   9.206
 2752POPC   GL136145  36.785  41.578   9.043
 2752POPC   GL236146  37.085  41.428   9.092
 2752POPC   C1A36147  36.861  41.598   8.643
 2752POPC   D2A36148  36.699  41.397   8.321
 2752POPC   C3A36149  36.768  41.658   7.999
 2752POPC   C4A36150  36.810  41.660   7.579
 2752POPC   C1B36151  37.304  41.366   8.705
 2752POPC   C2B36152  37.223  41.538   8.273
 2752POPC   C3B36153  37.251  41.537   7.803
 2752POPC   C4B36154  37.249  41.510   7.330
 2753POPC   NC336155  37.448  36.014   9.499
 2753POPC   PO436156  37.758  36.622   9.399
 2753POPC   GL136157  37.664  36.320   9.097
 2753POPC   GL236158  37.784  35.988   9.114
 2753POPC   C1A36159  37.579  36.368   8.665
 2753POPC   D2A36160  37.311  36.466   8.299
 2753POPC   C3A36161  37.454  36.261   7.923
 2753POPC   C4A36162  37.875  36.306   7.806
 2753POPC   C1B36163  37.775  35.763   8.732
 2753POPC   C2B36164  37.935  35.774   8.320
 2753POPC   C3B36165  37.723  35.824   7.921
 2753POPC   C4B36166  37.694  35.577   7.554
 2754POPC   NC336167  18.029   8.874   9.597
 2754POPC   PO436168  17.298   8.937   9.600
 2754POPC   GL136169  17.378   8.968   9.167
 2754POPC   GL236170  17.701   8.897   9.155
 2754POPC   C1A36171  17.187   9.057   8.790
 2754POPC   D2A36172  17.323   8.943   8.367
 2754POPC   C3A36173  17.098   9.003   7.996
 2754POPC   C4A36174  17.204   8.896   7.586
 2754POPC   C1B36175  17.876   9.017   8.722
 2754POPC   C2B36176  17.833   9.104   8.269
 2754POPC   C3B36177  17.716   8.856   7.906
 2754POPC   C4B36178  17.690   8.913   7.459
 2755POPC   NC336179  29.067  10.636   9.551
 2755POPC   PO436180  29.238  10.145   9.141
 2755POPC   GL136181  29.246  10.585   9.070
 2755POPC   GL236182  28.887  10.741   9.083
 2755POPC   C1A36183  29.375  10.620   8.663
 2755POPC   D2A36184  29.413  10.193   8.457
 2755POPC   C3A36185  29.329  10.268   8.028
 2755POPC   C4A36186  29.257  10.714   7.886
 2755POPC   C1B36187  28.830  10.466   8.746
 2755POPC   C2B36188  28.983  10.480   8.346
 2755POPC   C3B36189  28.798  10.503   7.973
 2755POPC   C4B36190  28.839  10.170   7.738
 2756POPC   NC336191  37.246  31.180   9.625
 2756POPC   PO436192  37.693  31.703   9.511
 2756POPC   GL136193  37.699  31.379   9.157
 2756POPC   GL236194  37.982  31.148   9.065
 2756POPC   C1A36195  37.537  31.372   8.744
 2756POPC   D2A36196  37.511  31.196   8.354
 2756POPC   C3A36197  37.378  31.418   8.002
 2756POPC   C4A36198  37.568  31.331   7.617
 2756POPC   C1B36199  38.029  31.509   8.763
 2756POPC   C2B36200  37.792  31.639   8.377
 2756POPC   C3B36201  37.851  31.639   7.944
 2756POPC   C4B36202  38.035  31.868   7.619
 2757POPC   NC336203  15.653  11.142   9.586
 2757POPC   PO436204  16.245  11.342   9.506
 2757POPC   GL136205  16.020  11.329   9.164
 2757POPC   GL236206  16.004  11.017   9.152
 2757POPC   C1A36207  16.123  11.321   8.765
 2757POPC   D2A36208  15.888  11.282   8.435
 2757POPC   C3A36209  16.116  11.396   8.088
 2757POPC   C4A36210  16.042  11.382   7.680
 2757POPC   C1B36211  15.688  10.983   8.859
 2757POPC   C2B36212  15.583  10.837   8.463
 2757POPC   C3B36213  15.600  11.023   8.061
 2757POPC   C4B36214  15.820  10.902   7.704
 2758POPC   NC336215  34.201  32.349   9.530
 2758POPC   PO436216  33.599  32.355   9.275
 2758POPC   GL136217  33.779  32.112   9.007
 2758POPC   GL236218  34.105  32.241   9.019
 2758POPC   C1A36219  33.847  32.096   8.556
 2758POPC   D2A36220  33.595  32.215   8.199
 2758POPC   C3A36221  33.821  32.051   7.884
 2758POPC   C4A36222  34.108  31.842   7.613
 2758POPC   C1B36223  33.924  32.556   8.703
 2758POPC   C2B36224  34.053  32.503   8.260
 2758POPC   C3B36225  33.818  32.594   7.902
 2758POPC   C4B36226  33.713  32.442   7.517
 2759POPC   NC336227  21.961  36.923   9.530
 2759POPC   PO436228  22.596  36.949   9.303
 2759POPC   GL136229  22.229  36.906   9.060
 2759POPC   GL236230  21.960  36.650   9.096
 2759POPC   C1A36231  22.081  36.961   8.645
 2759POPC   D2A36232  22.181  36.666   8.345
 2759POPC   C3A36233  22.234  36.781   7.936
 2759POPC   C4A36234  22.178  37.035   7.563
 2759POPC   C1B36235  21.776  36.556   8.656
 2759POPC   C2B36236  21.547  36.486   8.256
 2759POPC   C3B36237  21.745  36.590   7.868
 2759POPC   C4B36238  22.086  36.504   7.546
 2760POPC   NC336239   1.895  40.987   9.630
 2760POPC   PO436240   2.439  41.070   9.318
 2760POPC   GL136241   2.236  40.696   9.133
 2760POPC   GL236242   1.872  40.743   9.159
 2760POPC   C1A36243   2.060  40.546   8.725
 2760POPC   D2A36244   2.023  40.797   8.357
 2760POPC   C3A36245   2.006  40.627   7.970
 2760POPC   C4A36246   2.308  40.726   7.651
 2760POPC   C1B36247   1.755  40.964   8.783
 2760POPC   C2B36248   1.541  41.092   8.435
 2760POPC   C3B36249   1.631  40.969   8.064
 2760POPC   C4B36250   1.855  41.040   7.708
 2761POPC   NC336251  16.931  10.034   9.529
 2761POPC   PO436252  16.573   9.481   9.626
 2761POPC   GL136253  16.672   9.535   9.186
 2761POPC   GL236254  17.023   9.631   9.177
 2761POPC   C1A36255  16.494   9.672   8.774
 2761POPC   D2A36256  16.352   9.470   8.399
 2761POPC   C3A36257  16.484   9.650   8.009
 2761POPC   C4A36258  16.642   9.475   7.655
 2761POPC   C1B36259  17.062   9.612   8.723
 2761POPC   C2B36260  16.864   9.778   8.348
 2761POPC   C3B36261  16.973   9.764   7.916
 2761POPC   C4B36262  17.026  10.080   7.611
 2762POPC   NC336263  22.638   8.038   9.368
 2762POPC   PO436264  23.016   8.552   9.440
 2762POPC   GL136265  22.875   8.382   9.091
 2762POPC   GL236266  22.525   8.482   9.124
 2762POPC   C1A36267  22.976   8.185   8.726
 2762POPC   D2A36268  22.921   8.332   8.328
 2762POPC   C3A36269  23.109   8.077   8.029
 2762POPC   C4A36270  23.083   8.158   7.624
 2762POPC   C1B36271  22.477   8.239   8.719
 2762POPC   C2B36272  22.458   8.112   8.291
 2762POPC   C3B36273  22.629   8.245   7.882
 2762POPC   C4B36274  22.632   8.012   7.465
 2763POPC   NC336275  16.310  34.591   9.834
 2763POPC   PO436276  15.759  34.456   9.389
 2763POPC   GL136277  15.995  34.473   9.095
 2763POPC   GL236278  16.169  34.174   9.201
 2763POPC   C1A36279  15.847  34.644   8.744
 2763POPC   D2A36280  15.919  34.513   8.366
 2763POPC   C3A36281  15.871  34.823   8.080
 2763POPC   C4A36282  15.883  34.714   7.667
 2763POPC   C1B36283  16.197  34.169   8.733
 2763POPC   C2B36284  16.357  34.273   8.298
 2763POPC   C3B36285  16.144  34.287   7.886
 2763POPC   C4B36286  16.277  34.288   7.432
 2764POPC   NC336287  21.657  42.879   9.552
 2764POPC   PO436288  21.004  43.255   9.415
 2764POPC   GL136289  21.290  43.072   9.146
 2764POPC   GL236290  21.592  43.215   9.155
 2764POPC   C1A36291  21.353  43.168   8.703
 2764POPC   D2A36292  21.389  42.974   8.312
 2764POPC   C3A36293  21.104  43.122   8.030
 2764POPC   C4A36294  21.245  43.108   7.619
 2764POPC   C1B36295  21.765  43.447   8.799
 2764POPC   C2B36296  21.803  43.262   8.369
 2764POPC   C3B36297  21.681  43.220   7.911
 2764POPC   C4B36298  21.704  43.275   7.427
 2765POPC   NC336299  13.743   2.131   9.662
 2765POPC   PO436300  13.241   1.723   9.513
 2765POPC   GL136301  13.623   1.829   9.271
 2765POPC   GL236302  13.508   2.158   9.151
 2765POPC   C1A36303  13.837   1.860   8.859
 2765POPC   D2A36304  13.644   2.123   8.532
 2765POPC   C3A36305  13.833   2.166   8.122
 2765POPC   C4A36306  13.524   2.129   7.789
 2765POPC   C1B36307  13.322   1.813   8.863
 2765POPC   C2B36308  13.502   1.613   8.519
 2765POPC   C3B36309  13.578   1.714   8.098
 2765POPC   C4B36310  13.265   1.687   7.760
 2766POPC   NC336311  38.476  38.113   9.290
 2766POPC   PO436312  38.647  38.729   9.520
 2766POPC   GL136313  38.495  38.639   9.120
 2766POPC   GL236314  38.156  38.488   9.101
 2766POPC   C1A36315  38.494  38.475   8.698
 2766POPC   D2A36316  38.316  38.582   8.313
 2766POPC   C3A36317  38.520  38.452   7.946
 2766POPC   C4A36318  38.249  38.693   7.687
 2766POPC   C1B36319  38.102  38.137   8.757
 2766POPC   C2B36320  38.318  38.064   8.381
 2766POPC   C3B36321  38.115  38.128   7.989
 2766POPC   C4B36322  38.240  38.208   7.569
 2767POPC   NC336323  40.283  10.769   9.423
 2767POPC   PO436324  39.636  10.864   9.302
 2767POPC   GL136325  39.957  10.632   9.016
 2767POPC   GL236326  40.265  10.831   8.910
 2767POPC   C1A36327  39.954  10.314   8.646
 2767POPC   D2A36328  39.860  10.189   8.197
 2767POPC   C3A36329  40.033  10.493   7.910
 2767POPC   C4A36330  39.835  10.648   7.586
 2767POPC   C1B36331  40.463  10.446   8.760
 2767POPC   C2B36332  40.661  10.171   8.472
 2767POPC   C3B36333  40.468  10.267   8.077
 2767POPC   C4B36334  40.247   9.999   7.794
 2768POPC   NC336335   7.299   6.906   9.525
 2768POPC   PO436336   7.536   7.497   9.505
 2768POPC   GL136337   7.450   7.368   9.103
 2768POPC   GL236338   7.141   7.559   9.093
 2768POPC   C1A36339   7.363   7.431   8.641
 2768POPC   D2A36340   7.546   7.464   8.238
 2768POPC   C3A36341   7.464   7.595   7.836
 2768POPC   C4A36342   7.506   7.167   7.681
 2768POPC   C1B36343   6.890   7.617   8.685
 2768POPC   C2B36344   6.969   7.445   8.262
 2768POPC   C3B36345   7.034   7.320   7.858
 2768POPC   C4B36346   6.872   7.173   7.469
 2769POPC   NC336347  15.297   8.860   9.489
 2769POPC   PO436348  14.941   9.459   9.495
 2769POPC   GL136349  15.115   9.248   9.115
 2769POPC   GL236350  15.374   8.952   8.999
 2769POPC   C1A36351  15.112   9.236   8.679
 2769POPC   D2A36352  15.391   9.027   8.431
 2769POPC   C3A36353  15.329   9.082   8.004
 2769POPC   C4A36354  14.928   9.132   7.818
 2769POPC   C1B36355  15.029   8.728   8.734
 2769POPC   C2B36356  14.906   8.518   8.334
 2769POPC   C3B36357  14.962   8.630   7.888
 2769POPC   C4B36358  15.134   8.775   7.464
 2770POPC   NC336359  14.038  12.021   9.533
 2770POPC   PO436360  14.275  12.622   9.500
 2770POPC   GL136361  14.317  12.255   9.154
 2770POPC   GL236362  14.240  11.911   9.065
 2770POPC   C1A36363  14.435  12.212   8.700
 2770POPC   D2A36364  14.586  12.297   8.277
 2770POPC   C3A36365  14.362  12.127   7.947
 2770POPC   C4A36366  14.378  11.968   7.546
 2770POPC   C1B36367  14.039  11.847   8.682
 2770POPC   C2B36368  14.010  11.917   8.249
 2770POPC   C3B36369  14.002  11.737   7.815
 2770POPC   C4B36370  14.054  11.636   7.339
 2771POPC   NC336371   3.423  22.210   9.924
 2771POPC   PO436372   3.821  22.309   9.305
 2771POPC   GL136373   3.610  22.118   8.992
 2771POPC   GL236374   3.309  22.049   9.143
 2771POPC   C1A36375   3.428  22.364   8.685
 2771POPC   D2A36376   3.218  22.465   8.342
 2771POPC   C3A36377   3.413  22.300   7.996
 2771POPC   C4A36378   3.260  22.369   7.607
 2771POPC   C1B36379   3.187  21.869   8.754
 2771POPC   C2B36380   3.379  21.926   8.354
 2771POPC   C3B36381   3.554  21.800   7.940
 2771POPC   C4B36382   3.546  21.974   7.524
 2772POPC   NC336383  29.968   3.934   9.461
 2772POPC   PO436384  30.177   3.294   9.529
 2772POPC   GL136385  29.890   3.424   9.200
 2772POPC   GL236386  30.046   3.657   9.041
 2772POPC   C1A36387  29.696   3.524   8.747
 2772POPC   D2A36388  29.970   3.508   8.398
 2772POPC   C3A36389  29.819   3.577   7.980
 2772POPC   C4A36390  29.744   3.382   7.565
 2772POPC   C1B36391  30.108   3.890   8.699
 2772POPC   C2B36392  30.052   4.003   8.291
 2772POPC   C3B36393  30.353   3.979   7.996
 2772POPC   C4B36394  30.455   4.082   7.603
 2773POPC   NC336395   4.103  10.641   9.770
 2773POPC   PO436396   3.399  10.613   9.588
 2773POPC   GL136397   3.316  10.403   9.176
 2773POPC   GL236398   3.624  10.461   9.033
 2773POPC   C1A36399   3.238  10.463   8.730
 2773POPC   D2A36400   3.488  10.493   8.364
 2773POPC   C3A36401   3.304  10.515   7.956
 2773POPC   C4A36402   3.497  10.427   7.536
 2773POPC   C1B36403   3.912  10.426   8.699
 2773POPC   C2B36404   4.095  10.673   8.402
 2773POPC   C3B36405   3.840  10.634   8.013
 2773POPC   C4B36406   3.953  10.657   7.599
 2774POPC   NC336407  19.045  34.933   9.320
 2774POPC   PO436408  19.199  35.573   9.529
 2774POPC   GL136409  19.327  35.332   9.120
 2774POPC   GL236410  18.994  35.297   8.964
 2774POPC   C1A36411  19.311  34.969   8.760
 2774POPC   D2A36412  19.089  34.963   8.384
 2774POPC   C3A36413  19.278  35.288   8.145
 2774POPC   C4A36414  19.385  35.339   7.700
 2774POPC   C1B36415  19.199  35.477   8.618
 2774POPC   C2B36416  19.013  35.708   8.275
 2774POPC   C3B36417  18.946  35.569   7.895
 2774POPC   C4B36418  18.814  35.152   7.783
 2775POPC   NC336419  20.870  42.786   9.257
 2775POPC   PO436420  20.340  43.142   9.596
 2775POPC   GL136421  20.357  43.059   9.170
 2775POPC   GL236422  20.585  43.356   9.115
 2775POPC   C1A36423  20.504  42.861   8.760
 2775POPC   D2A36424  20.829  42.840   8.421
 2775POPC   C3A36425  20.636  42.848   8.034
 2775POPC   C4A36426  20.806  42.832   7.690
 2775POPC   C1B36427  20.307  43.328   8.750
 2775POPC   C2B36428  20.356  43.162   8.347
 2775POPC   C3B36429  20.617  43.357   8.055
 2775POPC   C4B36430  20.812  43.351   7.675
 2776POPC   NC336431  12.134   1.425   9.449
 2776POPC   PO436432  11.813   0.754   9.624
 2776POPC   GL136433  11.968   0.976   9.245
 2776POPC   GL236434  11.759   1.281   9.125
 2776POPC   C1A36435  12.213   1.028   8.842
 2776POPC   D2A36436  12.247   0.895   8.415
 2776POPC   C3A36437  12.263   1.159   8.066
 2776POPC   C4A36438  12.163   1.038   7.676
 2776POPC   C1B36439  12.019   1.483   8.778
 2776POPC   C2B36440  12.034   1.586   8.329
 2776POPC   C3B36441  11.910   1.499   7.915
 2776POPC   C4B36442  12.049   1.513   7.486
 2777POPC   NC336443  11.927  43.269   9.697
 2777POPC   PO436444  12.104  42.672   9.450
 2777POPC   GL136445  12.021  42.924   9.088
 2777POPC   GL236446  11.872  43.247   9.156
 2777POPC   C1A36447  12.163  43.136   8.721
 2777POPC   D2A36448  12.280  43.261   8.333
 2777POPC   C3A36449  12.133  43.097   7.950
 2777POPC   C4A36450  12.152  43.196   7.519
 2777POPC   C1B36451  11.663  43.135   8.723
 2777POPC   C2B36452  11.731  43.201   8.261
 2777POPC   C3B36453  11.632  43.014   7.844
 2777POPC   C4B36454  11.664  43.143   7.374
 2778POPC   NC336455  13.543  39.187   9.636
 2778POPC   PO436456  14.123  39.279   9.508
 2778POPC   GL136457  13.739  39.249   9.171
 2778POPC   GL236458  13.506  39.553   9.142
 2778POPC   C1A36459  13.514  39.189   8.734
 2778POPC   D2A36460  13.332  39.206   8.270
 2778POPC   C3A36461  13.520  38.943   7.912
 2778POPC   C4A36462  13.498  39.011   7.452
 2778POPC   C1B36463  13.837  39.575   8.795
 2778POPC   C2B36464  13.781  39.468   8.340
 2778POPC   C3B36465  13.730  39.425   7.885
 2778POPC   C4B36466  13.976  39.394   7.487
 2779POPC   NC336467  13.953  18.428   9.517
 2779POPC   PO436468  13.428  18.049   9.640
 2779POPC   GL136469  13.359  18.217   9.201
 2779POPC   GL236470  13.677  18.346   9.084
 2779POPC   C1A36471  13.318  18.067   8.758
 2779POPC   D2A36472  13.289  18.285   8.350
 2779POPC   C3A36473  13.405  18.064   8.029
 2779POPC   C4A36474  13.607  18.114   7.649
 2779POPC   C1B36475  13.660  18.444   8.651
 2779POPC   C2B36476  13.638  18.666   8.257
 2779POPC   C3B36477  13.468  18.556   7.867
 2779POPC   C4B36478  13.645  18.654   7.474
 2780POPC   NC336479  17.245  24.384   9.442
 2780POPC   PO436480  17.841  24.043   9.508
 2780POPC   GL136481  17.848  24.306   9.125
 2780POPC   GL236482  17.662  24.637   9.147
 2780POPC   C1A36483  17.884  24.498   8.702
 2780POPC   D2A36484  17.648  24.703   8.355
 2780POPC   C3A36485  17.523  24.443   8.001
 2780POPC   C4A36486  17.593  24.263   7.633
 2780POPC   C1B36487  17.346  24.693   8.797
 2780POPC   C2B36488  17.116  24.640   8.410
 2780POPC   C3B36489  17.157  24.780   8.012
 2780POPC   C4B36490  17.435  24.836   7.657
 2781POPC   NC336491  41.617   9.579   9.433
 2781POPC   PO436492  41.124  10.031   9.357
 2781POPC   GL136493  41.365   9.790   9.044
 2781POPC   GL236494  41.765   9.782   8.979
 2781POPC   C1A36495  41.396   9.609   8.664
 2781POPC   D2A36496  41.723   9.717   8.371
 2781POPC   C3A36497  41.451   9.700   8.040
 2781POPC   C4A36498  41.373   9.491   7.627
 2781POPC   C1B36499  41.824   9.349   8.743
 2781POPC   C2B36500  41.921   9.222   8.304
 2781POPC   C3B36501  41.803   9.351   7.910
 2781POPC   C4B36502  41.808   9.723   7.677
 2782POPC   NC336503  40.616  42.554   9.602
 2782POPC   PO436504  41.196  42.295   9.535
 2782POPC   GL136505  40.880  42.253   9.210
 2782POPC   GL236506  40.650  41.965   9.187
 2782POPC   C1A36507  40.969  42.328   8.771
 2782POPC   D2A36508  40.719  42.356   8.390
 2782POPC   C3A36509  40.830  42.483   7.976
 2782POPC   C4A36510  40.885  42.415   7.532
 2782POPC   C1B36511  40.488  42.104   8.816
 2782POPC   C2B36512  40.370  41.971   8.416
 2782POPC   C3B36513  40.437  42.149   8.011
 2782POPC   C4B36514  40.581  42.009   7.624
 2783POPC   NC336515  22.919  37.277   9.425
 2783POPC   PO436516  22.626  37.827   9.611
 2783POPC   GL136517  22.916  37.753   9.225
 2783POPC   GL236518  22.715  37.512   9.019
 2783POPC   C1A36519  23.131  37.679   8.798
 2783POPC   D2A36520  22.910  37.539   8.433
 2783POPC   C3A36521  23.047  37.690   8.018
 2783POPC   C4A36522  22.837  37.631   7.620
 2783POPC   C1B36523  22.704  37.919   8.782
 2783POPC   C2B36524  22.795  38.034   8.353
 2783POPC   C3B36525  22.661  38.094   7.947
 2783POPC   C4B36526  22.745  38.086   7.486
 2784POPC   NC336527  24.820  39.975   9.480
 2784POPC   PO436528  24.108  39.830   9.474
 2784POPC   GL136529  24.408  39.908   9.156
 2784POPC   GL236530  24.535  40.258   9.162
 2784POPC   C1A36531  24.451  40.037   8.729
 2784POPC   D2A36532  24.593  39.826   8.404
 2784POPC   C3A36533  24.400  40.006   8.105
 2784POPC   C4A36534  24.407  39.978   7.691
 2784POPC   C1B36535  24.836  40.364   8.803
 2784POPC   C2B36536  24.818  40.325   8.320
 2784POPC   C3B36537  24.666  40.398   7.869
 2784POPC   C4B36538  24.756  40.229   7.420
 2785POPC   NC336539  14.159   3.492   9.577
 2785POPC   PO436540  14.136   4.106   9.701
 2785POPC   GL136541  14.346   3.815   9.234
 2785POPC   GL236542  14.451   3.426   9.182
 2785POPC   C1A36543  14.551   3.707   8.792
 2785POPC   D2A36544  14.531   3.378   8.456
 2785POPC   C3A36545  14.229   3.433   8.151
 2785POPC   C4A36546  14.344   3.452   7.728
 2785POPC   C1B36547  14.223   3.276   8.835
 2785POPC   C2B36548  13.862   3.297   8.564
 2785POPC   C3B36549  13.735   3.215   8.177
 2785POPC   C4B36550  13.848   3.341   7.780
 2786POPC   NC336551  19.864  43.249   9.608
 2786POPC   PO436552  19.415  42.819   9.271
 2786POPC   GL136553  19.817  42.878   9.092
 2786POPC   GL236554  19.815  43.199   9.118
 2786POPC   C1A36555  19.996  42.928   8.691
 2786POPC   D2A36556  19.874  42.993   8.266
 2786POPC   C3A36557  20.135  42.934   7.897
 2786POPC   C4A36558  19.963  42.838   7.482
 2786POPC   C1B36559  19.734  43.402   8.788
 2786POPC   C2B36560  19.485  43.491   8.444
 2786POPC   C3B36561  19.592  43.382   8.049
 2786POPC   C4B36562  19.715  43.256   7.658
 2787POPC   NC336563   7.825  28.107   9.365
 2787POPC   PO436564   7.622  27.462   9.507
 2787POPC   GL136565   7.313  27.456   9.204
 2787POPC   GL236566   7.309  27.811   9.195
 2787POPC   C1A36567   7.251  27.423   8.769
 2787POPC   D2A36568   7.387  27.652   8.394
 2787POPC   C3A36569   7.517  27.573   7.967
 2787POPC   C4A36570   7.830  27.746   7.668
 2787POPC   C1B36571   7.245  27.959   8.796
 2787POPC   C2B36572   7.457  28.161   8.443
 2787POPC   C3B36573   7.362  28.066   8.042
 2787POPC   C4B36574   7.322  27.933   7.620
 2788POPC   NC336575  36.358   4.149   9.846
 2788POPC   PO436576  36.015   4.546   9.417
 2788POPC   GL136577  36.218   4.399   9.076
 2788POPC   GL236578  36.208   4.044   9.138
 2788POPC   C1A36579  36.060   4.277   8.696
 2788POPC   D2A36580  35.776   4.329   8.393
 2788POPC   C3A36581  35.999   4.261   8.022
 2788POPC   C4A36582  36.226   4.283   7.637
 2788POPC   C1B36583  36.496   4.004   8.775
 2788POPC   C2B36584  36.426   4.087   8.326
 2788POPC   C3B36585  36.551   3.970   7.896
 2788POPC   C4B36586  36.630   3.991   7.400
 2789POPC   NC336587   7.741  11.353   9.403
 2789POPC   PO436588   7.117  11.146   9.545
 2789POPC   GL136589   7.315  11.222   9.159
 2789POPC   GL236590   7.349  10.848   9.164
 2789POPC   C1A36591   7.360  11.361   8.722
 2789POPC   D2A36592   7.181  11.253   8.312
 2789POPC   C3A36593   7.445  11.430   8.019
 2789POPC   C4A36594   7.372  11.610   7.638
 2789POPC   C1B36595   7.626  10.930   8.839
 2789POPC   C2B36596   7.671  11.049   8.406
 2789POPC   C3B36597   7.521  10.915   8.011
 2789POPC   C4B36598   7.141  10.935   7.767
 2790POPC   NC336599  28.114  41.732   9.526
 2790POPC   PO436600  28.747  41.571   9.538
 2790POPC   GL136601  28.510  41.474   9.184
 2790POPC   GL236602  28.624  41.748   8.978
 2790POPC   C1A36603  28.191  41.374   8.868
 2790POPC   D2A36604  28.245  41.295   8.436
 2790POPC   C3A36605  28.380  41.629   8.172
 2790POPC   C4A36606  28.205  41.619   7.774
 2790POPC   C1B36607  28.746  41.387   8.703
 2790POPC   C2B36608  28.748  41.204   8.268
 2790POPC   C3B36609  28.651  41.351   7.843
 2790POPC   C4B36610  28.656  41.810   7.712
 2791POPC   NC336611  15.651  19.907   9.409
 2791POPC   PO436612  15.026  20.044   9.466
 2791POPC   GL136613  15.092  19.791   9.161
 2791POPC   GL236614  15.330  20.029   9.018
 2791POPC   C1A36615  14.994  19.730   8.753
 2791POPC   D2A36616  15.174  20.028   8.508
 2791POPC   C3A36617  15.165  19.931   8.089
 2791POPC   C4A36618  15.003  19.757   7.718
 2791POPC   C1B36619  15.459  19.600   8.875
 2791POPC   C2B36620  15.391  19.531   8.470
 2791POPC   C3B36621  15.627  19.683   8.158
 2791POPC   C4B36622  15.551  19.760   7.734
 2792POPC   NC336623  31.812  31.750   9.667
 2792POPC   PO436624  31.294  31.375   9.546
 2792POPC   GL136625  31.382  31.404   9.137
 2792POPC   GL236626  31.066  31.432   9.023
 2792POPC   C1A36627  31.468  31.534   8.735
 2792POPC   D2A36628  31.518  31.584   8.319
 2792POPC   C3A36629  31.690  31.298   8.048
 2792POPC   C4A36630  31.703  31.433   7.642
 2792POPC   C1B36631  30.986  31.715   8.652
 2792POPC   C2B36632  31.251  31.965   8.519
 2792POPC   C3B36633  31.180  31.918   8.108
 2792POPC   C4B36634  31.254  31.542   7.864
 2793POPC   NC336635  31.118  39.983   9.448
 2793POPC   PO436636  31.808  39.987   9.403
 2793POPC   GL136637  31.515  39.861   9.086
 2793POPC   GL236638  31.252  40.121   8.988
 2793POPC   C1A36639  31.555  39.825   8.614
 2793POPC   D2A36640  31.635  39.655   8.203
 2793POPC   C3A36641  31.879  39.973   7.978
 2793POPC   C4A36642  31.751  40.279   7.667
 2793POPC   C1B36643  31.105  39.739   8.808
 2793POPC   C2B36644  31.058  39.836   8.363
 2793POPC   C3B36645  31.278  40.036   8.054
 2793POPC   C4B36646  31.457  39.822   7.745
 2794POPC   NC336647  37.891  28.133   9.551
 2794POPC   PO436648  37.491  28.632   9.535
 2794POPC   GL136649  37.697  28.446   9.224
 2794POPC   GL236650  37.418  28.369   9.080
 2794POPC   C1A36651  37.861  28.373   8.820
 2794POPC   D2A36652  37.740  28.257   8.411
 2794POPC   C3A36653  37.849  28.398   8.020
 2794POPC   C4A36654  37.759  28.285   7.607
 2794POPC   C1B36655  37.378  28.141   8.741
 2794POPC   C2B36656  37.203  28.160   8.347
 2794POPC   C3B36657  37.385  28.175   7.956
 2794POPC   C4B36658  37.331  28.518   7.674
 2795POPC   NC336659   2.168   3.832   9.471
 2795POPC   PO436660   1.879   4.385   9.505
 2795POPC   GL136661   2.088   4.450   9.111
 2795POPC   GL236662   2.162   4.121   9.075
 2795POPC   C1A36663   1.939   4.350   8.684
 2795POPC   D2A36664   2.091   4.476   8.305
 2795POPC   C3A36665   1.824   4.376   7.954
 2795POPC   C4A36666   2.129   4.516   7.684
 2795POPC   C1B36667   2.010   3.863   8.800
 2795POPC   C2B36668   2.104   3.927   8.394
 2795POPC   C3B36669   2.234   4.081   7.999
 2795POPC   C4B36670   1.967   3.969   7.669
 2796POPC   NC336671  18.608   9.000   9.350
 2796POPC   PO436672  18.008   9.339   9.503
 2796POPC   GL136673  18.151   9.197   9.142
 2796POPC   GL236674  18.199   8.880   9.089
 2796POPC   C1A36675  18.399   9.279   8.794
 2796POPC   D2A36676  18.342   9.078   8.435
 2796POPC   C3A36677  18.299   9.298   8.058
 2796POPC   C4A36678  18.454   9.227   7.631
 2796POPC   C1B36679  18.284   8.656   8.760
 2796POPC   C2B36680  18.093   8.628   8.397
 2796POPC   C3B36681  18.208   8.785   8.027
 2796POPC   C4B36682  18.167   8.824   7.622
 2797POPC   NC336683   5.162  19.427   9.399
 2797POPC   PO436684   5.159  20.028   9.419
 2797POPC   GL136685   5.132  19.796   9.048
 2797POPC   GL236686   4.916  19.480   8.979
 2797POPC   C1A36687   5.332  19.637   8.722
 2797POPC   D2A36688   5.469  19.764   8.357
 2797POPC   C3A36689   5.331  19.589   7.992
 2797POPC   C4A36690   5.154  19.896   7.754
 2797POPC   C1B36691   4.793  19.735   8.663
 2797POPC   C2B36692   4.922  19.764   8.252
 2797POPC   C3B36693   4.797  19.560   7.873
 2797POPC   C4B36694   4.823  19.679   7.424
 2798POPC   NC336695  39.538   5.555   9.312
 2798POPC   PO436696  40.128   5.626   9.603
 2798POPC   GL136697  40.176   5.859   9.177
 2798POPC   GL236698  39.834   5.987   9.091
 2798POPC   C1A36699  40.176   5.958   8.699
 2798POPC   D2A36700  39.894   6.024   8.335
 2798POPC   C3A36701  40.038   5.974   7.904
 2798POPC   C4A36702  39.961   6.011   7.450
 2798POPC   C1B36703  39.729   5.703   8.722
 2798POPC   C2B36704  39.602   5.552   8.339
 2798POPC   C3B36705  39.743   5.492   7.923
 2798POPC   C4B36706  39.569   5.729   7.576
 2799POPC   NC336707   3.860  25.684   9.422
 2799POPC   PO436708   3.535  26.342   9.480
 2799POPC   GL136709   3.623  26.275   9.069
 2799POPC   GL236710   3.529  25.930   9.104
 2799POPC   C1A36711   3.822  26.130   8.672
 2799POPC   D2A36712   3.593  26.268   8.303
 2799POPC   C3A36713   3.748  26.204   7.883
 2799POPC   C4A36714   3.677  25.965   7.509
 2799POPC   C1B36715   3.398  25.832   8.693
 2799POPC   C2B36716   3.639  25.769   8.318
 2799POPC   C3B36717   3.437  25.801   7.935
 2799POPC   C4B36718   3.397  25.551   7.589
 2800POPC   NC336719  13.282  15.296   9.510
 2800POPC   PO436720  13.904  14.901   9.373
 2800POPC   GL136721  13.685  15.222   9.160
 2800POPC   GL236722  13.436  15.025   9.070
 2800POPC   C1A36723  13.544  15.425   8.775
 2800POPC   D2A36724  13.489  15.159   8.443
 2800POPC   C3A36725  13.694  15.247   8.065
 2800POPC   C4A36726  13.498  15.352   7.715
 2800POPC   C1B36727  13.266  14.764   8.757
 2800POPC   C2B36728  13.318  14.634   8.346
 2800POPC   C3B36729  13.347  14.869   7.972
 2800POPC   C4B36730  13.347  14.902   7.519
 2801POPC   NC336731  43.661  29.424   9.547
 2801POPC   PO436732  44.271  29.242   9.544
 2801POPC   GL136733  44.019  29.381   9.164
 2801POPC   GL236734  43.628  29.342   9.058
 2801POPC   C1A36735  44.000  29.237   8.749
 2801POPC   D2A36736  43.897  28.968   8.396
 2801POPC   C3A36737  43.952  29.193   8.013
 2801POPC   C4A36738  44.142  29.148   7.617
 2801POPC   C1B36739  43.501  29.022   8.740
 2801POPC   C2B36740  43.382  28.820   8.369
 2801POPC   C3B36741  43.528  28.913   7.988
 2801POPC   C4B36742  43.472  29.284   7.774
 2802POPC   NC336743  26.742  42.389   9.456
 2802POPC   PO436744  27.077  41.732   9.493
 2802POPC   GL136745  27.102  41.965   9.094
 2802POPC   GL236746  27.020  42.327   9.050
 2802POPC   C1A36747  26.888  41.988   8.667
 2802POPC   D2A36748  26.914  41.901   8.217
 2802POPC   C3A36749  26.630  42.091   7.888
 2802POPC   C4A36750  26.825  42.278   7.505
 2802POPC   C1B36751  26.949  42.511   8.682
 2802POPC   C2B36752  26.773  42.400   8.310
 2802POPC   C3B36753  26.792  42.583   7.929
 2802POPC   C4B36754  27.120  42.830   7.834
 2803POPC   NC336755  36.143   9.975   9.591
 2803POPC   PO436756  36.054   9.408   9.204
 2803POPC   GL136757  36.028   9.864   9.116
 2803POPC   GL236758  36.315  10.122   9.129
 2803POPC   C1A36759  35.970   9.981   8.720
 2803POPC   D2A36760  35.817   9.698   8.422
 2803POPC   C3A36761  35.947   9.863   8.061
 2803POPC   C4A36762  36.092   9.706   7.688
 2803POPC   C1B36763  36.465   9.837   8.804
 2803POPC   C2B36764  36.525   9.920   8.373
 2803POPC   C3B36765  36.428  10.032   7.950
 2803POPC   C4B36766  36.589   9.808   7.591
 2804POPC   NC336767  16.825  43.680   9.535
 2804POPC   PO436768  16.824  44.314   9.482
 2804POPC   GL136769  16.635  44.040   9.170
 2804POPC   GL236770  16.882  43.820   9.041
 2804POPC   C1A36771  16.588  44.116   8.704
 2804POPC   D2A36772  16.552  44.184   8.230
 2804POPC   C3A36773  16.913  44.085   7.934
 2804POPC   C4A36774  17.146  43.713   7.850
 2804POPC   C1B36775  16.538  43.600   8.859
 2804POPC   C2B36776  16.438  43.485   8.419
 2804POPC   C3B36777  16.596  43.643   8.019
 2804POPC   C4B36778  16.594  43.405   7.672
 2805POPC   NC336779  17.635  27.416   9.599
 2805POPC   PO436780  17.222  27.902   9.428
 2805POPC   GL136781  17.537  27.697   9.171
 2805POPC   GL236782  17.425  27.352   9.149
 2805POPC   C1A36783  17.699  27.546   8.767
 2805POPC   D2A36784  17.740  27.417   8.355
 2805POPC   C3A36785  17.747  27.741   8.061
 2805POPC   C4A36786  17.521  27.815   7.726
 2805POPC   C1B36787  17.253  27.126   8.829
 2805POPC   C2B36788  17.336  27.105   8.402
 2805POPC   C3B36789  17.368  27.357   8.005
 2805POPC   C4B36790  17.385  27.327   7.558
 2806POPC   NC336791   2.883  42.445   9.644
 2806POPC   PO436792   2.311  42.195   9.961
 2806POPC   GL136793   2.449  42.239   9.436
 2806POPC   GL236794   2.561  41.965   9.207
 2806POPC   C1A36795   2.658  42.442   9.000
 2806POPC   D2A36796   2.851  42.404   8.536
 2806POPC   C3A36797   2.671  42.479   8.096
 2806POPC   C4A36798   2.839  42.572   7.651
 2806POPC   C1B36799   2.573  42.001   8.745
 2806POPC   C2B36800   2.620  41.988   8.281
 2806POPC   C3B36801   2.875  42.051   7.894
 2806POPC   C4B36802   3.055  41.811   7.584
 2807POPC   NC336803  27.264   5.864   9.527
 2807POPC   PO436804  27.966   5.647   9.566
 2807POPC   GL136805  27.703   5.800   9.258
 2807POPC   GL236806  27.794   6.075   9.129
 2807POPC   C1A36807  27.509   5.686   8.874
 2807POPC   D2A36808  27.414   5.856   8.474
 2807POPC   C3A36809  27.456   5.595   8.153
 2807POPC   C4A36810  27.447   5.644   7.728
 2807POPC   C1B36811  27.537   6.224   8.796
 2807POPC   C2B36812  27.502   6.355   8.351
 2807POPC   C3B36813  27.517   6.099   7.966
 2807POPC   C4B36814  27.855   6.087   7.632
 2808POPC   NC336815  13.250  11.825   9.466
 2808POPC   PO436816  13.667  11.259   9.482
 2808POPC   GL136817  13.586  11.306   9.075
 2808POPC   GL236818  13.506  11.655   9.038
 2808POPC   C1A36819  13.799  11.379   8.705
 2808POPC   D2A36820  13.741  11.500   8.304
 2808POPC   C3A36821  13.947  11.227   8.046
 2808POPC   C4A36822  13.922  11.261   7.644
 2808POPC   C1B36823  13.306  11.641   8.627
 2808POPC   C2B36824  13.239  11.473   8.224
 2808POPC   C3B36825  13.484  11.436   7.845
 2808POPC   C4B36826  13.569  11.561   7.433
 2809POPC   NC336827  28.064  13.475   9.513
 2809POPC   PO436828  28.753  13.489   9.416
 2809POPC   GL136829  28.499  13.774   9.103
 2809POPC   GL236830  28.158  13.615   9.031
 2809POPC   C1A36831  28.363  13.871   8.647
 2809POPC   D2A36832  28.202  13.644   8.257
 2809POPC   C3A36833  28.298  13.776   7.830
 2809POPC   C4A36834  28.734  13.841   7.635
 2809POPC   C1B36835  28.065  13.326   8.699
 2809POPC   C2B36836  27.827  13.307   8.312
 2809POPC   C3B36837  27.940  13.376   7.872
 2809POPC   C4B36838  27.958  13.545   7.452
 2810POPC   NC336839  17.583   3.217   9.443
 2810POPC   PO436840  17.273   3.810   9.528
 2810POPC   GL136841  17.584   3.659   9.183
 2810POPC   GL236842  17.671   3.349   8.976
 2810POPC   C1A36843  17.740   3.825   8.798
 2810POPC   D2A36844  17.499   3.964   8.481
 2810POPC   C3A36845  17.616   3.684   8.181
 2810POPC   C4A36846  17.770   3.859   7.814
 2810POPC   C1B36847  17.315   3.175   8.744
 2810POPC   C2B36848  17.207   3.325   8.346
 2810POPC   C3B36849  17.313   3.325   7.951
 2810POPC   C4B36850  17.709   3.305   7.824
 2811POPC   NC336851   9.527  13.443  10.032
 2811POPC   PO436852   9.902  13.824   9.662
 2811POPC   GL136853   9.913  13.624   9.214
 2811POPC   GL236854  10.146  13.831   9.021
 2811POPC   C1A36855   9.730  13.313   8.884
 2811POPC   D2A36856   9.491  13.292   8.478
 2811POPC   C3A36857   9.699  13.293   8.112
 2811POPC   C4A36858   9.623  13.431   7.711
 2811POPC   C1B36859   9.728  13.815   8.779
 2811POPC   C2B36860   9.630  13.783   8.340
 2811POPC   C3B36861   9.876  13.778   7.962
 2811POPC   C4B36862  10.274  13.666   7.772
 2812POPC   NC336863  39.536  44.359   9.414
 2812POPC   PO436864  39.408   0.066   9.307
 2812POPC   GL136865  39.333  44.820   9.009
 2812POPC   GL236866  39.108  44.610   9.177
 2812POPC   C1A36867  39.323  44.910   8.575
 2812POPC   D2A36868  39.496  44.668   8.241
 2812POPC   C3A36869  39.376  44.799   7.843
 2812POPC   C4A36870  39.359  44.538   7.485
 2812POPC   C1B36871  38.905  44.635   8.785
 2812POPC   C2B36872  39.081  44.458   8.421
 2812POPC   C3B36873  39.037  44.430   7.961
 2812POPC   C4B36874  38.695  44.287   7.704
 2813POPC   NC336875  37.622  16.252   9.617
 2813POPC   PO436876  38.010  15.785   9.612
 2813POPC   GL136877  37.739  15.905   9.237
 2813POPC   GL236878  37.654  16.221   9.118
 2813POPC   C1A36879  37.773  15.792   8.817
 2813POPC   D2A36880  37.599  15.902   8.431
 2813POPC   C3A36881  37.801  15.695   8.180
 2813POPC   C4A36882  37.593  15.683   7.799
 2813POPC   C1B36883  37.807  16.276   8.712
 2813POPC   C2B36884  37.725  16.409   8.304
 2813POPC   C3B36885  37.766  16.151   7.961
 2813POPC   C4B36886  38.051  16.247   7.677
 2814POPC   NC336887  38.825  13.483   9.724
 2814POPC   PO436888  38.459  14.034   9.727
 2814POPC   GL136889  38.465  13.784   9.309
 2814POPC   GL236890  38.213  13.513   9.202
 2814POPC   C1A36891  38.432  13.813   8.842
 2814POPC   D2A36892  38.656  13.666   8.468
 2814POPC   C3A36893  38.624  13.942   8.113
 2814POPC   C4A36894  38.281  13.888   7.840
 2814POPC   C1B36895  38.378  13.299   8.802
 2814POPC   C2B36896  38.406  13.103   8.398
 2814POPC   C3B36897  38.497  13.319   8.038
 2814POPC   C4B36898  38.386  13.347   7.634
 2815POPC   NC336899   8.348  28.959   9.347
 2815POPC   PO436900   7.851  29.465   9.416
 2815POPC   GL136901   7.958  29.281   9.045
 2815POPC   GL236902   8.274  29.407   9.014
 2815POPC   C1A36903   7.945  29.103   8.646
 2815POPC   D2A36904   8.188  29.041   8.303
 2815POPC   C3A36905   8.112  29.298   7.960
 2815POPC   C4A36906   7.784  29.138   7.742
 2815POPC   C1B36907   8.523  29.181   8.743
 2815POPC   C2B36908   8.689  29.169   8.363
 2815POPC   C3B36909   8.584  29.066   7.976
 2815POPC   C4B36910   8.484  29.246   7.584
 2816POPC   NC336911  37.909   8.406   9.516
 2816POPC   PO436912  37.269   8.487   9.426
 2816POPC   GL136913  37.400   8.311   9.028
 2816POPC   GL236914  37.705   8.191   9.108
 2816POPC   C1A36915  37.521   8.088   8.649
 2816POPC   D2A36916  37.378   7.935   8.278
 2816POPC   C3A36917  37.604   8.205   8.040
 2816POPC   C4A36918  37.642   8.264   7.616
 2816POPC   C1B36919  37.968   8.322   8.785
 2816POPC   C2B36920  38.039   8.199   8.372
 2816POPC   C3B36921  38.094   8.320   7.919
 2816POPC   C4B36922  38.089   8.214   7.438
 2817POPC   NC336923  17.540   9.321   9.496
 2817POPC   PO436924  17.434   9.966   9.475
 2817POPC   GL136925  17.575   9.727   9.124
 2817POPC   GL236926  17.674   9.395   9.023
 2817POPC   C1A36927  17.566   9.854   8.732
 2817POPC   D2A36928  17.278  10.058   8.505
 2817POPC   C3A36929  17.330  10.098   8.088
 2817POPC   C4A36930  17.482   9.788   7.845
 2817POPC   C1B36931  17.511   9.371   8.600
 2817POPC   C2B36932  17.319   9.442   8.197
 2817POPC   C3B36933  17.485   9.291   7.787
 2817POPC   C4B36934  17.611   9.385   7.306
 2818POPC   NC336935  14.496  24.830   9.485
 2818POPC   PO436936  14.226  25.480   9.524
 2818POPC   GL136937  14.197  25.434   9.083
 2818POPC   GL236938  14.331  25.128   9.116
 2818POPC   C1A36939  14.417  25.394   8.660
 2818POPC   D2A36940  14.694  25.569   8.301
 2818POPC   C3A36941  14.624  25.383   7.894
 2818POPC   C4A36942  14.268  25.358   7.638
 2818POPC   C1B36943  14.130  24.963   8.771
 2818POPC   C2B36944  14.066  25.065   8.373
 2818POPC   C3B36945  14.186  25.008   7.982
 2818POPC   C4B36946  14.203  24.803   7.598
 2819POPC   NC336947  13.447  35.118   9.437
 2819POPC   PO436948  13.857  35.718   9.422
 2819POPC   GL136949  13.621  35.483   9.127
 2819POPC   GL236950  13.352  35.692   9.030
 2819POPC   C1A36951  13.711  35.184   8.786
 2819POPC   D2A36952  14.005  35.121   8.437
 2819POPC   C3A36953  13.806  35.182   8.017
 2819POPC   C4A36954  13.809  34.998   7.578
 2819POPC   C1B36955  13.617  35.762   8.703
 2819POPC   C2B36956  13.563  35.514   8.388
 2819POPC   C3B36957  13.474  35.596   8.004
 2819POPC   C4B36958  13.422  35.297   7.696
 2820POPC   NC336959  33.661  44.970   9.488
 2820POPC   PO436960  34.201   0.354   9.513
 2820POPC   GL136961  33.835   0.365   9.184
 2820POPC   GL236962  33.561   0.125   9.011
 2820POPC   C1A36963  33.702   0.600   8.835
 2820POPC   D2A36964  33.678   0.430   8.444
 2820POPC   C3A36965  33.531   0.541   8.053
 2820POPC   C4A36966  33.558   0.244   7.729
 2820POPC   C1B36967  33.939   0.026   8.818
 2820POPC   C2B36968  34.116   0.138   8.464
 2820POPC   C3B36969  33.924   0.131   8.075
 2820POPC   C4B36970  34.070   0.125   7.654
 2821POPC   NC336971  24.656  34.766   9.796
 2821POPC   PO436972  24.538  35.364   9.505
 2821POPC   GL136973  24.445  35.548   9.120
 2821POPC   GL236974  24.562  35.294   8.919
 2821POPC   C1A36975  24.490  35.746   8.716
 2821POPC   D2A36976  24.583  35.402   8.398
 2821POPC   C3A36977  24.455  35.580   8.018
 2821POPC   C4A36978  24.323  35.679   7.604
 2821POPC   C1B36979  24.912  35.126   8.706
 2821POPC   C2B36980  25.142  35.138   8.300
 2821POPC   C3B36981  24.912  35.081   7.923
 2821POPC   C4B36982  24.556  35.230   7.654
 2822POPC   NC336983  23.475   1.208   9.612
 2822POPC   PO436984  23.562   0.651   9.461
 2822POPC   GL136985  23.528   1.027   9.141
 2822POPC   GL236986  23.802   1.277   9.196
 2822POPC   C1A36987  23.557   1.274   8.732
 2822POPC   D2A36988  23.471   1.110   8.309
 2822POPC   C3A36989  23.580   1.361   7.958
 2822POPC   C4A36990  23.689   1.197   7.597
 2822POPC   C1B36991  23.992   1.541   8.832
 2822POPC   C2B36992  23.894   1.530   8.354
 2822POPC   C3B36993  24.089   1.310   7.962
 2822POPC   C4B36994  24.150   0.992   7.585
 2823POPC   NC336995  39.506   4.642   9.407
 2823POPC   PO436996  39.364   4.074   9.614
 2823POPC   GL136997  39.147   4.293   9.251
 2823POPC   GL236998  39.418   4.292   9.068
 2823POPC   C1A36999  39.050   4.406   8.777
 2823POPC   D2A37000  39.145   4.207   8.415
 2823POPC   C3A37001  38.953   4.304   8.067
 2823POPC   C4A37002  38.892   4.634   7.806
 2823POPC   C1B37003  39.566   4.118   8.713
 2823POPC   C2B37004  39.572   3.954   8.317
 2823POPC   C3B37005  39.587   4.217   7.986
 2823POPC   C4B37006  39.315   4.277   7.654
 2824POPC   NC337007  20.430   1.946   9.486
 2824POPC   PO437008  20.970   2.187   9.452
 2824POPC   GL137009  20.689   2.183   9.109
 2824POPC   GL237010  20.538   1.862   9.008
 2824POPC   C1A37011  20.449   2.304   8.756
 2824POPC   D2A37012  20.616   2.215   8.360
 2824POPC   C3A37013  20.376   2.316   8.010
 2824POPC   C4A37014  20.361   2.054   7.641
 2824POPC   C1B37015  20.878   1.858   8.713
 2824POPC   C2B37016  20.986   1.871   8.277
 2824POPC   C3B37017  20.779   1.940   7.891
 2824POPC   C4B37018  20.787   1.729   7.468
 2825POPC   NC337019  37.880  33.629   9.843
 2825POPC   PO437020  37.409  33.642   9.398
 2825POPC   GL137021  37.522  33.833   9.070
 2825POPC   GL237022  37.815  33.987   9.138
 2825POPC   C1A37023  37.634  33.768   8.662
 2825POPC   D2A37024  37.618  33.942   8.263
 2825POPC   C3A37025  37.677  33.615   7.985
 2825POPC   C4A37026  37.409  33.496   7.644
 2825POPC   C1B37027  37.912  34.199   8.748
 2825POPC   C2B37028  38.033  34.253   8.316
 2825POPC   C3B37029  37.935  34.113   7.889
 2825POPC   C4B37030  38.206  34.124   7.549
 2826POPC   NC337031  40.143   3.266   9.550
 2826POPC   PO437032  40.045   3.916   9.552
 2826POPC   GL137033  40.142   3.647   9.172
 2826POPC   GL237034  40.389   3.378   9.128
 2826POPC   C1A37035  39.981   3.499   8.758
 2826POPC   D2A37036  39.957   3.643   8.342
 2826POPC   C3A37037  39.993   3.438   7.976
 2826POPC   C4A37038  40.113   3.550   7.571
 2826POPC   C1B37039  40.361   3.164   8.750
 2826POPC   C2B37040  40.338   3.297   8.354
 2826POPC   C3B37041  40.387   3.115   7.976
 2826POPC   C4B37042  40.536   3.288   7.630
 2827POPC   NC337043  36.550  12.458   9.207
 2827POPC   PO437044  37.145  12.638   9.516
 2827POPC   GL137045  36.951  12.770   9.164
 2827POPC   GL237046  37.058  12.426   9.059
 2827POPC   C1A37047  36.919  13.111   8.854
 2827POPC   D2A37048  36.799  13.167   8.411
 2827POPC   C3A37049  37.108  13.273   8.115
 2827POPC   C4A37050  37.145  13.118   7.706
 2827POPC   C1B37051  37.031  12.634   8.669
 2827POPC   C2B37052  37.099  12.752   8.261
 2827POPC   C3B37053  36.798  12.840   7.998
 2827POPC   C4B37054  36.785  12.606   7.681
 2828POPC   NC337055  18.239  39.137   9.602
 2828POPC   PO437056  17.808  39.490   9.347
 2828POPC   GL137057  18.265  39.443   9.155
 2828POPC   GL237058  18.434  39.101   9.114
 2828POPC   C1A37059  18.478  39.433   8.729
 2828POPC   D2A37060  18.335  39.188   8.373
 2828POPC   C3A37061  18.274  39.383   8.005
 2828POPC   C4A37062  18.512  39.335   7.671
 2828POPC   C1B37063  18.495  38.844   8.718
 2828POPC   C2B37064  18.512  38.695   8.263
 2828POPC   C3B37065  18.315  38.897   7.868
 2828POPC   C4B37066  17.936  39.160   7.668
 2829POPC   NC337067   9.037  14.045   9.401
 2829POPC   PO437068   8.695  14.545   9.628
 2829POPC   GL137069   8.866  14.495   9.184
 2829POPC   GL237070   9.159  14.677   8.991
 2829POPC   C1A37071   8.704  14.495   8.776
 2829POPC   D2A37072   8.543  14.479   8.362
 2829POPC   C3A37073   8.650  14.319   7.942
 2829POPC   C4A37074   9.006  14.464   7.756
 2829POPC   C1B37075   9.148  14.342   8.616
 2829POPC   C2B37076   9.168  14.186   8.169
 2829POPC   C3B37077   9.472  14.311   7.827
 2829POPC   C4B37078   9.449  14.763   7.669
 2830POPC   NC337079  44.124  28.784   9.486
 2830POPC   PO437080  43.781  28.184   9.422
 2830POPC   GL137081  43.889  28.499   9.092
 2830POPC   GL237082  43.871  28.858   9.050
 2830POPC   C1A37083  43.798  28.495   8.644
 2830POPC   D2A37084  43.839  28.131   8.351
 2830POPC   C3A37085  43.841  28.269   7.926
 2830POPC   C4A37086  43.945  28.122   7.502
 2830POPC   C1B37087  44.228  28.765   8.777
 2830POPC   C2B37088  44.253  28.581   8.381
 2830POPC   C3B37089  44.199  28.742   7.990
 2830POPC   C4B37090  43.895  28.707   7.684
 2831POPC   NC337091  25.873  10.773   9.543
 2831POPC   PO437092  26.159  10.325   9.975
 2831POPC   GL137093  26.196  10.379   9.413
 2831POPC   GL237094  26.505  10.277   9.178
 2831POPC   C1A37095  26.120  10.676   8.966
 2831POPC   D2A37096  25.889  10.583   8.546
 2831POPC   C3A37097  25.866  10.736   8.097
 2831POPC   C4A37098  26.143  10.860   7.792
 2831POPC   C1B37099  26.244  10.220   8.809
 2831POPC   C2B37100  26.117  10.130   8.398
 2831POPC   C3B37101  25.967  10.234   8.038
 2831POPC   C4B37102  26.204  10.340   7.723
 2832POPC   NC337103  26.128  40.962   9.648
 2832POPC   PO437104  25.696  41.444   9.345
 2832POPC   GL137105  25.918  41.509   8.975
 2832POPC   GL237106  26.184  41.744   9.021
 2832POPC   C1A37107  25.920  41.436   8.536
 2832POPC   D2A37108  25.821  41.348   8.118
 2832POPC   C3A37109  26.091  41.471   7.816
 2832POPC   C4A37110  26.209  41.477   7.403
 2832POPC   C1B37111  26.083  41.915   8.637
 2832POPC   C2B37112  26.140  41.783   8.219
 2832POPC   C3B37113  26.118  41.983   7.823
 2832POPC   C4B37114  25.902  41.870   7.457
 2833POPC   NC337115   7.693  29.024   9.392
 2833POPC   PO437116   7.023  28.925   9.268
 2833POPC   GL137117   7.355  28.974   9.013
 2833POPC   GL237118   7.381  29.319   9.135
 2833POPC   C1A37119   7.431  28.952   8.577
 2833POPC   D2A37120   7.638  29.030   8.209
 2833POPC   C3A37121   7.326  28.901   7.902
 2833POPC   C4A37122   7.270  29.105   7.518
 2833POPC   C1B37123   7.536  29.411   8.748
 2833POPC   C2B37124   7.341  29.433   8.349
 2833POPC   C3B37125   7.362  29.405   7.913
 2833POPC   C4B37126   7.571  29.522   7.530
 2834POPC   NC337127  35.601  22.642   9.421
 2834POPC   PO437128  36.185  22.953   9.504
 2834POPC   GL137129  36.036  23.177   9.176
 2834POPC   GL237130  35.870  22.923   9.023
 2834POPC   C1A37131  36.184  23.223   8.772
 2834POPC   D2A37132  36.165  22.808   8.572
 2834POPC   C3A37133  36.077  22.834   8.152
 2834POPC   C4A37134  36.238  23.002   7.789
 2834POPC   C1B37135  35.661  22.782   8.660
 2834POPC   C2B37136  35.568  22.766   8.256
 2834POPC   C3B37137  35.679  22.774   7.851
 2834POPC   C4B37138  35.696  23.057   7.578
 2835POPC   NC337139  24.602  28.019   9.447
 2835POPC   PO437140  24.788  28.708   9.452
 2835POPC   GL137141  24.545  28.473   9.171
 2835POPC   GL237142  24.228  28.339   9.269
 2835POPC   C1A37143  24.588  28.407   8.763
 2835POPC   D2A37144  24.694  28.634   8.391
 2835POPC   C3A37145  24.504  28.415   8.055
 2835POPC   C4A37146  24.356  28.273   7.664
 2835POPC   C1B37147  24.135  28.165   8.863
 2835POPC   C2B37148  24.276  28.150   8.432
 2835POPC   C3B37149  24.041  28.161   8.056
 2835POPC   C4B37150  24.021  27.880   7.698
 2836POPC   NC337151  39.629  19.627   9.404
 2836POPC   PO437152  40.188  19.891   9.629
 2836POPC   GL137153  40.104  19.959   9.203
 2836POPC   GL237154  39.870  19.748   8.991
 2836POPC   C1A37155  40.238  20.038   8.797
 2836POPC   D2A37156  40.130  19.757   8.485
 2836POPC   C3A37157  40.192  20.015   8.149
 2836POPC   C4A37158  40.042  19.936   7.720
 2836POPC   C1B37159  39.608  19.771   8.636
 2836POPC   C2B37160  39.699  19.820   8.202
 2836POPC   C3B37161  39.502  20.025   7.889
 2836POPC   C4B37162  39.550  19.872   7.496
 2837POPC   NC337163  25.589  30.643   9.490
 2837POPC   PO437164  24.974  30.586   9.749
 2837POPC   GL137165  25.149  30.407   9.319
 2837POPC   GL237166  25.245  30.679   9.111
 2837POPC   C1A37167  25.069  30.281   8.858
 2837POPC   D2A37168  25.245  30.265   8.421
 2837POPC   C3A37169  25.033  30.408   8.052
 2837POPC   C4A37170  25.048  30.727   7.707
 2837POPC   C1B37171  25.532  30.542   8.769
 2837POPC   C2B37172  25.517  30.693   8.321
 2837POPC   C3B37173  25.482  30.916   7.930
 2837POPC   C4B37174  25.482  30.874   7.488
 2838POPC   NC337175  37.010  16.727   9.897
 2838POPC   PO437176  36.677  16.514   9.354
 2838POPC   GL137177  36.736  16.699   9.001
 2838POPC   GL237178  37.041  16.523   8.915
 2838POPC   C1A37179  36.731  16.696   8.568
 2838POPC   D2A37180  37.065  16.913   8.434
 2838POPC   C3A37181  36.980  16.794   8.050
 2838POPC   C4A37182  36.858  17.001   7.719
 2838POPC   C1B37183  36.765  16.205   8.750
 2838POPC   C2B37184  36.633  16.164   8.319
 2838POPC   C3B37185  36.854  16.270   7.976
 2838POPC   C4B37186  36.969  16.504   7.623
 2839POPC   NC337187  34.746  16.533   9.527
 2839POPC   PO437188  34.354  17.109   9.665
 2839POPC   GL137189  34.390  17.085   9.144
 2839POPC   GL237190  34.127  17.113   8.931
 2839POPC   C1A37191  34.566  16.987   8.680
 2839POPC   D2A37192  34.674  17.240   8.286
 2839POPC   C3A37193  34.633  17.014   7.869
 2839POPC   C4A37194  34.837  16.621   7.709
 2839POPC   C1B37195  34.279  16.632   8.930
 2839POPC   C2B37196  34.521  16.402   8.624
 2839POPC   C3B37197  34.598  16.409   8.174
 2839POPC   C4B37198  34.337  16.557   7.827
 2840POPC   NC337199  39.741   8.977   9.467
 2840POPC   PO437200  40.403   8.854   9.557
 2840POPC   GL137201  40.271   9.116   9.211
 2840POPC   GL237202  39.983   9.052   9.038
 2840POPC   C1A37203  40.397   9.006   8.771
 2840POPC   D2A37204  40.227   8.935   8.399
 2840POPC   C3A37205  40.348   8.922   8.044
 2840POPC   C4A37206  40.192   8.964   7.687
 2840POPC   C1B37207  39.925   9.244   8.647
 2840POPC   C2B37208  39.754   9.067   8.290
 2840POPC   C3B37209  39.738   9.153   7.887
 2840POPC   C4B37210  39.402   9.133   7.633
 2841POPC   NC337211  21.222  23.242   9.532
 2841POPC   PO437212  21.663  22.757   9.552
 2841POPC   GL137213  21.498  22.998   9.192
 2841POPC   GL237214  21.151  22.910   9.165
 2841POPC   C1A37215  21.411  23.081   8.762
 2841POPC   D2A37216  21.554  22.790   8.494
 2841POPC   C3A37217  21.439  22.946   8.160
 2841POPC   C4A37218  21.479  22.914   7.749
 2841POPC   C1B37219  20.908  23.048   8.768
 2841POPC   C2B37220  21.043  23.214   8.362
 2841POPC   C3B37221  20.995  23.046   7.934
 2841POPC   C4B37222  21.118  23.111   7.478
 2842POPC   NC337223  26.663  13.187   9.375
 2842POPC   PO437224  27.035  12.562   9.410
 2842POPC   GL137225  26.810  12.772   9.071
 2842POPC   GL237226  26.981  13.090   9.005
 2842POPC   C1A37227  26.809  12.835   8.608
 2842POPC   D2A37228  26.951  13.126   8.264
 2842POPC   C3A37229  26.935  12.820   7.925
 2842POPC   C4A37230  26.626  12.501   7.833
 2842POPC   C1B37231  26.709  13.328   8.759
 2842POPC   C2B37232  26.439  13.197   8.465
 2842POPC   C3B37233  26.407  13.297   8.053
 2842POPC   C4B37234  26.563  13.066   7.706
 2843POPC   NC337235  42.759  41.737   9.391
 2843POPC   PO437236  42.070  41.815   9.458
 2843POPC   GL137237  42.080  41.946   9.059
 2843POPC   GL237238  42.387  41.728   9.019
 2843POPC   C1A37239  41.943  41.799   8.705
 2843POPC   D2A37240  42.137  41.498   8.518
 2843POPC   C3A37241  41.992  41.561   8.148
 2843POPC   C4A37242  42.101  41.442   7.752
 2843POPC   C1B37243  42.538  41.854   8.627
 2843POPC   C2B37244  42.388  41.854   8.261
 2843POPC   C3B37245  42.492  41.442   8.090
 2843POPC   C4B37246  42.798  41.443   7.761
 2844POPC   NC337247   0.256  34.184   9.188
 2844POPC   PO437248   0.737  33.759   9.346
 2844POPC   GL137249   0.557  33.712   8.999
 2844POPC   GL237250   0.200  33.692   9.035
 2844POPC   C1A37251   0.405  33.870   8.612
 2844POPC   D2A37252   0.103  33.778   8.336
 2844POPC   C3A37253   0.393  33.844   8.026
 2844POPC   C4A37254   0.317  34.122   7.726
 2844POPC   C1B37255   0.037  33.416   8.712
 2844POPC   C2B37256  44.775  33.334   8.372
 2844POPC   C3B37257  44.939  33.392   7.984
 2844POPC   C4B37258   0.064  33.686   7.677
 2845POPC   NC337259  25.501  37.374   9.488
 2845POPC   PO437260  25.028  37.980   9.384
 2845POPC   GL137261  25.134  37.542   9.164
 2845POPC   GL237262  24.878  37.292   9.074
 2845POPC   C1A37263  25.407  37.428   8.799
 2845POPC   D2A37264  25.463  37.649   8.413
 2845POPC   C3A37265  25.426  37.479   7.997
 2845POPC   C4A37266  25.514  37.832   7.752
 2845POPC   C1B37267  24.895  37.498   8.682
 2845POPC   C2B37268  24.965  37.526   8.244
 2845POPC   C3B37269  24.991  37.771   7.855
 2845POPC   C4B37270  25.105  37.588   7.453
 2846POPC   NC337271  18.466  33.547   9.574
 2846POPC   PO437272  18.054  34.021   9.375
 2846POPC   GL137273  18.305  33.786   9.139
 2846POPC   GL237274  17.996  33.742   8.952
 2846POPC   C1A37275  18.445  33.871   8.737
 2846POPC   D2A37276  18.132  33.940   8.425
 2846POPC   C3A37277  18.424  34.014   8.113
 2846POPC   C4A37278  18.293  33.993   7.711
 2846POPC   C1B37279  17.878  33.509   8.640
 2846POPC   C2B37280  18.107  33.330   8.302
 2846POPC   C3B37281  18.164  33.559   7.958
 2846POPC   C4B37282  18.045  33.548   7.547
 2847POPC   NC337283  12.624  42.675   9.446
 2847POPC   PO437284  12.768  43.332   9.553
 2847POPC   GL137285  12.824  43.172   9.153
 2847POPC   GL237286  12.525  43.044   9.064
 2847POPC   C1A37287  12.888  43.408   8.785
 2847POPC   D2A37288  12.763  43.416   8.376
 2847POPC   C3A37289  12.885  43.142   8.099
 2847POPC   C4A37290  12.617  43.139   7.758
 2847POPC   C1B37291  12.645  42.944   8.620
 2847POPC   C2B37292  12.507  42.814   8.192
 2847POPC   C3B37293  12.400  42.690   7.755
 2847POPC   C4B37294  12.498  42.847   7.325
 2848POPC   NC337295  36.589  12.467   9.730
 2848POPC   PO437296  36.770  11.881   9.437
 2848POPC   GL137297  36.921  11.914   9.064
 2848POPC   GL237298  37.273  11.933   9.053
 2848POPC   C1A37299  36.934  12.122   8.691
 2848POPC   D2A37300  36.773  12.022   8.356
 2848POPC   C3A37301  36.831  12.275   8.049
 2848POPC   C4A37302  36.879  11.996   7.745
 2848POPC   C1B37303  37.197  11.693   8.643
 2848POPC   C2B37304  37.068  11.618   8.216
 2848POPC   C3B37305  37.327  11.646   7.856
 2848POPC   C4B37306  37.283  11.860   7.465
 2849POPC   NC337307  43.423  28.491   9.414
 2849POPC   PO437308  42.799  28.218   9.494
 2849POPC   GL137309  42.975  28.436   9.136
 2849POPC   GL237310  43.088  28.101   9.011
 2849POPC   C1A37311  43.295  28.521   8.787
 2849POPC   D2A37312  43.330  28.300   8.390
 2849POPC   C3A37313  43.143  28.484   8.025
 2849POPC   C4A37314  43.395  28.556   7.659
 2849POPC   C1B37315  42.859  28.286   8.649
 2849POPC   C2B37316  42.656  28.387   8.279
 2849POPC   C3B37317  42.692  28.200   7.871
 2849POPC   C4B37318  43.014  28.171   7.600
 2850POPC   NC337319   4.094  22.633   9.475
 2850POPC   PO437320   4.538  23.104   9.594
 2850POPC   GL137321   4.283  23.206   9.227
 2850POPC   GL237322   4.326  22.917   9.061
 2850POPC   C1A37323   4.089  23.270   8.809
 2850POPC   D2A37324   4.152  22.940   8.498
 2850POPC   C3A37325   4.162  23.038   8.071
 2850POPC   C4A37326   4.361  23.057   7.715
 2850POPC   C1B37327   4.589  23.210   8.745
 2850POPC   C2B37328   4.646  23.041   8.310
 2850POPC   C3B37329   4.547  22.671   8.026
 2850POPC   C4B37330   4.545  22.603   7.550
 2851POPC   NC337331   1.858   7.218   9.561
 2851POPC   PO437332   1.928   7.825   9.342
 2851POPC   GL137333   1.834   7.480   9.098
 2851POPC   GL237334   1.740   7.121   9.091
 2851POPC   C1A37335   1.816   7.531   8.686
 2851POPC   D2A37336   1.889   7.329   8.307
 2851POPC   C3A37337   1.850   7.597   7.957
 2851POPC   C4A37338   1.668   7.582   7.560
 2851POPC   C1B37339   2.139   7.139   8.826
 2851POPC   C2B37340   2.358   7.125   8.430
 2851POPC   C3B37341   2.230   7.085   7.992
 2851POPC   C4B37342   2.461   7.032   7.639
 2852POPC   NC337343  13.410  35.903   9.513
 2852POPC   PO437344  13.909  36.464   9.490
 2852POPC   GL137345  13.777  36.233   9.088
 2852POPC   GL237346  13.426  36.210   9.086
 2852POPC   C1A37347  13.643  36.260   8.609
 2852POPC   D2A37348  13.710  36.023   8.215
 2852POPC   C3A37349  13.777  36.196   7.807
 2852POPC   C4A37350  13.907  36.028   7.395
 2852POPC   C1B37351  13.183  36.111   8.746
 2852POPC   C2B37352  13.227  35.995   8.340
 2852POPC   C3B37353  13.240  36.052   7.921
 2852POPC   C4B37354  13.459  35.878   7.580
 2853POPC   NC337355  14.330  36.268   9.515
 2853POPC   PO437356  14.763  35.821   9.832
 2853POPC   GL137357  14.602  35.865   9.365
 2853POPC   GL237358  14.806  35.732   9.157
 2853POPC   C1A37359  14.329  35.952   8.953
 2853POPC   D2A37360  14.109  36.076   8.550
 2853POPC   C3A37361  14.203  36.127   8.076
 2853POPC   C4A37362  14.340  36.141   7.618
 2853POPC   C1B37363  14.648  35.597   8.770
 2853POPC   C2B37364  14.510  35.795   8.405
 2853POPC   C3B37365  14.463  35.711   7.975
 2853POPC   C4B37366  14.706  35.742   7.659
 2854POPC   NC337367  14.072  36.901   9.443
 2854POPC   PO437368  14.655  36.556   9.397
 2854POPC   GL137369  14.353  36.643   9.058
 2854POPC   GL237370  14.156  36.971   8.956
 2854POPC   C1A37371  14.438  36.747   8.595
 2854POPC   D2A37372  14.372  36.900   8.173
 2854POPC   C3A37373  14.408  36.585   7.877
 2854POPC   C4A37374  14.570  36.599   7.453
 2854POPC   C1B37375  13.975  36.612   8.731
 2854POPC   C2B37376  14.015  36.531   8.327
 2854POPC   C3B37377  13.908  36.718   7.976
 2854POPC   C4B37378  13.987  36.599   7.578
 2855POPC   NC337379   4.425  44.175   9.480
 2855POPC   PO437380   4.115  43.578   9.428
 2855POPC   GL137381   4.272  43.542   9.045
 2855POPC   GL237382   4.555  43.738   9.080
 2855POPC   C1A37383   4.312  43.684   8.624
 2855POPC   D2A37384   4.418  43.810   8.218
 2855POPC   C3A37385   4.077  43.922   7.978
 2855POPC   C4A37386   3.987  44.250   7.709
 2855POPC   C1B37387   4.582  44.108   8.802
 2855POPC   C2B37388   4.409  44.296   8.403
 2855POPC   C3B37389   4.479  44.247   7.964
 2855POPC   C4B37390   4.729  44.201   7.622
 2856POPC   NC337391   4.445  21.699   9.542
 2856POPC   PO437392   3.951  21.321   9.382
 2856POPC   GL137393   4.344  21.399   9.130
 2856POPC   GL237394   4.150  21.627   8.980
 2856POPC   C1A37395   4.614  21.332   8.725
 2856POPC   D2A37396   4.497  21.019   8.374
 2856POPC   C3A37397   4.431  21.145   7.937
 2856POPC   C4A37398   4.547  21.564   7.831
 2856POPC   C1B37399   4.106  21.351   8.648
 2856POPC   C2B37400   4.251  21.516   8.272
 2856POPC   C3B37401   4.033  21.568   7.898
 2856POPC   C4B37402   4.145  21.335   7.526
 2857POPC   NC337403   9.795   5.498   9.448
 2857POPC   PO437404   9.371   6.062   9.497
 2857POPC   GL137405   9.589   5.892   9.175
 2857POPC   GL237406   9.395   5.604   9.140
 2857POPC   C1A37407   9.713   5.977   8.756
 2857POPC   D2A37408   9.545   6.153   8.378
 2857POPC   C3A37409   9.802   6.048   8.047
 2857POPC   C4A37410   9.949   5.775   7.711
 2857POPC   C1B37411   9.261   5.725   8.753
 2857POPC   C2B37412   9.459   5.647   8.392
 2857POPC   C3B37413   9.326   5.771   8.020
 2857POPC   C4B37414   9.446   6.001   7.687
 2858POPC   NC337415  28.012   4.427   9.615
 2858POPC   PO437416  27.326   4.510   9.603
 2858POPC   GL137417  27.449   4.267   9.227
 2858POPC   GL237418  27.813   4.188   9.129
 2858POPC   C1A37419  27.355   4.222   8.802
 2858POPC   D2A37420  27.654   4.140   8.549
 2858POPC   C3A37421  27.611   4.183   8.129
 2858POPC   C4A37422  27.240   4.220   7.885
 2858POPC   C1B37423  27.734   4.573   8.855
 2858POPC   C2B37424  27.610   4.675   8.414
 2858POPC   C3B37425  27.813   4.665   8.002
 2858POPC   C4B37426  27.659   4.419   7.655
 2859POPC   NC337427   1.611   3.148   9.505
 2859POPC   PO437428   1.209   3.715   9.555
 2859POPC   GL137429   1.258   3.749   9.132
 2859POPC   GL237430   1.130   3.418   9.099
 2859POPC   C1A37431   1.050   3.743   8.713
 2859POPC   D2A37432   1.252   3.623   8.339
 2859POPC   C3A37433   1.070   3.703   7.951
 2859POPC   C4A37434   0.813   3.527   7.622
 2859POPC   C1B37435   1.296   3.241   8.733
 2859POPC   C2B37436   1.441   3.122   8.347
 2859POPC   C3B37437   1.253   3.226   7.947
 2859POPC   C4B37438   1.176   3.182   7.519
 2860POPC   NC337439   3.154  41.301   9.622
 2860POPC   PO437440   3.717  41.644   9.466
 2860POPC   GL137441   3.526  41.559   9.100
 2860POPC   GL237442   3.400  41.259   9.184
 2860POPC   C1A37443   3.684  41.782   8.762
 2860POPC   D2A37444   3.989  41.930   8.474
 2860POPC   C3A37445   3.779  41.815   8.132
 2860POPC   C4A37446   3.784  41.611   7.759
 2860POPC   C1B37447   3.284  41.245   8.775
 2860POPC   C2B37448   3.451  41.482   8.419
 2860POPC   C3B37449   3.311  41.608   8.017
 2860POPC   C4B37450   3.262  41.348   7.683
 2861POPC   NC337451  22.717  30.647   9.596
 2861POPC   PO437452  23.344  30.847   9.487
 2861POPC   GL137453  23.042  30.723   9.176
 2861POPC   GL237454  22.742  30.949   9.183
 2861POPC   C1A37455  23.072  30.819   8.751
 2861POPC   D2A37456  23.133  31.078   8.406
 2861POPC   C3A37457  23.046  30.774   8.093
 2861POPC   C4A37458  23.188  30.618   7.713
 2861POPC   C1B37459  22.585  30.683   8.878
 2861POPC   C2B37460  22.668  30.611   8.447
 2861POPC   C3B37461  22.519  30.364   8.112
 2861POPC   C4B37462  22.670  30.567   7.752
 2862POPC   NC337463  31.109  35.343   9.439
 2862POPC   PO437464  31.555  35.740   9.758
 2862POPC   GL137465  31.611  35.488   9.288
 2862POPC   GL237466  31.331  35.408   9.012
 2862POPC   C1A37467  31.763  35.526   8.804
 2862POPC   D2A37468  31.470  35.654   8.486
 2862POPC   C3A37469  31.623  35.638   8.068
 2862POPC   C4A37470  31.647  35.344   7.739
 2862POPC   C1B37471  31.408  35.135   8.679
 2862POPC   C2B37472  31.435  35.178   8.240
 2862POPC   C3B37473  31.386  34.919   7.894
 2862POPC   C4B37474  31.176  35.049   7.504
 2863POPC   NC337475   4.961  26.544   9.600
 2863POPC   PO437476   5.501  26.975   9.397
 2863POPC   GL137477   5.273  26.802   9.075
 2863POPC   GL237478   5.162  26.481   9.130
 2863POPC   C1A37479   5.036  26.827   8.698
 2863POPC   D2A37480   4.955  27.143   8.369
 2863POPC   C3A37481   4.951  26.927   7.988
 2863POPC   C4A37482   5.357  26.873   7.825
 2863POPC   C1B37483   4.914  26.339   8.771
 2863POPC   C2B37484   4.972  26.448   8.338
 2863POPC   C3B37485   4.706  26.453   7.975
 2863POPC   C4B37486   4.738  26.516   7.540
 2864POPC   NC337487  13.386  28.000   9.281
 2864POPC   PO437488  13.795  27.356   9.342
 2864POPC   GL137489  13.570  27.563   9.073
 2864POPC   GL237490  13.240  27.401   9.177
 2864POPC   C1A37491  13.645  27.738   8.639
 2864POPC   D2A37492  13.496  27.704   8.196
 2864POPC   C3A37493  13.793  27.499   7.917
 2864POPC   C4A37494  14.069  27.142   7.821
 2864POPC   C1B37495  13.273  27.370   8.734
 2864POPC   C2B37496  13.062  27.366   8.399
 2864POPC   C3B37497  13.138  27.336   8.024
 2864POPC   C4B37498  13.323  27.518   7.708
 2865POPC   NC337499   0.220   7.672   9.341
 2865POPC   PO437500   0.728   7.244   9.545
 2865POPC   GL137501   0.555   7.340   9.130
 2865POPC   GL237502   0.184   7.278   9.051
 2865POPC   C1A37503   0.524   7.482   8.698
 2865POPC   D2A37504   0.704   7.266   8.341
 2865POPC   C3A37505   0.525   7.207   7.928
 2865POPC   C4A37506   0.482   7.582   7.705
 2865POPC   C1B37507   0.023   7.461   8.662
 2865POPC   C2B37508   0.219   7.554   8.273
 2865POPC   C3B37509   0.030   7.413   7.924
 2865POPC   C4B37510   0.084   7.266   7.552
 2866POPC   NC337511  34.210   6.086   9.821
 2866POPC   PO437512  33.701   6.561   9.810
 2866POPC   GL137513  33.680   6.510   9.284
 2866POPC   GL237514  33.987   6.595   9.086
 2866POPC   C1A37515  33.575   6.643   8.808
 2866POPC   D2A37516  33.750   6.803   8.419
 2866POPC   C3A37517  33.526   6.696   8.025
 2866POPC   C4A37518  33.620   6.638   7.585
 2866POPC   C1B37519  34.214   6.600   8.680
 2866POPC   C2B37520  34.175   6.549   8.243
 2866POPC   C3B37521  34.003   6.710   7.914
 2866POPC   C4B37522  34.042   7.030   7.641
 2867POPC   NC337523  27.066  41.295   9.685
 2867POPC   PO437524  27.739  41.479   9.548
 2867POPC   GL137525  27.631  41.539   9.117
 2867POPC   GL237526  27.291  41.419   9.139
 2867POPC   C1A37527  27.757  41.852   8.800
 2867POPC   D2A37528  27.972  41.868   8.393
 2867POPC   C3A37529  27.850  41.510   8.140
 2867POPC   C4A37530  27.680  41.467   7.744
 2867POPC   C1B37531  27.264  41.620   8.739
 2867POPC   C2B37532  27.452  41.781   8.375
 2867POPC   C3B37533  27.383  41.824   7.966
 2867POPC   C4B37534  27.033  41.865   7.714
 2868POPC   NC337535   3.883  21.858   9.338
 2868POPC   PO437536   4.461  22.157   9.586
 2868POPC   GL137537   4.324  22.085   9.164
 2868POPC   GL237538   4.241  22.411   9.009
 2868POPC   C1A37539   4.326  22.003   8.707
 2868POPC   D2A37540   4.399  22.293   8.391
 2868POPC   C3A37541   4.389  22.000   8.081
 2868POPC   C4A37542   4.435  22.131   7.702
 2868POPC   C1B37543   3.947  22.344   8.654
 2868POPC   C2B37544   3.900  22.045   8.302
 2868POPC   C3B37545   3.929  22.182   7.881
 2868POPC   C4B37546   4.092  22.613   7.777
 2869POPC   NC337547  39.297  27.251   9.474
 2869POPC   PO437548  39.114  27.966   9.574
 2869POPC   GL137549  39.209  27.699   9.235
 2869POPC   GL237550  39.095  27.889   8.986
 2869POPC   C1A37551  39.420  27.538   8.846
 2869POPC   D2A37552  39.507  27.800   8.490
 2869POPC   C3A37553  39.297  27.626   8.151
 2869POPC   C4A37554  39.341  27.727   7.746
 2869POPC   C1B37555  38.988  27.747   8.592
 2869POPC   C2B37556  38.798  27.600   8.216
 2869POPC   C3B37557  38.845  27.870   7.811
 2869POPC   C4B37558  39.077  27.970   7.383
 2870POPC   NC337559  22.361  21.024   9.809
 2870POPC   PO437560  22.039  20.489   9.547
 2870POPC   GL137561  21.977  20.733   9.201
 2870POPC   GL237562  22.288  20.555   9.090
 2870POPC   C1A37563  21.916  20.753   8.756
 2870POPC   D2A37564  22.088  20.638   8.374
 2870POPC   C3A37565  21.933  20.778   8.009
 2870POPC   C4A37566  21.742  20.552   7.697
 2870POPC   C1B37567  22.503  20.688   8.720
 2870POPC   C2B37568  22.597  20.640   8.325
 2870POPC   C3B37569  22.458  20.748   7.938
 2870POPC   C4B37570  22.665  21.060   7.719
 2871POPC   NC337571  39.370  43.498   9.422
 2871POPC   PO437572  39.103  44.131   9.361
 2871POPC   GL137573  39.423  44.021   9.053
 2871POPC   GL237574  39.552  43.709   9.003
 2871POPC   C1A37575  39.581  44.174   8.676
 2871POPC   D2A37576  39.404  44.088   8.290
 2871POPC   C3A37577  39.487  44.206   7.881
 2871POPC   C4A37578  39.155  44.012   7.684
 2871POPC   C1B37579  39.380  43.680   8.628
 2871POPC   C2B37580  39.202  43.603   8.230
 2871POPC   C3B37581  39.516  43.694   7.981
 2871POPC   C4B37582  39.582  43.764   7.608
 2872POPC   NC337583  43.720  34.141   9.361
 2872POPC   PO437584  44.192  34.635   9.500
 2872POPC   GL137585  43.996  34.515   9.126
 2872POPC   GL237586  44.129  34.192   9.024
 2872POPC   C1A37587  44.056  34.646   8.708
 2872POPC   D2A37588  44.111  34.406   8.341
 2872POPC   C3A37589  43.879  34.426   7.984
 2872POPC   C4A37590  44.092  34.347   7.623
 2872POPC   C1B37591  43.768  34.224   8.700
 2872POPC   C2B37592  43.611  34.573   8.415
 2872POPC   C3B37593  43.571  34.827   8.018
 2872POPC   C4B37594  43.764  34.771   7.604
 2873POPC   NC337595  17.631  15.987   9.841
 2873POPC   PO437596  17.108  15.586   9.631
 2873POPC   GL137597  17.289  15.753   9.210
 2873POPC   GL237598  17.603  15.948   9.021
 2873POPC   C1A37599  17.178  15.861   8.783
 2873POPC   D2A37600  17.466  15.865   8.513
 2873POPC   C3A37601  17.476  15.972   8.103
 2873POPC   C4A37602  17.801  15.776   7.896
 2873POPC   C1B37603  17.773  16.255   8.730
 2873POPC   C2B37604  17.670  16.440   8.345
 2873POPC   C3B37605  17.739  16.391   7.909
 2873POPC   C4B37606  17.374  16.270   7.655
 2874POPC   NC337607   1.892   2.231   9.305
 2874POPC   PO437608   2.332   1.757   9.491
 2874POPC   GL137609   2.041   1.763   9.120
 2874POPC   GL237610   1.678   1.669   9.099
 2874POPC   C1A37611   2.005   1.966   8.720
 2874POPC   D2A37612   2.227   2.179   8.427
 2874POPC   C3A37613   2.084   2.171   8.044
 2874POPC   C4A37614   2.244   1.969   7.710
 2874POPC   C1B37615   1.541   1.755   8.646
 2874POPC   C2B37616   1.686   1.945   8.270
 2874POPC   C3B37617   1.733   1.875   7.804
 2874POPC   C4B37618   1.891   1.604   7.465
 2875POPC   NC337619  18.061  18.353   9.480
 2875POPC   PO437620  18.655  18.474   9.414
 2875POPC   GL137621  18.393  18.367   9.089
 2875POPC   GL237622  18.144  18.091   9.061
 2875POPC   C1A37623  18.217  18.447   8.695
 2875POPC   D2A37624  18.299  18.216   8.313
 2875POPC   C3A37625  18.208  18.432   7.966
 2875POPC   C4A37626  18.340  18.408   7.559
 2875POPC   C1B37627  17.991  17.980   8.657
 2875POPC   C2B37628  17.967  17.788   8.238
 2875POPC   C3B37629  17.880  18.004   7.864
 2875POPC   C4B37630  17.941  18.125   7.450
 2876POPC   NC337631   2.211   4.777   9.504
 2876POPC   PO437632   1.630   5.179   9.404
 2876POPC   GL137633   1.897   4.939   9.121
 2876POPC   GL237634   2.231   5.096   9.079
 2876POPC   C1A37635   2.038   4.837   8.700
 2876POPC   D2A37636   1.950   5.046   8.349
 2876POPC   C3A37637   1.890   4.892   7.955
 2876POPC   C4A37638   1.595   4.741   7.667
 2876POPC   C1B37639   2.334   5.305   8.641
 2876POPC   C2B37640   2.327   5.328   8.140
 2876POPC   C3B37641   2.359   4.998   7.767
 2876POPC   C4B37642   2.403   5.162   7.336
 2877POPC   NC337643  40.597   2.122   9.592
 2877POPC   PO437644  41.005   1.678   9.367
 2877POPC   GL137645  40.706   1.806   9.101
 2877POPC   GL237646  40.860   2.116   9.085
 2877POPC   C1A37647  40.779   1.849   8.660
 2877POPC   D2A37648  40.924   2.164   8.395
 2877POPC   C3A37649  40.887   1.964   8.009
 2877POPC   C4A37650  40.897   1.753   7.626
 2877POPC   C1B37651  40.476   2.200   8.840
 2877POPC   C2B37652  40.403   2.303   8.443
 2877POPC   C3B37653  40.602   2.394   8.055
 2877POPC   C4B37654  40.579   2.169   7.674
 2878POPC   NC337655  41.878  38.156   9.580
 2878POPC   PO437656  41.299  38.555   9.629
 2878POPC   GL137657  41.618  38.633   9.237
 2878POPC   GL237658  41.408  38.637   8.915
 2878POPC   C1A37659  41.879  38.517   8.819
 2878POPC   D2A37660  41.629  38.571   8.420
 2878POPC   C3A37661  41.755  38.746   8.026
 2878POPC   C4A37662  41.792  38.633   7.552
 2878POPC   C1B37663  41.180  38.269   8.734
 2878POPC   C2B37664  41.150  38.065   8.318
 2878POPC   C3B37665  41.057  38.270   7.951
 2878POPC   C4B37666  41.449  38.397   7.846
 2879POPC   NC337667   8.546  30.804   9.380
 2879POPC   PO437668   9.146  30.526   9.579
 2879POPC   GL137669   8.992  30.594   9.122
 2879POPC   GL237670   8.871  30.917   9.004
 2879POPC   C1A37671   8.720  30.562   8.696
 2879POPC   D2A37672   8.881  30.492   8.260
 2879POPC   C3A37673   9.084  30.787   7.975
 2879POPC   C4A37674   8.945  30.935   7.538
 2879POPC   C1B37675   9.186  30.746   8.665
 2879POPC   C2B37676   9.486  30.972   8.438
 2879POPC   C3B37677   9.425  31.156   8.055
 2879POPC   C4B37678   9.435  31.006   7.650
 2880POPC   NC337679  28.848   8.215   9.611
 2880POPC   PO437680  29.351   7.861   9.333
 2880POPC   GL137681  29.225   8.136   9.038
 2880POPC   GL237682  29.380   8.438   9.053
 2880POPC   C1A37683  28.938   8.393   8.792
 2880POPC   D2A37684  29.081   8.464   8.383
 2880POPC   C3A37685  29.225   8.108   8.176
 2880POPC   C4A37686  29.083   7.824   7.849
 2880POPC   C1B37687  29.657   8.491   8.746
 2880POPC   C2B37688  29.653   8.702   8.359
 2880POPC   C3B37689  29.611   8.439   8.039
 2880POPC   C4B37690  29.381   8.244   7.717
 2881POPC   NC337691  39.255  10.644   9.446
 2881POPC   PO437692  39.236   9.964   9.476
 2881POPC   GL137693  39.249  10.229   9.110
 2881POPC   GL237694  38.998  10.484   9.019
 2881POPC   C1A37695  39.411  10.413   8.708
 2881POPC   D2A37696  39.210  10.525   8.305
 2881POPC   C3A37697  39.425  10.443   7.906
 2881POPC   C4A37698  39.113  10.431   7.603
 2881POPC   C1B37699  39.069  10.838   8.724
 2881POPC   C2B37700  39.255  11.039   8.319
 2881POPC   C3B37701  39.101  10.876   7.897
 2881POPC   C4B37702  38.799  10.836   7.529
 2882POPC   NC337703   0.988  32.360   9.599
 2882POPC   PO437704   1.222  31.842   9.958
 2882POPC   GL137705   1.218  31.993   9.383
 2882POPC   GL237706   0.977  31.838   9.137
 2882POPC   C1A37707   1.209  32.301   8.960
 2882POPC   D2A37708   1.414  32.288   8.492
 2882POPC   C3A37709   1.194  32.149   8.103
 2882POPC   C4A37710   1.186  32.273   7.661
 2882POPC   C1B37711   0.883  31.997   8.703
 2882POPC   C2B37712   0.916  32.428   8.514
 2882POPC   C3B37713   0.887  32.555   8.093
 2882POPC   C4B37714   0.704  32.461   7.706
 2883POPC   NC337715  34.419   2.617   9.295
 2883POPC   PO437716  34.896   2.984   9.611
 2883POPC   GL137717  34.848   2.939   9.107
 2883POPC   GL237718  34.523   2.898   8.882
 2883POPC   C1A37719  34.909   3.043   8.616
 2883POPC   D2A37720  34.595   2.798   8.367
 2883POPC   C3A37721  34.652   2.730   7.959
 2883POPC   C4A37722  34.477   3.054   7.757
 2883POPC   C1B37723  34.696   2.473   8.746
 2883POPC   C2B37724  34.556   2.251   8.367
 2883POPC   C3B37725  34.186   2.310   8.125
 2883POPC   C4B37726  34.145   2.626   7.795
 2884POPC   NC337727  17.262  22.878   9.465
 2884POPC   PO437728  17.876  23.145   9.469
 2884POPC   GL137729  17.865  23.144   9.045
 2884POPC   GL237730  17.600  22.890   9.045
 2884POPC   C1A37731  17.779  23.034   8.597
 2884POPC   D2A37732  17.358  22.881   8.484
 2884POPC   C3A37733  17.249  22.712   8.077
 2884POPC   C4A37734  17.344  22.946   7.704
 2884POPC   C1B37735  17.739  22.551   8.768
 2884POPC   C2B37736  17.779  22.540   8.375
 2884POPC   C3B37737  17.746  22.836   8.044
 2884POPC   C4B37738  17.789  22.715   7.598
 2885POPC   NC337739   4.135  41.474   9.529
 2885POPC   PO437740   4.756  41.311   9.379
 2885POPC   GL137741   4.421  41.323   9.093
 2885POPC   GL237742   4.148  41.071   9.162
 2885POPC   C1A37743   4.353  41.620   8.743
 2885POPC   D2A37744   4.501  41.725   8.321
 2885POPC   C3A37745   4.268  41.545   7.961
 2885POPC   C4A37746   4.399  41.200   7.679
 2885POPC   C1B37747   3.929  41.319   8.856
 2885POPC   C2B37748   3.984  41.410   8.428
 2885POPC   C3B37749   3.794  41.237   8.092
 2885POPC   C4B37750   3.905  41.078   7.735
 2886POPC   NC337751  10.482  12.113   9.627
 2886POPC   PO437752  10.987  12.453   9.305
 2886POPC   GL137753  10.761  12.088   9.198
 2886POPC   GL237754  10.395  12.098   9.145
 2886POPC   C1A37755  10.804  11.965   8.801
 2886POPC   D2A37756  10.934  12.096   8.388
 2886POPC   C3A37757  10.635  12.276   8.107
 2886POPC   C4A37758  10.585  12.127   7.708
 2886POPC   C1B37759  10.272  11.878   8.828
 2886POPC   C2B37760  10.418  11.970   8.446
 2886POPC   C3B37761  10.253  11.942   8.063
 2886POPC   C4B37762  10.141  11.879   7.688
 2887POPC   NC337763  32.717   6.668   9.326
 2887POPC   PO437764  32.048   6.759   9.330
 2887POPC   GL137765  32.272   6.467   9.089
 2887POPC   GL237766  32.545   6.627   8.859
 2887POPC   C1A37767  32.196   6.314   8.691
 2887POPC   D2A37768  32.493   6.369   8.380
 2887POPC   C3A37769  32.268   6.356   8.034
 2887POPC   C4A37770  31.989   6.310   7.730
 2887POPC   C1B37771  32.304   6.989   8.773
 2887POPC   C2B37772  32.168   7.151   8.395
 2887POPC   C3B37773  32.068   6.920   8.034
 2887POPC   C4B37774  32.261   6.725   7.679
 2888POPC   NC337775  15.930  32.626   9.358
 2888POPC   PO437776  16.172  32.123   9.855
 2888POPC   GL137777  16.173  32.193   9.344
 2888POPC   GL237778  16.424  32.478   9.233
 2888POPC   C1A37779  16.173  32.139   8.836
 2888POPC   D2A37780  15.936  31.977   8.456
 2888POPC   C3A37781  15.767  32.211   8.086
 2888POPC   C4A37782  15.818  32.133   7.638
 2888POPC   C1B37783  16.338  32.636   8.797
 2888POPC   C2B37784  16.113  32.494   8.428
 2888POPC   C3B37785  16.255  32.360   8.035
 2888POPC   C4B37786  16.164  32.494   7.632
 2889POPC   NC337787  22.403  17.404   9.627
 2889POPC   PO437788  21.831  17.688   9.631
 2889POPC   GL137789  22.061  17.612   9.283
 2889POPC   GL237790  21.879  17.822   9.061
 2889POPC   C1A37791  22.281  17.484   8.917
 2889POPC   D2A37792  22.144  17.500   8.502
 2889POPC   C3A37793  22.323  17.556   8.099
 2889POPC   C4A37794  22.093  17.788   7.833
 2889POPC   C1B37795  21.781  17.393   8.873
 2889POPC   C2B37796  21.735  17.184   8.453
 2889POPC   C3B37797  21.855  17.360   8.059
 2889POPC   C4B37798  21.973  17.352   7.596
 2890POPC   NC337799   5.672   9.028   9.941
 2890POPC   PO437800   6.185   8.953   9.608
 2890POPC   GL137801   6.005   8.881   9.209
 2890POPC   GL237802   5.685   8.749   9.271
 2890POPC   C1A37803   6.051   9.030   8.775
 2890POPC   D2A37804   6.067   8.865   8.340
 2890POPC   C3A37805   5.995   9.087   7.933
 2890POPC   C4A37806   6.105   8.946   7.487
 2890POPC   C1B37807   5.750   8.636   8.840
 2890POPC   C2B37808   5.630   8.635   8.456
 2890POPC   C3B37809   5.544   8.693   8.052
 2890POPC   C4B37810   5.473   9.107   7.895
 2891POPC   NC337811   7.193  19.569   9.375
 2891POPC   PO437812   7.283  18.945   9.615
 2891POPC   GL137813   7.474  19.148   9.217
 2891POPC   GL237814   7.382  18.924   8.992
 2891POPC   C1A37815   7.382  19.381   8.770
 2891POPC   D2A37816   7.279  19.562   8.357
 2891POPC   C3A37817   7.230  19.306   7.950
 2891POPC   C4A37818   7.421  19.090   7.564
 2891POPC   C1B37819   7.138  18.910   8.665
 2891POPC   C2B37820   7.405  19.029   8.344
 2891POPC   C3B37821   7.441  18.804   7.970
 2891POPC   C4B37822   7.693  18.486   7.792
 2892POPC   NC337823  37.882  21.899   9.566
 2892POPC   PO437824  37.380  21.339   9.517
 2892POPC   GL137825  37.645  21.528   9.223
 2892POPC   GL237826  37.860  21.285   9.061
 2892POPC   C1A37827  37.658  21.705   8.811
 2892POPC   D2A37828  37.899  21.748   8.436
 2892POPC   C3A37829  37.667  21.583   8.076
 2892POPC   C4A37830  37.602  21.304   7.718
 2892POPC   C1B37831  37.970  21.310   8.657
 2892POPC   C2B37832  38.112  21.288   8.244
 2892POPC   C3B37833  38.002  20.985   7.917
 2892POPC   C4B37834  38.109  20.985   7.452
 2893POPC   NC337835   9.719   1.465   9.524
 2893POPC   PO437836   9.309   0.844   9.368
 2893POPC   GL137837   9.672   1.056   9.119
 2893POPC   GL237838   9.835   1.403   9.037
 2893POPC   C1A37839   9.926   0.875   8.779
 2893POPC   D2A37840  10.018   0.792   8.361
 2893POPC   C3A37841   9.793   1.079   8.151
 2893POPC   C4A37842   9.855   1.417   7.864
 2893POPC   C1B37843   9.648   1.309   8.625
 2893POPC   C2B37844   9.474   1.468   8.226
 2893POPC   C3B37845   9.384   1.631   7.803
 2893POPC   C4B37846   9.399   1.598   7.338
 2894POPC   NC337847  21.635  35.495   9.439
 2894POPC   PO437848  21.066  35.861   9.434
 2894POPC   GL137849  21.217  35.597   9.097
 2894POPC   GL237850  21.244  35.224   9.165
 2894POPC   C1A37851  21.445  35.627   8.701
 2894POPC   D2A37852  21.699  35.754   8.331
 2894POPC   C3A37853  21.479  35.630   7.995
 2894POPC   C4A37854  21.674  35.617   7.607
 2894POPC   C1B37855  21.553  35.156   8.846
 2894POPC   C2B37856  21.686  35.239   8.436
 2894POPC   C3B37857  21.572  35.138   8.031
 2894POPC   C4B37858  21.297  35.274   7.669
 2895POPC   NC337859  19.669  38.806   9.367
 2895POPC   PO437860  19.629  39.459   9.546
 2895POPC   GL137861  19.803  39.263   9.197
 2895POPC   GL237862  20.058  39.462   9.189
 2895POPC   C1A37863  19.865  39.078   8.788
 2895POPC   D2A37864  19.698  39.154   8.390
 2895POPC   C3A37865  19.706  39.313   7.989
 2895POPC   C4A37866  19.342  39.105   7.850
 2895POPC   C1B37867  20.228  39.423   8.786
 2895POPC   C2B37868  20.216  39.270   8.357
 2895POPC   C3B37869  20.203  39.446   7.916
 2895POPC   C4B37870  20.044  39.484   7.469
 2896POPC   NC337871  42.885  31.014   9.432
 2896POPC   PO437872  42.881  30.352   9.524
 2896POPC   GL137873  42.982  30.568   9.173
 2896POPC   GL237874  43.343  30.588   9.150
 2896POPC   C1A37875  42.845  30.803   8.816
 2896POPC   D2A37876  43.013  30.770   8.454
 2896POPC   C3A37877  42.775  30.779   8.115
 2896POPC   C4A37878  42.884  30.856   7.717
 2896POPC   C1B37879  43.345  30.984   8.886
 2896POPC   C2B37880  43.415  31.079   8.443
 2896POPC   C3B37881  43.304  30.891   8.035
 2896POPC   C4B37882  43.400  30.779   7.600
 2897POPC   NC337883   2.205   0.571   9.559
 2897POPC   PO437884   1.761   0.086   9.517
 2897POPC   GL137885   1.909   0.361   9.166
 2897POPC   GL237886   2.111   0.685   9.085
 2897POPC   C1A37887   1.782   0.447   8.772
 2897POPC   D2A37888   1.970   0.560   8.390
 2897POPC   C3A37889   1.764   0.396   8.038
 2897POPC   C4A37890   1.849   0.209   7.679
 2897POPC   C1B37891   2.403   0.780   8.738
 2897POPC   C2B37892   2.472   0.623   8.332
 2897POPC   C3B37893   2.205   0.697   7.958
 2897POPC   C4B37894   2.223   0.514   7.598
 2898POPC   NC337895   7.665  20.375   9.173
 2898POPC   PO437896   7.419  20.967   9.585
 2898POPC   GL137897   7.336  20.974   9.155
 2898POPC   GL237898   7.237  20.652   9.205
 2898POPC   C1A37899   7.466  20.925   8.689
 2898POPC   D2A37900   7.552  20.595   8.389
 2898POPC   C3A37901   7.540  20.742   7.972
 2898POPC   C4A37902   7.583  20.398   7.693
 2898POPC   C1B37903   7.098  20.613   8.801
 2898POPC   C2B37904   6.985  20.523   8.379
 2898POPC   C3B37905   7.167  20.382   8.033
 2898POPC   C4B37906   7.088  20.534   7.666
 2899POPC   NC337907  37.426  39.190   9.241
 2899POPC   PO437908  37.915  39.378   9.727
 2899POPC   GL137909  37.935  39.175   9.177
 2899POPC   GL237910  37.956  39.400   8.897
 2899POPC   C1A37911  37.811  38.965   8.720
 2899POPC   D2A37912  37.565  39.011   8.288
 2899POPC   C3A37913  37.807  39.151   7.889
 2899POPC   C4A37914  37.683  39.087   7.423
 2899POPC   C1B37915  37.553  39.428   8.644
 2899POPC   C2B37916  37.472  39.749   8.373
 2899POPC   C3B37917  37.540  39.616   8.007
 2899POPC   C4B37918  37.697  39.570   7.578
 2900POPC   NC337919  13.448  44.901   9.623
 2900POPC   PO437920  13.850  44.390   9.515
 2900POPC   GL137921  13.651  44.363   9.134
 2900POPC   GL237922  13.413  44.562   9.184
 2900POPC   C1A37923  13.422  44.256   8.758
 2900POPC   D2A37924  13.535  44.423   8.356
 2900POPC   C3A37925  13.714  44.254   7.999
 2900POPC   C4A37926  13.695  44.441   7.583
 2900POPC   C1B37927  13.551  44.752   8.791
 2900POPC   C2B37928  13.457  44.914   8.396
 2900POPC   C3B37929  13.659  44.815   8.019
 2900POPC   C4B37930  13.474  44.877   7.646
 2901POPC   NC337931  10.608  41.124   9.567
 2901POPC   PO437932  10.202  40.645   9.346
 2901POPC   GL137933  10.555  40.790   9.123
 2901POPC   GL237934  10.405  41.102   9.098
 2901POPC   C1A37935  10.639  40.915   8.678
 2901POPC   D2A37936  10.819  41.096   8.297
 2901POPC   C3A37937  10.640  40.900   7.969
 2901POPC   C4A37938  10.328  40.624   7.887
 2901POPC   C1B37939  10.123  41.006   8.797
 2901POPC   C2B37940  10.180  40.854   8.408
 2901POPC   C3B37941  10.147  41.076   8.076
 2901POPC   C4B37942  10.010  40.980   7.698
 2902POPC   NC337943  27.683  43.720   9.603
 2902POPC   PO437944  27.165  43.586   9.380
 2902POPC   GL137945  27.528  43.533   9.125
 2902POPC   GL237946  27.903  43.498   9.209
 2902POPC   C1A37947  27.444  43.691   8.716
 2902POPC   D2A37948  27.402  44.101   8.461
 2902POPC   C3A37949  27.604  44.251   8.037
 2902POPC   C4A37950  27.456  44.308   7.560
 2902POPC   C1B37951  27.933  43.814   8.877
 2902POPC   C2B37952  27.841  43.808   8.435
 2902POPC   C3B37953  27.943  43.785   8.025
 2902POPC   C4B37954  27.842  43.994   7.676
 2903POPC   NC337955  40.742  30.266   9.383
 2903POPC   PO437956  40.679  29.661   9.531
 2903POPC   GL137957  40.673  29.813   9.131
 2903POPC   GL237958  41.005  29.742   9.077
 2903POPC   C1A37959  40.594  29.664   8.713
 2903POPC   D2A37960  40.393  29.849   8.363
 2903POPC   C3A37961  40.513  29.688   7.976
 2903POPC   C4A37962  40.578  29.987   7.639
 2903POPC   C1B37963  40.915  30.055   8.734
 2903POPC   C2B37964  40.912  29.904   8.325
 2903POPC   C3B37965  40.991  29.843   7.913
 2903POPC   C4B37966  41.021  29.799   7.464
 2904POPC   NC337967  28.692  40.330   9.499
 2904POPC   PO437968  28.065  40.080   9.456
 2904POPC   GL137969  28.370  40.201   9.118
 2904POPC   GL237970  28.709  40.076   9.061
 2904POPC   C1A37971  28.469  40.359   8.705
 2904POPC   D2A37972  28.227  40.342   8.371
 2904POPC   C3A37973  28.371  40.017   8.158
 2904POPC   C4A37974  28.354  39.974   7.726
 2904POPC   C1B37975  28.509  39.813   8.748
 2904POPC   C2B37976  28.692  39.599   8.380
 2904POPC   C3B37977  28.652  39.635   7.947
 2904POPC   C4B37978  28.784  39.750   7.508
 2905POPC   NC337979  34.221  20.679   9.380
 2905POPC   PO437980  34.746  20.193   9.578
 2905POPC   GL137981  34.774  20.255   9.128
 2905POPC   GL237982  34.659  20.605   9.122
 2905POPC   C1A37983  34.898  20.386   8.711
 2905POPC   D2A37984  34.528  20.551   8.529
 2905POPC   C3A37985  34.490  20.558   8.077
 2905POPC   C4A37986  34.867  20.515   7.847
 2905POPC   C1B37987  34.746  20.931   8.802
 2905POPC   C2B37988  34.547  21.030   8.409
 2905POPC   C3B37989  34.662  21.026   8.011
 2905POPC   C4B37990  34.253  21.019   7.846
 2906POPC   NC337991  42.788  38.158   9.444
 2906POPC   PO437992  42.193  38.500   9.563
 2906POPC   GL137993  42.319  38.588   9.160
 2906POPC   GL237994  42.094  38.846   9.132
 2906POPC   C1A37995  42.454  38.449   8.759
 2906POPC   D2A37996  42.642  38.359   8.357
 2906POPC   C3A37997  42.525  38.616   8.013
 2906POPC   C4A37998  42.126  38.408   7.881
 2906POPC   C1B37999  42.248  38.920   8.758
 2906POPC   C2B38000  42.152  38.782   8.378
 2906POPC   C3B38001  42.181  39.007   8.012
 2906POPC   C4B38002  42.237  38.830   7.635
 2907POPC   NC338003  28.707   0.767   9.547
 2907POPC   PO438004  29.368   0.921   9.523
 2907POPC   GL138005  29.149   1.116   9.146
 2907POPC   GL238006  29.284   1.439   9.105
 2907POPC   C1A38007  29.089   1.243   8.695
 2907POPC   D2A38008  28.992   1.123   8.310
 2907POPC   C3A38009  29.046   1.446   8.006
 2907POPC   C4A38010  28.997   1.101   7.741
 2907POPC   C1B38011  29.506   1.609   8.772
 2907POPC   C2B38012  29.343   1.736   8.381
 2907POPC   C3B38013  29.534   1.624   8.020
 2907POPC   C4B38014  29.395   1.456   7.632
 2908POPC   NC338015  42.033  34.293   9.457
 2908POPC   PO438016  41.951  34.893   9.048
 2908POPC   GL138017  42.168  34.519   9.026
 2908POPC   GL238018  42.540  34.512   9.092
 2908POPC   C1A38019  42.219  34.406   8.643
 2908POPC   D2A38020  42.438  34.294   8.324
 2908POPC   C3A38021  42.238  34.517   8.012
 2908POPC   C4A38022  42.027  34.367   7.692
 2908POPC   C1B38023  42.628  34.700   8.676
 2908POPC   C2B38024  42.677  34.707   8.220
 2908POPC   C3B38025  42.698  34.439   7.842
 2908POPC   C4B38026  42.691  34.793   7.588
 2909POPC   NC338027  25.591  32.306   9.469
 2909POPC   PO438028  26.234  32.504   9.610
 2909POPC   GL138029  25.992  32.559   9.226
 2909POPC   GL238030  25.973  32.241   9.118
 2909POPC   C1A38031  25.904  32.576   8.746
 2909POPC   D2A38032  26.164  32.472   8.392
 2909POPC   C3A38033  25.953  32.518   7.988
 2909POPC   C4A38034  26.183  32.399   7.625
 2909POPC   C1B38035  26.087  32.006   8.779
 2909POPC   C2B38036  26.333  31.962   8.438
 2909POPC   C3B38037  26.169  32.046   8.053
 2909POPC   C4B38038  26.455  31.978   7.736
 2910POPC   NC338039  30.122  31.048   9.442
 2910POPC   PO438040  29.687  30.491   9.504
 2910POPC   GL138041  29.841  30.685   9.161
 2910POPC   GL238042  29.678  30.955   9.133
 2910POPC   C1A38043  30.049  30.804   8.777
 2910POPC   D2A38044  30.199  30.594   8.410
 2910POPC   C3A38045  30.078  30.821   8.077
 2910POPC   C4A38046  29.945  30.575   7.827
 2910POPC   C1B38047  29.533  30.848   8.744
 2910POPC   C2B38048  29.633  30.990   8.355
 2910POPC   C3B38049  29.540  30.882   7.940
 2910POPC   C4B38050  29.720  30.907   7.517
 2911POPC   NC338051  16.287  34.826   9.319
 2911POPC   PO438052  16.744  34.449   9.652
 2911POPC   GL138053  16.857  34.385   9.207
 2911POPC   GL238054  16.554  34.463   9.053
 2911POPC   C1A38055  16.954  34.657   8.805
 2911POPC   D2A38056  16.780  34.578   8.414
 2911POPC   C3A38057  16.859  34.670   8.020
 2911POPC   C4A38058  16.694  34.465   7.672
 2911POPC   C1B38059  16.361  34.642   8.693
 2911POPC   C2B38060  16.355  34.840   8.301
 2911POPC   C3B38061  16.344  34.747   7.895
 2911POPC   C4B38062  16.348  34.786   7.437
 2912POPC   NC338063  22.002   7.285   9.525
 2912POPC   PO438064  22.324   7.885   9.715
 2912POPC   GL138065  22.374   7.542   9.274
 2912POPC   GL238066  22.498   7.205   9.149
 2912POPC   C1A38067  22.083   7.421   8.876
 2912POPC   D2A38068  21.813   7.511   8.475
 2912POPC   C3A38069  21.985   7.338   8.092
 2912POPC   C4A38070  22.133   7.515   7.711
 2912POPC   C1B38071  22.547   7.288   8.729
 2912POPC   C2B38072  22.406   7.552   8.352
 2912POPC   C3B38073  22.582   7.716   7.936
 2912POPC   C4B38074  22.620   7.508   7.510
 2913POPC   NC338075  24.641   1.554   9.456
 2913POPC   PO438076  24.149   2.000   9.449
 2913POPC   GL138077  24.425   1.956   9.110
 2913POPC   GL238078  24.623   2.236   9.126
 2913POPC   C1A38079  24.671   1.942   8.703
 2913POPC   D2A38080  24.913   1.905   8.304
 2913POPC   C3A38081  24.683   1.746   7.935
 2913POPC   C4A38082  24.385   1.953   7.686
 2913POPC   C1B38083  24.678   2.519   8.816
 2913POPC   C2B38084  24.530   2.365   8.447
 2913POPC   C3B38085  24.603   2.229   8.059
 2913POPC   C4B38086  24.622   2.431   7.671
 2914POPC   NC338087   9.019  14.862   9.524
 2914POPC   PO438088   8.877  15.512   9.448
 2914POPC   GL138089   9.031  15.210   9.137
 2914POPC   GL238090   8.740  14.994   9.046
 2914POPC   C1A38091   9.108  15.146   8.697
 2914POPC   D2A38092   8.954  14.802   8.419
 2914POPC   C3A38093   9.070  14.905   7.997
 2914POPC   C4A38094   9.224  15.303   7.866
 2914POPC   C1B38095   8.605  15.181   8.638
 2914POPC   C2B38096   8.830  15.288   8.241
 2914POPC   C3B38097   8.712  15.261   7.799
 2914POPC   C4B38098   8.735  15.163   7.367
 2915POPC   NC338099  28.938  44.792   9.472
 2915POPC   PO438100  29.568   0.106   9.443
 2915POPC   GL138101  29.362  44.826   9.144
 2915POPC   GL238102  29.047  44.859   8.994
 2915POPC   C1A38103  29.326  44.457   8.843
 2915POPC   D2A38104  29.240  44.191   8.464
 2915POPC   C3A38105  29.171  44.427   8.095
 2915POPC   C4A38106  29.124  44.382   7.635
 2915POPC   C1B38107  29.092  44.865   8.584
 2915POPC   C2B38108  28.844  44.778   8.275
 2915POPC   C3B38109  28.883  44.761   7.875
 2915POPC   C4B38110  29.343  44.816   7.798
 2916POPC   NC338111  21.978  34.964   9.522
 2916POPC   PO438112  22.332  34.358   9.561
 2916POPC   GL138113  22.274  34.619   9.227
 2916POPC   GL238114  21.935  34.560   9.154
 2916POPC   C1A38115  22.274  34.565   8.789
 2916POPC   D2A38116  22.480  34.472   8.420
 2916POPC   C3A38117  22.228  34.533   8.088
 2916POPC   C4A38118  22.327  34.640   7.690
 2916POPC   C1B38119  21.866  34.227   8.829
 2916POPC   C2B38120  21.959  34.298   8.441
 2916POPC   C3B38121  21.824  34.150   8.040
 2916POPC   C4B38122  22.045  34.223   7.727
 2917POPC   NC338123  26.677  16.116   9.737
 2917POPC   PO438124  27.034  15.799   9.235
 2917POPC   GL138125  26.850  15.759   8.902
 2917POPC   GL238126  26.567  15.962   9.078
 2917POPC   C1A38127  27.017  15.835   8.488
 2917POPC   D2A38128  27.035  16.178   8.212
 2917POPC   C3A38129  26.922  16.005   7.792
 2917POPC   C4A38130  26.743  16.133   7.399
 2917POPC   C1B38131  26.603  16.095   8.632
 2917POPC   C2B38132  26.584  15.945   8.182
 2917POPC   C3B38133  26.427  15.832   7.739
 2917POPC   C4B38134  26.484  15.689   7.277
 2918POPC   NC338135  24.808  20.690   9.586
 2918POPC   PO438136  24.420  20.214   9.429
 2918POPC   GL138137  24.431  20.617   9.136
 2918POPC   GL238138  24.735  20.846   9.111
 2918POPC   C1A38139  24.461  20.796   8.691
 2918POPC   D2A38140  24.665  20.618   8.332
 2918POPC   C3A38141  24.507  20.320   8.032
 2918POPC   C4A38142  24.583  20.136   7.593
 2918POPC   C1B38143  24.943  21.058   8.785
 2918POPC   C2B38144  24.809  21.112   8.385
 2918POPC   C3B38145  24.806  20.950   7.975
 2918POPC   C4B38146  24.552  20.707   7.721
 2919POPC   NC338147   1.376  38.459   9.586
 2919POPC   PO438148   1.013  38.840   9.245
 2919POPC   GL138149   1.411  38.715   9.120
 2919POPC   GL238150   1.332  38.343   9.084
 2919POPC   C1A38151   1.457  38.633   8.707
 2919POPC   D2A38152   1.435  38.242   8.518
 2919POPC   C3A38153   1.234  38.362   8.175
 2919POPC   C4A38154   1.385  38.648   7.874
 2919POPC   C1B38155   0.990  38.419   8.749
 2919POPC   C2B38156   0.778  38.271   8.400
 2919POPC   C3B38157   0.737  38.243   7.970
 2919POPC   C4B38158   0.981  38.406   7.627
 2920POPC   NC338159   0.839  44.620   9.811
 2920POPC   PO438160   0.242  44.651   9.533
 2920POPC   GL138161   0.332  44.699   9.095
 2920POPC   GL238162   0.650  44.779   9.125
 2920POPC   C1A38163   0.574  44.499   8.720
 2920POPC   D2A38164   0.466  44.400   8.329
 2920POPC   C3A38165   0.244  44.718   8.061
 2920POPC   C4A38166   0.479  44.625   7.691
 2920POPC   C1B38167   0.588   0.001   8.733
 2920POPC   C2B38168   0.683  44.876   8.287
 2920POPC   C3B38169   0.748   0.029   7.845
 2920POPC   C4B38170   0.660  44.991   7.352
 2921POPC   NC338171  20.185  33.359   9.328
 2921POPC   PO438172  20.443  32.799   9.608
 2921POPC   GL138173  20.587  32.912   9.212
 2921POPC   GL238174  20.268  32.818   9.092
 2921POPC   C1A38175  20.665  33.125   8.807
 2921POPC   D2A38176  20.522  33.183   8.354
 2921POPC   C3A38177  20.833  33.273   7.995
 2921POPC   C4A38178  20.946  33.121   7.576
 2921POPC   C1B38179  20.428  32.686   8.679
 2921POPC   C2B38180  20.515  32.529   8.256
 2921POPC   C3B38181  20.595  32.827   7.938
 2921POPC   C4B38182  20.301  33.207   7.876
 2922POPC   NC338183  44.473  34.218   9.456
 2922POPC   PO438184   0.116  33.883   9.513
 2922POPC   GL138185  44.779  33.901   9.214
 2922POPC   GL238186  44.543  33.630   9.233
 2922POPC   C1A38187  44.725  33.940   8.782
 2922POPC   D2A38188  44.547  33.798   8.390
 2922POPC   C3A38189  44.715  33.883   8.006
 2922POPC   C4A38190  44.563  34.101   7.658
 2922POPC   C1B38191  44.483  33.486   8.809
 2922POPC   C2B38192  44.232  33.378   8.435
 2922POPC   C3B38193  44.289  33.521   8.030
 2922POPC   C4B38194  44.560  33.543   7.662
 2923POPC   NC338195  25.396  14.694   9.983
 2923POPC   PO438196  25.328  14.242   9.502
 2923POPC   GL138197  25.250  14.344   9.075
 2923POPC   GL238198  25.113  14.654   9.165
 2923POPC   C1A38199  25.443  14.376   8.676
 2923POPC   D2A38200  25.261  14.189   8.348
 2923POPC   C3A38201  25.406  14.242   7.940
 2923POPC   C4A38202  25.113  14.144   7.599
 2923POPC   C1B38203  25.042  14.706   8.737
 2923POPC   C2B38204  25.180  14.688   8.313
 2923POPC   C3B38205  24.982  14.563   7.918
 2923POPC   C4B38206  24.851  14.783   7.532
 2924POPC   NC338207  27.320  35.116   9.556
 2924POPC   PO438208  27.763  35.589   9.503
 2924POPC   GL138209  27.632  35.335   9.187
 2924POPC   GL238210  27.293  35.370   9.120
 2924POPC   C1A38211  27.641  35.151   8.794
 2924POPC   D2A38212  27.918  35.262   8.469
 2924POPC   C3A38213  27.855  35.078   8.062
 2924POPC   C4A38214  27.703  35.270   7.664
 2924POPC   C1B38215  27.298  35.547   8.710
 2924POPC   C2B38216  27.488  35.542   8.286
 2924POPC   C3B38217  27.386  35.662   7.845
 2924POPC   C4B38218  27.159  35.721   7.401
 2925POPC   NC338219  19.705  35.556   9.464
 2925POPC   PO438220  19.556  34.893   9.440
 2925POPC   GL138221  19.831  35.194   9.114
 2925POPC   GL238222  19.897  35.601   9.014
 2925POPC   C1A38223  19.721  35.272   8.677
 2925POPC   D2A38224  19.641  34.971   8.364
 2925POPC   C3A38225  19.751  35.162   8.003
 2925POPC   C4A38226  19.900  35.295   7.615
 2925POPC   C1B38227  20.168  35.569   8.680
 2925POPC   C2B38228  20.128  35.382   8.298
 2925POPC   C3B38229  20.024  35.641   7.976
 2925POPC   C4B38230  20.144  35.713   7.568
 2926POPC   NC338231   3.169  37.833   9.505
 2926POPC   PO438232   3.696  37.529   9.701
 2926POPC   GL138233   3.604  37.706   9.229
 2926POPC   GL238234   3.867  37.493   9.125
 2926POPC   C1A38235   3.466  37.724   8.724
 2926POPC   D2A38236   3.248  37.519   8.342
 2926POPC   C3A38237   3.342  37.719   7.962
 2926POPC   C4A38238   3.746  37.723   7.788
 2926POPC   C1B38239   3.911  37.499   8.668
 2926POPC   C2B38240   3.756  37.445   8.234
 2926POPC   C3B38241   3.533  37.259   7.878
 2926POPC   C4B38242   3.658  37.354   7.455
 2927POPC   NC338243  27.605  26.055   9.623
 2927POPC   PO438244  27.955  26.482   9.228
 2927POPC   GL138245  27.813  26.018   9.168
 2927POPC   GL238246  27.441  25.894   9.159
 2927POPC   C1A38247  27.800  25.780   8.797
 2927POPC   D2A38248  27.858  26.021   8.435
 2927POPC   C3A38249  27.806  25.849   8.035
 2927POPC   C4A38250  27.878  26.116   7.703
 2927POPC   C1B38251  27.483  26.181   8.802
 2927POPC   C2B38252  27.368  26.204   8.372
 2927POPC   C3B38253  27.429  26.175   7.955
 2927POPC   C4B38254  27.194  25.973   7.677
 2928POPC   NC338255  11.915   7.494   9.493
 2928POPC   PO438256  12.527   7.160   9.251
 2928POPC   GL138257  12.226   7.464   9.036
 2928POPC   GL238258  11.914   7.661   9.033
 2928POPC   C1A38259  12.154   7.577   8.593
 2928POPC   D2A38260  12.239   7.530   8.162
 2928POPC   C3A38261  12.186   7.261   7.796
 2928POPC   C4A38262  12.375   7.600   7.557
 2928POPC   C1B38263  11.698   7.386   8.704
 2928POPC   C2B38264  11.712   7.508   8.266
 2928POPC   C3B38265  11.658   7.265   7.906
 2928POPC   C4B38266  11.727   7.246   7.452
 2929POPC   NC338267  26.897   3.001   9.392
 2929POPC   PO438268  26.963   3.669   9.525
 2929POPC   GL138269  27.040   3.515   9.127
 2929POPC   GL238270  27.179   3.838   9.092
 2929POPC   C1A38271  26.787   3.400   8.743
 2929POPC   D2A38272  26.695   3.636   8.346
 2929POPC   C3A38273  26.818   3.459   7.947
 2929POPC   C4A38274  26.788   3.137   7.632
 2929POPC   C1B38275  27.004   3.867   8.705
 2929POPC   C2B38276  27.207   3.892   8.346
 2929POPC   C3B38277  27.270   3.709   8.011
 2929POPC   C4B38278  27.113   3.802   7.633
 2930POPC   NC338279  22.805   4.984   9.350
 2930POPC   PO438280  23.125   5.484   9.068
 2930POPC   GL138281  22.854   5.181   8.891
 2930POPC   GL238282  22.506   5.179   8.996
 2930POPC   C1A38283  22.971   4.798   8.681
 2930POPC   D2A38284  22.850   4.698   8.255
 2930POPC   C3A38285  23.098   4.958   7.969
 2930POPC   C4A38286  23.123   5.354   7.707
 2930POPC   C1B38287  22.467   4.844   8.667
 2930POPC   C2B38288  22.344   4.562   8.322
 2930POPC   C3B38289  22.429   4.770   7.929
 2930POPC   C4B38290  22.669   5.097   7.735
 2931POPC   NC338291   1.390  36.619   9.264
 2931POPC   PO438292   1.472  37.233   9.529
 2931POPC   GL138293   1.219  37.087   9.148
 2931POPC   GL238294   0.917  36.853   9.167
 2931POPC   C1A38295   1.180  36.951   8.681
 2931POPC   D2A38296   1.448  36.826   8.301
 2931POPC   C3A38297   1.280  36.963   7.898
 2931POPC   C4A38298   1.078  37.352   7.697
 2931POPC   C1B38299   0.781  37.238   8.932
 2931POPC   C2B38300   0.772  37.295   8.527
 2931POPC   C3B38301   0.871  36.990   8.223
 2931POPC   C4B38302   0.784  36.959   7.794
 2932POPC   NC338303  12.216  41.458   9.475
 2932POPC   PO438304  11.729  41.906   9.374
 2932POPC   GL138305  11.994  41.698   9.088
 2932POPC   GL238306  11.788  41.401   9.164
 2932POPC   C1A38307  12.180  41.491   8.710
 2932POPC   D2A38308  12.211  41.725   8.338
 2932POPC   C3A38309  12.106  41.576   7.950
 2932POPC   C4A38310  11.903  41.782   7.641
 2932POPC   C1B38311  11.672  41.467   8.753
 2932POPC   C2B38312  11.800  41.348   8.381
 2932POPC   C3B38313  11.712  41.262   7.983
 2932POPC   C4B38314  11.788  41.290   7.573
 2933POPC   NC338315  41.467  14.685   9.416
 2933POPC   PO438316  41.661  14.088   9.673
 2933POPC   GL138317  41.527  14.211   9.220
 2933POPC   GL238318  41.321  13.958   9.106
 2933POPC   C1A38319  41.575  14.426   8.795
 2933POPC   D2A38320  41.385  14.659   8.418
 2933POPC   C3A38321  41.525  14.605   7.971
 2933POPC   C4A38322  41.691  14.336   7.597
 2933POPC   C1B38323  41.377  13.941   8.717
 2933POPC   C2B38324  41.477  14.136   8.377
 2933POPC   C3B38325  41.450  14.095   7.994
 2933POPC   C4B38326  41.177  14.306   7.754
 2934POPC   NC338327   3.965  17.515   9.513
 2934POPC   PO438328   4.424  17.112   9.698
 2934POPC   GL138329   4.519  17.345   9.261
 2934POPC   GL238330   4.286  17.607   9.141
 2934POPC   C1A38331   4.712  17.563   8.841
 2934POPC   D2A38332   4.665  17.764   8.398
 2934POPC   C3A38333   4.470  17.576   8.015
 2934POPC   C4A38334   4.193  17.620   7.671
 2934POPC   C1B38335   4.274  17.799   8.724
 2934POPC   C2B38336   4.140  17.550   8.400
 2934POPC   C3B38337   4.039  17.293   8.063
 2934POPC   C4B38338   3.855  17.220   7.691
 2935POPC   NC338339  34.638  39.633   9.585
 2935POPC   PO438340  34.975  40.135   9.314
 2935POPC   GL138341  34.664  39.905   9.143
 2935POPC   GL238342  34.837  39.578   9.125
 2935POPC   C1A38343  34.452  40.062   8.758
 2935POPC   D2A38344  34.317  40.289   8.402
 2935POPC   C3A38345  34.350  40.084   8.018
 2935POPC   C4A38346  34.392  40.254   7.605
 2935POPC   C1B38347  34.803  39.699   8.718
 2935POPC   C2B38348  34.943  39.941   8.453
 2935POPC   C3B38349  34.775  39.851   8.095
 2935POPC   C4B38350  34.898  39.647   7.764
 2936POPC   NC338351  44.520  31.034   9.468
 2936POPC   PO438352  44.485  30.378   9.526
 2936POPC   GL138353  44.648  30.650   9.145
 2936POPC   GL238354  44.879  31.024   9.127
 2936POPC   C1A38355  44.742  30.736   8.740
 2936POPC   D2A38356  44.653  30.894   8.370
 2936POPC   C3A38357  44.708  30.613   8.012
 2936POPC   C4A38358  44.609  30.603   7.586
 2936POPC   C1B38359   0.106  31.099   8.754
 2936POPC   C2B38360   0.164  30.803   8.439
 2936POPC   C3B38361   0.067  30.961   8.047
 2936POPC   C4B38362   0.110  30.811   7.629
 2937POPC   NC338363  24.683  30.576   9.389
 2937POPC   PO438364  24.114  30.421   9.267
 2937POPC   GL138365  24.378  30.668   8.987
 2937POPC   GL238366  24.744  30.691   8.912
 2937POPC   C1A38367  24.341  30.727   8.560
 2937POPC   D2A38368  24.018  30.713   8.247
 2937POPC   C3A38369  24.256  30.848   7.950
 2937POPC   C4A38370  24.586  30.563   7.847
 2937POPC   C1B38371  25.082  30.758   8.625
 2937POPC   C2B38372  25.055  30.913   8.215
 2937POPC   C3B38373  24.780  31.107   7.951
 2937POPC   C4B38374  24.595  31.006   7.590
 2938POPC   NC338375  42.690   7.433   9.514
 2938POPC   PO438376  43.219   7.004   9.383
 2938POPC   GL138377  43.022   7.303   9.127
 2938POPC   GL238378  42.692   7.224   9.054
 2938POPC   C1A38379  42.950   7.545   8.751
 2938POPC   D2A38380  42.826   7.455   8.336
 2938POPC   C3A38381  43.153   7.539   8.037
 2938POPC   C4A38382  43.228   7.714   7.618
 2938POPC   C1B38383  42.705   7.024   8.706
 2938POPC   C2B38384  42.556   6.997   8.308
 2938POPC   C3B38385  42.885   7.063   8.006
 2938POPC   C4B38386  42.850   7.347   7.673
 2939POPC   NC338387   3.460  23.400   9.567
 2939POPC   PO438388   3.678  22.779   9.605
 2939POPC   GL138389   3.795  22.959   9.202
 2939POPC   GL238390   3.761  23.326   9.171
 2939POPC   C1A38391   3.744  22.823   8.791
 2939POPC   D2A38392   3.473  22.902   8.450
 2939POPC   C3A38393   3.663  22.963   8.080
 2939POPC   C4A38394   3.584  22.718   7.781
 2939POPC   C1B38395   3.427  23.226   8.879
 2939POPC   C2B38396   3.181  23.329   8.522
 2939POPC   C3B38397   3.349  23.357   8.102
 2939POPC   C4B38398   3.361  23.174   7.662
 2940POPC   NC338399  43.323  43.320   9.789
 2940POPC   PO438400  42.804  43.118   9.550
 2940POPC   GL138401  42.912  43.189   9.161
 2940POPC   GL238402  43.236  43.248   9.227
 2940POPC   C1A38403  42.992  42.993   8.777
 2940POPC   D2A38404  42.918  43.202   8.399
 2940POPC   C3A38405  43.099  42.985   8.044
 2940POPC   C4A38406  42.991  42.984   7.616
 2940POPC   C1B38407  43.232  43.454   8.811
 2940POPC   C2B38408  43.287  43.616   8.428
 2940POPC   C3B38409  43.146  43.511   8.048
 2940POPC   C4B38410  43.292  43.381   7.685
 2941POPC   NC338411  25.029  12.311   9.412
 2941POPC   PO438412  25.484  11.835   9.480
 2941POPC   GL138413  25.336  11.985   9.107
 2941POPC   GL238414  25.496  12.305   9.131
 2941POPC   C1A38415  24.999  12.008   8.801
 2941POPC   D2A38416  24.933  11.822   8.403
 2941POPC   C3A38417  25.305  11.866   8.135
 2941POPC   C4A38418  25.175  11.978   7.753
 2941POPC   C1B38419  25.291  12.426   8.768
 2941POPC   C2B38420  25.129  12.301   8.389
 2941POPC   C3B38421  25.251  12.408   8.005
 2941POPC   C4B38422  25.616  12.215   7.821
 2942POPC   NC338423  31.471  28.453   9.437
 2942POPC   PO438424  31.923  27.982   9.443
 2942POPC   GL138425  31.601  28.055   9.114
 2942POPC   GL238426  31.280  28.212   9.032
 2942POPC   C1A38427  31.645  28.239   8.688
 2942POPC   D2A38428  31.607  28.488   8.327
 2942POPC   C3A38429  31.818  28.260   8.007
 2942POPC   C4A38430  31.600  28.338   7.678
 2942POPC   C1B38431  31.273  28.602   8.756
 2942POPC   C2B38432  31.151  28.771   8.347
 2942POPC   C3B38433  31.176  28.541   7.941
 2942POPC   C4B38434  31.269  28.696   7.530
 2943POPC   NC338435  34.069  23.283   9.585
 2943POPC   PO438436  33.602  23.770   9.530
 2943POPC   GL138437  33.815  23.755   9.100
 2943POPC   GL238438  34.023  24.067   8.987
 2943POPC   C1A38439  33.949  23.625   8.681
 2943POPC   D2A38440  33.829  23.498   8.266
 2943POPC   C3A38441  33.984  23.557   7.841
 2943POPC   C4A38442  33.849  23.249   7.543
 2943POPC   C1B38443  33.648  24.049   8.700
 2943POPC   C2B38444  33.443  23.839   8.362
 2943POPC   C3B38445  33.505  23.785   7.933
 2943POPC   C4B38446  33.820  24.037   7.760
 2944POPC   NC338447  27.693  23.468   9.481
 2944POPC   PO438448  27.188  24.059   9.347
 2944POPC   GL138449  27.598  23.834   9.130
 2944POPC   GL238450  27.511  23.455   9.025
 2944POPC   C1A38451  27.937  23.919   8.817
 2944POPC   D2A38452  27.972  23.782   8.371
 2944POPC   C3A38453  28.044  24.037   7.990
 2944POPC   C4A38454  27.883  23.845   7.617
 2944POPC   C1B38455  27.554  23.640   8.628
 2944POPC   C2B38456  27.297  23.759   8.282
 2944POPC   C3B38457  27.482  23.623   7.890
 2944POPC   C4B38458  27.369  23.230   7.685
 2945POPC   NC338459  20.801  24.248   9.683
 2945POPC   PO438460  20.181  24.523   9.515
 2945POPC   GL138461  20.423  24.360   9.130
 2945POPC   GL238462  20.785  24.215   9.173
 2945POPC   C1A38463  20.617  24.517   8.725
 2945POPC   D2A38464  20.530  24.678   8.302
 2945POPC   C3A38465  20.397  24.403   7.954
 2945POPC   C4A38466  20.615  24.340   7.578
 2945POPC   C1B38467  21.041  24.253   8.790
 2945POPC   C2B38468  21.069  24.505   8.428
 2945POPC   C3B38469  20.934  24.489   8.018
 2945POPC   C4B38470  20.720  24.814   7.779
 2946POPC   NC338471  14.132   5.341   9.420
 2946POPC   PO438472  14.495   4.814   9.574
 2946POPC   GL138473  14.461   5.040   9.159
 2946POPC   GL238474  14.144   4.896   9.168
 2946POPC   C1A38475  14.407   5.323   8.799
 2946POPC   D2A38476  14.281   5.392   8.362
 2946POPC   C3A38477  14.572   5.289   8.034
 2946POPC   C4A38478  14.460   5.147   7.591
 2946POPC   C1B38479  14.171   4.884   8.732
 2946POPC   C2B38480  14.337   4.668   8.372
 2946POPC   C3B38481  14.346   4.825   7.981
 2946POPC   C4B38482  14.072   4.741   7.662
 2947POPC   NC338483  35.960  40.824   9.487
 2947POPC   PO438484  36.634  40.748   9.499
 2947POPC   GL138485  36.339  40.705   9.157
 2947POPC   GL238486  36.122  41.008   9.057
 2947POPC   C1A38487  36.456  40.775   8.739
 2947POPC   D2A38488  36.393  40.979   8.375
 2947POPC   C3A38489  36.241  40.624   8.151
 2947POPC   C4A38490  36.299  40.533   7.736
 2947POPC   C1B38491  35.871  41.167   8.723
 2947POPC   C2B38492  35.905  41.055   8.293
 2947POPC   C3B38493  35.985  40.950   7.859
 2947POPC   C4B38494  35.904  40.802   7.447
 2948POPC   NC338495  27.213  43.131   9.463
 2948POPC   PO438496  26.687  42.791   9.671
 2948POPC   GL138497  26.821  42.829   9.159
 2948POPC   GL238498  27.162  42.875   8.994
 2948POPC   C1A38499  26.641  42.923   8.685
 2948POPC   D2A38500  26.446  42.803   8.233
 2948POPC   C3A38501  26.452  42.998   7.736
 2948POPC   C4A38502  26.468  43.354   7.370
 2948POPC   C1B38503  27.047  43.261   8.771
 2948POPC   C2B38504  27.083  43.442   8.371
 2948POPC   C3B38505  27.208  43.326   7.960
 2948POPC   C4B38506  26.920  43.251   7.606
 2949POPC   NC338507   9.872  14.938   9.448
 2949POPC   PO438508   9.686  15.591   9.541
 2949POPC   GL138509   9.532  15.272   9.261
 2949POPC   GL238510   9.580  15.489   9.035
 2949POPC   C1A38511   9.576  15.015   8.859
 2949POPC   D2A38512   9.787  14.970   8.436
 2949POPC   C3A38513   9.671  15.110   8.010
 2949POPC   C4A38514   9.756  15.217   7.560
 2949POPC   C1B38515   9.763  15.434   8.640
 2949POPC   C2B38516   9.979  15.431   8.268
 2949POPC   C3B38517   9.939  15.583   7.884
 2949POPC   C4B38518   9.878  15.835   7.536
 2950POPC   NC338519  14.295  29.038   9.587
 2950POPC   PO438520  14.480  29.583   9.744
 2950POPC   GL138521  14.457  29.362   9.238
 2950POPC   GL238522  14.143  29.317   9.185
 2950POPC   C1A38523  14.461  29.050   8.877
 2950POPC   D2A38524  14.238  28.923   8.495
 2950POPC   C3A38525  14.494  28.932   8.116
 2950POPC   C4A38526  14.328  28.941   7.699
 2950POPC   C1B38527  14.139  29.443   8.764
 2950POPC   C2B38528  13.894  29.346   8.405
 2950POPC   C3B38529  14.060  29.228   8.019
 2950POPC   C4B38530  14.039  29.363   7.589
 2951POPC   NC338531  32.460  27.090   9.564
 2951POPC   PO438532  32.189  26.503   9.567
 2951POPC   GL138533  32.225  26.842   9.179
 2951POPC   GL238534  31.974  27.137   9.255
 2951POPC   C1A38535  32.447  26.871   8.725
 2951POPC   D2A38536  32.394  26.940   8.252
 2951POPC   C3A38537  32.589  26.663   7.938
 2951POPC   C4A38538  32.500  26.406   7.560
 2951POPC   C1B38539  32.102  27.231   8.823
 2951POPC   C2B38540  32.145  27.376   8.372
 2951POPC   C3B38541  32.087  27.223   7.922
 2951POPC   C4B38542  31.872  27.122   7.504
 2952POPC   NC338543  33.881  40.912   9.446
 2952POPC   PO438544  33.556  40.366   9.425
 2952POPC   GL138545  33.674  40.646   9.051
 2952POPC   GL238546  34.041  40.808   8.983
 2952POPC   C1A38547  33.723  40.717   8.603
 2952POPC   D2A38548  33.900  40.561   8.245
 2952POPC   C3A38549  33.813  40.733   7.829
 2952POPC   C4A38550  33.512  40.715   7.508
 2952POPC   C1B38551  34.126  41.066   8.627
 2952POPC   C2B38552  34.118  41.022   8.202
 2952POPC   C3B38553  34.026  41.183   7.807
 2952POPC   C4B38554  33.910  41.022   7.373
 2953POPC   NC338555  40.787  26.201   9.591
 2953POPC   PO438556  40.445  26.408   9.162
 2953POPC   GL138557  40.672  26.013   9.066
 2953POPC   GL238558  40.911  25.791   9.262
 2953POPC   C1A38559  40.837  26.083   8.667
 2953POPC   D2A38560  40.582  26.302   8.379
 2953POPC   C3A38561  40.779  26.153   8.033
 2953POPC   C4A38562  40.667  25.998   7.651
 2953POPC   C1B38563  41.082  25.659   8.855
 2953POPC   C2B38564  41.055  25.662   8.377
 2953POPC   C3B38565  41.013  25.728   7.909
 2953POPC   C4B38566  41.095  25.854   7.450
 2954POPC   NC338567  10.122  16.939   9.254
 2954POPC   PO438568  10.743  16.797   9.541
 2954POPC   GL138569  10.522  16.627   9.158
 2954POPC   GL238570  10.568  16.944   9.017
 2954POPC   C1A38571  10.572  16.573   8.675
 2954POPC   D2A38572  10.655  16.843   8.305
 2954POPC   C3A38573  10.732  16.643   7.885
 2954POPC   C4A38574  10.746  16.720   7.431
 2954POPC   C1B38575  10.313  17.015   8.646
 2954POPC   C2B38576  10.119  17.107   8.278
 2954POPC   C3B38577  10.308  16.951   7.929
 2954POPC   C4B38578  10.432  17.080   7.550
 2955POPC   NC338579  22.783   1.683   9.314
 2955POPC   PO438580  23.037   1.128   9.734
 2955POPC   GL138581  23.039   1.152   9.295
 2955POPC   GL238582  22.701   1.189   9.204
 2955POPC   C1A38583  23.089   1.088   8.849
 2955POPC   D2A38584  22.979   1.228   8.421
 2955POPC   C3A38585  22.957   0.983   8.071
 2955POPC   C4A38586  23.147   1.160   7.734
 2955POPC   C1B38587  22.666   1.380   8.788
 2955POPC   C2B38588  22.488   1.406   8.400
 2955POPC   C3B38589  22.657   1.383   7.968
 2955POPC   C4B38590  22.592   1.049   7.691
 2956POPC   NC338591  14.937  16.861   9.562
 2956POPC   PO438592  15.591  16.891   9.460
 2956POPC   GL138593  15.283  16.978   9.173
 2956POPC   GL238594  15.117  16.662   9.123
 2956POPC   C1A38595  15.313  16.921   8.742
 2956POPC   D2A38596  15.458  16.725   8.419
 2956POPC   C3A38597  15.215  16.777   8.075
 2956POPC   C4A38598  15.143  16.570   7.711
 2956POPC   C1B38599  15.177  16.417   8.751
 2956POPC   C2B38600  14.976  16.503   8.418
 2956POPC   C3B38601  14.797  16.447   8.054
 2956POPC   C4B38602  14.896  16.124   7.749
 2957POPC   NC338603  44.654  19.436   9.708
 2957POPC   PO438604   0.000  18.885   9.472
 2957POPC   GL138605  44.815  18.963   9.102
 2957POPC   GL238606  44.996  18.692   9.008
 2957POPC   C1A38607  44.571  19.024   8.738
 2957POPC   D2A38608  44.252  18.960   8.431
 2957POPC   C3A38609  44.394  19.151   8.036
 2957POPC   C4A38610  44.345  18.868   7.677
 2957POPC   C1B38611   0.107  18.930   8.664
 2957POPC   C2B38612  44.887  19.029   8.306
 2957POPC   C3B38613  44.815  18.894   7.908
 2957POPC   C4B38614  44.770  19.085   7.491
 2958POPC   NC338615   0.704  33.310   9.466
 2958POPC   PO438616   0.109  32.989   9.460
 2958POPC   GL138617   0.439  32.918   9.158
 2958POPC   GL238618   0.373  33.226   9.060
 2958POPC   C1A38619   0.464  32.878   8.703
 2958POPC   D2A38620   0.674  32.961   8.323
 2958POPC   C3A38621   0.497  32.871   7.965
 2958POPC   C4A38622   0.404  32.910   7.560
 2958POPC   C1B38623   0.559  33.360   8.654
 2958POPC   C2B38624   0.389  33.370   8.248
 2958POPC   C3B38625   0.483  33.366   7.821
 2958POPC   C4B38626   0.770  33.274   7.453
 2959POPC   NC338627   0.950   6.803   9.509
 2959POPC   PO438628   1.440   6.449   9.760
 2959POPC   GL138629   1.391   6.588   9.313
 2959POPC   GL238630   1.075   6.376   9.264
 2959POPC   C1A38631   1.306   6.691   8.854
 2959POPC   D2A38632   1.076   6.880   8.477
 2959POPC   C3A38633   1.146   6.761   8.040
 2959POPC   C4A38634   1.377   6.734   7.648
 2959POPC   C1B38635   0.899   6.372   8.878
 2959POPC   C2B38636   0.922   6.388   8.461
 2959POPC   C3B38637   0.872   6.326   8.050
 2959POPC   C4B38638   1.067   6.281   7.701
 2960POPC   NC338639  28.559   0.170   9.900
 2960POPC   PO438640  28.282   0.625   9.434
 2960POPC   GL138641  28.545   0.499   9.115
 2960POPC   GL238642  28.661   0.180   9.212
 2960POPC   C1A38643  28.633   0.726   8.695
 2960POPC   D2A38644  28.548   0.826   8.245
 2960POPC   C3A38645  28.275   0.562   7.931
 2960POPC   C4A38646  28.404   0.536   7.480
 2960POPC   C1B38647  28.859   0.279   8.799
 2960POPC   C2B38648  28.691   0.265   8.406
 2960POPC   C3B38649  28.549   0.136   8.041
 2960POPC   C4B38650  28.651   0.135   7.644
 2961POPC   NC338651  38.918  33.033   9.596
 2961POPC   PO438652  39.551  32.968   9.440
 2961POPC   GL138653  39.342  33.214   9.106
 2961POPC   GL238654  38.990  33.160   9.123
 2961POPC   C1A38655  39.309  33.146   8.665
 2961POPC   D2A38656  39.469  32.918   8.280
 2961POPC   C3A38657  39.195  32.701   7.978
 2961POPC   C4A38658  38.856  32.789   7.671
 2961POPC   C1B38659  38.835  32.916   8.804
 2961POPC   C2B38660  38.940  32.948   8.371
 2961POPC   C3B38661  38.945  33.156   8.008
 2961POPC   C4B38662  38.672  33.278   7.704
 2962POPC   NC338663  25.928  11.758   9.379
 2962POPC   PO438664  25.823  11.212   9.659
 2962POPC   GL138665  26.002  11.252   9.236
 2962POPC   GL238666  26.316  11.419   9.259
 2962POPC   C1A38667  26.023  11.492   8.812
 2962POPC   D2A38668  25.817  11.535   8.423
 2962POPC   C3A38669  26.052  11.277   8.117
 2962POPC   C4A38670  26.161  11.375   7.704
 2962POPC   C1B38671  26.398  11.127   8.916
 2962POPC   C2B38672  26.403  11.101   8.461
 2962POPC   C3B38673  26.567  11.031   8.032
 2962POPC   C4B38674  26.527  11.062   7.551
 2963POPC   NC338675  27.643  39.894   9.500
 2963POPC   PO438676  27.545  40.593   9.585
 2963POPC   GL138677  27.510  40.309   9.213
 2963POPC   GL238678  27.841  40.333   9.071
 2963POPC   C1A38679  27.468  40.074   8.807
 2963POPC   D2A38680  27.359  40.193   8.391
 2963POPC   C3A38681  27.432  39.993   7.988
 2963POPC   C4A38682  27.247  40.087   7.596
 2963POPC   C1B38683  28.009  40.042   8.763
 2963POPC   C2B38684  27.846  39.975   8.359
 2963POPC   C3B38685  27.909  40.159   7.968
 2963POPC   C4B38686  27.810  39.855   7.665
 2964POPC   NC338687  22.325   0.086   9.463
 2964POPC   PO438688  21.943   0.628   9.504
 2964POPC   GL138689  22.012   0.433   9.131
 2964POPC   GL238690  21.863   0.113   9.147
 2964POPC   C1A38691  22.035   0.641   8.727
 2964POPC   D2A38692  22.238   0.642   8.347
 2964POPC   C3A38693  22.069   0.636   7.940
 2964POPC   C4A38694  22.467   0.542   7.752
 2964POPC   C1B38695  22.121   0.117   8.742
 2964POPC   C2B38696  22.347   0.104   8.326
 2964POPC   C3B38697  22.177   0.125   7.892
 2964POPC   C4B38698  21.944   0.234   7.515
 2965POPC   NC338699  43.753  32.375   9.541
 2965POPC   PO438700  44.370  32.450   9.541
 2965POPC   GL138701  44.125  32.323   9.125
 2965POPC   GL238702  43.752  32.183   9.077
 2965POPC   C1A38703  44.051  32.197   8.674
 2965POPC   D2A38704  43.809  32.064   8.316
 2965POPC   C3A38705  44.024  32.061   7.919
 2965POPC   C4A38706  44.186  31.888   7.515
 2965POPC   C1B38707  43.584  32.504   8.831
 2965POPC   C2B38708  43.707  32.547   8.414
 2965POPC   C3B38709  43.695  32.450   7.994
 2965POPC   C4B38710  43.357  32.475   7.744
 2966POPC   NC338711  15.002  43.131   9.680
 2966POPC   PO438712  15.532  43.178   9.364
 2966POPC   GL138713  15.245  42.899   9.144
 2966POPC   GL238714  14.900  42.997   9.195
 2966POPC   C1A38715  15.279  42.883   8.715
 2966POPC   D2A38716  15.232  43.205   8.441
 2966POPC   C3A38717  15.461  43.137   8.121
 2966POPC   C4A38718  15.340  43.129   7.727
 2966POPC   C1B38719  14.783  42.797   8.823
 2966POPC   C2B38720  14.848  42.825   8.390
 2966POPC   C3B38721  14.904  43.082   8.029
 2966POPC   C4B38722  14.656  42.969   7.673
 2967POPC   NC338723   5.478  17.772   9.453
 2967POPC   PO438724   4.950  18.168   9.687
 2967POPC   GL138725   5.134  18.098   9.232
 2967POPC   GL238726   5.221  18.404   9.055
 2967POPC   C1A38727   5.053  17.999   8.762
 2967POPC   D2A38728   5.114  18.203   8.352
 2967POPC   C3A38729   4.887  18.069   8.007
 2967POPC   C4A38730   4.998  18.174   7.575
 2967POPC   C1B38731   4.960  18.522   8.715
 2967POPC   C2B38732   4.835  18.693   8.293
 2967POPC   C3B38733   4.957  18.589   7.863
 2967POPC   C4B38734   4.888  18.662   7.393
 2968POPC   NC338735  13.997  24.297   9.289
 2968POPC   PO438736  14.684  24.239   9.471
 2968POPC   GL138737  14.473  24.237   9.101
 2968POPC   GL238738  14.401  24.608   9.038
 2968POPC   C1A38739  14.284  24.282   8.683
 2968POPC   D2A38740  14.322  24.623   8.419
 2968POPC   C3A38741  14.310  24.490   8.001
 2968POPC   C4A38742  14.391  24.117   7.762
 2968POPC   C1B38743  14.634  24.919   8.746
 2968POPC   C2B38744  14.587  25.052   8.300
 2968POPC   C3B38745  14.678  24.863   7.881
 2968POPC   C4B38746  14.620  24.558   7.533
 2969POPC   NC338747  24.204  40.623   9.338
 2969POPC   PO438748  24.833  40.518   9.489
 2969POPC   GL138749  24.677  40.756   9.128
 2969POPC   GL238750  24.383  41.029   9.111
 2969POPC   C1A38751  24.694  40.848   8.721
 2969POPC   D2A38752  24.494  40.722   8.306
 2969POPC   C3A38753  24.701  40.912   7.923
 2969POPC   C4A38754  24.840  40.728   7.511
 2969POPC   C1B38755  24.193  40.981   8.719
 2969POPC   C2B38756  24.111  41.087   8.304
 2969POPC   C3B38757  24.204  40.870   7.907
 2969POPC   C4B38758  24.423  40.987   7.493
 2970POPC   NC338759  14.369  26.372   9.554
 2970POPC   PO438760  14.668  26.975   9.465
 2970POPC   GL138761  14.398  26.730   9.190
 2970POPC   GL238762  14.692  26.659   9.022
 2970POPC   C1A38763  14.175  26.559   8.812
 2970POPC   D2A38764  14.083  26.649   8.397
 2970POPC   C3A38765  14.389  26.621   8.085
 2970POPC   C4A38766  14.363  26.723   7.661
 2970POPC   C1B38767  14.472  26.968   8.729
 2970POPC   C2B38768  14.300  27.109   8.318
 2970POPC   C3B38769  14.530  27.302   7.971
 2970POPC   C4B38770  14.639  27.155   7.589
 2971POPC   NC338771  21.964   1.866   9.517
 2971POPC   PO438772  22.376   2.320   9.689
 2971POPC   GL138773  22.411   2.194   9.248
 2971POPC   GL238774  22.319   1.909   9.134
 2971POPC   C1A38775  22.458   2.273   8.790
 2971POPC   D2A38776  22.319   2.048   8.395
 2971POPC   C3A38777  22.285   2.253   8.006
 2971POPC   C4A38778  22.370   2.208   7.557
 2971POPC   C1B38779  22.242   1.703   8.767
 2971POPC   C2B38780  22.014   1.619   8.435
 2971POPC   C3B38781  22.208   1.640   8.045
 2971POPC   C4B38782  22.107   1.821   7.708
 2972POPC   NC338783  37.193  28.258   9.525
 2972POPC   PO438784  36.688  28.687   9.423
 2972POPC   GL138785  36.835  28.342   9.130
 2972POPC   GL238786  37.033  28.028   9.110
 2972POPC   C1A38787  36.826  28.243   8.688
 2972POPC   D2A38788  36.683  28.283   8.266
 2972POPC   C3A38789  36.923  28.464   7.960
 2972POPC   C4A38790  36.715  28.507   7.564
 2972POPC   C1B38791  37.022  27.775   8.752
 2972POPC   C2B38792  37.009  27.670   8.315
 2972POPC   C3B38793  36.909  27.943   7.970
 2972POPC   C4B38794  37.070  28.095   7.549
 2973POPC   NC338795  40.753   4.047   9.685
 2973POPC   PO438796  40.571   3.470   9.605
 2973POPC   GL138797  40.869   3.534   9.276
 2973POPC   GL238798  40.724   3.812   9.164
 2973POPC   C1A38799  40.857   3.348   8.860
 2973POPC   D2A38800  40.806   3.485   8.446
 2973POPC   C3A38801  40.873   3.355   8.024
 2973POPC   C4A38802  40.909   3.617   7.665
 2973POPC   C1B38803  40.491   3.726   8.787
 2973POPC   C2B38804  40.435   3.820   8.384
 2973POPC   C3B38805  40.456   3.666   7.997
 2973POPC   C4B38806  40.488   3.907   7.663
 2974POPC   NC338807  13.577  34.131   9.343
 2974POPC   PO438808  13.785  33.564   9.540
 2974POPC   GL138809  13.749  33.675   9.138
 2974POPC   GL238810  13.407  33.722   9.069
 2974POPC   C1A38811  13.772  33.584   8.726
 2974POPC   D2A38812  13.830  33.870   8.405
 2974POPC   C3A38813  13.735  33.717   8.031
 2974POPC   C4A38814  13.971  33.716   7.690
 2974POPC   C1B38815  13.441  34.018   8.714
 2974POPC   C2B38816  13.448  34.204   8.307
 2974POPC   C3B38817  13.257  33.936   8.036
 2974POPC   C4B38818  13.351  33.810   7.661
 2975POPC   NC338819   1.772  35.285   9.462
 2975POPC   PO438820   1.158  35.143   9.510
 2975POPC   GL138821   1.334  35.304   9.119
 2975POPC   GL238822   0.999  35.373   8.927
 2975POPC   C1A38823   1.454  35.410   8.684
 2975POPC   D2A38824   1.125  35.337   8.366
 2975POPC   C3A38825   1.246  35.522   7.965
 2975POPC   C4A38826   1.389  35.510   7.555
 2975POPC   C1B38827   0.773  35.053   8.666
 2975POPC   C2B38828   0.905  34.848   8.288
 2975POPC   C3B38829   1.075  35.038   7.937
 2975POPC   C4B38830   0.899  35.232   7.585
 2976POPC   NC338831  13.247  17.728   9.350
 2976POPC   PO438832  12.537  17.699   9.392
 2976POPC   GL138833  12.701  17.448   9.052
 2976POPC   GL238834  13.069  17.362   9.017
 2976POPC   C1A38835  12.748  17.375   8.613
 2976POPC   D2A38836  13.035  17.153   8.389
 2976POPC   C3A38837  12.937  17.163   7.963
 2976POPC   C4A38838  12.748  17.534   7.851
 2976POPC   C1B38839  13.252  17.558   8.647
 2976POPC   C2B38840  13.184  17.609   8.183
 2976POPC   C3B38841  13.263  17.668   7.730
 2976POPC   C4B38842  13.318  17.811   7.296
 2977POPC   NC338843  38.171  18.846   9.577
 2977POPC   PO438844  38.707  19.090   9.375
 2977POPC   GL138845  38.278  19.125   9.122
 2977POPC   GL238846  38.090  18.776   9.084
 2977POPC   C1A38847  38.256  19.224   8.643
 2977POPC   D2A38848  38.647  19.256   8.355
 2977POPC   C3A38849  38.592  19.229   7.923
 2977POPC   C4A38850  38.267  19.249   7.654
 2977POPC   C1B38851  38.423  18.767   8.797
 2977POPC   C2B38852  38.414  18.770   8.356
 2977POPC   C3B38853  38.368  18.772   7.916
 2977POPC   C4B38854  38.692  18.811   7.607
 2978POPC   NC338855  17.326  29.951   9.391
 2978POPC   PO438856  17.882  29.663   9.696
 2978POPC   GL138857  17.769  29.654   9.248
 2978POPC   GL238858  17.608  29.902   8.988
 2978POPC   C1A38859  17.828  29.485   8.833
 2978POPC   D2A38860  17.731  29.779   8.523
 2978POPC   C3A38861  17.750  29.663   8.132
 2978POPC   C4A38862  17.719  29.696   7.722
 2978POPC   C1B38863  17.236  30.024   8.745
 2978POPC   C2B38864  17.057  29.938   8.377
 2978POPC   C3B38865  17.009  30.159   8.025
 2978POPC   C4B38866  17.347  30.047   7.762
 2979POPC   NC338867   4.196  32.744   9.891
 2979POPC   PO438868   4.025  33.232   9.513
 2979POPC   GL138869   4.129  33.052   9.117
 2979POPC   GL238870   4.422  33.204   9.051
 2979POPC   C1A38871   3.996  33.082   8.651
 2979POPC   D2A38872   4.206  33.014   8.228
 2979POPC   C3A38873   3.920  33.030   7.864
 2979POPC   C4A38874   3.955  33.052   7.401
 2979POPC   C1B38875   4.451  32.881   8.708
 2979POPC   C2B38876   4.741  32.762   8.400
 2979POPC   C3B38877   4.695  32.922   8.009
 2979POPC   C4B38878   4.392  32.987   7.698
 2980POPC   NC338879  22.699  31.386   9.502
 2980POPC   PO438880  23.303  31.607   9.523
 2980POPC   GL138881  23.049  31.562   9.133
 2980POPC   GL238882  23.145  31.230   9.067
 2980POPC   C1A38883  23.097  31.622   8.658
 2980POPC   D2A38884  23.214  31.861   8.253
 2980POPC   C3A38885  22.995  31.741   7.860
 2980POPC   C4A38886  22.579  31.576   7.775
 2980POPC   C1B38887  22.766  31.242   8.766
 2980POPC   C2B38888  22.744  31.399   8.318
 2980POPC   C3B38889  22.956  31.259   7.957
 2980POPC   C4B38890  22.871  31.013   7.646
 2981POPC   NC338891  19.087  28.097   9.495
 2981POPC   PO438892  19.322  28.764   9.552
 2981POPC   GL138893  19.033  28.691   9.228
 2981POPC   GL238894  19.287  28.458   9.092
 2981POPC   C1A38895  19.001  28.760   8.796
 2981POPC   D2A38896  19.250  28.534   8.528
 2981POPC   C3A38897  19.071  28.519   8.140
 2981POPC   C4A38898  19.177  28.492   7.733
 2981POPC   C1B38899  19.178  28.113   8.821
 2981POPC   C2B38900  19.038  28.041   8.408
 2981POPC   C3B38901  19.159  27.993   7.982
 2981POPC   C4B38902  19.064  28.044   7.533
 2982POPC   NC338903  22.171  37.908   9.636
 2982POPC   PO438904  21.731  37.388   9.546
 2982POPC   GL138905  22.017  37.611   9.225
 2982POPC   GL238906  21.974  38.009   9.191
 2982POPC   C1A38907  22.250  37.425   8.842
 2982POPC   D2A38908  22.484  37.224   8.463
 2982POPC   C3A38909  22.288  37.287   8.039
 2982POPC   C4A38910  22.291  37.517   7.643
 2982POPC   C1B38911  22.212  37.958   8.832
 2982POPC   C2B38912  22.366  37.751   8.449
 2982POPC   C3B38913  22.227  37.802   8.049
 2982POPC   C4B38914  22.255  38.037   7.659
 2983POPC   NC338915  34.706  27.037   9.792
 2983POPC   PO438916  34.405  26.521   9.521
 2983POPC   GL138917  34.454  26.839   9.195
 2983POPC   GL238918  34.795  26.944   9.203
 2983POPC   C1A38919  34.582  26.772   8.750
 2983POPC   D2A38920  34.837  26.862   8.401
 2983POPC   C3A38921  34.595  26.994   8.031
 2983POPC   C4A38922  34.447  26.799   7.649
 2983POPC   C1B38923  34.823  27.215   8.827
 2983POPC   C2B38924  34.995  27.355   8.414
 2983POPC   C3B38925  35.083  27.146   8.024
 2983POPC   C4B38926  34.839  27.147   7.616
 2984POPC   NC338927  21.304  37.426   9.762
 2984POPC   PO438928  21.492  36.852   9.390
 2984POPC   GL138929  21.570  36.913   8.961
 2984POPC   GL238930  21.807  37.194   8.993
 2984POPC   C1A38931  21.306  36.801   8.617
 2984POPC   D2A38932  21.053  37.090   8.376
 2984POPC   C3A38933  21.281  37.255   8.030
 2984POPC   C4A38934  21.367  36.952   7.711
 2984POPC   C1B38935  21.554  37.241   8.594
 2984POPC   C2B38936  21.680  36.979   8.288
 2984POPC   C3B38937  21.820  37.085   7.929
 2984POPC   C4B38938  21.765  37.333   7.623
 2985POPC   NC338939  34.738  35.613   9.459
 2985POPC   PO438940  34.231  35.172   9.406
 2985POPC   GL138941  34.581  35.145   9.109
 2985POPC   GL238942  34.788  35.455   8.990
 2985POPC   C1A38943  34.667  35.083   8.677
 2985POPC   D2A38944  34.435  35.265   8.356
 2985POPC   C3A38945  34.681  35.211   8.044
 2985POPC   C4A38946  34.514  35.287   7.670
 2985POPC   C1B38947  34.402  35.540   8.779
 2985POPC   C2B38948  34.362  35.779   8.373
 2985POPC   C3B38949  34.506  35.700   7.978
 2985POPC   C4B38950  34.405  35.784   7.554
 2986POPC   NC338951   9.638   8.883   9.516
 2986POPC   PO438952   9.529   9.472   9.160
 2986POPC   GL138953   9.733   9.111   9.069
 2986POPC   GL238954  10.042   8.944   9.189
 2986POPC   C1A38955   9.779   8.778   8.782
 2986POPC   D2A38956   9.987   8.620   8.443
 2986POPC   C3A38957   9.744   8.810   8.127
 2986POPC   C4A38958   9.708   8.973   7.730
 2986POPC   C1B38959  10.129   9.162   8.763
 2986POPC   C2B38960   9.998   9.176   8.365
 2986POPC   C3B38961  10.154   9.100   7.952
 2986POPC   C4B38962  10.110   8.668   7.784
 2987POPC   NC338963   3.920  20.860   9.400
 2987POPC   PO438964   4.380  20.375   9.418
 2987POPC   GL138965   4.422  20.553   9.036
 2987POPC   GL238966   4.773  20.667   9.010
 2987POPC   C1A38967   4.207  20.406   8.654
 2987POPC   D2A38968   4.010  20.137   8.341
 2987POPC   C3A38969   4.116  20.290   7.933
 2987POPC   C4A38970   4.064  20.744   7.848
 2987POPC   C1B38971   4.983  20.606   8.606
 2987POPC   C2B38972   4.871  20.709   8.209
 2987POPC   C3B38973   4.537  20.581   7.998
 2987POPC   C4B38974   4.514  20.420   7.598
 2988POPC   NC338975  27.113  24.549   9.354
 2988POPC   PO438976  26.499  24.296   9.466
 2988POPC   GL138977  26.644  24.525   9.141
 2988POPC   GL238978  26.810  24.222   9.012
 2988POPC   C1A38979  26.624  24.703   8.753
 2988POPC   D2A38980  26.615  24.430   8.410
 2988POPC   C3A38981  26.682  24.484   7.985
 2988POPC   C4A38982  26.413  24.324   7.671
 2988POPC   C1B38983  27.050  24.435   8.726
 2988POPC   C2B38984  27.164  24.403   8.338
 2988POPC   C3B38985  27.131  24.206   8.015
 2988POPC   C4B38986  27.067  24.431   7.644
 2989POPC   NC338987   9.551  44.011   9.478
 2989POPC   PO438988  10.047  43.634   9.373
 2989POPC   GL138989   9.812  43.851   9.074
 2989POPC   GL238990   9.872  44.171   9.063
 2989POPC   C1A38991   9.578  43.894   8.700
 2989POPC   D2A38992   9.708  43.657   8.360
 2989POPC   C3A38993   9.627  43.683   7.981
 2989POPC   C4A38994   9.646  43.639   7.584
 2989POPC   C1B38995   9.874  44.302   8.620
 2989POPC   C2B38996   9.701  44.155   8.239
 2989POPC   C3B38997   9.759  44.140   7.800
 2989POPC   C4B38998   9.945  44.340   7.447
 2990POPC   NC338999  44.283  22.530   9.552
 2990POPC   PO439000  43.969  23.143   9.517
 2990POPC   GL139001  43.993  22.862   9.173
 2990POPC   GL239002  43.695  22.640   9.200
 2990POPC   C1A39003  44.100  22.963   8.744
 2990POPC   D2A39004  44.275  23.162   8.373
 2990POPC   C3A39005  44.053  23.179   7.985
 2990POPC   C4A39006  44.153  22.869   7.704
 2990POPC   C1B39007  43.584  22.885   8.821
 2990POPC   C2B39008  43.701  23.041   8.423
 2990POPC   C3B39009  43.514  23.108   8.048
 2990POPC   C4B39010  43.663  22.926   7.701
 2991POPC   NC339011  14.170  43.655   9.499
 2991POPC   PO439012  14.502  44.165   9.511
 2991POPC   GL139013  14.461  43.886   9.109
 2991POPC   GL239014  14.189  43.663   8.999
 2991POPC   C1A39015  14.353  44.038   8.669
 2991POPC   D2A39016  14.045  43.997   8.315
 2991POPC   C3A39017  14.249  44.060   7.901
 2991POPC   C4A39018  14.463  43.884   7.513
 2991POPC   C1B39019  14.241  43.552   8.576
 2991POPC   C2B39020  14.473  43.712   8.236
 2991POPC   C3B39021  14.597  43.520   7.870
 2991POPC   C4B39022  14.900  43.404   7.597
 2992POPC   NC339023  38.838  22.190   9.592
 2992POPC   PO439024  38.179  22.268   9.730
 2992POPC   GL139025  38.355  22.033   9.350
 2992POPC   GL239026  38.635  21.798   9.266
 2992POPC   C1A39027  38.307  22.003   8.908
 2992POPC   D2A39028  38.368  21.938   8.486
 2992POPC   C3A39029  38.435  22.214   8.163
 2992POPC   C4A39030  38.305  22.171   7.780
 2992POPC   C1B39031  38.781  21.810   8.797
 2992POPC   C2B39032  38.879  21.992   8.382
 2992POPC   C3B39033  38.781  21.899   7.940
 2992POPC   C4B39034  39.015  21.955   7.590
 2993POPC   NC339035  25.409  11.425   9.676
 2993POPC   PO439036  24.864  11.052   9.424
 2993POPC   GL139037  25.172  11.373   9.210
 2993POPC   GL239038  25.535  11.444   9.149
 2993POPC   C1A39039  25.132  11.524   8.812
 2993POPC   D2A39040  25.305  11.447   8.454
 2993POPC   C3A39041  25.050  11.413   8.109
 2993POPC   C4A39042  25.143  11.457   7.731
 2993POPC   C1B39043  25.688  11.116   8.849
 2993POPC   C2B39044  25.625  11.053   8.411
 2993POPC   C3B39045  25.559  11.315   8.021
 2993POPC   C4B39046  25.704  11.158   7.632
 2994POPC   NC339047  22.652   3.360   9.425
 2994POPC   PO439048  22.056   3.735   9.455
 2994POPC   GL139049  22.169   3.376   9.183
 2994POPC   GL239050  22.426   3.524   8.963
 2994POPC   C1A39051  22.100   3.186   8.761
 2994POPC   D2A39052  22.131   3.455   8.400
 2994POPC   C3A39053  22.200   3.332   7.997
 2994POPC   C4A39054  22.299   3.432   7.567
 2994POPC   C1B39055  21.985   3.701   8.820
 2994POPC   C2B39056  21.794   3.865   8.455
 2994POPC   C3B39057  21.857   3.729   8.054
 2994POPC   C4B39058  22.048   3.825   7.720
 2995POPC   NC339059  30.353   7.019   9.403
 2995POPC   PO439060  30.852   7.579   9.554
 2995POPC   GL139061  30.697   7.368   9.198
 2995POPC   GL239062  30.372   7.486   9.117
 2995POPC   C1A39063  30.793   7.209   8.786
 2995POPC   D2A39064  30.620   7.425   8.446
 2995POPC   C3A39065  30.787   7.395   8.078
 2995POPC   C4A39066  30.739   7.645   7.730
 2995POPC   C1B39067  30.282   7.184   8.757
 2995POPC   C2B39068  30.157   7.156   8.319
 2995POPC   C3B39069  30.326   7.256   7.916
 2995POPC   C4B39070  30.650   7.073   7.667
 2996POPC   NC339071   5.174  44.262   9.496
 2996POPC   PO439072   4.746  43.797   9.548
 2996POPC   GL139073   5.046  43.852   9.183
 2996POPC   GL239074   5.228  44.150   9.029
 2996POPC   C1A39075   5.012  43.812   8.735
 2996POPC   D2A39076   5.193  43.836   8.301
 2996POPC   C3A39077   4.933  43.905   7.981
 2996POPC   C4A39078   5.188  43.651   7.709
 2996POPC   C1B39079   5.423  44.103   8.654
 2996POPC   C2B39080   5.417  44.366   8.341
 2996POPC   C3B39081   5.471  44.416   7.954
 2996POPC   C4B39082   5.289  44.150   7.683
 2997POPC   NC339083  26.601  33.653   9.574
 2997POPC   PO439084  27.166  33.439   9.470
 2997POPC   GL139085  26.874  33.546   9.151
 2997POPC   GL239086  26.763  33.880   9.107
 2997POPC   C1A39087  26.839  33.444   8.722
 2997POPC   D2A39088  26.922  33.621   8.317
 2997POPC   C3A39089  27.081  33.622   7.898
 2997POPC   C4A39090  26.998  33.812   7.487
 2997POPC   C1B39091  26.899  34.025   8.674
 2997POPC   C2B39092  26.992  34.142   8.257
 2997POPC   C3B39093  26.792  34.136   7.885
 2997POPC   C4B39094  26.303  34.146   7.868
 2998POPC   NC339095  36.524   0.842   9.546
 2998POPC   PO439096  36.207   0.281   9.359
 2998POPC   GL139097  36.054   0.569   9.051
 2998POPC   GL239098  36.297   0.850   9.080
 2998POPC   C1A39099  36.029   0.466   8.612
 2998POPC   D2A39100  36.372   0.210   8.412
 2998POPC   C3A39101  36.410   0.287   7.988
 2998POPC   C4A39102  36.030   0.228   7.759
 2998POPC   C1B39103  36.111   1.025   8.684
 2998POPC   C2B39104  35.857   0.866   8.340
 2998POPC   C3B39105  35.950   0.696   7.950
 2998POPC   C4B39106  36.361   0.740   7.758
 2999POPC   NC339107   9.239  42.644   9.312
 2999POPC   PO439108   8.824  42.178   9.670
 2999POPC   GL139109   8.925  42.014   9.198
 2999POPC   GL239110   9.033  42.296   9.008
 2999POPC   C1A39111   8.762  42.016   8.719
 2999POPC   D2A39112   8.918  42.306   8.378
 2999POPC   C3A39113   9.034  42.161   7.953
 2999POPC   C4A39114   8.965  42.388   7.527
 2999POPC   C1B39115   9.300  42.528   8.690
 2999POPC   C2B39116   9.373  42.616   8.268
 2999POPC   C3B39117   9.093  42.680   7.939
 2999POPC   C4B39118   9.028  42.886   7.546
 3000POPC   NC339119  26.352  14.822   9.523
 3000POPC   PO439120  26.267  15.485   9.575
 3000POPC   GL139121  26.097  15.212   9.254
 3000POPC   GL239122  25.994  15.506   9.105
 3000POPC   C1A39123  26.306  15.058   8.837
 3000POPC   D2A39124  26.149  15.002   8.395
 3000POPC   C3A39125  26.342  15.112   8.006
 3000POPC   C4A39126  26.312  15.324   7.594
 3000POPC   C1B39127  25.885  15.335   8.731
 3000POPC   C2B39128  25.929  15.568   8.371
 3000POPC   C3B39129  25.971  15.557   7.942
 3000POPC   C4B39130  25.864  15.171   7.785
 3001POPC   NC339131  31.019  39.123   9.409
 3001POPC   PO439132  30.460  39.523   9.433
 3001POPC   GL139133  30.558  39.144   9.197
 3001POPC   GL239134  30.778  39.405   9.035
 3001POPC   C1A39135  30.749  38.983   8.780
 3001POPC   D2A39136  30.608  39.014   8.380
 3001POPC   C3A39137  30.854  39.030   8.042
 3001POPC   C4A39138  30.693  38.878   7.690
 3001POPC   C1B39139  30.344  39.337   8.797
 3001POPC   C2B39140  30.302  39.421   8.393
 3001POPC   C3B39141  30.619  39.516   8.123
 3001POPC   C4B39142  30.604  39.369   7.743
 3002POPC   NC339143   2.615  27.632   9.431
 3002POPC   PO439144   3.124  27.254   9.484
 3002POPC   GL139145   2.909  27.409   9.107
 3002POPC   GL239146   2.587  27.262   9.089
 3002POPC   C1A39147   2.685  27.659   8.782
 3002POPC   D2A39148   2.517  27.716   8.372
 3002POPC   C3A39149   2.785  27.863   8.045
 3002POPC   C4A39150   2.874  27.701   7.640
 3002POPC   C1B39151   2.519  27.040   8.751
 3002POPC   C2B39152   2.401  27.201   8.374
 3002POPC   C3B39153   2.630  27.323   8.005
 3002POPC   C4B39154   2.444  27.327   7.600
 3003POPC   NC339155  38.378  43.232   9.380
 3003POPC   PO439156  39.017  43.192   9.402
 3003POPC   GL139157  38.770  42.952   9.155
 3003POPC   GL239158  38.705  43.257   9.002
 3003POPC   C1A39159  38.480  42.869   8.809
 3003POPC   D2A39160  38.589  43.069   8.441
 3003POPC   C3A39161  38.363  43.028   8.052
 3003POPC   C4A39162  38.590  42.931   7.675
 3003POPC   C1B39163  38.396  43.443   8.756
 3003POPC   C2B39164  38.179  43.365   8.405
 3003POPC   C3B39165  38.246  43.536   8.017
 3003POPC   C4B39166  38.112  43.386   7.645
 3004POPC   NC339167  23.984  36.272   9.454
 3004POPC   PO439168  23.809  35.722   9.775
 3004POPC   GL139169  23.929  35.844   9.194
 3004POPC   GL239170  23.662  36.110   9.075
 3004POPC   C1A39171  23.773  35.780   8.726
 3004POPC   D2A39172  23.455  36.023   8.444
 3004POPC   C3A39173  23.515  35.918   8.011
 3004POPC   C4A39174  23.895  35.767   7.843
 3004POPC   C1B39175  23.916  36.282   8.748
 3004POPC   C2B39176  23.858  36.394   8.308
 3004POPC   C3B39177  23.845  36.273   7.888
 3004POPC   C4B39178  23.824  36.468   7.545
 3005POPC   NC339179  27.554   1.592   9.336
 3005POPC   PO439180  27.605   1.017   9.537
 3005POPC   GL139181  27.817   1.186   9.133
 3005POPC   GL239182  28.139   1.352   9.147
 3005POPC   C1A39183  27.727   1.249   8.663
 3005POPC   D2A39184  27.693   0.981   8.278
 3005POPC   C3A39185  27.513   1.017   7.836
 3005POPC   C4A39186  27.533   0.964   7.368
 3005POPC   C1B39187  28.139   1.544   8.706
 3005POPC   C2B39188  27.879   1.678   8.371
 3005POPC   C3B39189  27.743   1.455   8.012
 3005POPC   C4B39190  27.810   1.362   7.571
 3006POPC   NC339191  14.110  11.300   9.377
 3006POPC   PO439192  14.509  11.886   9.488
 3006POPC   GL139193  14.548  11.528   9.160
 3006POPC   GL239194  14.291  11.335   8.928
 3006POPC   C1A39195  14.550  11.695   8.723
 3006POPC   D2A39196  14.526  11.802   8.325
 3006POPC   C3A39197  14.399  11.486   8.062
 3006POPC   C4A39198  14.421  11.458   7.634
 3006POPC   C1B39199  14.684  11.188   8.780
 3006POPC   C2B39200  14.565  10.996   8.429
 3006POPC   C3B39201  14.572  10.982   8.027
 3006POPC   C4B39202  14.245  10.905   7.741
 3007POPC   NC339203   4.209   4.108  10.111
 3007POPC   PO439204   4.235   4.333   9.460
 3007POPC   GL139205   4.239   4.138   9.048
 3007POPC   GL239206   3.896   4.078   9.047
 3007POPC   C1A39207   4.393   4.152   8.602
 3007POPC   D2A39208   4.384   4.468   8.241
 3007POPC   C3A39209   4.555   4.307   7.818
 3007POPC   C4A39210   4.516   4.115   7.382
 3007POPC   C1B39211   3.907   4.291   8.639
 3007POPC   C2B39212   3.934   4.239   8.173
 3007POPC   C3B39213   4.072   4.548   7.852
 3007POPC   C4B39214   4.144   4.465   7.441
 3008POPC   NC339215  30.971  30.521   9.489
 3008POPC   PO439216  30.554  30.914   9.363
 3008POPC   GL139217  30.640  30.545   9.120
 3008POPC   GL239218  30.894  30.776   8.999
 3008POPC   C1A39219  30.891  30.296   8.829
 3008POPC   D2A39220  30.654  30.339   8.481
 3008POPC   C3A39221  30.757  30.286   8.070
 3008POPC   C4A39222  30.381  30.291   7.833
 3008POPC   C1B39223  30.569  30.821   8.694
 3008POPC   C2B39224  30.507  31.003   8.288
 3008POPC   C3B39225  30.586  30.763   7.925
 3008POPC   C4B39226  31.018  30.667   7.810
 3009POPC   NC339227  24.407   4.947   9.745
 3009POPC   PO439228  24.613   5.578   9.529
 3009POPC   GL139229  24.586   5.364   9.143
 3009POPC   GL239230  24.329   5.091   9.134
 3009POPC   C1A39231  24.780   5.383   8.741
 3009POPC   D2A39232  24.617   5.269   8.343
 3009POPC   C3A39233  24.620   5.478   7.952
 3009POPC   C4A39234  24.258   5.305   7.753
 3009POPC   C1B39235  24.444   4.919   8.702
 3009POPC   C2B39236  24.480   4.790   8.247
 3009POPC   C3B39237  24.605   4.959   7.837
 3009POPC   C4B39238  24.481   4.767   7.417
 3010POPC   NC339239  28.238  39.655   9.456
 3010POPC   PO439240  28.437  39.071   9.571
 3010POPC   GL139241  28.502  39.282   9.194
 3010POPC   GL239242  28.150  39.268   9.136
 3010POPC   C1A39243  28.469  39.261   8.739
 3010POPC   D2A39244  28.621  39.091   8.366
 3010POPC   C3A39245  28.415  39.188   8.041
 3010POPC   C4A39246  28.527  39.040   7.672
 3010POPC   C1B39247  28.001  39.502   8.792
 3010POPC   C2B39248  28.192  39.591   8.403
 3010POPC   C3B39249  28.126  39.598   7.976
 3010POPC   C4B39250  28.314  39.493   7.577
 3011POPC   NC339251  42.844  16.681   9.398
 3011POPC   PO439252  43.473  16.926   9.562
 3011POPC   GL139253  43.284  16.833   9.171
 3011POPC   GL239254  43.416  16.549   9.028
 3011POPC   C1A39255  43.000  16.902   8.803
 3011POPC   D2A39256  42.824  17.008   8.402
 3011POPC   C3A39257  42.921  16.788   8.032
 3011POPC   C4A39258  43.112  16.882   7.646
 3011POPC   C1B39259  43.261  16.493   8.660
 3011POPC   C2B39260  43.502  16.444   8.322
 3011POPC   C3B39261  43.371  16.536   7.955
 3011POPC   C4B39262  43.513  16.449   7.614
 3012POPC   NC339263  16.322  10.840   9.511
 3012POPC   PO439264  16.518  10.178   9.676
 3012POPC   GL139265  16.592  10.303   9.234
 3012POPC   GL239266  16.513  10.012   9.140
 3012POPC   C1A39267  16.594  10.528   8.814
 3012POPC   D2A39268  16.415  10.518   8.392
 3012POPC   C3A39269  16.653  10.729   8.122
 3012POPC   C4A39270  16.640  10.921   7.743
 3012POPC   C1B39271  16.817  10.073   8.787
 3012POPC   C2B39272  16.851  10.280   8.360
 3012POPC   C3B39273  16.642  10.185   7.975
 3012POPC   C4B39274  16.611  10.421   7.605
 3013POPC   NC339275  25.543  17.302   9.362
 3013POPC   PO439276  25.061  17.807   9.429
 3013POPC   GL139277  25.200  17.595   9.109
 3013POPC   GL239278  25.444  17.788   9.071
 3013POPC   C1A39279  25.105  17.382   8.749
 3013POPC   D2A39280  24.969  17.591   8.388
 3013POPC   C3A39281  25.204  17.582   8.013
 3013POPC   C4A39282  25.198  17.321   7.688
 3013POPC   C1B39283  25.580  17.541   8.732
 3013POPC   C2B39284  25.480  17.321   8.361
 3013POPC   C3B39285  25.666  17.326   7.952
 3013POPC   C4B39286  25.621  17.523   7.555
 3014POPC   NC339287   2.925  30.420   9.443
 3014POPC   PO439288   2.771  29.694   9.454
 3014POPC   GL139289   2.545  29.856   9.122
 3014POPC   GL239290   2.823  30.078   9.082
 3014POPC   C1A39291   2.549  29.886   8.690
 3014POPC   D2A39292   2.842  29.808   8.388
 3014POPC   C3A39293   2.662  29.820   8.041
 3014POPC   C4A39294   2.522  29.929   7.655
 3014POPC   C1B39295   3.114  29.865   8.818
 3014POPC   C2B39296   3.313  30.004   8.430
 3014POPC   C3B39297   3.215  29.864   8.026
 3014POPC   C4B39298   3.008  29.852   7.682
 3015POPC   NC339299  27.381  29.322   9.501
 3015POPC   PO439300  27.866  28.860   9.646
 3015POPC   GL139301  27.638  28.950   9.259
 3015POPC   GL239302  27.805  29.256   9.180
 3015POPC   C1A39303  27.579  29.023   8.800
 3015POPC   D2A39304  27.798  28.893   8.431
 3015POPC   C3A39305  27.609  29.016   8.053
 3015POPC   C4A39306  27.452  29.010   7.632
 3015POPC   C1B39307  27.921  29.556   8.866
 3015POPC   C2B39308  28.030  29.641   8.453
 3015POPC   C3B39309  27.913  29.572   8.058
 3015POPC   C4B39310  27.536  29.487   7.820
 3016POPC   NC339311   8.421   4.245   9.631
 3016POPC   PO439312   8.382   4.836   9.524
 3016POPC   GL139313   8.467   4.513   9.165
 3016POPC   GL239314   8.286   4.191   9.129
 3016POPC   C1A39315   8.469   4.369   8.697
 3016POPC   D2A39316   8.490   4.047   8.370
 3016POPC   C3A39317   8.463   4.252   7.970
 3016POPC   C4A39318   8.195   4.391   7.617
 3016POPC   C1B39319   8.059   4.038   8.727
 3016POPC   C2B39320   7.935   3.892   8.287
 3016POPC   C3B39321   7.906   3.990   7.818
 3016POPC   C4B39322   7.903   3.962   7.360
 3017POPC   NC339323  19.205  25.692   9.815
 3017POPC   PO439324  19.538  25.219   9.452
 3017POPC   GL139325  19.630  25.125   9.084
 3017POPC   GL239326  19.428  24.845   9.079
 3017POPC   C1A39327  19.654  25.382   8.711
 3017POPC   D2A39328  19.528  25.617   8.361
 3017POPC   C3A39329  19.813  25.562   8.037
 3017POPC   C4A39330  19.866  25.345   7.664
 3017POPC   C1B39331  19.669  24.851   8.672
 3017POPC   C2B39332  19.809  25.092   8.297
 3017POPC   C3B39333  19.701  24.902   7.911
 3017POPC   C4B39334  19.804  24.896   7.463
 3018POPC   NC339335  33.261   5.214   9.501
 3018POPC   PO439336  32.597   5.319   9.533
 3018POPC   GL139337  32.673   5.067   9.172
 3018POPC   GL239338  32.966   4.845   9.220
 3018POPC   C1A39339  32.791   5.022   8.744
 3018POPC   D2A39340  32.995   4.851   8.372
 3018POPC   C3A39341  32.754   5.083   8.109
 3018POPC   C4A39342  32.867   5.307   7.745
 3018POPC   C1B39343  33.260   4.852   8.852
 3018POPC   C2B39344  33.480   5.018   8.473
 3018POPC   C3B39345  33.317   5.115   8.049
 3018POPC   C4B39346  33.078   4.826   7.834
 3019POPC   NC339347  17.186  41.274   9.430
 3019POPC   PO439348  16.503  41.494   9.539
 3019POPC   GL139349  16.727  41.562   9.170
 3019POPC   GL239350  16.441  41.757   9.007
 3019POPC   C1A39351  16.868  41.634   8.727
 3019POPC   D2A39352  16.720  41.775   8.319
 3019POPC   C3A39353  16.882  41.619   7.928
 3019POPC   C4A39354  16.915  41.695   7.511
 3019POPC   C1B39355  16.469  41.338   8.786
 3019POPC   C2B39356  16.564  41.284   8.398
 3019POPC   C3B39357  16.430  41.426   8.012
 3019POPC   C4B39358  16.433  41.143   7.708
 3020POPC   NC339359  30.898  10.329   9.552
 3020POPC   PO439360  30.647  10.897   9.480
 3020POPC   GL139361  30.547  10.664   9.110
 3020POPC   GL239362  30.776  10.426   9.077
 3020POPC   C1A39363  30.416  10.802   8.727
 3020POPC   D2A39364  30.578  11.052   8.400
 3020POPC   C3A39365  30.495  10.770   8.089
 3020POPC   C4A39366  30.633  10.522   7.752
 3020POPC   C1B39367  30.693  10.245   8.693
 3020POPC   C2B39368  30.826  10.430   8.322
 3020POPC   C3B39369  31.068  10.323   7.991
 3020POPC   C4B39370  30.942  10.130   7.650
 3021POPC   NC339371  13.026  22.864   9.684
 3021POPC   PO439372  13.558  23.167   9.488
 3021POPC   GL139373  13.202  23.037   9.220
 3021POPC   GL239374  12.822  23.167   9.271
 3021POPC   C1A39375  12.991  22.945   8.832
 3021POPC   D2A39376  12.870  22.673   8.449
 3021POPC   C3A39377  12.973  22.873   8.057
 3021POPC   C4A39378  12.924  22.649   7.707
 3021POPC   C1B39379  12.571  23.229   8.854
 3021POPC   C2B39380  12.755  23.175   8.429
 3021POPC   C3B39381  12.557  23.187   8.042
 3021POPC   C4B39382  12.452  23.098   7.645
 3022POPC   NC339383  35.667  26.576   9.481
 3022POPC   PO439384  35.128  26.915   9.604
 3022POPC   GL139385  35.315  27.040   9.207
 3022POPC   GL239386  35.684  27.139   9.215
 3022POPC   C1A39387  35.198  26.858   8.808
 3022POPC   D2A39388  35.307  26.561   8.496
 3022POPC   C3A39389  35.166  26.622   8.078
 3022POPC   C4A39390  35.192  26.794   7.660
 3022POPC   C1B39391  35.732  27.028   8.769
 3022POPC   C2B39392  35.481  27.015   8.383
 3022POPC   C3B39393  35.572  26.947   7.964
 3022POPC   C4B39394  35.448  27.220   7.633
 3023POPC   NC339395  32.138  21.103   9.492
 3023POPC   PO439396  32.726  21.387   9.579
 3023POPC   GL139397  32.462  21.331   9.183
 3023POPC   GL239398  32.130  21.525   9.196
 3023POPC   C1A39399  32.406  21.392   8.754
 3023POPC   D2A39400  32.450  21.703   8.423
 3023POPC   C3A39401  32.373  21.491   8.083
 3023POPC   C4A39402  32.323  21.229   7.797
 3023POPC   C1B39403  31.892  21.310   8.850
 3023POPC   C2B39404  32.019  21.349   8.430
 3023POPC   C3B39405  31.877  21.319   8.023
 3023POPC   C4B39406  31.958  21.498   7.607
 3024POPC   NC339407  31.646  17.862   9.485
 3024POPC   PO439408  31.338  17.239   9.637
 3024POPC   GL139409  31.557  17.453   9.215
 3024POPC   GL239410  31.676  17.748   8.996
 3024POPC   C1A39411  31.623  17.306   8.775
 3024POPC   D2A39412  31.466  17.211   8.346
 3024POPC   C3A39413  31.661  17.336   7.971
 3024POPC   C4A39414  31.534  17.567   7.631
 3024POPC   C1B39415  31.511  17.770   8.538
 3024POPC   C2B39416  31.204  17.882   8.172
 3024POPC   C3B39417  31.435  18.062   7.828
 3024POPC   C4B39418  31.859  17.914   7.854
 3025POPC   NC339419   3.020  44.014   9.447
 3025POPC   PO439420   2.465  43.622   9.420
 3025POPC   GL139421   2.731  43.769   9.056
 3025POPC   GL239422   3.044  43.817   8.990
 3025POPC   C1A39423   2.744  43.899   8.611
 3025POPC   D2A39424   2.396  43.754   8.399
 3025POPC   C3A39425   2.386  43.852   7.979
 3025POPC   C4A39426   2.670  44.138   7.778
 3025POPC   C1B39427   3.193  43.633   8.612
 3025POPC   C2B39428   3.109  43.829   8.239
 3025POPC   C3B39429   3.153  44.081   7.890
 3025POPC   C4B39430   3.035  43.878   7.514
 3026POPC   NC339431   1.795  16.217   9.668
 3026POPC   PO439432   2.090  15.802   9.276
 3026POPC   GL139433   2.160  15.991   8.946
 3026POPC   GL239434   2.130  16.291   9.070
 3026POPC   C1A39435   2.170  15.877   8.539
 3026POPC   D2A39436   1.930  15.662   8.242
 3026POPC   C3A39437   1.933  15.954   7.907
 3026POPC   C4A39438   1.958  16.151   7.509
 3026POPC   C1B39439   2.273  16.378   8.643
 3026POPC   C2B39440   2.284  16.280   8.195
 3026POPC   C3B39441   2.331  16.375   7.757
 3026POPC   C4B39442   2.405  16.384   7.300
 3027POPC   NC339443  10.035  26.297   9.455
 3027POPC   PO439444  10.660  26.119   9.550
 3027POPC   GL139445  10.753  26.172   9.133
 3027POPC   GL239446  10.430  26.316   9.084
 3027POPC   C1A39447  10.727  25.929   8.771
 3027POPC   D2A39448  10.543  25.996   8.400
 3027POPC   C3A39449  10.742  25.956   8.035
 3027POPC   C4A39450  10.521  26.021   7.660
 3027POPC   C1B39451  10.245  26.326   8.667
 3027POPC   C2B39452  10.219  26.553   8.294
 3027POPC   C3B39453  10.263  26.413   7.881
 3027POPC   C4B39454   9.994  26.054   7.724
 3028POPC   NC339455  28.057   0.252   9.582
 3028POPC   PO439456  28.506  44.724   9.655
 3028POPC   GL139457  28.475  44.715   9.198
 3028POPC   GL239458  28.686  44.511   9.070
 3028POPC   C1A39459  28.554  44.856   8.734
 3028POPC   D2A39460  28.386  44.621   8.365
 3028POPC   C3A39461  28.195  44.793   7.980
 3028POPC   C4A39462  28.409  44.692   7.594
 3028POPC   C1B39463  28.828  44.412   8.674
 3028POPC   C2B39464  28.727  44.209   8.283
 3028POPC   C3B39465  28.671  44.290   7.850
 3028POPC   C4B39466  28.686  44.325   7.383
 3029POPC   NC339467  39.521  41.037   9.460
 3029POPC   PO439468  39.033  41.457   9.564
 3029POPC   GL139469  39.189  41.342   9.177
 3029POPC   GL239470  38.928  41.555   9.087
 3029POPC   C1A39471  39.243  41.341   8.717
 3029POPC   D2A39472  39.532  41.477   8.370
 3029POPC   C3A39473  39.268  41.470   7.988
 3029POPC   C4A39474  39.346  41.676   7.605
 3029POPC   C1B39475  39.039  41.837   8.787
 3029POPC   C2B39476  39.209  41.870   8.383
 3029POPC   C3B39477  38.993  41.925   8.031
 3029POPC   C4B39478  38.814  41.834   7.680
 3030POPC   NC339479   1.617  17.721   9.548
 3030POPC   PO439480   2.121  17.261   9.511
 3030POPC   GL139481   2.023  17.561   9.234
 3030POPC   GL239482   1.725  17.393   9.178
 3030POPC   C1A39483   2.103  17.457   8.805
 3030POPC   D2A39484   2.213  17.236   8.410
 3030POPC   C3A39485   2.051  17.450   8.050
 3030POPC   C4A39486   2.006  17.735   7.711
 3030POPC   C1B39487   1.656  17.727   8.878
 3030POPC   C2B39488   1.767  17.628   8.464
 3030POPC   C3B39489   1.644  17.757   8.068
 3030POPC   C4B39490   1.517  17.881   7.683
 3031POPC   NC339491  35.904  18.490   9.486
 3031POPC   PO439492  36.247  17.888   9.541
 3031POPC   GL139493  36.163  18.107   9.122
 3031POPC   GL239494  35.918  18.400   8.993
 3031POPC   C1A39495  36.360  18.359   8.752
 3031POPC   D2A39496  36.533  18.507   8.351
 3031POPC   C3A39497  36.247  18.372   8.054
 3031POPC   C4A39498  36.247  18.067   7.765
 3031POPC   C1B39499  35.852  18.062   8.730
 3031POPC   C2B39500  36.040  17.992   8.363
 3031POPC   C3B39501  35.819  18.047   8.027
 3031POPC   C4B39502  35.806  18.372   7.747
 3032POPC   NC339503  16.498   2.141   9.438
 3032POPC   PO439504  16.671   1.607   9.696
 3032POPC   GL139505  16.739   1.793   9.176
 3032POPC   GL239506  16.626   2.066   8.982
 3032POPC   C1A39507  16.790   1.681   8.732
 3032POPC   D2A39508  16.974   1.680   8.342
 3032POPC   C3A39509  16.694   1.864   8.070
 3032POPC   C4A39510  16.630   1.797   7.620
 3032POPC   C1B39511  16.410   2.325   8.716
 3032POPC   C2B39512  16.515   2.397   8.289
 3032POPC   C3B39513  16.250   2.393   7.944
 3032POPC   C4B39514  16.301   2.380   7.523
 3033POPC   NC339515  38.829  18.302   9.395
 3033POPC   PO439516  38.215  18.358   9.526
 3033POPC   GL139517  38.408  18.346   9.112
 3033POPC   GL239518  38.515  18.022   9.107
 3033POPC   C1A39519  38.687  18.354   8.707
 3033POPC   D2A39520  38.857  18.496   8.286
 3033POPC   C3A39521  38.574  18.301   7.995
 3033POPC   C4A39522  38.410  18.390   7.585
 3033POPC   C1B39523  38.581  17.863   8.762
 3033POPC   C2B39524  38.406  18.000   8.407
 3033POPC   C3B39525  38.476  17.792   8.072
 3033POPC   C4B39526  38.451  17.905   7.671
 3034POPC   NC339527  36.428   5.762   9.459
 3034POPC   PO439528  36.928   6.152   9.560
 3034POPC   GL139529  36.831   6.006   9.144
 3034POPC   GL239530  36.616   6.287   9.170
 3034POPC   C1A39531  36.987   5.911   8.707
 3034POPC   D2A39532  37.143   5.564   8.440
 3034POPC   C3A39533  36.842   5.519   8.109
 3034POPC   C4A39534  36.907   5.699   7.720
 3034POPC   C1B39535  36.658   6.365   8.753
 3034POPC   C2B39536  36.985   6.370   8.460
 3034POPC   C3B39537  37.059   6.101   8.116
 3034POPC   C4B39538  36.891   6.196   7.727
 3035POPC   NC339539  25.796  29.669   9.390
 3035POPC   PO439540  26.420  29.918   9.473
 3035POPC   GL139541  26.262  30.071   9.105
 3035POPC   GL239542  25.938  29.954   8.977
 3035POPC   C1A39543  26.381  30.026   8.687
 3035POPC   D2A39544  26.159  29.926   8.326
 3035POPC   C3A39545  26.353  29.845   7.962
 3035POPC   C4A39546  26.193  29.742   7.569
 3035POPC   C1B39547  25.794  29.572   8.720
 3035POPC   C2B39548  25.688  29.374   8.325
 3035POPC   C3B39549  25.873  29.585   7.980
 3035POPC   C4B39550  25.827  29.974   7.846
 3036POPC   NC339551  38.186  33.484   9.345
 3036POPC   PO439552  37.986  34.035   9.639
 3036POPC   GL139553  38.300  34.019   9.254
 3036POPC   GL239554  38.577  33.801   9.217
 3036POPC   C1A39555  38.266  33.832   8.800
 3036POPC   D2A39556  38.101  33.737   8.378
 3036POPC   C3A39557  38.372  33.938   8.070
 3036POPC   C4A39558  38.534  33.772   7.699
 3036POPC   C1B39559  38.756  33.982   8.854
 3036POPC   C2B39560  38.797  33.970   8.396
 3036POPC   C3B39561  38.837  34.140   7.953
 3036POPC   C4B39562  38.988  33.960   7.601
 3037POPC   NC339563   1.335  13.616   9.445
 3037POPC   PO439564   0.699  13.424   9.221
 3037POPC   GL139565   1.039  13.647   9.039
 3037POPC   GL239566   0.963  14.014   9.116
 3037POPC   C1A39567   1.355  13.592   8.681
 3037POPC   D2A39568   1.411  13.325   8.287
 3037POPC   C3A39569   1.077  13.357   7.969
 3037POPC   C4A39570   0.950  13.396   7.488
 3037POPC   C1B39571   0.906  13.923   8.656
 3037POPC   C2B39572   0.925  13.854   8.205
 3037POPC   C3B39573   1.012  14.091   7.840
 3037POPC   C4B39574   1.262  13.725   7.700
 3038POPC   NC339575  11.388   0.956   9.716
 3038POPC   PO439576  11.012   1.412   9.700
 3038POPC   GL139577  11.233   1.192   9.292
 3038POPC   GL239578  11.458   0.860   9.228
 3038POPC   C1A39579  11.240   1.099   8.838
 3038POPC   D2A39580  11.117   1.321   8.476
 3038POPC   C3A39581  11.070   1.180   8.041
 3038POPC   C4A39582  11.148   1.172   7.591
 3038POPC   C1B39583  11.706   0.861   8.837
 3038POPC   C2B39584  11.765   1.143   8.493
 3038POPC   C3B39585  11.604   1.112   8.087
 3038POPC   C4B39586  11.663   1.122   7.659
 3039POPC   NC339587   9.866   6.307   9.440
 3039POPC   PO439588   9.411   6.834   9.428
 3039POPC   GL139589   9.749   6.750   9.150
 3039POPC   GL239590  10.080   6.926   9.194
 3039POPC   C1A39591   9.745   6.503   8.787
 3039POPC   D2A39592   9.922   6.501   8.405
 3039POPC   C3A39593   9.655   6.647   8.136
 3039POPC   C4A39594   9.687   6.497   7.779
 3039POPC   C1B39595  10.130   6.848   8.749
 3039POPC   C2B39596   9.969   7.029   8.366
 3039POPC   C3B39597   9.999   6.940   7.917
 3039POPC   C4B39598   9.994   7.158   7.546
 3040POPC   NC339599  12.573  25.706   9.312
 3040POPC   PO439600  12.911  26.313   9.413
 3040POPC   GL139601  12.969  26.116   9.072
 3040POPC   GL239602  13.127  25.778   9.105
 3040POPC   C1A39603  12.910  26.355   8.741
 3040POPC   D2A39604  12.747  26.510   8.417
 3040POPC   C3A39605  12.569  26.288   8.083
 3040POPC   C4A39606  12.877  26.375   7.793
 3040POPC   C1B39607  12.852  25.742   8.734
 3040POPC   C2B39608  12.840  25.981   8.390
 3040POPC   C3B39609  12.901  25.897   7.972
 3040POPC   C4B39610  12.653  25.681   7.685
 3041POPC   NC339611   0.869   5.943   9.488
 3041POPC   PO439612   1.489   6.095   9.238
 3041POPC   GL139613   1.215   5.861   9.052
 3041POPC   GL239614   1.454   5.632   8.890
 3041POPC   C1A39615   0.963   5.895   8.702
 3041POPC   D2A39616   0.748   5.904   8.322
 3041POPC   C3A39617   0.972   5.818   7.947
 3041POPC   C4A39618   1.315   5.543   7.879
 3041POPC   C1B39619   1.483   5.888   8.569
 3041POPC   C2B39620   1.286   6.087   8.252
 3041POPC   C3B39621   1.483   6.366   7.985
 3041POPC   C4B39622   1.546   6.253   7.555
 3042POPC   NC339623   7.176  28.614   9.589
 3042POPC   PO439624   7.843  28.490   9.638
 3042POPC   GL139625   7.539  28.532   9.248
 3042POPC   GL239626   7.272  28.340   9.149
 3042POPC   C1A39627   7.559  28.511   8.786
 3042POPC   D2A39628   7.818  28.617   8.451
 3042POPC   C3A39629   7.627  28.512   8.071
 3042POPC   C4A39630   7.731  28.240   7.737
 3042POPC   C1B39631   7.050  28.462   8.770
 3042POPC   C2B39632   7.114  28.590   8.348
 3042POPC   C3B39633   6.965  28.429   7.972
 3042POPC   C4B39634   7.269  28.436   7.688
 3043POPC   NC339635  42.317  25.543   9.628
 3043POPC   PO439636  42.574  24.999   9.381
 3043POPC   GL139637  42.239  25.271   9.185
 3043POPC   GL239638  42.258  24.997   8.920
 3043POPC   C1A39639  42.085  25.450   8.771
 3043POPC   D2A39640  42.176  25.147   8.412
 3043POPC   C3A39641  42.019  25.181   7.965
 3043POPC   C4A39642  42.203  25.421   7.623
 3043POPC   C1B39643  42.580  25.332   8.815
 3043POPC   C2B39644  42.585  25.506   8.429
 3043POPC   C3B39645  42.450  25.435   8.070
 3043POPC   C4B39646  42.703  25.501   7.756
 3044POPC   NC339647   6.512  24.633   9.419
 3044POPC   PO439648   6.632  24.025   9.387
 3044POPC   GL139649   6.556  24.298   9.024
 3044POPC   GL239650   6.577  24.688   8.924
 3044POPC   C1A39651   6.492  24.277   8.611
 3044POPC   D2A39652   6.778  24.450   8.320
 3044POPC   C3A39653   6.751  24.323   7.887
 3044POPC   C4A39654   6.455  24.378   7.539
 3044POPC   C1B39655   6.934  24.877   8.689
 3044POPC   C2B39656   7.026  24.885   8.259
 3044POPC   C3B39657   6.710  24.824   7.951
 3044POPC   C4B39658   6.859  24.686   7.540
 3045POPC   NC339659   6.233   9.378   9.381
 3045POPC   PO439660   5.685   9.813   9.568
 3045POPC   GL139661   5.777   9.944   9.132
 3045POPC   GL239662   6.122   9.997   8.987
 3045POPC   C1A39663   5.658   9.938   8.692
 3045POPC   D2A39664   5.949   9.854   8.344
 3045POPC   C3A39665   5.786   9.587   8.011
 3045POPC   C4A39666   5.680   9.842   7.637
 3045POPC   C1B39667   6.007   9.576   8.801
 3045POPC   C2B39668   6.107   9.375   8.411
 3045POPC   C3B39669   6.307   9.572   8.104
 3045POPC   C4B39670   6.167   9.651   7.685
 3046POPC   NC339671  35.783  23.392   9.566
 3046POPC   PO439672  36.327  23.768   9.495
 3046POPC   GL139673  36.263  23.645   9.107
 3046POPC   GL239674  35.900  23.677   9.119
 3046POPC   C1A39675  36.431  23.685   8.701
 3046POPC   D2A39676  36.182  23.552   8.373
 3046POPC   C3A39677  36.118  23.805   8.028
 3046POPC   C4A39678  36.274  23.620   7.683
 3046POPC   C1B39679  35.721  23.393   8.798
 3046POPC   C2B39680  35.804  23.206   8.395
 3046POPC   C3B39681  35.896  23.333   7.965
 3046POPC   C4B39682  35.731  23.561   7.576
 3047POPC   NC339683   1.356  15.318   9.679
 3047POPC   PO439684   0.785  14.946   9.536
 3047POPC   GL139685   1.014  15.036   9.149
 3047POPC   GL239686   1.236  15.348   9.160
 3047POPC   C1A39687   1.137  14.987   8.723
 3047POPC   D2A39688   0.983  14.881   8.323
 3047POPC   C3A39689   1.184  15.008   7.945
 3047POPC   C4A39690   1.191  14.944   7.473
 3047POPC   C1B39691   1.155  15.550   8.775
 3047POPC   C2B39692   0.902  15.509   8.392
 3047POPC   C3B39693   0.941  15.692   7.987
 3047POPC   C4B39694   1.203  15.486   7.687
 3048POPC   NC339695  30.233  22.924   9.427
 3048POPC   PO439696  29.843  22.225   9.430
 3048POPC   GL139697  29.878  22.206   9.027
 3048POPC   GL239698  30.263  22.228   9.079
 3048POPC   C1A39699  29.683  22.224   8.648
 3048POPC   D2A39700  29.729  21.985   8.285
 3048POPC   C3A39701  29.671  22.277   7.984
 3048POPC   C4A39702  29.683  22.391   7.541
 3048POPC   C1B39703  30.174  22.060   8.653
 3048POPC   C2B39704  30.240  21.832   8.319
 3048POPC   C3B39705  30.161  22.090   7.973
 3048POPC   C4B39706  30.347  22.292   7.680
 3049POPC   NC339707  10.553  17.950   9.541
 3049POPC   PO439708  10.188  18.483   9.364
 3049POPC   GL139709  10.531  18.393   9.054
 3049POPC   GL239710  10.712  18.061   9.082
 3049POPC   C1A39711  10.558  18.426   8.596
 3049POPC   D2A39712  10.278  18.272   8.265
 3049POPC   C3A39713  10.420  18.532   7.938
 3049POPC   C4A39714  10.757  18.539   7.655
 3049POPC   C1B39715  10.467  17.955   8.743
 3049POPC   C2B39716  10.663  17.942   8.333
 3049POPC   C3B39717  10.697  18.089   7.920
 3049POPC   C4B39718  10.808  18.043   7.473
 3050POPC   NC339719  10.036  40.243   9.508
 3050POPC   PO439720   9.475  39.975   9.772
 3050POPC   GL139721   9.550  40.029   9.253
 3050POPC   GL239722   9.865  39.941   9.095
 3050POPC   C1A39723   9.457  40.206   8.814
 3050POPC   D2A39724   9.579  40.072   8.373
 3050POPC   C3A39725   9.467  40.227   7.937
 3050POPC   C4A39726   9.651  40.048   7.555
 3050POPC   C1B39727   9.970  40.297   8.808
 3050POPC   C2B39728  10.010  40.377   8.353
 3050POPC   C3B39729   9.969  40.268   7.905
 3050POPC   C4B39730  10.005  40.482   7.511
 3051POPC   NC339731  18.436  37.521   9.484
 3051POPC   PO439732  18.677  38.157   9.430
 3051POPC   GL139733  18.510  37.881   9.092
 3051POPC   GL239734  18.152  37.889   8.975
 3051POPC   C1A39735  18.488  37.622   8.698
 3051POPC   D2A39736  18.516  37.442   8.285
 3051POPC   C3A39737  18.416  37.746   7.956
 3051POPC   C4A39738  18.140  38.002   7.715
 3051POPC   C1B39739  18.080  37.412   8.908
 3051POPC   C2B39740  18.066  37.293   8.502
 3051POPC   C3B39741  18.048  37.383   8.077
 3051POPC   C4B39742  17.998  37.508   7.698
 3052POPC   NC339743  37.809  37.517   9.435
 3052POPC   PO439744  37.211  37.936   9.440
 3052POPC   GL139745  37.509  37.821   9.149
 3052POPC   GL239746  37.395  37.506   9.119
 3052POPC   C1A39747  37.708  37.644   8.760
 3052POPC   D2A39748  37.938  37.731   8.420
 3052POPC   C3A39749  37.660  37.871   8.111
 3052POPC   C4A39750  37.823  37.800   7.707
 3052POPC   C1B39751  37.187  37.472   8.756
 3052POPC   C2B39752  37.238  37.671   8.387
 3052POPC   C3B39753  37.234  37.551   7.981
 3052POPC   C4B39754  37.205  37.468   7.550
 3053POPC   NC339755  32.226  15.674   9.691
 3053POPC   PO439756  32.667  15.973   9.296
 3053POPC   GL139757  32.314  15.814   9.072
 3053POPC   GL239758  32.069  15.579   9.213
 3053POPC   C1A39759  32.247  15.943   8.640
 3053POPC   D2A39760  31.988  16.167   8.342
 3053POPC   C3A39761  32.142  16.023   7.978
 3053POPC   C4A39762  32.511  16.187   7.853
 3053POPC   C1B39763  31.999  15.517   8.789
 3053POPC   C2B39764  31.911  15.624   8.369
 3053POPC   C3B39765  31.834  15.614   7.951
 3053POPC   C4B39766  32.081  15.654   7.565
 3054POPC   NC339767   6.293  19.223   9.343
 3054POPC   PO439768   5.626  19.396   9.356
 3054POPC   GL139769   5.859  19.198   9.089
 3054POPC   GL239770   5.893  18.891   9.201
 3054POPC   C1A39771   5.819  19.234   8.707
 3054POPC   D2A39772   5.515  19.256   8.434
 3054POPC   C3A39773   5.689  19.226   8.094
 3054POPC   C4A39774   5.674  19.235   7.706
 3054POPC   C1B39775   6.078  18.807   8.797
 3054POPC   C2B39776   5.871  18.826   8.405
 3054POPC   C3B39777   5.965  18.797   7.996
 3054POPC   C4B39778   5.818  18.569   7.656
 3055POPC   NC339779  19.350  44.956   9.421
 3055POPC   PO439780  18.920   0.508   9.548
 3055POPC   GL139781  18.931   0.258   9.194
 3055POPC   GL239782  18.654   0.450   9.044
 3055POPC   C1A39783  19.111   0.248   8.763
 3055POPC   D2A39784  19.299   0.032   8.365
 3055POPC   C3A39785  19.106   0.128   7.951
 3055POPC   C4A39786  19.198   0.528   7.749
 3055POPC   C1B39787  18.913   0.755   8.802
 3055POPC   C2B39788  19.052   0.785   8.367
 3055POPC   C3B39789  18.911   0.878   7.968
 3055POPC   C4B39790  18.699   0.519   7.779
 3056POPC   NC339791  33.370   6.822   9.555
 3056POPC   PO439792  32.907   6.268   9.477
 3056POPC   GL139793  33.161   6.494   9.134
 3056POPC   GL239794  33.201   6.868   9.018
 3056POPC   C1A39795  33.025   6.537   8.705
 3056POPC   D2A39796  33.209   6.793   8.433
 3056POPC   C3A39797  33.087   6.505   8.157
 3056POPC   C4A39798  33.089   6.485   7.720
 3056POPC   C1B39799  32.861   7.036   8.732
 3056POPC   C2B39800  32.628   6.860   8.381
 3056POPC   C3B39801  32.664   6.676   7.971
 3056POPC   C4B39802  32.721   6.813   7.532
 3057POPC   NC339803  28.780  41.098   9.439
 3057POPC   PO439804  29.378  40.801   9.439
 3057POPC   GL139805  29.088  40.838   9.075
 3057POPC   GL239806  28.777  40.624   9.095
 3057POPC   C1A39807  29.072  40.968   8.621
 3057POPC   D2A39808  29.309  40.899   8.222
 3057POPC   C3A39809  29.073  41.070   7.872
 3057POPC   C4A39810  28.898  41.157   7.418
 3057POPC   C1B39811  28.965  40.472   8.735
 3057POPC   C2B39812  28.892  40.589   8.325
 3057POPC   C3B39813  29.096  40.532   7.931
 3057POPC   C4B39814  29.060  40.707   7.534
 3058POPC   NC339815  19.579   4.190   9.391
 3058POPC   PO439816  20.212   4.125   9.430
 3058POPC   GL139817  20.009   4.415   9.119
 3058POPC   GL239818  19.638   4.532   9.039
 3058POPC   C1A39819  19.999   4.513   8.687
 3058POPC   D2A39820  19.679   4.490   8.382
 3058POPC   C3A39821  19.825   4.395   7.968
 3058POPC   C4A39822  19.577   4.387   7.604
 3058POPC   C1B39823  19.572   4.168   8.764
 3058POPC   C2B39824  19.519   3.942   8.415
 3058POPC   C3B39825  19.437   4.059   8.025
 3058POPC   C4B39826  19.334   3.944   7.652
 3059POPC   NC339827  34.221  18.128   9.436
 3059POPC   PO439828  34.794  18.260   9.462
 3059POPC   GL139829  34.593  18.159   9.100
 3059POPC   GL239830  34.415  18.481   9.118
 3059POPC   C1A39831  34.464  17.984   8.735
 3059POPC   D2A39832  34.436  18.192   8.373
 3059POPC   C3A39833  34.515  18.021   8.001
 3059POPC   C4A39834  34.655  17.861   7.608
 3059POPC   C1B39835  34.611  18.524   8.735
 3059POPC   C2B39836  34.488  18.707   8.351
 3059POPC   C3B39837  34.625  18.719   7.959
 3059POPC   C4B39838  34.645  18.396   7.658
 3060POPC   NC339839  36.605  17.597   9.465
 3060POPC   PO439840  36.075  17.179   9.379
 3060POPC   GL139841  36.166  17.552   9.134
 3060POPC   GL239842  36.482  17.558   8.966
 3060POPC   C1A39843  36.019  17.578   8.724
 3060POPC   D2A39844  36.218  17.521   8.344
 3060POPC   C3A39845  35.930  17.537   8.031
 3060POPC   C4A39846  35.858  17.155   7.885
 3060POPC   C1B39847  36.473  17.876   8.641
 3060POPC   C2B39848  36.540  17.888   8.186
 3060POPC   C3B39849  36.418  17.582   7.835
 3060POPC   C4B39850  36.356  17.746   7.385
 3061POPC   NC339851   5.225   9.837   9.558
 3061POPC   PO439852   4.719   9.445   9.450
 3061POPC   GL139853   4.953   9.753   9.119
 3061POPC   GL239854   5.256  10.014   9.097
 3061POPC   C1A39855   5.108   9.809   8.671
 3061POPC   D2A39856   4.906   9.992   8.347
 3061POPC   C3A39857   4.915   9.801   7.968
 3061POPC   C4A39858   4.876   9.964   7.553
 3061POPC   C1B39859   5.431   9.568   8.980
 3061POPC   C2B39860   5.527   9.431   8.558
 3061POPC   C3B39861   5.306   9.555   8.186
 3061POPC   C4B39862   5.276   9.537   7.725
 3062POPC   NC339863  44.391  37.461   9.721
 3062POPC   PO439864  44.648  37.985   9.445
 3062POPC   GL139865  44.484  37.758   9.132
 3062POPC   GL239866  44.428  37.424   9.192
 3062POPC   C1A39867  44.562  37.750   8.724
 3062POPC   D2A39868  44.760  37.746   8.335
 3062POPC   C3A39869  44.559  37.828   7.952
 3062POPC   C4A39870  44.709  37.960   7.552
 3062POPC   C1B39871  44.777  37.335   8.904
 3062POPC   C2B39872  44.850  37.231   8.465
 3062POPC   C3B39873  44.659  37.314   8.055
 3062POPC   C4B39874  44.521  37.457   7.609
 3063POPC   NC339875  42.851   0.037   9.526
 3063POPC   PO439876  42.150  44.911   9.501
 3063POPC   GL139877  42.178  44.954   9.088
 3063POPC   GL239878  42.193  44.591   8.981
 3063POPC   C1A39879  42.228  44.983   8.661
 3063POPC   D2A39880  42.142  44.650   8.429
 3063POPC   C3A39881  42.369  44.663   8.081
 3063POPC   C4A39882  42.277  44.899   7.721
 3063POPC   C1B39883  42.530  44.472   8.698
 3063POPC   C2B39884  42.606  44.219   8.326
 3063POPC   C3B39885  42.510  44.228   7.881
 3063POPC   C4B39886  42.418  44.417   7.490
 3064POPC   NC339887   4.631   7.967   9.465
 3064POPC   PO439888   3.952   8.165   9.409
 3064POPC   GL139889   4.214   8.287   9.082
 3064POPC   GL239890   4.588   8.364   9.133
 3064POPC   C1A39891   4.252   8.568   8.726
 3064POPC   D2A39892   4.180   8.704   8.319
 3064POPC   C3A39893   4.317   8.381   8.078
 3064POPC   C4A39894   4.362   8.185   7.714
 3064POPC   C1B39895   4.551   8.128   8.745
 3064POPC   C2B39896   4.692   8.182   8.334
 3064POPC   C3B39897   4.743   7.937   7.949
 3064POPC   C4B39898   4.934   7.826   7.547
 3065POPC   NC339899  24.434  42.915   9.440
 3065POPC   PO439900  24.568  43.521   9.565
 3065POPC   GL139901  24.487  43.342   9.095
 3065POPC   GL239902  24.369  42.973   8.945
 3065POPC   C1A39903  24.572  43.317   8.644
 3065POPC   D2A39904  24.606  42.936   8.434
 3065POPC   C3A39905  24.619  42.990   8.027
 3065POPC   C4A39906  24.611  43.125   7.622
 3065POPC   C1B39907  24.063  43.106   8.634
 3065POPC   C2B39908  24.021  42.940   8.237
 3065POPC   C3B39909  24.144  43.076   7.827
 3065POPC   C4B39910  24.172  43.144   7.359
 3066POPC   NC339911  40.361  28.617   9.373
 3066POPC   PO439912  40.830  28.190   9.442
 3066POPC   GL139913  40.744  28.420   9.108
 3066POPC   GL239914  40.412  28.278   8.994
 3066POPC   C1A39915  40.718  28.684   8.753
 3066POPC   D2A39916  40.560  28.758   8.369
 3066POPC   C3A39917  40.812  28.505   8.104
 3066POPC   C4A39918  40.631  28.703   7.774
 3066POPC   C1B39919  40.758  28.164   8.676
 3066POPC   C2B39920  40.677  27.979   8.293
 3066POPC   C3B39921  40.607  28.014   7.853
 3066POPC   C4B39922  40.631  28.034   7.356
 3067POPC   NC339923  36.302  25.891   9.836
 3067POPC   PO439924  36.130  26.509   9.609
 3067POPC   GL139925  35.981  26.253   9.242
 3067POPC   GL239926  36.106  25.943   9.284
 3067POPC   C1A39927  35.903  26.405   8.811
 3067POPC   D2A39928  35.951  26.172   8.422
 3067POPC   C3A39929  36.006  26.337   8.016
 3067POPC   C4A39930  36.313  26.089   7.846
 3067POPC   C1B39931  36.116  25.894   8.831
 3067POPC   C2B39932  36.174  25.656   8.451
 3067POPC   C3B39933  36.333  25.602   8.052
 3067POPC   C4B39934  36.177  25.638   7.661
 3068POPC   NC339935  38.392  16.161   9.588
 3068POPC   PO439936  38.774  15.657   9.526
 3068POPC   GL139937  38.515  15.727   9.140
 3068POPC   GL239938  38.236  15.938   9.139
 3068POPC   C1A39939  38.317  15.662   8.700
 3068POPC   D2A39940  38.565  15.786   8.323
 3068POPC   C3A39941  38.442  15.738   7.904
 3068POPC   C4A39942  38.084  15.757   7.771
 3068POPC   C1B39943  38.304  16.165   8.735
 3068POPC   C2B39944  38.161  16.108   8.310
 3068POPC   C3B39945  38.449  16.232   8.001
 3068POPC   C4B39946  38.540  16.436   7.628
 3069POPC   NC339947  13.770   6.882   9.521
 3069POPC   PO439948  13.813   7.516   9.592
 3069POPC   GL139949  13.704   7.304   9.223
 3069POPC   GL239950  13.901   7.107   9.077
 3069POPC   C1A39951  13.673   7.446   8.770
 3069POPC   D2A39952  13.407   7.285   8.429
 3069POPC   C3A39953  13.550   7.383   8.022
 3069POPC   C4A39954  13.400   7.479   7.613
 3069POPC   C1B39955  14.123   7.182   8.736
 3069POPC   C2B39956  13.898   7.136   8.384
 3069POPC   C3B39957  14.054   7.237   8.037
 3069POPC   C4B39958  13.918   7.310   7.665
 3070POPC   NC339959  33.126  19.405   9.442
 3070POPC   PO439960  32.923  19.995   9.402
 3070POPC   GL139961  33.093  19.985   9.016
 3070POPC   GL239962  33.269  19.742   9.034
 3070POPC   C1A39963  32.871  19.804   8.685
 3070POPC   D2A39964  32.635  19.593   8.398
 3070POPC   C3A39965  32.859  19.619   8.009
 3070POPC   C4A39966  33.088  19.823   7.678
 3070POPC   C1B39967  33.384  19.808   8.591
 3070POPC   C2B39968  33.382  19.591   8.166
 3070POPC   C3B39969  33.303  19.372   7.764
 3070POPC   C4B39970  33.331  19.540   7.331
 3071POPC   NC339971  42.085   6.504   9.588
 3071POPC   PO439972  42.392   7.086   9.434
 3071POPC   GL139973  42.361   6.788   9.089
 3071POPC   GL239974  42.037   6.649   9.043
 3071POPC   C1A39975  42.435   6.580   8.699
 3071POPC   D2A39976  42.183   6.560   8.341
 3071POPC   C3A39977  42.406   6.642   7.974
 3071POPC   C4A39978  42.503   6.969   7.712
 3071POPC   C1B39979  42.002   6.266   8.754
 3071POPC   C2B39980  42.078   6.059   8.339
 3071POPC   C3B39981  42.129   6.219   7.912
 3071POPC   C4B39982  42.192   6.138   7.436
 3072POPC   NC339983  28.988  22.179   9.602
 3072POPC   PO439984  28.677  22.649   9.240
 3072POPC   GL139985  29.088  22.392   9.130
 3072POPC   GL239986  29.201  22.030   9.171
 3072POPC   C1A39987  29.181  22.376   8.717
 3072POPC   D2A39988  28.887  22.359   8.388
 3072POPC   C3A39989  29.178  22.355   8.093
 3072POPC   C4A39990  29.380  22.673   7.844
 3072POPC   C1B39991  29.305  21.871   8.782
 3072POPC   C2B39992  29.209  21.893   8.368
 3072POPC   C3B39993  29.358  21.748   7.973
 3072POPC   C4B39994  29.300  22.087   7.684
 3073POPC   NC339995  33.322  27.512   9.611
 3073POPC   PO439996  33.279  28.088   9.310
 3073POPC   GL139997  33.029  27.803   9.118
 3073POPC   GL239998  33.115  27.482   9.158
 3073POPC   C1A39999  32.822  27.766   8.739
 3073POPC   D2A40000  32.990  27.678   8.321
 3073POPC   C3A40001  32.773  27.838   7.941
 3073POPC   C4A40002  32.980  27.589   7.678
 3073POPC   C1B40003  33.126  27.363   8.753
 3073POPC   C2B40004  33.260  27.183   8.393
 3073POPC   C3B40005  33.306  27.370   8.011
 3073POPC   C4B40006  33.292  27.197   7.650
 3074POPC   NC340007  42.957   2.453   9.295
 3074POPC   PO440008  42.337   2.840   9.516
 3074POPC   GL140009  42.435   2.778   9.110
 3074POPC   GL240010  42.098   2.761   9.031
 3074POPC   C1A40011  42.522   3.016   8.738
 3074POPC   D2A40012  42.743   3.003   8.339
 3074POPC   C3A40013  42.470   2.881   8.021
 3074POPC   C4A40014  42.365   2.646   7.653
 3074POPC   C1B40015  42.053   2.846   8.621
 3074POPC   C2B40016  42.024   3.005   8.221
 3074POPC   C3B40017  41.926   2.810   7.829
 3074POPC   C4B40018  41.935   2.727   7.370
 3075POPC   NC340019  26.960  33.023   9.501
 3075POPC   PO440020  27.693  33.115   9.550
 3075POPC   GL140021  27.507  33.184   9.138
 3075POPC   GL240022  27.164  33.140   9.030
 3075POPC   C1A40023  27.694  33.231   8.704
 3075POPC   D2A40024  27.829  33.495   8.327
 3075POPC   C3A40025  27.744  33.267   7.928
 3075POPC   C4A40026  27.316  33.177   7.751
 3075POPC   C1B40027  27.342  32.742   8.862
 3075POPC   C2B40028  27.286  32.549   8.453
 3075POPC   C3B40029  27.401  32.791   8.106
 3075POPC   C4B40030  27.390  32.645   7.708
 3076POPC   NC340031  11.894   9.819   9.460
 3076POPC   PO440032  12.532   9.654   9.443
 3076POPC   GL140033  12.212   9.600   9.090
 3076POPC   GL240034  12.040   9.891   8.988
 3076POPC   C1A40035  12.050   9.510   8.665
 3076POPC   D2A40036  12.183   9.688   8.287
 3076POPC   C3A40037  12.096   9.484   7.902
 3076POPC   C4A40038  12.027   9.883   7.745
 3076POPC   C1B40039  11.800  10.088   8.679
 3076POPC   C2B40040  11.853  10.196   8.242
 3076POPC   C3B40041  11.664  10.205   7.829
 3076POPC   C4B40042  11.483  10.131   7.397
 3077POPC   NC340043  26.488  19.580   9.632
 3077POPC   PO440044  26.749  18.979   9.490
 3077POPC   GL140045  26.865  19.097   9.104
 3077POPC   GL240046  26.560  19.244   8.992
 3077POPC   C1A40047  27.001  19.044   8.738
 3077POPC   D2A40048  26.855  19.106   8.363
 3077POPC   C3A40049  27.042  18.981   7.988
 3077POPC   C4A40050  26.931  18.902   7.618
 3077POPC   C1B40051  26.503  18.895   8.729
 3077POPC   C2B40052  26.519  18.693   8.336
 3077POPC   C3B40053  26.548  18.912   7.958
 3077POPC   C4B40054  26.403  18.985   7.552
 3078POPC   NC340055  24.496   3.382   9.685
 3078POPC   PO440056  24.335   3.898   9.314
 3078POPC   GL140057  24.424   3.475   9.160
 3078POPC   GL240058  24.740   3.343   9.207
 3078POPC   C1A40059  24.566   3.482   8.752
 3078POPC   D2A40060  24.732   3.794   8.518
 3078POPC   C3A40061  24.805   3.716   8.087
 3078POPC   C4A40062  24.468   3.566   7.799
 3078POPC   C1B40063  24.928   3.126   8.851
 3078POPC   C2B40064  24.937   3.326   8.438
 3078POPC   C3B40065  24.719   3.214   8.051
 3078POPC   C4B40066  24.682   3.057   7.614
 3079POPC   NC340067   6.665  16.626   9.744
 3079POPC   PO440068   6.240  17.040   9.776
 3079POPC   GL140069   6.461  16.998   9.359
 3079POPC   GL240070   6.207  17.039   9.111
 3079POPC   C1A40071   6.719  17.035   8.934
 3079POPC   D2A40072   6.758  16.763   8.554
 3079POPC   C3A40073   6.843  16.840   8.134
 3079POPC   C4A40074   6.870  17.138   7.830
 3079POPC   C1B40075   6.289  16.708   8.787
 3079POPC   C2B40076   6.301  16.672   8.312
 3079POPC   C3B40077   6.430  16.651   7.878
 3079POPC   C4B40078   6.635  16.328   7.606
 3080POPC   NC340079  19.921  12.607   9.408
 3080POPC   PO440080  19.588  13.085   9.306
 3080POPC   GL140081  19.745  12.884   8.996
 3080POPC   GL240082  19.625  12.591   8.993
 3080POPC   C1A40083  19.884  13.065   8.644
 3080POPC   D2A40084  19.656  13.303   8.391
 3080POPC   C3A40085  19.764  13.134   8.030
 3080POPC   C4A40086  20.137  13.074   7.834
 3080POPC   C1B40087  19.614  12.395   8.624
 3080POPC   C2B40088  19.750  12.641   8.256
 3080POPC   C3B40089  20.038  12.581   7.894
 3080POPC   C4B40090  20.197  12.718   7.463
 3081POPC   NC340091  32.542  14.024   9.476
 3081POPC   PO440092  32.143  13.473   9.526
 3081POPC   GL140093  32.229  13.477   9.118
 3081POPC   GL240094  32.210  13.840   9.121
 3081POPC   C1A40095  32.396  13.565   8.699
 3081POPC   D2A40096  32.380  13.765   8.307
 3081POPC   C3A40097  32.507  13.578   7.889
 3081POPC   C4A40098  32.461  13.516   7.429
 3081POPC   C1B40099  32.080  13.988   8.736
 3081POPC   C2B40100  31.876  13.900   8.333
 3081POPC   C3B40101  32.042  13.809   7.939
 3081POPC   C4B40102  32.229  13.944   7.593
 3082POPC   NC340103  44.102   3.828   9.492
 3082POPC   PO440104  43.466   4.239   9.521
 3082POPC   GL140105  43.821   4.202   9.256
 3082POPC   GL240106  43.717   3.862   9.149
 3082POPC   C1A40107  43.883   4.473   8.897
 3082POPC   D2A40108  43.622   4.581   8.531
 3082POPC   C3A40109  43.847   4.478   8.165
 3082POPC   C4A40110  43.731   4.515   7.757
 3082POPC   C1B40111  43.937   3.965   8.784
 3082POPC   C2B40112  43.774   4.000   8.364
 3082POPC   C3B40113  43.899   3.994   7.932
 3082POPC   C4B40114  44.328   3.994   7.774
 3083POPC   NC340115  20.233   8.829   9.515
 3083POPC   PO440116  20.862   9.007   9.522
 3083POPC   GL140117  20.606   8.983   9.170
 3083POPC   GL240118  20.313   9.206   9.170
 3083POPC   C1A40119  20.729   8.913   8.773
 3083POPC   D2A40120  20.838   9.069   8.409
 3083POPC   C3A40121  20.669   8.879   8.100
 3083POPC   C4A40122  20.666   9.080   7.752
 3083POPC   C1B40123  20.215   8.936   8.788
 3083POPC   C2B40124  20.127   8.774   8.357
 3083POPC   C3B40125  20.186   8.924   7.910
 3083POPC   C4B40126  20.341   8.786   7.496
 3084POPC   NC340127  44.705  14.918   9.506
 3084POPC   PO440128  44.300  15.520   9.432
 3084POPC   GL140129  44.516  15.280   9.133
 3084POPC   GL240130  44.839  15.335   9.206
 3084POPC   C1A40131  44.491  15.033   8.748
 3084POPC   D2A40132  44.325  15.020   8.307
 3084POPC   C3A40133  44.618  14.868   8.046
 3084POPC   C4A40134  44.802  14.916   7.668
 3084POPC   C1B40135  44.865  15.451   8.772
 3084POPC   C2B40136  44.830  15.215   8.404
 3084POPC   C3B40137   0.029  15.190   8.042
 3084POPC   C4B40138  44.873  15.422   7.722
 3085POPC   NC340139   9.055  13.166   9.445
 3085POPC   PO440140   8.592  12.608   9.391
 3085POPC   GL140141   8.857  12.816   9.142
 3085POPC   GL240142   9.052  12.614   9.078
 3085POPC   C1A40143   8.912  13.142   8.837
 3085POPC   D2A40144   8.994  13.208   8.427
 3085POPC   C3A40145   8.835  13.073   8.041
 3085POPC   C4A40146   8.685  13.363   7.735
 3085POPC   C1B40147   8.965  12.670   8.637
 3085POPC   C2B40148   9.213  12.759   8.264
 3085POPC   C3B40149   9.010  12.604   7.901
 3085POPC   C4B40150   8.896  12.774   7.488
 3086POPC   NC340151  41.817  40.539   9.470
 3086POPC   PO440152  41.584  39.902   9.579
 3086POPC   GL140153  41.612  39.871   9.153
 3086POPC   GL240154  41.914  40.066   9.067
 3086POPC   C1A40155  41.442  39.927   8.756
 3086POPC   D2A40156  41.529  39.875   8.339
 3086POPC   C3A40157  41.358  40.240   8.124
 3086POPC   C4A40158  41.197  40.202   7.739
 3086POPC   C1B40159  42.007  40.278   8.643
 3086POPC   C2B40160  41.867  40.248   8.192
 3086POPC   C3B40161  41.688  39.971   7.851
 3086POPC   C4B40162  41.789  40.051   7.426
 3087POPC   NC340163  17.819  29.102   9.581
 3087POPC   PO440164  18.489  29.049   9.474
 3087POPC   GL140165  18.254  28.968   9.099
 3087POPC   GL240166  18.515  28.753   9.019
 3087POPC   C1A40167  17.992  28.973   8.754
 3087POPC   D2A40168  17.985  29.242   8.377
 3087POPC   C3A40169  18.108  29.012   7.992
 3087POPC   C4A40170  17.879  29.041   7.592
 3087POPC   C1B40171  18.521  28.938   8.611
 3087POPC   C2B40172  18.591  28.858   8.165
 3087POPC   C3B40173  18.591  29.152   7.784
 3087POPC   C4B40174  18.564  29.415   7.381
 3088POPC   NC340175  37.857  29.635   9.459
 3088POPC   PO440176  37.374  30.074   9.439
 3088POPC   GL140177  37.662  29.950   9.114
 3088POPC   GL240178  37.510  29.633   9.069
 3088POPC   C1A40179  37.754  29.842   8.679
 3088POPC   D2A40180  37.572  29.726   8.282
 3088POPC   C3A40181  37.852  29.800   7.920
 3088POPC   C4A40182  37.896  30.085   7.572
 3088POPC   C1B40183  37.316  29.526   8.697
 3088POPC   C2B40184  37.111  29.498   8.307
 3088POPC   C3B40185  37.224  29.450   7.889
 3088POPC   C4B40186  37.313  29.595   7.495
 3089POPC   NC340187   2.812  21.836   9.561
 3089POPC   PO440188   2.868  21.208   9.569
 3089POPC   GL140189   2.703  21.288   9.127
 3089POPC   GL240190   2.452  21.555   9.079
 3089POPC   C1A40191   2.863  21.423   8.712
 3089POPC   D2A40192   2.831  21.259   8.279
 3089POPC   C3A40193   2.857  21.486   7.874
 3089POPC   C4A40194   3.214  21.591   7.613
 3089POPC   C1B40195   2.348  21.412   8.716
 3089POPC   C2B40196   2.402  21.515   8.317
 3089POPC   C3B40197   2.408  21.247   7.958
 3089POPC   C4B40198   2.456  21.173   7.512
 3090POPC   NC340199  25.711   7.622   9.233
 3090POPC   PO440200  26.204   7.398   9.634
 3090POPC   GL140201  26.219   7.453   9.199
 3090POPC   GL240202  25.980   7.232   9.001
 3090POPC   C1A40203  26.350   7.533   8.790
 3090POPC   D2A40204  26.115   7.634   8.399
 3090POPC   C3A40205  26.303   7.615   7.985
 3090POPC   C4A40206  26.220   7.277   7.710
 3090POPC   C1B40207  25.609   7.256   8.701
 3090POPC   C2B40208  25.720   7.231   8.285
 3090POPC   C3B40209  25.794   7.480   7.932
 3090POPC   C4B40210  25.522   7.370   7.631
 3091POPC   NC340211  33.418  22.636   9.553
 3091POPC   PO440212  32.897  22.940   9.299
 3091POPC   GL140213  33.141  22.644   9.051
 3091POPC   GL240214  33.483  22.756   9.071
 3091POPC   C1A40215  33.014  22.482   8.628
 3091POPC   D2A40216  32.879  22.449   8.179
 3091POPC   C3A40217  32.865  22.784   7.878
 3091POPC   C4A40218  32.566  22.822   7.528
 3091POPC   C1B40219  33.388  22.935   8.682
 3091POPC   C2B40220  33.287  22.918   8.234
 3091POPC   C3B40221  33.477  23.081   7.871
 3091POPC   C4B40222  33.294  23.408   7.590
 3092POPC   NC340223  25.932   7.753   9.760
 3092POPC   PO440224  26.417   8.170   9.547
 3092POPC   GL140225  26.312   7.981   9.133
 3092POPC   GL240226  25.974   8.029   9.011
 3092POPC   C1A40227  26.379   8.026   8.665
 3092POPC   D2A40228  26.081   8.158   8.331
 3092POPC   C3A40229  26.214   8.190   7.926
 3092POPC   C4A40230  26.015   7.906   7.672
 3092POPC   C1B40231  25.936   8.410   8.742
 3092POPC   C2B40232  25.745   8.585   8.374
 3092POPC   C3B40233  25.739   8.404   7.956
 3092POPC   C4B40234  25.918   8.395   7.525
 3093POPC   NC340235  41.938  28.048   9.538
 3093POPC   PO440236  42.248  27.377   9.609
 3093POPC   GL140237  42.233  27.376   9.142
 3093POPC   GL240238  42.506  27.580   8.994
 3093POPC   C1A40239  42.086  27.523   8.725
 3093POPC   D2A40240  42.273  27.588   8.333
 3093POPC   C3A40241  42.038  27.495   7.995
 3093POPC   C4A40242  42.317  27.375   7.691
 3093POPC   C1B40243  42.783  27.768   8.718
 3093POPC   C2B40244  42.716  27.887   8.299
 3093POPC   C3B40245  42.682  27.678   7.906
 3093POPC   C4B40246  42.664  27.808   7.488
 3094POPC   NC340247  37.287  31.661   9.279
 3094POPC   PO440248  36.818  31.434   9.638
 3094POPC   GL140249  36.879  31.355   9.175
 3094POPC   GL240250  37.209  31.186   9.116
 3094POPC   C1A40251  36.976  31.462   8.745
 3094POPC   D2A40252  37.206  31.663   8.443
 3094POPC   C3A40253  36.923  31.708   8.125
 3094POPC   C4A40254  36.993  31.672   7.716
 3094POPC   C1B40255  37.197  31.002   8.729
 3094POPC   C2B40256  37.008  31.121   8.340
 3094POPC   C3B40257  36.900  31.226   7.940
 3094POPC   C4B40258  37.115  31.115   7.591
 3095POPC   NC340259   9.667  17.778   9.554
 3095POPC   PO440260   9.711  17.104   9.347
 3095POPC   GL140261   9.672  17.485   9.134
 3095POPC   GL240262  10.018  17.619   9.116
 3095POPC   C1A40263   9.489  17.574   8.740
 3095POPC   D2A40264   9.430  17.897   8.427
 3095POPC   C3A40265   9.460  17.747   8.014
 3095POPC   C4A40266   9.470  17.449   7.703
 3095POPC   C1B40267   9.970  17.389   8.729
 3095POPC   C2B40268   9.800  17.535   8.339
 3095POPC   C3B40269   9.940  17.560   7.933
 3095POPC   C4B40270  10.174  17.504   7.559
 3096POPC   NC340271   8.275  28.311   9.654
 3096POPC   PO440272   7.986  28.735   9.182
 3096POPC   GL140273   8.385  28.607   8.986
 3096POPC   GL240274   8.378  28.260   9.067
 3096POPC   C1A40275   8.476  28.686   8.549
 3096POPC   D2A40276   8.244  28.475   8.223
 3096POPC   C3A40277   8.073  28.712   7.899
 3096POPC   C4A40278   8.440  28.692   7.676
 3096POPC   C1B40279   8.142  28.043   8.693
 3096POPC   C2B40280   7.971  28.042   8.228
 3096POPC   C3B40281   8.202  28.111   7.817
 3096POPC   C4B40282   8.166  27.969   7.351
 3097POPC   NC340283  37.638  30.367   9.662
 3097POPC   PO440284  37.719  31.010   9.512
 3097POPC   GL140285  37.560  30.818   9.145
 3097POPC   GL240286  37.585  30.458   9.147
 3097POPC   C1A40287  37.697  30.861   8.727
 3097POPC   D2A40288  37.714  30.733   8.308
 3097POPC   C3A40289  37.792  30.983   7.966
 3097POPC   C4A40290  37.508  30.824   7.713
 3097POPC   C1B40291  37.676  30.345   8.744
 3097POPC   C2B40292  37.637  30.229   8.325
 3097POPC   C3B40293  37.698  30.398   7.919
 3097POPC   C4B40294  37.995  30.593   7.632
 3098POPC   NC340295   1.013   1.042   9.525
 3098POPC   PO440296   1.468   1.531   9.556
 3098POPC   GL140297   1.249   1.382   9.186
 3098POPC   GL240298   0.983   1.167   9.038
 3098POPC   C1A40299   1.429   1.290   8.804
 3098POPC   D2A40300   1.511   1.142   8.403
 3098POPC   C3A40301   1.582   1.463   8.105
 3098POPC   C4A40302   1.570   1.287   7.711
 3098POPC   C1B40303   0.956   0.878   8.663
 3098POPC   C2B40304   1.022   0.870   8.245
 3098POPC   C3B40305   1.132   1.203   7.990
 3098POPC   C4B40306   0.950   1.259   7.625
 3099POPC   NC340307  36.057  27.445   9.436
 3099POPC   PO440308  36.641  27.879   9.404
 3099POPC   GL140309  36.258  27.782   9.108
 3099POPC   GL240310  36.189  27.397   8.969
 3099POPC   C1A40311  35.956  27.778   8.745
 3099POPC   D2A40312  35.971  27.739   8.284
 3099POPC   C3A40313  35.837  28.033   8.005
 3099POPC   C4A40314  35.981  27.938   7.592
 3099POPC   C1B40315  36.119  27.318   8.560
 3099POPC   C2B40316  35.948  27.242   8.181
 3099POPC   C3B40317  36.170  27.441   7.848
 3099POPC   C4B40318  36.632  27.524   7.770
 3100POPC   NC340319  18.692  36.749   9.480
 3100POPC   PO440320  19.416  36.816   9.457
 3100POPC   GL140321  19.087  36.961   9.218
 3100POPC   GL240322  19.001  36.627   9.094
 3100POPC   C1A40323  18.864  37.130   8.865
 3100POPC   D2A40324  18.974  36.959   8.496
 3100POPC   C3A40325  18.802  37.025   8.131
 3100POPC   C4A40326  18.965  37.019   7.757
 3100POPC   C1B40327  19.019  36.474   8.685
 3100POPC   C2B40328  18.775  36.530   8.308
 3100POPC   C3B40329  18.766  36.570   7.860
 3100POPC   C4B40330  18.629  36.780   7.461
 3101POPC   NC340331  32.784  10.842   9.468
 3101POPC   PO440332  32.692  11.492   9.440
 3101POPC   GL140333  32.903  11.427   9.071
 3101POPC   GL240334  33.028  11.091   9.100
 3101POPC   C1A40335  33.160  11.569   8.735
 3101POPC   D2A40336  33.246  11.737   8.322
 3101POPC   C3A40337  33.181  11.384   8.043
 3101POPC   C4A40338  32.984  11.417   7.624
 3101POPC   C1B40339  32.793  10.941   8.719
 3101POPC   C2B40340  32.648  11.031   8.276
 3101POPC   C3B40341  32.875  11.001   7.883
 3101POPC   C4B40342  32.760  10.994   7.436
 3102POPC   NC340343  30.100  26.863   9.618
 3102POPC   PO440344  29.586  26.533   9.612
 3102POPC   GL140345  29.787  26.723   9.178
 3102POPC   GL240346  29.825  27.049   9.210
 3102POPC   C1A40347  30.001  26.987   8.747
 3102POPC   D2A40348  29.936  27.247   8.310
 3102POPC   C3A40349  30.062  27.026   7.882
 3102POPC   C4A40350  30.164  26.910   7.416
 3102POPC   C1B40351  29.511  27.013   8.825
 3102POPC   C2B40352  29.449  27.035   8.362
 3102POPC   C3B40353  29.543  27.166   7.939
 3102POPC   C4B40354  29.692  27.067   7.528
 3103POPC   NC340355   8.283  32.868  10.238
 3103POPC   PO440356   7.962  32.877   9.758
 3103POPC   GL140357   7.991  32.858   9.238
 3103POPC   GL240358   8.044  33.196   9.053
 3103POPC   C1A40359   8.023  32.779   8.754
 3103POPC   D2A40360   7.944  32.913   8.307
 3103POPC   C3A40361   8.152  32.809   7.938
 3103POPC   C4A40362   8.235  33.018   7.544
 3103POPC   C1B40363   8.198  33.241   8.593
 3103POPC   C2B40364   8.460  33.111   8.229
 3103POPC   C3B40365   8.579  33.300   7.820
 3103POPC   C4B40366   8.713  33.669   7.514
 3104POPC   NC340367   8.641  31.688   9.547
 3104POPC   PO440368   8.144  31.187   9.553
 3104POPC   GL140369   8.343  31.270   9.181
 3104POPC   GL240370   8.378  31.580   9.139
 3104POPC   C1A40371   8.095  31.416   8.760
 3104POPC   D2A40372   7.969  31.612   8.353
 3104POPC   C3A40373   8.008  31.404   7.921
 3104POPC   C4A40374   8.062  31.460   7.453
 3104POPC   C1B40375   8.609  31.365   8.779
 3104POPC   C2B40376   8.525  31.531   8.384
 3104POPC   C3B40377   8.366  31.772   8.060
 3104POPC   C4B40378   8.490  31.542   7.725
 3105POPC   NC340379   3.727  10.258   9.487
 3105POPC   PO440380   3.663   9.620   9.445
 3105POPC   GL140381   3.374   9.772   9.120
 3105POPC   GL240382   3.637   9.967   9.078
 3105POPC   C1A40383   3.351   9.568   8.707
 3105POPC   D2A40384   3.571   9.473   8.313
 3105POPC   C3A40385   3.480   9.648   7.900
 3105POPC   C4A40386   3.317   9.456   7.522
 3105POPC   C1B40387   3.546  10.060   8.713
 3105POPC   C2B40388   3.716  10.030   8.380
 3105POPC   C3B40389   3.655  10.133   7.974
 3105POPC   C4B40390   3.986  10.150   7.716
 3106POPC   NC340391   8.813  17.258   9.579
 3106POPC   PO440392   9.260  17.726   9.793
 3106POPC   GL140393   9.164  17.645   9.282
 3106POPC   GL240394   8.816  17.516   9.125
 3106POPC   C1A40395   9.077  17.833   8.837
 3106POPC   D2A40396   8.926  17.810   8.380
 3106POPC   C3A40397   8.974  17.631   7.959
 3106POPC   C4A40398   8.656  17.448   7.800
 3106POPC   C1B40399   8.943  17.368   8.676
 3106POPC   C2B40400   9.242  17.352   8.307
 3106POPC   C3B40401   9.149  17.119   7.914
 3106POPC   C4B40402   8.792  16.958   7.699
 3107POPC   NC340403  26.863  17.933   9.580
 3107POPC   PO440404  26.607  17.323   9.679
 3107POPC   GL140405  26.740  17.497   9.267
 3107POPC   GL240406  26.973  17.269   9.165
 3107POPC   C1A40407  26.717  17.524   8.793
 3107POPC   D2A40408  26.983  17.642   8.394
 3107POPC   C3A40409  26.769  17.557   7.944
 3107POPC   C4A40410  26.576  17.263   7.631
 3107POPC   C1B40411  27.164  17.309   8.761
 3107POPC   C2B40412  27.213  17.140   8.380
 3107POPC   C3B40413  27.221  17.339   8.018
 3107POPC   C4B40414  27.292  17.619   7.687
 3108POPC   NC340415  28.447  31.026   9.676
 3108POPC   PO440416  28.275  31.631   9.664
 3108POPC   GL140417  28.376  31.639   9.208
 3108POPC   GL240418  28.358  31.268   9.154
 3108POPC   C1A40419  28.262  31.557   8.752
 3108POPC   D2A40420  28.386  31.281   8.396
 3108POPC   C3A40421  28.192  31.501   8.055
 3108POPC   C4A40422  28.338  31.745   7.699
 3108POPC   C1B40423  28.094  31.031   8.798
 3108POPC   C2B40424  27.926  31.065   8.366
 3108POPC   C3B40425  28.052  31.011   7.960
 3108POPC   C4B40426  28.323  31.211   7.652
 3109POPC   NC340427  23.688  30.486   9.422
 3109POPC   PO440428  24.105  31.010   9.494
 3109POPC   GL140429  23.916  30.869   9.085
 3109POPC   GL240430  23.541  30.875   9.018
 3109POPC   C1A40431  23.855  30.620   8.716
 3109POPC   D2A40432  23.535  30.786   8.489
 3109POPC   C3A40433  23.620  31.019   8.128
 3109POPC   C4A40434  23.854  31.154   7.750
 3109POPC   C1B40435  23.397  30.437   8.867
 3109POPC   C2B40436  23.345  30.304   8.462
 3109POPC   C3B40437  23.488  30.484   8.081
 3109POPC   C4B40438  23.782  30.643   7.793
 3110POPC   NC340439  14.565   4.173   9.507
 3110POPC   PO440440  13.919   4.099   9.226
 3110POPC   GL140441  14.259   4.309   9.086
 3110POPC   GL240442  14.482   4.530   9.155
 3110POPC   C1A40443  14.478   4.207   8.736
 3110POPC   D2A40444  14.311   4.018   8.374
 3110POPC   C3A40445  14.463   3.926   7.982
 3110POPC   C4A40446  14.375   4.170   7.611
 3110POPC   C1B40447  14.655   4.684   8.775
 3110POPC   C2B40448  14.789   4.431   8.399
 3110POPC   C3B40449  14.648   4.421   7.966
 3110POPC   C4B40450  14.556   4.631   7.528
 3111POPC   NC340451   9.399   7.302   9.417
 3111POPC   PO440452   9.904   7.696   9.542
 3111POPC   GL140453   9.981   7.443   9.207
 3111POPC   GL240454   9.689   7.427   9.029
 3111POPC   C1A40455  10.117   7.348   8.785
 3111POPC   D2A40456  10.223   7.567   8.429
 3111POPC   C3A40457  10.053   7.433   8.049
 3111POPC   C4A40458  10.035   7.643   7.675
 3111POPC   C1B40459   9.627   7.072   8.758
 3111POPC   C2B40460   9.430   7.049   8.356
 3111POPC   C3B40461   9.319   7.404   8.100
 3111POPC   C4B40462   9.549   7.511   7.747
 3112POPC   NC340463   8.164  26.470   9.514
 3112POPC   PO440464   8.449  27.073   9.519
 3112POPC   GL140465   8.221  27.009   9.140
 3112POPC   GL240466   8.343  26.718   9.046
 3112POPC   C1A40467   8.154  27.106   8.689
 3112POPC   D2A40468   8.364  27.200   8.302
 3112POPC   C3A40469   8.192  26.940   7.966
 3112POPC   C4A40470   8.203  26.918   7.505
 3112POPC   C1B40471   7.927  26.665   8.833
 3112POPC   C2B40472   7.774  26.650   8.410
 3112POPC   C3B40473   8.066  26.462   8.126
 3112POPC   C4B40474   8.206  26.432   7.722
 3113POPC   NC340475  30.573  31.937   9.505
 3113POPC   PO440476  31.052  32.534   9.473
 3113POPC   GL140477  30.808  32.352   9.140
 3113POPC   GL240478  30.561  32.123   9.044
 3113POPC   C1A40479  30.897  32.283   8.698
 3113POPC   D2A40480  31.112  32.409   8.347
 3113POPC   C3A40481  30.940  32.343   7.971
 3113POPC   C4A40482  30.863  32.287   7.596
 3113POPC   C1B40483  30.512  31.940   8.651
 3113POPC   C2B40484  30.642  32.081   8.276
 3113POPC   C3B40485  30.443  32.156   7.880
 3113POPC   C4B40486  30.471  32.029   7.417
 3114POPC   NC340487  31.746  14.530   9.449
 3114POPC   PO440488  31.274  14.106   9.395
 3114POPC   GL140489  31.520  14.304   9.052
 3114POPC   GL240490  31.641  14.666   8.984
 3114POPC   C1A40491  31.623  14.217   8.652
 3114POPC   D2A40492  31.725  14.429   8.271
 3114POPC   C3A40493  31.641  14.173   7.918
 3114POPC   C4A40494  31.443  14.198   7.497
 3114POPC   C1B40495  31.411  14.691   8.635
 3114POPC   C2B40496  31.204  14.388   8.384
 3114POPC   C3B40497  31.143  14.319   7.956
 3114POPC   C4B40498  31.288  14.630   7.707
 3115POPC   NC340499  31.651  16.896   9.593
 3115POPC   PO440500  31.149  16.500   9.309
 3115POPC   GL140501  31.535  16.651   9.143
 3115POPC   GL240502  31.433  16.979   9.151
 3115POPC   C1A40503  31.781  16.805   8.789
 3115POPC   D2A40504  31.918  16.732   8.357
 3115POPC   C3A40505  31.564  16.776   8.066
 3115POPC   C4A40506  31.421  16.513   7.724
 3115POPC   C1B40507  31.252  16.931   8.778
 3115POPC   C2B40508  31.115  16.857   8.396
 3115POPC   C3B40509  31.057  16.916   7.977
 3115POPC   C4B40510  31.340  17.057   7.668
 3116POPC   NC340511   9.864  21.282   9.719
 3116POPC   PO440512   9.328  21.479   9.508
 3116POPC   GL140513   9.590  21.203   9.263
 3116POPC   GL240514   9.355  21.213   9.020
 3116POPC   C1A40515   9.856  21.102   8.863
 3116POPC   D2A40516   9.767  21.039   8.384
 3116POPC   C3A40517   9.801  21.422   8.131
 3116POPC   C4A40518   9.915  21.542   7.703
 3116POPC   C1B40519   9.424  21.351   8.608
 3116POPC   C2B40520   9.316  21.266   8.189
 3116POPC   C3B40521   9.447  21.328   7.744
 3116POPC   C4B40522   9.530  21.286   7.307
 3117POPC   NC340523  24.976  10.585   9.349
 3117POPC   PO440524  25.638  10.422   9.350
 3117POPC   GL140525  25.398  10.618   9.057
 3117POPC   GL240526  25.410  10.927   9.243
 3117POPC   C1A40527  25.146  10.512   8.675
 3117POPC   D2A40528  25.423  10.474   8.333
 3117POPC   C3A40529  25.313  10.357   7.933
 3117POPC   C4A40530  25.362  10.442   7.488
 3117POPC   C1B40531  25.194  11.017   8.820
 3117POPC   C2B40532  25.116  10.951   8.388
 3117POPC   C3B40533  25.342  10.862   8.007
 3117POPC   C4B40534  25.233  10.964   7.613
 3118POPC   NC340535  26.245  31.286   9.548
 3118POPC   PO440536  25.851  31.854   9.424
 3118POPC   GL140537  26.140  31.642   9.172
 3118POPC   GL240538  25.955  31.333   9.136
 3118POPC   C1A40539  26.295  31.534   8.776
 3118POPC   D2A40540  26.229  31.309   8.423
 3118POPC   C3A40541  26.271  31.543   8.044
 3118POPC   C4A40542  26.246  31.305   7.676
 3118POPC   C1B40543  25.773  31.567   8.796
 3118POPC   C2B40544  25.891  31.682   8.400
 3118POPC   C3B40545  25.748  31.718   7.997
 3118POPC   C4B40546  25.999  31.780   7.658
 3119POPC   NC340547  35.964  41.813   9.422
 3119POPC   PO440548  36.626  41.730   9.691
 3119POPC   GL140549  36.372  41.423   9.294
 3119POPC   GL240550  36.083  41.532   9.041
 3119POPC   C1A40551  36.437  41.310   8.794
 3119POPC   D2A40552  36.189  41.462   8.452
 3119POPC   C3A40553  36.277  41.789   8.171
 3119POPC   C4A40554  36.295  41.655   7.768
 3119POPC   C1B40555  35.777  41.685   8.730
 3119POPC   C2B40556  35.697  41.509   8.312
 3119POPC   C3B40557  35.856  41.441   7.920
 3119POPC   C4B40558  35.960  41.311   7.484
 3120POPC   NC340559  24.548  31.133   9.510
 3120POPC   PO440560  24.192  31.642   9.663
 3120POPC   GL140561  24.334  31.503   9.220
 3120POPC   GL240562  24.681  31.503   9.076
 3120POPC   C1A40563  24.306  31.187   8.869
 3120POPC   D2A40564  23.968  31.111   8.580
 3120POPC   C3A40565  24.096  31.266   8.192
 3120POPC   C4A40566  24.309  31.354   7.806
 3120POPC   C1B40567  24.557  31.615   8.627
 3120POPC   C2B40568  24.619  31.578   8.163
 3120POPC   C3B40569  24.765  31.561   7.728
 3120POPC   C4B40570  24.582  31.440   7.339
 3121POPC   NC340571   8.468  11.275   9.465
 3121POPC   PO440572   7.961  10.847   9.464
 3121POPC   GL140573   8.077  11.083   9.114
 3121POPC   GL240574   8.390  10.953   9.071
 3121POPC   C1A40575   7.919  11.349   8.758
 3121POPC   D2A40576   7.861  11.536   8.346
 3121POPC   C3A40577   7.943  11.289   7.967
 3121POPC   C4A40578   7.994  11.468   7.559
 3121POPC   C1B40579   8.418  11.224   8.712
 3121POPC   C2B40580   8.368  11.331   8.297
 3121POPC   C3B40581   8.518  11.081   7.983
 3121POPC   C4B40582   8.353  11.051   7.618
 3122POPC   NC340583  10.964  25.799   9.645
 3122POPC   PO440584  11.323  26.463   9.563
 3122POPC   GL140585  11.232  26.364   9.155
 3122POPC   GL240586  11.384  26.052   9.201
 3122POPC   C1A40587  11.191  26.191   8.730
 3122POPC   D2A40588  11.199  26.302   8.299
 3122POPC   C3A40589  11.263  26.049   7.965
 3122POPC   C4A40590  11.034  25.933   7.618
 3122POPC   C1B40591  11.651  25.874   8.877
 3122POPC   C2B40592  11.568  25.933   8.450
 3122POPC   C3B40593  11.574  25.653   8.080
 3122POPC   C4B40594  11.510  25.730   7.640
 3123POPC   NC340595  19.314   0.846   9.451
 3123POPC   PO440596  19.786   1.378   9.655
 3123POPC   GL140597  19.876   1.123   9.291
 3123POPC   GL240598  19.925   0.730   9.373
 3123POPC   C1A40599  20.031   1.285   8.876
 3123POPC   D2A40600  19.812   1.415   8.476
 3123POPC   C3A40601  19.971   1.414   8.058
 3123POPC   C4A40602  20.033   1.131   7.720
 3123POPC   C1B40603  19.863   0.754   8.934
 3123POPC   C2B40604  20.011   0.915   8.528
 3123POPC   C3B40605  19.908   0.829   8.085
 3123POPC   C4B40606  19.671   0.708   7.668
 3124POPC   NC340607  23.527   6.384   9.379
 3124POPC   PO440608  23.636   5.728   9.445
 3124POPC   GL140609  23.678   5.748   9.048
 3124POPC   GL240610  23.798   6.051   9.039
 3124POPC   C1A40611  23.461   5.870   8.678
 3124POPC   D2A40612  23.349   6.077   8.353
 3124POPC   C3A40613  23.529   6.000   7.962
 3124POPC   C4A40614  23.521   5.661   7.658
 3124POPC   C1B40615  23.965   5.889   8.638
 3124POPC   C2B40616  23.947   6.128   8.269
 3124POPC   C3B40617  24.130   6.162   7.892
 3124POPC   C4B40618  23.863   6.030   7.580
 3125POPC   NC340619  40.664  43.230   9.273
 3125POPC   PO440620  41.315  43.152   9.470
 3125POPC   GL140621  41.079  42.764   9.221
 3125POPC   GL240622  40.719  42.725   9.143
 3125POPC   C1A40623  40.979  42.848   8.745
 3125POPC   D2A40624  41.097  42.739   8.327
 3125POPC   C3A40625  40.924  43.037   8.033
 3125POPC   C4A40626  41.017  43.202   7.598
 3125POPC   C1B40627  40.514  42.632   8.768
 3125POPC   C2B40628  40.506  42.843   8.368
 3125POPC   C3B40629  40.373  42.746   7.960
 3125POPC   C4B40630  40.657  42.842   7.648
 3126POPC   NC340631  37.464  32.804   9.460
 3126POPC   PO440632  38.008  33.205   9.670
 3126POPC   GL140633  37.838  33.109   9.224
 3126POPC   GL240634  37.465  33.208   9.134
 3126POPC   C1A40635  37.823  33.264   8.771
 3126POPC   D2A40636  37.525  33.298   8.403
 3126POPC   C3A40637  37.708  33.093   8.029
 3126POPC   C4A40638  37.919  32.711   7.912
 3126POPC   C1B40639  37.432  32.877   8.804
 3126POPC   C2B40640  37.357  32.555   8.494
 3126POPC   C3B40641  37.437  32.480   8.072
 3126POPC   C4B40642  37.451  32.734   7.698
 3127POPC   NC340643   3.135  29.445   9.339
 3127POPC   PO440644   2.857  28.855   9.521
 3127POPC   GL140645   2.726  29.011   9.097
 3127POPC   GL240646   2.612  29.330   9.128
 3127POPC   C1A40647   2.508  28.963   8.678
 3127POPC   D2A40648   2.230  29.056   8.294
 3127POPC   C3A40649   2.492  29.194   7.941
 3127POPC   C4A40650   2.804  28.910   7.815
 3127POPC   C1B40651   2.752  29.433   8.737
 3127POPC   C2B40652   2.829  29.247   8.348
 3127POPC   C3B40653   2.985  29.389   7.972
 3127POPC   C4B40654   2.864  29.383   7.556
 3128POPC   NC340655  27.211  25.534   9.492
 3128POPC   PO440656  26.655  25.283   9.472
 3128POPC   GL140657  26.683  25.093   9.111
 3128POPC   GL240658  26.959  25.335   9.063
 3128POPC   C1A40659  26.638  25.217   8.683
 3128POPC   D2A40660  26.960  25.405   8.412
 3128POPC   C3A40661  26.774  25.345   8.004
 3128POPC   C4A40662  26.475  24.997   7.930
 3128POPC   C1B40663  27.097  24.992   8.802
 3128POPC   C2B40664  26.971  24.867   8.390
 3128POPC   C3B40665  26.985  24.887   7.951
 3128POPC   C4B40666  27.188  24.955   7.587
 3129POPC   NC340667  41.286   8.823   9.567
 3129POPC   PO440668  41.835   9.224   9.669
 3129POPC   GL140669  41.614   9.089   9.260
 3129POPC   GL240670  41.925   9.103   9.168
 3129POPC   C1A40671  41.400   9.019   8.807
 3129POPC   D2A40672  41.300   8.800   8.356
 3129POPC   C3A40673  41.399   9.026   7.977
 3129POPC   C4A40674  41.439   8.981   7.542
 3129POPC   C1B40675  41.909   8.763   8.925
 3129POPC   C2B40676  41.787   8.786   8.528
 3129POPC   C3B40677  41.824   8.733   8.086
 3129POPC   C4B40678  41.911   8.907   7.706
 3130POPC   NC340679  37.206  39.223   9.680
 3130POPC   PO440680  36.684  39.469   9.302
 3130POPC   GL140681  36.952  39.334   9.034
 3130POPC   GL240682  36.889  39.016   9.080
 3130POPC   C1A40683  36.908  39.251   8.600
 3130POPC   D2A40684  37.146  39.367   8.260
 3130POPC   C3A40685  36.868  39.415   7.945
 3130POPC   C4A40686  36.619  39.128   7.794
 3130POPC   C1B40687  37.149  38.850   8.780
 3130POPC   C2B40688  37.086  38.742   8.378
 3130POPC   C3B40689  37.053  38.923   7.992
 3130POPC   C4B40690  37.314  39.232   7.779
 3131POPC   NC340691   5.787  44.576   5.401
 3131POPC   PO440692   6.128   0.048   5.299
 3131POPC   GL140693   6.011  44.930   5.746
 3131POPC   GL240694   5.828  44.644   5.903
 3131POPC   C1A40695   6.106  44.969   6.193
 3131POPC   D2A40696   6.021  44.655   6.526
 3131POPC   C3A40697   5.908  44.699   6.994
 3131POPC   C4A40698   6.118  44.357   7.233
 3131POPC   C1B40699   5.569  44.500   6.259
 3131POPC   C2B40700   5.618  44.382   6.703
 3131POPC   C3B40701   5.589  44.330   7.153
 3131POPC   C4B40702   5.464  44.621   7.472
 3132POPC   NC340703  26.420  37.889   5.594
 3132POPC   PO440704  25.888  37.456   5.428
 3132POPC   GL140705  25.904  37.560   5.855
 3132POPC   GL240706  26.228  37.428   5.872
 3132POPC   C1A40707  26.057  37.674   6.303
 3132POPC   D2A40708  26.255  37.711   6.721
 3132POPC   C3A40709  25.986  37.997   6.978
 3132POPC   C4A40710  25.612  38.004   7.234
 3132POPC   C1B40711  25.958  37.181   6.202
 3132POPC   C2B40712  25.764  37.181   6.613
 3132POPC   C3B40713  25.839  37.486   6.928
 3132POPC   C4B40714  26.166  37.605   7.238
 3133POPC   NC340715  41.188  34.951   5.387
 3133POPC   PO440716  41.503  35.533   5.334
 3133POPC   GL140717  41.579  35.374   5.751
 3133POPC   GL240718  41.830  35.172   5.879
 3133POPC   C1A40719  41.564  35.560   6.149
 3133POPC   D2A40720  41.390  35.542   6.539
 3133POPC   C3A40721  41.640  35.352   6.819
 3133POPC   C4A40722  41.469  35.537   7.174
 3133POPC   C1B40723  41.747  34.922   6.243
 3133POPC   C2B40724  41.980  34.939   6.611
 3133POPC   C3B40725  42.131  35.088   6.980
 3133POPC   C4B40726  41.855  35.218   7.290
 3134POPC   NC340727  15.447  17.151   5.423
 3134POPC   PO440728  14.826  16.752   5.410
 3134POPC   GL140729  15.152  16.797   5.742
 3134POPC   GL240730  14.913  16.984   5.910
 3134POPC   C1A40731  15.387  16.908   6.174
 3134POPC   D2A40732  15.379  17.083   6.591
 3134POPC   C3A40733  15.175  16.826   6.883
 3134POPC   C4A40734  15.394  16.690   7.239
 3134POPC   C1B40735  14.973  16.649   6.230
 3134POPC   C2B40736  15.286  16.461   6.505
 3134POPC   C3B40737  15.259  16.295   6.925
 3134POPC   C4B40738  14.987  16.410   7.262
 3135POPC   NC340739  20.231  23.013   5.599
 3135POPC   PO440740  19.783  22.568   5.246
 3135POPC   GL140741  19.840  22.702   5.684
 3135POPC   GL240742  20.102  22.478   5.770
 3135POPC   C1A40743  19.917  22.867   6.134
 3135POPC   D2A40744  19.766  22.890   6.547
 3135POPC   C3A40745  19.991  23.134   6.820
 3135POPC   C4A40746  19.837  23.136   7.220
 3135POPC   C1B40747  20.365  22.595   6.132
 3135POPC   C2B40748  20.320  22.789   6.549
 3135POPC   C3B40749  20.295  22.713   6.989
 3135POPC   C4B40750  20.345  22.676   7.443
 3136POPC   NC340751  14.089  14.866   5.361
 3136POPC   PO440752  14.605  15.239   5.522
 3136POPC   GL140753  14.276  15.107   5.813
 3136POPC   GL240754  14.044  15.365   5.919
 3136POPC   C1A40755  14.373  15.110   6.261
 3136POPC   D2A40756  14.730  14.959   6.529
 3136POPC   C3A40757  14.616  14.947   6.970
 3136POPC   C4A40758  14.639  15.295   7.260
 3136POPC   C1B40759  14.112  15.573   6.281
 3136POPC   C2B40760  14.258  15.494   6.694
 3136POPC   C3B40761  14.166  15.201   7.006
 3136POPC   C4B40762  14.118  15.300   7.400
 3137POPC   NC340763  27.232   5.574   5.330
 3137POPC   PO440764  26.945   6.228   5.409
 3137POPC   GL140765  26.950   5.883   5.723
 3137POPC   GL240766  26.607   5.721   5.771
 3137POPC   C1A40767  26.891   5.929   6.159
 3137POPC   D2A40768  26.709   6.232   6.395
 3137POPC   C3A40769  26.656   6.131   6.838
 3137POPC   C4A40770  26.796   6.037   7.253
 3137POPC   C1B40771  26.423   5.660   6.195
 3137POPC   C2B40772  26.536   5.675   6.643
 3137POPC   C3B40773  26.353   5.798   7.095
 3137POPC   C4B40774  26.516   5.753   7.559
 3138POPC   NC340775  20.935   6.267   5.443
 3138POPC   PO440776  20.253   6.442   5.433
 3138POPC   GL140777  20.517   6.336   5.786
 3138POPC   GL240778  20.601   6.688   5.816
 3138POPC   C1A40779  20.859   6.337   6.109
 3138POPC   D2A40780  20.930   6.544   6.508
 3138POPC   C3A40781  20.737   6.518   6.930
 3138POPC   C4A40782  21.005   6.641   7.321
 3138POPC   C1B40783  20.471   6.627   6.275
 3138POPC   C2B40784  20.355   6.906   6.619
 3138POPC   C3B40785  20.443   7.013   7.047
 3138POPC   C4B40786  20.520   6.722   7.356
 3139POPC   NC340787  34.280  11.744   5.543
 3139POPC   PO440788  34.809  12.111   5.321
 3139POPC   GL140789  34.819  12.092   5.803
 3139POPC   GL240790  34.891  12.423   5.887
 3139POPC   C1A40791  34.868  11.876   6.229
 3139POPC   D2A40792  34.706  11.646   6.601
 3139POPC   C3A40793  34.437  11.889   6.885
 3139POPC   C4A40794  34.616  12.099   7.237
 3139POPC   C1B40795  34.684  12.359   6.294
 3139POPC   C2B40796  34.365  12.353   6.638
 3139POPC   C3B40797  34.285  12.459   7.073
 3139POPC   C4B40798  34.228  12.310   7.503
 3140POPC   NC340799  12.732  16.618   5.298
 3140POPC   PO440800  11.996  16.747   5.400
 3140POPC   GL140801  11.965  16.864   5.816
 3140POPC   GL240802  12.297  16.885   5.899
 3140POPC   C1A40803  11.867  16.759   6.222
 3140POPC   D2A40804  11.699  16.816   6.624
 3140POPC   C3A40805  12.070  16.802   6.891
 3140POPC   C4A40806  12.014  16.673   7.315
 3140POPC   C1B40807  12.395  16.798   6.318
 3140POPC   C2B40808  12.470  17.107   6.633
 3140POPC   C3B40809  12.381  17.231   7.043
 3140POPC   C4B40810  12.325  17.039   7.417
 3141POPC   NC340811  36.708  43.525   5.428
 3141POPC   PO440812  36.935  44.161   5.428
 3141POPC   GL140813  36.860  43.920   5.772
 3141POPC   GL240814  36.524  44.055   5.742
 3141POPC   C1A40815  37.049  43.692   6.148
 3141POPC   D2A40816  37.209  43.490   6.575
 3141POPC   C3A40817  36.969  43.580   6.983
 3141POPC   C4A40818  37.002  43.813   7.374
 3141POPC   C1B40819  36.533  43.842   6.153
 3141POPC   C2B40820  36.693  43.645   6.524
 3141POPC   C3B40821  36.454  43.656   6.879
 3141POPC   C4B40822  36.518  43.822   7.237
 3142POPC   NC340823  44.190  42.346   5.319
 3142POPC   PO440824  43.540  42.115   5.341
 3142POPC   GL140825  43.613  42.147   5.785
 3142POPC   GL240826  43.944  42.289   5.772
 3142POPC   C1A40827  43.883  42.008   6.170
 3142POPC   D2A40828  44.079  41.977   6.563
 3142POPC   C3A40829  43.829  42.172   6.899
 3142POPC   C4A40830  43.954  42.208   7.335
 3142POPC   C1B40831  43.733  42.518   6.121
 3142POPC   C2B40832  43.741  42.644   6.563
 3142POPC   C3B40833  43.482  42.643   6.928
 3142POPC   C4B40834  43.667  42.627   7.312
 3143POPC   NC340835  13.068  16.872   5.628
 3143POPC   PO440836  12.673  16.221   5.558
 3143POPC   GL140837  12.727  16.579   5.842
 3143POPC   GL240838  13.031  16.407   5.876
 3143POPC   C1A40839  12.903  16.804   6.231
 3143POPC   D2A40840  12.826  16.722   6.640
 3143POPC   C3A40841  12.857  16.994   6.972
 3143POPC   C4A40842  12.789  16.860   7.370
 3143POPC   C1B40843  12.781  16.290   6.256
 3143POPC   C2B40844  12.890  16.221   6.675
 3143POPC   C3B40845  12.793  16.409   7.059
 3143POPC   C4B40846  12.948  16.387   7.450
 3144POPC   NC340847  24.276   7.166   5.407
 3144POPC   PO440848  24.732   7.635   5.433
 3144POPC   GL140849  24.465   7.585   5.818
 3144POPC   GL240850  24.348   7.248   5.916
 3144POPC   C1A40851  24.463   7.570   6.299
 3144POPC   D2A40852  24.788   7.525   6.631
 3144POPC   C3A40853  24.725   7.555   7.087
 3144POPC   C4A40854  24.330   7.664   7.286
 3144POPC   C1B40855  24.156   7.145   6.330
 3144POPC   C2B40856  24.360   6.920   6.667
 3144POPC   C3B40857  24.597   7.051   7.007
 3144POPC   C4B40858  24.459   7.186   7.379
 3145POPC   NC340859   4.517  43.665   5.589
 3145POPC   PO440860   3.985  44.015   5.359
 3145POPC   GL140861   4.270  44.116   5.738
 3145POPC   GL240862   4.622  44.002   5.972
 3145POPC   C1A40863   4.168  43.965   6.151
 3145POPC   D2A40864   4.405  44.078   6.529
 3145POPC   C3A40865   4.208  44.045   6.915
 3145POPC   C4A40866   4.320  44.125   7.343
 3145POPC   C1B40867   4.552  43.640   6.305
 3145POPC   C2B40868   4.391  43.580   6.756
 3145POPC   C3B40869   4.421  43.652   7.212
 3145POPC   C4B40870   4.468  43.768   7.693
 3146POPC   NC340871  15.680  28.445   5.350
 3146POPC   PO440872  16.306  28.223   5.165
 3146POPC   GL140873  16.118  28.190   5.620
 3146POPC   GL240874  15.823  28.388   5.825
 3146POPC   C1A40875  16.227  28.223   6.082
 3146POPC   D2A40876  16.010  28.410   6.441
 3146POPC   C3A40877  15.978  28.206   6.821
 3146POPC   C4A40878  16.108  28.337   7.219
 3146POPC   C1B40879  16.057  28.741   6.046
 3146POPC   C2B40880  16.269  28.859   6.450
 3146POPC   C3B40881  16.305  28.686   6.861
 3146POPC   C4B40882  16.178  28.832   7.234
 3147POPC   NC340883  33.277  17.924   5.599
 3147POPC   PO440884  32.724  17.711   5.224
 3147POPC   GL140885  32.838  17.624   5.761
 3147POPC   GL240886  33.207  17.617   5.986
 3147POPC   C1A40887  32.767  17.692   6.206
 3147POPC   D2A40888  33.008  17.713   6.585
 3147POPC   C3A40889  32.745  17.682   6.932
 3147POPC   C4A40890  32.886  17.525   7.287
 3147POPC   C1B40891  33.517  17.838   6.278
 3147POPC   C2B40892  33.501  17.911   6.714
 3147POPC   C3B40893  33.316  17.660   7.008
 3147POPC   C4B40894  33.365  17.645   7.417
 3148POPC   NC340895  28.555  24.357   5.390
 3148POPC   PO440896  27.904  24.227   5.389
 3148POPC   GL140897  28.150  24.408   5.721
 3148POPC   GL240898  28.333  24.113   5.834
 3148POPC   C1A40899  28.331  24.669   6.067
 3148POPC   D2A40900  28.425  24.763   6.518
 3148POPC   C3A40901  28.403  24.441   6.826
 3148POPC   C4A40902  28.395  24.496   7.269
 3148POPC   C1B40903  28.480  24.229   6.275
 3148POPC   C2B40904  28.821  24.436   6.539
 3148POPC   C3B40905  28.876  24.492   7.000
 3148POPC   C4B40906  28.721  24.121   7.159
 3149POPC   NC340907  23.509  10.234   5.436
 3149POPC   PO440908  23.363  10.846   5.311
 3149POPC   GL140909  23.043  10.579   5.612
 3149POPC   GL240910  23.267  10.449   5.827
 3149POPC   C1A40911  22.859  10.601   6.091
 3149POPC   D2A40912  22.982  10.765   6.527
 3149POPC   C3A40913  22.835  10.570   6.922
 3149POPC   C4A40914  22.886  10.427   7.356
 3149POPC   C1B40915  23.379  10.560   6.243
 3149POPC   C2B40916  23.362  10.413   6.673
 3149POPC   C3B40917  23.333  10.568   7.094
 3149POPC   C4B40918  23.370  10.508   7.551
 3150POPC   NC340919  25.526  15.560   5.455
 3150POPC   PO440920  25.211  14.981   5.247
 3150POPC   GL140921  25.236  15.171   5.677
 3150POPC   GL240922  25.099  15.508   5.742
 3150POPC   C1A40923  25.406  15.092   6.090
 3150POPC   D2A40924  25.572  15.053   6.491
 3150POPC   C3A40925  25.307  14.902   6.795
 3150POPC   C4A40926  25.332  14.977   7.225
 3150POPC   C1B40927  24.999  15.605   6.169
 3150POPC   C2B40928  25.129  15.381   6.540
 3150POPC   C3B40929  24.992  15.277   6.964
 3150POPC   C4B40930  24.948  15.261   7.397
 3151POPC   NC340931   3.580   6.057   5.087
 3151POPC   PO440932   3.187   5.667   5.298
 3151POPC   GL140933   3.314   5.817   5.715
 3151POPC   GL240934   3.442   5.500   5.837
 3151POPC   C1A40935   3.313   6.083   6.133
 3151POPC   D2A40936   3.566   6.051   6.549
 3151POPC   C3A40937   3.500   6.205   6.992
 3151POPC   C4A40938   3.701   6.218   7.409
 3151POPC   C1B40939   3.601   5.511   6.249
 3151POPC   C2B40940   3.432   5.562   6.649
 3151POPC   C3B40941   3.628   5.564   7.012
 3151POPC   C4B40942   3.565   5.712   7.375
 3152POPC   NC340943  18.050  35.692   5.343
 3152POPC   PO440944  18.330  36.287   5.217
 3152POPC   GL140945  18.402  36.085   5.636
 3152POPC   GL240946  18.098  36.254   5.776
 3152POPC   C1A40947  18.444  36.066   6.129
 3152POPC   D2A40948  18.583  36.203   6.571
 3152POPC   C3A40949  18.387  36.137   6.982
 3152POPC   C4A40950  18.433  36.286   7.466
 3152POPC   C1B40951  17.909  36.176   6.180
 3152POPC   C2B40952  18.018  36.148   6.592
 3152POPC   C3B40953  17.894  35.946   6.948
 3152POPC   C4B40954  17.901  36.220   7.263
 3153POPC   NC340955  21.466  34.288   5.347
 3153POPC   PO440956  21.197  34.876   5.296
 3153POPC   GL140957  21.229  34.627   5.676
 3153POPC   GL240958  21.565  34.522   5.790
 3153POPC   C1A40959  21.180  34.599   6.130
 3153POPC   D2A40960  21.258  34.847   6.510
 3153POPC   C3A40961  21.317  34.669   6.921
 3153POPC   C4A40962  21.204  34.955   7.229
 3153POPC   C1B40963  21.773  34.562   6.185
 3153POPC   C2B40964  21.691  34.518   6.599
 3153POPC   C3B40965  21.828  34.629   7.006
 3153POPC   C4B40966  21.859  34.601   7.444
 3154POPC   NC340967   2.461   1.356   5.508
 3154POPC   PO440968   2.831   0.814   5.438
 3154POPC   GL140969   2.886   0.922   5.889
 3154POPC   GL240970   2.802   1.263   5.867
 3154POPC   C1A40971   3.033   1.179   6.295
 3154POPC   D2A40972   3.035   1.459   6.664
 3154POPC   C3A40973   3.078   1.188   7.011
 3154POPC   C4A40974   2.967   0.808   7.251
 3154POPC   C1B40975   2.486   1.113   6.182
 3154POPC   C2B40976   2.616   1.123   6.601
 3154POPC   C3B40977   2.572   1.001   6.997
 3154POPC   C4B40978   2.685   1.371   7.245
 3155POPC   NC340979  12.195  26.739   5.308
 3155POPC   PO440980  12.068  27.394   5.239
 3155POPC   GL140981  11.963  27.038   5.662
 3155POPC   GL240982  12.213  26.766   5.812
 3155POPC   C1A40983  11.856  26.895   6.127
 3155POPC   D2A40984  12.131  26.911   6.506
 3155POPC   C3A40985  12.009  26.805   6.935
 3155POPC   C4A40986  12.295  26.791   7.300
 3155POPC   C1B40987  12.270  26.497   6.211
 3155POPC   C2B40988  12.247  26.415   6.674
 3155POPC   C3B40989  12.461  26.366   7.082
 3155POPC   C4B40990  12.396  26.372   7.579
 3156POPC   NC340991  31.448  29.462   5.381
 3156POPC   PO440992  31.547  28.843   5.197
 3156POPC   GL140993  31.560  29.026   5.643
 3156POPC   GL240994  31.291  28.996   5.834
 3156POPC   C1A40995  31.692  29.191   6.096
 3156POPC   D2A40996  31.629  29.092   6.555
 3156POPC   C3A40997  31.575  29.357   6.907
 3156POPC   C4A40998  31.677  29.192   7.300
 3156POPC   C1B40999  31.191  29.034   6.272
 3156POPC   C2B41000  31.073  29.264   6.657
 3156POPC   C3B41001  31.060  29.290   7.103
 3156POPC   C4B41002  31.225  29.190   7.509
 3157POPC   NC341003  33.398  33.663   5.414
 3157POPC   PO441004  33.917  34.118   5.320
 3157POPC   GL141005  33.742  33.877   5.761
 3157POPC   GL241006  33.537  33.557   5.907
 3157POPC   C1A41007  33.665  33.918   6.233
 3157POPC   D2A41008  33.845  34.110   6.616
 3157POPC   C3A41009  33.726  33.867   6.945
 3157POPC   C4A41010  33.870  33.934   7.343
 3157POPC   C1B41011  33.935  33.471   6.192
 3157POPC   C2B41012  34.072  33.330   6.622
 3157POPC   C3B41013  34.056  33.500   7.066
 3157POPC   C4B41014  33.662  33.482   7.345
 3158POPC   NC341015   8.572  20.529   5.527
 3158POPC   PO441016   7.910  20.627   5.489
 3158POPC   GL141017   7.994  20.403   5.828
 3158POPC   GL241018   8.268  20.612   5.916
 3158POPC   C1A41019   7.897  20.492   6.235
 3158POPC   D2A41020   8.074  20.462   6.614
 3158POPC   C3A41021   7.821  20.305   6.920
 3158POPC   C4A41022   7.814  20.539   7.252
 3158POPC   C1B41023   8.603  20.654   6.203
 3158POPC   C2B41024   8.586  20.474   6.605
 3158POPC   C3B41025   8.519  20.737   6.949
 3158POPC   C4B41026   8.303  20.676   7.327
 3159POPC   NC341027  28.605  43.248   5.504
 3159POPC   PO441028  27.923  43.383   5.528
 3159POPC   GL141029  28.101  43.114   5.848
 3159POPC   GL241030  28.403  43.275   5.950
 3159POPC   C1A41031  28.179  42.981   6.290
 3159POPC   D2A41032  28.545  42.855   6.542
 3159POPC   C3A41033  28.481  42.877   6.998
 3159POPC   C4A41034  28.248  43.095   7.338
 3159POPC   C1B41035  28.610  43.365   6.322
 3159POPC   C2B41036  28.488  43.339   6.726
 3159POPC   C3B41037  28.630  43.359   7.125
 3159POPC   C4B41038  28.599  43.454   7.564
 3160POPC   NC341039  32.842  35.818   5.444
 3160POPC   PO441040  33.146  36.426   5.352
 3160POPC   GL141041  33.069  36.209   5.716
 3160POPC   GL241042  32.710  36.173   5.772
 3160POPC   C1A41043  33.078  36.194   6.158
 3160POPC   D2A41044  33.125  36.424   6.534
 3160POPC   C3A41045  33.111  36.114   6.840
 3160POPC   C4A41046  33.035  36.132   7.261
 3160POPC   C1B41047  32.532  36.089   6.154
 3160POPC   C2B41048  32.660  36.166   6.558
 3160POPC   C3B41049  32.654  35.893   6.901
 3160POPC   C4B41050  32.531  36.067   7.244
 3161POPC   NC341051   7.423   2.601   5.452
 3161POPC   PO441052   6.992   3.180   5.408
 3161POPC   GL141053   7.260   2.958   5.782
 3161POPC   GL241054   7.157   2.595   5.878
 3161POPC   C1A41055   7.546   2.843   6.154
 3161POPC   D2A41056   7.650   2.572   6.547
 3161POPC   C3A41057   7.585   2.773   6.988
 3161POPC   C4A41058   7.685   3.041   7.365
 3161POPC   C1B41059   7.235   2.423   6.282
 3161POPC   C2B41060   7.174   2.564   6.721
 3161POPC   C3B41061   7.096   2.711   7.134
 3161POPC   C4B41062   7.057   2.555   7.543
 3162POPC   NC341063  28.432  17.807   5.363
 3162POPC   PO441064  27.907  17.484   5.479
 3162POPC   GL141065  28.269  17.518   5.798
 3162POPC   GL241066  28.480  17.824   5.867
 3162POPC   C1A41067  28.435  17.377   6.208
 3162POPC   D2A41068  28.267  17.225   6.612
 3162POPC   C3A41069  28.419  17.325   6.988
 3162POPC   C4A41070  28.532  17.282   7.380
 3162POPC   C1B41071  28.192  17.840   6.198
 3162POPC   C2B41072  28.302  17.742   6.607
 3162POPC   C3B41073  28.215  17.797   7.012
 3162POPC   C4B41074  28.595  17.839   7.235
 3163POPC   NC341075  33.876  17.935   5.364
 3163POPC   PO441076  33.400  17.467   5.528
 3163POPC   GL141077  33.737  17.482   5.815
 3163POPC   GL241078  33.788  17.829   5.857
 3163POPC   C1A41079  33.725  17.356   6.239
 3163POPC   D2A41080  33.444  17.399   6.582
 3163POPC   C3A41081  33.667  17.284   6.949
 3163POPC   C4A41082  33.790  17.355   7.360
 3163POPC   C1B41083  34.053  17.763   6.239
 3163POPC   C2B41084  33.932  17.661   6.645
 3163POPC   C3B41085  33.912  17.751   7.072
 3163POPC   C4B41086  34.229  17.641   7.410
 3164POPC   NC341087  12.497  35.355   5.449
 3164POPC   PO441088  11.851  35.101   5.523
 3164POPC   GL141089  12.112  35.375   5.792
 3164POPC   GL241090  12.136  35.079   6.000
 3164POPC   C1A41091  12.288  35.504   6.213
 3164POPC   D2A41092  12.260  35.231   6.604
 3164POPC   C3A41093  12.155  35.285   7.050
 3164POPC   C4A41094  12.197  35.544   7.400
 3164POPC   C1B41095  11.837  35.249   6.301
 3164POPC   C2B41096  11.758  35.131   6.771
 3164POPC   C3B41097  11.754  34.932   7.210
 3164POPC   C4B41098  11.706  34.806   7.663
 3165POPC   NC341099  27.006  28.998   5.423
 3165POPC   PO441100  26.372  28.886   5.474
 3165POPC   GL141101  26.579  29.094   5.819
 3165POPC   GL241102  26.824  29.374   5.732
 3165POPC   C1A41103  26.668  29.030   6.265
 3165POPC   D2A41104  26.824  28.880   6.613
 3165POPC   C3A41105  26.661  28.998   6.976
 3165POPC   C4A41106  26.715  29.351   7.201
 3165POPC   C1B41107  27.060  29.286   6.116
 3165POPC   C2B41108  27.052  29.330   6.565
 3165POPC   C3B41109  27.193  29.326   7.008
 3165POPC   C4B41110  27.151  29.393   7.470
 3166POPC   NC341111  14.037  35.716   5.386
 3166POPC   PO441112  14.423  35.085   5.330
 3166POPC   GL141113  14.417  35.147   5.789
 3166POPC   GL241114  14.073  35.166   5.815
 3166POPC   C1A41115  14.544  35.341   6.199
 3166POPC   D2A41116  14.377  35.600   6.533
 3166POPC   C3A41117  14.544  35.449   6.900
 3166POPC   C4A41118  14.593  35.370   7.303
 3166POPC   C1B41119  14.154  34.993   6.244
 3166POPC   C2B41120  14.228  35.115   6.672
 3166POPC   C3B41121  14.135  35.158   7.112
 3166POPC   C4B41122  14.172  34.770   7.289
 3167POPC   NC341123  17.891  16.417   5.442
 3167POPC   PO441124  17.264  16.256   5.557
 3167POPC   GL141125  17.490  16.062   5.908
 3167POPC   GL241126  17.572  15.699   5.851
 3167POPC   C1A41127  17.463  16.038   6.368
 3167POPC   D2A41128  17.616  15.972   6.776
 3167POPC   C3A41129  17.470  16.182   7.137
 3167POPC   C4A41130  17.686  15.962   7.434
 3167POPC   C1B41131  17.310  15.585   6.230
 3167POPC   C2B41132  17.216  15.641   6.712
 3167POPC   C3B41133  17.328  15.700   7.168
 3167POPC   C4B41134  17.480  15.521   7.578
 3168POPC   NC341135  26.922  19.549   5.373
 3168POPC   PO441136  26.911  20.279   5.390
 3168POPC   GL141137  26.876  19.968   5.697
 3168POPC   GL241138  26.535  19.844   5.649
 3168POPC   C1A41139  26.987  19.926   6.132
 3168POPC   D2A41140  26.739  19.875   6.486
 3168POPC   C3A41141  26.928  19.861   6.882
 3168POPC   C4A41142  27.077  19.581   7.226
 3168POPC   C1B41143  26.518  19.648   6.056
 3168POPC   C2B41144  26.432  19.483   6.498
 3168POPC   C3B41145  26.418  19.738   6.871
 3168POPC   C4B41146  26.583  19.866   7.273
 3169POPC   NC341147  27.225  33.035   5.335
 3169POPC   PO441148  27.865  32.629   5.436
 3169POPC   GL141149  27.636  32.876   5.770
 3169POPC   GL241150  27.298  32.877   5.836
 3169POPC   C1A41151  27.714  33.020   6.202
 3169POPC   D2A41152  27.722  32.825   6.630
 3169POPC   C3A41153  27.589  33.107   6.987
 3169POPC   C4A41154  27.686  33.011   7.431
 3169POPC   C1B41155  27.385  32.637   6.189
 3169POPC   C2B41156  27.289  32.527   6.603
 3169POPC   C3B41157  27.397  32.637   7.022
 3169POPC   C4B41158  27.203  32.907   7.318
 3170POPC   NC341159  22.401  34.810   5.390
 3170POPC   PO441160  21.815  34.596   5.322
 3170POPC   GL141161  22.082  34.605   5.728
 3170POPC   GL241162  22.217  34.271   5.800
 3170POPC   C1A41163  22.270  34.632   6.147
 3170POPC   D2A41164  22.148  34.728   6.547
 3170POPC   C3A41165  22.321  34.633   6.910
 3170POPC   C4A41166  22.241  34.346   7.271
 3170POPC   C1B41167  22.575  34.233   6.135
 3170POPC   C2B41168  22.604  34.410   6.542
 3170POPC   C3B41169  22.640  34.265   6.971
 3170POPC   C4B41170  22.685  34.580   7.277
 3171POPC   NC341171  11.595   2.924   5.591
 3171POPC   PO441172  12.219   2.862   5.389
 3171POPC   GL141173  12.037   2.801   5.803
 3171POPC   GL241174  12.054   2.465   5.984
 3171POPC   C1A41175  12.095   2.906   6.213
 3171POPC   D2A41176  12.172   2.688   6.604
 3171POPC   C3A41177  12.090   2.914   6.990
 3171POPC   C4A41178  12.038   2.808   7.450
 3171POPC   C1B41179  11.924   2.280   6.363
 3171POPC   C2B41180  11.723   2.423   6.734
 3171POPC   C3B41181  11.887   2.454   7.130
 3171POPC   C4B41182  11.798   2.332   7.561
 3172POPC   NC341183  16.361   1.726   5.469
 3172POPC   PO441184  16.312   2.344   5.159
 3172POPC   GL141185  16.122   2.249   5.704
 3172POPC   GL241186  16.077   1.945   5.817
 3172POPC   C1A41187  16.153   2.267   6.206
 3172POPC   D2A41188  15.975   2.394   6.634
 3172POPC   C3A41189  16.112   2.327   7.046
 3172POPC   C4A41190  15.723   2.200   7.249
 3172POPC   C1B41191  15.876   1.783   6.168
 3172POPC   C2B41192  15.696   1.923   6.555
 3172POPC   C3B41193  15.905   1.827   6.938
 3172POPC   C4B41194  15.762   1.599   7.270
 3173POPC   NC341195  44.509  18.552   5.590
 3173POPC   PO441196  43.950  18.269   5.408
 3173POPC   GL141197  43.992  18.103   5.822
 3173POPC   GL241198  44.332  18.137   5.848
 3173POPC   C1A41199  43.688  18.120   6.212
 3173POPC   D2A41200  43.486  18.426   6.534
 3173POPC   C3A41201  43.661  18.429   6.963
 3173POPC   C4A41202  43.886  18.105   7.214
 3173POPC   C1B41203  44.117  18.392   6.197
 3173POPC   C2B41204  44.023  18.263   6.607
 3173POPC   C3B41205  44.180  18.519   6.950
 3173POPC   C4B41206  43.995  18.588   7.351
 3174POPC   NC341207  31.655  31.935   5.205
 3174POPC   PO441208  31.383  31.336   5.182
 3174POPC   GL141209  31.400  31.399   5.641
 3174POPC   GL241210  31.137  31.609   5.650
 3174POPC   C1A41211  31.449  31.350   6.115
 3174POPC   D2A41212  31.540  31.408   6.553
 3174POPC   C3A41213  31.393  31.190   6.925
 3174POPC   C4A41214  31.586  31.117   7.282
 3174POPC   C1B41215  31.050  31.664   6.107
 3174POPC   C2B41216  31.009  31.850   6.502
 3174POPC   C3B41217  31.274  31.752   6.852
 3174POPC   C4B41218  31.398  31.621   7.268
 3175POPC   NC341219  10.460  39.075   5.443
 3175POPC   PO441220  11.040  39.293   5.170
 3175POPC   GL141221  10.765  39.478   5.608
 3175POPC   GL241222  10.367  39.449   5.762
 3175POPC   C1A41223  10.744  39.427   6.095
 3175POPC   D2A41224  10.653  39.083   6.422
 3175POPC   C3A41225  10.670  39.227   6.856
 3175POPC   C4A41226  10.689  39.196   7.285
 3175POPC   C1B41227  10.250  39.339   6.212
 3175POPC   C2B41228  10.191  39.262   6.668
 3175POPC   C3B41229  10.237  39.538   7.062
 3175POPC   C4B41230  10.339  39.493   7.530
 3176POPC   NC341231  19.782  39.958   5.303
 3176POPC   PO441232  20.263  40.392   5.478
 3176POPC   GL141233  19.952  40.138   5.768
 3176POPC   GL241234  19.782  39.789   5.811
 3176POPC   C1A41235  19.697  40.239   6.142
 3176POPC   D2A41236  19.624  40.343   6.581
 3176POPC   C3A41237  19.743  40.012   6.826
 3176POPC   C4A41238  19.899  39.901   7.208
 3176POPC   C1B41239  19.608  39.587   6.209
 3176POPC   C2B41240  19.450  39.581   6.677
 3176POPC   C3B41241  19.519  39.566   7.134
 3176POPC   C4B41242  19.543  39.610   7.583
 3177POPC   NC341243  27.964   2.209   5.437
 3177POPC   PO441244  27.358   1.883   5.358
 3177POPC   GL141245  27.504   1.886   5.790
 3177POPC   GL241246  27.695   2.206   5.872
 3177POPC   C1A41247  27.573   1.912   6.247
 3177POPC   D2A41248  27.729   1.986   6.631
 3177POPC   C3A41249  27.460   1.941   6.992
 3177POPC   C4A41250  27.549   1.756   7.353
 3177POPC   C1B41251  28.021   2.252   6.222
 3177POPC   C2B41252  28.032   2.405   6.664
 3177POPC   C3B41253  27.905   2.212   7.052
 3177POPC   C4B41254  27.726   2.222   7.448
 3178POPC   NC341255   3.088  14.656   5.537
 3178POPC   PO441256   2.783  14.103   5.523
 3178POPC   GL141257   2.591  14.208   5.882
 3178POPC   GL241258   2.432  14.542   5.764
 3178POPC   C1A41259   2.630  14.085   6.326
 3178POPC   D2A41260   2.864  13.940   6.714
 3178POPC   C3A41261   2.830  14.111   7.132
 3178POPC   C4A41262   3.081  14.436   7.369
 3178POPC   C1B41263   2.694  14.589   6.160
 3178POPC   C2B41264   2.535  14.560   6.575
 3178POPC   C3B41265   2.715  14.606   6.981
 3178POPC   C4B41266   2.595  14.599   7.400
 3179POPC   NC341267  29.687  22.200   5.269
 3179POPC   PO441268  30.183  21.832   5.619
 3179POPC   GL141269  29.797  22.097   5.796
 3179POPC   GL241270  29.933  22.405   5.984
 3179POPC   C1A41271  29.523  22.206   6.191
 3179POPC   D2A41272  29.758  22.330   6.582
 3179POPC   C3A41273  29.681  22.376   7.024
 3179POPC   C4A41274  29.535  22.007   7.234
 3179POPC   C1B41275  30.058  22.060   6.247
 3179POPC   C2B41276  30.282  22.065   6.620
 3179POPC   C3B41277  30.179  22.327   6.937
 3179POPC   C4B41278  30.040  22.135   7.302
 3180POPC   NC341279   8.800  18.809   5.411
 3180POPC   PO441280   8.832  19.412   5.660
 3180POPC   GL141281   8.889  19.006   5.886
 3180POPC   GL241282   9.217  18.845   5.794
 3180POPC   C1A41283   8.717  18.954   6.304
 3180POPC   D2A41284   8.695  19.164   6.698
 3180POPC   C3A41285   9.081  19.331   6.789
 3180POPC   C4A41286   9.259  19.347   7.178
 3180POPC   C1B41287   9.263  18.991   6.245
 3180POPC   C2B41288   9.087  18.755   6.591
 3180POPC   C3B41289   8.713  18.677   6.845
 3180POPC   C4B41290   8.861  18.899   7.199
 3181POPC   NC341291  30.967  15.086   5.345
 3181POPC   PO441292  30.468  15.469   5.549
 3181POPC   GL141293  30.610  15.225   5.825
 3181POPC   GL241294  30.945  15.162   5.880
 3181POPC   C1A41295  30.625  15.391   6.223
 3181POPC   D2A41296  30.540  15.742   6.439
 3181POPC   C3A41297  30.426  15.538   6.800
 3181POPC   C4A41298  30.442  15.675   7.213
 3181POPC   C1B41299  30.755  14.908   6.263
 3181POPC   C2B41300  30.597  15.037   6.691
 3181POPC   C3B41301  30.778  15.072   7.111
 3181POPC   C4B41302  31.000  14.996   7.484
 3182POPC   NC341303  29.390  34.878   5.449
 3182POPC   PO441304  28.887  34.391   5.426
 3182POPC   GL141305  29.030  34.652   5.732
 3182POPC   GL241306  29.328  34.465   5.797
 3182POPC   C1A41307  29.130  34.811   6.143
 3182POPC   D2A41308  29.064  34.871   6.568
 3182POPC   C3A41309  29.252  34.771   6.939
 3182POPC   C4A41310  28.944  34.805   7.270
 3182POPC   C1B41311  29.099  34.299   6.162
 3182POPC   C2B41312  29.165  34.374   6.597
 3182POPC   C3B41313  28.976  34.349   6.988
 3182POPC   C4B41314  28.813  34.343   7.400
 3183POPC   NC341315  28.476  30.656   5.334
 3183POPC   PO441316  28.022  30.200   5.605
 3183POPC   GL141317  28.187  30.599   5.753
 3183POPC   GL241318  28.548  30.522   5.819
 3183POPC   C1A41319  28.285  30.897   6.098
 3183POPC   D2A41320  28.195  30.793   6.514
 3183POPC   C3A41321  28.416  30.936   6.820
 3183POPC   C4A41322  28.518  31.060   7.195
 3183POPC   C1B41323  28.383  30.412   6.224
 3183POPC   C2B41324  28.475  30.383   6.697
 3183POPC   C3B41325  28.405  30.493   7.139
 3183POPC   C4B41326  28.083  30.236   7.385
 3184POPC   NC341327  14.895   0.120   5.482
 3184POPC   PO441328  15.180  44.438   5.458
 3184POPC   GL141329  15.121  44.756   5.753
 3184POPC   GL241330  14.991  44.531   5.954
 3184POPC   C1A41331  15.300  44.891   6.139
 3184POPC   D2A41332  15.176  44.644   6.490
 3184POPC   C3A41333  15.098  44.718   6.889
 3184POPC   C4A41334  15.219  44.904   7.295
 3184POPC   C1B41335  15.019  44.231   6.252
 3184POPC   C2B41336  15.161  44.163   6.660
 3184POPC   C3B41337  14.955  44.167   7.021
 3184POPC   C4B41338  15.130  44.404   7.280
 3185POPC   NC341339   1.036  25.468   5.420
 3185POPC   PO441340   1.701  25.210   5.332
 3185POPC   GL141341   1.430  25.225   5.758
 3185POPC   GL241342   1.070  25.133   5.809
 3185POPC   C1A41343   1.352  25.267   6.243
 3185POPC   D2A41344   1.324  25.479   6.673
 3185POPC   C3A41345   1.305  25.220   7.055
 3185POPC   C4A41346   1.427  25.234   7.521
 3185POPC   C1B41347   0.889  25.477   6.118
 3185POPC   C2B41348   0.859  25.661   6.560
 3185POPC   C3B41349   0.805  25.446   6.974
 3185POPC   C4B41350   0.993  25.470   7.371
 3186POPC   NC341351  23.488   5.026   5.191
 3186POPC   PO441352  22.880   5.350   5.345
 3186POPC   GL141353  22.767   5.224   5.779
 3186POPC   GL241354  23.136   5.267   5.895
 3186POPC   C1A41355  22.798   5.168   6.255
 3186POPC   D2A41356  23.206   5.303   6.472
 3186POPC   C3A41357  23.151   5.275   6.907
 3186POPC   C4A41358  22.861   5.255   7.282
 3186POPC   C1B41359  23.208   4.884   6.184
 3186POPC   C2B41360  23.030   4.835   6.621
 3186POPC   C3B41361  22.892   4.801   7.071
 3186POPC   C4B41362  23.167   4.864   7.468
 3187POPC   NC341363  15.522   4.491   5.282
 3187POPC   PO441364  15.103   4.030   5.255
 3187POPC   GL141365  15.297   4.115   5.679
 3187POPC   GL241366  15.016   4.187   5.938
 3187POPC   C1A41367  15.521   4.280   6.055
 3187POPC   D2A41368  15.316   4.382   6.457
 3187POPC   C3A41369  15.442   4.427   6.887
 3187POPC   C4A41370  15.458   4.306   7.318
 3187POPC   C1B41371  14.862   4.486   6.265
 3187POPC   C2B41372  14.879   4.465   6.733
 3187POPC   C3B41373  15.006   4.525   7.177
 3187POPC   C4B41374  14.942   4.287   7.570
 3188POPC   NC341375  16.247  22.165   5.267
 3188POPC   PO441376  15.573  22.271   5.384
 3188POPC   GL141377  15.888  22.060   5.672
 3188POPC   GL241378  15.690  22.227   5.892
 3188POPC   C1A41379  16.155  21.994   6.099
 3188POPC   D2A41380  16.225  21.785   6.508
 3188POPC   C3A41381  16.344  22.099   6.881
 3188POPC   C4A41382  16.221  22.192   7.312
 3188POPC   C1B41383  15.685  22.029   6.261
 3188POPC   C2B41384  15.977  22.218   6.546
 3188POPC   C3B41385  15.840  22.109   6.940
 3188POPC   C4B41386  15.724  22.294   7.314
 3189POPC   NC341387  13.755  20.311   5.558
 3189POPC   PO441388  13.474  19.590   5.487
 3189POPC   GL141389  13.622  19.806   5.842
 3189POPC   GL241390  13.896  19.585   5.849
 3189POPC   C1A41391  13.488  19.987   6.256
 3189POPC   D2A41392  13.606  20.176   6.665
 3189POPC   C3A41393  13.502  19.949   7.031
 3189POPC   C4A41394  13.319  19.536   7.117
 3189POPC   C1B41395  13.733  19.521   6.258
 3189POPC   C2B41396  13.652  19.653   6.642
 3189POPC   C3B41397  13.802  19.480   7.006
 3189POPC   C4B41398  14.187  19.438   7.211
 3190POPC   NC341399  43.280   3.099   5.512
 3190POPC   PO441400  42.878   2.585   5.447
 3190POPC   GL141401  43.041   2.728   5.855
 3190POPC   GL241402  43.240   3.014   6.016
 3190POPC   C1A41403  43.162   2.570   6.259
 3190POPC   D2A41404  43.233   2.848   6.607
 3190POPC   C3A41405  43.065   2.676   6.959
 3190POPC   C4A41406  43.180   2.301   7.154
 3190POPC   C1B41407  42.891   3.118   6.285
 3190POPC   C2B41408  42.816   3.127   6.753
 3190POPC   C3B41409  42.902   3.093   7.215
 3190POPC   C4B41410  42.784   3.085   7.659
 3191POPC   NC341411  41.080  17.830   5.082
 3191POPC   PO441412  40.937  18.494   5.290
 3191POPC   GL141413  40.839  18.295   5.646
 3191POPC   GL241414  41.116  18.170   5.849
 3191POPC   C1A41415  40.671  18.333   6.067
 3191POPC   D2A41416  40.740  18.608   6.413
 3191POPC   C3A41417  40.644  18.427   6.839
 3191POPC   C4A41418  40.461  18.187   7.192
 3191POPC   C1B41419  41.195  18.385   6.221
 3191POPC   C2B41420  41.131  18.294   6.659
 3191POPC   C3B41421  41.138  18.407   7.097
 3191POPC   C4B41422  41.066  18.541   7.586
 3192POPC   NC341423  35.211  41.808   5.485
 3192POPC   PO441424  35.330  41.166   5.304
 3192POPC   GL141425  35.306  41.256   5.776
 3192POPC   GL241426  35.140  41.547   5.916
 3192POPC   C1A41427  35.310  41.196   6.247
 3192POPC   D2A41428  35.451  41.381   6.681
 3192POPC   C3A41429  35.292  41.408   7.096
 3192POPC   C4A41430  35.440  41.312   7.545
 3192POPC   C1B41431  35.354  41.699   6.302
 3192POPC   C2B41432  35.450  41.909   6.715
 3192POPC   C3B41433  35.408  41.923   7.170
 3192POPC   C4B41434  35.167  41.743   7.510
 3193POPC   NC341435  41.540  13.295   5.359
 3193POPC   PO441436  41.542  13.967   5.397
 3193POPC   GL141437  41.699  13.707   5.717
 3193POPC   GL241438  41.389  13.725   5.842
 3193POPC   C1A41439  41.773  13.731   6.189
 3193POPC   D2A41440  41.763  13.506   6.606
 3193POPC   C3A41441  41.704  13.616   7.035
 3193POPC   C4A41442  41.662  13.458   7.428
 3193POPC   C1B41443  41.271  14.078   6.096
 3193POPC   C2B41444  41.238  14.024   6.548
 3193POPC   C3B41445  41.252  13.670   6.798
 3193POPC   C4B41446  41.193  13.604   7.216
 3194POPC   NC341447  40.842  23.270   5.674
 3194POPC   PO441448  40.658  22.721   5.434
 3194POPC   GL141449  40.783  22.650   5.816
 3194POPC   GL241450  41.077  22.823   5.781
 3194POPC   C1A41451  40.711  22.856   6.202
 3194POPC   D2A41452  40.463  22.888   6.575
 3194POPC   C3A41453  40.761  22.993   6.874
 3194POPC   C4A41454  40.756  22.754   7.234
 3194POPC   C1B41455  41.219  22.770   6.195
 3194POPC   C2B41456  41.247  22.944   6.603
 3194POPC   C3B41457  41.199  22.738   6.972
 3194POPC   C4B41458  41.274  22.595   7.359
 3195POPC   NC341459  10.769  31.272   5.258
 3195POPC   PO441460  10.629  31.835   5.573
 3195POPC   GL141461  10.607  31.456   5.826
 3195POPC   GL241462  10.764  31.143   5.754
 3195POPC   C1A41463  10.438  31.528   6.232
 3195POPC   D2A41464  10.268  31.749   6.592
 3195POPC   C3A41465  10.426  31.598   6.973
 3195POPC   C4A41466  10.240  31.361   7.284
 3195POPC   C1B41467  10.731  31.117   6.202
 3195POPC   C2B41468  10.577  31.224   6.615
 3195POPC   C3B41469  10.612  31.088   7.021
 3195POPC   C4B41470  10.866  31.391   7.210
 3196POPC   NC341471  28.456  38.772   5.482
 3196POPC   PO441472  28.438  39.432   5.388
 3196POPC   GL141473  28.221  39.186   5.690
 3196POPC   GL241474  28.534  39.137   5.842
 3196POPC   C1A41475  28.121  38.952   6.086
 3196POPC   D2A41476  28.300  38.992   6.495
 3196POPC   C3A41477  28.114  38.951   6.885
 3196POPC   C4A41478  28.226  39.110   7.253
 3196POPC   C1B41479  28.748  39.313   6.182
 3196POPC   C2B41480  28.721  39.533   6.539
 3196POPC   C3B41481  28.586  39.313   6.862
 3196POPC   C4B41482  28.688  39.308   7.271
 3197POPC   NC341483  43.392  10.364   5.397
 3197POPC   PO441484  43.132  10.948   5.414
 3197POPC   GL141485  43.265  10.638   5.792
 3197POPC   GL241486  42.981  10.410   5.727
 3197POPC   C1A41487  43.297  10.651   6.285
 3197POPC   D2A41488  43.446  10.473   6.696
 3197POPC   C3A41489  43.209  10.346   7.051
 3197POPC   C4A41490  43.223  10.677   7.388
 3197POPC   C1B41491  42.957  10.239   6.133
 3197POPC   C2B41492  42.956  10.341   6.556
 3197POPC   C3B41493  42.730  10.285   6.903
 3197POPC   C4B41494  42.770  10.510   7.282
 3198POPC   NC341495  11.052   9.266   5.504
 3198POPC   PO441496  11.437   8.678   5.416
 3198POPC   GL141497  11.184   8.822   5.774
 3198POPC   GL241498  11.409   9.124   5.849
 3198POPC   C1A41499  11.085   8.952   6.213
 3198POPC   D2A41500  11.152   9.094   6.653
 3198POPC   C3A41501  11.181   8.834   7.043
 3198POPC   C4A41502  11.642   8.757   7.208
 3198POPC   C1B41503  11.580   9.032   6.259
 3198POPC   C2B41504  11.659   8.941   6.699
 3198POPC   C3B41505  11.510   9.207   7.022
 3198POPC   C4B41506  11.139   9.278   7.309
 3199POPC   NC341507  39.549  14.541   5.438
 3199POPC   PO441508  38.889  14.476   5.431
 3199POPC   GL141509  39.126  14.708   5.735
 3199POPC   GL241510  39.415  14.500   5.922
 3199POPC   C1A41511  39.046  14.711   6.165
 3199POPC   D2A41512  39.271  14.561   6.521
 3199POPC   C3A41513  39.131  14.697   6.922
 3199POPC   C4A41514  39.032  14.448   7.248
 3199POPC   C1B41515  39.403  14.153   6.249
 3199POPC   C2B41516  39.590  14.051   6.627
 3199POPC   C3B41517  39.600  14.414   6.897
 3199POPC   C4B41518  39.541  14.397   7.323
 3200POPC   NC341519   5.652  31.353   5.101
 3200POPC   PO441520   5.986  31.780   5.507
 3200POPC   GL141521   6.061  31.478   5.874
 3200POPC   GL241522   5.821  31.231   6.061
 3200POPC   C1A41523   6.227  31.492   6.306
 3200POPC   D2A41524   6.454  31.567   6.662
 3200POPC   C3A41525   6.289  31.360   6.986
 3200POPC   C4A41526   5.963  31.565   7.234
 3200POPC   C1B41527   5.721  31.554   6.303
 3200POPC   C2B41528   5.858  31.570   6.713
 3200POPC   C3B41529   5.520  31.626   6.980
 3200POPC   C4B41530   5.466  31.530   7.382
 3201POPC   NC341531  39.614  11.683   5.320
 3201POPC   PO441532  39.288  12.316   5.337
 3201POPC   GL141533  39.293  12.153   5.808
 3201POPC   GL241534  39.483  11.864   5.885
 3201POPC   C1A41535  39.067  12.209   6.220
 3201POPC   D2A41536  39.124  12.066   6.633
 3201POPC   C3A41537  39.275  12.253   7.009
 3201POPC   C4A41538  39.084  12.195   7.399
 3201POPC   C1B41539  39.532  11.985   6.339
 3201POPC   C2B41540  39.589  11.897   6.801
 3201POPC   C3B41541  39.668  11.994   7.231
 3201POPC   C4B41542  39.524  12.080   7.651
 3202POPC   NC341543   2.455  10.719   5.281
 3202POPC   PO441544   3.110  10.862   5.265
 3202POPC   GL141545   2.878  10.696   5.671
 3202POPC   GL241546   2.860  10.332   5.818
 3202POPC   C1A41547   2.548  10.771   6.017
 3202POPC   D2A41548   2.454  10.903   6.472
 3202POPC   C3A41549   2.742  10.723   6.818
 3202POPC   C4A41550   2.654  10.483   7.186
 3202POPC   C1B41551   2.664  10.221   6.249
 3202POPC   C2B41552   2.702  10.212   6.717
 3202POPC   C3B41553   3.030  10.212   7.040
 3202POPC   C4B41554   2.982  10.358   7.550
 3203POPC   NC341555   6.071  18.729   5.449
 3203POPC   PO441556   5.530  19.180   5.398
 3203POPC   GL141557   5.805  19.091   5.770
 3203POPC   GL241558   5.764  18.754   5.887
 3203POPC   C1A41559   5.671  19.185   6.207
 3203POPC   D2A41560   5.560  19.423   6.599
 3203POPC   C3A41561   5.771  19.257   6.951
 3203POPC   C4A41562   5.938  19.420   7.331
 3203POPC   C1B41563   5.865  18.703   6.330
 3203POPC   C2B41564   5.788  18.761   6.784
 3203POPC   C3B41565   6.120  18.875   7.097
 3203POPC   C4B41566   6.125  18.983   7.547
 3204POPC   NC341567  32.650   9.220   5.584
 3204POPC   PO441568  32.053   9.063   5.565
 3204POPC   GL141569  32.140   8.871   5.920
 3204POPC   GL241570  32.475   8.835   5.860
 3204POPC   C1A41571  32.127   9.068   6.295
 3204POPC   D2A41572  32.043   9.337   6.641
 3204POPC   C3A41573  32.051   9.022   6.878
 3204POPC   C4A41574  31.888   8.921   7.257
 3204POPC   C1B41575  32.640   9.030   6.210
 3204POPC   C2B41576  32.536   9.261   6.556
 3204POPC   C3B41577  32.628   9.234   6.973
 3204POPC   C4B41578  32.406   8.981   7.230
 3205POPC   NC341579  18.058  17.847   5.499
 3205POPC   PO441580  18.423  17.337   5.148
 3205POPC   GL141581  18.459  17.508   5.599
 3205POPC   GL241582  18.229  17.323   5.808
 3205POPC   C1A41583  18.565  17.696   6.036
 3205POPC   D2A41584  18.595  17.852   6.478
 3205POPC   C3A41585  18.239  17.692   6.725
 3205POPC   C4A41586  18.057  17.742   7.117
 3205POPC   C1B41587  18.160  17.424   6.258
 3205POPC   C2B41588  18.188  17.156   6.631
 3205POPC   C3B41589  18.278  17.266   7.056
 3205POPC   C4B41590  17.917  17.279   7.310
 3206POPC   NC341591   3.749  21.240   5.376
 3206POPC   PO441592   3.858  21.863   5.472
 3206POPC   GL141593   3.622  21.648   5.862
 3206POPC   GL241594   3.293  21.463   5.897
 3206POPC   C1A41595   3.516  21.547   6.322
 3206POPC   D2A41596   3.301  21.349   6.645
 3206POPC   C3A41597   3.566  21.383   7.001
 3206POPC   C4A41598   3.685  21.507   7.410
 3206POPC   C1B41599   3.217  21.072   6.193
 3206POPC   C2B41600   3.230  20.850   6.603
 3206POPC   C3B41601   3.180  21.016   7.017
 3206POPC   C4B41602   3.367  21.119   7.414
 3207POPC   NC341603  39.737  31.571   5.368
 3207POPC   PO441604  40.115  30.960   5.381
 3207POPC   GL141605  39.849  31.183   5.698
 3207POPC   GL241606  40.031  31.513   5.775
 3207POPC   C1A41607  39.799  31.263   6.138
 3207POPC   D2A41608  40.037  31.239   6.520
 3207POPC   C3A41609  39.834  31.381   6.911
 3207POPC   C4A41610  39.919  31.207   7.304
 3207POPC   C1B41611  40.152  31.662   6.180
 3207POPC   C2B41612  40.219  31.731   6.644
 3207POPC   C3B41613  40.269  31.598   7.087
 3207POPC   C4B41614  40.123  31.674   7.516
 3208POPC   NC341615  32.459  32.862   5.649
 3208POPC   PO441616  32.021  33.394   5.699
 3208POPC   GL141617  32.105  33.067   5.958
 3208POPC   GL241618  32.468  33.083   6.091
 3208POPC   C1A41619  32.049  32.981   6.383
 3208POPC   D2A41620  32.342  33.171   6.648
 3208POPC   C3A41621  32.357  32.991   7.060
 3208POPC   C4A41622  32.246  33.006   7.519
 3208POPC   C1B41623  32.469  32.711   6.256
 3208POPC   C2B41624  32.403  32.629   6.643
 3208POPC   C3B41625  32.690  32.600   6.920
 3208POPC   C4B41626  32.525  32.590   7.327
 3209POPC   NC341627  10.152   2.950   5.172
 3209POPC   PO441628   9.701   2.619   5.605
 3209POPC   GL141629   9.796   2.842   5.972
 3209POPC   GL241630   9.644   3.187   5.843
 3209POPC   C1A41631   9.810   2.620   6.384
 3209POPC   D2A41632   9.456   2.417   6.578
 3209POPC   C3A41633   9.381   2.585   6.986
 3209POPC   C4A41634   9.635   2.635   7.314
 3209POPC   C1B41635   9.839   3.308   6.213
 3209POPC   C2B41636   9.904   3.092   6.557
 3209POPC   C3B41637   9.764   2.925   6.911
 3209POPC   C4B41638   9.779   3.107   7.331
 3210POPC   NC341639  19.081  33.690   5.464
 3210POPC   PO441640  19.431  34.178   5.099
 3210POPC   GL141641  19.301  34.139   5.659
 3210POPC   GL241642  19.065  33.900   5.902
 3210POPC   C1A41643  19.234  34.226   6.203
 3210POPC   D2A41644  18.998  34.024   6.573
 3210POPC   C3A41645  19.044  34.179   7.030
 3210POPC   C4A41646  18.879  34.009   7.428
 3210POPC   C1B41647  18.998  33.592   6.229
 3210POPC   C2B41648  18.969  33.409   6.640
 3210POPC   C3B41649  18.765  33.440   7.016
 3210POPC   C4B41650  18.890  33.501   7.403
 3211POPC   NC341651  41.491  23.936   5.420
 3211POPC   PO441652  41.971  23.546   5.527
 3211POPC   GL141653  41.806  23.805   5.846
 3211POPC   GL241654  41.450  23.757   5.922
 3211POPC   C1A41655  41.798  23.646   6.279
 3211POPC   D2A41656  41.978  23.348   6.573
 3211POPC   C3A41657  41.859  23.547   6.947
 3211POPC   C4A41658  41.758  23.735   7.333
 3211POPC   C1B41659  41.319  23.831   6.353
 3211POPC   C2B41660  41.435  23.887   6.809
 3211POPC   C3B41661  41.243  23.781   7.214
 3211POPC   C4B41662  41.213  23.923   7.671
 3212POPC   NC341663  31.998  34.963   5.406
 3212POPC   PO441664  32.317  34.267   5.418
 3212POPC   GL141665  32.315  34.418   5.855
 3212POPC   GL241666  32.247  34.791   5.820
 3212POPC   C1A41667  32.450  34.467   6.284
 3212POPC   D2A41668  32.639  34.290   6.667
 3212POPC   C3A41669  32.369  34.395   6.997
 3212POPC   C4A41670  32.383  34.379   7.423
 3212POPC   C1B41671  32.301  34.974   6.173
 3212POPC   C2B41672  32.150  34.847   6.544
 3212POPC   C3B41673  32.272  34.918   6.936
 3212POPC   C4B41674  32.215  34.835   7.314
 3213POPC   NC341675  26.575  23.829   5.517
 3213POPC   PO441676  27.183  23.534   5.410
 3213POPC   GL141677  26.983  23.647   5.795
 3213POPC   GL241678  27.209  23.794   5.987
 3213POPC   C1A41679  26.686  23.679   6.166
 3213POPC   D2A41680  26.500  23.527   6.569
 3213POPC   C3A41681  26.435  23.840   6.889
 3213POPC   C4A41682  26.620  23.833   7.289
 3213POPC   C1B41683  27.148  23.573   6.383
 3213POPC   C2B41684  26.950  23.702   6.782
 3213POPC   C3B41685  27.117  23.947   7.141
 3213POPC   C4B41686  27.231  23.954   7.590
 3214POPC   NC341687  36.717  44.582   5.343
 3214POPC   PO441688  37.051   0.154   5.391
 3214POPC   GL141689  36.817  44.925   5.802
 3214POPC   GL241690  36.711  44.547   5.844
 3214POPC   C1A41691  36.952  44.762   6.245
 3214POPC   D2A41692  37.099  44.501   6.577
 3214POPC   C3A41693  37.083  44.677   6.973
 3214POPC   C4A41694  37.089  44.822   7.390
 3214POPC   C1B41695  36.856  44.256   6.165
 3214POPC   C2B41696  36.674  44.160   6.558
 3214POPC   C3B41697  36.850  44.126   6.972
 3214POPC   C4B41698  36.982  44.324   7.367
 3215POPC   NC341699  28.591  18.479   5.484
 3215POPC   PO441700  28.105  18.154   5.306
 3215POPC   GL141701  28.225  18.244   5.739
 3215POPC   GL241702  28.169  18.605   5.810
 3215POPC   C1A41703  28.496  18.280   6.121
 3215POPC   D2A41704  28.659  18.442   6.502
 3215POPC   C3A41705  28.495  18.215   6.854
 3215POPC   C4A41706  28.428  18.326   7.247
 3215POPC   C1B41707  28.260  18.729   6.264
 3215POPC   C2B41708  28.264  18.680   6.726
 3215POPC   C3B41709  28.132  18.756   7.136
 3215POPC   C4B41710  28.090  18.565   7.522
 3216POPC   NC341711  15.608  24.125   5.566
 3216POPC   PO441712  15.458  24.752   5.449
 3216POPC   GL141713  15.282  24.670   5.857
 3216POPC   GL241714  14.942  24.601   5.798
 3216POPC   C1A41715  15.290  24.500   6.294
 3216POPC   D2A41716  15.186  24.494   6.743
 3216POPC   C3A41717  15.391  24.556   7.126
 3216POPC   C4A41718  15.349  24.229   7.407
 3216POPC   C1B41719  14.831  24.758   6.203
 3216POPC   C2B41720  14.841  24.871   6.636
 3216POPC   C3B41721  14.920  24.794   7.093
 3216POPC   C4B41722  14.925  24.379   7.176
 3217POPC   NC341723  17.905  32.319   5.503
 3217POPC   PO441724  17.248  32.137   5.450
 3217POPC   GL141725  17.468  32.378   5.804
 3217POPC   GL241726  17.798  32.372   6.006
 3217POPC   C1A41727  17.318  32.503   6.210
 3217POPC   D2A41728  17.153  32.309   6.585
 3217POPC   C3A41729  17.458  32.408   6.927
 3217POPC   C4A41730  17.371  32.512   7.362
 3217POPC   C1B41731  17.579  32.068   6.279
 3217POPC   C2B41732  17.498  31.940   6.694
 3217POPC   C3B41733  17.523  31.959   7.141
 3217POPC   C4B41734  17.612  31.940   7.564
 3218POPC   NC341735  27.985  16.305   5.432
 3218POPC   PO441736  27.304  16.154   5.409
 3218POPC   GL141737  27.437  15.904   5.745
 3218POPC   GL241738  27.796  15.878   5.729
 3218POPC   C1A41739  27.324  15.937   6.193
 3218POPC   D2A41740  27.324  15.787   6.620
 3218POPC   C3A41741  27.402  16.007   7.000
 3218POPC   C4A41742  27.304  16.023   7.452
 3218POPC   C1B41743  27.790  15.745   6.148
 3218POPC   C2B41744  27.840  15.707   6.575
 3218POPC   C3B41745  27.967  15.893   6.929
 3218POPC   C4B41746  27.807  15.962   7.316
 3219POPC   NC341747  43.820  24.228   5.541
 3219POPC   PO441748  44.267  24.634   5.182
 3219POPC   GL141749  43.945  24.753   5.639
 3219POPC   GL241750  43.582  24.864   5.648
 3219POPC   C1A41751  43.908  24.700   6.160
 3219POPC   D2A41752  43.929  24.454   6.599
 3219POPC   C3A41753  43.923  24.618   7.046
 3219POPC   C4A41754  43.937  24.787   7.482
 3219POPC   C1B41755  43.506  25.014   6.062
 3219POPC   C2B41756  43.490  24.793   6.466
 3219POPC   C3B41757  43.432  24.583   6.856
 3219POPC   C4B41758  43.485  24.810   7.227
 3220POPC   NC341759  19.567   9.207   5.426
 3220POPC   PO441760  19.897   9.821   5.346
 3220POPC   GL141761  19.786   9.805   5.784
 3220POPC   GL241762  20.034  10.074   5.803
 3220POPC   C1A41763  19.852   9.512   6.164
 3220POPC   D2A41764  20.116   9.521   6.559
 3220POPC   C3A41765  19.918   9.578   6.981
 3220POPC   C4A41766  20.008   9.684   7.423
 3220POPC   C1B41767  19.988  10.008   6.247
 3220POPC   C2B41768  20.144  10.072   6.664
 3220POPC   C3B41769  20.004  10.089   7.091
 3220POPC   C4B41770  19.727  10.100   7.437
 3221POPC   NC341771  28.625  36.301   5.492
 3221POPC   PO441772  28.222  35.803   5.428
 3221POPC   GL141773  28.335  35.991   5.800
 3221POPC   GL241774  28.660  35.944   5.873
 3221POPC   C1A41775  28.228  35.888   6.249
 3221POPC   D2A41776  28.143  35.597   6.592
 3221POPC   C3A41777  28.256  35.780   6.996
 3221POPC   C4A41778  28.179  36.133   7.229
 3221POPC   C1B41779  28.528  36.295   6.146
 3221POPC   C2B41780  28.419  36.290   6.564
 3221POPC   C3B41781  28.595  36.232   6.963
 3221POPC   C4B41782  28.475  36.522   7.290
 3222POPC   NC341783  38.108   3.708   5.504
 3222POPC   PO441784  38.768   3.925   5.423
 3222POPC   GL141785  38.687   3.786   5.845
 3222POPC   GL241786  38.377   3.666   5.920
 3222POPC   C1A41787  38.710   3.711   6.303
 3222POPC   D2A41788  38.647   3.897   6.724
 3222POPC   C3A41789  38.833   3.623   7.062
 3222POPC   C4A41790  38.647   3.544   7.464
 3222POPC   C1B41791  38.151   3.608   6.292
 3222POPC   C2B41792  38.373   3.488   6.626
 3222POPC   C3B41793  38.307   3.624   6.998
 3222POPC   C4B41794  38.128   3.617   7.345
 3223POPC   NC341795  22.415   5.345   5.391
 3223POPC   PO441796  22.041   4.814   5.439
 3223POPC   GL141797  22.277   4.981   5.817
 3223POPC   GL241798  22.203   5.353   5.846
 3223POPC   C1A41799  22.299   4.822   6.270
 3223POPC   D2A41800  21.995   4.963   6.626
 3223POPC   C3A41801  22.063   5.068   7.098
 3223POPC   C4A41802  22.348   4.865   7.409
 3223POPC   C1B41803  22.302   5.318   6.264
 3223POPC   C2B41804  22.138   5.482   6.662
 3223POPC   C3B41805  22.255   5.656   7.066
 3223POPC   C4B41806  22.365   5.368   7.411
 3224POPC   NC341807  13.649   3.073   5.349
 3224POPC   PO441808  14.090   2.606   5.340
 3224POPC   GL141809  13.949   2.863   5.715
 3224POPC   GL241810  13.596   2.764   5.785
 3224POPC   C1A41811  13.929   2.743   6.172
 3224POPC   D2A41812  13.719   2.828   6.558
 3224POPC   C3A41813  13.818   2.699   6.992
 3224POPC   C4A41814  13.671   2.893   7.405
 3224POPC   C1B41815  13.486   3.039   6.141
 3224POPC   C2B41816  13.218   3.080   6.509
 3224POPC   C3B41817  13.338   2.926   6.894
 3224POPC   C4B41818  13.311   3.182   7.195
 3225POPC   NC341819  34.798  29.042   5.250
 3225POPC   PO441820  34.422  29.593   5.288
 3225POPC   GL141821  34.499  29.225   5.620
 3225POPC   GL241822  34.809  29.392   5.685
 3225POPC   C1A41823  34.473  29.024   6.071
 3225POPC   D2A41824  34.346  29.150   6.514
 3225POPC   C3A41825  34.642  29.061   6.853
 3225POPC   C4A41826  34.543  29.153   7.241
 3225POPC   C1B41827  34.727  29.477   6.115
 3225POPC   C2B41828  34.712  29.496   6.567
 3225POPC   C3B41829  34.889  29.503   6.997
 3225POPC   C4B41830  34.946  29.354   7.446
 3226POPC   NC341831  12.372  25.423   5.395
 3226POPC   PO441832  12.260  24.805   5.389
 3226POPC   GL141833  12.173  25.081   5.764
 3226POPC   GL241834  11.986  25.433   5.756
 3226POPC   C1A41835  12.355  25.133   6.188
 3226POPC   D2A41836  12.457  25.022   6.609
 3226POPC   C3A41837  12.163  25.060   6.936
 3226POPC   C4A41838  12.146  24.891   7.331
 3226POPC   C1B41839  11.975  25.485   6.228
 3226POPC   C2B41840  12.169  25.534   6.655
 3226POPC   C3B41841  12.086  25.512   7.117
 3226POPC   C4B41842  11.763  25.250   7.321
 3227POPC   NC341843  37.679  15.143   5.262
 3227POPC   PO441844  37.579  14.770   5.781
 3227POPC   GL141845  37.451  15.153   5.906
 3227POPC   GL241846  37.789  15.322   5.790
 3227POPC   C1A41847  37.354  15.080   6.362
 3227POPC   D2A41848  37.618  14.741   6.568
 3227POPC   C3A41849  37.697  14.807   7.010
 3227POPC   C4A41850  37.492  15.084   7.290
 3227POPC   C1B41851  37.732  15.430   6.244
 3227POPC   C2B41852  37.720  15.275   6.682
 3227POPC   C3B41853  37.701  15.513   7.046
 3227POPC   C4B41854  37.832  15.411   7.448
 3228POPC   NC341855  26.244  33.457   5.470
 3228POPC   PO441856  25.893  34.047   5.536
 3228POPC   GL141857  26.015  33.802   5.856
 3228POPC   GL241858  25.808  33.549   5.810
 3228POPC   C1A41859  26.239  33.726   6.237
 3228POPC   D2A41860  26.481  33.769   6.610
 3228POPC   C3A41861  26.232  33.816   6.982
 3228POPC   C4A41862  26.152  33.817   7.419
 3228POPC   C1B41863  25.716  33.707   6.269
 3228POPC   C2B41864  25.718  33.779   6.739
 3228POPC   C3B41865  25.844  33.502   7.077
 3228POPC   C4B41866  25.839  33.441   7.532
 3229POPC   NC341867   1.878  28.544   5.418
 3229POPC   PO441868   2.378  28.066   5.266
 3229POPC   GL141869   2.228  28.269   5.689
 3229POPC   GL241870   2.063  27.943   5.731
 3229POPC   C1A41871   1.926  28.456   6.076
 3229POPC   D2A41872   1.768  28.643   6.511
 3229POPC   C3A41873   1.999  28.472   6.862
 3229POPC   C4A41874   2.100  28.646   7.246
 3229POPC   C1B41875   1.892  27.952   6.144
 3229POPC   C2B41876   1.703  28.135   6.521
 3229POPC   C3B41877   1.665  28.071   6.962
 3229POPC   C4B41878   2.071  27.999   7.123
 3230POPC   NC341879  32.977  12.475   5.392
 3230POPC   PO441880  32.751  13.042   5.288
 3230POPC   GL141881  33.025  12.948   5.649
 3230POPC   GL241882  32.879  13.185   5.882
 3230POPC   C1A41883  33.213  12.750   6.047
 3230POPC   D2A41884  33.088  12.616   6.479
 3230POPC   C3A41885  33.190  12.786   6.879
 3230POPC   C4A41886  33.046  12.657   7.267
 3230POPC   C1B41887  32.929  13.111   6.349
 3230POPC   C2B41888  32.870  13.187   6.796
 3230POPC   C3B41889  32.842  13.122   7.276
 3230POPC   C4B41890  32.659  13.086   7.754
 3231POPC   NC341891   0.131   1.491   5.090
 3231POPC   PO441892   0.457   0.952   5.410
 3231POPC   GL141893   0.494   1.084   5.826
 3231POPC   GL241894   0.631   1.432   5.867
 3231POPC   C1A41895   0.614   1.028   6.250
 3231POPC   D2A41896   0.544   1.331   6.547
 3231POPC   C3A41897   0.528   1.163   6.927
 3231POPC   C4A41898   0.563   1.360   7.324
 3231POPC   C1B41899   0.272   1.540   6.148
 3231POPC   C2B41900   0.157   1.726   6.562
 3231POPC   C3B41901   0.326   1.661   6.967
 3231POPC   C4B41902   0.064   1.529   7.304
 3232POPC   NC341903  14.706  13.521   5.198
 3232POPC   PO441904  15.160  13.844   5.450
 3232POPC   GL141905  15.048  13.754   5.903
 3232POPC   GL241906  14.974  13.401   5.953
 3232POPC   C1A41907  15.288  13.657   6.297
 3232POPC   D2A41908  15.582  13.903   6.558
 3232POPC   C3A41909  15.447  13.871   6.988
 3232POPC   C4A41910  15.418  13.685   7.385
 3232POPC   C1B41911  14.872  13.317   6.358
 3232POPC   C2B41912  15.042  13.464   6.729
 3232POPC   C3B41913  14.974  13.630   7.120
 3232POPC   C4B41914  14.991  13.374   7.464
 3233POPC   NC341915   4.462  17.688   5.252
 3233POPC   PO441916   5.025  17.302   5.358
 3233POPC   GL141917   5.163  17.363   5.792
 3233POPC   GL241918   5.127  17.682   5.820
 3233POPC   C1A41919   5.266  17.458   6.284
 3233POPC   D2A41920   5.152  17.286   6.724
 3233POPC   C3A41921   5.094  17.302   7.215
 3233POPC   C4A41922   4.901  17.158   7.626
 3233POPC   C1B41923   4.989  17.870   6.193
 3233POPC   C2B41924   5.182  17.901   6.582
 3233POPC   C3B41925   5.033  17.737   6.944
 3233POPC   C4B41926   5.208  17.789   7.331
 3234POPC   NC341927  24.373  21.568   5.488
 3234POPC   PO441928  24.396  20.909   5.373
 3234POPC   GL141929  24.343  21.071   5.759
 3234POPC   GL241930  24.633  21.308   5.830
 3234POPC   C1A41931  24.266  21.256   6.157
 3234POPC   D2A41932  24.500  21.491   6.436
 3234POPC   C3A41933  24.421  21.353   6.845
 3234POPC   C4A41934  24.350  21.054   7.159
 3234POPC   C1B41935  24.745  21.746   6.045
 3234POPC   C2B41936  24.807  21.884   6.498
 3234POPC   C3B41937  24.912  21.734   6.907
 3234POPC   C4B41938  24.805  21.404   7.202
 3235POPC   NC341939   1.502  35.917   5.523
 3235POPC   PO441940   1.264  36.660   5.590
 3235POPC   GL141941   1.354  36.323   5.836
 3235POPC   GL241942   1.253  35.976   5.960
 3235POPC   C1A41943   1.365  36.354   6.265
 3235POPC   D2A41944   1.251  36.019   6.507
 3235POPC   C3A41945   1.154  36.212   6.847
 3235POPC   C4A41946   1.401  36.365   7.127
 3235POPC   C1B41947   0.971  35.712   6.205
 3235POPC   C2B41948   0.982  35.605   6.666
 3235POPC   C3B41949   0.944  35.823   7.073
 3235POPC   C4B41950   0.934  35.728   7.534
 3236POPC   NC341951   8.427  21.248   5.312
 3236POPC   PO441952   7.908  21.624   5.408
 3236POPC   GL141953   8.244  21.507   5.754
 3236POPC   GL241954   8.335  21.125   5.814
 3236POPC   C1A41955   8.302  21.456   6.233
 3236POPC   D2A41956   8.407  21.359   6.685
 3236POPC   C3A41957   8.337  21.649   7.061
 3236POPC   C4A41958   7.901  21.708   7.147
 3236POPC   C1B41959   8.012  21.016   6.148
 3236POPC   C2B41960   7.918  21.185   6.570
 3236POPC   C3B41961   7.980  21.001   6.985
 3236POPC   C4B41962   8.336  21.162   7.195
 3237POPC   NC341963  36.777  22.721   5.242
 3237POPC   PO441964  37.194  23.180   5.283
 3237POPC   GL141965  36.905  22.907   5.683
 3237POPC   GL241966  36.654  22.619   5.749
 3237POPC   C1A41967  37.014  22.663   6.096
 3237POPC   D2A41968  37.160  22.809   6.501
 3237POPC   C3A41969  36.836  22.776   6.827
 3237POPC   C4A41970  36.900  22.946   7.231
 3237POPC   C1B41971  36.541  22.536   6.205
 3237POPC   C2B41972  36.358  22.512   6.629
 3237POPC   C3B41973  36.420  22.517   7.089
 3237POPC   C4B41974  36.540  22.710   7.492
 3238POPC   NC341975  34.719  14.086   5.413
 3238POPC   PO441976  34.109  14.431   5.372
 3238POPC   GL141977  34.366  14.328   5.735
 3238POPC   GL241978  34.681  14.497   5.782
 3238POPC   C1A41979  34.345  14.297   6.164
 3238POPC   D2A41980  34.601  14.482   6.486
 3238POPC   C3A41981  34.393  14.346   6.841
 3238POPC   C4A41982  34.325  14.449   7.232
 3238POPC   C1B41983  34.834  14.182   6.072
 3238POPC   C2B41984  35.038  14.212   6.449
 3238POPC   C3B41985  34.932  14.160   6.844
 3238POPC   C4B41986  34.819  14.328   7.198
 3239POPC   NC341987  38.631  18.283   5.413
 3239POPC   PO441988  38.149  18.859   5.326
 3239POPC   GL141989  38.104  18.536   5.695
 3239POPC   GL241990  38.211  18.174   5.719
 3239POPC   C1A41991  38.261  18.438   6.154
 3239POPC   D2A41992  38.420  18.201   6.526
 3239POPC   C3A41993  38.675  18.436   6.820
 3239POPC   C4A41994  38.842  18.463   7.255
 3239POPC   C1B41995  38.278  17.902   6.111
 3239POPC   C2B41996  38.113  17.784   6.521
 3239POPC   C3B41997  38.315  17.782   6.902
 3239POPC   C4B41998  38.462  18.100   7.174
 3240POPC   NC341999  22.152   7.108   5.516
 3240POPC   PO442000  22.377   7.760   5.292
 3240POPC   GL142001  22.129   7.611   5.684
 3240POPC   GL242002  22.430   7.518   5.789
 3240POPC   C1A42003  22.005   7.369   6.113
 3240POPC   D2A42004  22.196   7.046   6.419
 3240POPC   C3A42005  22.217   7.240   6.820
 3240POPC   C4A42006  22.214   7.237   7.275
 3240POPC   C1B42007  22.464   7.745   6.151
 3240POPC   C2B42008  22.383   7.840   6.584
 3240POPC   C3B42009  22.484   7.655   6.995
 3240POPC   C4B42010  22.223   7.750   7.282
 3241POPC   NC342011  19.686  17.789   5.407
 3241POPC   PO442012  20.151  17.369   5.442
 3241POPC   GL142013  19.862  17.460   5.806
 3241POPC   GL242014  19.492  17.426   5.735
 3241POPC   C1A42015  19.948  17.621   6.239
 3241POPC   D2A42016  19.953  17.861   6.646
 3241POPC   C3A42017  20.053  17.689   7.034
 3241POPC   C4A42018  19.758  17.785   7.342
 3241POPC   C1B42019  19.499  17.375   6.184
 3241POPC   C2B42020  19.709  17.353   6.603
 3241POPC   C3B42021  19.607  17.381   7.027
 3241POPC   C4B42022  19.592  16.977   7.188
 3242POPC   NC342023  24.705  27.915   5.429
 3242POPC   PO442024  24.162  27.819   5.780
 3242POPC   GL142025  24.577  27.913   5.924
 3242POPC   GL242026  24.671  27.572   5.824
 3242POPC   C1A42027  24.696  27.961   6.363
 3242POPC   D2A42028  24.559  27.632   6.652
 3242POPC   C3A42029  24.561  27.592   7.092
 3242POPC   C4A42030  24.152  27.683   7.250
 3242POPC   C1B42031  24.842  27.467   6.244
 3242POPC   C2B42032  24.992  27.399   6.687
 3242POPC   C3B42033  24.839  27.139   7.063
 3242POPC   C4B42034  24.826  27.263   7.515
 3243POPC   NC342035   8.994  29.440   5.507
 3243POPC   PO442036   9.123  28.800   5.788
 3243POPC   GL142037   8.982  29.159   5.931
 3243POPC   GL242038   8.659  29.196   5.872
 3243POPC   C1A42039   8.973  29.172   6.335
 3243POPC   D2A42040   9.196  29.296   6.663
 3243POPC   C3A42041   9.205  28.995   6.962
 3243POPC   C4A42042   9.196  29.267   7.263
 3243POPC   C1B42043   8.486  29.292   6.276
 3243POPC   C2B42044   8.662  29.394   6.687
 3243POPC   C3B42045   8.726  29.149   7.065
 3243POPC   C4B42046   8.814  28.892   7.396
 3244POPC   NC342047  36.389  30.850   5.484
 3244POPC   PO442048  35.904  30.433   5.199
 3244POPC   GL142049  36.100  30.415   5.664
 3244POPC   GL242050  36.413  30.497   5.879
 3244POPC   C1A42051  35.978  30.437   6.135
 3244POPC   D2A42052  36.044  30.338   6.610
 3244POPC   C3A42053  35.955  30.608   6.981
 3244POPC   C4A42054  35.901  30.842   7.383
 3244POPC   C1B42055  36.402  30.612   6.351
 3244POPC   C2B42056  36.240  30.873   6.669
 3244POPC   C3B42057  36.381  31.035   7.056
 3244POPC   C4B42058  36.369  30.657   7.278
 3245POPC   NC342059  33.134  16.305   5.337
 3245POPC   PO442060  32.852  15.787   5.698
 3245POPC   GL142061  33.195  15.996   5.875
 3245POPC   GL242062  33.033  16.323   5.842
 3245POPC   C1A42063  33.305  15.898   6.323
 3245POPC   D2A42064  32.941  15.791   6.598
 3245POPC   C3A42065  32.977  15.657   7.021
 3245POPC   C4A42066  33.156  15.898   7.341
 3245POPC   C1B42067  32.919  16.235   6.266
 3245POPC   C2B42068  33.082  16.302   6.652
 3245POPC   C3B42069  32.867  16.156   6.990
 3245POPC   C4B42070  32.731  16.197   7.399
 3246POPC   NC342071  31.166   6.415   5.517
 3246POPC   PO442072  30.412   6.460   5.431
 3246POPC   GL142073  30.693   6.688   5.739
 3246POPC   GL242074  30.734   7.066   5.681
 3246POPC   C1A42075  30.815   6.623   6.174
 3246POPC   D2A42076  30.627   6.678   6.587
 3246POPC   C3A42077  30.542   6.384   6.936
 3246POPC   C4A42078  30.889   6.256   7.180
 3246POPC   C1B42079  30.524   7.069   6.110
 3246POPC   C2B42080  30.500   7.206   6.563
 3246POPC   C3B42081  30.661   7.050   6.921
 3246POPC   C4B42082  30.614   6.799   7.230
 3247POPC   NC342083   1.542  35.087   5.492
 3247POPC   PO442084   1.307  35.590   5.250
 3247POPC   GL142085   1.198  35.524   5.705
 3247POPC   GL242086   1.502  35.517   5.863
 3247POPC   C1A42087   1.088  35.216   6.053
 3247POPC   D2A42088   1.120  34.984   6.471
 3247POPC   C3A42089   0.908  35.100   6.843
 3247POPC   C4A42090   1.158  35.366   7.129
 3247POPC   C1B42091   1.445  35.520   6.306
 3247POPC   C2B42092   1.555  35.271   6.669
 3247POPC   C3B42093   1.671  35.443   7.054
 3247POPC   C4B42094   1.484  35.829   7.154
 3248POPC   NC342095  21.169   5.613   5.667
 3248POPC   PO442096  21.389   6.187   5.400
 3248POPC   GL142097  21.234   6.101   5.821
 3248POPC   GL242098  21.569   6.026   5.867
 3248POPC   C1A42099  21.248   5.982   6.271
 3248POPC   D2A42100  21.050   6.051   6.665
 3248POPC   C3A42101  21.079   5.810   7.031
 3248POPC   C4A42102  20.952   6.135   7.252
 3248POPC   C1B42103  21.761   6.112   6.244
 3248POPC   C2B42104  21.752   5.811   6.577
 3248POPC   C3B42105  21.624   5.699   6.972
 3248POPC   C4B42106  21.501   6.083   7.080
 3249POPC   NC342107   8.692  16.743   5.377
 3249POPC   PO442108   8.088  16.855   5.303
 3249POPC   GL142109   8.207  16.794   5.706
 3249POPC   GL242110   8.456  16.986   5.772
 3249POPC   C1A42111   8.070  16.740   6.112
 3249POPC   D2A42112   8.210  16.501   6.463
 3249POPC   C3A42113   8.170  16.694   6.852
 3249POPC   C4A42114   7.828  16.660   7.146
 3249POPC   C1B42115   8.575  16.733   6.100
 3249POPC   C2B42116   8.564  16.862   6.514
 3249POPC   C3B42117   8.541  17.081   6.879
 3249POPC   C4B42118   8.445  16.836   7.246
 3250POPC   NC342119  42.902  35.399   5.494
 3250POPC   PO442120  43.515  35.133   5.470
 3250POPC   GL142121  43.237  35.118   5.851
 3250POPC   GL242122  42.850  35.096   5.902
 3250POPC   C1A42123  43.249  35.175   6.322
 3250POPC   D2A42124  43.010  35.039   6.688
 3250POPC   C3A42125  43.127  35.215   7.088
 3250POPC   C4A42126  43.477  35.188   7.379
 3250POPC   C1B42127  42.751  35.343   6.309
 3250POPC   C2B42128  43.029  35.554   6.628
 3250POPC   C3B42129  42.985  35.726   7.019
 3250POPC   C4B42130  42.728  35.641   7.372
 3251POPC   NC342131  25.508  20.229   5.696
 3251POPC   PO442132  26.101  20.066   5.366
 3251POPC   GL142133  26.005  19.844   5.803
 3251POPC   GL242134  25.757  19.970   6.065
 3251POPC   C1A42135  26.034  19.562   6.173
 3251POPC   D2A42136  25.978  19.750   6.574
 3251POPC   C3A42137  25.978  19.457   6.905
 3251POPC   C4A42138  25.990  19.674   7.296
 3251POPC   C1B42139  26.201  20.086   6.232
 3251POPC   C2B42140  26.346  20.210   6.650
 3251POPC   C3B42141  26.127  20.125   7.050
 3251POPC   C4B42142  26.188  20.175   7.494
 3252POPC   NC342143   0.287  22.748   5.409
 3252POPC   PO442144  44.884  23.321   5.454
 3252POPC   GL142145   0.213  23.063   5.816
 3252POPC   GL242146   0.309  22.649   5.911
 3252POPC   C1A42147   0.238  22.983   6.284
 3252POPC   D2A42148   0.206  22.649   6.609
 3252POPC   C3A42149   0.082  22.830   7.005
 3252POPC   C4A42150   0.353  23.058   7.304
 3252POPC   C1B42151   0.629  22.682   6.285
 3252POPC   C2B42152   0.645  22.911   6.664
 3252POPC   C3B42153   0.570  22.695   7.019
 3252POPC   C4B42154   0.831  22.498   7.273
 3253POPC   NC342155   6.312  37.148   5.275
 3253POPC   PO442156   6.781  36.698   5.483
 3253POPC   GL142157   6.472  36.865   5.789
 3253POPC   GL242158   6.379  37.227   5.788
 3253POPC   C1A42159   6.548  36.883   6.238
 3253POPC   D2A42160   6.723  36.670   6.586
 3253POPC   C3A42161   6.787  36.804   6.982
 3253POPC   C4A42162   6.492  36.699   7.268
 3253POPC   C1B42163   6.239  37.308   6.207
 3253POPC   C2B42164   6.206  37.063   6.591
 3253POPC   C3B42165   6.390  37.138   6.985
 3253POPC   C4B42166   6.525  37.537   7.146
 3254POPC   NC342167  29.691  14.266   5.419
 3254POPC   PO442168  30.203  14.615   5.242
 3254POPC   GL142169  30.002  14.623   5.674
 3254POPC   GL242170  29.827  14.928   5.733
 3254POPC   C1A42171  29.832  14.392   6.059
 3254POPC   D2A42172  30.018  14.137   6.399
 3254POPC   C3A42173  29.838  14.203   6.796
 3254POPC   C4A42174  29.991  14.463   7.077
 3254POPC   C1B42175  29.724  14.879   6.163
 3254POPC   C2B42176  29.735  14.668   6.579
 3254POPC   C3B42177  29.646  14.846   6.996
 3254POPC   C4B42178  29.537  14.744   7.404
 3255POPC   NC342179  26.450  14.486   5.359
 3255POPC   PO442180  27.009  14.180   5.505
 3255POPC   GL142181  26.976  14.361   5.895
 3255POPC   GL242182  26.892  14.689   5.755
 3255POPC   C1A42183  27.000  14.455   6.348
 3255POPC   D2A42184  26.615  14.499   6.595
 3255POPC   C3A42185  26.583  14.352   7.034
 3255POPC   C4A42186  26.941  14.137   7.201
 3255POPC   C1B42187  26.704  14.848   6.151
 3255POPC   C2B42188  26.937  14.972   6.531
 3255POPC   C3B42189  26.870  14.795   6.947
 3255POPC   C4B42190  26.841  14.645   7.387
 3256POPC   NC342191  13.326  21.589   4.920
 3256POPC   PO442192  13.755  21.495   5.405
 3256POPC   GL142193  13.594  21.369   5.799
 3256POPC   GL242194  13.896  21.182   5.882
 3256POPC   C1A42195  13.465  21.587   6.196
 3256POPC   D2A42196  13.654  21.710   6.630
 3256POPC   C3A42197  13.736  21.434   6.997
 3256POPC   C4A42198  13.478  21.287   7.362
 3256POPC   C1B42199  13.897  21.310   6.331
 3256POPC   C2B42200  14.025  21.097   6.724
 3256POPC   C3B42201  13.816  20.956   7.154
 3256POPC   C4B42202  13.913  21.269   7.587
 3257POPC   NC342203  18.534  22.614   5.473
 3257POPC   PO442204  18.076  22.032   5.536
 3257POPC   GL142205  18.255  21.995   5.934
 3257POPC   GL242206  18.136  21.719   6.056
 3257POPC   C1A42207  18.331  22.199   6.324
 3257POPC   D2A42208  18.517  22.180   6.723
 3257POPC   C3A42209  18.300  22.190   7.069
 3257POPC   C4A42210  18.502  22.259   7.452
 3257POPC   C1B42211  17.873  21.964   6.321
 3257POPC   C2B42212  17.916  22.130   6.700
 3257POPC   C3B42213  17.869  21.894   7.070
 3257POPC   C4B42214  18.105  21.908   7.427
 3258POPC   NC342215  14.498  32.185   5.507
 3258POPC   PO442216  13.961  32.500   5.465
 3258POPC   GL142217  14.102  32.327   5.860
 3258POPC   GL242218  14.249  31.959   5.895
 3258POPC   C1A42219  14.397  32.388   6.173
 3258POPC   D2A42220  14.334  32.302   6.584
 3258POPC   C3A42221  14.620  32.480   6.817
 3258POPC   C4A42222  14.592  32.580   7.211
 3258POPC   C1B42223  14.628  31.944   6.236
 3258POPC   C2B42224  14.752  32.008   6.700
 3258POPC   C3B42225  14.425  32.083   7.042
 3258POPC   C4B42226  14.443  31.897   7.415
 3259POPC   NC342227  41.268   9.844   5.212
 3259POPC   PO442228  41.848  10.093   5.420
 3259POPC   GL142229  41.813   9.776   5.762
 3259POPC   GL242230  41.556   9.498   5.827
 3259POPC   C1A42231  41.882   9.769   6.217
 3259POPC   D2A42232  41.974   9.645   6.652
 3259POPC   C3A42233  41.627   9.569   6.935
 3259POPC   C4A42234  41.503   9.825   7.273
 3259POPC   C1B42235  41.427   9.550   6.270
 3259POPC   C2B42236  41.481   9.911   6.568
 3259POPC   C3B42237  41.226  10.075   6.904
 3259POPC   C4B42238  41.007  10.006   7.261
 3260POPC   NC342239  11.696  35.532   5.484
 3260POPC   PO442240  12.315  35.886   5.385
 3260POPC   GL142241  12.213  35.900   5.775
 3260POPC   GL242242  11.857  35.959   5.735
 3260POPC   C1A42243  12.357  36.016   6.165
 3260POPC   D2A42244  12.128  36.035   6.564
 3260POPC   C3A42245  12.218  35.819   6.956
 3260POPC   C4A42246  12.231  36.057   7.330
 3260POPC   C1B42247  11.872  35.791   6.179
 3260POPC   C2B42248  11.846  35.624   6.641
 3260POPC   C3B42249  11.755  35.609   7.101
 3260POPC   C4B42250  11.730  35.827   7.507
 3261POPC   NC342251  43.641  34.700   5.357
 3261POPC   PO442252  44.278  34.474   5.584
 3261POPC   GL142253  43.870  34.369   5.765
 3261POPC   GL242254  43.854  34.723   5.805
 3261POPC   C1A42255  43.625  34.302   6.186
 3261POPC   D2A42256  43.606  34.335   6.670
 3261POPC   C3A42257  43.949  34.566   6.809
 3261POPC   C4A42258  44.102  34.577   7.184
 3261POPC   C1B42259  43.572  34.817   6.104
 3261POPC   C2B42260  43.647  34.886   6.514
 3261POPC   C3B42261  43.594  35.014   6.909
 3261POPC   C4B42262  43.918  35.038   7.198
 3262POPC   NC342263   7.939  38.037   5.561
 3262POPC   PO442264   8.253  37.421   5.415
 3262POPC   GL142265   8.423  37.570   5.808
 3262POPC   GL242266   8.116  37.679   5.884
 3262POPC   C1A42267   8.411  37.697   6.277
 3262POPC   D2A42268   8.142  37.663   6.636
 3262POPC   C3A42269   8.303  37.538   7.038
 3262POPC   C4A42270   8.183  37.315   7.404
 3262POPC   C1B42271   7.980  37.981   6.225
 3262POPC   C2B42272   7.977  38.156   6.649
 3262POPC   C3B42273   8.043  37.969   7.063
 3262POPC   C4B42274   8.173  37.815   7.503
 3263POPC   NC342275  36.220  21.352   5.357
 3263POPC   PO442276  35.801  20.919   5.676
 3263POPC   GL142277  36.134  21.244   5.859
 3263POPC   GL242278  36.108  21.603   5.803
 3263POPC   C1A42279  36.355  21.364   6.245
 3263POPC   D2A42280  36.346  21.158   6.681
 3263POPC   C3A42281  36.334  21.438   7.037
 3263POPC   C4A42282  35.947  21.310   7.192
 3263POPC   C1B42283  35.927  21.711   6.194
 3263POPC   C2B42284  36.050  21.601   6.608
 3263POPC   C3B42285  35.937  21.791   6.978
 3263POPC   C4B42286  36.049  21.748   7.383
 3264POPC   NC342287  39.827   9.965   5.556
 3264POPC   PO442288  40.205   9.486   5.196
 3264POPC   GL142289  40.209   9.618   5.692
 3264POPC   GL242290  40.229   9.936   5.923
 3264POPC   C1A42291  40.024   9.547   6.136
 3264POPC   D2A42292  40.143   9.282   6.474
 3264POPC   C3A42293  40.006   9.543   6.802
 3264POPC   C4A42294  40.056   9.615   7.235
 3264POPC   C1B42295  39.889  10.073   6.242
 3264POPC   C2B42296  39.735  10.011   6.698
 3264POPC   C3B42297  39.731   9.985   7.169
 3264POPC   C4B42298  39.765  10.108   7.654
 3265POPC   NC342299  19.456  12.884   5.418
 3265POPC   PO442300  20.114  12.874   5.555
 3265POPC   GL142301  19.776  12.936   5.817
 3265POPC   GL242302  19.721  12.588   5.790
 3265POPC   C1A42303  19.681  13.145   6.217
 3265POPC   D2A42304  19.760  13.325   6.649
 3265POPC   C3A42305  19.901  13.099   7.026
 3265POPC   C4A42306  19.765  13.017   7.487
 3265POPC   C1B42307  19.873  12.659   6.246
 3265POPC   C2B42308  19.742  12.751   6.692
 3265POPC   C3B42309  19.750  12.630   7.152
 3265POPC   C4B42310  19.860  12.333   7.456
 3266POPC   NC342311  26.314  13.604   5.492
 3266POPC   PO442312  26.923  13.374   5.431
 3266POPC   GL142313  26.969  13.606   5.812
 3266POPC   GL242314  26.651  13.669   5.906
 3266POPC   C1A42315  27.071  13.471   6.217
 3266POPC   D2A42316  26.865  13.493   6.609
 3266POPC   C3A42317  27.147  13.485   6.993
 3266POPC   C4A42318  26.966  13.263   7.384
 3266POPC   C1B42319  26.837  13.940   6.261
 3266POPC   C2B42320  26.725  13.960   6.729
 3266POPC   C3B42321  26.701  13.662   7.116
 3266POPC   C4B42322  26.620  13.839   7.508
 3267POPC   NC342323  12.143  17.186   5.468
 3267POPC   PO442324  12.033  17.684   5.037
 3267POPC   GL142325  12.138  17.667   5.615
 3267POPC   GL242326  12.301  17.409   5.880
 3267POPC   C1A42327  11.967  17.693   6.113
 3267POPC   D2A42328  12.136  17.774   6.592
 3267POPC   C3A42329  12.070  17.651   7.080
 3267POPC   C4A42330  11.954  17.858   7.505
 3267POPC   C1B42331  12.096  17.225   6.263
 3267POPC   C2B42332  11.971  17.271   6.710
 3267POPC   C3B42333  11.820  17.176   7.141
 3267POPC   C4B42334  11.920  17.329   7.546
 3268POPC   NC342335  17.965  12.168   5.585
 3268POPC   PO442336  18.205  11.546   5.399
 3268POPC   GL142337  18.378  11.865   5.712
 3268POPC   GL242338  18.522  12.228   5.693
 3268POPC   C1A42339  18.348  11.966   6.150
 3268POPC   D2A42340  18.526  11.930   6.548
 3268POPC   C3A42341  18.168  11.927   6.794
 3268POPC   C4A42342  18.046  11.973   7.197
 3268POPC   C1B42343  18.578  12.424   6.115
 3268POPC   C2B42344  18.332  12.416   6.513
 3268POPC   C3B42345  18.162  12.419   6.921
 3268POPC   C4B42346  18.316  12.421   7.321
 3269POPC   NC342347  21.910  29.498   5.507
 3269POPC   PO442348  22.354  29.018   5.394
 3269POPC   GL142349  22.420  29.132   5.859
 3269POPC   GL242350  22.171  29.380   5.913
 3269POPC   C1A42351  22.128  29.057   6.281
 3269POPC   D2A42352  21.861  28.968   6.679
 3269POPC   C3A42353  22.066  28.942   7.101
 3269POPC   C4A42354  22.143  29.074   7.546
 3269POPC   C1B42355  22.152  29.585   6.315
 3269POPC   C2B42356  22.108  29.437   6.760
 3269POPC   C3B42357  22.341  29.383   7.178
 3269POPC   C4B42358  22.539  29.410   7.635
 3270POPC   NC342359  19.647   7.781   5.593
 3270POPC   PO442360  19.054   7.333   5.458
 3270POPC   GL142361  19.297   7.435   5.771
 3270POPC   GL242362  19.395   7.094   5.849
 3270POPC   C1A42363  19.214   7.746   6.105
 3270POPC   D2A42364  18.979   7.811   6.465
 3270POPC   C3A42365  19.196   7.622   6.779
 3270POPC   C4A42366  19.248   7.555   7.199
 3270POPC   C1B42367  19.129   7.231   6.200
 3270POPC   C2B42368  19.364   7.178   6.564
 3270POPC   C3B42369  19.119   7.140   6.912
 3270POPC   C4B42370  19.044   6.997   7.272
 3271POPC   NC342371  11.123  40.736   5.502
 3271POPC   PO442372  10.459  40.658   5.392
 3271POPC   GL142373  10.616  40.687   5.837
 3271POPC   GL242374  10.926  40.825   5.969
 3271POPC   C1A42375  10.450  40.823   6.263
 3271POPC   D2A42376  10.299  41.192   6.505
 3271POPC   C3A42377  10.329  41.057   6.943
 3271POPC   C4A42378  10.362  40.857   7.373
 3271POPC   C1B42379  10.918  40.613   6.365
 3271POPC   C2B42380  10.708  40.783   6.719
 3271POPC   C3B42381  10.792  40.919   7.124
 3271POPC   C4B42382  10.850  40.722   7.530
 3272POPC   NC342383  36.644  10.833   5.060
 3272POPC   PO442384  36.923  10.288   5.378
 3272POPC   GL142385  36.790  10.371   5.789
 3272POPC   GL242386  37.109  10.529   5.872
 3272POPC   C1A42387  36.682  10.649   6.157
 3272POPC   D2A42388  36.788  10.491   6.546
 3272POPC   C3A42389  36.557  10.546   6.887
 3272POPC   C4A42390  36.839  10.643   7.173
 3272POPC   C1B42391  37.212  10.127   6.047
 3272POPC   C2B42392  37.163  10.133   6.474
 3272POPC   C3B42393  37.266  10.268   6.879
 3272POPC   C4B42394  37.101  10.236   7.286
 3273POPC   NC342395  11.994  37.216   5.475
 3273POPC   PO442396  12.177  37.858   5.465
 3273POPC   GL142397  12.125  37.580   5.816
 3273POPC   GL242398  11.758  37.546   5.806
 3273POPC   C1A42399  11.991  37.442   6.246
 3273POPC   D2A42400  12.164  37.465   6.671
 3273POPC   C3A42401  11.943  37.444   7.073
 3273POPC   C4A42402  12.150  37.576   7.477
 3273POPC   C1B42403  11.768  37.928   6.033
 3273POPC   C2B42404  11.882  37.968   6.441
 3273POPC   C3B42405  11.933  37.907   6.867
 3273POPC   C4B42406  11.807  37.911   7.293
 3274POPC   NC342407  14.068  33.007   5.442
 3274POPC   PO442408  14.762  33.344   5.419
 3274POPC   GL142409  14.604  33.093   5.826
 3274POPC   GL242410  14.305  32.836   5.856
 3274POPC   C1A42411  14.415  33.182   6.247
 3274POPC   D2A42412  14.476  33.454   6.576
 3274POPC   C3A42413  14.300  33.389   6.956
 3274POPC   C4A42414  14.357  33.044   7.190
 3274POPC   C1B42415  14.088  32.773   6.250
 3274POPC   C2B42416  14.220  32.816   6.673
 3274POPC   C3B42417  14.112  32.581   7.034
 3274POPC   C4B42418  14.094  32.694   7.447
 3275POPC   NC342419  18.511  39.037   5.469
 3275POPC   PO442420  18.094  39.489   5.368
 3275POPC   GL142421  18.132  39.279   5.746
 3275POPC   GL242422  18.341  39.541   5.868
 3275POPC   C1A42423  18.334  39.106   6.144
 3275POPC   D2A42424  18.326  39.297   6.570
 3275POPC   C3A42425  18.442  39.046   6.913
 3275POPC   C4A42426  18.275  39.020   7.334
 3275POPC   C1B42427  18.587  39.598   6.241
 3275POPC   C2B42428  18.699  39.643   6.689
 3275POPC   C3B42429  18.519  39.526   7.098
 3275POPC   C4B42430  18.167  39.536   7.380
 3276POPC   NC342431   8.345  43.424   5.293
 3276POPC   PO442432   7.968  43.961   5.422
 3276POPC   GL142433   7.978  43.642   5.748
 3276POPC   GL242434   8.330  43.553   5.787
 3276POPC   C1A42435   7.924  43.753   6.189
 3276POPC   D2A42436   8.068  44.063   6.489
 3276POPC   C3A42437   8.030  43.894   6.930
 3276POPC   C4A42438   8.290  43.988   7.297
 3276POPC   C1B42439   8.436  43.715   6.188
 3276POPC   C2B42440   8.284  43.601   6.582
 3276POPC   C3B42441   8.475  43.616   6.974
 3276POPC   C4B42442   8.404  43.411   7.328
 3277POPC   NC342443  16.336  44.050   5.404
 3277POPC   PO442444  15.715  43.625   5.368
 3277POPC   GL142445  15.821  43.904   5.687
 3277POPC   GL242446  16.153  43.798   5.812
 3277POPC   C1A42447  15.770  43.946   6.139
 3277POPC   D2A42448  16.042  43.928   6.497
 3277POPC   C3A42449  16.051  44.211   6.815
 3277POPC   C4A42450  15.961  43.975   7.156
 3277POPC   C1B42451  16.264  43.559   6.177
 3277POPC   C2B42452  16.430  43.596   6.596
 3277POPC   C3B42453  16.243  43.534   6.997
 3277POPC   C4B42454  16.320  43.728   7.411
 3278POPC   NC342455   0.664  15.708   5.501
 3278POPC   PO442456   0.105  15.864   5.626
 3278POPC   GL142457   0.415  16.060   5.866
 3278POPC   GL242458   0.778  15.986   5.910
 3278POPC   C1A42459   0.291  16.019   6.277
 3278POPC   D2A42460   0.236  15.699   6.582
 3278POPC   C3A42461   0.161  15.930   6.948
 3278POPC   C4A42462   0.441  15.982   7.273
 3278POPC   C1B42463   0.626  15.619   6.160
 3278POPC   C2B42464   0.703  15.446   6.579
 3278POPC   C3B42465   0.734  15.681   6.992
 3278POPC   C4B42466   0.788  15.701   7.481
 3279POPC   NC342467   4.754  36.094   5.451
 3279POPC   PO442468   5.176  36.652   5.510
 3279POPC   GL142469   5.093  36.298   5.806
 3279POPC   GL242470   4.740  36.236   5.938
 3279POPC   C1A42471   5.152  36.082   6.208
 3279POPC   D2A42472   4.966  36.202   6.588
 3279POPC   C3A42473   5.194  36.138   6.946
 3279POPC   C4A42474   5.532  36.345   7.130
 3279POPC   C1B42475   4.727  35.807   6.169
 3279POPC   C2B42476   4.866  35.690   6.592
 3279POPC   C3B42477   4.727  35.884   6.969
 3279POPC   C4B42478   4.860  36.150   7.321
 3280POPC   NC342479  41.261  24.768   5.026
 3280POPC   PO442480  40.746  24.791   5.490
 3280POPC   GL142481  40.869  24.484   5.798
 3280POPC   GL242482  40.667  24.166   5.792
 3280POPC   C1A42483  40.924  24.588   6.228
 3280POPC   D2A42484  40.731  24.796   6.575
 3280POPC   C3A42485  40.845  24.576   6.936
 3280POPC   C4A42486  40.636  24.507   7.312
 3280POPC   C1B42487  40.868  24.087   6.194
 3280POPC   C2B42488  41.074  24.228   6.553
 3280POPC   C3B42489  40.946  24.080   6.911
 3280POPC   C4B42490  41.046  24.239   7.305
 3281POPC   NC342491   3.242  30.517   5.437
 3281POPC   PO442492   3.685  30.949   5.484
 3281POPC   GL142493   3.456  30.770   5.810
 3281POPC   GL242494   3.639  30.463   5.811
 3281POPC   C1A42495   3.436  30.679   6.247
 3281POPC   D2A42496   3.645  30.863   6.607
 3281POPC   C3A42497   3.472  30.832   7.022
 3281POPC   C4A42498   3.200  30.671   7.357
 3281POPC   C1B42499   3.653  30.207   6.182
 3281POPC   C2B42500   3.615  30.345   6.612
 3281POPC   C3B42501   3.432  30.340   7.009
 3281POPC   C4B42502   3.624  30.386   7.404
 3282POPC   NC342503  40.514  26.226   5.463
 3282POPC   PO442504  40.927  25.712   5.487
 3282POPC   GL142505  41.010  25.922   5.882
 3282POPC   GL242506  41.155  26.258   5.979
 3282POPC   C1A42507  40.745  25.888   6.246
 3282POPC   D2A42508  40.625  25.777   6.680
 3282POPC   C3A42509  40.583  26.171   6.836
 3282POPC   C4A42510  40.728  26.285   7.244
 3282POPC   C1B42511  41.070  26.256   6.420
 3282POPC   C2B42512  41.098  26.311   6.851
 3282POPC   C3B42513  41.270  26.276   7.249
 3282POPC   C4B42514  41.070  26.361   7.661
 3283POPC   NC342515   9.498   7.442   5.471
 3283POPC   PO442516  10.090   7.653   5.255
 3283POPC   GL142517   9.936   7.557   5.730
 3283POPC   GL242518   9.635   7.714   5.872
 3283POPC   C1A42519   9.752   7.260   6.094
 3283POPC   D2A42520   9.855   7.163   6.552
 3283POPC   C3A42521   9.596   7.202   6.913
 3283POPC   C4A42522   9.635   7.392   7.276
 3283POPC   C1B42523   9.726   7.730   6.297
 3283POPC   C2B42524   9.516   7.689   6.682
 3283POPC   C3B42525   9.791   7.784   6.996
 3283POPC   C4B42526   9.705   7.888   7.393
 3284POPC   NC342527   3.597  27.183   5.120
 3284POPC   PO442528   3.838  26.702   5.603
 3284POPC   GL142529   3.551  26.838   5.881
 3284POPC   GL242530   3.506  26.455   5.942
 3284POPC   C1A42531   3.561  27.039   6.312
 3284POPC   D2A42532   3.286  27.029   6.706
 3284POPC   C3A42533   3.517  26.863   7.105
 3284POPC   C4A42534   3.910  26.958   7.405
 3284POPC   C1B42535   3.701  26.537   6.279
 3284POPC   C2B42536   3.596  26.606   6.676
 3284POPC   C3B42537   3.852  26.474   7.003
 3284POPC   C4B42538   3.907  26.394   7.417
 3285POPC   NC342539   0.891   5.051   5.348
 3285POPC   PO442540   1.551   4.794   5.176
 3285POPC   GL142541   1.489   5.000   5.633
 3285POPC   GL242542   1.321   5.293   5.812
 3285POPC   C1A42543   1.522   4.851   6.088
 3285POPC   D2A42544   1.519   4.852   6.560
 3285POPC   C3A42545   1.199   5.108   6.773
 3285POPC   C4A42546   1.014   5.155   7.168
 3285POPC   C1B42547   1.424   5.336   6.288
 3285POPC   C2B42548   1.659   5.321   6.705
 3285POPC   C3B42549   1.605   5.135   7.103
 3285POPC   C4B42550   1.603   5.273   7.540
 3286POPC   NC342551  43.629  17.945   5.524
 3286POPC   PO442552  44.071  17.387   5.418
 3286POPC   GL142553  44.110  17.606   5.817
 3286POPC   GL242554  43.742  17.649   5.939
 3286POPC   C1A42555  44.121  17.806   6.233
 3286POPC   D2A42556  43.775  17.695   6.486
 3286POPC   C3A42557  43.879  17.697   6.899
 3286POPC   C4A42558  44.192  17.538   7.166
 3286POPC   C1B42559  43.765  17.249   6.172
 3286POPC   C2B42560  43.792  17.105   6.593
 3286POPC   C3B42561  43.780  17.207   7.030
 3286POPC   C4B42562  43.390  17.272   7.222
 3287POPC   NC342563  12.775  35.932   5.468
 3287POPC   PO442564  13.076  36.429   5.213
 3287POPC   GL142565  12.931  36.424   5.701
 3287POPC   GL242566  12.567  36.315   5.761
 3287POPC   C1A42567  12.872  36.295   6.181
 3287POPC   D2A42568  12.592  36.215   6.567
 3287POPC   C3A42569  12.702  35.993   6.988
 3287POPC   C4A42570  13.022  35.970   7.314
 3287POPC   C1B42571  12.442  36.553   6.162
 3287POPC   C2B42572  12.618  36.719   6.588
 3287POPC   C3B42573  12.821  36.481   6.935
 3287POPC   C4B42574  12.649  36.381   7.354
 3288POPC   NC342575  35.745  34.013   5.385
 3288POPC   PO442576  36.425  33.964   5.486
 3288POPC   GL142577  36.247  33.733   5.837
 3288POPC   GL242578  35.894  33.666   5.760
 3288POPC   C1A42579  36.337  33.668   6.282
 3288POPC   D2A42580  36.485  33.884   6.660
 3288POPC   C3A42581  36.315  33.635   7.005
 3288POPC   C4A42582  36.057  33.540   7.358
 3288POPC   C1B42583  35.793  33.659   6.209
 3288POPC   C2B42584  35.938  33.690   6.622
 3288POPC   C3B42585  35.735  33.714   6.993
 3288POPC   C4B42586  35.707  33.891   7.409
 3289POPC   NC342587  24.533   3.237   5.483
 3289POPC   PO442588  24.375   3.919   5.349
 3289POPC   GL142589  24.345   3.638   5.714
 3289POPC   GL242590  24.690   3.605   5.803
 3289POPC   C1A42591  24.306   3.646   6.158
 3289POPC   D2A42592  24.290   3.472   6.560
 3289POPC   C3A42593  24.356   3.680   6.925
 3289POPC   C4A42594  24.421   3.428   7.301
 3289POPC   C1B42595  24.737   3.354   6.191
 3289POPC   C2B42596  24.793   3.496   6.624
 3289POPC   C3B42597  24.818   3.281   7.014
 3289POPC   C4B42598  25.067   2.990   7.230
 3290POPC   NC342599  33.348  38.298   5.444
 3290POPC   PO442600  33.247  38.962   5.299
 3290POPC   GL142601  33.160  38.732   5.702
 3290POPC   GL242602  32.823  38.608   5.758
 3290POPC   C1A42603  33.190  38.585   6.139
 3290POPC   D2A42604  33.065  38.473   6.552
 3290POPC   C3A42605  33.394  38.312   6.796
 3290POPC   C4A42606  33.328  38.224   7.206
 3290POPC   C1B42607  32.584  38.377   6.096
 3290POPC   C2B42608  32.417  38.298   6.522
 3290POPC   C3B42609  32.697  38.281   6.891
 3290POPC   C4B42610  32.994  38.622   7.054
 3291POPC   NC342611  20.126  13.344   5.401
 3291POPC   PO442612  20.759  13.531   5.187
 3291POPC   GL142613  20.537  13.557   5.670
 3291POPC   GL242614  20.242  13.738   5.831
 3291POPC   C1A42615  20.520  13.538   6.185
 3291POPC   D2A42616  20.394  13.687   6.623
 3291POPC   C3A42617  20.645  13.670   7.043
 3291POPC   C4A42618  20.801  13.944   7.376
 3291POPC   C1B42619  20.226  14.008   6.232
 3291POPC   C2B42620  20.243  14.184   6.665
 3291POPC   C3B42621  20.320  14.076   7.090
 3291POPC   C4B42622  20.400  14.238   7.474
 3292POPC   NC342623  42.621   0.570   5.470
 3292POPC   PO442624  42.053   1.040   5.478
 3292POPC   GL142625  42.148   1.153   5.881
 3292POPC   GL242626  42.485   1.091   5.837
 3292POPC   C1A42627  42.031   1.285   6.305
 3292POPC   D2A42628  41.988   1.348   6.747
 3292POPC   C3A42629  42.337   1.252   7.009
 3292POPC   C4A42630  42.309   1.169   7.452
 3292POPC   C1B42631  42.706   1.082   6.225
 3292POPC   C2B42632  42.568   0.960   6.648
 3292POPC   C3B42633  42.636   0.777   7.082
 3292POPC   C4B42634  42.521   0.744   7.584
 3293POPC   NC342635   6.156  27.025   5.158
 3293POPC   PO442636   6.207  27.683   5.429
 3293POPC   GL142637   5.926  27.489   5.757
 3293POPC   GL242638   5.647  27.650   5.861
 3293POPC   C1A42639   5.940  27.487   6.224
 3293POPC   D2A42640   6.186  27.459   6.598
 3293POPC   C3A42641   6.150  27.787   6.901
 3293POPC   C4A42642   6.160  27.566   7.259
 3293POPC   C1B42643   5.436  27.633   6.276
 3293POPC   C2B42644   5.703  27.655   6.655
 3293POPC   C3B42645   5.702  27.431   7.054
 3293POPC   C4B42646   5.739  27.442   7.517
 3294POPC   NC342647  19.298  39.642   5.590
 3294POPC   PO442648  18.974  39.049   5.558
 3294POPC   GL142649  18.978  39.357   5.878
 3294POPC   GL242650  19.328  39.263   5.918
 3294POPC   C1A42651  19.088  39.532   6.284
 3294POPC   D2A42652  19.054  39.255   6.624
 3294POPC   C3A42653  19.019  39.365   7.042
 3294POPC   C4A42654  18.758  39.101   7.303
 3294POPC   C1B42655  19.176  38.946   6.194
 3294POPC   C2B42656  19.235  38.779   6.592
 3294POPC   C3B42657  19.058  38.845   6.979
 3294POPC   C4B42658  19.208  38.925   7.383
 3295POPC   NC342659  14.856  23.466   5.499
 3295POPC   PO442660  15.409  23.739   5.445
 3295POPC   GL142661  15.191  23.872   5.812
 3295POPC   GL242662  14.825  23.758   5.919
 3295POPC   C1A42663  15.355  23.925   6.226
 3295POPC   D2A42664  15.192  23.918   6.640
 3295POPC   C3A42665  15.427  23.902   7.013
 3295POPC   C4A42666  15.050  23.858   7.240
 3295POPC   C1B42667  15.155  23.457   6.105
 3295POPC   C2B42668  15.293  23.398   6.520
 3295POPC   C3B42669  15.188  23.423   6.937
 3295POPC   C4B42670  14.973  23.376   7.330
 3296POPC   NC342671   6.713  41.316   5.164
 3296POPC   PO442672   6.466  40.743   5.316
 3296POPC   GL142673   6.625  40.738   5.749
 3296POPC   GL242674   6.304  40.629   5.841
 3296POPC   C1A42675   6.719  40.814   6.192
 3296POPC   D2A42676   6.529  40.726   6.610
 3296POPC   C3A42677   6.741  40.789   6.988
 3296POPC   C4A42678   6.706  40.854   7.431
 3296POPC   C1B42679   6.404  40.410   6.225
 3296POPC   C2B42680   6.528  40.141   6.525
 3296POPC   C3B42681   6.502  40.291   6.918
 3296POPC   C4B42682   6.495  40.392   7.348
 3297POPC   NC342683  24.717  38.093   5.363
 3297POPC   PO442684  24.756  38.680   5.409
 3297POPC   GL142685  24.536  38.546   5.799
 3297POPC   GL242686  24.236  38.319   5.791
 3297POPC   C1A42687  24.617  38.454   6.242
 3297POPC   D2A42688  24.796  38.247   6.604
 3297POPC   C3A42689  24.649  38.203   7.000
 3297POPC   C4A42690  24.756  38.396   7.380
 3297POPC   C1B42691  24.135  38.559   6.192
 3297POPC   C2B42692  24.271  38.713   6.590
 3297POPC   C3B42693  24.447  38.679   7.001
 3297POPC   C4B42694  24.280  38.627   7.433
 3298POPC   NC342695  42.033  37.704   5.445
 3298POPC   PO442696  42.685  37.503   5.592
 3298POPC   GL142697  42.433  37.733   5.852
 3298POPC   GL242698  42.183  37.944   5.859
 3298POPC   C1A42699  42.504  37.795   6.277
 3298POPC   D2A42700  42.537  37.467   6.598
 3298POPC   C3A42701  42.398  37.384   6.995
 3298POPC   C4A42702  42.607  37.537   7.372
 3298POPC   C1B42703  42.088  38.075   6.264
 3298POPC   C2B42704  42.145  37.838   6.634
 3298POPC   C3B42705  42.349  37.879   7.006
 3298POPC   C4B42706  42.191  37.831   7.429
 3299POPC   NC342707   7.166  29.590   5.476
 3299POPC   PO442708   7.344  28.985   5.407
 3299POPC   GL142709   7.515  29.156   5.791
 3299POPC   GL242710   7.259  29.382   5.930
 3299POPC   C1A42711   7.572  29.169   6.257
 3299POPC   D2A42712   7.332  29.412   6.545
 3299POPC   C3A42713   7.351  29.363   7.017
 3299POPC   C4A42714   7.670  29.110   7.216
 3299POPC   C1B42715   7.164  28.923   6.063
 3299POPC   C2B42716   7.197  28.812   6.475
 3299POPC   C3B42717   7.321  28.878   6.874
 3299POPC   C4B42718   7.268  28.694   7.244
 3300POPC   NC342719  16.838  33.604   5.424
 3300POPC   PO442720  16.543  34.349   5.524
 3300POPC   GL142721  16.618  33.947   5.758
 3300POPC   GL242722  16.955  33.792   5.860
 3300POPC   C1A42723  16.575  33.820   6.189
 3300POPC   D2A42724  16.670  34.069   6.570
 3300POPC   C3A42725  16.454  33.991   6.947
 3300POPC   C4A42726  16.539  33.614   7.124
 3300POPC   C1B42727  17.080  33.995   6.194
 3300POPC   C2B42728  17.196  33.807   6.564
 3300POPC   C3B42729  16.980  33.796   6.930
 3300POPC   C4B42730  17.152  33.932   7.297
 3301POPC   NC342731   3.588   3.609   5.392
 3301POPC   PO442732   3.602   2.966   5.346
 3301POPC   GL142733   3.512   3.249   5.759
 3301POPC   GL242734   3.322   3.593   5.806
 3301POPC   C1A42735   3.397   3.306   6.217
 3301POPC   D2A42736   3.571   3.290   6.642
 3301POPC   C3A42737   3.317   3.363   7.022
 3301POPC   C4A42738   3.213   3.123   7.360
 3301POPC   C1B42739   3.613   3.766   6.112
 3301POPC   C2B42740   3.700   3.800   6.552
 3301POPC   C3B42741   3.687   3.711   6.998
 3301POPC   C4B42742   3.493   3.865   7.391
 3302POPC   NC342743  17.926   8.772   5.286
 3302POPC   PO442744  18.379   9.249   5.340
 3302POPC   GL142745  18.198   8.986   5.667
 3302POPC   GL242746  17.892   9.160   5.641
 3302POPC   C1A42747  18.252   8.881   6.120
 3302POPC   D2A42748  18.382   8.658   6.506
 3302POPC   C3A42749  18.389   8.865   6.895
 3302POPC   C4A42750  18.575   8.860   7.306
 3302POPC   C1B42751  18.134   9.395   5.964
 3302POPC   C2B42752  18.168   9.359   6.420
 3302POPC   C3B42753  18.041   9.315   6.847
 3302POPC   C4B42754  18.095   9.118   7.220
 3303POPC   NC342755  21.476  20.830   5.393
 3303POPC   PO442756  21.968  20.347   5.212
 3303POPC   GL142757  21.739  20.337   5.651
 3303POPC   GL242758  21.407  20.513   5.783
 3303POPC   C1A42759  21.746  20.302   6.098
 3303POPC   D2A42760  21.560  20.450   6.469
 3303POPC   C3A42761  21.609  20.241   6.856
 3303POPC   C4A42762  21.382  20.499   7.157
 3303POPC   C1B42763  21.603  20.822   6.091
 3303POPC   C2B42764  21.877  20.862   6.465
 3303POPC   C3B42765  21.750  20.753   6.889
 3303POPC   C4B42766  21.668  20.888   7.335
 3304POPC   NC342767   1.797  37.366   5.443
 3304POPC   PO442768   2.008  37.950   5.462
 3304POPC   GL142769   2.021  37.645   5.833
 3304POPC   GL242770   1.650  37.680   5.829
 3304POPC   C1A42771   2.176  37.495   6.281
 3304POPC   D2A42772   2.183  37.329   6.728
 3304POPC   C3A42773   2.296  37.384   7.199
 3304POPC   C4A42774   2.005  37.510   7.556
 3304POPC   C1B42775   1.655  37.513   6.233
 3304POPC   C2B42776   1.769  37.663   6.647
 3304POPC   C3B42777   1.912  37.755   7.060
 3304POPC   C4B42778   1.656  37.929   7.372
 3305POPC   NC342779  25.230  38.790   5.408
 3305POPC   PO442780  25.188  38.145   5.325
 3305POPC   GL142781  25.061  38.374   5.715
 3305POPC   GL242782  25.360  38.563   5.858
 3305POPC   C1A42783  25.087  38.259   6.162
 3305POPC   D2A42784  25.255  38.450   6.540
 3305POPC   C3A42785  25.571  38.352   6.824
 3305POPC   C4A42786  25.391  38.496   7.212
 3305POPC   C1B42787  25.526  38.780   6.235
 3305POPC   C2B42788  25.428  38.912   6.675
 3305POPC   C3B42789  25.423  39.011   7.120
 3305POPC   C4B42790  25.667  38.806   7.502
 3306POPC   NC342791  16.508  44.630   5.147
 3306POPC   PO442792  17.030   0.006   5.158
 3306POPC   GL142793  16.883  44.772   5.548
 3306POPC   GL242794  16.930   0.036   5.771
 3306POPC   C1A42795  16.754  44.620   6.018
 3306POPC   D2A42796  16.764  44.624   6.503
 3306POPC   C3A42797  16.522  44.633   6.899
 3306POPC   C4A42798  16.349  44.953   7.169
 3306POPC   C1B42799  16.977   0.051   6.232
 3306POPC   C2B42800  17.053   0.018   6.678
 3306POPC   C3B42801  16.862  44.978   7.081
 3306POPC   C4B42802  16.840  44.905   7.564
 3307POPC   NC342803   4.017   2.970   5.566
 3307POPC   PO442804   4.657   2.726   5.511
 3307POPC   GL142805   4.393   2.755   5.879
 3307POPC   GL242806   4.110   2.544   5.872
 3307POPC   C1A42807   4.302   2.733   6.333
 3307POPC   D2A42808   4.063   2.945   6.687
 3307POPC   C3A42809   4.295   3.037   7.081
 3307POPC   C4A42810   4.407   2.729   7.381
 3307POPC   C1B42811   3.935   2.388   6.269
 3307POPC   C2B42812   4.091   2.425   6.703
 3307POPC   C3B42813   3.979   2.622   7.101
 3307POPC   C4B42814   3.977   2.468   7.535
 3308POPC   NC342815   8.838   4.047   5.429
 3308POPC   PO442816   8.768   4.685   5.434
 3308POPC   GL142817   8.957   4.452   5.770
 3308POPC   GL242818   9.177   4.177   5.784
 3308POPC   C1A42819   9.105   4.504   6.218
 3308POPC   D2A42820   9.130   4.680   6.667
 3308POPC   C3A42821   8.895   4.539   7.070
 3308POPC   C4A42822   8.514   4.282   7.206
 3308POPC   C1B42823   9.095   3.976   6.214
 3308POPC   C2B42824   9.007   4.043   6.676
 3308POPC   C3B42825   8.982   4.028   7.122
 3308POPC   C4B42826   9.264   4.218   7.384
 3309POPC   NC342827  21.100   8.310   5.386
 3309POPC   PO442828  20.441   8.185   5.378
 3309POPC   GL142829  20.625   8.341   5.751
 3309POPC   GL242830  20.792   8.040   5.861
 3309POPC   C1A42831  20.478   8.363   6.195
 3309POPC   D2A42832  20.673   8.306   6.589
 3309POPC   C3A42833  20.523   8.560   6.928
 3309POPC   C4A42834  20.593   8.399   7.299
 3309POPC   C1B42835  20.542   7.856   6.208
 3309POPC   C2B42836  20.393   7.884   6.654
 3309POPC   C3B42837  20.572   7.941   7.056
 3309POPC   C4B42838  20.479   7.946   7.517
 3310POPC   NC342839  26.184   3.458   5.309
 3310POPC   PO442840  25.603   3.684   5.395
 3310POPC   GL142841  25.900   3.503   5.764
 3310POPC   GL242842  26.209   3.696   5.810
 3310POPC   C1A42843  26.006   3.319   6.209
 3310POPC   D2A42844  26.029   3.468   6.668
 3310POPC   C3A42845  25.904   3.334   7.097
 3310POPC   C4A42846  25.696   3.556   7.437
 3310POPC   C1B42847  26.354   3.679   6.255
 3310POPC   C2B42848  26.302   3.911   6.655
 3310POPC   C3B42849  26.209   3.834   7.095
 3310POPC   C4B42850  26.259   4.020   7.510
 3311POPC   NC342851   3.051  16.414   5.386
 3311POPC   PO442852   2.699  16.951   5.252
 3311POPC   GL142853   2.703  16.710   5.650
 3311POPC   GL242854   2.445  16.465   5.771
 3311POPC   C1A42855   2.951  16.749   6.016
 3311POPC   D2A42856   2.951  16.929   6.428
 3311POPC   C3A42857   2.859  16.650   6.770
 3311POPC   C4A42858   2.725  16.765   7.163
 3311POPC   C1B42859   2.441  16.796   6.133
 3311POPC   C2B42860   2.392  16.892   6.614
 3311POPC   C3B42861   2.261  16.935   7.070
 3311POPC   C4B42862   2.369  16.853   7.532
 3312POPC   NC342863  12.802  28.679   5.442
 3312POPC   PO442864  12.448  28.161   5.524
 3312POPC   GL142865  12.783  28.321   5.818
 3312POPC   GL242866  13.126  28.193   5.683
 3312POPC   C1A42867  12.852  28.257   6.268
 3312POPC   D2A42868  12.725  28.103   6.674
 3312POPC   C3A42869  12.733  28.413   7.011
 3312POPC   C4A42870  13.041  28.755   7.123
 3312POPC   C1B42871  13.207  27.959   6.070
 3312POPC   C2B42872  13.282  28.001   6.546
 3312POPC   C3B42873  13.144  28.103   6.977
 3312POPC   C4B42874  13.239  28.308   7.386
 3313POPC   NC342875  22.395  39.997   5.517
 3313POPC   PO442876  21.718  40.135   5.494
 3313POPC   GL142877  22.034  40.189   5.842
 3313POPC   GL242878  22.085  39.831   5.907
 3313POPC   C1A42879  22.300  40.146   6.258
 3313POPC   D2A42880  22.458  39.944   6.651
 3313POPC   C3A42881  22.305  39.950   7.113
 3313POPC   C4A42882  22.506  39.808   7.544
 3313POPC   C1B42883  21.828  39.959   6.265
 3313POPC   C2B42884  21.861  39.937   6.694
 3313POPC   C3B42885  21.802  40.136   7.031
 3313POPC   C4B42886  21.696  40.095   7.399
 3314POPC   NC342887  24.567  43.478   5.472
 3314POPC   PO442888  24.497  42.856   5.381
 3314POPC   GL142889  24.391  43.025   5.764
 3314POPC   GL242890  24.202  43.317   5.796
 3314POPC   C1A42891  24.294  42.881   6.155
 3314POPC   D2A42892  24.285  42.687   6.541
 3314POPC   C3A42893  24.327  42.913   6.917
 3314POPC   C4A42894  24.674  43.009   7.146
 3314POPC   C1B42895  24.386  43.385   6.235
 3314POPC   C2B42896  24.476  43.394   6.726
 3314POPC   C3B42897  24.532  43.497   7.174
 3314POPC   C4B42898  24.886  43.515   7.460
 3315POPC   NC342899   0.013   5.547   5.541
 3315POPC   PO442900   0.446   5.130   5.193
 3315POPC   GL142901   0.292   5.010   5.619
 3315POPC   GL242902   0.053   4.736   5.697
 3315POPC   C1A42903   0.398   5.057   6.070
 3315POPC   D2A42904   0.471   5.367   6.418
 3315POPC   C3A42905   0.643   5.191   6.789
 3315POPC   C4A42906   0.498   5.132   7.187
 3315POPC   C1B42907   0.037   4.696   6.151
 3315POPC   C2B42908   0.254   4.832   6.539
 3315POPC   C3B42909   0.370   4.667   6.948
 3315POPC   C4B42910   0.253   4.687   7.373
 3316POPC   NC342911  16.534  23.772   5.434
 3316POPC   PO442912  17.229  23.453   5.448
 3316POPC   GL142913  17.051  23.630   5.861
 3316POPC   GL242914  16.664  23.708   5.925
 3316POPC   C1A42915  16.924  23.539   6.326
 3316POPC   D2A42916  16.668  23.564   6.704
 3316POPC   C3A42917  16.715  23.858   7.053
 3316POPC   C4A42918  16.873  23.627   7.374
 3316POPC   C1B42919  16.412  23.448   6.262
 3316POPC   C2B42920  16.162  23.514   6.647
 3316POPC   C3B42921  16.302  23.551   7.080
 3316POPC   C4B42922  16.363  23.692   7.510
 3317POPC   NC342923  39.049   1.820   5.201
 3317POPC   PO442924  39.440   2.202   5.570
 3317POPC   GL142925  39.253   2.078   5.928
 3317POPC   GL242926  38.981   1.921   5.751
 3317POPC   C1A42927  39.421   1.867   6.292
 3317POPC   D2A42928  39.441   1.795   6.723
 3317POPC   C3A42929  39.338   2.115   7.012
 3317POPC   C4A42930  39.544   2.122   7.374
 3317POPC   C1B42931  38.973   1.648   6.134
 3317POPC   C2B42932  38.800   1.551   6.560
 3317POPC   C3B42933  38.936   1.801   6.920
 3317POPC   C4B42934  38.987   1.889   7.365
 3318POPC   NC342935  26.417  11.375   5.302
 3318POPC   PO442936  26.985  11.221   5.205
 3318POPC   GL142937  26.981  11.432   5.629
 3318POPC   GL242938  26.647  11.422   5.759
 3318POPC   C1A42939  27.020  11.459   6.106
 3318POPC   D2A42940  26.933  11.201   6.471
 3318POPC   C3A42941  26.973  11.355   6.872
 3318POPC   C4A42942  26.918  11.212   7.269
 3318POPC   C1B42943  26.518  11.245   6.161
 3318POPC   C2B42944  26.444  11.426   6.578
 3318POPC   C3B42945  26.455  11.328   7.008
 3318POPC   C4B42946  26.525  11.534   7.371
 3319POPC   NC342947   1.112  38.277   4.884
 3319POPC   PO442948   0.777  38.605   5.370
 3319POPC   GL142949   0.984  38.497   5.773
 3319POPC   GL242950   1.336  38.482   5.787
 3319POPC   C1A42951   1.032  38.374   6.207
 3319POPC   D2A42952   1.235  38.390   6.626
 3319POPC   C3A42953   1.060  38.433   7.054
 3319POPC   C4A42954   1.027  38.819   7.320
 3319POPC   C1B42955   1.557  38.312   6.165
 3319POPC   C2B42956   1.759  38.325   6.580
 3319POPC   C3B42957   1.602  38.282   7.000
 3319POPC   C4B42958   1.434  38.435   7.385
 3320POPC   NC342959  39.628  25.053   5.346
 3320POPC   PO442960  40.102  25.567   5.462
 3320POPC   GL142961  39.873  25.302   5.740
 3320POPC   GL242962  40.003  24.994   5.779
 3320POPC   C1A42963  39.808  25.317   6.168
 3320POPC   D2A42964  40.054  25.349   6.530
 3320POPC   C3A42965  39.979  25.187   6.940
 3320POPC   C4A42966  39.684  25.463   7.100
 3320POPC   C1B42967  40.240  25.022   6.184
 3320POPC   C2B42968  40.224  24.841   6.606
 3320POPC   C3B42969  40.388  24.857   7.029
 3320POPC   C4B42970  40.247  24.802   7.458
 3321POPC   NC342971  37.132   3.594   5.316
 3321POPC   PO442972  36.495   3.702   5.474
 3321POPC   GL142973  36.795   3.495   5.758
 3321POPC   GL242974  37.172   3.422   5.808
 3321POPC   C1A42975  36.647   3.360   6.161
 3321POPC   D2A42976  36.669   3.632   6.527
 3321POPC   C3A42977  36.766   3.411   6.906
 3321POPC   C4A42978  36.479   3.477   7.198
 3321POPC   C1B42979  37.036   3.697   6.144
 3321POPC   C2B42980  37.148   3.768   6.553
 3321POPC   C3B42981  36.931   3.895   6.928
 3321POPC   C4B42982  37.178   3.958   7.253
 3322POPC   NC342983   4.283  20.945   5.401
 3322POPC   PO442984   4.646  20.485   5.519
 3322POPC   GL142985   4.403  20.684   5.858
 3322POPC   GL242986   4.050  20.823   5.839
 3322POPC   C1A42987   4.189  20.482   6.211
 3322POPC   D2A42988   4.165  20.256   6.580
 3322POPC   C3A42989   4.231  20.504   6.949
 3322POPC   C4A42990   4.079  20.442   7.345
 3322POPC   C1B42991   4.169  20.998   6.216
 3322POPC   C2B42992   4.138  20.874   6.629
 3322POPC   C3B42993   4.254  21.044   7.047
 3322POPC   C4B42994   4.351  20.870   7.447
 3323POPC   NC342995   5.126  34.297   5.576
 3323POPC   PO442996   5.005  34.971   5.473
 3323POPC   GL142997   4.881  34.693   5.814
 3323POPC   GL242998   5.232  34.624   5.942
 3323POPC   C1A42999   4.789  34.473   6.216
 3323POPC   D2A43000   4.954  34.333   6.637
 3323POPC   C3A43001   4.891  34.552   7.040
 3323POPC   C4A43002   5.172  34.787   7.353
 3323POPC   C1B43003   5.315  34.338   6.262
 3323POPC   C2B43004   5.465  34.238   6.661
 3323POPC   C3B43005   5.398  34.387   7.104
 3323POPC   C4B43006   5.488  34.460   7.573
 3324POPC   NC343007  20.744  33.689   5.349
 3324POPC   PO443008  20.110  33.820   5.356
 3324POPC   GL143009  20.375  33.828   5.768
 3324POPC   GL243010  20.698  33.616   5.849
 3324POPC   C1A43011  20.497  33.862   6.234
 3324POPC   D2A43012  20.319  33.693   6.610
 3324POPC   C3A43013  20.407  33.959   6.913
 3324POPC   C4A43014  20.679  33.902   7.243
 3324POPC   C1B43015  20.869  33.489   6.280
 3324POPC   C2B43016  20.888  33.604   6.743
 3324POPC   C3B43017  20.952  33.486   7.191
 3324POPC   C4B43018  21.019  33.658   7.643
 3325POPC   NC343019  23.515   5.743   5.366
 3325POPC   PO443020  23.870   6.229   5.436
 3325POPC   GL143021  23.860   6.013   5.840
 3325POPC   GL243022  23.658   5.727   5.845
 3325POPC   C1A43023  23.986   5.799   6.244
 3325POPC   D2A43024  24.131   5.915   6.646
 3325POPC   C3A43025  23.899   6.007   7.053
 3325POPC   C4A43026  23.475   6.053   7.281
 3325POPC   C1B43027  23.488   5.796   6.224
 3325POPC   C2B43028  23.594   5.870   6.650
 3325POPC   C3B43029  23.512   5.651   6.986
 3325POPC   C4B43030  23.173   5.656   7.259
 3326POPC   NC343031  22.515  42.458   5.478
 3326POPC   PO443032  21.866  42.594   5.411
 3326POPC   GL143033  22.003  42.201   5.673
 3326POPC   GL243034  22.331  42.209   5.893
 3326POPC   C1A43035  21.839  42.032   6.069
 3326POPC   D2A43036  21.997  42.081   6.481
 3326POPC   C3A43037  21.820  42.103   6.889
 3326POPC   C4A43038  22.103  42.390   7.109
 3326POPC   C1B43039  22.440  42.599   6.143
 3326POPC   C2B43040  22.507  42.832   6.540
 3326POPC   C3B43041  22.514  42.673   6.964
 3326POPC   C4B43042  22.447  42.664   7.404
 3327POPC   NC343043   4.729  30.192   5.685
 3327POPC   PO443044   5.233  30.063   5.292
 3327POPC   GL143045   5.174  29.903   5.733
 3327POPC   GL243046   4.871  29.742   5.903
 3327POPC   C1A43047   5.329  29.783   6.139
 3327POPC   D2A43048   5.243  29.774   6.572
 3327POPC   C3A43049   5.453  29.498   6.842
 3327POPC   C4A43050   5.247  29.687   7.179
 3327POPC   C1B43051   4.878  30.008   6.291
 3327POPC   C2B43052   4.753  30.077   6.727
 3327POPC   C3B43053   4.801  29.974   7.161
 3327POPC   C4B43054   4.844  29.628   7.467
 3328POPC   NC343055  43.416  42.562   5.437
 3328POPC   PO443056  43.047  43.195   5.467
 3328POPC   GL143057  43.174  43.213   5.870
 3328POPC   GL243058  43.359  42.897   5.818
 3328POPC   C1A43059  42.982  43.187   6.290
 3328POPC   D2A43060  42.848  42.844   6.608
 3328POPC   C3A43061  42.938  42.962   7.041
 3328POPC   C4A43062  43.017  43.355   7.233
 3328POPC   C1B43063  43.518  43.008   6.193
 3328POPC   C2B43064  43.356  42.993   6.573
 3328POPC   C3B43065  43.399  43.201   6.908
 3328POPC   C4B43066  43.413  43.053   7.296
 3329POPC   NC343067  28.701   8.735   5.293
 3329POPC   PO443068  28.197   9.152   5.222
 3329POPC   GL143069  28.174   9.065   5.676
 3329POPC   GL243070  28.341   8.766   5.827
 3329POPC   C1A43071  28.152   9.181   6.108
 3329POPC   D2A43072  28.315   8.975   6.472
 3329POPC   C3A43073  28.157   9.155   6.850
 3329POPC   C4A43074  28.293   9.114   7.263
 3329POPC   C1B43075  28.676   8.705   6.169
 3329POPC   C2B43076  28.771   8.621   6.594
 3329POPC   C3B43077  28.508   8.723   6.912
 3329POPC   C4B43078  28.683   8.765   7.274
 3330POPC   NC343079  43.887  20.820   5.446
 3330POPC   PO443080  43.748  20.152   5.337
 3330POPC   GL143081  43.821  20.397   5.744
 3330POPC   GL243082  44.115  20.593   5.862
 3330POPC   C1A43083  43.686  20.443   6.178
 3330POPC   D2A43084  43.866  20.306   6.566
 3330POPC   C3A43085  43.729  20.351   6.989
 3330POPC   C4A43086  43.801  20.193   7.364
 3330POPC   C1B43087  43.896  20.899   6.173
 3330POPC   C2B43088  43.605  20.818   6.551
 3330POPC   C3B43089  43.641  20.867   7.008
 3330POPC   C4B43090  43.971  20.737   7.285
 3331POPC   NC343091   3.442  28.108   5.466
 3331POPC   PO443092   3.086  28.760   5.396
 3331POPC   GL143093   3.265  28.516   5.763
 3331POPC   GL243094   3.621  28.471   5.816
 3331POPC   C1A43095   3.308  28.288   6.180
 3331POPC   D2A43096   3.316  27.941   6.492
 3331POPC   C3A43097   3.357  28.043   6.933
 3331POPC   C4A43098   3.418  28.395   7.197
 3331POPC   C1B43099   3.799  28.396   6.241
 3331POPC   C2B43100   3.699  28.492   6.689
 3331POPC   C3B43101   3.893  28.296   7.044
 3331POPC   C4B43102   3.869  28.355   7.469
 3332POPC   NC343103  21.582  42.212   5.345
 3332POPC   PO443104  21.158  42.866   5.387
 3332POPC   GL143105  21.313  42.562   5.674
 3332POPC   GL243106  21.145  42.235   5.644
 3332POPC   C1A43107  21.567  42.484   6.045
 3332POPC   D2A43108  21.498  42.350   6.483
 3332POPC   C3A43109  21.627  42.585   6.834
 3332POPC   C4A43110  21.609  42.440   7.234
 3332POPC   C1B43111  21.207  42.133   6.104
 3332POPC   C2B43112  21.013  42.187   6.535
 3332POPC   C3B43113  21.254  42.070   6.903
 3332POPC   C4B43114  21.220  42.119   7.354
 3333POPC   NC343115   6.370  30.812   5.480
 3333POPC   PO443116   7.047  30.647   5.312
 3333POPC   GL143117   6.807  30.644   5.748
 3333POPC   GL243118   6.505  30.624   5.918
 3333POPC   C1A43119   6.801  30.846   6.221
 3333POPC   D2A43120   6.736  30.557   6.578
 3333POPC   C3A43121   6.501  30.680   6.941
 3333POPC   C4A43122   6.557  30.979   7.262
 3333POPC   C1B43123   6.273  30.532   6.304
 3333POPC   C2B43124   6.036  30.258   6.579
 3333POPC   C3B43125   6.085  30.342   7.005
 3333POPC   C4B43126   6.186  30.598   7.377
 3334POPC   NC343127   7.270  17.728   5.275
 3334POPC   PO443128   7.374  17.110   5.115
 3334POPC   GL143129   7.400  17.331   5.589
 3334POPC   GL243130   7.598  17.661   5.688
 3334POPC   C1A43131   7.286  17.484   6.051
 3334POPC   D2A43132   7.350  17.649   6.492
 3334POPC   C3A43133   7.173  17.540   6.888
 3334POPC   C4A43134   7.341  17.612   7.283
 3334POPC   C1B43135   7.740  17.721   6.143
 3334POPC   C2B43136   7.858  17.584   6.552
 3334POPC   C3B43137   7.737  17.619   6.961
 3334POPC   C4B43138   7.830  17.778   7.351
 3335POPC   NC343139  17.361   2.989   5.583
 3335POPC   PO443140  17.845   2.542   5.489
 3335POPC   GL143141  17.766   2.819   5.862
 3335POPC   GL243142  17.402   2.759   6.031
 3335POPC   C1A43143  17.788   2.911   6.313
 3335POPC   D2A43144  17.421   2.872   6.596
 3335POPC   C3A43145  17.457   2.765   7.023
 3335POPC   C4A43146  17.794   2.669   7.252
 3335POPC   C1B43147  17.066   3.037   6.249
 3335POPC   C2B43148  16.867   3.063   6.686
 3335POPC   C3B43149  17.021   3.007   7.138
 3335POPC   C4B43150  17.390   3.077   7.460
 3336POPC   NC343151   5.323  32.988   5.498
 3336POPC   PO443152   5.862  33.443   5.457
 3336POPC   GL143153   5.798  33.028   5.721
 3336POPC   GL243154   6.007  32.708   5.795
 3336POPC   C1A43155   5.643  32.860   6.125
 3336POPC   D2A43156   5.759  33.049   6.488
 3336POPC   C3A43157   5.630  33.019   6.891
 3336POPC   C4A43158   5.734  33.192   7.290
 3336POPC   C1B43159   6.210  32.835   6.205
 3336POPC   C2B43160   6.242  33.106   6.578
 3336POPC   C3B43161   6.119  33.030   6.986
 3336POPC   C4B43162   6.075  32.741   7.299
 3337POPC   NC343163  16.976  20.310   5.486
 3337POPC   PO443164  16.681  20.955   5.560
 3337POPC   GL143165  16.736  20.609   5.871
 3337POPC   GL243166  16.562  20.274   5.896
 3337POPC   C1A43167  16.644  20.576   6.311
 3337POPC   D2A43168  16.552  20.746   6.684
 3337POPC   C3A43169  16.795  20.790   7.033
 3337POPC   C4A43170  16.490  20.868   7.335
 3337POPC   C1B43171  16.930  20.177   6.178
 3337POPC   C2B43172  16.970  20.280   6.605
 3337POPC   C3B43173  16.657  20.280   6.911
 3337POPC   C4B43174  16.786  20.317   7.307
 3338POPC   NC343175  36.861  37.064   5.244
 3338POPC   PO443176  37.289  36.582   5.429
 3338POPC   GL143177  37.022  36.866   5.698
 3338POPC   GL243178  36.927  36.546   5.804
 3338POPC   C1A43179  36.910  36.951   6.167
 3338POPC   D2A43180  37.147  36.826   6.568
 3338POPC   C3A43181  36.958  36.951   6.973
 3338POPC   C4A43182  36.580  36.783   7.185
 3338POPC   C1B43183  36.850  36.445   6.204
 3338POPC   C2B43184  36.985  36.263   6.563
 3338POPC   C3B43185  36.879  36.452   6.911
 3338POPC   C4B43186  37.163  36.528   7.198
 3339POPC   NC343187  39.065   2.549   5.526
 3339POPC   PO443188  39.480   3.012   5.343
 3339POPC   GL143189  39.370   2.963   5.770
 3339POPC   GL243190  39.050   2.861   5.914
 3339POPC   C1A43191  39.396   3.088   6.204
 3339POPC   D2A43192  39.350   3.040   6.652
 3339POPC   C3A43193  39.320   2.633   6.839
 3339POPC   C4A43194  39.350   2.574   7.263
 3339POPC   C1B43195  39.304   2.570   6.181
 3339POPC   C2B43196  39.163   2.261   6.489
 3339POPC   C3B43197  38.893   2.298   6.818
 3339POPC   C4B43198  38.880   2.371   7.259
 3340POPC   NC343199  10.232  42.214   5.517
 3340POPC   PO443200  10.543  42.645   5.115
 3340POPC   GL143201  10.574  42.625   5.629
 3340POPC   GL243202  10.374  42.489   5.904
 3340POPC   C1A43203  10.839  42.614   6.027
 3340POPC   D2A43204  10.881  42.568   6.511
 3340POPC   C3A43205  10.800  42.178   6.791
 3340POPC   C4A43206  10.562  41.945   7.138
 3340POPC   C1B43207  10.397  42.642   6.308
 3340POPC   C2B43208  10.340  42.400   6.673
 3340POPC   C3B43209  10.387  42.452   7.122
 3340POPC   C4B43210  10.264  42.231   7.517
 3341POPC   NC343211  34.259  31.959   5.498
 3341POPC   PO443212  34.746  32.385   5.356
 3341POPC   GL143213  34.696  32.333   5.786
 3341POPC   GL243214  34.693  31.978   5.844
 3341POPC   C1A43215  34.460  32.544   6.110
 3341POPC   D2A43216  34.603  32.513   6.526
 3341POPC   C3A43217  34.364  32.537   6.902
 3341POPC   C4A43218  34.531  32.466   7.293
 3341POPC   C1B43219  34.426  32.053   6.257
 3341POPC   C2B43220  34.219  32.077   6.696
 3341POPC   C3B43221  34.333  31.800   7.078
 3341POPC   C4B43222  34.559  31.970   7.461
 3342POPC   NC343223   3.800  32.113   5.460
 3342POPC   PO443224   3.370  32.619   5.383
 3342POPC   GL143225   3.334  32.361   5.796
 3342POPC   GL243226   3.587  32.141   5.923
 3342POPC   C1A43227   3.446  32.528   6.221
 3342POPC   D2A43228   3.665  32.266   6.499
 3342POPC   C3A43229   3.649  32.258   6.920
 3342POPC   C4A43230   3.294  32.173   7.187
 3342POPC   C1B43231   3.918  31.941   6.161
 3342POPC   C2B43232   4.125  32.027   6.564
 3342POPC   C3B43233   4.053  31.916   6.990
 3342POPC   C4B43234   3.871  32.083   7.362
 3343POPC   NC343235   3.994  41.445   5.508
 3343POPC   PO443236   4.480  41.850   5.259
 3343POPC   GL143237   4.449  41.676   5.708
 3343POPC   GL243238   4.388  41.349   5.880
 3343POPC   C1A43239   4.331  41.768   6.166
 3343POPC   D2A43240   4.199  41.839   6.600
 3343POPC   C3A43241   4.347  41.673   7.021
 3343POPC   C4A43242   4.364  41.807   7.476
 3343POPC   C1B43243   4.074  41.287   6.216
 3343POPC   C2B43244   3.894  41.413   6.600
 3343POPC   C3B43245   3.977  41.235   7.003
 3343POPC   C4B43246   4.039  41.421   7.375
 3344POPC   NC343247   3.315   5.240   5.404
 3344POPC   PO443248   3.858   4.940   5.416
 3344POPC   GL143249   3.664   5.034   5.786
 3344POPC   GL243250   3.314   4.953   5.819
 3344POPC   C1A43251   3.723   4.979   6.229
 3344POPC   D2A43252   3.574   5.091   6.640
 3344POPC   C3A43253   3.780   5.060   7.018
 3344POPC   C4A43254   3.968   4.674   7.023
 3344POPC   C1B43255   3.241   5.146   6.209
 3344POPC   C2B43256   3.081   5.073   6.624
 3344POPC   C3B43257   3.188   5.277   6.998
 3344POPC   C4B43258   3.417   5.190   7.355
 3345POPC   NC343259  10.503  28.843   5.540
 3345POPC   PO443260  10.172  29.498   5.473
 3345POPC   GL143261  10.342  29.286   5.796
 3345POPC   GL243262  10.175  29.000   5.921
 3345POPC   C1A43263  10.587  29.298   6.164
 3345POPC   D2A43264  10.718  29.087   6.520
 3345POPC   C3A43265  10.550  29.265   6.871
 3345POPC   C4A43266  10.673  29.204   7.274
 3345POPC   C1B43267  10.450  28.764   6.220
 3345POPC   C2B43268  10.550  28.605   6.641
 3345POPC   C3B43269  10.502  28.760   7.079
 3345POPC   C4B43270  10.183  28.791   7.402
 3346POPC   NC343271  36.630   1.529   5.484
 3346POPC   PO443272  37.317   1.585   5.331
 3346POPC   GL143273  37.176   1.289   5.740
 3346POPC   GL243274  36.836   1.276   5.903
 3346POPC   C1A43275  37.192   1.161   6.237
 3346POPC   D2A43276  37.006   1.390   6.639
 3346POPC   C3A43277  36.893   1.158   7.050
 3346POPC   C4A43278  37.211   1.097   7.373
 3346POPC   C1B43279  36.622   1.565   6.183
 3346POPC   C2B43280  36.414   1.633   6.583
 3346POPC   C3B43281  36.604   1.582   7.002
 3346POPC   C4B43282  36.645   1.523   7.484
 3347POPC   NC343283   3.780  33.767   4.966
 3347POPC   PO443284   3.454  34.005   5.444
 3347POPC   GL143285   3.354  33.874   5.837
 3347POPC   GL243286   3.027  33.960   5.891
 3347POPC   C1A43287   3.572  33.603   6.122
 3347POPC   D2A43288   3.547  33.408   6.503
 3347POPC   C3A43289   3.679  33.651   6.797
 3347POPC   C4A43290   3.475  33.645   7.176
 3347POPC   C1B43291   3.186  33.881   6.332
 3347POPC   C2B43292   3.257  33.922   6.769
 3347POPC   C3B43293   3.011  33.865   7.137
 3347POPC   C4B43294   2.876  33.918   7.594
 3348POPC   NC343295  32.107   3.733   5.279
 3348POPC   PO443296  32.284   3.178   5.620
 3348POPC   GL143297  32.149   3.487   5.906
 3348POPC   GL243298  32.397   3.752   5.911
 3348POPC   C1A43299  32.070   3.580   6.353
 3348POPC   D2A43300  31.772   3.644   6.693
 3348POPC   C3A43301  31.914   3.726   7.100
 3348POPC   C4A43302  32.082   3.508   7.465
 3348POPC   C1B43303  32.409   3.966   6.328
 3348POPC   C2B43304  32.291   3.843   6.749
 3348POPC   C3B43305  32.406   3.593   7.096
 3348POPC   C4B43306  32.557   3.695   7.549
 3349POPC   NC343307  44.960   0.301   5.417
 3349POPC   PO443308  44.553   0.837   5.476
 3349POPC   GL143309  44.733   0.594   5.827
 3349POPC   GL243310  44.654   0.266   5.862
 3349POPC   C1A43311   0.000   0.384   6.195
 3349POPC   D2A43312   0.145   0.335   6.622
 3349POPC   C3A43313  44.849   0.285   6.953
 3349POPC   C4A43314  44.849   0.248   7.403
 3349POPC   C1B43315  44.481   0.398   6.266
 3349POPC   C2B43316  44.343   0.312   6.711
 3349POPC   C3B43317  44.383   0.237   7.159
 3349POPC   C4B43318  44.398   0.300   7.616
 3350POPC   NC343319  34.048  37.107   5.423
 3350POPC   PO443320  33.700  36.533   5.549
 3350POPC   GL143321  33.841  36.864   5.822
 3350POPC   GL243322  33.706  36.686   6.075
 3350POPC   C1A43323  33.961  37.139   6.173
 3350POPC   D2A43324  33.810  37.312   6.579
 3350POPC   C3A43325  34.007  37.093   6.942
 3350POPC   C4A43326  33.946  36.961   7.367
 3350POPC   C1B43327  33.461  37.072   6.211
 3350POPC   C2B43328  33.328  37.054   6.627
 3350POPC   C3B43329  33.494  37.012   7.039
 3350POPC   C4B43330  33.301  36.771   7.337
 3351POPC   NC343331  41.088   4.073   5.338
 3351POPC   PO443332  40.592   4.494   5.475
 3351POPC   GL143333  40.663   4.331   5.866
 3351POPC   GL243334  40.979   4.117   5.831
 3351POPC   C1A43335  40.631   4.495   6.295
 3351POPC   D2A43336  40.833   4.738   6.624
 3351POPC   C3A43337  40.789   4.513   6.998
 3351POPC   C4A43338  40.450   4.275   7.095
 3351POPC   C1B43339  40.877   4.019   6.224
 3351POPC   C2B43340  40.979   4.192   6.603
 3351POPC   C3B43341  40.831   3.972   6.929
 3351POPC   C4B43342  40.836   4.061   7.346
 3352POPC   NC343343  25.612   4.317   5.176
 3352POPC   PO443344  25.070   4.621   5.507
 3352POPC   GL143345  25.353   4.506   5.866
 3352POPC   GL243346  25.135   4.222   5.932
 3352POPC   C1A43347  25.670   4.348   6.277
 3352POPC   D2A43348  25.483   4.200   6.704
 3352POPC   C3A43349  25.504   4.453   7.102
 3352POPC   C4A43350  25.849   4.568   7.366
 3352POPC   C1B43351  25.192   4.424   6.328
 3352POPC   C2B43352  25.076   4.566   6.658
 3352POPC   C3B43353  25.045   4.275   6.976
 3352POPC   C4B43354  25.305   3.978   7.182
 3353POPC   NC343355  42.949  25.686   5.175
 3353POPC   PO443356  42.473  25.660   5.655
 3353POPC   GL143357  42.918  25.539   5.762
 3353POPC   GL243358  43.075  25.189   5.813
 3353POPC   C1A43359  42.960  25.508   6.226
 3353POPC   D2A43360  42.814  25.371   6.611
 3353POPC   C3A43361  42.941  25.598   6.963
 3353POPC   C4A43362  42.998  25.450   7.371
 3353POPC   C1B43363  43.042  24.984   6.246
 3353POPC   C2B43364  43.021  24.903   6.688
 3353POPC   C3B43365  43.135  25.109   7.054
 3353POPC   C4B43366  43.186  25.030   7.585
 3354POPC   NC343367  19.635  14.459   5.560
 3354POPC   PO443368  20.022  13.859   5.408
 3354POPC   GL143369  19.976  14.182   5.800
 3354POPC   GL243370  19.884  14.557   5.985
 3354POPC   C1A43371  19.725  14.131   6.200
 3354POPC   D2A43372  19.740  14.349   6.584
 3354POPC   C3A43373  19.815  14.188   6.989
 3354POPC   C4A43374  20.030  14.512   7.229
 3354POPC   C1B43375  19.443  14.598   6.214
 3354POPC   C2B43376  19.259  14.481   6.649
 3354POPC   C3B43377  19.446  14.537   7.057
 3354POPC   C4B43378  19.593  14.357   7.466
 3355POPC   NC343379  34.160  26.379   5.582
 3355POPC   PO443380  33.899  25.741   5.338
 3355POPC   GL143381  33.967  25.942   5.770
 3355POPC   GL243382  33.753  26.261   5.863
 3355POPC   C1A43383  34.006  25.886   6.226
 3355POPC   D2A43384  34.274  25.800   6.611
 3355POPC   C3A43385  34.001  25.774   6.995
 3355POPC   C4A43386  33.847  26.023   7.376
 3355POPC   C1B43387  33.644  26.278   6.322
 3355POPC   C2B43388  33.779  26.444   6.734
 3355POPC   C3B43389  33.555  26.498   7.137
 3355POPC   C4B43390  33.409  26.268   7.518
 3356POPC   NC343391  38.977  30.155   5.383
 3356POPC   PO443392  39.459  29.632   5.438
 3356POPC   GL143393  39.303  29.912   5.732
 3356POPC   GL243394  39.374  30.251   5.707
 3356POPC   C1A43395  39.200  29.983   6.159
 3356POPC   D2A43396  39.230  29.794   6.534
 3356POPC   C3A43397  39.221  30.046   6.856
 3356POPC   C4A43398  39.084  29.939   7.241
 3356POPC   C1B43399  39.635  30.273   6.084
 3356POPC   C2B43400  39.457  30.353   6.493
 3356POPC   C3B43401  39.593  30.389   6.928
 3356POPC   C4B43402  39.314  30.379   7.271
 3357POPC   NC343403  29.447  11.748   5.370
 3357POPC   PO443404  28.849  11.537   5.493
 3357POPC   GL143405  29.059  11.293   5.854
 3357POPC   GL243406  29.372  11.444   5.796
 3357POPC   C1A43407  29.375  11.148   6.236
 3357POPC   D2A43408  29.523  11.013   6.677
 3357POPC   C3A43409  29.202  11.010   7.001
 3357POPC   C4A43410  28.874  11.246   7.160
 3357POPC   C1B43411  29.178  11.610   6.204
 3357POPC   C2B43412  29.062  11.406   6.564
 3357POPC   C3B43413  29.281  11.489   6.889
 3357POPC   C4B43414  29.307  11.693   7.227
 3358POPC   NC343415  40.793   6.965   5.442
 3358POPC   PO443416  40.660   6.370   5.258
 3358POPC   GL143417  40.619   6.496   5.695
 3358POPC   GL243418  40.297   6.337   5.806
 3358POPC   C1A43419  40.927   6.657   6.048
 3358POPC   D2A43420  41.165   6.713   6.476
 3358POPC   C3A43421  40.907   6.608   6.844
 3358POPC   C4A43422  40.974   6.692   7.272
 3358POPC   C1B43423  40.404   6.619   6.157
 3358POPC   C2B43424  40.583   6.954   6.429
 3358POPC   C3B43425  40.515   7.007   6.876
 3358POPC   C4B43426  40.452   6.696   7.189
 3359POPC   NC343427  39.654  25.732   5.588
 3359POPC   PO443428  39.492  26.311   5.234
 3359POPC   GL143429  39.751  26.255   5.700
 3359POPC   GL243430  40.074  26.043   5.699
 3359POPC   C1A43431  39.950  26.196   6.176
 3359POPC   D2A43432  40.114  26.398   6.617
 3359POPC   C3A43433  40.106  26.203   7.042
 3359POPC   C4A43434  39.754  25.956   7.245
 3359POPC   C1B43435  40.206  25.760   6.074
 3359POPC   C2B43436  40.154  25.853   6.510
 3359POPC   C3B43437  40.154  25.701   6.918
 3359POPC   C4B43438  40.470  25.841   7.200
 3360POPC   NC343439  27.149   3.261   5.136
 3360POPC   PO443440  26.602   3.632   5.367
 3360POPC   GL143441  26.896   3.474   5.671
 3360POPC   GL243442  26.744   3.714   5.884
 3360POPC   C1A43443  27.040   3.369   6.119
 3360POPC   D2A43444  26.971   3.208   6.565
 3360POPC   C3A43445  27.127   3.432   6.920
 3360POPC   C4A43446  27.049   3.434   7.322
 3360POPC   C1B43447  26.831   3.834   6.316
 3360POPC   C2B43448  26.739   3.658   6.696
 3360POPC   C3B43449  26.600   3.519   7.083
 3360POPC   C4B43450  26.645   3.672   7.506
 3361POPC   NC343451   2.230  44.715   5.386
 3361POPC   PO443452   1.717  44.276   5.479
 3361POPC   GL143453   1.974  44.490   5.768
 3361POPC   GL243454   2.273  44.278   5.700
 3361POPC   C1A43455   1.967  44.728   6.169
 3361POPC   D2A43456   1.869  44.595   6.604
 3361POPC   C3A43457   1.875  44.888   6.941
 3361POPC   C4A43458   1.691  44.864   7.345
 3361POPC   C1B43459   2.240  44.293   6.156
 3361POPC   C2B43460   2.378  44.576   6.491
 3361POPC   C3B43461   2.439  44.535   6.936
 3361POPC   C4B43462   2.110  44.548   7.236
 3362POPC   NC343463  14.445   8.657   5.443
 3362POPC   PO443464  13.901   9.131   5.404
 3362POPC   GL143465  14.305   9.173   5.726
 3362POPC   GL243466  14.426   8.871   5.895
 3362POPC   C1A43467  14.465   9.311   6.155
 3362POPC   D2A43468  14.264   9.243   6.593
 3362POPC   C3A43469  14.455   9.186   7.002
 3362POPC   C4A43470  14.211   8.899   7.288
 3362POPC   C1B43471  14.399   8.834   6.319
 3362POPC   C2B43472  14.661   8.849   6.673
 3362POPC   C3B43473  14.663   8.729   7.086
 3362POPC   C4B43474  14.637   8.788   7.524
 3363POPC   NC343475  17.894  34.139   5.656
 3363POPC   PO443476  17.981  33.550   5.316
 3363POPC   GL143477  18.102  33.617   5.750
 3363POPC   GL243478  18.444  33.762   5.752
 3363POPC   C1A43479  18.089  33.770   6.191
 3363POPC   D2A43480  18.179  34.088   6.518
 3363POPC   C3A43481  18.122  33.886   6.923
 3363POPC   C4A43482  17.976  33.973   7.317
 3363POPC   C1B43483  18.596  33.898   6.174
 3363POPC   C2B43484  18.566  33.748   6.590
 3363POPC   C3B43485  18.623  33.920   6.962
 3363POPC   C4B43486  18.454  33.742   7.318
 3364POPC   NC343487  19.414  37.686   5.626
 3364POPC   PO443488  20.121  37.959   5.474
 3364POPC   GL143489  19.898  37.868   5.858
 3364POPC   GL243490  19.933  37.523   5.816
 3364POPC   C1A43491  19.850  37.816   6.337
 3364POPC   D2A43492  19.719  37.916   6.773
 3364POPC   C3A43493  19.862  37.828   7.194
 3364POPC   C4A43494  19.803  37.749   7.664
 3364POPC   C1B43495  19.641  37.404   6.145
 3364POPC   C2B43496  19.600  37.231   6.548
 3364POPC   C3B43497  19.569  37.438   6.940
 3364POPC   C4B43498  19.719  37.350   7.338
 3365POPC   NC343499  39.653  27.931   5.002
 3365POPC   PO443500  39.076  27.683   5.369
 3365POPC   GL143501  39.135  27.695   5.825
 3365POPC   GL243502  39.433  27.850   5.861
 3365POPC   C1A43503  39.118  27.834   6.282
 3365POPC   D2A43504  39.041  27.520   6.616
 3365POPC   C3A43505  39.274  27.501   6.949
 3365POPC   C4A43506  39.147  27.472   7.350
 3365POPC   C1B43507  39.571  27.612   6.143
 3365POPC   C2B43508  39.553  27.691   6.550
 3365POPC   C3B43509  39.720  27.775   6.900
 3365POPC   C4B43510  39.559  27.758   7.294
 3366POPC   NC343511   2.855  13.709   5.319
 3366POPC   PO443512   2.973  13.132   5.375
 3366POPC   GL143513   2.682  13.329   5.707
 3366POPC   GL243514   2.652  13.695   5.803
 3366POPC   C1A43515   2.571  13.326   6.142
 3366POPC   D2A43516   2.574  13.578   6.504
 3366POPC   C3A43517   2.736  13.363   6.859
 3366POPC   C4A43518   2.736  13.537   7.246
 3366POPC   C1B43519   2.947  13.690   6.171
 3366POPC   C2B43520   3.136  13.516   6.583
 3366POPC   C3B43521   3.188  13.634   7.042
 3366POPC   C4B43522   3.118  13.804   7.483
 3367POPC   NC343523  38.124  13.802   5.394
 3367POPC   PO443524  37.445  13.807   5.262
 3367POPC   GL143525  37.683  13.851   5.656
 3367POPC   GL243526  37.758  13.518   5.751
 3367POPC   C1A43527  37.704  13.893   6.113
 3367POPC   D2A43528  37.828  13.819   6.526
 3367POPC   C3A43529  37.529  13.806   6.866
 3367POPC   C4A43530  37.814  13.909   7.170
 3367POPC   C1B43531  37.788  13.395   6.202
 3367POPC   C2B43532  37.653  13.337   6.646
 3367POPC   C3B43533  37.700  13.370   7.107
 3367POPC   C4B43534  37.483  13.410   7.478
 3368POPC   NC343535  19.629  30.473   5.498
 3368POPC   PO443536  19.756  31.092   5.447
 3368POPC   GL143537  19.695  30.882   5.829
 3368POPC   GL243538  20.024  30.840   5.980
 3368POPC   C1A43539  19.596  30.875   6.267
 3368POPC   D2A43540  19.939  30.879   6.544
 3368POPC   C3A43541  19.951  30.882   6.960
 3368POPC   C4A43542  19.688  30.676   7.205
 3368POPC   C1B43543  20.060  30.474   6.253
 3368POPC   C2B43544  20.122  30.395   6.683
 3368POPC   C3B43545  20.156  30.434   7.123
 3368POPC   C4B43546  19.897  30.309   7.480
 3369POPC   NC343547  22.702   8.752   5.535
 3369POPC   PO443548  22.594   9.246   5.047
 3369POPC   GL143549  22.795   9.304   5.539
 3369POPC   GL243550  23.087   9.083   5.649
 3369POPC   C1A43551  22.756   9.240   6.039
 3369POPC   D2A43552  22.612   9.141   6.487
 3369POPC   C3A43553  22.842   9.161   6.890
 3369POPC   C4A43554  23.028   8.844   7.147
 3369POPC   C1B43555  23.272   9.182   6.056
 3369POPC   C2B43556  23.205   9.178   6.499
 3369POPC   C3B43557  23.351   9.382   6.878
 3369POPC   C4B43558  23.186   9.304   7.284
 3370POPC   NC343559  10.710  41.441   5.444
 3370POPC   PO443560  10.692  42.115   5.486
 3370POPC   GL143561  10.613  41.761   5.834
 3370POPC   GL243562  10.457  41.376   5.873
 3370POPC   C1A43563  10.832  41.528   6.197
 3370POPC   D2A43564  10.803  41.268   6.551
 3370POPC   C3A43565  10.824  41.493   6.924
 3370POPC   C4A43566  10.591  41.407   7.259
 3370POPC   C1B43567  10.268  41.644   6.189
 3370POPC   C2B43568  10.167  41.851   6.578
 3370POPC   C3B43569  10.256  41.565   6.907
 3370POPC   C4B43570  10.047  41.320   7.261
 3371POPC   NC343571  30.578  21.756   5.366
 3371POPC   PO443572  30.528  21.062   5.303
 3371POPC   GL143573  30.627  21.086   5.770
 3371POPC   GL243574  30.646  21.466   5.832
 3371POPC   C1A43575  30.577  21.146   6.244
 3371POPC   D2A43576  30.388  21.014   6.646
 3371POPC   C3A43577  30.592  21.167   7.025
 3371POPC   C4A43578  30.915  20.964   7.243
 3371POPC   C1B43579  30.916  21.535   6.223
 3371POPC   C2B43580  30.916  21.464   6.675
 3371POPC   C3B43581  30.818  21.660   7.058
 3371POPC   C4B43582  30.671  21.485   7.454
 3372POPC   NC343583   0.383  39.364   5.390
 3372POPC   PO443584  44.932  39.053   5.666
 3372POPC   GL143585   0.263  39.206   5.910
 3372POPC   GL243586   0.598  39.148   5.784
 3372POPC   C1A43587   0.288  39.171   6.347
 3372POPC   D2A43588   0.013  39.119   6.690
 3372POPC   C3A43589   0.298  39.047   7.030
 3372POPC   C4A43590   0.226  38.925   7.477
 3372POPC   C1B43591   0.756  39.315   6.181
 3372POPC   C2B43592   0.702  39.381   6.608
 3372POPC   C3B43593   0.851  39.202   6.963
 3372POPC   C4B43594   0.687  39.211   7.341
 3373POPC   NC343595  20.363  42.455   5.667
 3373POPC   PO443596  19.714  42.432   5.422
 3373POPC   GL143597  19.648  42.399   5.866
 3373POPC   GL243598  19.525  42.694   6.019
 3373POPC   C1A43599  19.796  42.186   6.263
 3373POPC   D2A43600  20.057  42.281   6.638
 3373POPC   C3A43601  19.956  42.090   7.045
 3373POPC   C4A43602  19.919  41.820   7.414
 3373POPC   C1B43603  19.305  42.342   6.248
 3373POPC   C2B43604  19.393  42.081   6.599
 3373POPC   C3B43605  19.466  42.257   7.007
 3373POPC   C4B43606  19.803  42.573   7.059
 3374POPC   NC343607  12.457  15.731   5.668
 3374POPC   PO443608  13.101  15.582   5.424
 3374POPC   GL143609  12.957  15.816   5.772
 3374POPC   GL243610  13.227  15.906   5.925
 3374POPC   C1A43611  12.832  15.724   6.222
 3374POPC   D2A43612  12.895  15.701   6.666
 3374POPC   C3A43613  12.566  15.927   6.903
 3374POPC   C4A43614  12.625  15.979   7.323
 3374POPC   C1B43615  13.237  16.057   6.312
 3374POPC   C2B43616  13.345  15.984   6.716
 3374POPC   C3B43617  13.124  15.990   7.113
 3374POPC   C4B43618  13.088  15.902   7.550
 3375POPC   NC343619   1.942   3.066   5.382
 3375POPC   PO443620   2.063   2.451   5.481
 3375POPC   GL143621   1.857   2.660   5.842
 3375POPC   GL243622   1.724   3.027   5.849
 3375POPC   C1A43623   2.058   2.635   6.254
 3375POPC   D2A43624   2.259   2.525   6.630
 3375POPC   C3A43625   2.129   2.600   7.059
 3375POPC   C4A43626   1.743   2.627   7.251
 3375POPC   C1B43627   1.902   3.111   6.246
 3375POPC   C2B43628   2.083   3.016   6.664
 3375POPC   C3B43629   1.974   3.117   7.099
 3375POPC   C4B43630   1.995   2.968   7.517
 3376POPC   NC343631  32.745  22.468   5.521
 3376POPC   PO443632  33.294  22.833   5.535
 3376POPC   GL143633  32.976  22.879   5.829
 3376POPC   GL243634  33.031  22.585   5.983
 3376POPC   C1A43635  32.956  23.023   6.281
 3376POPC   D2A43636  33.209  23.059   6.685
 3376POPC   C3A43637  32.939  23.094   7.086
 3376POPC   C4A43638  32.802  23.282   7.508
 3376POPC   C1B43639  33.378  22.715   6.251
 3376POPC   C2B43640  33.440  22.581   6.663
 3376POPC   C3B43641  33.327  22.744   7.070
 3376POPC   C4B43642  33.176  22.898   7.488
 3377POPC   NC343643  36.051   1.051   5.345
 3377POPC   PO443644  36.686   1.049   5.478
 3377POPC   GL143645  36.310   1.139   5.794
 3377POPC   GL243646  35.926   1.233   5.803
 3377POPC   C1A43647  36.102   0.967   6.191
 3377POPC   D2A43648  36.263   1.132   6.577
 3377POPC   C3A43649  36.132   0.936   6.955
 3377POPC   C4A43650  36.435   0.863   7.251
 3377POPC   C1B43651  36.081   1.470   6.174
 3377POPC   C2B43652  35.901   1.525   6.592
 3377POPC   C3B43653  36.100   1.456   6.977
 3377POPC   C4B43654  36.185   1.657   7.340
 3378POPC   NC343655  20.250  26.447   5.622
 3378POPC   PO443656  19.660  26.626   5.561
 3378POPC   GL143657  19.659  26.736   6.005
 3378POPC   GL243658  19.884  27.006   6.065
 3378POPC   C1A43659  19.603  26.869   6.464
 3378POPC   D2A43660  19.970  27.045   6.671
 3378POPC   C3A43661  19.873  27.039   7.087
 3378POPC   C4A43662  19.635  26.715   7.194
 3378POPC   C1B43663  20.031  26.632   6.346
 3378POPC   C2B43664  20.022  26.560   6.818
 3378POPC   C3B43665  20.152  26.616   7.250
 3378POPC   C4B43666  20.420  26.871   7.515
 3379POPC   NC343667  38.923  13.239   5.605
 3379POPC   PO443668  39.265  13.855   5.513
 3379POPC   GL143669  39.178  13.932   5.880
 3379POPC   GL243670  38.968  14.236   5.928
 3379POPC   C1A43671  39.173  13.602   6.179
 3379POPC   D2A43672  39.109  13.523   6.594
 3379POPC   C3A43673  39.289  13.529   6.963
 3379POPC   C4A43674  39.099  13.520   7.334
 3379POPC   C1B43675  38.874  14.010   6.308
 3379POPC   C2B43676  39.027  14.090   6.711
 3379POPC   C3B43677  39.289  14.030   7.053
 3379POPC   C4B43678  39.183  14.022   7.473
 3380POPC   NC343679  20.143  23.095   5.111
 3380POPC   PO443680  20.708  22.777   5.458
 3380POPC   GL143681  20.655  22.932   5.865
 3380POPC   GL243682  20.829  23.238   5.818
 3380POPC   C1A43683  20.354  23.148   6.186
 3380POPC   D2A43684  20.402  23.361   6.533
 3380POPC   C3A43685  20.515  23.160   6.855
 3380POPC   C4A43686  20.343  23.190   7.221
 3380POPC   C1B43687  20.840  23.150   6.272
 3380POPC   C2B43688  20.898  22.917   6.597
 3380POPC   C3B43689  21.043  23.043   6.951
 3380POPC   C4B43690  20.756  22.858   7.181
 3381POPC   NC343691  26.547  17.111   5.451
 3381POPC   PO443692  26.556  16.408   5.333
 3381POPC   GL143693  26.573  16.478   5.803
 3381POPC   GL243694  26.725  16.807   5.858
 3381POPC   C1A43695  26.551  16.572   6.273
 3381POPC   D2A43696  26.761  16.645   6.675
 3381POPC   C3A43697  26.591  16.530   7.079
 3381POPC   C4A43698  26.763  16.729   7.467
 3381POPC   C1B43699  26.877  16.982   6.265
 3381POPC   C2B43700  26.820  17.185   6.686
 3381POPC   C3B43701  26.832  17.131   7.152
 3381POPC   C4B43702  27.056  17.167   7.575
 3382POPC   NC343703  27.326  20.200   5.557
 3382POPC   PO443704  27.790  20.638   5.326
 3382POPC   GL143705  27.571  20.673   5.746
 3382POPC   GL243706  27.208  20.806   5.734
 3382POPC   C1A43707  27.686  20.456   6.168
 3382POPC   D2A43708  27.846  20.607   6.592
 3382POPC   C3A43709  27.632  20.425   6.907
 3382POPC   C4A43710  27.507  20.554   7.289
 3382POPC   C1B43711  27.165  20.605   6.135
 3382POPC   C2B43712  27.327  20.655   6.546
 3382POPC   C3B43713  27.141  20.612   6.943
 3382POPC   C4B43714  27.019  20.596   7.373
 3383POPC   NC343715  38.249   6.809   5.353
 3383POPC   PO443716  38.153   6.268   5.754
 3383POPC   GL143717  38.354   6.677   5.832
 3383POPC   GL243718  38.109   6.959   5.843
 3383POPC   C1A43719  38.656   6.725   6.167
 3383POPC   D2A43720  38.654   6.392   6.493
 3383POPC   C3A43721  38.594   6.552   6.895
 3383POPC   C4A43722  38.610   6.540   7.307
 3383POPC   C1B43723  38.106   6.759   6.277
 3383POPC   C2B43724  38.126   6.545   6.674
 3383POPC   C3B43725  38.109   6.580   7.128
 3383POPC   C4B43726  38.288   6.857   7.487
 3384POPC   NC343727  25.443   4.901   5.527
 3384POPC   PO443728  24.922   5.329   5.379
 3384POPC   GL143729  25.057   5.088   5.797
 3384POPC   GL243730  25.401   5.189   5.963
 3384POPC   C1A43731  25.042   4.936   6.241
 3384POPC   D2A43732  25.270   5.057   6.645
 3384POPC   C3A43733  25.110   4.873   7.041
 3384POPC   C4A43734  24.906   5.010   7.380
 3384POPC   C1B43735  25.542   4.838   6.238
 3384POPC   C2B43736  25.621   4.690   6.669
 3384POPC   C3B43737  25.623   4.959   7.052
 3384POPC   C4B43738  25.365   5.253   7.258
 3385POPC   NC343739  38.363   9.272   5.086
 3385POPC   PO443740  38.496   8.636   5.283
 3385POPC   GL143741  38.523   8.877   5.681
 3385POPC   GL243742  38.412   9.220   5.695
 3385POPC   C1A43743  38.503   8.874   6.140
 3385POPC   D2A43744  38.334   9.054   6.529
 3385POPC   C3A43745  38.154   8.766   6.860
 3385POPC   C4A43746  38.303   8.941   7.228
 3385POPC   C1B43747  38.765   9.287   6.035
 3385POPC   C2B43748  38.847   9.255   6.496
 3385POPC   C3B43749  38.690   9.114   6.909
 3385POPC   C4B43750  38.667   9.369   7.274
 3386POPC   NC343751  33.125   5.852   5.551
 3386POPC   PO443752  32.478   5.728   5.594
 3386POPC   GL143753  32.791   5.523   5.881
 3386POPC   GL243754  33.161   5.423   5.828
 3386POPC   C1A43755  32.935   5.744   6.253
 3386POPC   D2A43756  32.979   6.070   6.594
 3386POPC   C3A43757  33.111   5.982   7.012
 3386POPC   C4A43758  33.037   6.059   7.462
 3386POPC   C1B43759  33.344   5.427   6.240
 3386POPC   C2B43760  33.234   5.601   6.643
 3386POPC   C3B43761  33.437   5.565   7.025
 3386POPC   C4B43762  33.451   5.799   7.364
 3387POPC   NC343763  27.703  32.171   5.384
 3387POPC   PO443764  27.177  32.568   5.445
 3387POPC   GL143765  27.394  32.343   5.756
 3387POPC   GL243766  27.737  32.370   5.859
 3387POPC   C1A43767  27.351  32.139   6.134
 3387POPC   D2A43768  27.609  32.157   6.501
 3387POPC   C3A43769  27.416  31.927   6.791
 3387POPC   C4A43770  27.376  31.968   7.210
 3387POPC   C1B43771  27.897  32.517   6.234
 3387POPC   C2B43772  28.057  32.401   6.637
 3387POPC   C3B43773  27.798  32.300   6.989
 3387POPC   C4B43774  27.750  32.502   7.390
 3388POPC   NC343775  29.291   9.935   5.628
 3388POPC   PO443776  28.834   9.446   5.526
 3388POPC   GL143777  28.887   9.675   5.891
 3388POPC   GL243778  28.887  10.047   5.924
 3388POPC   C1A43779  28.973   9.552   6.303
 3388POPC   D2A43780  29.170   9.663   6.664
 3388POPC   C3A43781  29.047   9.522   7.006
 3388POPC   C4A43782  29.256   9.519   7.347
 3388POPC   C1B43783  29.231   9.993   6.261
 3388POPC   C2B43784  29.269  10.148   6.685
 3388POPC   C3B43785  29.258  10.008   7.149
 3388POPC   C4B43786  29.276  10.303   7.519
 3389POPC   NC343787  14.023  18.172   5.527
 3389POPC   PO443788  14.625  18.380   5.305
 3389POPC   GL143789  14.509  18.255   5.738
 3389POPC   GL243790  14.599  17.941   5.912
 3389POPC   C1A43791  14.572  18.391   6.176
 3389POPC   D2A43792  14.569  18.174   6.553
 3389POPC   C3A43793  14.403  18.438   6.856
 3389POPC   C4A43794  14.634  18.459   7.219
 3389POPC   C1B43795  14.207  18.036   6.148
 3389POPC   C2B43796  14.064  18.148   6.553
 3389POPC   C3B43797  14.029  18.087   6.985
 3389POPC   C4B43798  14.328  17.979   7.241
 3390POPC   NC343799  18.973  13.526   5.540
 3390POPC   PO443800  18.535  14.115   5.436
 3390POPC   GL143801  18.797  13.916   5.833
 3390POPC   GL243802  19.150  13.796   5.936
 3390POPC   C1A43803  18.780  13.645   6.230
 3390POPC   D2A43804  18.880  13.353   6.548
 3390POPC   C3A43805  18.787  13.537   6.916
 3390POPC   C4A43806  18.950  13.732   7.274
 3390POPC   C1B43807  19.188  13.312   6.139
 3390POPC   C2B43808  19.304  13.076   6.552
 3390POPC   C3B43809  19.395  13.172   6.988
 3390POPC   C4B43810  19.238  13.325   7.383
 3391POPC   NC343811  35.801   2.868   5.474
 3391POPC   PO443812  36.442   2.703   5.466
 3391POPC   GL143813  36.236   2.880   5.801
 3391POPC   GL243814  36.046   2.575   5.845
 3391POPC   C1A43815  36.299   2.893   6.258
 3391POPC   D2A43816  36.511   2.803   6.663
 3391POPC   C3A43817  36.329   3.004   7.043
 3391POPC   C4A43818  35.926   2.973   7.228
 3391POPC   C1B43819  35.821   2.366   6.167
 3391POPC   C2B43820  35.647   2.465   6.578
 3391POPC   C3B43821  35.892   2.545   6.958
 3391POPC   C4B43822  35.776   2.519   7.401
 3392POPC   NC343823  12.185   3.333   5.254
 3392POPC   PO443824  11.918   3.790   5.608
 3392POPC   GL143825  11.998   3.341   5.768
 3392POPC   GL243826  12.362   3.190   5.742
 3392POPC   C1A43827  11.841   3.344   6.206
 3392POPC   D2A43828  11.980   3.601   6.552
 3392POPC   C3A43829  11.870   3.422   6.949
 3392POPC   C4A43830  12.029   3.731   7.233
 3392POPC   C1B43831  12.370   3.348   6.157
 3392POPC   C2B43832  12.293   3.197   6.580
 3392POPC   C3B43833  12.393   3.395   6.956
 3392POPC   C4B43834  12.212   3.277   7.326
 3393POPC   NC343835  12.602  21.756   5.589
 3393POPC   PO443836  13.137  21.478   5.335
 3393POPC   GL143837  13.017  21.379   5.781
 3393POPC   GL243838  12.707  21.219   5.725
 3393POPC   C1A43839  12.978  21.307   6.245
 3393POPC   D2A43840  13.274  21.355   6.614
 3393POPC   C3A43841  13.251  21.579   6.984
 3393POPC   C4A43842  13.008  21.419   7.282
 3393POPC   C1B43843  12.585  20.946   6.061
 3393POPC   C2B43844  12.575  21.037   6.503
 3393POPC   C3B43845  12.807  21.249   6.849
 3393POPC   C4B43846  12.718  21.015   7.288
 3394POPC   NC343847  10.966   9.954   5.309
 3394POPC   PO443848  11.450   9.596   5.511
 3394POPC   GL143849  11.233   9.863   5.787
 3394POPC   GL243850  11.561   9.916   5.950
 3394POPC   C1A43851  11.123  10.048   6.211
 3394POPC   D2A43852  11.272  10.175   6.640
 3394POPC   C3A43853  11.024  10.025   7.003
 3394POPC   C4A43854  10.850   9.588   7.035
 3394POPC   C1B43855  11.398   9.548   6.166
 3394POPC   C2B43856  11.150   9.574   6.506
 3394POPC   C3B43857  11.349   9.673   6.860
 3394POPC   C4B43858  11.480   9.656   7.251
 3395POPC   NC343859  28.946   6.600   5.223
 3395POPC   PO443860  28.463   6.401   5.517
 3395POPC   GL143861  28.320   6.567   5.886
 3395POPC   GL243862  28.462   6.875   5.979
 3395POPC   C1A43863  28.072   6.379   6.184
 3395POPC   D2A43864  27.885   6.384   6.584
 3395POPC   C3A43865  28.082   6.252   6.941
 3395POPC   C4A43866  28.191   6.384   7.335
 3395POPC   C1B43867  28.252   6.822   6.340
 3395POPC   C2B43868  28.378   6.529   6.620
 3395POPC   C3B43869  28.508   6.649   7.005
 3395POPC   C4B43870  28.255   6.888   7.207
 3396POPC   NC343871  18.673  19.286   5.394
 3396POPC   PO443872  18.130  18.962   5.239
 3396POPC   GL143873  18.166  18.976   5.699
 3396POPC   GL243874  18.356  19.256   5.816
 3396POPC   C1A43875  18.229  18.872   6.158
 3396POPC   D2A43876  18.219  18.679   6.578
 3396POPC   C3A43877  18.001  18.951   6.861
 3396POPC   C4A43878  18.133  19.056   7.258
 3396POPC   C1B43879  18.619  19.197   6.189
 3396POPC   C2B43880  18.731  19.281   6.560
 3396POPC   C3B43881  18.556  19.067   6.864
 3396POPC   C4B43882  18.625  19.161   7.267
 3397POPC   NC343883   9.263  19.594   5.595
 3397POPC   PO443884   8.765  20.113   5.413
 3397POPC   GL143885   8.921  19.952   5.787
 3397POPC   GL243886   9.268  20.077   5.839
 3397POPC   C1A43887   8.730  19.820   6.168
 3397POPC   D2A43888   8.681  19.674   6.571
 3397POPC   C3A43889   8.718  20.006   6.855
 3397POPC   C4A43890   8.649  19.839   7.233
 3397POPC   C1B43891   9.253  19.839   6.203
 3397POPC   C2B43892   9.155  19.866   6.612
 3397POPC   C3B43893   9.131  19.809   7.039
 3397POPC   C4B43894   9.446  19.857   7.282
 3398POPC   NC343895  20.012   8.057   5.303
 3398POPC   PO443896  20.020   8.573   5.779
 3398POPC   GL143897  19.892   8.183   5.817
 3398POPC   GL243898  20.216   7.983   5.807
 3398POPC   C1A43899  19.605   8.118   6.165
 3398POPC   D2A43900  19.569   7.833   6.502
 3398POPC   C3A43901  19.612   7.992   6.934
 3398POPC   C4A43902  19.730   8.186   7.328
 3398POPC   C1B43903  20.041   7.881   6.228
 3398POPC   C2B43904  19.999   8.186   6.562
 3398POPC   C3B43905  20.129   8.198   6.991
 3398POPC   C4B43906  20.073   7.815   7.218
 3399POPC   NC343907   7.269  25.858   5.281
 3399POPC   PO443908   7.850  26.163   5.264
 3399POPC   GL143909   7.571  26.015   5.651
 3399POPC   GL243910   7.536  25.725   5.844
 3399POPC   C1A43911   7.346  26.159   6.054
 3399POPC   D2A43912   7.411  26.317   6.480
 3399POPC   C3A43913   7.288  26.074   6.858
 3399POPC   C4A43914   7.429  26.325   7.202
 3399POPC   C1B43915   7.676  25.830   6.291
 3399POPC   C2B43916   7.773  26.002   6.718
 3399POPC   C3B43917   7.725  25.833   7.156
 3399POPC   C4B43918   7.772  25.685   7.616
 3400POPC   NC343919  28.728  10.297   5.449
 3400POPC   PO443920  28.544  10.915   5.413
 3400POPC   GL143921  28.394  10.661   5.832
 3400POPC   GL243922  28.728  10.566   5.878
 3400POPC   C1A43923  28.123  10.559   6.274
 3400POPC   D2A43924  28.207  10.293   6.644
 3400POPC   C3A43925  28.319  10.517   7.057
 3400POPC   C4A43926  28.059  10.751   7.351
 3400POPC   C1B43927  28.560  10.337   6.198
 3400POPC   C2B43928  28.628  10.539   6.564
 3400POPC   C3B43929  28.791  10.278   6.846
 3400POPC   C4B43930  28.780  10.242   7.254
 3401POPC   NC343931  34.775  15.742   5.504
 3401POPC   PO443932  34.321  16.189   5.329
 3401POPC   GL143933  34.386  15.979   5.741
 3401POPC   GL243934  34.720  16.006   5.933
 3401POPC   C1A43935  34.276  15.894   6.177
 3401POPC   D2A43936  34.481  15.849   6.564
 3401POPC   C3A43937  34.265  15.774   6.960
 3401POPC   C4A43938  34.509  15.861   7.304
 3401POPC   C1B43939  34.889  15.656   6.195
 3401POPC   C2B43940  35.113  15.615   6.621
 3401POPC   C3B43941  35.068  15.688   7.082
 3401POPC   C4B43942  34.959  15.728   7.527
 3402POPC   NC343943  16.199   8.983   5.588
 3402POPC   PO443944  16.803   9.217   5.214
 3402POPC   GL143945  16.699   9.220   5.695
 3402POPC   GL243946  16.681   8.870   5.849
 3402POPC   C1A43947  16.440   9.275   6.105
 3402POPC   D2A43948  16.343   9.020   6.482
 3402POPC   C3A43949  16.681   9.021   6.804
 3402POPC   C4A43950  16.638   9.228   7.217
 3402POPC   C1B43951  16.836   9.005   6.270
 3402POPC   C2B43952  17.142   8.817   6.540
 3402POPC   C3B43953  16.993   8.555   6.838
 3402POPC   C4B43954  16.866   8.768   7.217
 3403POPC   NC343955  40.179  17.843   4.988
 3403POPC   PO443956  40.075  17.637   5.597
 3403POPC   GL143957  39.987  17.558   5.997
 3403POPC   GL243958  39.742  17.820   5.983
 3403POPC   C1A43959  40.011  17.235   6.317
 3403POPC   D2A43960  40.130  17.144   6.757
 3403POPC   C3A43961  39.819  17.343   7.028
 3403POPC   C4A43962  39.930  17.338   7.450
 3403POPC   C1B43963  39.697  17.698   6.416
 3403POPC   C2B43964  39.916  17.858   6.754
 3403POPC   C3B43965  40.130  17.754   7.112
 3403POPC   C4B43966  40.101  17.904   7.501
 3404POPC   NC343967  14.403   2.946   5.400
 3404POPC   PO443968  14.798   2.464   5.529
 3404POPC   GL143969  14.517   2.660   5.820
 3404POPC   GL243970  14.239   2.470   5.818
 3404POPC   C1A43971  14.420   2.886   6.199
 3404POPC   D2A43972  14.592   2.995   6.605
 3404POPC   C3A43973  14.319   2.888   6.961
 3404POPC   C4A43974  14.521   2.734   7.329
 3404POPC   C1B43975  14.258   2.342   6.239
 3404POPC   C2B43976  14.272   2.446   6.675
 3404POPC   C3B43977  14.121   2.305   7.082
 3404POPC   C4B43978  14.075   2.566   7.437
 3405POPC   NC343979   9.895  20.405   5.523
 3405POPC   PO443980   9.366  20.788   5.464
 3405POPC   GL143981   9.596  20.717   5.866
 3405POPC   GL243982   9.739  20.370   6.007
 3405POPC   C1A43983   9.693  20.824   6.306
 3405POPC   D2A43984   9.503  20.616   6.653
 3405POPC   C3A43985   9.637  20.686   7.064
 3405POPC   C4A43986   9.723  20.820   7.462
 3405POPC   C1B43987  10.101  20.507   6.294
 3405POPC   C2B43988  10.073  20.636   6.733
 3405POPC   C3B43989  10.146  20.744   7.152
 3405POPC   C4B43990  10.196  20.666   7.585
 3406POPC   NC343991  18.721  30.606   5.700
 3406POPC   PO443992  18.219  30.641   5.294
 3406POPC   GL143993  18.074  30.597   5.741
 3406POPC   GL243994  18.289  30.890   5.792
 3406POPC   C1A43995  18.165  30.353   6.176
 3406POPC   D2A43996  18.245  30.480   6.633
 3406POPC   C3A43997  18.003  30.423   7.002
 3406POPC   C4A43998  17.915  30.645   7.379
 3406POPC   C1B43999  18.257  30.846   6.229
 3406POPC   C2B44000  18.475  30.934   6.601
 3406POPC   C3B44001  18.260  30.870   6.987
 3406POPC   C4B44002  18.446  30.947   7.357
 3407POPC   NC344003   8.335  44.239   5.408
 3407POPC   PO444004   8.365  44.874   5.326
 3407POPC   GL144005   8.149  44.763   5.710
 3407POPC   GL244006   8.041   0.056   5.892
 3407POPC   C1A44007   8.105  44.559   6.127
 3407POPC   D2A44008   8.304  44.593   6.528
 3407POPC   C3A44009   8.246  44.354   6.886
 3407POPC   C4A44010   7.953  44.335   7.187
 3407POPC   C1B44011   8.343   0.058   6.234
 3407POPC   C2B44012   8.367   0.095   6.675
 3407POPC   C3B44013   8.252  44.855   7.025
 3407POPC   C4B44014   7.962  44.815   7.340
 3408POPC   NC344015  29.011  41.905   5.571
 3408POPC   PO444016  29.357  41.279   5.459
 3408POPC   GL144017  29.206  41.470   5.807
 3408POPC   GL244018  29.467  41.698   5.838
 3408POPC   C1A44019  28.987  41.359   6.167
 3408POPC   D2A44020  29.047  41.133   6.559
 3408POPC   C3A44021  29.139  41.347   6.996
 3408POPC   C4A44022  28.958  41.650   7.333
 3408POPC   C1B44023  29.399  41.609   6.290
 3408POPC   C2B44024  29.040  41.672   6.589
 3408POPC   C3B44025  29.148  41.913   6.959
 3408POPC   C4B44026  29.439  41.780   7.308
 3409POPC   NC344027  10.015   4.625   5.385
 3409POPC   PO444028   9.437   4.300   5.270
 3409POPC   GL144029   9.641   4.425   5.659
 3409POPC   GL244030   9.438   4.622   5.838
 3409POPC   C1A44031   9.868   4.599   6.082
 3409POPC   D2A44032   9.974   4.456   6.508
 3409POPC   C3A44033   9.852   4.067   6.756
 3409POPC   C4A44034   9.827   4.149   7.193
 3409POPC   C1B44035   9.549   4.214   6.103
 3409POPC   C2B44036   9.454   4.246   6.506
 3409POPC   C3B44037   9.410   4.326   6.920
 3409POPC   C4B44038   9.375   4.703   7.170
 3410POPC   NC344039   4.034  35.994   5.146
 3410POPC   PO444040   4.411  36.471   5.377
 3410POPC   GL144041   4.264  36.157   5.656
 3410POPC   GL244042   3.992  36.334   5.765
 3410POPC   C1A44043   4.267  36.028   6.112
 3410POPC   D2A44044   4.014  36.005   6.513
 3410POPC   C3A44045   4.165  35.934   6.931
 3410POPC   C4A44046   4.373  36.199   7.184
 3410POPC   C1B44047   3.937  36.423   6.185
 3410POPC   C2B44048   3.762  36.465   6.605
 3410POPC   C3B44049   4.021  36.537   6.983
 3410POPC   C4B44050   3.974  36.376   7.424
 3411POPC   NC344051  19.315   6.947   5.369
 3411POPC   PO444052  19.029   6.334   5.468
 3411POPC   GL144053  19.221   6.603   5.773
 3411POPC   GL244054  18.958   6.852   5.714
 3411POPC   C1A44055  19.308   6.761   6.219
 3411POPC   D2A44056  19.006   6.800   6.541
 3411POPC   C3A44057  18.901   6.645   6.943
 3411POPC   C4A44058  18.881   6.475   7.374
 3411POPC   C1B44059  18.758   6.747   6.077
 3411POPC   C2B44060  18.602   7.030   6.373
 3411POPC   C3B44061  18.362   7.043   6.763
 3411POPC   C4B44062  18.544   6.953   7.182
 3412POPC   NC344063  13.166  35.144   5.641
 3412POPC   PO444064  13.514  35.530   5.206
 3412POPC   GL144065  13.619  35.380   5.639
 3412POPC   GL244066  13.377  35.588   5.816
 3412POPC   C1A44067  13.631  35.158   6.097
 3412POPC   D2A44068  13.695  35.095   6.573
 3412POPC   C3A44069  13.782  35.470   6.875
 3412POPC   C4A44070  13.773  35.504   7.358
 3412POPC   C1B44071  13.215  35.456   6.214
 3412POPC   C2B44072  13.330  35.637   6.585
 3412POPC   C3B44073  13.097  35.656   6.918
 3412POPC   C4B44074  13.256  35.508   7.281
 3413POPC   NC344075  25.284  21.720   5.180
 3413POPC   PO444076  24.912  22.218   5.489
 3413POPC   GL144077  25.184  22.458   5.821
 3413POPC   GL244078  25.433  22.281   5.896
 3413POPC   C1A44079  25.297  22.487   6.310
 3413POPC   D2A44080  25.395  22.185   6.663
 3413POPC   C3A44081  25.228  22.134   7.064
 3413POPC   C4A44082  25.281  22.324   7.461
 3413POPC   C1B44083  25.214  21.991   6.239
 3413POPC   C2B44084  25.285  21.671   6.534
 3413POPC   C3B44085  25.495  21.692   6.908
 3413POPC   C4B44086  25.266  21.658   7.282
 3414POPC   NC344087  29.627  37.095   5.425
 3414POPC   PO444088  30.238  36.761   5.390
 3414POPC   GL144089  30.037  36.740   5.788
 3414POPC   GL244090  29.663  36.698   5.766
 3414POPC   C1A44091  29.864  36.982   6.155
 3414POPC   D2A44092  29.672  37.084   6.554
 3414POPC   C3A44093  29.887  37.074   6.953
 3414POPC   C4A44094  30.127  37.169   7.355
 3414POPC   C1B44095  29.489  36.626   6.180
 3414POPC   C2B44096  29.639  36.560   6.586
 3414POPC   C3B44097  29.514  36.723   6.974
 3414POPC   C4B44098  29.785  36.764   7.337
 3415POPC   NC344099  23.937   3.858   5.523
 3415POPC   PO444100  24.087   3.185   5.575
 3415POPC   GL144101  23.939   3.348   5.929
 3415POPC   GL244102  23.700   3.561   5.856
 3415POPC   C1A44103  23.830   3.498   6.332
 3415POPC   D2A44104  23.747   3.553   6.714
 3415POPC   C3A44105  23.959   3.364   6.999
 3415POPC   C4A44106  23.669   3.262   7.256
 3415POPC   C1B44107  23.453   3.819   6.168
 3415POPC   C2B44108  23.489   3.976   6.563
 3415POPC   C3B44109  23.314   3.912   6.969
 3415POPC   C4B44110  23.317   3.979   7.406
 3416POPC   NC344111   3.128  34.345   5.482
 3416POPC   PO444112   2.613  34.830   5.577
 3416POPC   GL144113   2.786  34.568   5.863
 3416POPC   GL244114   3.133  34.685   5.867
 3416POPC   C1A44115   2.836  34.762   6.270
 3416POPC   D2A44116   2.982  34.924   6.634
 3416POPC   C3A44117   2.767  34.702   6.945
 3416POPC   C4A44118   2.975  34.689   7.313
 3416POPC   C1B44119   3.153  34.369   6.172
 3416POPC   C2B44120   3.013  34.356   6.579
 3416POPC   C3B44121   3.216  34.407   6.947
 3416POPC   C4B44122   3.211  34.248   7.354
 3417POPC   NC344123   8.402  40.233   5.419
 3417POPC   PO444124   7.906  39.713   5.463
 3417POPC   GL144125   7.860  39.885   5.824
 3417POPC   GL244126   7.869  40.259   5.756
 3417POPC   C1A44127   8.025  39.755   6.209
 3417POPC   D2A44128   8.183  39.911   6.568
 3417POPC   C3A44129   8.018  39.839   6.961
 3417POPC   C4A44130   8.376  39.983   7.174
 3417POPC   C1B44131   7.867  40.258   6.213
 3417POPC   C2B44132   7.943  40.385   6.632
 3417POPC   C3B44133   7.914  40.315   7.085
 3417POPC   C4B44134   8.078  40.231   7.511
 3418POPC   NC344135  33.353  31.302   5.460
 3418POPC   PO444136  32.680  31.413   5.449
 3418POPC   GL144137  32.888  31.488   5.852
 3418POPC   GL244138  33.219  31.408   5.952
 3418POPC   C1A44139  32.761  31.530   6.274
 3418POPC   D2A44140  32.609  31.241   6.586
 3418POPC   C3A44141  32.823  31.383   6.908
 3418POPC   C4A44142  32.787  31.682   7.179
 3418POPC   C1B44143  33.311  31.671   6.279
 3418POPC   C2B44144  33.205  31.770   6.686
 3418POPC   C3B44145  33.274  31.563   7.036
 3418POPC   C4B44146  33.363  31.578   7.445
 3419POPC   NC344147  35.918  43.105   5.377
 3419POPC   PO444148  36.396  43.367   5.723
 3419POPC   GL144149  36.042  43.181   5.866
 3419POPC   GL244150  35.778  43.396   5.776
 3419POPC   C1A44151  36.047  42.888   6.207
 3419POPC   D2A44152  36.388  42.860   6.529
 3419POPC   C3A44153  36.227  43.040   6.920
 3419POPC   C4A44154  35.986  42.834   7.218
 3419POPC   C1B44155  35.690  43.267   6.236
 3419POPC   C2B44156  35.780  43.081   6.654
 3419POPC   C3B44157  35.794  43.287   7.079
 3419POPC   C4B44158  36.113  43.502   7.275
 3420POPC   NC344159  39.351  25.896   5.095
 3420POPC   PO444160  39.185  25.703   5.721
 3420POPC   GL144161  39.039  26.104   5.899
 3420POPC   GL244162  39.280  26.366   5.936
 3420POPC   C1A44163  38.958  26.108   6.333
 3420POPC   D2A44164  38.875  26.144   6.750
 3420POPC   C3A44165  39.185  26.120   7.055
 3420POPC   C4A44166  39.228  25.717   7.208
 3420POPC   C1B44167  39.461  26.078   6.250
 3420POPC   C2B44168  39.692  26.044   6.647
 3420POPC   C3B44169  39.640  26.338   6.933
 3420POPC   C4B44170  39.447  26.591   7.162
 3421POPC   NC344171  20.491  14.881   5.493
 3421POPC   PO444172  20.757  15.434   5.477
 3421POPC   GL144173  20.797  15.176   5.837
 3421POPC   GL244174  20.478  15.200   5.921
 3421POPC   C1A44175  20.792  14.947   6.270
 3421POPC   D2A44176  20.871  15.038   6.744
 3421POPC   C3A44177  20.679  14.820   7.149
 3421POPC   C4A44178  20.400  14.743   7.519
 3421POPC   C1B44179  20.657  15.437   6.288
 3421POPC   C2B44180  20.480  15.436   6.708
 3421POPC   C3B44181  20.647  15.352   7.086
 3421POPC   C4B44182  21.037  15.189   7.249
 3422POPC   NC344183   0.652  43.615   5.367
 3422POPC   PO444184   1.339  43.702   5.426
 3422POPC   GL144185   1.171  43.825   5.821
 3422POPC   GL244186   0.994  44.112   5.842
 3422POPC   C1A44187   1.084  43.659   6.229
 3422POPC   D2A44188   1.123  43.500   6.629
 3422POPC   C3A44189   1.279  43.809   6.930
 3422POPC   C4A44190   1.132  43.683   7.303
 3422POPC   C1B44191   1.242  44.145   6.233
 3422POPC   C2B44192   1.412  44.264   6.646
 3422POPC   C3B44193   1.603  44.201   7.051
 3422POPC   C4B44194   1.331  44.114   7.417
 3423POPC   NC344195   0.466  34.497   5.452
 3423POPC   PO444196   0.483  35.149   5.503
 3423POPC   GL144197   0.485  34.796   5.866
 3423POPC   GL244198   0.527  34.377   5.940
 3423POPC   C1A44199   0.469  34.752   6.303
 3423POPC   D2A44200   0.391  34.456   6.594
 3423POPC   C3A44201   0.432  34.758   6.896
 3423POPC   C4A44202   0.588  34.949   7.240
 3423POPC   C1B44203   0.097  34.453   6.118
 3423POPC   C2B44204  44.888  34.382   6.556
 3423POPC   C3B44205   0.083  34.399   6.997
 3423POPC   C4B44206   0.432  34.475   7.332
 3424POPC   NC344207   7.691  20.126   5.457
 3424POPC   PO444208   7.069  19.743   5.426
 3424POPC   GL144209   7.422  19.806   5.738
 3424POPC   GL244210   7.646  19.562   5.857
 3424POPC   C1A44211   7.384  19.825   6.194
 3424POPC   D2A44212   7.152  19.873   6.537
 3424POPC   C3A44213   7.362  19.917   6.900
 3424POPC   C4A44214   7.159  19.769   7.235
 3424POPC   C1B44215   7.763  19.491   6.264
 3424POPC   C2B44216   7.508  19.481   6.629
 3424POPC   C3B44217   7.601  19.511   7.060
 3424POPC   C4B44218   7.817  19.287   7.314
 3425POPC   NC344219   7.765  39.266   5.372
 3425POPC   PO444220   7.186  39.026   5.564
 3425POPC   GL144221   7.445  39.115   5.877
 3425POPC   GL244222   7.496  39.468   5.798
 3425POPC   C1A44223   7.371  38.967   6.312
 3425POPC   D2A44224   7.497  38.878   6.725
 3425POPC   C3A44225   7.362  39.117   7.051
 3425POPC   C4A44226   7.291  39.012   7.461
 3425POPC   C1B44227   7.238  39.443   6.201
 3425POPC   C2B44228   7.422  39.491   6.606
 3425POPC   C3B44229   7.546  39.602   7.007
 3425POPC   C4B44230   7.335  39.549   7.409
 3426POPC   NC344231   6.817  23.840   5.279
 3426POPC   PO444232   6.330  24.133   5.541
 3426POPC   GL144233   6.465  23.931   5.871
 3426POPC   GL244234   6.484  23.611   5.807
 3426POPC   C1A44235   6.715  23.991   6.222
 3426POPC   D2A44236   6.790  23.744   6.590
 3426POPC   C3A44237   6.571  23.770   6.978
 3426POPC   C4A44238   6.703  23.933   7.385
 3426POPC   C1B44239   6.714  23.440   6.146
 3426POPC   C2B44240   6.643  23.253   6.552
 3426POPC   C3B44241   6.800  23.303   6.998
 3426POPC   C4B44242   6.956  23.474   7.414
 3427POPC   NC344243   6.023  43.695   5.445
 3427POPC   PO444244   5.555  44.184   5.298
 3427POPC   GL144245   5.873  44.146   5.701
 3427POPC   GL244246   5.972  43.803   5.921
 3427POPC   C1A44247   5.996  44.238   6.147
 3427POPC   D2A44248   5.879  43.912   6.445
 3427POPC   C3A44249   5.922  44.013   6.867
 3427POPC   C4A44250   5.910  43.889   7.266
 3427POPC   C1B44251   5.674  43.503   6.072
 3427POPC   C2B44252   5.465  43.488   6.440
 3427POPC   C3B44253   5.585  43.623   6.838
 3427POPC   C4B44254   5.707  43.393   7.186
 3428POPC   NC344255  17.023  22.262   5.392
 3428POPC   PO444256  16.494  21.937   5.585
 3428POPC   GL144257  16.899  21.920   5.784
 3428POPC   GL244258  17.013  22.246   5.908
 3428POPC   C1A44259  16.891  21.830   6.219
 3428POPC   D2A44260  16.729  22.042   6.558
 3428POPC   C3A44261  16.904  22.004   6.946
 3428POPC   C4A44262  16.746  22.163   7.316
 3428POPC   C1B44263  16.643  22.359   6.180
 3428POPC   C2B44264  16.463  22.521   6.594
 3428POPC   C3B44265  16.580  22.560   7.041
 3428POPC   C4B44266  16.845  22.652   7.436
 3429POPC   NC344267  30.992  30.328   5.588
 3429POPC   PO444268  30.738  30.842   5.648
 3429POPC   GL144269  30.752  30.560   5.995
 3429POPC   GL244270  30.527  30.277   5.922
 3429POPC   C1A44271  30.802  30.660   6.426
 3429POPC   D2A44272  31.090  30.799   6.738
 3429POPC   C3A44273  30.847  30.941   7.052
 3429POPC   C4A44274  30.702  31.011   7.457
 3429POPC   C1B44275  30.604  30.180   6.365
 3429POPC   C2B44276  30.481  30.371   6.739
 3429POPC   C3B44277  30.723  30.421   7.091
 3429POPC   C4B44278  30.657  30.507   7.484
 3430POPC   NC344279   8.276  28.138   5.210
 3430POPC   PO444280   7.800  28.561   5.512
 3430POPC   GL144281   8.158  28.404   5.798
 3430POPC   GL244282   8.392  28.086   5.707
 3430POPC   C1A44283   8.154  28.494   6.265
 3430POPC   D2A44284   8.097  28.388   6.693
 3430POPC   C3A44285   8.274  28.607   7.040
 3430POPC   C4A44286   8.076  28.453   7.426
 3430POPC   C1B44287   8.536  28.200   6.125
 3430POPC   C2B44288   8.601  28.335   6.555
 3430POPC   C3B44289   8.508  28.151   6.959
 3430POPC   C4B44290   8.553  28.301   7.371
 3431POPC   NC344291  25.492  39.414   5.621
 3431POPC   PO444292  25.222  39.968   5.335
 3431POPC   GL144293  25.293  39.900   5.796
 3431POPC   GL244294  25.550  40.145   5.851
 3431POPC   C1A44295  25.150  39.765   6.239
 3431POPC   D2A44296  24.862  39.950   6.545
 3431POPC   C3A44297  25.031  39.882   6.972
 3431POPC   C4A44298  25.240  39.956   7.350
 3431POPC   C1B44299  25.644  39.905   6.232
 3431POPC   C2B44300  25.484  39.886   6.669
 3431POPC   C3B44301  25.583  40.158   7.022
 3431POPC   C4B44302  25.651  40.221   7.466
 3432POPC   NC344303   6.491  11.900   5.283
 3432POPC   PO444304   7.132  11.973   5.302
 3432POPC   GL144305   6.908  11.865   5.705
 3432POPC   GL244306   6.586  12.047   5.765
 3432POPC   C1A44307   6.908  11.916   6.173
 3432POPC   D2A44308   6.801  11.733   6.588
 3432POPC   C3A44309   6.715  12.063   6.895
 3432POPC   C4A44310   6.882  12.281   7.263
 3432POPC   C1B44311   6.413  11.842   6.133
 3432POPC   C2B44312   6.304  11.892   6.546
 3432POPC   C3B44313   6.318  11.755   6.950
 3432POPC   C4B44314   6.453  11.995   7.355
 3433POPC   NC344315  19.597  29.748   5.490
 3433POPC   PO444316  20.245  29.600   5.448
 3433POPC   GL144317  19.996  29.820   5.822
 3433POPC   GL244318  19.762  30.125   5.844
 3433POPC   C1A44319  19.920  29.922   6.276
 3433POPC   D2A44320  19.864  29.725   6.692
 3433POPC   C3A44321  19.903  30.014   6.998
 3433POPC   C4A44322  20.120  29.878   7.349
 3433POPC   C1B44323  19.562  30.339   6.244
 3433POPC   C2B44324  19.580  30.407   6.746
 3433POPC   C3B44325  19.470  30.230   7.207
 3433POPC   C4B44326  19.455  30.293   7.706
 3434POPC   NC344327  13.595  28.949   5.115
 3434POPC   PO444328  13.601  28.347   5.406
 3434POPC   GL144329  13.725  28.302   5.823
 3434POPC   GL244330  13.776  28.592   6.054
 3434POPC   C1A44331  13.660  28.112   6.219
 3434POPC   D2A44332  13.733  28.300   6.602
 3434POPC   C3A44333  13.657  28.061   6.979
 3434POPC   C4A44334  13.731  28.199   7.407
 3434POPC   C1B44335  13.321  28.492   6.188
 3434POPC   C2B44336  13.166  28.505   6.628
 3434POPC   C3B44337  13.461  28.522   6.980
 3434POPC   C4B44338  13.514  28.723   7.372
 3435POPC   NC344339  23.069  41.743   5.520
 3435POPC   PO444340  22.654  41.227   5.438
 3435POPC   GL144341  22.866  41.376   5.814
 3435POPC   GL244342  22.747  41.717   5.923
 3435POPC   C1A44343  22.979  41.430   6.272
 3435POPC   D2A44344  23.246  41.464   6.631
 3435POPC   C3A44345  23.042  41.498   7.038
 3435POPC   C4A44346  22.933  41.755   7.424
 3435POPC   C1B44347  22.487  41.346   6.143
 3435POPC   C2B44348  22.639  41.127   6.534
 3435POPC   C3B44349  22.531  41.201   6.951
 3435POPC   C4B44350  22.706  41.289   7.352
 3436POPC   NC344351  37.080  30.756   5.001
 3436POPC   PO444352  36.652  30.457   5.426
 3436POPC   GL144353  36.868  30.731   5.706
 3436POPC   GL244354  37.200  30.826   5.617
 3436POPC   C1A44355  36.792  30.822   6.123
 3436POPC   D2A44356  36.704  31.022   6.538
 3436POPC   C3A44357  36.709  30.707   6.863
 3436POPC   C4A44358  36.835  30.841   7.288
 3436POPC   C1B44359  37.298  30.816   6.047
 3436POPC   C2B44360  37.167  30.778   6.481
 3436POPC   C3B44361  37.170  30.903   6.879
 3436POPC   C4B44362  37.372  30.826   7.231
 3437POPC   NC344363  44.333  37.748   5.471
 3437POPC   PO444364  43.670  37.657   5.510
 3437POPC   GL144365  43.964  37.576   5.817
 3437POPC   GL244366  44.171  37.295   5.725
 3437POPC   C1A44367  43.788  37.600   6.213
 3437POPC   D2A44368  43.743  37.903   6.539
 3437POPC   C3A44369  43.510  37.726   6.874
 3437POPC   C4A44370  43.794  37.813   7.229
 3437POPC   C1B44371  44.260  37.332   6.175
 3437POPC   C2B44372  44.151  37.511   6.546
 3437POPC   C3B44373  43.941  37.439   6.907
 3437POPC   C4B44374  44.120  37.316   7.261
 3438POPC   NC344375   8.851   6.758   5.358
 3438POPC   PO444376   9.234   6.251   5.281
 3438POPC   GL144377   9.182   6.489   5.718
 3438POPC   GL244378   8.868   6.653   5.853
 3438POPC   C1A44379   9.225   6.575   6.211
 3438POPC   D2A44380   9.323   6.279   6.598
 3438POPC   C3A44381   9.129   6.463   6.969
 3438POPC   C4A44382   9.149   6.901   7.144
 3438POPC   C1B44383   8.756   6.793   6.290
 3438POPC   C2B44384   8.797   6.831   6.757
 3438POPC   C3B44385   8.698   6.624   7.185
 3438POPC   C4B44386   8.787   6.191   7.352
 3439POPC   NC344387  14.587  13.229   5.652
 3439POPC   PO444388  14.183  13.677   5.320
 3439POPC   GL144389  14.360  13.686   5.727
 3439POPC   GL244390  14.145  13.414   5.823
 3439POPC   C1A44391  14.593  13.717   6.131
 3439POPC   D2A44392  14.512  13.617   6.563
 3439POPC   C3A44393  14.399  13.906   6.859
 3439POPC   C4A44394  14.501  13.774   7.269
 3439POPC   C1B44395  14.326  13.274   6.229
 3439POPC   C2B44396  14.197  13.189   6.635
 3439POPC   C3B44397  14.454  13.316   6.984
 3439POPC   C4B44398  14.287  13.320   7.372
 3440POPC   NC344399  42.717  14.144   5.420
 3440POPC   PO444400  42.370  13.585   5.348
 3440POPC   GL144401  42.551  13.708   5.768
 3440POPC   GL244402  42.655  14.022   5.952
 3440POPC   C1A44403  42.319  13.693   6.177
 3440POPC   D2A44404  42.153  13.922   6.529
 3440POPC   C3A44405  42.186  13.692   6.914
 3440POPC   C4A44406  42.157  13.426   7.289
 3440POPC   C1B44407  42.809  13.781   6.336
 3440POPC   C2B44408  42.678  13.388   6.575
 3440POPC   C3B44409  42.594  13.365   7.027
 3440POPC   C4B44410  42.553  13.775   7.262
 3441POPC   NC344411  38.082  24.944   5.483
 3441POPC   PO444412  38.247  24.213   5.408
 3441POPC   GL144413  38.435  24.477   5.693
 3441POPC   GL244414  38.147  24.540   5.880
 3441POPC   C1A44415  38.559  24.418   6.124
 3441POPC   D2A44416  38.271  24.417   6.462
 3441POPC   C3A44417  38.487  24.377   6.821
 3441POPC   C4A44418  38.572  24.422   7.244
 3441POPC   C1B44419  38.130  24.078   6.121
 3441POPC   C2B44420  38.122  23.937   6.602
 3441POPC   C3B44421  38.209  24.053   7.083
 3441POPC   C4B44422  38.267  24.030   7.543
 3442POPC   NC344423  38.080   9.777   5.691
 3442POPC   PO444424  38.591   9.588   5.321
 3442POPC   GL144425  38.604   9.699   5.792
 3442POPC   GL244426  38.340   9.571   6.079
 3442POPC   C1A44427  38.788   9.795   6.191
 3442POPC   D2A44428  38.577   9.680   6.578
 3442POPC   C3A44429  38.719   9.802   6.991
 3442POPC   C4A44430  38.411   9.809   7.303
 3442POPC   C1B44431  38.309  10.013   6.243
 3442POPC   C2B44432  38.174  10.227   6.564
 3442POPC   C3B44433  38.254  10.079   6.919
 3442POPC   C4B44434  38.191  10.272   7.292
 3443POPC   NC344435  20.868  43.283   5.423
 3443POPC   PO444436  20.425  42.766   5.332
 3443POPC   GL144437  20.509  42.974   5.756
 3443POPC   GL244438  20.584  43.340   5.835
 3443POPC   C1A44439  20.609  42.947   6.213
 3443POPC   D2A44440  20.646  43.181   6.625
 3443POPC   C3A44441  20.433  42.984   7.003
 3443POPC   C4A44442  20.426  43.056   7.451
 3443POPC   C1B44443  20.288  43.377   6.170
 3443POPC   C2B44444  20.246  43.562   6.574
 3443POPC   C3B44445  20.388  43.495   6.988
 3443POPC   C4B44446  20.736  43.562   7.217
 3444POPC   NC344447  34.194  33.681   5.472
 3444POPC   PO444448  34.647  34.169   5.463
 3444POPC   GL144449  34.524  33.914   5.813
 3444POPC   GL244450  34.204  34.106   5.786
 3444POPC   C1A44451  34.577  33.636   6.218
 3444POPC   D2A44452  34.733  33.792   6.626
 3444POPC   C3A44453  34.638  33.630   7.030
 3444POPC   C4A44454  34.879  33.794   7.359
 3444POPC   C1B44455  34.169  33.948   6.205
 3444POPC   C2B44456  34.236  33.800   6.620
 3444POPC   C3B44457  34.269  34.004   7.001
 3444POPC   C4B44458  34.377  33.908   7.422
 3445POPC   NC344459  36.655  25.830   5.074
 3445POPC   PO444460  36.873  25.317   5.438
 3445POPC   GL144461  36.969  25.269   5.833
 3445POPC   GL244462  37.242  25.059   5.927
 3445POPC   C1A44463  37.050  25.466   6.205
 3445POPC   D2A44464  37.066  25.280   6.559
 3445POPC   C3A44465  37.073  25.525   6.904
 3445POPC   C4A44466  36.896  25.381   7.266
 3445POPC   C1B44467  37.426  24.986   6.325
 3445POPC   C2B44468  37.376  24.903   6.771
 3445POPC   C3B44469  37.342  25.128   7.154
 3445POPC   C4B44470  37.360  24.962   7.577
 3446POPC   NC344471  39.085  12.702   5.175
 3446POPC   PO444472  39.390  13.202   5.497
 3446POPC   GL144473  39.391  12.975   5.848
 3446POPC   GL244474  39.437  12.644   5.719
 3446POPC   C1A44475  39.278  13.069   6.267
 3446POPC   D2A44476  38.912  13.052   6.524
 3446POPC   C3A44477  39.081  13.065   6.917
 3446POPC   C4A44478  39.102  12.956   7.331
 3446POPC   C1B44479  39.438  12.556   6.185
 3446POPC   C2B44480  39.269  12.635   6.632
 3446POPC   C3B44481  39.480  12.726   7.062
 3446POPC   C4B44482  39.410  12.580   7.511
 3447POPC   NC344483   7.764  18.209   5.713
 3447POPC   PO444484   8.254  18.521   5.460
 3447POPC   GL144485   8.399  18.366   5.849
 3447POPC   GL244486   8.482  18.665   5.973
 3447POPC   C1A44487   8.388  18.126   6.231
 3447POPC   D2A44488   8.362  18.302   6.646
 3447POPC   C3A44489   8.077  18.077   6.951
 3447POPC   C4A44490   8.258  18.079   7.365
 3447POPC   C1B44491   8.100  18.565   6.244
 3447POPC   C2B44492   7.912  18.554   6.692
 3447POPC   C3B44493   8.137  18.553   7.089
 3447POPC   C4B44494   8.155  18.557   7.559
 3448POPC   NC344495   4.205  10.982   5.367
 3448POPC   PO444496   4.629  11.411   5.332
 3448POPC   GL144497   4.519  11.248   5.754
 3448POPC   GL244498   4.163  11.213   5.816
 3448POPC   C1A44499   4.423  11.219   6.226
 3448POPC   D2A44500   4.296  11.235   6.605
 3448POPC   C3A44501   4.538  11.166   6.955
 3448POPC   C4A44502   4.311  11.393   7.242
 3448POPC   C1B44503   4.013  10.937   6.205
 3448POPC   C2B44504   3.837  11.005   6.629
 3448POPC   C3B44505   4.063  10.984   6.991
 3448POPC   C4B44506   4.308  10.865   7.322
 3449POPC   NC344507  25.397  34.839   5.465
 3449POPC   PO444508  25.097  34.308   5.088
 3449POPC   GL144509  25.233  34.126   5.682
 3449POPC   GL244510  25.516  34.367   5.788
 3449POPC   C1A44511  25.241  34.194   6.184
 3449POPC   D2A44512  25.185  34.602   6.466
 3449POPC   C3A44513  25.106  34.656   6.922
 3449POPC   C4A44514  24.917  34.466   7.252
 3449POPC   C1B44515  25.614  34.636   6.156
 3449POPC   C2B44516  25.704  34.523   6.584
 3449POPC   C3B44517  25.594  34.779   6.898
 3449POPC   C4B44518  25.468  34.983   7.261
 3450POPC   NC344519  22.965  33.231   5.335
 3450POPC   PO444520  22.959  32.580   5.498
 3450POPC   GL144521  22.928  32.942   5.775
 3450POPC   GL244522  22.719  33.290   5.773
 3450POPC   C1A44523  23.149  32.994   6.176
 3450POPC   D2A44524  23.293  33.042   6.579
 3450POPC   C3A44525  23.137  32.812   6.917
 3450POPC   C4A44526  23.318  32.825   7.321
 3450POPC   C1B44527  22.640  33.056   6.154
 3450POPC   C2B44528  22.774  32.996   6.564
 3450POPC   C3B44529  22.741  33.127   6.963
 3450POPC   C4B44530  22.844  32.972   7.325
 3451POPC   NC344531  43.485  37.229   5.579
 3451POPC   PO444532  43.615  36.742   5.108
 3451POPC   GL144533  43.842  36.867   5.614
 3451POPC   GL244534  43.750  36.565   5.832
 3451POPC   C1A44535  44.132  36.851   6.018
 3451POPC   D2A44536  44.204  36.731   6.479
 3451POPC   C3A44537  44.289  37.029   6.817
 3451POPC   C4A44538  44.237  36.823   7.233
 3451POPC   C1B44539  43.683  36.780   6.241
 3451POPC   C2B44540  43.839  37.090   6.533
 3451POPC   C3B44541  43.811  36.923   6.954
 3451POPC   C4B44542  43.577  36.547   7.076
 3452POPC   NC344543   2.159   8.470   5.563
 3452POPC   PO444544   1.630   7.896   5.513
 3452POPC   GL144545   1.836   7.973   5.922
 3452POPC   GL244546   1.921   8.314   5.965
 3452POPC   C1A44547   2.103   7.976   6.332
 3452POPC   D2A44548   2.033   8.166   6.689
 3452POPC   C3A44549   2.259   8.171   7.034
 3452POPC   C4A44550   2.138   8.277   7.443
 3452POPC   C1B44551   1.747   8.647   6.190
 3452POPC   C2B44552   1.784   8.609   6.619
 3452POPC   C3B44553   1.683   8.748   7.009
 3452POPC   C4B44554   1.749   8.651   7.417
 3453POPC   NC344555   6.587  28.178   4.944
 3453POPC   PO444556   6.433  28.657   5.418
 3453POPC   GL144557   6.528  28.387   5.765
 3453POPC   GL244558   6.741  28.651   5.904
 3453POPC   C1A44559   6.657  28.152   6.149
 3453POPC   D2A44560   6.667  28.311   6.553
 3453POPC   C3A44561   6.789  28.083   6.900
 3453POPC   C4A44562   6.529  27.984   7.212
 3453POPC   C1B44563   6.697  28.783   6.325
 3453POPC   C2B44564   6.633  28.770   6.764
 3453POPC   C3B44565   6.804  28.554   7.093
 3453POPC   C4B44566   6.998  28.246   7.324
 3454POPC   NC344567  38.764  17.386   5.372
 3454POPC   PO444568  38.324  17.883   5.320
 3454POPC   GL144569  38.502  17.682   5.708
 3454POPC   GL244570  38.465  17.317   5.813
 3454POPC   C1A44571  38.765  17.643   6.093
 3454POPC   D2A44572  38.676  17.761   6.517
 3454POPC   C3A44573  38.770  17.542   6.895
 3454POPC   C4A44574  38.611  17.609   7.290
 3454POPC   C1B44575  38.321  17.388   6.240
 3454POPC   C2B44576  38.307  17.314   6.668
 3454POPC   C3B44577  38.409  17.207   7.057
 3454POPC   C4B44578  38.163  17.237   7.417
 3455POPC   NC344579  19.564  16.169   5.387
 3455POPC   PO444580  19.865  15.545   5.429
 3455POPC   GL144581  19.886  15.933   5.722
 3455POPC   GL244582  20.200  16.053   5.767
 3455POPC   C1A44583  19.867  16.011   6.203
 3455POPC   D2A44584  19.979  15.762   6.610
 3455POPC   C3A44585  19.738  15.780   7.010
 3455POPC   C4A44586  19.735  16.073   7.346
 3455POPC   C1B44587  20.251  16.343   6.130
 3455POPC   C2B44588  20.155  16.387   6.573
 3455POPC   C3B44589  20.110  16.168   6.970
 3455POPC   C4B44590  20.248  16.129   7.399
 3456POPC   NC344591  22.870  35.034   5.628
 3456POPC   PO444592  22.624  34.413   5.522
 3456POPC   GL144593  22.697  34.646   5.885
 3456POPC   GL244594  23.053  34.638   5.913
 3456POPC   C1A44595  22.658  34.928   6.275
 3456POPC   D2A44596  22.715  34.918   6.727
 3456POPC   C3A44597  23.024  34.576   6.868
 3456POPC   C4A44598  23.120  34.252   7.226
 3456POPC   C1B44599  23.169  34.988   6.184
 3456POPC   C2B44600  23.208  34.993   6.578
 3456POPC   C3B44601  23.184  35.055   6.984
 3456POPC   C4B44602  23.145  34.774   7.320
 3457POPC   NC344603  20.064  22.129   5.264
 3457POPC   PO444604  19.614  21.690   5.558
 3457POPC   GL144605  19.756  22.070   5.729
 3457POPC   GL244606  19.497  22.322   5.643
 3457POPC   C1A44607  19.850  21.984   6.163
 3457POPC   D2A44608  19.700  21.746   6.527
 3457POPC   C3A44609  19.850  21.906   6.904
 3457POPC   C4A44610  19.756  22.090   7.292
 3457POPC   C1B44611  19.646  22.448   6.070
 3457POPC   C2B44612  19.954  22.420   6.421
 3457POPC   C3B44613  19.867  22.427   6.863
 3457POPC   C4B44614  19.888  22.577   7.264
 3458POPC   NC344615  40.289  34.230   4.954
 3458POPC   PO444616  39.835  33.869   5.267
 3458POPC   GL144617  39.729  33.798   5.703
 3458POPC   GL244618  40.065  33.855   5.757
 3458POPC   C1A44619  39.776  33.887   6.165
 3458POPC   D2A44620  39.816  33.640   6.537
 3458POPC   C3A44621  39.686  33.801   6.911
 3458POPC   C4A44622  39.911  33.716   7.276
 3458POPC   C1B44623  40.274  34.041   6.135
 3458POPC   C2B44624  40.117  34.058   6.569
 3458POPC   C3B44625  40.272  33.922   6.970
 3458POPC   C4B44626  40.217  34.172   7.312
 3459POPC   NC344627   9.367  28.515   5.507
 3459POPC   PO444628  10.056  28.674   5.485
 3459POPC   GL144629   9.775  28.703   5.811
 3459POPC   GL244630   9.747  28.363   5.837
 3459POPC   C1A44631   9.913  28.663   6.256
 3459POPC   D2A44632   9.913  28.363   6.600
 3459POPC   C3A44633  10.078  28.446   6.994
 3459POPC   C4A44634   9.778  28.483   7.325
 3459POPC   C1B44635   9.589  28.232   6.189
 3459POPC   C2B44636   9.449  28.064   6.545
 3459POPC   C3B44637   9.530  28.242   6.921
 3459POPC   C4B44638   9.476  28.068   7.279
 3460POPC   NC344639  30.302  40.542   5.461
 3460POPC   PO444640  30.700  39.966   5.521
 3460POPC   GL144641  30.722  39.756   5.905
 3460POPC   GL244642  30.975  39.465   5.886
 3460POPC   C1A44643  30.588  39.874   6.293
 3460POPC   D2A44644  30.452  40.015   6.647
 3460POPC   C3A44645  30.667  40.045   7.043
 3460POPC   C4A44646  30.702  40.073   7.470
 3460POPC   C1B44647  31.039  39.646   6.295
 3460POPC   C2B44648  30.869  39.687   6.726
 3460POPC   C3B44649  31.087  39.662   7.155
 3460POPC   C4B44650  30.998  39.680   7.628
 3461POPC   NC344651  12.201   6.004   5.560
 3461POPC   PO444652  11.561   5.772   5.390
 3461POPC   GL144653  11.801   5.771   5.785
 3461POPC   GL244654  12.066   5.552   5.829
 3461POPC   C1A44655  11.913   6.064   6.125
 3461POPC   D2A44656  11.790   6.195   6.526
 3461POPC   C3A44657  11.916   5.974   6.875
 3461POPC   C4A44658  11.937   5.879   7.297
 3461POPC   C1B44659  12.263   5.697   6.219
 3461POPC   C2B44660  12.212   5.593   6.668
 3461POPC   C3B44661  12.392   5.698   7.119
 3461POPC   C4B44662  12.754   5.740   7.446
 3462POPC   NC344663  30.895  19.861   5.483
 3462POPC   PO444664  30.249  20.188   5.437
 3462POPC   GL144665  30.545  20.108   5.768
 3462POPC   GL244666  30.587  19.754   5.865
 3462POPC   C1A44667  30.665  20.107   6.224
 3462POPC   D2A44668  30.464  20.030   6.638
 3462POPC   C3A44669  30.767  20.097   6.986
 3462POPC   C4A44670  31.020  19.792   7.243
 3462POPC   C1B44671  30.514  19.596   6.295
 3462POPC   C2B44672  30.563  19.453   6.719
 3462POPC   C3B44673  30.437  19.698   7.105
 3462POPC   C4B44674  30.268  19.971   7.452
 3463POPC   NC344675  42.729  11.102   5.274
 3463POPC   PO444676  43.233  11.530   5.464
 3463POPC   GL144677  43.008  11.335   5.824
 3463POPC   GL244678  43.250  11.126   5.891
 3463POPC   C1A44679  43.020  11.313   6.293
 3463POPC   D2A44680  43.244  11.169   6.636
 3463POPC   C3A44681  43.390  11.446   6.973
 3463POPC   C4A44682  43.371  11.317   7.401
 3463POPC   C1B44683  42.904  10.865   6.047
 3463POPC   C2B44684  42.832  10.842   6.504
 3463POPC   C3B44685  42.996  10.795   6.908
 3463POPC   C4B44686  42.920  11.077   7.256
 3464POPC   NC344687  12.533   5.068   5.448
 3464POPC   PO444688  13.159   4.972   5.390
 3464POPC   GL144689  12.951   5.101   5.789
 3464POPC   GL244690  12.649   5.364   5.857
 3464POPC   C1A44691  12.901   4.920   6.203
 3464POPC   D2A44692  12.865   5.020   6.627
 3464POPC   C3A44693  12.870   4.817   6.998
 3464POPC   C4A44694  13.209   4.939   7.273
 3464POPC   C1B44695  12.640   5.366   6.320
 3464POPC   C2B44696  12.678   5.459   6.758
 3464POPC   C3B44697  12.825   5.309   7.136
 3464POPC   C4B44698  12.603   5.273   7.495
 3465POPC   NC344699  35.201  23.837   5.598
 3465POPC   PO444700  35.691  23.469   5.379
 3465POPC   GL144701  35.642  23.627   5.787
 3465POPC   GL244702  35.339  23.424   5.903
 3465POPC   C1A44703  35.695  23.610   6.220
 3465POPC   D2A44704  35.449  23.490   6.568
 3465POPC   C3A44705  35.598  23.645   6.937
 3465POPC   C4A44706  35.285  23.603   7.238
 3465POPC   C1B44707  35.187  23.743   6.212
 3465POPC   C2B44708  34.985  23.928   6.537
 3465POPC   C3B44709  35.182  23.954   6.883
 3465POPC   C4B44710  35.038  24.045   7.287
 3466POPC   NC344711  38.922  25.064   5.449
 3466POPC   PO444712  39.419  25.468   5.262
 3466POPC   GL144713  39.350  25.219   5.721
 3466POPC   GL244714  39.044  25.242   5.915
 3466POPC   C1A44715  39.448  24.957   6.114
 3466POPC   D2A44716  39.696  24.953   6.542
 3466POPC   C3A44717  39.472  24.926   6.970
 3466POPC   C4A44718  39.316  25.196   7.314
 3466POPC   C1B44719  38.911  25.128   6.334
 3466POPC   C2B44720  38.991  25.080   6.817
 3466POPC   C3B44721  38.830  25.306   7.216
 3466POPC   C4B44722  39.012  25.487   7.604
 3467POPC   NC344723  44.226  29.095   5.398
 3467POPC   PO444724  43.449  29.093   5.377
 3467POPC   GL144725  43.677  29.067   5.785
 3467POPC   GL244726  43.921  29.331   5.798
 3467POPC   C1A44727  43.904  29.019   6.197
 3467POPC   D2A44728  43.666  29.068   6.568
 3467POPC   C3A44729  43.851  29.059   6.967
 3467POPC   C4A44730  43.696  29.060   7.375
 3467POPC   C1B44731  44.043  29.522   6.196
 3467POPC   C2B44732  44.117  29.335   6.596
 3467POPC   C3B44733  43.980  29.543   6.975
 3467POPC   C4B44734  44.221  29.550   7.297
 3468POPC   NC344735  25.130  17.941   5.660
 3468POPC   PO444736  25.416  18.368   5.122
 3468POPC   GL144737  25.417  18.425   5.606
 3468POPC   GL244738  25.108  18.580   5.801
 3468POPC   C1A44739  25.547  18.500   6.049
 3468POPC   D2A44740  25.478  18.225   6.394
 3468POPC   C3A44741  25.573  18.331   6.811
 3468POPC   C4A44742  25.275  18.259   7.152
 3468POPC   C1B44743  25.092  18.585   6.290
 3468POPC   C2B44744  24.817  18.632   6.669
 3468POPC   C3B44745  24.851  18.582   7.155
 3468POPC   C4B44746  25.141  18.641   7.499
 3469POPC   NC344747  18.642  42.360   5.380
 3469POPC   PO444748  18.006  42.036   5.370
 3469POPC   GL144749  18.040  42.259   5.795
 3469POPC   GL244750  18.264  42.548   5.724
 3469POPC   C1A44751  18.163  42.378   6.253
 3469POPC   D2A44752  18.425  42.286   6.628
 3469POPC   C3A44753  18.235  42.276   7.013
 3469POPC   C4A44754  17.897  42.234   7.294
 3469POPC   C1B44755  18.485  42.742   6.084
 3469POPC   C2B44756  18.394  42.818   6.539
 3469POPC   C3B44757  18.466  42.729   7.000
 3469POPC   C4B44758  18.660  42.803   7.403
 3470POPC   NC344759  33.235  40.808   5.343
 3470POPC   PO444760  32.855  41.235   5.503
 3470POPC   GL144761  33.032  40.821   5.807
 3470POPC   GL244762  33.399  40.852   5.869
 3470POPC   C1A44763  33.200  40.539   6.214
 3470POPC   D2A44764  33.247  40.719   6.663
 3470POPC   C3A44765  32.957  40.627   6.989
 3470POPC   C4A44766  33.014  40.651   7.412
 3470POPC   C1B44767  33.148  41.042   6.276
 3470POPC   C2B44768  32.834  41.051   6.686
 3470POPC   C3B44769  32.807  41.159   7.161
 3470POPC   C4B44770  32.604  41.389   7.551
 3471POPC   NC344771   0.957   6.817   5.370
 3471POPC   PO444772   0.258   6.835   5.319
 3471POPC   GL144773   0.461   6.726   5.772
 3471POPC   GL244774   0.265   6.441   5.900
 3471POPC   C1A44775   0.377   6.760   6.267
 3471POPC   D2A44776   0.571   6.625   6.690
 3471POPC   C3A44777   0.371   6.688   7.099
 3471POPC   C4A44778   0.439   6.936   7.477
 3471POPC   C1B44779   0.131   6.276   6.315
 3471POPC   C2B44780   0.106   6.360   6.758
 3471POPC   C3B44781  44.986   6.377   7.173
 3471POPC   C4B44782   0.262   6.311   7.535
 3472POPC   NC344783  25.502  29.613   5.132
 3472POPC   PO444784  25.050  29.988   5.425
 3472POPC   GL144785  25.226  30.032   5.854
 3472POPC   GL244786  25.560  29.939   5.860
 3472POPC   C1A44787  25.283  30.167   6.275
 3472POPC   D2A44788  25.160  29.963   6.645
 3472POPC   C3A44789  25.396  30.033   7.003
 3472POPC   C4A44790  25.143  29.886   7.338
 3472POPC   C1B44791  25.493  29.682   6.250
 3472POPC   C2B44792  25.597  29.634   6.706
 3472POPC   C3B44793  25.419  29.535   7.111
 3472POPC   C4B44794  25.534  29.631   7.584
 3473POPC   NC344795  32.088  36.421   5.256
 3473POPC   PO444796  32.365  35.802   5.397
 3473POPC   GL144797  32.188  36.054   5.745
 3473POPC   GL244798  32.269  36.436   5.737
 3473POPC   C1A44799  32.046  35.934   6.169
 3473POPC   D2A44800  32.290  35.806   6.544
 3473POPC   C3A44801  32.130  35.910   6.958
 3473POPC   C4A44802  31.823  36.154   7.163
 3473POPC   C1B44803  32.129  36.468   6.150
 3473POPC   C2B44804  32.070  36.289   6.550
 3473POPC   C3B44805  32.297  36.376   6.881
 3473POPC   C4B44806  32.238  36.499   7.288
 3474POPC   NC344807  42.092  34.823   5.599
 3474POPC   PO444808  41.944  34.174   5.575
 3474POPC   GL144809  42.263  34.396   5.824
 3474POPC   GL244810  42.520  34.663   5.888
 3474POPC   C1A44811  42.141  34.579   6.236
 3474POPC   D2A44812  42.272  34.513   6.646
 3474POPC   C3A44813  42.074  34.596   7.040
 3474POPC   C4A44814  42.122  34.810   7.442
 3474POPC   C1B44815  42.641  34.437   6.267
 3474POPC   C2B44816  42.772  34.549   6.696
 3474POPC   C3B44817  42.591  34.714   7.076
 3474POPC   C4B44818  42.423  34.419   7.383
 3475POPC   NC344819  14.837   4.581   5.181
 3475POPC   PO444820  14.502   4.077   5.466
 3475POPC   GL144821  14.505   4.302   5.862
 3475POPC   GL244822  14.523   4.649   5.913
 3475POPC   C1A44823  14.440   4.208   6.303
 3475POPC   D2A44824  14.120   4.191   6.592
 3475POPC   C3A44825  14.248   4.056   6.965
 3475POPC   C4A44826  14.609   4.224   7.169
 3475POPC   C1B44827  14.112   4.544   6.136
 3475POPC   C2B44828  13.760   4.526   6.430
 3475POPC   C3B44829  13.895   4.558   6.872
 3475POPC   C4B44830  14.143   4.464   7.237
 3476POPC   NC344831  38.347  15.492   5.113
 3476POPC   PO444832  38.556  15.991   5.488
 3476POPC   GL144833  38.641  15.965   5.858
 3476POPC   GL244834  38.823  15.669   5.862
 3476POPC   C1A44835  38.525  16.119   6.231
 3476POPC   D2A44836  38.432  15.876   6.599
 3476POPC   C3A44837  38.509  16.046   6.979
 3476POPC   C4A44838  38.361  16.009   7.389
 3476POPC   C1B44839  38.601  15.554   6.215
 3476POPC   C2B44840  38.759  15.466   6.592
 3476POPC   C3B44841  38.613  15.489   6.979
 3476POPC   C4B44842  38.747  15.716   7.298
 3477POPC   NC344843   9.152  26.760   5.415
 3477POPC   PO444844   9.812  26.973   5.419
 3477POPC   GL144845   9.722  26.944   5.859
 3477POPC   GL244846   9.349  26.929   5.868
 3477POPC   C1A44847   9.903  26.879   6.298
 3477POPC   D2A44848   9.956  26.607   6.683
 3477POPC   C3A44849   9.872  26.771   7.104
 3477POPC   C4A44850  10.001  26.707   7.537
 3477POPC   C1B44851   9.436  27.179   6.253
 3477POPC   C2B44852   9.571  27.237   6.685
 3477POPC   C3B44853   9.442  27.172   7.130
 3477POPC   C4B44854   9.446  26.792   7.405
 3478POPC   NC344855  16.782  10.993   5.198
 3478POPC   PO444856  16.775  10.405   5.585
 3478POPC   GL144857  16.705  10.500   6.019
 3478POPC   GL244858  17.022  10.471   6.048
 3478POPC   C1A44859  16.750  10.596   6.473
 3478POPC   D2A44860  17.035  10.376   6.759
 3478POPC   C3A44861  16.789  10.301   7.125
 3478POPC   C4A44862  16.637  10.739   7.213
 3478POPC   C1B44863  17.154  10.826   6.285
 3478POPC   C2B44864  17.092  11.025   6.685
 3478POPC   C3B44865  17.175  10.857   7.086
 3478POPC   C4B44866  17.230  10.458   7.316
 3479POPC   NC344867  41.195  28.680   5.476
 3479POPC   PO444868  40.587  28.377   5.366
 3479POPC   GL144869  40.666  28.332   5.781
 3479POPC   GL244870  40.990  28.466   5.902
 3479POPC   C1A44871  40.502  28.420   6.169
 3479POPC   D2A44872  40.667  28.570   6.556
 3479POPC   C3A44873  40.495  28.383   6.916
 3479POPC   C4A44874  40.601  28.569   7.297
 3479POPC   C1B44875  40.990  28.257   6.293
 3479POPC   C2B44876  40.944  28.176   6.742
 3479POPC   C3B44877  41.017  28.309   7.162
 3479POPC   C4B44878  40.948  28.341   7.621
 3480POPC   NC344879  34.980  38.332   5.563
 3480POPC   PO444880  34.370  38.323   5.344
 3480POPC   GL144881  34.497  38.467   5.795
 3480POPC   GL244882  34.178  38.648   5.905
 3480POPC   C1A44883  34.694  38.297   6.220
 3480POPC   D2A44884  34.987  38.260   6.578
 3480POPC   C3A44885  34.841  38.163   6.973
 3480POPC   C4A44886  34.694  38.397   7.272
 3480POPC   C1B44887  34.498  38.770   6.226
 3480POPC   C2B44888  34.645  38.681   6.630
 3480POPC   C3B44889  34.386  38.445   6.885
 3480POPC   C4B44890  34.197  38.502   7.292
 3481POPC   NC344891  27.054  43.414   5.426
 3481POPC   PO444892  26.763  42.887   5.580
 3481POPC   GL144893  26.856  42.925   5.988
 3481POPC   GL244894  27.092  43.163   5.903
 3481POPC   C1A44895  26.556  42.857   6.349
 3481POPC   D2A44896  26.559  42.645   6.762
 3481POPC   C3A44897  26.531  42.924   7.073
 3481POPC   C4A44898  26.888  43.131   7.108
 3481POPC   C1B44899  27.134  43.273   6.328
 3481POPC   C2B44900  26.964  43.602   6.615
 3481POPC   C3B44901  26.949  43.635   7.073
 3481POPC   C4B44902  27.287  43.367   7.261
 3482POPC   NC344903  29.623  16.782   5.405
 3482POPC   PO444904  30.186  17.200   5.474
 3482POPC   GL144905  29.878  17.067   5.761
 3482POPC   GL244906  29.907  16.701   5.825
 3482POPC   C1A44907  29.674  17.046   6.157
 3482POPC   D2A44908  29.752  16.744   6.498
 3482POPC   C3A44909  29.986  16.918   6.829
 3482POPC   C4A44910  29.862  17.054   7.241
 3482POPC   C1B44911  29.706  16.397   6.125
 3482POPC   C2B44912  29.654  16.213   6.581
 3482POPC   C3B44913  29.807  16.288   7.018
 3482POPC   C4B44914  30.052  16.583   7.215
 3483POPC   NC344915  37.739  36.465   5.461
 3483POPC   PO444916  37.910  35.808   5.301
 3483POPC   GL144917  37.610  35.892   5.691
 3483POPC   GL244918  37.477  36.243   5.821
 3483POPC   C1A44919  37.715  35.923   6.160
 3483POPC   D2A44920  38.072  35.864   6.477
 3483POPC   C3A44921  38.028  36.036   6.900
 3483POPC   C4A44922  37.942  36.063   7.348
 3483POPC   C1B44923  37.378  36.369   6.233
 3483POPC   C2B44924  37.482  36.155   6.622
 3483POPC   C3B44925  37.584  36.274   7.027
 3483POPC   C4B44926  37.598  36.466   7.428
 3484POPC   NC344927  38.887  27.313   5.584
 3484POPC   PO444928  38.423  27.686   5.249
 3484POPC   GL144929  38.615  27.771   5.674
 3484POPC   GL244930  38.281  27.829   5.780
 3484POPC   C1A44931  38.689  27.605   6.128
 3484POPC   D2A44932  38.564  27.330   6.462
 3484POPC   C3A44933  38.461  27.425   6.884
 3484POPC   C4A44934  38.749  27.667   7.124
 3484POPC   C1B44935  38.146  27.708   6.178
 3484POPC   C2B44936  38.233  27.762   6.592
 3484POPC   C3B44937  38.308  27.889   7.024
 3484POPC   C4B44938  38.041  27.967   7.358
 3485POPC   NC344939  42.999   4.528   5.465
 3485POPC   PO444940  43.377   3.988   5.391
 3485POPC   GL144941  43.214   4.139   5.797
 3485POPC   GL244942  43.238   4.502   5.899
 3485POPC   C1A44943  43.072   4.126   6.230
 3485POPC   D2A44944  42.816   4.011   6.582
 3485POPC   C3A44945  43.099   4.015   6.864
 3485POPC   C4A44946  43.234   3.985   7.273
 3485POPC   C1B44947  43.087   4.631   6.285
 3485POPC   C2B44948  42.913   4.503   6.675
 3485POPC   C3B44949  43.065   4.462   7.096
 3485POPC   C4B44950  42.904   4.623   7.424
 3486POPC   NC344951   5.429  33.738   5.385
 3486POPC   PO444952   4.767  34.028   5.424
 3486POPC   GL144953   4.941  33.864   5.812
 3486POPC   GL244954   5.249  33.665   5.862
 3486POPC   C1A44955   4.967  33.965   6.259
 3486POPC   D2A44956   5.121  33.827   6.681
 3486POPC   C3A44957   5.062  33.964   7.123
 3486POPC   C4A44958   4.873  33.843   7.531
 3486POPC   C1B44959   5.480  33.370   6.152
 3486POPC   C2B44960   5.447  33.429   6.621
 3486POPC   C3B44961   5.415  33.558   7.055
 3486POPC   C4B44962   5.250  33.489   7.487
 3487POPC   NC344963  11.401  19.606   5.345
 3487POPC   PO444964  11.115  20.207   5.521
 3487POPC   GL144965  11.116  19.861   5.787
 3487POPC   GL244966  11.436  19.695   5.832
 3487POPC   C1A44967  11.044  19.781   6.216
 3487POPC   D2A44968  11.103  19.622   6.638
 3487POPC   C3A44969  11.133  19.858   6.996
 3487POPC   C4A44970  11.222  19.736   7.385
 3487POPC   C1B44971  11.557  19.623   6.234
 3487POPC   C2B44972  11.589  19.396   6.592
 3487POPC   C3B44973  11.492  19.505   7.007
 3487POPC   C4B44974  11.570  19.351   7.439
 3488POPC   NC344975  10.157  21.184   5.487
 3488POPC   PO444976   9.603  21.475   5.481
 3488POPC   GL144977   9.623  21.266   5.882
 3488POPC   GL244978   9.982  21.385   5.932
 3488POPC   C1A44979   9.365  21.223   6.277
 3488POPC   D2A44980   9.401  21.129   6.741
 3488POPC   C3A44981   9.838  21.130   6.919
 3488POPC   C4A44982  10.033  21.198   7.337
 3488POPC   C1B44983   9.988  21.375   6.383
 3488POPC   C2B44984  10.066  21.582   6.766
 3488POPC   C3B44985   9.855  21.640   7.138
 3488POPC   C4B44986   9.692  21.926   7.426
 3489POPC   NC344987   8.228   1.488   5.402
 3489POPC   PO444988   8.093   2.163   5.415
 3489POPC   GL144989   8.420   2.088   5.749
 3489POPC   GL244990   8.396   1.705   5.833
 3489POPC   C1A44991   8.515   2.307   6.158
 3489POPC   D2A44992   8.237   2.279   6.547
 3489POPC   C3A44993   8.382   2.225   6.993
 3489POPC   C4A44994   7.952   2.102   7.171
 3489POPC   C1B44995   8.302   1.860   6.243
 3489POPC   C2B44996   8.502   1.850   6.644
 3489POPC   C3B44997   8.311   1.721   7.052
 3489POPC   C4B44998   8.560   1.863   7.383
 3490POPC   NC344999   4.036  40.622   5.288
 3490POPC   PO445000   4.372  41.209   5.395
 3490POPC   GL145001   4.212  40.893   5.705
 3490POPC   GL245002   4.477  40.632   5.704
 3490POPC   C1A45003   4.094  40.785   6.156
 3490POPC   D2A45004   3.959  40.905   6.584
 3490POPC   C3A45005   4.068  40.698   6.964
 3490POPC   C4A45006   4.176  40.863   7.353
 3490POPC   C1B45007   4.591  40.897   6.073
 3490POPC   C2B45008   4.695  40.887   6.514
 3490POPC   C3B45009   4.569  40.867   6.942
 3490POPC   C4B45010   4.564  40.492   7.163
 3491POPC   NC345011  15.563  15.359   5.338
 3491POPC   PO445012  15.324  14.784   5.152
 3491POPC   GL145013  15.248  14.944   5.598
 3491POPC   GL245014  15.476  14.847   5.840
 3491POPC   C1A45015  15.122  15.213   6.002
 3491POPC   D2A45016  15.279  15.376   6.442
 3491POPC   C3A45017  15.066  15.247   6.865
 3491POPC   C4A45018  15.144  15.421   7.292
 3491POPC   C1B45019  15.404  14.883   6.282
 3491POPC   C2B45020  15.374  14.856   6.725
 3491POPC   C3B45021  15.472  15.043   7.143
 3491POPC   C4B45022  15.398  15.115   7.596
 3492POPC   NC345023  25.189   3.451   5.245
 3492POPC   PO445024  25.296   4.109   5.448
 3492POPC   GL145025  25.432   3.823   5.838
 3492POPC   GL245026  25.201   3.599   5.779
 3492POPC   C1A45027  25.537   3.531   6.172
 3492POPC   D2A45028  25.258   3.324   6.441
 3492POPC   C3A45029  25.276   3.534   6.822
 3492POPC   C4A45030  25.257   3.468   7.224
 3492POPC   C1B45031  25.057   3.768   6.191
 3492POPC   C2B45032  25.043   3.936   6.611
 3492POPC   C3B45033  24.846   3.804   7.044
 3492POPC   C4B45034  24.853   3.639   7.483
 3493POPC   NC345035   1.687   0.870   5.512
 3493POPC   PO445036   2.047   0.194   5.474
 3493POPC   GL145037   1.999   0.537   5.765
 3493POPC   GL245038   1.630   0.510   5.876
 3493POPC   C1A45039   2.187   0.630   6.153
 3493POPC   D2A45040   2.114   0.398   6.560
 3493POPC   C3A45041   2.250   0.550   6.929
 3493POPC   C4A45042   2.113   0.802   7.224
 3493POPC   C1B45043   1.699   0.633   6.320
 3493POPC   C2B45044   1.664   0.884   6.705
 3493POPC   C3B45045   1.609   0.662   7.079
 3493POPC   C4B45046   1.849   0.352   7.199
 3494POPC   NC345047  29.802  20.289   5.585
 3494POPC   PO445048  30.143  20.853   5.724
 3494POPC   GL145049  29.915  20.616   5.997
 3494POPC   GL245050  29.586  20.726   5.933
 3494POPC   C1A45051  29.896  20.587   6.443
 3494POPC   D2A45052  30.203  20.491   6.756
 3494POPC   C3A45053  30.161  20.800   7.073
 3494POPC   C4A45054  29.800  20.995   7.246
 3494POPC   C1B45055  29.490  20.376   6.202
 3494POPC   C2B45056  29.468  20.266   6.638
 3494POPC   C3B45057  29.658  20.416   7.014
 3494POPC   C4B45058  29.789  20.452   7.448
 3495POPC   NC345059  11.391  11.539   5.509
 3495POPC   PO445060  10.885  11.163   5.413
 3495POPC   GL145061  11.199  11.151   5.767
 3495POPC   GL245062  11.193  11.473   5.977
 3495POPC   C1A45063  11.318  11.018   6.163
 3495POPC   D2A45064  11.182  11.262   6.502
 3495POPC   C3A45065  11.338  11.127   6.861
 3495POPC   C4A45066  11.185  10.977   7.233
 3495POPC   C1B45067  11.242  11.762   6.329
 3495POPC   C2B45068  11.200  11.720   6.763
 3495POPC   C3B45069  11.431  11.736   7.111
 3495POPC   C4B45070  11.306  11.483   7.410
 3496POPC   NC345071  21.121  12.082   5.322
 3496POPC   PO445072  20.546  12.061   5.433
 3496POPC   GL145073  20.590  11.958   5.859
 3496POPC   GL245074  20.294  11.804   5.893
 3496POPC   C1A45075  20.581  11.898   6.314
 3496POPC   D2A45076  20.528  12.000   6.755
 3496POPC   C3A45077  20.915  11.967   6.990
 3496POPC   C4A45078  21.094  12.324   7.239
 3496POPC   C1B45079  20.124  12.155   6.171
 3496POPC   C2B45080  20.023  12.301   6.607
 3496POPC   C3B45081  20.202  12.377   7.045
 3496POPC   C4B45082  20.523  12.124   7.257
 3497POPC   NC345083   4.394  32.684   4.973
 3497POPC   PO445084   4.162  33.226   5.310
 3497POPC   GL145085   4.061  33.077   5.748
 3497POPC   GL245086   4.365  33.176   5.880
 3497POPC   C1A45087   4.045  32.977   6.201
 3497POPC   D2A45088   4.031  33.224   6.574
 3497POPC   C3A45089   4.252  33.024   6.878
 3497POPC   C4A45090   4.416  33.200   7.215
 3497POPC   C1B45091   4.511  33.194   6.311
 3497POPC   C2B45092   4.691  32.917   6.587
 3497POPC   C3B45093   4.680  32.697   6.929
 3497POPC   C4B45094   4.795  32.899   7.268
 3498POPC   NC345095  27.769  10.103   5.462
 3498POPC   PO445096  27.731   9.478   5.595
 3498POPC   GL145097  27.584   9.831   5.871
 3498POPC   GL245098  27.306  10.040   5.762
 3498POPC   C1A45099  27.453   9.745   6.280
 3498POPC   D2A45100  27.554   9.762   6.685
 3498POPC   C3A45101  27.412   9.513   7.037
 3498POPC   C4A45102  27.540   9.645   7.407
 3498POPC   C1B45103  27.260  10.228   6.188
 3498POPC   C2B45104  27.179  10.103   6.628
 3498POPC   C3B45105  27.379  10.048   7.056
 3498POPC   C4B45106  27.139  10.011   7.427
 3499POPC   NC345107  39.254   0.859   5.384
 3499POPC   PO445108  38.993   1.479   5.496
 3499POPC   GL145109  39.029   1.139   5.778
 3499POPC   GL245110  39.375   1.188   5.894
 3499POPC   C1A45111  38.986   1.128   6.225
 3499POPC   D2A45112  39.285   1.376   6.474
 3499POPC   C3A45113  39.230   1.362   6.911
 3499POPC   C4A45114  39.382   1.635   7.227
 3499POPC   C1B45115  39.456   0.949   6.277
 3499POPC   C2B45116  39.163   0.879   6.666
 3499POPC   C3B45117  39.008   0.941   7.110
 3499POPC   C4B45118  39.208   0.983   7.557
 3500POPC   NC345119   5.747   2.644   5.400
 3500POPC   PO445120   6.101   3.238   5.483
 3500POPC   GL145121   6.076   2.852   5.771
 3500POPC   GL245122   6.228   2.543   5.918
 3500POPC   C1A45123   5.772   2.734   6.107
 3500POPC   D2A45124   5.607   2.823   6.555
 3500POPC   C3A45125   5.672   2.593   6.955
 3500POPC   C4A45126   5.776   2.905   7.295
 3500POPC   C1B45127   6.223   2.638   6.342
 3500POPC   C2B45128   6.136   2.574   6.749
 3500POPC   C3B45129   6.129   2.544   7.189
 3500POPC   C4B45130   6.199   2.713   7.601
 3501POPC   NC345131  41.936  14.214   5.371
 3501POPC   PO445132  41.376  14.619   5.361
 3501POPC   GL145133  41.485  14.480   5.787
 3501POPC   GL245134  41.729  14.206   5.862
 3501POPC   C1A45135  41.733  14.675   6.132
 3501POPC   D2A45136  41.807  14.671   6.589
 3501POPC   C3A45137  41.529  14.527   6.948
 3501POPC   C4A45138  41.203  14.454   7.267
 3501POPC   C1B45139  41.720  14.213   6.336
 3501POPC   C2B45140  41.714  14.054   6.752
 3501POPC   C3B45141  41.462  14.048   7.113
 3501POPC   C4B45142  41.422  13.922   7.516
 3502POPC   NC345143  19.424  26.903   5.291
 3502POPC   PO445144  18.894  27.245   5.357
 3502POPC   GL145145  19.212  27.169   5.679
 3502POPC   GL245146  19.211  26.811   5.767
 3502POPC   C1A45147  19.361  27.170   6.117
 3502POPC   D2A45148  19.169  27.155   6.538
 3502POPC   C3A45149  19.372  27.106   6.939
 3502POPC   C4A45150  19.143  26.909   7.270
 3502POPC   C1B45151  19.214  26.574   6.156
 3502POPC   C2B45152  19.379  26.401   6.529
 3502POPC   C3B45153  19.244  26.543   6.921
 3502POPC   C4B45154  19.285  26.357   7.332
 3503POPC   NC345155  10.698  22.018   5.372
 3503POPC   PO445156  10.899  22.564   5.527
 3503POPC   GL145157  10.773  22.239   5.839
 3503POPC   GL245158  10.420  22.058   5.873
 3503POPC   C1A45159  10.679  22.249   6.265
 3503POPC   D2A45160  10.683  22.067   6.648
 3503POPC   C3A45161  10.630  22.331   7.037
 3503POPC   C4A45162  10.819  22.502   7.450
 3503POPC   C1B45163  10.275  21.917   6.326
 3503POPC   C2B45164  10.194  22.082   6.763
 3503POPC   C3B45165  10.123  22.099   7.204
 3503POPC   C4B45166  10.124  22.037   7.684
 3504POPC   NC345167  37.522  31.964   5.775
 3504POPC   PO445168  37.378  32.439   5.344
 3504POPC   GL145169  37.449  32.484   5.818
 3504POPC   GL245170  37.793  32.468   5.779
 3504POPC   C1A45171  37.534  32.331   6.290
 3504POPC   D2A45172  37.350  32.298   6.667
 3504POPC   C3A45173  37.639  32.116   6.861
 3504POPC   C4A45174  37.601  31.817   7.133
 3504POPC   C1B45175  38.007  32.346   6.143
 3504POPC   C2B45176  37.976  31.986   6.455
 3504POPC   C3B45177  38.112  31.929   6.882
 3504POPC   C4B45178  38.055  32.192   7.228
 3505POPC   NC345179  38.107  44.142   5.335
 3505POPC   PO445180  38.774  43.897   5.405
 3505POPC   GL145181  38.671  43.802   5.815
 3505POPC   GL245182  38.312  43.806   5.744
 3505POPC   C1A45183  38.527  43.975   6.208
 3505POPC   D2A45184  38.323  43.872   6.603
 3505POPC   C3A45185  38.585  44.019   6.943
 3505POPC   C4A45186  38.374  44.242   7.275
 3505POPC   C1B45187  38.258  43.510   6.073
 3505POPC   C2B45188  38.124  43.406   6.467
 3505POPC   C3B45189  38.132  43.420   6.897
 3505POPC   C4B45190  38.282  43.682   7.207
 3506POPC   NC345191  38.331  11.692   4.958
 3506POPC   PO445192  38.312  11.181   5.277
 3506POPC   GL145193  38.194  11.388   5.637
 3506POPC   GL245194  38.189  11.059   5.766
 3506POPC   C1A45195  38.317  11.515   6.064
 3506POPC   D2A45196  38.700  11.422   6.323
 3506POPC   C3A45197  38.666  11.340   6.769
 3506POPC   C4A45198  38.592  11.433   7.175
 3506POPC   C1B45199  38.371  11.014   6.145
 3506POPC   C2B45200  38.227  11.257   6.507
 3506POPC   C3B45201  38.193  11.142   6.907
 3506POPC   C4B45202  38.280  11.056   7.317
 3507POPC   NC345203  22.681  21.951   5.613
 3507POPC   PO445204  23.308  21.845   5.333
 3507POPC   GL145205  23.240  22.073   5.754
 3507POPC   GL245206  22.978  22.362   5.764
 3507POPC   C1A45207  23.054  22.066   6.195
 3507POPC   D2A45208  23.092  22.352   6.558
 3507POPC   C3A45209  23.079  22.111   6.924
 3507POPC   C4A45210  22.860  22.086   7.316
 3507POPC   C1B45211  22.771  22.490   6.177
 3507POPC   C2B45212  22.579  22.469   6.630
 3507POPC   C3B45213  22.684  22.493   7.076
 3507POPC   C4B45214  22.646  22.477   7.585
 3508POPC   NC345215   7.357  21.655   5.314
 3508POPC   PO445216   7.109  21.088   5.638
 3508POPC   GL145217   7.409  21.380   5.753
 3508POPC   GL245218   7.237  21.683   5.825
 3508POPC   C1A45219   7.614  21.390   6.155
 3508POPC   D2A45220   7.401  21.238   6.525
 3508POPC   C3A45221   7.526  21.369   6.925
 3508POPC   C4A45222   7.252  21.259   7.271
 3508POPC   C1B45223   7.030  21.833   6.222
 3508POPC   C2B45224   7.206  21.797   6.653
 3508POPC   C3B45225   7.211  21.735   7.118
 3508POPC   C4B45226   7.415  21.647   7.535
 3509POPC   NC345227  24.577  10.887   5.256
 3509POPC   PO445228  24.809  10.303   5.493
 3509POPC   GL145229  24.490  10.565   5.740
 3509POPC   GL245230  24.334  10.926   5.710
 3509POPC   C1A45231  24.376  10.478   6.192
 3509POPC   D2A45232  24.279  10.236   6.578
 3509POPC   C3A45233  24.471  10.248   6.979
 3509POPC   C4A45234  24.478  10.459   7.362
 3509POPC   C1B45235  24.528  10.960   6.136
 3509POPC   C2B45236  24.595  10.784   6.581
 3509POPC   C3B45237  24.609  10.922   7.034
 3509POPC   C4B45238  24.586  10.912   7.532
 3510POPC   NC345239   3.218   1.442   5.439
 3510POPC   PO445240   3.563   0.918   5.606
 3510POPC   GL145241   3.392   1.054   5.928
 3510POPC   GL245242   3.522   1.374   5.854
 3510POPC   C1A45243   3.560   0.979   6.319
 3510POPC   D2A45244   3.480   1.155   6.689
 3510POPC   C3A45245   3.800   1.121   6.985
 3510POPC   C4A45246   3.781   1.064   7.444
 3510POPC   C1B45247   3.444   1.482   6.272
 3510POPC   C2B45248   3.509   1.665   6.686
 3510POPC   C3B45249   3.470   1.500   7.091
 3510POPC   C4B45250   3.138   1.610   7.354
 3511POPC   NC345251  29.319   2.026   5.297
 3511POPC   PO445252  28.712   1.845   5.601
 3511POPC   GL145253  28.990   2.081   5.867
 3511POPC   GL245254  29.374   2.090   5.799
 3511POPC   C1A45255  29.007   1.914   6.280
 3511POPC   D2A45256  28.843   1.728   6.656
 3511POPC   C3A45257  28.935   1.857   7.037
 3511POPC   C4A45258  29.251   1.677   7.216
 3511POPC   C1B45259  29.372   2.288   6.193
 3511POPC   C2B45260  29.181   2.296   6.560
 3511POPC   C3B45261  29.391   2.065   6.867
 3511POPC   C4B45262  29.415   2.156   7.266
 3512POPC   NC345263   7.170  16.843   5.427
 3512POPC   PO445264   6.509  16.751   5.510
 3512POPC   GL145265   6.805  16.685   5.831
 3512POPC   GL245266   6.649  16.381   5.911
 3512POPC   C1A45267   6.953  16.715   6.262
 3512POPC   D2A45268   6.753  16.794   6.668
 3512POPC   C3A45269   6.912  16.905   7.069
 3512POPC   C4A45270   6.767  16.799   7.467
 3512POPC   C1B45271   6.440  16.651   6.227
 3512POPC   C2B45272   6.269  16.630   6.654
 3512POPC   C3B45273   6.408  16.682   7.087
 3512POPC   C4B45274   6.155  16.742   7.458
 3513POPC   NC345275  23.697  43.956   5.347
 3513POPC   PO445276  24.287  43.806   5.579
 3513POPC   GL145277  23.855  43.700   5.796
 3513POPC   GL245278  23.477  43.799   5.792
 3513POPC   C1A45279  23.690  43.697   6.231
 3513POPC   D2A45280  23.587  43.894   6.612
 3513POPC   C3A45281  23.856  43.901   6.941
 3513POPC   C4A45282  23.791  43.788   7.311
 3513POPC   C1B45283  23.285  44.006   6.214
 3513POPC   C2B45284  23.155  44.163   6.678
 3513POPC   C3B45285  23.380  44.096   7.096
 3513POPC   C4B45286  23.464  44.085   7.558
 3514POPC   NC345287  34.181  22.348   5.043
 3514POPC   PO445288  33.709  21.931   5.419
 3514POPC   GL145289  33.777  22.115   5.828
 3514POPC   GL245290  34.132  22.105   5.822
 3514POPC   C1A45291  33.530  22.228   6.211
 3514POPC   D2A45292  33.418  22.068   6.630
 3514POPC   C3A45293  33.593  22.252   7.015
 3514POPC   C4A45294  33.734  21.945   7.212
 3514POPC   C1B45295  34.006  22.052   6.275
 3514POPC   C2B45296  33.938  22.287   6.647
 3514POPC   C3B45297  34.158  22.125   6.987
 3514POPC   C4B45298  34.192  22.019   7.422
 3515POPC   NC345299  41.846  17.525   5.468
 3515POPC   PO445300  41.173  17.776   5.524
 3515POPC   GL145301  41.239  17.557   5.881
 3515POPC   GL245302  41.552  17.400   5.873
 3515POPC   C1A45303  41.230  17.470   6.324
 3515POPC   D2A45304  41.339  17.796   6.614
 3515POPC   C3A45305  41.379  17.696   7.048
 3515POPC   C4A45306  41.560  17.370   7.239
 3515POPC   C1B45307  41.730  17.538   6.281
 3515POPC   C2B45308  41.738  17.448   6.696
 3515POPC   C3B45309  41.910  17.749   6.961
 3515POPC   C4B45310  41.855  17.756   7.364
 3516POPC   NC345311  27.940  43.857   5.561
 3516POPC   PO445312  28.610  43.696   5.659
 3516POPC   GL145313  28.502  43.787   6.032
 3516POPC   GL245314  28.223  44.000   5.994
 3516POPC   C1A45315  28.415  43.824   6.475
 3516POPC   D2A45316  28.657  44.131   6.686
 3516POPC   C3A45317  28.417  44.148   6.993
 3516POPC   C4A45318  28.413  43.810   7.253
 3516POPC   C1B45319  28.064  43.576   6.171
 3516POPC   C2B45320  28.017  43.395   6.565
 3516POPC   C3B45321  28.099  43.510   6.993
 3516POPC   C4B45322  27.903  43.853   7.206
 3517POPC   NC345323  38.577   6.227   5.586
 3517POPC   PO445324  38.378   5.576   5.454
 3517POPC   GL145325  38.334   5.799   5.835
 3517POPC   GL245326  38.652   5.785   5.870
 3517POPC   C1A45327  38.430   5.965   6.295
 3517POPC   D2A45328  38.416   5.838   6.747
 3517POPC   C3A45329  38.321   6.026   7.180
 3517POPC   C4A45330  38.094   5.888   7.604
 3517POPC   C1B45331  38.804   5.580   6.231
 3517POPC   C2B45332  38.868   5.636   6.661
 3517POPC   C3B45333  38.740   5.637   7.111
 3517POPC   C4B45334  38.625   5.346   7.418
 3518POPC   NC345335  17.689  20.000   5.485
 3518POPC   PO445336  17.295  19.448   5.499
 3518POPC   GL145337  17.408  19.740   5.845
 3518POPC   GL245338  17.319  20.106   5.853
 3518POPC   C1A45339  17.501  19.842   6.288
 3518POPC   D2A45340  17.586  19.778   6.728
 3518POPC   C3A45341  17.335  20.012   7.002
 3518POPC   C4A45342  17.542  19.813   7.337
 3518POPC   C1B45343  17.552  20.348   6.188
 3518POPC   C2B45344  17.733  20.264   6.609
 3518POPC   C3B45345  17.792  20.214   7.058
 3518POPC   C4B45346  17.469  20.285   7.447
 3519POPC   NC345347   5.953  19.382   5.355
 3519POPC   PO445348   5.698  19.909   5.592
 3519POPC   GL145349   5.815  19.607   5.835
 3519POPC   GL245350   6.168  19.703   5.812
 3519POPC   C1A45351   5.910  19.626   6.261
 3519POPC   D2A45352   6.200  19.627   6.572
 3519POPC   C3A45353   5.964  19.716   6.914
 3519POPC   C4A45354   5.551  19.735   7.104
 3519POPC   C1B45355   6.182  20.046   6.161
 3519POPC   C2B45356   5.964  20.093   6.555
 3519POPC   C3B45357   6.128  20.187   6.960
 3519POPC   C4B45358   5.943  20.030   7.314
 3520POPC   NC345359  17.014  11.862   5.557
 3520POPC   PO445360  17.530  12.282   5.453
 3520POPC   GL145361  17.388  12.106   5.818
 3520POPC   GL245362  17.107  12.325   5.834
 3520POPC   C1A45363  17.400  11.800   6.185
 3520POPC   D2A45364  17.683  11.833   6.544
 3520POPC   C3A45365  17.617  12.035   6.934
 3520POPC   C4A45366  17.561  11.971   7.372
 3520POPC   C1B45367  17.248  12.278   6.268
 3520POPC   C2B45368  17.208  12.056   6.619
 3520POPC   C3B45369  17.117  11.982   7.042
 3520POPC   C4B45370  17.261  12.357   7.243
 3521POPC   NC345371  44.125  43.266   5.427
 3521POPC   PO445372  43.894  42.664   5.449
 3521POPC   GL145373  43.906  42.908   5.800
 3521POPC   GL245374  43.738  43.231   5.754
 3521POPC   C1A45375  44.015  42.936   6.231
 3521POPC   D2A45376  43.843  43.176   6.588
 3521POPC   C3A45377  43.886  42.993   6.998
 3521POPC   C4A45378  43.926  43.139   7.424
 3521POPC   C1B45379  43.928  43.426   6.141
 3521POPC   C2B45380  44.180  43.596   6.505
 3521POPC   C3B45381  44.281  43.469   6.924
 3521POPC   C4B45382  44.097  43.644   7.379
 3522POPC   NC345383  14.306  31.211   5.394
 3522POPC   PO445384  14.627  31.763   5.579
 3522POPC   GL145385  14.402  31.429   5.831
 3522POPC   GL245386  14.621  31.422   6.096
 3522POPC   C1A45387  14.230  31.116   6.179
 3522POPC   D2A45388  14.409  31.232   6.592
 3522POPC   C3A45389  14.294  31.068   7.000
 3522POPC   C4A45390  14.571  31.242   7.286
 3522POPC   C1B45391  14.252  31.611   6.270
 3522POPC   C2B45392  14.338  31.749   6.632
 3522POPC   C3B45393  14.311  31.588   7.016
 3522POPC   C4B45394  14.125  31.472   7.393
 3523POPC   NC345395  22.702   7.165   5.534
 3523POPC   PO445396  23.111   7.605   5.395
 3523POPC   GL145397  23.019   7.702   5.843
 3523POPC   GL245398  22.900   7.368   5.971
 3523POPC   C1A45399  22.956   7.745   6.305
 3523POPC   D2A45400  22.712   7.471   6.559
 3523POPC   C3A45401  22.950   7.427   6.881
 3523POPC   C4A45402  23.035   7.320   7.283
 3523POPC   C1B45403  22.973   7.099   6.345
 3523POPC   C2B45404  22.704   6.945   6.662
 3523POPC   C3B45405  22.645   7.085   7.070
 3523POPC   C4B45406  22.656   6.996   7.488
 3524POPC   NC345407  35.035   5.364   5.323
 3524POPC   PO445408  34.320   5.256   5.191
 3524POPC   GL145409  34.406   5.159   5.653
 3524POPC   GL245410  34.753   5.226   5.737
 3524POPC   C1A45411  34.321   5.007   6.106
 3524POPC   D2A45412  34.537   4.920   6.515
 3524POPC   C3A45413  34.436   5.204   6.865
 3524POPC   C4A45414  34.432   5.031   7.250
 3524POPC   C1B45415  34.893   5.114   6.158
 3524POPC   C2B45416  34.956   5.233   6.581
 3524POPC   C3B45417  34.901   5.043   6.971
 3524POPC   C4B45418  34.779   5.403   7.215
 3525POPC   NC345419  20.030  29.154   5.480
 3525POPC   PO445420  20.667  28.865   5.496
 3525POPC   GL145421  20.716  29.070   5.898
 3525POPC   GL245422  20.493  29.352   5.832
 3525POPC   C1A45423  20.638  29.017   6.337
 3525POPC   D2A45424  20.333  28.909   6.670
 3525POPC   C3A45425  20.530  29.077   6.996
 3525POPC   C4A45426  20.972  28.972   7.054
 3525POPC   C1B45427  20.233  29.490   6.176
 3525POPC   C2B45428  20.399  29.420   6.596
 3525POPC   C3B45429  20.315  29.563   6.986
 3525POPC   C4B45430  20.259  29.365   7.355
 3526POPC   NC345431  40.093  41.551   5.338
 3526POPC   PO445432  39.667  41.080   5.556
 3526POPC   GL145433  39.828  41.448   5.797
 3526POPC   GL245434  40.205  41.444   5.840
 3526POPC   C1A45435  39.913  41.629   6.213
 3526POPC   D2A45436  39.730  41.542   6.608
 3526POPC   C3A45437  39.836  41.797   6.965
 3526POPC   C4A45438  39.815  41.630   7.390
 3526POPC   C1B45439  40.246  41.259   6.261
 3526POPC   C2B45440  40.185  41.307   6.701
 3526POPC   C3B45441  40.228  41.483   7.102
 3526POPC   C4B45442  40.308  41.572   7.532
 3527POPC   NC345443   4.567  33.593   5.355
 3527POPC   PO445444   4.118  34.116   5.103
 3527POPC   GL145445   4.251  33.948   5.564
 3527POPC   GL245446   4.139  33.603   5.676
 3527POPC   C1A45447   4.462  33.845   6.010
 3527POPC   D2A45448   4.583  33.690   6.439
 3527POPC   C3A45449   4.434  33.525   6.814
 3527POPC   C4A45450   4.470  33.719   7.243
 3527POPC   C1B45451   4.089  33.514   6.138
 3527POPC   C2B45452   4.066  33.816   6.470
 3527POPC   C3B45453   4.107  33.901   6.911
 3527POPC   C4B45454   4.015  33.508   7.145
 3528POPC   NC345455  24.965  14.712   5.546
 3528POPC   PO445456  25.475  14.265   5.594
 3528POPC   GL145457  25.299  14.269   5.942
 3528POPC   GL245458  24.943  14.269   5.856
 3528POPC   C1A45459  25.396  14.208   6.376
 3528POPC   D2A45460  25.454  14.085   6.792
 3528POPC   C3A45461  25.395  14.424   7.124
 3528POPC   C4A45462  25.329  14.597   7.552
 3528POPC   C1B45463  25.011  14.543   6.251
 3528POPC   C2B45464  25.069  14.448   6.707
 3528POPC   C3B45465  24.867  14.477   7.129
 3528POPC   C4B45466  24.641  14.310   7.506
 3529POPC   NC345467  31.557  21.552   5.254
 3529POPC   PO445468  31.003  21.310   5.494
 3529POPC   GL145469  31.435  21.258   5.680
 3529POPC   GL245470  31.259  21.259   5.976
 3529POPC   C1A45471  31.755  21.366   6.055
 3529POPC   D2A45472  31.876  21.200   6.481
 3529POPC   C3A45473  31.851  21.391   6.863
 3529POPC   C4A45474  31.667  21.417   7.216
 3529POPC   C1B45475  31.355  21.301   6.428
 3529POPC   C2B45476  31.318  21.238   6.890
 3529POPC   C3B45477  31.164  21.392   7.304
 3529POPC   C4B45478  31.107  21.620   7.683
 3530POPC   NC345479  27.816  29.026   5.527
 3530POPC   PO445480  27.277  29.394   5.393
 3530POPC   GL145481  27.429  29.342   5.782
 3530POPC   GL245482  27.395  28.986   5.822
 3530POPC   C1A45483  27.509  29.492   6.212
 3530POPC   D2A45484  27.552  29.356   6.636
 3530POPC   C3A45485  27.869  29.326   6.921
 3530POPC   C4A45486  27.663  29.370   7.330
 3530POPC   C1B45487  27.552  28.988   6.253
 3530POPC   C2B45488  27.356  28.909   6.660
 3530POPC   C3B45489  27.533  28.926   7.066
 3530POPC   C4B45490  27.870  28.874   7.355
 3531POPC   NC345491   0.340  40.490   5.303
 3531POPC   PO445492   0.345  39.825   5.433
 3531POPC   GL145493   0.491  39.665   5.830
 3531POPC   GL245494   0.160  39.732   5.969
 3531POPC   C1A45495   0.562  39.780   6.286
 3531POPC   D2A45496   0.789  40.135   6.470
 3531POPC   C3A45497   0.695  40.163   6.885
 3531POPC   C4A45498   0.379  39.901   7.097
 3531POPC   C1B45499   0.148  40.094   6.266
 3531POPC   C2B45500   0.258  40.324   6.659
 3531POPC   C3B45501   0.103  40.330   7.071
 3531POPC   C4B45502   0.265  40.238   7.480
 3532POPC   NC345503   9.424   9.864   5.644
 3532POPC   PO445504   9.043   9.567   5.140
 3532POPC   GL145505   8.932   9.652   5.626
 3532POPC   GL245506   8.619   9.612   5.825
 3532POPC   C1A45507   9.034   9.718   6.117
 3532POPC   D2A45508   9.014   9.535   6.540
 3532POPC   C3A45509   9.190   9.705   6.922
 3532POPC   C4A45510   9.065   9.448   7.247
 3532POPC   C1B45511   8.565   9.775   6.299
 3532POPC   C2B45512   8.748   9.957   6.698
 3532POPC   C3B45513   8.728   9.847   7.158
 3532POPC   C4B45514   8.626   9.986   7.599
 3533POPC   NC345515  33.552  28.639   5.201
 3533POPC   PO445516  32.882  28.493   5.332
 3533POPC   GL145517  32.947  28.291   5.714
 3533POPC   GL245518  33.300  28.253   5.605
 3533POPC   C1A45519  32.987  28.439   6.163
 3533POPC   D2A45520  33.205  28.649   6.540
 3533POPC   C3A45521  32.937  28.610   6.928
 3533POPC   C4A45522  32.815  28.250   7.142
 3533POPC   C1B45523  33.387  28.101   6.018
 3533POPC   C2B45524  33.463  28.119   6.449
 3533POPC   C3B45525  33.250  28.206   6.816
 3533POPC   C4B45526  33.308  28.348   7.205
 3534POPC   NC345527  29.544   7.356   5.436
 3534POPC   PO445528  28.910   6.965   5.510
 3534POPC   GL145529  28.924   7.189   5.917
 3534POPC   GL245530  29.259   7.403   5.891
 3534POPC   C1A45531  29.058   7.241   6.354
 3534POPC   D2A45532  28.848   7.420   6.718
 3534POPC   C3A45533  29.073   7.373   7.107
 3534POPC   C4A45534  29.367   7.048   7.262
 3534POPC   C1B45535  29.540   7.557   6.230
 3534POPC   C2B45536  29.638   7.724   6.627
 3534POPC   C3B45537  29.374   7.763   7.010
 3534POPC   C4B45538  29.351   7.604   7.449
 3535POPC   NC345539   2.479  38.026   5.450
 3535POPC   PO445540   3.033  37.723   5.251
 3535POPC   GL145541   2.990  37.641   5.675
 3535POPC   GL245542   2.618  37.627   5.772
 3535POPC   C1A45543   2.999  37.635   6.134
 3535POPC   D2A45544   3.043  37.514   6.575
 3535POPC   C3A45545   2.966  37.776   6.937
 3535POPC   C4A45546   2.815  37.616   7.307
 3535POPC   C1B45547   2.530  37.851   6.188
 3535POPC   C2B45548   2.554  37.689   6.630
 3535POPC   C3B45549   2.421  37.836   7.048
 3535POPC   C4B45550   2.404  37.834   7.516
 3536POPC   NC345551  29.350  44.676   4.925
 3536POPC   PO445552  28.820  44.272   5.092
 3536POPC   GL145553  28.858  44.390   5.647
 3536POPC   GL245554  28.728  44.722   5.763
 3536POPC   C1A45555  28.959  44.323   6.158
 3536POPC   D2A45556  28.937  44.539   6.599
 3536POPC   C3A45557  29.072  44.423   7.042
 3536POPC   C4A45558  29.365  44.687   7.293
 3536POPC   C1B45559  28.739  44.968   6.150
 3536POPC   C2B45560  28.709  44.991   6.612
 3536POPC   C3B45561  28.974  44.951   6.976
 3536POPC   C4B45562  28.889  44.787   7.376
 3537POPC   NC345563  22.575  19.397   5.346
 3537POPC   PO445564  23.079  18.948   5.250
 3537POPC   GL145565  22.980  18.960   5.697
 3537POPC   GL245566  22.660  18.772   5.773
 3537POPC   C1A45567  23.249  18.823   6.056
 3537POPC   D2A45568  23.408  18.720   6.470
 3537POPC   C3A45569  23.216  18.945   6.819
 3537POPC   C4A45570  22.874  18.880   7.148
 3537POPC   C1B45571  22.766  18.936   6.175
 3537POPC   C2B45572  22.751  18.838   6.605
 3537POPC   C3B45573  22.582  19.167   6.873
 3537POPC   C4B45574  22.635  19.311   7.287
 3538POPC   NC345575  30.291  28.175   5.414
 3538POPC   PO445576  29.867  28.760   5.448
 3538POPC   GL145577  30.011  28.455   5.781
 3538POPC   GL245578  29.684  28.382   5.831
 3538POPC   C1A45579  29.966  28.125   6.164
 3538POPC   D2A45580  30.080  28.217   6.617
 3538POPC   C3A45581  29.840  28.295   7.006
 3538POPC   C4A45582  29.538  28.299   7.341
 3538POPC   C1B45583  29.736  28.571   6.245
 3538POPC   C2B45584  29.751  28.688   6.660
 3538POPC   C3B45585  29.621  28.786   7.074
 3538POPC   C4B45586  29.883  28.664   7.415
 3539POPC   NC345587  44.560  41.448   5.366
 3539POPC   PO445588   0.189  41.505   5.380
 3539POPC   GL145589  44.923  41.508   5.744
 3539POPC   GL245590  44.861  41.860   5.829
 3539POPC   C1A45591  44.771  41.386   6.172
 3539POPC   D2A45592  44.955  41.349   6.609
 3539POPC   C3A45593  44.798  41.604   6.945
 3539POPC   C4A45594  44.579  41.560   7.309
 3539POPC   C1B45595  44.617  41.970   6.227
 3539POPC   C2B45596  44.576  42.003   6.697
 3539POPC   C3B45597  44.286  41.903   7.041
 3539POPC   C4B45598  44.320  41.918   7.548
 3540POPC   NC345599  32.235  33.792   5.575
 3540POPC   PO445600  32.362  33.193   5.332
 3540POPC   GL145601  32.558  33.459   5.767
 3540POPC   GL245602  32.584  33.870   5.928
 3540POPC   C1A45603  32.425  33.540   6.263
 3540POPC   D2A45604  32.336  33.752   6.668
 3540POPC   C3A45605  32.238  33.502   7.015
 3540POPC   C4A45606  32.603  33.413   7.205
 3540POPC   C1B45607  32.188  34.005   6.217
 3540POPC   C2B45608  31.896  33.985   6.606
 3540POPC   C3B45609  32.013  34.027   7.040
 3540POPC   C4B45610  32.406  33.905   7.247
 3541POPC   NC345611  24.490  22.315   5.302
 3541POPC   PO445612  23.984  21.835   5.277
 3541POPC   GL145613  24.431  22.035   5.689
 3541POPC   GL245614  24.520  22.351   5.805
 3541POPC   C1A45615  24.388  22.085   6.192
 3541POPC   D2A45616  24.430  22.213   6.557
 3541POPC   C3A45617  24.361  21.863   6.774
 3541POPC   C4A45618  24.458  21.760   7.161
 3541POPC   C1B45619  24.832  22.321   6.161
 3541POPC   C2B45620  24.904  22.374   6.608
 3541POPC   C3B45621  24.716  22.226   6.987
 3541POPC   C4B45622  24.797  22.464   7.336
 3542POPC   NC345623  18.730  30.962   5.210
 3542POPC   PO445624  19.168  30.587   5.604
 3542POPC   GL145625  19.111  30.758   6.009
 3542POPC   GL245626  18.761  30.882   6.128
 3542POPC   C1A45627  19.143  30.685   6.422
 3542POPC   D2A45628  18.979  30.892   6.745
 3542POPC   C3A45629  19.193  30.636   7.045
 3542POPC   C4A45630  19.223  30.681   7.489
 3542POPC   C1B45631  18.652  30.510   6.320
 3542POPC   C2B45632  18.753  30.428   6.685
 3542POPC   C3B45633  18.683  30.604   7.054
 3542POPC   C4B45634  18.732  30.462   7.443
 3543POPC   NC345635   1.679  42.171   5.666
 3543POPC   PO445636   2.128  42.608   5.481
 3543POPC   GL145637   2.263  42.510   5.880
 3543POPC   GL245638   2.343  42.151   5.870
 3543POPC   C1A45639   2.136  42.644   6.284
 3543POPC   D2A45640   1.855  42.573   6.611
 3543POPC   C3A45641   2.076  42.597   6.974
 3543POPC   C4A45642   2.101  42.371   7.319
 3543POPC   C1B45643   2.058  42.124   6.219
 3543POPC   C2B45644   1.733  42.054   6.512
 3543POPC   C3B45645   1.837  42.137   6.927
 3543POPC   C4B45646   1.976  41.883   7.277
 3544POPC   NC345647  39.222  37.445   5.294
 3544POPC   PO445648  38.729  37.811   5.408
 3544POPC   GL145649  38.967  37.741   5.791
 3544POPC   GL245650  39.306  37.744   5.822
 3544POPC   C1A45651  39.095  37.790   6.279
 3544POPC   D2A45652  39.097  37.556   6.658
 3544POPC   C3A45653  39.246  37.721   7.050
 3544POPC   C4A45654  39.064  37.674   7.454
 3544POPC   C1B45655  39.548  37.592   6.182
 3544POPC   C2B45656  39.596  37.612   6.634
 3544POPC   C3B45657  39.456  37.267   6.901
 3544POPC   C4B45658  39.427  37.323   7.353
 3545POPC   NC345659  15.346  22.680   5.441
 3545POPC   PO445660  14.717  23.020   5.552
 3545POPC   GL145661  15.133  23.057   5.758
 3545POPC   GL245662  15.077  22.731   5.872
 3545POPC   C1A45663  15.425  23.006   6.136
 3545POPC   D2A45664  15.371  22.828   6.534
 3545POPC   C3A45665  15.470  22.974   6.928
 3545POPC   C4A45666  15.336  23.012   7.331
 3545POPC   C1B45667  14.948  22.902   6.250
 3545POPC   C2B45668  14.907  23.081   6.631
 3545POPC   C3B45669  14.903  22.948   7.027
 3545POPC   C4B45670  14.576  23.098   7.261
 3546POPC   NC345671  38.655  34.084   5.394
 3546POPC   PO445672  38.660  33.457   5.496
 3546POPC   GL145673  38.612  33.727   5.843
 3546POPC   GL245674  38.332  33.966   5.806
 3546POPC   C1A45675  38.369  33.620   6.217
 3546POPC   D2A45676  38.254  33.730   6.638
 3546POPC   C3A45677  38.647  33.795   6.867
 3546POPC   C4A45678  38.747  33.587   7.281
 3546POPC   C1B45679  38.128  34.160   6.171
 3546POPC   C2B45680  37.896  34.128   6.580
 3546POPC   C3B45681  37.928  33.965   6.983
 3546POPC   C4B45682  38.273  33.780   7.193
 3547POPC   NC345683  31.619  15.233   5.393
 3547POPC   PO445684  31.207  14.799   5.613
 3547POPC   GL145685  31.443  15.026   5.860
 3547POPC   GL245686  31.802  15.027   5.815
 3547POPC   C1A45687  31.301  15.184   6.263
 3547POPC   D2A45688  31.097  15.009   6.635
 3547POPC   C3A45689  31.260  15.160   6.977
 3547POPC   C4A45690  31.428  15.189   7.325
 3547POPC   C1B45691  31.769  14.950   6.239
 3547POPC   C2B45692  31.638  15.065   6.637
 3547POPC   C3B45693  31.762  14.911   7.039
 3547POPC   C4B45694  31.681  14.766   7.443
 3548POPC   NC345695   3.311  12.820   5.353
 3548POPC   PO445696   2.599  12.625   5.327
 3548POPC   GL145697   2.757  12.768   5.709
 3548POPC   GL245698   3.012  12.554   5.838
 3548POPC   C1A45699   2.651  12.741   6.162
 3548POPC   D2A45700   2.632  12.961   6.539
 3548POPC   C3A45701   2.778  12.806   6.934
 3548POPC   C4A45702   2.794  13.045   7.286
 3548POPC   C1B45703   3.111  12.921   6.109
 3548POPC   C2B45704   3.145  12.948   6.561
 3548POPC   C3B45705   3.218  13.132   6.967
 3548POPC   C4B45706   3.354  13.249   7.402
 3549POPC   NC345707  12.239  40.493   5.124
 3549POPC   PO445708  12.087  41.018   5.472
 3549POPC   GL145709  12.005  40.939   5.862
 3549POPC   GL245710  12.030  40.578   5.885
 3549POPC   C1A45711  12.020  41.010   6.250
 3549POPC   D2A45712  11.955  40.734   6.546
 3549POPC   C3A45713  12.174  40.847   6.885
 3549POPC   C4A45714  12.099  40.941   7.279
 3549POPC   C1B45715  11.887  40.322   6.248
 3549POPC   C2B45716  11.850  40.256   6.698
 3549POPC   C3B45717  11.688  40.597   6.966
 3549POPC   C4B45718  11.728  40.647   7.442
 3550POPC   NC345719  42.876  30.670   5.385
 3550POPC   PO445720  43.470  30.598   5.153
 3550POPC   GL145721  43.243  30.485   5.658
 3550POPC   GL245722  43.038  30.751   5.865
 3550POPC   C1A45723  43.077  30.311   6.099
 3550POPC   D2A45724  43.072  30.603   6.439
 3550POPC   C3A45725  43.122  30.652   6.890
 3550POPC   C4A45726  43.031  30.501   7.344
 3550POPC   C1B45727  43.116  31.036   6.191
 3550POPC   C2B45728  43.200  31.102   6.575
 3550POPC   C3B45729  43.014  31.177   6.915
 3550POPC   C4B45730  43.079  31.007   7.284
 3551POPC   NC345731  30.155  37.938   5.529
 3551POPC   PO445732  29.643  37.555   5.264
 3551POPC   GL145733  29.847  37.551   5.728
 3551POPC   GL245734  29.782  37.878   5.890
 3551POPC   C1A45735  29.890  37.512   6.240
 3551POPC   D2A45736  30.161  37.387   6.632
 3551POPC   C3A45737  30.002  37.561   7.047
 3551POPC   C4A45738  29.634  37.367   7.301
 3551POPC   C1B45739  29.917  38.098   6.251
 3551POPC   C2B45740  29.766  37.953   6.627
 3551POPC   C3B45741  29.483  37.763   6.888
 3551POPC   C4B45742  29.646  37.867   7.265
 3552POPC   NC345743  35.792  30.000   5.134
 3552POPC   PO445744  35.157  30.044   5.451
 3552POPC   GL145745  35.073  29.842   5.869
 3552POPC   GL245746  35.400  29.942   5.966
 3552POPC   C1A45747  35.122  29.725   6.332
 3552POPC   D2A45748  35.300  29.964   6.665
 3552POPC   C3A45749  35.272  29.826   7.082
 3552POPC   C4A45750  35.626  29.832   7.331
 3552POPC   C1B45751  35.578  30.168   6.270
 3552POPC   C2B45752  35.539  30.418   6.621
 3552POPC   C3B45753  35.594  30.242   7.004
 3552POPC   C4B45754  35.832  30.300   7.367
 3553POPC   NC345755  33.973   8.096   5.179
 3553POPC   PO445756  34.593   8.286   5.151
 3553POPC   GL145757  34.714   8.280   5.677
 3553POPC   GL245758  34.641   7.917   5.879
 3553POPC   C1A45759  34.520   8.330   6.124
 3553POPC   D2A45760  34.571   8.120   6.520
 3553POPC   C3A45761  34.502   8.369   6.879
 3553POPC   C4A45762  34.618   8.243   7.245
 3553POPC   C1B45763  34.876   7.724   6.197
 3553POPC   C2B45764  35.098   7.995   6.474
 3553POPC   C3B45765  35.006   8.117   6.891
 3553POPC   C4B45766  34.958   7.827   7.215
 3554POPC   NC345767  16.876  24.802   5.481
 3554POPC   PO445768  16.847  24.134   5.379
 3554POPC   GL145769  16.842  24.272   5.799
 3554POPC   GL245770  16.548  24.512   5.753
 3554POPC   C1A45771  16.935  24.194   6.260
 3554POPC   D2A45772  17.175  24.442   6.582
 3554POPC   C3A45773  16.967  24.632   6.930
 3554POPC   C4A45774  16.782  24.376   7.244
 3554POPC   C1B45775  16.761  24.665   6.138
 3554POPC   C2B45776  16.592  24.698   6.559
 3554POPC   C3B45777  16.417  24.640   6.986
 3554POPC   C4B45778  16.564  24.824   7.360
 3555POPC   NC345779  34.822  42.236   5.233
 3555POPC   PO445780  34.213  42.396   5.553
 3555POPC   GL145781  34.584  42.259   5.814
 3555POPC   GL245782  34.946  42.179   5.762
 3555POPC   C1A45783  34.651  42.281   6.275
 3555POPC   D2A45784  34.558  42.522   6.682
 3555POPC   C3A45785  34.629  42.322   7.072
 3555POPC   C4A45786  34.512  42.294   7.505
 3555POPC   C1B45787  34.984  42.561   6.017
 3555POPC   C2B45788  35.021  42.629   6.503
 3555POPC   C3B45789  34.938  42.735   6.992
 3555POPC   C4B45790  34.791  42.706   7.449
 3556POPC   NC345791  15.381  43.263   5.425
 3556POPC   PO445792  14.677  43.154   5.359
 3556POPC   GL145793  14.913  43.140   5.792
 3556POPC   GL245794  15.247  42.967   5.830
 3556POPC   C1A45795  15.034  43.241   6.259
 3556POPC   D2A45796  14.997  43.500   6.660
 3556POPC   C3A45797  15.158  43.305   7.038
 3556POPC   C4A45798  15.074  43.010   7.340
 3556POPC   C1B45799  15.473  42.961   6.233
 3556POPC   C2B45800  15.465  43.162   6.637
 3556POPC   C3B45801  15.474  42.903   7.000
 3556POPC   C4B45802  15.679  42.795   7.394
 3557POPC   NC345803  34.010  15.823   5.327
 3557POPC   PO445804  33.361  15.908   5.299
 3557POPC   GL145805  33.655  15.827   5.695
 3557POPC   GL245806  33.890  16.117   5.784
 3557POPC   C1A45807  33.853  15.600   6.080
 3557POPC   D2A45808  34.015  15.579   6.535
 3557POPC   C3A45809  33.737  15.774   6.899
 3557POPC   C4A45810  33.457  16.142   6.994
 3557POPC   C1B45811  33.942  16.284   6.226
 3557POPC   C2B45812  34.038  16.124   6.650
 3557POPC   C3B45813  34.028  16.239   7.103
 3557POPC   C4B45814  34.151  16.140   7.540
 3558POPC   NC345815  11.929   6.772   5.056
 3558POPC   PO445816  12.240   6.478   5.588
 3558POPC   GL145817  12.023   6.591   5.921
 3558POPC   GL245818  12.051   6.944   5.802
 3558POPC   C1A45819  12.222   6.447   6.311
 3558POPC   D2A45820  12.302   6.340   6.743
 3558POPC   C3A45821  12.005   6.476   7.060
 3558POPC   C4A45822  11.991   6.385   7.515
 3558POPC   C1B45823  12.323   6.941   6.172
 3558POPC   C2B45824  12.204   6.866   6.612
 3558POPC   C3B45825  12.370   6.854   7.037
 3558POPC   C4B45826  12.182   6.857   7.449
 3559POPC   NC345827   7.654   0.783   5.454
 3559POPC   PO445828   7.159   1.222   5.424
 3559POPC   GL145829   7.233   0.993   5.751
 3559POPC   GL245830   7.512   1.104   5.834
 3559POPC   C1A45831   7.080   0.992   6.171
 3559POPC   D2A45832   7.267   0.980   6.578
 3559POPC   C3A45833   7.011   0.996   6.955
 3559POPC   C4A45834   7.077   1.051   7.380
 3559POPC   C1B45835   7.438   1.355   6.175
 3559POPC   C2B45836   7.605   1.369   6.582
 3559POPC   C3B45837   7.516   1.209   6.975
 3559POPC   C4B45838   7.275   1.462   7.189
 3560POPC   NC345839  15.270  20.065   5.321
 3560POPC   PO445840  15.664  19.595   5.366
 3560POPC   GL145841  15.387  19.729   5.718
 3560POPC   GL245842  15.058  19.552   5.686
 3560POPC   C1A45843  15.271  20.027   6.090
 3560POPC   D2A45844  15.400  20.036   6.546
 3560POPC   C3A45845  15.180  20.089   6.935
 3560POPC   C4A45846  15.297  19.957   7.342
 3560POPC   C1B45847  15.156  19.539   6.150
 3560POPC   C2B45848  15.016  19.637   6.558
 3560POPC   C3B45849  15.081  19.591   6.981
 3560POPC   C4B45850  15.210  19.456   7.377
 3561POPC   NC345851   1.055  31.895   5.517
 3561POPC   PO445852   1.307  31.205   5.400
 3561POPC   GL145853   1.232  31.317   5.829
 3561POPC   GL245854   1.370  31.636   5.829
 3561POPC   C1A45855   1.095  31.283   6.284
 3561POPC   D2A45856   1.246  31.466   6.677
 3561POPC   C3A45857   1.301  31.355   7.103
 3561POPC   C4A45858   1.144  31.309   7.513
 3561POPC   C1B45859   1.331  31.732   6.223
 3561POPC   C2B45860   1.545  31.868   6.563
 3561POPC   C3B45861   1.333  31.924   6.948
 3561POPC   C4B45862   1.263  31.818   7.378
 3562POPC   NC345863   6.094  23.720   5.491
 3562POPC   PO445864   5.412  23.835   5.281
 3562POPC   GL145865   5.668  23.870   5.734
 3562POPC   GL245866   5.963  23.650   5.974
 3562POPC   C1A45867   5.611  23.944   6.195
 3562POPC   D2A45868   5.847  23.734   6.487
 3562POPC   C3A45869   6.059  23.765   6.869
 3562POPC   C4A45870   5.795  23.712   7.212
 3562POPC   C1B45871   6.304  23.706   6.312
 3562POPC   C2B45872   6.368  24.087   6.604
 3562POPC   C3B45873   6.396  24.242   7.044
 3562POPC   C4B45874   6.210  23.952   7.407
 3563POPC   NC345875  15.329  12.620   5.366
 3563POPC   PO445876  15.018  13.254   5.470
 3563POPC   GL145877  15.254  12.989   5.774
 3563POPC   GL245878  15.051  12.679   5.783
 3563POPC   C1A45879  15.305  13.056   6.227
 3563POPC   D2A45880  15.135  12.927   6.641
 3563POPC   C3A45881  15.358  12.810   7.028
 3563POPC   C4A45882  15.497  12.676   7.458
 3563POPC   C1B45883  14.879  12.388   6.099
 3563POPC   C2B45884  14.715  12.395   6.529
 3563POPC   C3B45885  14.750  12.522   6.962
 3563POPC   C4B45886  14.990  12.603   7.336
 3564POPC   NC345887   9.939  29.916   5.528
 3564POPC   PO445888   9.376  29.708   5.491
 3564POPC   GL145889   9.516  29.936   5.861
 3564POPC   GL245890   9.724  30.191   5.922
 3564POPC   C1A45891   9.536  29.888   6.297
 3564POPC   D2A45892   9.702  29.542   6.534
 3564POPC   C3A45893   9.594  29.450   6.970
 3564POPC   C4A45894   9.784  29.581   7.363
 3564POPC   C1B45895  10.015  30.003   6.219
 3564POPC   C2B45896  10.099  29.912   6.673
 3564POPC   C3B45897   9.930  29.997   7.094
 3564POPC   C4B45898  10.027  29.989   7.549
 3565POPC   NC345899   5.205  10.332   5.336
 3565POPC   PO445900   4.612  10.465   5.618
 3565POPC   GL145901   4.986  10.436   5.817
 3565POPC   GL245902   5.189  10.690   5.721
 3565POPC   C1A45903   5.223  10.468   6.195
 3565POPC   D2A45904   5.144  10.549   6.599
 3565POPC   C3A45905   5.385  10.271   6.860
 3565POPC   C4A45906   5.234  10.113   7.245
 3565POPC   C1B45907   4.980  10.917   6.075
 3565POPC   C2B45908   4.759  10.965   6.507
 3565POPC   C3B45909   4.745  10.703   6.882
 3565POPC   C4B45910   5.127  10.624   7.114
 3566POPC   NC345911   7.279  30.423   5.625
 3566POPC   PO445912   7.700  30.791   5.486
 3566POPC   GL145913   7.581  30.746   5.874
 3566POPC   GL245914   7.235  30.866   5.857
 3566POPC   C1A45915   7.689  30.594   6.250
 3566POPC   D2A45916   7.646  30.361   6.594
 3566POPC   C3A45917   7.681  30.667   6.921
 3566POPC   C4A45918   7.494  30.756   7.324
 3566POPC   C1B45919   7.200  30.564   6.230
 3566POPC   C2B45920   7.258  30.689   6.624
 3566POPC   C3B45921   7.035  30.762   6.965
 3566POPC   C4B45922   6.979  30.510   7.283
 3567POPC   NC345923  30.315  28.965   5.498
 3567POPC   PO445924  31.034  29.197   5.437
 3567POPC   GL145925  30.831  29.221   5.854
 3567POPC   GL245926  30.738  28.884   5.838
 3567POPC   C1A45927  30.697  29.231   6.281
 3567POPC   D2A45928  30.548  29.035   6.631
 3567POPC   C3A45929  30.529  29.308   6.926
 3567POPC   C4A45930  30.589  29.193   7.295
 3567POPC   C1B45931  30.788  28.728   6.267
 3567POPC   C2B45932  30.964  28.757   6.706
 3567POPC   C3B45933  30.874  28.796   7.170
 3567POPC   C4B45934  30.801  28.893   7.636
 3568POPC   NC345935  43.613  31.030   5.232
 3568POPC   PO445936  43.877  31.680   5.195
 3568POPC   GL145937  43.780  31.638   5.671
 3568POPC   GL245938  43.643  31.318   5.680
 3568POPC   C1A45939  43.903  31.604   6.138
 3568POPC   D2A45940  43.954  31.667   6.607
 3568POPC   C3A45941  44.093  31.379   6.925
 3568POPC   C4A45942  43.983  31.459   7.363
 3568POPC   C1B45943  43.603  31.172   6.121
 3568POPC   C2B45944  43.694  31.229   6.576
 3568POPC   C3B45945  43.579  31.434   6.992
 3568POPC   C4B45946  43.497  31.296   7.435
 3569POPC   NC345947  38.778   5.314   5.552
 3569POPC   PO445948  38.341   4.830   5.420
 3569POPC   GL145949  38.527   4.952   5.802
 3569POPC   GL245950  38.351   5.262   5.850
 3569POPC   C1A45951  38.687   5.069   6.191
 3569POPC   D2A45952  38.563   5.235   6.571
 3569POPC   C3A45953  38.612   4.990   6.926
 3569POPC   C4A45954  38.362   4.956   7.256
 3569POPC   C1B45955  38.291   5.480   6.210
 3569POPC   C2B45956  38.093   5.463   6.587
 3569POPC   C3B45957  38.289   5.412   6.994
 3569POPC   C4B45958  38.123   5.428   7.402
 3570POPC   NC345959   5.694  42.922   5.431
 3570POPC   PO445960   6.232  43.282   5.519
 3570POPC   GL145961   6.098  43.256   5.913
 3570POPC   GL245962   5.828  43.017   5.921
 3570POPC   C1A45963   6.022  43.211   6.351
 3570POPC   D2A45964   5.795  43.155   6.716
 3570POPC   C3A45965   6.042  43.009   7.047
 3570POPC   C4A45966   5.912  42.980   7.466
 3570POPC   C1B45967   5.536  42.965   6.281
 3570POPC   C2B45968   5.534  42.697   6.660
 3570POPC   C3B45969   5.581  42.755   7.122
 3570POPC   C4B45970   5.475  42.711   7.581
 3571POPC   NC345971  40.213   6.515   5.278
 3571POPC   PO445972  39.652   6.852   5.370
 3571POPC   GL145973  39.879   6.600   5.653
 3571POPC   GL245974  40.055   6.859   5.789
 3571POPC   C1A45975  39.883   6.529   6.126
 3571POPC   D2A45976  39.759   6.491   6.545
 3571POPC   C3A45977  40.110   6.502   6.827
 3571POPC   C4A45978  39.999   6.457   7.227
 3571POPC   C1B45979  40.141   7.073   6.159
 3571POPC   C2B45980  40.064   6.925   6.566
 3571POPC   C3B45981  39.995   6.956   7.014
 3571POPC   C4B45982  40.166   7.234   7.261
 3572POPC   NC345983  31.135  37.542   5.520
 3572POPC   PO445984  31.878  37.377   5.576
 3572POPC   GL145985  31.582  37.557   5.881
 3572POPC   GL245986  31.566  37.882   5.740
 3572POPC   C1A45987  31.164  37.621   6.158
 3572POPC   D2A45988  31.070  37.754   6.579
 3572POPC   C3A45989  31.078  37.526   6.986
 3572POPC   C4A45990  31.373  37.511   7.307
 3572POPC   C1B45991  31.526  37.987   6.177
 3572POPC   C2B45992  31.573  37.627   6.461
 3572POPC   C3B45993  31.644  37.558   6.879
 3572POPC   C4B45994  31.835  37.810   7.225
 3573POPC   NC345995  13.439   6.716   5.177
 3573POPC   PO445996  13.969   6.882   5.569
 3573POPC   GL145997  13.760   6.585   5.837
 3573POPC   GL245998  13.940   6.306   5.935
 3573POPC   C1A45999  13.500   6.617   6.216
 3573POPC   D2A46000  13.592   6.859   6.540
 3573POPC   C3A46001  13.638   6.747   6.974
 3573POPC   C4A46002  13.515   6.795   7.384
 3573POPC   C1B46003  13.745   6.194   6.254
 3573POPC   C2B46004  13.715   6.353   6.639
 3573POPC   C3B46005  13.913   6.280   7.010
 3573POPC   C4B46006  13.865   6.402   7.416
 3574POPC   NC346007  34.364   3.800   5.404
 3574POPC   PO446008  34.652   3.177   5.368
 3574POPC   GL146009  34.638   3.460   5.747
 3574POPC   GL246010  34.284   3.500   5.839
 3574POPC   C1A46011  34.877   3.565   6.158
 3574POPC   D2A46012  34.807   3.787   6.558
 3574POPC   C3A46013  34.734   3.593   6.937
 3574POPC   C4A46014  34.710   3.781   7.354
 3574POPC   C1B46015  34.381   3.705   6.253
 3574POPC   C2B46016  34.299   3.859   6.695
 3574POPC   C3B46017  34.233   3.778   7.165
 3574POPC   C4B46018  34.300   3.655   7.637
 3575POPC   NC346019  20.590  36.565   5.466
 3575POPC   PO446020  20.398  37.121   5.205
 3575POPC   GL146021  20.274  37.128   5.721
 3575POPC   GL246022  20.236  36.782   5.815
 3575POPC   C1A46023  20.473  37.080   6.193
 3575POPC   D2A46024  20.709  36.924   6.575
 3575POPC   C3A46025  20.468  36.981   6.996
 3575POPC   C4A46026  20.533  37.133   7.414
 3575POPC   C1B46027  20.199  36.579   6.220
 3575POPC   C2B46028  20.286  36.628   6.667
 3575POPC   C3B46029  20.261  36.520   7.136
 3575POPC   C4B46030  20.432  36.646   7.529
 3576POPC   NC346031  18.012  17.191   5.332
 3576POPC   PO446032  18.619  17.006   5.597
 3576POPC   GL146033  18.324  16.659   5.692
 3576POPC   GL246034  18.020  16.839   5.730
 3576POPC   C1A46035  18.168  16.442   6.088
 3576POPC   D2A46036  18.100  16.609   6.537
 3576POPC   C3A46037  18.451  16.559   6.858
 3576POPC   C4A46038  18.610  16.607   7.292
 3576POPC   C1B46039  17.968  16.946   6.162
 3576POPC   C2B46040  17.670  16.934   6.512
 3576POPC   C3B46041  17.722  16.928   6.975
 3576POPC   C4B46042  18.123  16.799   7.187
 3577POPC   NC346043  36.049  18.937   5.109
 3577POPC   PO446044  36.503  19.342   5.249
 3577POPC   GL146045  36.349  19.379   5.704
 3577POPC   GL246046  36.267  19.020   5.783
 3577POPC   C1A46047  36.330  19.437   6.174
 3577POPC   D2A46048  36.458  19.464   6.639
 3577POPC   C3A46049  36.260  19.117   6.943
 3577POPC   C4A46050  36.143  19.064   7.375
 3577POPC   C1B46051  35.965  19.061   6.124
 3577POPC   C2B46052  35.943  19.209   6.550
 3577POPC   C3B46053  35.794  18.905   6.881
 3577POPC   C4B46054  35.825  18.664   7.251
 3578POPC   NC346055  27.922  36.989   5.634
 3578POPC   PO446056  27.330  36.663   5.561
 3578POPC   GL146057  27.572  36.605   5.983
 3578POPC   GL246058  27.853  36.837   6.107
 3578POPC   C1A46059  27.490  36.631   6.443
 3578POPC   D2A46060  27.326  36.932   6.748
 3578POPC   C3A46061  27.578  36.954   7.118
 3578POPC   C4A46062  27.420  36.594   7.314
 3578POPC   C1B46063  27.564  37.115   6.300
 3578POPC   C2B46064  27.762  37.229   6.685
 3578POPC   C3B46065  27.978  37.321   7.092
 3578POPC   C4B46066  27.780  37.301   7.511
 3579POPC   NC346067  36.044   3.811   5.345
 3579POPC   PO446068  36.031   4.476   5.349
 3579POPC   GL146069  35.943   4.226   5.691
 3579POPC   GL246070  36.264   4.202   5.762
 3579POPC   C1A46071  35.955   4.222   6.150
 3579POPC   D2A46072  35.762   4.149   6.529
 3579POPC   C3A46073  35.996   4.336   6.815
 3579POPC   C4A46074  35.946   4.233   7.215
 3579POPC   C1B46075  36.495   4.319   6.128
 3579POPC   C2B46076  36.453   4.425   6.532
 3579POPC   C3B46077  36.544   4.261   6.907
 3579POPC   C4B46078  36.533   4.467   7.259
 3580POPC   NC346079  16.785   2.324   5.173
 3580POPC   PO446080  16.839   2.904   5.513
 3580POPC   GL146081  16.746   2.812   5.910
 3580POPC   GL246082  16.840   2.475   5.834
 3580POPC   C1A46083  16.596   2.713   6.310
 3580POPC   D2A46084  16.512   2.444   6.671
 3580POPC   C3A46085  16.601   2.642   7.063
 3580POPC   C4A46086  16.794   2.660   7.465
 3580POPC   C1B46087  17.118   2.325   6.064
 3580POPC   C2B46088  17.080   2.552   6.390
 3580POPC   C3B46089  17.022   2.577   6.780
 3580POPC   C4B46090  17.103   2.411   7.133
 3581POPC   NC346091  17.754   0.970   5.470
 3581POPC   PO446092  17.370   1.493   5.377
 3581POPC   GL146093  17.483   1.511   5.816
 3581POPC   GL246094  17.465   1.167   5.841
 3581POPC   C1A46095  17.358   1.414   6.262
 3581POPC   D2A46096  17.545   1.313   6.637
 3581POPC   C3A46097  17.326   1.455   6.985
 3581POPC   C4A46098  17.451   1.684   7.320
 3581POPC   C1B46099  17.485   0.907   6.206
 3581POPC   C2B46100  17.255   0.903   6.580
 3581POPC   C3B46101  17.418   0.916   6.980
 3581POPC   C4B46102  17.528   0.599   7.237
 3582POPC   NC346103  17.161   4.277   5.537
 3582POPC   PO446104  17.784   4.221   5.276
 3582POPC   GL146105  17.642   4.413   5.714
 3582POPC   GL246106  17.353   4.332   5.984
 3582POPC   C1A46107  17.804   4.360   6.149
 3582POPC   D2A46108  17.593   4.214   6.507
 3582POPC   C3A46109  17.704   4.296   6.925
 3582POPC   C4A46110  17.371   4.481   7.205
 3582POPC   C1B46111  17.169   4.054   6.223
 3582POPC   C2B46112  17.229   3.870   6.576
 3582POPC   C3B46113  17.212   4.106   6.905
 3582POPC   C4B46114  17.126   3.953   7.278
 3583POPC   NC346115  16.174  29.314   5.380
 3583POPC   PO446116  15.624  28.897   5.448
 3583POPC   GL146117  15.816  29.120   5.748
 3583POPC   GL246118  15.604  29.381   5.783
 3583POPC   C1A46119  16.107  29.265   6.074
 3583POPC   D2A46120  16.213  29.428   6.480
 3583POPC   C3A46121  16.089  29.180   6.842
 3583POPC   C4A46122  16.238  29.345   7.238
 3583POPC   C1B46123  15.613  29.209   6.219
 3583POPC   C2B46124  15.770  28.881   6.490
 3583POPC   C3B46125  15.779  28.738   6.913
 3583POPC   C4B46126  15.743  29.062   7.240
 3584POPC   NC346127   6.293   0.333   5.633
 3584POPC   PO446128   5.774   0.720   5.363
 3584POPC   GL146129   5.832   0.535   5.847
 3584POPC   GL246130   6.134   0.512   6.061
 3584POPC   C1A46131   5.717   0.348   6.300
 3584POPC   D2A46132   5.998   0.175   6.653
 3584POPC   C3A46133   5.952   0.200   7.100
 3584POPC   C4A46134   5.639   0.095   7.380
 3584POPC   C1B46135   6.006   0.775   6.362
 3584POPC   C2B46136   5.818   0.697   6.756
 3584POPC   C3B46137   5.994   0.699   7.161
 3584POPC   C4B46138   6.210   0.761   7.555
 3585POPC   NC346139   3.855  24.631   5.338
 3585POPC   PO446140   3.227  24.504   5.375
 3585POPC   GL146141   3.572  24.360   5.711
 3585POPC   GL246142   3.821  24.634   5.857
 3585POPC   C1A46143   3.616  24.285   6.180
 3585POPC   D2A46144   3.698  24.463   6.602
 3585POPC   C3A46145   3.417  24.376   6.929
 3585POPC   C4A46146   3.570  24.322   7.328
 3585POPC   C1B46147   3.679  24.849   6.259
 3585POPC   C2B46148   3.607  24.984   6.714
 3585POPC   C3B46149   3.671  24.811   7.150
 3585POPC   C4B46150   3.707  24.725   7.616
 3586POPC   NC346151  36.806  21.744   5.387
 3586POPC   PO446152  37.137  22.405   5.339
 3586POPC   GL146153  36.933  22.183   5.688
 3586POPC   GL246154  37.126  21.902   5.758
 3586POPC   C1A46155  36.867  22.123   6.141
 3586POPC   D2A46156  36.939  22.352   6.500
 3586POPC   C3A46157  36.791  22.228   6.862
 3586POPC   C4A46158  36.916  22.422   7.211
 3586POPC   C1B46159  37.281  21.758   6.143
 3586POPC   C2B46160  37.245  21.947   6.566
 3586POPC   C3B46161  37.230  22.012   7.012
 3586POPC   C4B46162  37.321  22.249   7.442
 3587POPC   NC346163  18.017  34.988   5.521
 3587POPC   PO446164  18.432  35.454   5.448
 3587POPC   GL146165  18.486  35.261   5.826
 3587POPC   GL246166  18.146  35.367   5.885
 3587POPC   C1A46167  18.565  35.519   6.193
 3587POPC   D2A46168  18.357  35.743   6.552
 3587POPC   C3A46169  18.467  35.604   6.970
 3587POPC   C4A46170  18.113  35.392   7.124
 3587POPC   C1B46171  18.156  35.253   6.303
 3587POPC   C2B46172  18.398  35.207   6.650
 3587POPC   C3B46173  18.417  34.979   7.028
 3587POPC   C4B46174  18.410  35.142   7.460
 3588POPC   NC346175  35.187  15.426   5.213
 3588POPC   PO446176  35.709  15.011   5.363
 3588POPC   GL146177  35.390  15.271   5.699
 3588POPC   GL246178  35.027  15.369   5.755
 3588POPC   C1A46179  35.344  15.377   6.164
 3588POPC   D2A46180  35.393  15.151   6.571
 3588POPC   C3A46181  35.484  15.368   6.956
 3588POPC   C4A46182  35.538  15.599   7.324
 3588POPC   C1B46183  34.893  15.120   6.135
 3588POPC   C2B46184  34.933  14.922   6.534
 3588POPC   C3B46185  34.988  15.167   6.931
 3588POPC   C4B46186  35.169  15.242   7.347
 3589POPC   NC346187  11.251   7.404   5.293
 3589POPC   PO446188  11.727   7.696   5.725
 3589POPC   GL146189  11.365   7.492   5.821
 3589POPC   GL246190  11.306   7.148   5.756
 3589POPC   C1A46191  11.372   7.358   6.215
 3589POPC   D2A46192  11.488   7.553   6.561
 3589POPC   C3A46193  11.482   7.361   6.953
 3589POPC   C4A46194  11.256   7.412   7.292
 3589POPC   C1B46195  11.098   6.935   6.136
 3589POPC   C2B46196  11.221   7.044   6.578
 3589POPC   C3B46197  11.014   7.099   6.969
 3589POPC   C4B46198  10.820   7.184   7.382
 3590POPC   NC346199  11.995  38.275   5.483
 3590POPC   PO446200  11.780  38.894   5.457
 3590POPC   GL146201  11.918  38.676   5.826
 3590POPC   GL246202  12.249  38.763   5.948
 3590POPC   C1A46203  12.022  38.382   6.172
 3590POPC   D2A46204  12.103  38.419   6.607
 3590POPC   C3A46205  11.851  38.378   6.995
 3590POPC   C4A46206  12.190  38.242   7.305
 3590POPC   C1B46207  12.049  38.898   6.291
 3590POPC   C2B46208  12.044  38.931   6.720
 3590POPC   C3B46209  12.251  38.703   7.012
 3590POPC   C4B46210  11.963  38.732   7.335
 3591POPC   NC346211  28.078  29.768   5.424
 3591POPC   PO446212  28.679  29.733   5.177
 3591POPC   GL146213  28.535  29.639   5.649
 3591POPC   GL246214  28.466  29.997   5.795
 3591POPC   C1A46215  28.389  29.608   6.117
 3591POPC   D2A46216  28.257  29.971   6.414
 3591POPC   C3A46217  28.169  30.013   6.874
 3591POPC   C4A46218  27.904  29.795   7.170
 3591POPC   C1B46219  28.726  30.037   6.200
 3591POPC   C2B46220  28.674  29.884   6.652
 3591POPC   C3B46221  28.641  30.027   7.089
 3591POPC   C4B46222  28.578  29.805   7.449
 3592POPC   NC346223   0.653   3.894   5.588
 3592POPC   PO446224   0.127   3.440   5.314
 3592POPC   GL146225   0.449   3.454   5.747
 3592POPC   GL246226   0.389   3.754   5.980
 3592POPC   C1A46227   0.733   3.444   6.202
 3592POPC   D2A46228   0.764   3.626   6.690
 3592POPC   C3A46229   0.557   3.458   7.108
 3592POPC   C4A46230   0.369   3.320   7.531
 3592POPC   C1B46231   0.292   3.646   6.383
 3592POPC   C2B46232   0.229   3.664   6.792
 3592POPC   C3B46233   0.085   3.592   7.212
 3592POPC   C4B46234  44.989   3.685   7.601
 3593POPC   NC346235  20.843  30.897   5.310
 3593POPC   PO446236  21.526  30.700   5.444
 3593POPC   GL146237  21.156  30.703   5.698
 3593POPC   GL246238  21.178  31.050   5.721
 3593POPC   C1A46239  21.185  30.501   6.112
 3593POPC   D2A46240  21.570  30.436   6.355
 3593POPC   C3A46241  21.598  30.555   6.805
 3593POPC   C4A46242  21.504  30.616   7.227
 3593POPC   C1B46243  21.042  30.994   6.151
 3593POPC   C2B46244  21.236  30.822   6.532
 3593POPC   C3B46245  21.101  30.706   6.942
 3593POPC   C4B46246  21.191  31.046   7.231
 3594POPC   NC346247  28.654  19.233   5.446
 3594POPC   PO446248  27.986  18.941   5.433
 3594POPC   GL146249  28.267  19.128   5.769
 3594POPC   GL246250  28.575  18.918   5.837
 3594POPC   C1A46251  28.382  19.251   6.209
 3594POPC   D2A46252  28.189  19.171   6.615
 3594POPC   C3A46253  28.395  19.174   7.033
 3594POPC   C4A46254  28.157  19.343   7.388
 3594POPC   C1B46255  28.772  18.902   6.227
 3594POPC   C2B46256  28.731  18.954   6.654
 3594POPC   C3B46257  28.709  18.669   6.983
 3594POPC   C4B46258  28.578  18.808   7.358
 3595POPC   NC346259  27.994  28.134   5.548
 3595POPC   PO446260  28.715  28.191   5.547
 3595POPC   GL146261  28.405  28.305   5.803
 3595POPC   GL246262  28.207  28.630   5.777
 3595POPC   C1A46263  28.392  28.395   6.208
 3595POPC   D2A46264  28.179  28.371   6.566
 3595POPC   C3A46265  28.488  28.343   6.856
 3595POPC   C4A46266  28.499  28.460   7.241
 3595POPC   C1B46267  27.999  28.740   6.191
 3595POPC   C2B46268  27.978  28.855   6.660
 3595POPC   C3B46269  28.018  28.533   7.021
 3595POPC   C4B46270  28.060  28.392   7.470
 3596POPC   NC346271  42.892   7.402   5.435
 3596POPC   PO446272  43.610   7.287   5.438
 3596POPC   GL146273  43.311   7.466   5.771
 3596POPC   GL246274  43.087   7.240   5.889
 3596POPC   C1A46275  43.022   7.709   6.057
 3596POPC   D2A46276  43.051   7.765   6.495
 3596POPC   C3A46277  42.941   7.411   6.760
 3596POPC   C4A46278  42.924   7.442   7.186
 3596POPC   C1B46279  43.366   7.071   6.228
 3596POPC   C2B46280  43.299   7.023   6.655
 3596POPC   C3B46281  43.373   7.057   7.087
 3596POPC   C4B46282  43.284   7.233   7.469
 3597POPC   NC346283  13.639  28.776   5.594
 3597POPC   PO446284  13.547  29.400   5.281
 3597POPC   GL146285  13.433  29.251   5.689
 3597POPC   GL246286  13.718  29.260   5.822
 3597POPC   C1A46287  13.405  29.006   6.126
 3597POPC   D2A46288  13.549  29.175   6.495
 3597POPC   C3A46289  13.615  29.001   6.901
 3597POPC   C4A46290  13.556  29.220   7.289
 3597POPC   C1B46291  13.957  29.111   6.193
 3597POPC   C2B46292  14.086  29.294   6.590
 3597POPC   C3B46293  14.028  29.270   7.034
 3597POPC   C4B46294  13.988  28.924   7.293
 3598POPC   NC346295   5.537  36.989   5.588
 3598POPC   PO446296   6.025  36.689   5.208
 3598POPC   GL146297   5.975  36.690   5.695
 3598POPC   GL246298   5.915  36.984   5.957
 3598POPC   C1A46299   6.153  36.583   6.116
 3598POPC   D2A46300   6.217  36.532   6.564
 3598POPC   C3A46301   5.881  36.712   6.819
 3598POPC   C4A46302   5.996  36.862   7.219
 3598POPC   C1B46303   5.639  36.878   6.314
 3598POPC   C2B46304   5.505  37.084   6.699
 3598POPC   C3B46305   5.841  37.260   6.911
 3598POPC   C4B46306   6.034  37.384   7.256
 3599POPC   NC346307  19.139  41.353   5.262
 3599POPC   PO446308  19.389  40.695   5.365
 3599POPC   GL146309  19.193  40.817   5.816
 3599POPC   GL246310  18.852  40.728   5.911
 3599POPC   C1A46311  19.167  40.772   6.309
 3599POPC   D2A46312  18.847  40.651   6.626
 3599POPC   C3A46313  19.009  40.522   7.023
 3599POPC   C4A46314  19.433  40.533   7.073
 3599POPC   C1B46315  18.698  41.018   6.240
 3599POPC   C2B46316  18.853  41.173   6.632
 3599POPC   C3B46317  19.210  40.974   6.858
 3599POPC   C4B46318  19.188  40.931   7.312
 3600POPC   NC346319  13.927  14.121   5.377
 3600POPC   PO446320  14.443  14.534   5.351
 3600POPC   GL146321  14.252  14.556   5.760
 3600POPC   GL246322  14.262  14.202   5.885
 3600POPC   C1A46323  14.488  14.615   6.154
 3600POPC   D2A46324  14.734  14.446   6.520
 3600POPC   C3A46325  14.462  14.435   6.875
 3600POPC   C4A46326  14.649  14.518   7.269
 3600POPC   C1B46327  14.346  14.154   6.347
 3600POPC   C2B46328  14.026  14.200   6.645
 3600POPC   C3B46329  13.913  14.103   7.027
 3600POPC   C4B46330  14.230  14.196   7.289
 3601POPC   NC346331  31.309   2.715   5.270
 3601POPC   PO446332  31.759   2.524   5.737
 3601POPC   GL146333  31.452   2.846   5.806
 3601POPC   GL246334  31.222   2.614   5.776
 3601POPC   C1A46335  31.464   2.929   6.234
 3601POPC   D2A46336  31.684   2.679   6.568
 3601POPC   C3A46337  31.674   2.808   7.008
 3601POPC   C4A46338  31.464   3.001   7.385
 3601POPC   C1B46339  31.260   2.458   6.193
 3601POPC   C2B46340  31.158   2.680   6.567
 3601POPC   C3B46341  31.156   2.813   6.965
 3601POPC   C4B46342  31.247   2.568   7.275
 3602POPC   NC346343  23.799  24.912   5.224
 3602POPC   PO446344  23.744  24.299   5.409
 3602POPC   GL146345  23.638  24.291   5.828
 3602POPC   GL246346  23.641  24.657   5.895
 3602POPC   C1A46347  23.850  24.224   6.228
 3602POPC   D2A46348  23.812  24.457   6.618
 3602POPC   C3A46349  23.744  24.243   6.992
 3602POPC   C4A46350  23.727  24.332   7.427
 3602POPC   C1B46351  23.409  24.488   6.279
 3602POPC   C2B46352  23.306  24.541   6.729
 3602POPC   C3B46353  23.492  24.737   7.137
 3602POPC   C4B46354  23.451  24.721   7.620
 3603POPC   NC346355  16.835   0.842   5.506
 3603POPC   PO446356  16.263   0.616   5.466
 3603POPC   GL146357  16.585   0.525   5.843
 3603POPC   GL246358  16.989   0.524   5.873
 3603POPC   C1A46359  16.546   0.345   6.261
 3603POPC   D2A46360  16.532   0.094   6.636
 3603POPC   C3A46361  16.551   0.381   6.951
 3603POPC   C4A46362  16.637   0.328   7.366
 3603POPC   C1B46363  16.900   0.727   6.238
 3603POPC   C2B46364  16.908   0.510   6.621
 3603POPC   C3B46365  17.021   0.590   7.053
 3603POPC   C4B46366  17.110   0.769   7.488
 3604POPC   NC346367  39.887  23.526   5.529
 3604POPC   PO446368  40.356  23.970   5.415
 3604POPC   GL146369  40.120  23.977   5.836
 3604POPC   GL246370  39.754  23.898   5.844
 3604POPC   C1A46371  39.926  24.091   6.265
 3604POPC   D2A46372  40.065  24.032   6.679
 3604POPC   C3A46373  39.820  23.965   7.049
 3604POPC   C4A46374  39.943  23.945   7.484
 3604POPC   C1B46375  39.937  23.591   6.155
 3604POPC   C2B46376  39.790  23.618   6.544
 3604POPC   C3B46377  39.847  23.445   6.908
 3604POPC   C4B46378  39.838  23.497   7.306
 3605POPC   NC346379  35.085  34.122   5.582
 3605POPC   PO446380  35.442  33.513   5.476
 3605POPC   GL146381  35.181  33.664   5.801
 3605POPC   GL246382  35.452  33.891   5.916
 3605POPC   C1A46383  35.074  33.813   6.224
 3605POPC   D2A46384  35.385  33.864   6.548
 3605POPC   C3A46385  35.179  33.764   6.905
 3605POPC   C4A46386  35.327  33.568   7.255
 3605POPC   C1B46387  35.676  34.167   6.235
 3605POPC   C2B46388  35.571  34.372   6.602
 3605POPC   C3B46389  35.624  34.210   6.963
 3605POPC   C4B46390  35.312  34.125   7.213
 3606POPC   NC346391  21.706  21.801   5.455
 3606POPC   PO446392  21.351  21.257   5.232
 3606POPC   GL146393  21.337  21.290   5.704
 3606POPC   GL246394  21.250  21.646   5.753
 3606POPC   C1A46395  21.303  21.246   6.186
 3606POPC   D2A46396  21.552  21.248   6.592
 3606POPC   C3A46397  21.363  21.107   6.997
 3606POPC   C4A46398  21.329  21.262   7.450
 3606POPC   C1B46399  21.513  21.719   6.129
 3606POPC   C2B46400  21.638  21.806   6.571
 3606POPC   C3B46401  21.595  21.593   6.989
 3606POPC   C4B46402  21.478  21.747   7.390
 3607POPC   NC346403  38.372  30.374   5.532
 3607POPC   PO446404  38.380  31.007   5.250
 3607POPC   GL146405  38.310  30.882   5.697
 3607POPC   GL246406  38.620  30.702   5.836
 3607POPC   C1A46407  38.325  30.885   6.178
 3607POPC   D2A46408  38.536  31.054   6.552
 3607POPC   C3A46409  38.556  30.767   6.881
 3607POPC   C4A46410  38.294  30.773   7.235
 3607POPC   C1B46411  38.881  30.359   6.022
 3607POPC   C2B46412  38.918  30.273   6.495
 3607POPC   C3B46413  38.762  30.260   6.949
 3607POPC   C4B46414  38.750  30.521   7.316
 3608POPC   NC346415   6.194   8.138   5.354
 3608POPC   PO446416   5.515   8.284   5.440
 3608POPC   GL146417   5.709   8.319   5.815
 3608POPC   GL246418   5.797   7.984   5.856
 3608POPC   C1A46419   5.978   8.369   6.186
 3608POPC   D2A46420   6.039   8.141   6.578
 3608POPC   C3A46421   6.134   8.333   6.973
 3608POPC   C4A46422   6.292   8.056   7.261
 3608POPC   C1B46423   5.562   8.068   6.278
 3608POPC   C2B46424   5.620   7.860   6.702
 3608POPC   C3B46425   5.708   8.026   7.092
 3608POPC   C4B46426   5.427   8.331   7.261
 3609POPC   NC346427  12.415   4.075   5.454
 3609POPC   PO446428  11.859   4.107   5.158
 3609POPC   GL146429  11.992   4.268   5.674
 3609POPC   GL246430  11.940   4.559   5.817
 3609POPC   C1A46431  12.078   4.162   6.174
 3609POPC   D2A46432  12.331   4.064   6.593
 3609POPC   C3A46433  12.218   4.164   7.045
 3609POPC   C4A46434  12.272   4.093   7.521
 3609POPC   C1B46435  12.189   4.669   6.187
 3609POPC   C2B46436  12.131   4.545   6.606
 3609POPC   C3B46437  12.174   4.678   7.015
 3609POPC   C4B46438  11.990   4.494   7.399
 3610POPC   NC346439  19.380  24.966   5.458
 3610POPC   PO446440  19.352  25.697   5.358
 3610POPC   GL146441  19.271  25.414   5.730
 3610POPC   GL246442  19.043  25.111   5.844
 3610POPC   C1A46443  19.210  25.519   6.158
 3610POPC   D2A46444  19.075  25.262   6.500
 3610POPC   C3A46445  19.181  25.190   6.936
 3610POPC   C4A46446  19.049  25.380   7.322
 3610POPC   C1B46447  18.781  24.862   6.177
 3610POPC   C2B46448  18.907  24.796   6.635
 3610POPC   C3B46449  18.854  24.831   7.096
 3610POPC   C4B46450  18.910  24.924   7.537
 3611POPC   NC346451  10.686   2.300   5.394
 3611POPC   PO446452  10.253   1.807   5.414
 3611POPC   GL146453  10.469   1.915   5.764
 3611POPC   GL246454  10.835   1.960   5.776
 3611POPC   C1A46455  10.621   1.683   6.140
 3611POPC   D2A46456  10.639   1.910   6.498
 3611POPC   C3A46457  10.673   1.794   6.929
 3611POPC   C4A46458  10.319   1.874   7.224
 3611POPC   C1B46459  10.589   2.253   6.107
 3611POPC   C2B46460  10.629   2.428   6.553
 3611POPC   C3B46461  10.630   2.336   7.008
 3611POPC   C4B46462  10.878   2.484   7.368
 3612POPC   NC346463  22.188   6.467   5.605
 3612POPC   PO446464  22.476   7.011   5.888
 3612POPC   GL146465  22.137   6.790   5.977
 3612POPC   GL246466  21.822   6.931   5.858
 3612POPC   C1A46467  22.160   6.460   6.298
 3612POPC   D2A46468  22.424   6.496   6.644
 3612POPC   C3A46469  22.307   6.731   6.971
 3612POPC   C4A46470  22.305   6.656   7.403
 3612POPC   C1B46471  21.751   6.764   6.294
 3612POPC   C2B46472  21.863   6.703   6.730
 3612POPC   C3B46473  21.871   6.846   7.195
 3612POPC   C4B46474  21.847   6.671   7.632
 3613POPC   NC346475  44.982  18.595   5.074
 3613POPC   PO446476  44.697  18.148   5.465
 3613POPC   GL146477  44.883  18.183   5.836
 3613POPC   GL246478  44.903  18.545   5.933
 3613POPC   C1A46479   0.014  18.129   6.259
 3613POPC   D2A46480   0.032  18.406   6.637
 3613POPC   C3A46481  44.825  18.243   7.044
 3613POPC   C4A46482  44.975  18.105   7.474
 3613POPC   C1B46483  44.611  18.408   6.237
 3613POPC   C2B46484  44.550  18.100   6.562
 3613POPC   C3B46485  44.320  18.032   6.951
 3613POPC   C4B46486  44.359  18.232   7.369
 3614POPC   NC346487  41.806  27.016   5.426
 3614POPC   PO446488  41.386  26.598   5.550
 3614POPC   GL146489  41.453  26.910   5.828
 3614POPC   GL246490  41.763  26.778   5.853
 3614POPC   C1A46491  41.503  26.944   6.275
 3614POPC   D2A46492  41.266  26.729   6.599
 3614POPC   C3A46493  41.436  26.822   6.987
 3614POPC   C4A46494  41.640  27.133   7.201
 3614POPC   C1B46495  42.013  26.893   6.126
 3614POPC   C2B46496  41.973  26.656   6.493
 3614POPC   C3B46497  41.937  26.862   6.864
 3614POPC   C4B46498  41.907  26.709   7.250
 3615POPC   NC346499  33.253  18.503   5.235
 3615POPC   PO446500  32.845  18.094   5.573
 3615POPC   GL146501  32.949  18.100   5.939
 3615POPC   GL246502  33.144  18.408   5.849
 3615POPC   C1A46503  33.100  18.125   6.307
 3615POPC   D2A46504  33.382  18.350   6.494
 3615POPC   C3A46505  33.181  18.281   6.903
 3615POPC   C4A46506  33.024  18.014   7.232
 3615POPC   C1B46507  32.838  18.527   6.160
 3615POPC   C2B46508  32.937  18.589   6.556
 3615POPC   C3B46509  32.787  18.634   6.928
 3615POPC   C4B46510  32.938  18.525   7.314
 3616POPC   NC346511  36.139  27.169   5.106
 3616POPC   PO446512  35.884  27.686   5.564
 3616POPC   GL146513  36.088  27.722   5.975
 3616POPC   GL246514  36.131  27.385   6.172
 3616POPC   C1A46515  36.101  27.835   6.411
 3616POPC   D2A46516  35.931  27.588   6.701
 3616POPC   C3A46517  35.890  27.750   7.104
 3616POPC   C4A46518  35.855  27.447   7.427
 3616POPC   C1B46519  36.507  27.584   6.266
 3616POPC   C2B46520  36.613  27.850   6.594
 3616POPC   C3B46521  36.412  27.702   6.951
 3616POPC   C4B46522  36.328  27.628   7.371
 3617POPC   NC346523  12.803  23.320   5.476
 3617POPC   PO446524  12.738  23.935   5.505
 3617POPC   GL146525  12.819  24.056   5.953
 3617POPC   GL246526  12.928  23.712   5.970
 3617POPC   C1A46527  12.930  24.002   6.434
 3617POPC   D2A46528  12.948  23.694   6.774
 3617POPC   C3A46529  12.687  23.808   7.144
 3617POPC   C4A46530  12.749  23.897   7.595
 3617POPC   C1B46531  13.206  23.499   6.259
 3617POPC   C2B46532  13.293  23.189   6.553
 3617POPC   C3B46533  13.259  23.298   6.962
 3617POPC   C4B46534  13.142  23.586   7.274
 3618POPC   NC346535  43.999   8.544   5.320
 3618POPC   PO446536  43.660   9.098   5.424
 3618POPC   GL146537  43.801   9.297   5.864
 3618POPC   GL246538  44.167   9.261   5.850
 3618POPC   C1A46539  43.791   9.232   6.328
 3618POPC   D2A46540  43.525   9.002   6.597
 3618POPC   C3A46541  43.715   8.948   6.975
 3618POPC   C4A46542  44.030   9.227   7.126
 3618POPC   C1B46543  44.265   9.076   6.248
 3618POPC   C2B46544  44.152   8.901   6.684
 3618POPC   C3B46545  44.175   8.756   7.140
 3618POPC   C4B46546  44.262   8.675   7.595
 3619POPC   NC346547  18.704   9.022   5.586
 3619POPC   PO446548  19.274   8.804   5.342
 3619POPC   GL146549  19.114   8.760   5.777
 3619POPC   GL246550  18.843   8.536   5.788
 3619POPC   C1A46551  19.055   9.031   6.200
 3619POPC   D2A46552  18.732   9.051   6.549
 3619POPC   C3A46553  18.913   8.996   6.959
 3619POPC   C4A46554  19.229   9.054   7.277
 3619POPC   C1B46555  18.769   8.619   6.195
 3619POPC   C2B46556  19.048   8.654   6.562
 3619POPC   C3B46557  19.213   8.568   6.967
 3619POPC   C4B46558  19.041   8.593   7.405
 3620POPC   NC346559  33.665  20.804   5.356
 3620POPC   PO446560  34.194  20.412   5.264
 3620POPC   GL146561  34.075  20.694   5.674
 3620POPC   GL246562  33.933  21.043   5.775
 3620POPC   C1A46563  33.748  20.622   6.045
 3620POPC   D2A46564  33.540  20.377   6.399
 3620POPC   C3A46565  33.526  20.567   6.810
 3620POPC   C4A46566  33.710  20.460   7.190
 3620POPC   C1B46567  34.150  20.909   6.171
 3620POPC   C2B46568  33.992  20.777   6.613
 3620POPC   C3B46569  34.117  20.740   7.071
 3620POPC   C4B46570  34.042  20.723   7.502
 3621POPC   NC346571  19.373  43.829   5.385
 3621POPC   PO446572  19.977  44.218   5.383
 3621POPC   GL146573  19.960  44.043   5.803
 3621POPC   GL246574  19.606  43.970   5.810
 3621POPC   C1A46575  20.030  43.923   6.252
 3621POPC   D2A46576  20.175  44.056   6.666
 3621POPC   C3A46577  20.000  43.847   7.049
 3621POPC   C4A46578  19.877  43.738   7.498
 3621POPC   C1B46579  19.523  44.002   6.230
 3621POPC   C2B46580  19.644  43.835   6.626
 3621POPC   C3B46581  19.550  44.087   6.952
 3621POPC   C4B46582  19.438  44.001   7.326
 3622POPC   NC346583   9.010  38.690   5.542
 3622POPC   PO446584   8.913  38.133   5.176
 3622POPC   GL146585   8.881  38.226   5.667
 3622POPC   GL246586   9.177  38.164   5.896
 3622POPC   C1A46587   8.697  38.470   6.071
 3622POPC   D2A46588   8.809  38.407   6.528
 3622POPC   C3A46589   8.808  38.664   6.909
 3622POPC   C4A46590   8.764  38.426   7.275
 3622POPC   C1B46591   9.204  38.491   6.202
 3622POPC   C2B46592   9.260  38.629   6.627
 3622POPC   C3B46593   9.271  38.463   7.055
 3622POPC   C4B46594   9.595  38.247   7.297
 3623POPC   NC346595  22.073  38.236   5.345
 3623POPC   PO446596  22.541  38.735   5.451
 3623POPC   GL146597  22.261  38.555   5.742
 3623POPC   GL246598  22.419  38.210   5.740
 3623POPC   C1A46599  22.128  38.724   6.166
 3623POPC   D2A46600  21.901  38.724   6.580
 3623POPC   C3A46601  22.004  38.674   7.045
 3623POPC   C4A46602  21.878  38.787   7.480
 3623POPC   C1B46603  22.160  38.199   6.111
 3623POPC   C2B46604  22.007  38.198   6.526
 3623POPC   C3B46605  22.219  38.187   6.889
 3623POPC   C4B46606  21.997  38.150   7.253
 3624POPC   NC346607  20.854   2.575   5.094
 3624POPC   PO446608  20.496   3.043   5.477
 3624POPC   GL146609  20.397   2.821   5.865
 3624POPC   GL246610  20.255   2.492   5.786
 3624POPC   C1A46611  20.438   3.014   6.298
 3624POPC   D2A46612  20.375   3.207   6.685
 3624POPC   C3A46613  20.731   3.129   6.924
 3624POPC   C4A46614  20.843   2.823   7.205
 3624POPC   C1B46615  20.203   2.577   6.261
 3624POPC   C2B46616  20.311   2.658   6.709
 3624POPC   C3B46617  20.349   2.656   7.183
 3624POPC   C4B46618  20.209   2.572   7.606
 3625POPC   NC346619  25.745  14.616   5.447
 3625POPC   PO446620  26.096  14.021   5.355
 3625POPC   GL146621  25.977  14.255   5.756
 3625POPC   GL246622  26.047  14.576   5.857
 3625POPC   C1A46623  25.892  14.177   6.216
 3625POPC   D2A46624  26.018  14.018   6.627
 3625POPC   C3A46625  25.881  14.239   7.007
 3625POPC   C4A46626  26.124  14.505   7.219
 3625POPC   C1B46627  25.659  14.625   6.147
 3625POPC   C2B46628  25.683  14.556   6.615
 3625POPC   C3B46629  25.750  14.782   6.995
 3625POPC   C4B46630  25.778  14.805   7.443
 3626POPC   NC346631  28.343  37.275   5.209
 3626POPC   PO446632  28.328  36.714   5.583
 3626POPC   GL146633  28.371  36.805   5.952
 3626POPC   GL246634  28.302  37.148   5.948
 3626POPC   C1A46635  28.336  36.770   6.348
 3626POPC   D2A46636  28.279  37.081   6.630
 3626POPC   C3A46637  28.262  36.879   6.987
 3626POPC   C4A46638  28.122  36.893   7.380
 3626POPC   C1B46639  28.655  37.147   6.243
 3626POPC   C2B46640  28.740  37.343   6.627
 3626POPC   C3B46641  28.572  37.293   7.030
 3626POPC   C4B46642  28.676  36.980   7.299
 3627POPC   NC346643  44.910  15.562   5.337
 3627POPC   PO446644  44.563  14.991   5.523
 3627POPC   GL146645  44.638  15.149   5.899
 3627POPC   GL246646  44.324  15.306   5.866
 3627POPC   C1A46647  44.804  15.010   6.288
 3627POPC   D2A46648  44.839  14.753   6.661
 3627POPC   C3A46649  44.709  15.034   6.972
 3627POPC   C4A46650  44.564  15.229   7.344
 3627POPC   C1B46651  44.281  15.116   6.274
 3627POPC   C2B46652  44.300  15.203   6.681
 3627POPC   C3B46653  44.192  14.982   7.058
 3627POPC   C4B46654  44.284  14.850   7.484
 3628POPC   NC346655  22.253   3.654   5.326
 3628POPC   PO446656  21.691   3.654   5.384
 3628POPC   GL146657  21.952   3.433   5.737
 3628POPC   GL246658  21.942   3.634   6.061
 3628POPC   C1A46659  21.998   3.149   6.133
 3628POPC   D2A46660  22.014   3.352   6.544
 3628POPC   C3A46661  22.026   3.065   6.873
 3628POPC   C4A46662  21.833   3.087   7.241
 3628POPC   C1B46663  22.363   3.638   6.268
 3628POPC   C2B46664  22.451   3.823   6.688
 3628POPC   C3B46665  22.279   3.533   6.997
 3628POPC   C4B46666  21.912   3.629   7.249
 3629POPC   NC346667  18.780  26.811   5.482
 3629POPC   PO446668  18.166  26.994   5.510
 3629POPC   GL146669  18.089  26.735   5.872
 3629POPC   GL246670  18.383  26.509   5.817
 3629POPC   C1A46671  18.113  26.812   6.330
 3629POPC   D2A46672  18.094  26.895   6.812
 3629POPC   C3A46673  18.490  27.058   7.012
 3629POPC   C4A46674  18.677  27.062   7.425
 3629POPC   C1B46675  18.514  26.400   6.243
 3629POPC   C2B46676  18.531  26.670   6.623
 3629POPC   C3B46677  18.421  26.561   7.040
 3629POPC   C4B46678  18.811  26.516   7.221
 3630POPC   NC346679  40.487  27.912   5.414
 3630POPC   PO446680  40.894  27.429   5.289
 3630POPC   GL146681  40.845  27.648   5.718
 3630POPC   GL246682  41.038  27.963   5.777
 3630POPC   C1A46683  40.672  27.703   6.153
 3630POPC   D2A46684  40.510  27.991   6.465
 3630POPC   C3A46685  40.555  27.858   6.886
 3630POPC   C4A46686  40.583  27.523   7.190
 3630POPC   C1B46687  41.169  27.793   6.194
 3630POPC   C2B46688  40.981  27.692   6.613
 3630POPC   C3B46689  41.039  27.781   7.076
 3630POPC   C4B46690  41.394  27.700   7.344
 3631POPC   NC346691  17.264  15.129   4.974
 3631POPC   PO446692  17.618  15.327   5.454
 3631POPC   GL146693  17.526  15.173   5.825
 3631POPC   GL246694  17.833  15.069   5.861
 3631POPC   C1A46695  17.462  15.102   6.243
 3631POPC   D2A46696  17.299  15.156   6.585
 3631POPC   C3A46697  17.585  15.063   6.874
 3631POPC   C4A46698  17.357  15.200   7.181
 3631POPC   C1B46699  17.856  15.407   6.169
 3631POPC   C2B46700  17.695  15.504   6.591
 3631POPC   C3B46701  17.808  15.498   7.054
 3631POPC   C4B46702  17.995  15.570   7.483
 3632POPC   NC346703  40.782  26.920   5.303
 3632POPC   PO446704  40.908  26.166   5.228
 3632POPC   GL146705  40.871  26.519   5.647
 3632POPC   GL246706  40.678  26.864   5.796
 3632POPC   C1A46707  40.722  26.503   6.127
 3632POPC   D2A46708  40.721  26.803   6.506
 3632POPC   C3A46709  40.622  26.674   6.923
 3632POPC   C4A46710  41.003  26.698   7.188
 3632POPC   C1B46711  40.657  27.182   6.160
 3632POPC   C2B46712  40.606  27.331   6.593
 3632POPC   C3B46713  40.803  27.141   6.948
 3632POPC   C4B46714  40.641  26.981   7.355
 3633POPC   NC346715  28.872  41.170   5.505
 3633POPC   PO446716  29.026  40.499   5.426
 3633POPC   GL146717  29.083  40.702   5.789
 3633POPC   GL246718  29.370  40.469   5.842
 3633POPC   C1A46719  28.817  40.870   6.132
 3633POPC   D2A46720  28.778  40.668   6.519
 3633POPC   C3A46721  28.903  40.821   6.936
 3633POPC   C4A46722  28.691  40.605   7.222
 3633POPC   C1B46723  29.242  40.603   6.274
 3633POPC   C2B46724  29.200  40.447   6.691
 3633POPC   C3B46725  29.260  40.503   7.128
 3633POPC   C4B46726  29.436  40.898   7.190
 3634POPC   NC346727  18.886  25.890   5.254
 3634POPC   PO446728  19.133  26.529   5.341
 3634POPC   GL146729  19.101  26.266   5.766
 3634POPC   GL246730  19.066  25.892   5.755
 3634POPC   C1A46731  19.333  26.055   6.143
 3634POPC   D2A46732  19.389  25.853   6.548
 3634POPC   C3A46733  19.173  26.025   6.895
 3634POPC   C4A46734  19.121  25.877   7.295
 3634POPC   C1B46735  18.851  25.883   6.190
 3634POPC   C2B46736  18.628  25.714   6.575
 3634POPC   C3B46737  18.690  25.735   7.038
 3634POPC   C4B46738  18.689  25.719   7.490
 3635POPC   NC346739  26.525  41.558   5.568
 3635POPC   PO446740  25.878  41.534   5.352
 3635POPC   GL146741  26.040  41.599   5.780
 3635POPC   GL246742  26.265  41.358   5.964
 3635POPC   C1A46743  26.095  41.811   6.177
 3635POPC   D2A46744  26.147  41.987   6.567
 3635POPC   C3A46745  26.056  41.834   6.967
 3635POPC   C4A46746  25.793  41.522   7.103
 3635POPC   C1B46747  25.871  41.366   6.223
 3635POPC   C2B46748  26.012  41.438   6.633
 3635POPC   C3B46749  26.249  41.245   6.950
 3635POPC   C4B46750  26.570  41.142   7.238
 3636POPC   NC346751  24.464   8.982   5.229
 3636POPC   PO446752  24.810   9.318   5.664
 3636POPC   GL146753  24.659   8.921   5.791
 3636POPC   GL246754  24.291   8.906   5.794
 3636POPC   C1A46755  24.581   8.736   6.205
 3636POPC   D2A46756  24.688   8.939   6.600
 3636POPC   C3A46757  24.583   8.720   6.988
 3636POPC   C4A46758  24.650   8.465   7.337
 3636POPC   C1B46759  24.378   9.214   6.167
 3636POPC   C2B46760  24.418   9.409   6.591
 3636POPC   C3B46761  24.435   9.205   6.993
 3636POPC   C4B46762  24.820   9.205   7.216
 3637POPC   NC346763  21.936  43.885   5.403
 3637POPC   PO446764  22.510  43.708   5.726
 3637POPC   GL146765  22.173  43.937   5.871
 3637POPC   GL246766  21.934  43.673   5.867
 3637POPC   C1A46767  22.268  43.988   6.313
 3637POPC   D2A46768  22.136  43.684   6.614
 3637POPC   C3A46769  22.357  43.674   6.961
 3637POPC   C4A46770  22.380  44.014   7.252
 3637POPC   C1B46771  21.782  43.886   6.239
 3637POPC   C2B46772  21.732  44.001   6.686
 3637POPC   C3B46773  21.917  43.864   7.102
 3637POPC   C4B46774  21.709  43.762   7.514
 3638POPC   NC346775  20.035   6.217   5.106
 3638POPC   PO446776  19.731   6.732   5.414
 3638POPC   GL146777  19.736   6.633   5.838
 3638POPC   GL246778  20.077   6.657   5.951
 3638POPC   C1A46779  19.610   6.369   6.188
 3638POPC   D2A46780  19.703   6.505   6.594
 3638POPC   C3A46781  19.427   6.718   6.851
 3638POPC   C4A46782  19.356   6.505   7.220
 3638POPC   C1B46783  19.819   6.908   6.287
 3638POPC   C2B46784  19.852   6.981   6.726
 3638POPC   C3B46785  20.021   6.703   6.984
 3638POPC   C4B46786  20.030   6.801   7.350
 3639POPC   NC346787  15.016   3.600   5.111
 3639POPC   PO446788  15.484   3.641   5.570
 3639POPC   GL146789  15.330   3.423   5.898
 3639POPC   GL246790  15.164   3.692   5.974
 3639POPC   C1A46791  15.051   3.316   6.276
 3639POPC   D2A46792  14.854   3.478   6.645
 3639POPC   C3A46793  15.074   3.455   7.010
 3639POPC   C4A46794  14.962   3.391   7.412
 3639POPC   C1B46795  15.375   3.834   6.290
 3639POPC   C2B46796  15.195   3.909   6.646
 3639POPC   C3B46797  15.094   4.043   7.024
 3639POPC   C4B46798  15.152   3.866   7.384
 3640POPC   NC346799  18.937  24.102   5.697
 3640POPC   PO446800  19.014  24.682   5.391
 3640POPC   GL146801  19.163  24.610   5.817
 3640POPC   GL246802  19.308  24.301   5.967
 3640POPC   C1A46803  19.260  24.766   6.229
 3640POPC   D2A46804  19.377  24.475   6.542
 3640POPC   C3A46805  19.304  24.623   6.924
 3640POPC   C4A46806  19.336  24.746   7.323
 3640POPC   C1B46807  18.948  24.370   6.261
 3640POPC   C2B46808  18.603  24.414   6.493
 3640POPC   C3B46809  18.656  24.389   6.914
 3640POPC   C4B46810  18.998  24.361   7.225
 3641POPC   NC346811  13.507  24.779   5.329
 3641POPC   PO446812  13.832  24.279   5.655
 3641POPC   GL146813  13.602  24.631   5.814
 3641POPC   GL246814  13.388  24.378   5.868
 3641POPC   C1A46815  13.514  24.792   6.228
 3641POPC   D2A46816  13.769  24.914   6.554
 3641POPC   C3A46817  13.969  24.680   6.855
 3641POPC   C4A46818  13.826  24.714   7.258
 3641POPC   C1B46819  13.684  24.322   6.273
 3641POPC   C2B46820  13.839  24.185   6.674
 3641POPC   C3B46821  13.770  24.231   7.106
 3641POPC   C4B46822  13.593  24.018   7.441
 3642POPC   NC346823  30.790  38.078   5.190
 3642POPC   PO446824  30.635  37.519   5.497
 3642POPC   GL146825  30.578  37.815   5.844
 3642POPC   GL246826  30.800  38.050   5.706
 3642POPC   C1A46827  30.593  37.751   6.329
 3642POPC   D2A46828  30.711  37.390   6.626
 3642POPC   C3A46829  30.540  37.378   7.040
 3642POPC   C4A46830  30.472  37.548   7.429
 3642POPC   C1B46831  30.914  38.110   6.136
 3642POPC   C2B46832  30.801  38.193   6.573
 3642POPC   C3B46833  30.707  37.886   6.920
 3642POPC   C4B46834  30.880  37.864   7.340
 3643POPC   NC346835   7.475  13.294   5.364
 3643POPC   PO446836   7.300  12.731   5.386
 3643POPC   GL146837   7.591  12.760   5.757
 3643POPC   GL246838   7.389  13.046   5.850
 3643POPC   C1A46839   7.736  12.956   6.202
 3643POPC   D2A46840   7.547  12.979   6.617
 3643POPC   C3A46841   7.616  12.728   6.983
 3643POPC   C4A46842   7.538  12.878   7.422
 3643POPC   C1B46843   7.276  12.737   6.226
 3643POPC   C2B46844   7.218  12.583   6.691
 3643POPC   C3B46845   7.121  12.736   7.142
 3643POPC   C4B46846   7.059  13.015   7.544
 3644POPC   NC346847  28.553  34.039   5.363
 3644POPC   PO446848  28.365  33.384   5.494
 3644POPC   GL146849  28.487  33.659   5.810
 3644POPC   GL246850  28.267  33.951   5.799
 3644POPC   C1A46851  28.383  33.661   6.262
 3644POPC   D2A46852  28.515  33.550   6.678
 3644POPC   C3A46853  28.287  33.571   7.080
 3644POPC   C4A46854  28.102  33.357   7.458
 3644POPC   C1B46855  28.613  34.095   6.109
 3644POPC   C2B46856  28.789  34.002   6.568
 3644POPC   C3B46857  28.624  33.980   7.007
 3644POPC   C4B46858  28.245  34.122   7.149
 3645POPC   NC346859  34.420  40.336   5.556
 3645POPC   PO446860  34.637  40.892   5.193
 3645POPC   GL146861  34.667  40.795   5.650
 3645POPC   GL246862  34.942  40.897   5.869
 3645POPC   C1A46863  34.457  40.909   6.033
 3645POPC   D2A46864  34.366  40.715   6.410
 3645POPC   C3A46865  34.569  40.777   6.789
 3645POPC   C4A46866  34.418  40.993   7.155
 3645POPC   C1B46867  34.757  40.500   6.084
 3645POPC   C2B46868  34.762  40.380   6.501
 3645POPC   C3B46869  34.891  40.398   6.921
 3645POPC   C4B46870  34.600  40.530   7.247
 3646POPC   NC346871  14.765  35.344   5.489
 3646POPC   PO446872  15.423  35.561   5.518
 3646POPC   GL146873  15.319  35.297   5.890
 3646POPC   GL246874  14.970  35.173   5.908
 3646POPC   C1A46875  15.210  35.347   6.325
 3646POPC   D2A46876  14.912  35.495   6.538
 3646POPC   C3A46877  15.048  35.555   6.940
 3646POPC   C4A46878  15.087  35.702   7.338
 3646POPC   C1B46879  15.137  34.878   6.178
 3646POPC   C2B46880  15.331  34.896   6.549
 3646POPC   C3B46881  15.245  35.064   6.939
 3646POPC   C4B46882  15.045  35.185   7.303
 3647POPC   NC346883  22.754  18.603   5.302
 3647POPC   PO446884  23.002  17.958   5.379
 3647POPC   GL146885  22.854  18.273   5.715
 3647POPC   GL246886  23.159  18.358   5.877
 3647POPC   C1A46887  22.708  18.421   6.155
 3647POPC   D2A46888  22.627  18.293   6.620
 3647POPC   C3A46889  22.953  18.411   6.970
 3647POPC   C4A46890  23.325  18.640   7.212
 3647POPC   C1B46891  23.123  18.163   6.299
 3647POPC   C2B46892  23.172  17.810   6.571
 3647POPC   C3B46893  23.088  17.900   6.979
 3647POPC   C4B46894  23.117  17.823   7.395
 3648POPC   NC346895  22.348  40.619   5.391
 3648POPC   PO446896  21.937  41.106   5.388
 3648POPC   GL146897  22.131  41.080   5.772
 3648POPC   GL246898  22.118  40.714   5.832
 3648POPC   C1A46899  22.000  41.068   6.201
 3648POPC   D2A46900  22.165  40.922   6.595
 3648POPC   C3A46901  21.999  41.119   6.926
 3648POPC   C4A46902  22.187  40.930   7.240
 3648POPC   C1B46903  21.984  40.545   6.248
 3648POPC   C2B46904  22.108  40.400   6.683
 3648POPC   C3B46905  22.184  40.446   7.139
 3648POPC   C4B46906  21.907  40.579   7.479
 3649POPC   NC346907  42.909  41.889   5.583
 3649POPC   PO446908  43.445  41.438   5.297
 3649POPC   GL146909  43.280  41.533   5.756
 3649POPC   GL246910  42.939  41.439   5.832
 3649POPC   C1A46911  43.205  41.395   6.236
 3649POPC   D2A46912  43.246  41.135   6.623
 3649POPC   C3A46913  43.401  41.331   7.005
 3649POPC   C4A46914  43.185  41.656   7.237
 3649POPC   C1B46915  42.803  41.752   6.189
 3649POPC   C2B46916  42.649  41.952   6.573
 3649POPC   C3B46917  42.868  41.926   6.951
 3649POPC   C4B46918  42.703  41.753   7.346
 3650POPC   NC346919  20.695  40.178   5.375
 3650POPC   PO446920  20.445  39.542   5.256
 3650POPC   GL146921  20.505  39.734   5.713
 3650POPC   GL246922  20.489  40.095   5.846
 3650POPC   C1A46923  20.610  39.704   6.183
 3650POPC   D2A46924  20.934  39.825   6.528
 3650POPC   C3A46925  20.781  40.025   6.921
 3650POPC   C4A46926  20.699  40.280   7.329
 3650POPC   C1B46927  20.210  40.180   6.219
 3650POPC   C2B46928  20.148  40.341   6.648
 3650POPC   C3B46929  20.310  40.152   7.043
 3650POPC   C4B46930  20.396  39.869   7.427
 3651POPC   NC346931  26.179  38.704   5.067
 3651POPC   PO446932  26.327  38.334   5.618
 3651POPC   GL146933  25.933  38.492   5.860
 3651POPC   GL246934  25.814  38.825   5.800
 3651POPC   C1A46935  25.844  38.374   6.293
 3651POPC   D2A46936  26.183  38.190   6.534
 3651POPC   C3A46937  26.260  38.439   6.886
 3651POPC   C4A46938  26.390  38.467   7.307
 3651POPC   C1B46939  26.035  38.916   6.188
 3651POPC   C2B46940  25.936  38.795   6.603
 3651POPC   C3B46941  25.847  38.752   7.006
 3651POPC   C4B46942  25.892  38.431   7.240
 3652POPC   NC346943  30.100  13.237   5.312
 3652POPC   PO446944  29.531  12.974   5.561
 3652POPC   GL146945  29.811  13.105   5.827
 3652POPC   GL246946  30.027  12.816   5.793
 3652POPC   C1A46947  29.772  12.926   6.243
 3652POPC   D2A46948  30.029  12.716   6.516
 3652POPC   C3A46949  29.852  12.905   6.860
 3652POPC   C4A46950  29.765  12.814   7.248
 3652POPC   C1B46951  30.244  13.080   6.133
 3652POPC   C2B46952  30.207  13.191   6.565
 3652POPC   C3B46953  30.356  12.936   6.916
 3652POPC   C4B46954  30.253  12.935   7.348
 3653POPC   NC346955  44.989  44.542   5.330
 3653POPC   PO446956  44.580   0.047   5.419
 3653POPC   GL146957  44.648  44.771   5.765
 3653POPC   GL246958  44.825  44.495   5.839
 3653POPC   C1A46959  44.862  44.892   6.136
 3653POPC   D2A46960  44.725   0.019   6.524
 3653POPC   C3A46961  44.731  44.762   6.884
 3653POPC   C4A46962  44.618  44.821   7.318
 3653POPC   C1B46963  44.771  44.418   6.292
 3653POPC   C2B46964  44.966  44.337   6.689
 3653POPC   C3B46965  44.987  44.380   7.153
 3653POPC   C4B46966  44.979  44.576   7.596
 3654POPC   NC346967   3.908  34.335   5.475
 3654POPC   PO446968   3.385  34.779   5.432
 3654POPC   GL146969   3.653  34.689   5.734
 3654POPC   GL246970   3.532  34.359   5.824
 3654POPC   C1A46971   3.778  34.651   6.151
 3654POPC   D2A46972   3.494  34.580   6.512
 3654POPC   C3A46973   3.696  34.614   6.923
 3654POPC   C4A46974   3.474  34.701   7.282
 3654POPC   C1B46975   3.639  34.141   6.221
 3654POPC   C2B46976   3.728  34.156   6.668
 3654POPC   C3B46977   3.654  34.130   7.111
 3654POPC   C4B46978   3.676  34.285   7.551
 3655POPC   NC346979  19.620   8.619   5.578
 3655POPC   PO446980  20.045   9.103   5.402
 3655POPC   GL146981  19.890   9.067   5.852
 3655POPC   GL246982  19.517   9.039   5.902
 3655POPC   C1A46983  19.802   8.990   6.314
 3655POPC   D2A46984  19.445   8.985   6.609
 3655POPC   C3A46985  19.646   9.081   6.974
 3655POPC   C4A46986  19.926   9.008   7.303
 3655POPC   C1B46987  19.421   8.673   6.182
 3655POPC   C2B46988  19.618   8.511   6.527
 3655POPC   C3B46989  19.760   8.565   6.939
 3655POPC   C4B46990  19.557   8.667   7.312
 3656POPC   NC346991  40.040  42.457   5.640
 3656POPC   PO446992  39.948  41.969   5.194
 3656POPC   GL146993  39.908  41.956   5.696
 3656POPC   GL246994  40.246  41.979   5.831
 3656POPC   C1A46995  39.895  42.132   6.180
 3656POPC   D2A46996  40.037  42.273   6.621
 3656POPC   C3A46997  39.910  42.389   7.079
 3656POPC   C4A46998  39.690  42.114   7.399
 3656POPC   C1B46999  40.446  42.258   6.163
 3656POPC   C2B47000  40.580  42.200   6.593
 3656POPC   C3B47001  40.327  41.939   6.864
 3656POPC   C4B47002  40.188  41.990   7.275
 3657POPC   NC347003  32.109  14.797   5.470
 3657POPC   PO447004  31.995  15.481   5.557
 3657POPC   GL147005  32.284  15.206   5.804
 3657POPC   GL247006  32.490  15.391   6.051
 3657POPC   C1A47007  32.287  14.919   6.180
 3657POPC   D2A47008  32.130  14.906   6.619
 3657POPC   C3A47009  32.233  15.104   7.030
 3657POPC   C4A47010  32.194  14.797   7.381
 3657POPC   C1B47011  32.074  15.378   6.259
 3657POPC   C2B47012  31.970  15.444   6.699
 3657POPC   C3B47013  31.843  15.409   7.140
 3657POPC   C4B47014  31.882  15.202   7.566
 3658POPC   NC347015  16.912  37.055   4.973
 3658POPC   PO447016  16.676  36.751   5.411
 3658POPC   GL147017  16.929  36.841   5.761
 3658POPC   GL247018  16.744  37.168   5.837
 3658POPC   C1A47019  16.900  36.876   6.219
 3658POPC   D2A47020  16.677  36.855   6.600
 3658POPC   C3A47021  16.837  36.838   7.006
 3658POPC   C4A47022  16.551  36.855   7.383
 3658POPC   C1B47023  16.473  37.179   6.249
 3658POPC   C2B47024  16.479  37.357   6.696
 3658POPC   C3B47025  16.654  37.310   7.121
 3658POPC   C4B47026  16.618  37.325   7.574
 3659POPC   NC347027  20.886  39.395   5.256
 3659POPC   PO447028  20.595  38.835   5.380
 3659POPC   GL147029  20.618  39.195   5.680
 3659POPC   GL247030  20.916  39.416   5.759
 3659POPC   C1A47031  20.656  39.169   6.137
 3659POPC   D2A47032  20.704  38.923   6.514
 3659POPC   C3A47033  20.655  39.169   6.870
 3659POPC   C4A47034  20.448  39.223   7.268
 3659POPC   C1B47035  21.085  39.460   6.168
 3659POPC   C2B47036  21.119  39.318   6.596
 3659POPC   C3B47037  21.141  39.363   7.041
 3659POPC   C4B47038  20.774  39.600   7.186
 3660POPC   NC347039  26.304  27.497   5.623
 3660POPC   PO447040  25.644  27.477   5.518
 3660POPC   GL147041  25.869  27.639   5.826
 3660POPC   GL247042  25.895  27.972   5.704
 3660POPC   C1A47043  26.032  27.450   6.216
 3660POPC   D2A47044  25.965  27.270   6.627
 3660POPC   C3A47045  26.169  27.455   6.972
 3660POPC   C4A47046  26.141  27.342   7.410
 3660POPC   C1B47047  25.801  27.994   6.161
 3660POPC   C2B47048  25.852  27.786   6.544
 3660POPC   C3B47049  25.879  27.907   6.947
 3660POPC   C4B47050  26.080  27.845   7.304
 3661POPC   NC347051   4.530  42.287   5.440
 3661POPC   PO447052   3.868  42.405   5.394
 3661POPC   GL147053   4.117  42.474   5.783
 3661POPC   GL247054   4.408  42.696   5.712
 3661POPC   C1A47055   4.168  42.273   6.213
 3661POPC   D2A47056   3.976  42.296   6.620
 3661POPC   C3A47057   4.176  42.180   6.984
 3661POPC   C4A47058   4.283  42.297   7.370
 3661POPC   C1B47059   4.506  42.665   6.155
 3661POPC   C2B47060   4.350  42.749   6.575
 3661POPC   C3B47061   4.384  42.656   6.981
 3661POPC   C4B47062   4.726  42.549   7.205
 3662POPC   NC347063  26.931   3.977   5.434
 3662POPC   PO447064  26.802   4.596   5.544
 3662POPC   GL147065  26.856   4.447   5.949
 3662POPC   GL247066  27.019   4.149   5.942
 3662POPC   C1A47067  26.639   4.321   6.330
 3662POPC   D2A47068  26.745   4.175   6.741
 3662POPC   C3A47069  26.836   4.459   7.082
 3662POPC   C4A47070  26.574   4.814   7.216
 3662POPC   C1B47071  27.159   4.245   6.385
 3662POPC   C2B47072  27.196   3.918   6.721
 3662POPC   C3B47073  26.969   3.927   7.129
 3662POPC   C4B47074  27.239   4.221   7.386
 3663POPC   NC347075  34.562  39.380   5.473
 3663POPC   PO447076  35.130  39.096   5.438
 3663POPC   GL147077  34.813  38.992   5.825
 3663POPC   GL247078  34.452  39.159   5.910
 3663POPC   C1A47079  34.852  39.141   6.269
 3663POPC   D2A47080  34.911  39.252   6.692
 3663POPC   C3A47081  34.557  39.142   6.878
 3663POPC   C4A47082  34.519  38.862   7.190
 3663POPC   C1B47083  34.221  39.482   6.149
 3663POPC   C2B47084  34.047  39.454   6.585
 3663POPC   C3B47085  34.068  39.594   7.031
 3663POPC   C4B47086  34.306  39.326   7.283
 3664POPC   NC347087  34.760  30.840   5.553
 3664POPC   PO447088  34.295  30.520   5.280
 3664POPC   GL147089  34.325  30.635   5.766
 3664POPC   GL247090  34.624  30.427   5.872
 3664POPC   C1A47091  34.372  30.635   6.262
 3664POPC   D2A47092  34.515  30.385   6.629
 3664POPC   C3A47093  34.333  30.562   7.011
 3664POPC   C4A47094  34.370  30.931   7.203
 3664POPC   C1B47095  34.871  30.696   6.188
 3664POPC   C2B47096  34.748  30.858   6.579
 3664POPC   C3B47097  34.818  30.756   6.976
 3664POPC   C4B47098  34.907  30.940   7.337
 3665POPC   NC347099  40.660  44.417   5.449
 3665POPC   PO447100  41.038  44.960   5.657
 3665POPC   GL147101  40.868  44.651   5.862
 3665POPC   GL247102  41.059  44.381   5.750
 3665POPC   C1A47103  40.560  44.529   6.142
 3665POPC   D2A47104  40.492  44.433   6.561
 3665POPC   C3A47105  40.673  44.723   6.815
 3665POPC   C4A47106  40.555  44.619   7.191
 3665POPC   C1B47107  41.010  44.288   6.173
 3665POPC   C2B47108  41.038  44.475   6.528
 3665POPC   C3B47109  40.979  44.323   6.910
 3665POPC   C4B47110  41.058  44.452   7.270
 3666POPC   NC347111  10.595  11.950   5.549
 3666POPC   PO447112  10.784  12.531   5.668
 3666POPC   GL147113  10.353  12.451   5.867
 3666POPC   GL247114  10.178  12.182   5.754
 3666POPC   C1A47115  10.207  12.476   6.308
 3666POPC   D2A47116  10.536  12.467   6.580
 3666POPC   C3A47117  10.440  12.249   6.940
 3666POPC   C4A47118  10.407  12.417   7.322
 3666POPC   C1B47119  10.347  11.991   6.141
 3666POPC   C2B47120  10.268  11.932   6.554
 3666POPC   C3B47121  10.418  11.711   6.912
 3666POPC   C4B47122  10.471  11.870   7.295
 3667POPC   NC347123  22.763  29.232   5.385
 3667POPC   PO447124  23.354  29.006   5.412
 3667POPC   GL147125  23.222  29.178   5.816
 3667POPC   GL247126  22.899  29.366   5.862
 3667POPC   C1A47127  23.085  29.118   6.263
 3667POPC   D2A47128  22.976  29.306   6.695
 3667POPC   C3A47129  23.179  29.021   7.007
 3667POPC   C4A47130  23.172  28.768   7.386
 3667POPC   C1B47131  22.656  29.416   6.260
 3667POPC   C2B47132  22.502  29.156   6.614
 3667POPC   C3B47133  22.614  28.968   7.011
 3667POPC   C4B47134  22.620  28.924   7.449
 3668POPC   NC347135  42.052  32.451   5.514
 3668POPC   PO447136  42.483  31.925   5.507
 3668POPC   GL147137  42.254  32.074   5.816
 3668POPC   GL247138  42.431  32.382   5.847
 3668POPC   C1A47139  42.051  32.278   6.158
 3668POPC   D2A47140  42.134  32.337   6.583
 3668POPC   C3A47141  42.209  32.087   6.941
 3668POPC   C4A47142  42.165  32.334   7.311
 3668POPC   C1B47143  42.557  32.221   6.248
 3668POPC   C2B47144  42.651  32.475   6.607
 3668POPC   C3B47145  42.505  32.597   7.002
 3668POPC   C4B47146  42.648  32.434   7.411
 3669POPC   NC347147   4.641  35.275   5.471
 3669POPC   PO447148   5.092  35.751   5.509
 3669POPC   GL147149   4.955  35.460   5.869
 3669POPC   GL247150   5.128  35.126   5.938
 3669POPC   C1A47151   5.194  35.490   6.259
 3669POPC   D2A47152   5.343  35.286   6.618
 3669POPC   C3A47153   5.204  35.521   6.977
 3669POPC   C4A47154   5.330  35.396   7.371
 3669POPC   C1B47155   5.013  34.965   6.335
 3669POPC   C2B47156   4.829  35.169   6.711
 3669POPC   C3B47157   4.892  35.151   7.157
 3669POPC   C4B47158   4.966  35.165   7.637
 3670POPC   NC347159  29.654   3.490   5.541
 3670POPC   PO447160  29.002   3.429   5.365
 3670POPC   GL147161  29.195   3.382   5.797
 3670POPC   GL247162  29.432   3.063   5.778
 3670POPC   C1A47163  29.344   3.670   6.157
 3670POPC   D2A47164  29.537   3.816   6.540
 3670POPC   C3A47165  29.299   3.743   6.929
 3670POPC   C4A47166  29.116   3.519   7.279
 3670POPC   C1B47167  29.510   3.192   6.211
 3670POPC   C2B47168  29.429   3.322   6.642
 3670POPC   C3B47169  29.489   3.174   7.082
 3670POPC   C4B47170  29.304   3.127   7.517
 3671POPC   NC347171  10.939  42.486   5.324
 3671POPC   PO447172  11.614  42.468   5.330
 3671POPC   GL147173  11.481  42.561   5.776
 3671POPC   GL247174  11.524  42.246   5.977
 3671POPC   C1A47175  11.314  42.656   6.223
 3671POPC   D2A47176  11.373  42.427   6.609
 3671POPC   C3A47177  11.175  42.467   7.010
 3671POPC   C4A47178  11.274  42.213   7.375
 3671POPC   C1B47179  11.811  42.521   6.193
 3671POPC   C2B47180  11.844  42.635   6.624
 3671POPC   C3B47181  11.707  42.451   7.026
 3671POPC   C4B47182  11.503  42.668   7.362
 3672POPC   NC347183  25.795  41.076   5.228
 3672POPC   PO447184  26.270  40.618   5.416
 3672POPC   GL147185  25.931  40.701   5.718
 3672POPC   GL247186  25.880  41.056   5.776
 3672POPC   C1A47187  25.685  40.576   6.094
 3672POPC   D2A47188  25.655  40.369   6.498
 3672POPC   C3A47189  25.952  40.464   6.828
 3672POPC   C4A47190  25.834  40.612   7.216
 3672POPC   C1B47191  26.080  40.905   6.176
 3672POPC   C2B47192  25.830  40.885   6.551
 3672POPC   C3B47193  25.788  41.043   6.979
 3672POPC   C4B47194  25.879  41.075   7.446
 3673POPC   NC347195   0.853  12.554   5.504
 3673POPC   PO447196   0.269  12.648   5.771
 3673POPC   GL147197   0.637  12.811   5.917
 3673POPC   GL247198   0.849  12.521   6.010
 3673POPC   C1A47199   0.571  13.127   6.234
 3673POPC   D2A47200   0.438  13.380   6.598
 3673POPC   C3A47201   0.345  13.162   6.971
 3673POPC   C4A47202   0.534  12.864   7.187
 3673POPC   C1B47203   0.666  12.619   6.401
 3673POPC   C2B47204   0.316  12.798   6.610
 3673POPC   C3B47205   0.120  12.609   6.971
 3673POPC   C4B47206   0.329  12.387   7.309
 3674POPC   NC347207   5.510  38.668   5.431
 3674POPC   PO447208   6.087  38.354   5.612
 3674POPC   GL147209   5.825  38.138   5.864
 3674POPC   GL247210   5.573  38.376   5.887
 3674POPC   C1A47211   5.887  38.262   6.292
 3674POPC   D2A47212   6.078  38.495   6.590
 3674POPC   C3A47213   5.922  38.351   6.977
 3674POPC   C4A47214   6.104  38.511   7.347
 3674POPC   C1B47215   5.576  38.680   6.263
 3674POPC   C2B47216   5.627  38.739   6.721
 3674POPC   C3B47217   5.621  38.727   7.174
 3674POPC   C4B47218   5.548  38.368   7.358
 3675POPC   NC347219  37.220  40.056   5.384
 3675POPC   PO447220  37.810  39.867   5.590
 3675POPC   GL147221  37.490  39.932   5.869
 3675POPC   GL247222  37.400  40.293   5.825
 3675POPC   C1A47223  37.590  39.775   6.283
 3675POPC   D2A47224  37.823  39.565   6.607
 3675POPC   C3A47225  37.968  39.883   6.894
 3675POPC   C4A47226  37.986  39.930   7.338
 3675POPC   C1B47227  37.413  40.246   6.265
 3675POPC   C2B47228  37.404  40.075   6.670
 3675POPC   C3B47229  37.578  40.205   7.058
 3675POPC   C4B47230  37.493  40.018   7.416
 3676POPC   NC347231   3.464  29.543   5.490
 3676POPC   PO447232   3.702  30.212   5.358
 3676POPC   GL147233   3.673  29.949   5.722
 3676POPC   GL247234   3.319  30.051   5.724
 3676POPC   C1A47235   3.868  29.723   6.094
 3676POPC   D2A47236   3.727  29.441   6.452
 3676POPC   C3A47237   3.645  29.582   6.876
 3676POPC   C4A47238   3.758  29.674   7.297
 3676POPC   C1B47239   3.327  29.801   6.101
 3676POPC   C2B47240   3.408  29.867   6.514
 3676POPC   C3B47241   3.206  29.896   6.896
 3676POPC   C4B47242   3.309  29.946   7.303
 3677POPC   NC347243   1.391  43.100   5.344
 3677POPC   PO447244   0.717  43.138   5.414
 3677POPC   GL147245   0.988  43.071   5.743
 3677POPC   GL247246   1.244  43.321   5.787
 3677POPC   C1A47247   0.931  43.162   6.188
 3677POPC   D2A47248   0.850  43.042   6.621
 3677POPC   C3A47249   1.213  42.876   6.884
 3677POPC   C4A47250   1.577  42.632   7.052
 3677POPC   C1B47251   1.426  43.284   6.194
 3677POPC   C2B47252   1.530  43.169   6.617
 3677POPC   C3B47253   1.426  43.320   7.044
 3677POPC   C4B47254   1.668  43.309   7.422
 3678POPC   NC347255  23.370  32.747   5.606
 3678POPC   PO447256  23.857  32.293   5.460
 3678POPC   GL147257  23.595  32.290   5.825
 3678POPC   GL247258  23.432  31.964   5.819
 3678POPC   C1A47259  23.674  32.330   6.268
 3678POPC   D2A47260  23.629  32.140   6.672
 3678POPC   C3A47261  23.974  32.077   6.921
 3678POPC   C4A47262  24.001  32.049   7.358
 3678POPC   C1B47263  23.266  32.040   6.219
 3678POPC   C2B47264  23.205  32.383   6.495
 3678POPC   C3B47265  23.234  32.315   6.949
 3678POPC   C4B47266  23.605  32.380   7.204
 3679POPC   NC347267  39.836  32.557   5.501
 3679POPC   PO447268  40.043  31.911   5.444
 3679POPC   GL147269  39.871  32.017   5.836
 3679POPC   GL247270  40.208  32.117   5.916
 3679POPC   C1A47271  39.748  31.941   6.299
 3679POPC   D2A47272  39.912  32.180   6.662
 3679POPC   C3A47273  39.932  32.002   7.099
 3679POPC   C4A47274  39.777  32.065   7.558
 3679POPC   C1B47275  40.302  32.499   6.153
 3679POPC   C2B47276  40.180  32.645   6.560
 3679POPC   C3B47277  40.230  32.472   6.962
 3679POPC   C4B47278  40.381  32.610   7.347
 3680POPC   NC347279  16.114  15.729   5.465
 3680POPC   PO447280  15.689  16.250   5.349
 3680POPC   GL147281  15.880  16.158   5.792
 3680POPC   GL247282  16.238  16.068   5.821
 3680POPC   C1A47283  15.963  16.042   6.253
 3680POPC   D2A47284  15.870  16.209   6.663
 3680POPC   C3A47285  16.041  15.920   6.946
 3680POPC   C4A47286  15.948  15.774   7.337
 3680POPC   C1B47287  16.462  16.185   6.191
 3680POPC   C2B47288  16.377  16.130   6.600
 3680POPC   C3B47289  16.538  16.043   6.971
 3680POPC   C4B47290  16.352  16.065   7.331
 3681POPC   NC347291  33.986  21.550   5.420
 3681POPC   PO447292  33.419  21.185   5.238
 3681POPC   GL147293  33.505  21.333   5.697
 3681POPC   GL247294  33.690  21.608   5.828
 3681POPC   C1A47295  33.559  21.276   6.185
 3681POPC   D2A47296  33.703  21.564   6.561
 3681POPC   C3A47297  33.586  21.415   6.981
 3681POPC   C4A47298  33.625  20.984   7.185
 3681POPC   C1B47299  34.012  21.537   6.134
 3681POPC   C2B47300  34.132  21.287   6.512
 3681POPC   C3B47301  34.048  21.225   6.914
 3681POPC   C4B47302  34.050  21.568   7.191
 3682POPC   NC347303  44.837  16.235   5.698
 3682POPC   PO447304  44.478  15.804   5.292
 3682POPC   GL147305  44.408  15.826   5.749
 3682POPC   GL247306  44.692  15.657   5.822
 3682POPC   C1A47307  44.504  15.958   6.197
 3682POPC   D2A47308  44.799  15.978   6.524
 3682POPC   C3A47309  44.627  15.990   6.913
 3682POPC   C4A47310  44.785  16.223   7.216
 3682POPC   C1B47311  44.823  15.541   6.233
 3682POPC   C2B47312  44.763  15.464   6.673
 3682POPC   C3B47313  44.821  15.573   7.099
 3682POPC   C4B47314   0.002  15.806   7.437
 3683POPC   NC347315  42.782  40.380   5.617
 3683POPC   PO447316  43.478  40.553   5.548
 3683POPC   GL147317  43.324  40.234   5.818
 3683POPC   GL247318  43.428  39.873   5.739
 3683POPC   C1A47319  43.077  40.276   6.193
 3683POPC   D2A47320  42.990  40.038   6.535
 3683POPC   C3A47321  42.927  40.253   6.910
 3683POPC   C4A47322  43.110  40.161   7.288
 3683POPC   C1B47323  43.228  39.771   6.122
 3683POPC   C2B47324  43.323  39.632   6.536
 3683POPC   C3B47325  43.260  39.825   6.922
 3683POPC   C4B47326  43.273  39.638   7.307
 3684POPC   NC347327  43.463   5.237   5.229
 3684POPC   PO447328  43.437   4.626   5.446
 3684POPC   GL147329  43.142   4.972   5.663
 3684POPC   GL247330  43.288   5.277   5.767
 3684POPC   C1A47331  42.944   5.064   6.086
 3684POPC   D2A47332  43.069   5.102   6.531
 3684POPC   C3A47333  42.882   4.955   6.940
 3684POPC   C4A47334  42.984   5.115   7.353
 3684POPC   C1B47335  43.456   4.963   6.101
 3684POPC   C2B47336  43.563   4.946   6.567
 3684POPC   C3B47337  43.448   4.778   6.995
 3684POPC   C4B47338  43.361   4.792   7.503
 3685POPC   NC347339   5.779  41.556   5.177
 3685POPC   PO447340   6.377  41.674   5.144
 3685POPC   GL147341   5.989  41.798   5.575
 3685POPC   GL247342   5.656  41.980   5.727
 3685POPC   C1A47343   5.808  41.591   6.005
 3685POPC   D2A47344   5.721  41.508   6.462
 3685POPC   C3A47345   6.094  41.506   6.780
 3685POPC   C4A47346   6.047  41.326   7.196
 3685POPC   C1B47347   5.734  42.046   6.200
 3685POPC   C2B47348   5.876  41.966   6.618
 3685POPC   C3B47349   5.721  41.765   7.001
 3685POPC   C4B47350   5.958  41.818   7.348
 3686POPC   NC347351  28.124  13.932   5.313
 3686POPC   PO447352  28.556  13.400   5.293
 3686POPC   GL147353  28.435  13.535   5.739
 3686POPC   GL247354  28.124  13.719   5.775
 3686POPC   C1A47355  28.245  13.425   6.174
 3686POPC   D2A47356  28.430  13.624   6.571
 3686POPC   C3A47357  28.211  13.544   6.980
 3686POPC   C4A47358  28.441  13.530   7.363
 3686POPC   C1B47359  28.334  13.913   6.138
 3686POPC   C2B47360  28.205  14.079   6.526
 3686POPC   C3B47361  28.359  14.058   6.931
 3686POPC   C4B47362  28.233  13.969   7.330
 3687POPC   NC347363  32.211  31.385   5.299
 3687POPC   PO447364  31.925  31.933   5.588
 3687POPC   GL147365  32.171  31.579   5.773
 3687POPC   GL247366  31.896  31.343   5.819
 3687POPC   C1A47367  32.287  31.306   6.159
 3687POPC   D2A47368  32.091  31.339   6.584
 3687POPC   C3A47369  32.335  31.537   6.916
 3687POPC   C4A47370  32.473  31.203   7.221
 3687POPC   C1B47371  31.900  31.643   6.213
 3687POPC   C2B47372  31.852  31.787   6.673
 3687POPC   C3B47373  31.832  31.517   7.032
 3687POPC   C4B47374  32.121  31.516   7.382
 3688POPC   NC347375  43.064  14.572   5.463
 3688POPC   PO447376  42.370  14.521   5.309
 3688POPC   GL147377  42.310  14.364   5.729
 3688POPC   GL247378  42.636  14.507   5.786
 3688POPC   C1A47379  42.238  14.330   6.199
 3688POPC   D2A47380  42.528  14.300   6.582
 3688POPC   C3A47381  42.353  14.177   6.980
 3688POPC   C4A47382  41.949  14.295   7.148
 3688POPC   C1B47383  42.642  14.656   6.207
 3688POPC   C2B47384  42.342  14.796   6.504
 3688POPC   C3B47385  42.204  14.681   6.913
 3688POPC   C4B47386  42.464  14.587   7.267
 3689POPC   NC347387  26.484  15.284   5.535
 3689POPC   PO447388  27.148  15.169   5.465
 3689POPC   GL147389  26.924  15.276   5.832
 3689POPC   GL247390  27.129  15.060   6.009
 3689POPC   C1A47391  26.593  15.365   6.170
 3689POPC   D2A47392  26.434  15.162   6.521
 3689POPC   C3A47393  26.469  15.366   6.893
 3689POPC   C4A47394  26.670  15.163   7.253
 3689POPC   C1B47395  27.082  15.447   6.291
 3689POPC   C2B47396  26.937  15.469   6.706
 3689POPC   C3B47397  27.148  15.228   7.025
 3689POPC   C4B47398  27.162  15.170   7.469
 3690POPC   NC347399  41.019  39.061   5.541
 3690POPC   PO447400  40.507  39.538   5.412
 3690POPC   GL147401  40.712  39.421   5.819
 3690POPC   GL247402  40.793  39.076   5.986
 3690POPC   C1A47403  40.817  39.523   6.245
 3690POPC   D2A47404  41.103  39.274   6.510
 3690POPC   C3A47405  41.101  39.440   6.910
 3690POPC   C4A47406  40.926  39.499   7.287
 3690POPC   C1B47407  40.483  39.090   6.278
 3690POPC   C2B47408  40.556  39.303   6.649
 3690POPC   C3B47409  40.595  39.190   7.065
 3690POPC   C4B47410  40.966  38.939   7.148
 3691POPC   NC347411   1.767  33.524   5.518
 3691POPC   PO447412   1.884  34.152   5.682
 3691POPC   GL147413   2.049  33.796   5.946
 3691POPC   GL247414   2.112  33.425   5.885
 3691POPC   C1A47415   2.190  33.763   6.383
 3691POPC   D2A47416   1.860  33.811   6.728
 3691POPC   C3A47417   1.983  33.988   7.133
 3691POPC   C4A47418   1.846  33.853   7.534
 3691POPC   C1B47419   2.354  33.261   6.241
 3691POPC   C2B47420   2.489  33.417   6.668
 3691POPC   C3B47421   2.200  33.531   7.008
 3691POPC   C4B47422   2.174  33.411   7.446
 3692POPC   NC347423  18.932  12.330   5.384
 3692POPC   PO447424  18.988  13.038   5.558
 3692POPC   GL147425  18.910  12.715   5.835
 3692POPC   GL247426  19.196  12.527   5.784
 3692POPC   C1A47427  18.902  12.834   6.276
 3692POPC   D2A47428  18.858  12.802   6.696
 3692POPC   C3A47429  18.910  13.016   7.081
 3692POPC   C4A47430  18.834  12.604   7.311
 3692POPC   C1B47431  19.370  12.730   6.132
 3692POPC   C2B47432  19.305  12.567   6.533
 3692POPC   C3B47433  19.276  12.647   6.960
 3692POPC   C4B47434  19.300  12.817   7.361
 3693POPC   NC347435   6.649  25.952   5.294
 3693POPC   PO447436   7.158  26.324   5.427
 3693POPC   GL147437   6.780  26.276   5.717
 3693POPC   GL247438   6.399  26.218   5.667
 3693POPC   C1A47439   6.702  26.024   6.126
 3693POPC   D2A47440   6.939  25.788   6.461
 3693POPC   C3A47441   6.820  25.814   6.904
 3693POPC   C4A47442   6.926  26.132   7.225
 3693POPC   C1B47443   6.275  26.317   6.107
 3693POPC   C2B47444   6.402  26.297   6.532
 3693POPC   C3B47445   6.249  26.184   6.934
 3693POPC   C4B47446   6.440  25.947   7.247
 3694POPC   NC347447   2.523  13.086   5.288
 3694POPC   PO447448   1.889  12.909   5.370
 3694POPC   GL147449   1.914  12.736   5.803
 3694POPC   GL247450   2.260  12.715   5.856
 3694POPC   C1A47451   1.979  12.561   6.244
 3694POPC   D2A47452   2.218  12.636   6.616
 3694POPC   C3A47453   1.957  12.869   6.875
 3694POPC   C4A47454   1.907  12.941   7.306
 3694POPC   C1B47455   2.201  13.008   6.243
 3694POPC   C2B47456   2.234  13.247   6.668
 3694POPC   C3B47457   2.327  13.162   7.112
 3694POPC   C4B47458   2.344  13.053   7.570
 3695POPC   NC347459  24.152  28.212   5.543
 3695POPC   PO447460  24.743  28.453   5.271
 3695POPC   GL147461  24.623  28.416   5.739
 3695POPC   GL247462  24.398  28.619   5.864
 3695POPC   C1A47463  24.771  28.478   6.206
 3695POPC   D2A47464  24.478  28.600   6.584
 3695POPC   C3A47465  24.517  28.428   6.999
 3695POPC   C4A47466  24.583  28.075   7.248
 3695POPC   C1B47467  24.313  28.270   6.189
 3695POPC   C2B47468  24.186  27.924   6.438
 3695POPC   C3B47469  24.255  28.000   6.859
 3695POPC   C4B47470  24.089  28.197   7.231
 3696POPC   NC347471  40.024   5.492   5.435
 3696POPC   PO447472  39.943   6.135   5.312
 3696POPC   GL147473  39.966   5.938   5.705
 3696POPC   GL247474  39.731   6.146   5.834
 3696POPC   C1A47475  39.956   5.843   6.163
 3696POPC   D2A47476  40.108   6.121   6.481
 3696POPC   C3A47477  40.026   6.020   6.903
 3696POPC   C4A47478  39.763   5.767   7.068
 3696POPC   C1B47479  39.525   6.144   6.200
 3696POPC   C2B47480  39.614   5.989   6.574
 3696POPC   C3B47481  39.516   6.184   6.927
 3696POPC   C4B47482  39.528   6.255   7.358
 3697POPC   NC347483  36.365  11.304   5.470
 3697POPC   PO447484  35.976  11.829   5.433
 3697POPC   GL147485  35.892  11.556   5.848
 3697POPC   GL247486  36.018  11.190   5.864
 3697POPC   C1A47487  35.953  11.440   6.309
 3697POPC   D2A47488  36.163  11.220   6.669
 3697POPC   C3A47489  36.120  11.401   7.071
 3697POPC   C4A47490  35.891  11.730   7.228
 3697POPC   C1B47491  36.367  11.108   6.208
 3697POPC   C2B47492  36.614  11.009   6.625
 3697POPC   C3B47493  36.445  11.003   7.071
 3697POPC   C4B47494  36.053  10.969   7.335
 3698POPC   NC347495  24.548  39.739   5.493
 3698POPC   PO447496  24.719  40.401   5.509
 3698POPC   GL147497  24.816  40.236   5.911
 3698POPC   GL247498  24.776  39.877   5.928
 3698POPC   C1A47499  24.499  40.183   6.243
 3698POPC   D2A47500  24.350  40.412   6.592
 3698POPC   C3A47501  24.516  40.227   6.959
 3698POPC   C4A47502  24.222  40.051   7.236
 3698POPC   C1B47503  24.523  39.661   6.263
 3698POPC   C2B47504  24.401  39.777   6.688
 3698POPC   C3B47505  24.570  39.716   7.100
 3698POPC   C4B47506  24.794  39.745   7.483
 3699POPC   NC347507   5.137  22.512   5.484
 3699POPC   PO447508   4.742  21.978   5.345
 3699POPC   GL147509   5.019  21.970   5.723
 3699POPC   GL247510   5.367  22.099   5.735
 3699POPC   C1A47511   4.953  22.219   6.118
 3699POPC   D2A47512   4.751  22.405   6.489
 3699POPC   C3A47513   4.897  22.278   6.890
 3699POPC   C4A47514   4.757  22.201   7.297
 3699POPC   C1B47515   5.386  21.948   6.167
 3699POPC   C2B47516   5.281  22.161   6.540
 3699POPC   C3B47517   5.339  22.560   6.741
 3699POPC   C4B47518   5.472  22.536   7.146
 3700POPC   NC347519  37.450  28.309   5.580
 3700POPC   PO447520  37.998  28.083   5.413
 3700POPC   GL147521  37.871  28.150   5.867
 3700POPC   GL247522  37.738  28.489   5.970
 3700POPC   C1A47523  37.932  28.169   6.338
 3700POPC   D2A47524  37.932  28.134   6.799
 3700POPC   C3A47525  37.639  27.930   7.023
 3700POPC   C4A47526  37.448  28.212   7.224
 3700POPC   C1B47527  37.617  28.605   6.380
 3700POPC   C2B47528  37.657  28.555   6.809
 3700POPC   C3B47529  37.870  28.589   7.165
 3700POPC   C4B47530  37.527  28.799   7.301
 3701POPC   NC347531  19.470  11.871   5.378
 3701POPC   PO447532  18.779  11.872   5.379
 3701POPC   GL147533  19.017  12.009   5.773
 3701POPC   GL247534  18.816  11.846   5.986
 3701POPC   C1A47535  19.059  12.248   6.201
 3701POPC   D2A47536  18.897  12.277   6.660
 3701POPC   C3A47537  19.130  12.167   7.062
 3701POPC   C4A47538  19.351  12.311   7.436
 3701POPC   C1B47539  19.142  11.730   6.274
 3701POPC   C2B47540  19.201  11.655   6.710
 3701POPC   C3B47541  18.927  11.699   7.047
 3701POPC   C4B47542  18.616  12.074   7.078
 3702POPC   NC347543  34.542   1.854   5.484
 3702POPC   PO447544  34.210   2.385   5.582
 3702POPC   GL147545  34.428   2.157   5.887
 3702POPC   GL247546  34.313   1.865   5.975
 3702POPC   C1A47547  34.749   2.175   6.195
 3702POPC   D2A47548  34.630   2.277   6.616
 3702POPC   C3A47549  34.869   2.119   6.952
 3702POPC   C4A47550  34.854   2.200   7.395
 3702POPC   C1B47551  34.626   1.658   6.210
 3702POPC   C2B47552  34.763   1.695   6.642
 3702POPC   C3B47553  34.532   1.734   7.020
 3702POPC   C4B47554  34.501   1.838   7.477
 3703POPC   NC347555  34.016  10.957   5.302
 3703POPC   PO447556  33.812  11.674   5.408
 3703POPC   GL147557  33.726  11.369   5.751
 3703POPC   GL247558  34.021  11.144   5.787
 3703POPC   C1A47559  33.625  11.201   6.183
 3703POPC   D2A47560  33.860  11.100   6.584
 3703POPC   C3A47561  33.684  11.136   6.997
 3703POPC   C4A47562  33.702  11.427   7.332
 3703POPC   C1B47563  34.129  11.336   6.177
 3703POPC   C2B47564  34.286  11.357   6.612
 3703POPC   C3B47565  34.049  11.522   6.960
 3703POPC   C4B47566  34.039  11.853   7.280
 3704POPC   NC347567  38.384  22.659   5.163
 3704POPC   PO447568  38.095  23.226   5.472
 3704POPC   GL147569  38.351  23.106   5.824
 3704POPC   GL247570  38.722  23.106   5.846
 3704POPC   C1A47571  38.441  23.151   6.257
 3704POPC   D2A47572  38.404  22.988   6.653
 3704POPC   C3A47573  38.509  23.135   7.034
 3704POPC   C4A47574  38.147  23.138   7.295
 3704POPC   C1B47575  38.840  22.807   6.204
 3704POPC   C2B47576  38.765  22.631   6.620
 3704POPC   C3B47577  38.933  22.639   7.034
 3704POPC   C4B47578  38.594  22.744   7.333
 3705POPC   NC347579  37.863  40.804   5.548
 3705POPC   PO447580  37.411  40.632   5.088
 3705POPC   GL147581  37.359  40.770   5.613
 3705POPC   GL247582  37.488  41.072   5.786
 3705POPC   C1A47583  37.422  40.731   6.138
 3705POPC   D2A47584  37.388  40.598   6.611
 3705POPC   C3A47585  37.583  40.732   6.956
 3705POPC   C4A47586  37.765  40.714   7.324
 3705POPC   C1B47587  37.860  41.026   6.142
 3705POPC   C2B47588  37.885  40.840   6.545
 3705POPC   C3B47589  38.070  40.903   6.946
 3705POPC   C4B47590  38.062  41.121   7.351
 3706POPC   NC347591  21.539  39.740   5.684
 3706POPC   PO447592  21.279  39.179   5.406
 3706POPC   GL147593  21.322  39.079   5.827
 3706POPC   GL247594  21.004  38.901   5.874
 3706POPC   C1A47595  21.547  39.252   6.230
 3706POPC   D2A47596  21.619  39.463   6.658
 3706POPC   C3A47597  21.655  39.149   6.994
 3706POPC   C4A47598  21.405  38.885   7.249
 3706POPC   C1B47599  21.149  38.912   6.265
 3706POPC   C2B47600  21.409  38.898   6.582
 3706POPC   C3B47601  21.105  38.867   6.857
 3706POPC   C4B47602  20.896  38.930   7.235
 3707POPC   NC347603  40.322  10.833   5.599
 3707POPC   PO447604  40.237  10.178   5.488
 3707POPC   GL147605  40.061  10.419   5.819
 3707POPC   GL247606  39.756  10.611   5.795
 3707POPC   C1A47607  40.050  10.583   6.226
 3707POPC   D2A47608  39.768  10.542   6.551
 3707POPC   C3A47609  39.970  10.442   6.952
 3707POPC   C4A47610  40.131  10.291   7.356
 3707POPC   C1B47611  39.684  10.934   6.136
 3707POPC   C2B47612  39.582  11.029   6.569
 3707POPC   C3B47613  39.707  10.896   7.014
 3707POPC   C4B47614  40.123  10.845   7.234
 3708POPC   NC347615   6.173  29.512   5.387
 3708POPC   PO447616   6.195  30.164   5.143
 3708POPC   GL147617   5.949  29.931   5.568
 3708POPC   GL247618   6.173  29.761   5.817
 3708POPC   C1A47619   5.795  29.982   6.071
 3708POPC   D2A47620   5.753  29.808   6.527
 3708POPC   C3A47621   5.695  29.994   6.945
 3708POPC   C4A47622   5.863  30.077   7.378
 3708POPC   C1B47623   6.156  29.629   6.251
 3708POPC   C2B47624   6.222  29.750   6.711
 3708POPC   C3B47625   6.257  29.807   7.156
 3708POPC   C4B47626   6.139  29.689   7.588
 3709POPC   NC347627   9.328  36.974   5.472
 3709POPC   PO447628   8.739  36.655   5.466
 3709POPC   GL147629   8.896  36.933   5.809
 3709POPC   GL247630   9.232  37.043   5.962
 3709POPC   C1A47631   8.825  36.978   6.262
 3709POPC   D2A47632   9.069  37.114   6.613
 3709POPC   C3A47633   9.010  36.860   6.983
 3709POPC   C4A47634   9.015  36.991   7.404
 3709POPC   C1B47635   9.234  36.683   6.273
 3709POPC   C2B47636   9.004  36.471   6.622
 3709POPC   C3B47637   9.013  36.310   7.077
 3709POPC   C4B47638   9.204  36.505   7.483
 3710POPC   NC347639  39.560  43.060   5.448
 3710POPC   PO447640  39.016  43.380   5.533
 3710POPC   GL147641  39.188  43.065   5.820
 3710POPC   GL247642  39.546  43.051   5.949
 3710POPC   C1A47643  39.027  42.860   6.208
 3710POPC   D2A47644  39.135  42.605   6.595
 3710POPC   C3A47645  39.054  42.821   6.999
 3710POPC   C4A47646  38.955  43.088   7.345
 3710POPC   C1B47647  39.518  42.919   6.387
 3710POPC   C2B47648  39.573  42.772   6.824
 3710POPC   C3B47649  39.706  42.946   7.216
 3710POPC   C4B47650  39.536  43.308   7.434
 3711POPC   NC347651  12.083  43.682   5.268
 3711POPC   PO447652  11.984  44.254   5.652
 3711POPC   GL147653  12.039  43.914   5.899
 3711POPC   GL247654  12.239  43.657   5.759
 3711POPC   C1A47655  12.092  43.910   6.330
 3711POPC   D2A47656  12.121  43.668   6.676
 3711POPC   C3A47657  12.038  44.004   6.937
 3711POPC   C4A47658  12.307  44.082   7.231
 3711POPC   C1B47659  12.444  43.555   6.144
 3711POPC   C2B47660  12.656  43.681   6.535
 3711POPC   C3B47661  12.535  43.667   6.990
 3711POPC   C4B47662  12.573  43.391   7.327
 3712POPC   NC347663   7.467  40.508   5.545
 3712POPC   PO447664   7.396  41.038   5.072
 3712POPC   GL147665   7.299  40.989   5.603
 3712POPC   GL247666   7.638  40.944   5.790
 3712POPC   C1A47667   7.233  40.815   6.084
 3712POPC   D2A47668   7.097  40.925   6.536
 3712POPC   C3A47669   7.261  40.791   6.942
 3712POPC   C4A47670   7.192  40.915   7.375
 3712POPC   C1B47671   7.754  40.771   6.147
 3712POPC   C2B47672   7.619  40.819   6.553
 3712POPC   C3B47673   7.815  40.843   6.927
 3712POPC   C4B47674   7.658  40.719   7.289
 3713POPC   NC347675  16.453   2.574   5.538
 3713POPC   PO447676  15.761   2.687   5.448
 3713POPC   GL147677  16.002   2.740   5.816
 3713POPC   GL247678  16.276   3.022   5.756
 3713POPC   C1A47679  15.810   2.662   6.239
 3713POPC   D2A47680  15.701   2.922   6.607
 3713POPC   C3A47681  15.737   2.714   7.031
 3713POPC   C4A47682  15.428   2.656   7.351
 3713POPC   C1B47683  16.157   3.026   6.202
 3713POPC   C2B47684  16.203   2.853   6.608
 3713POPC   C3B47685  16.185   2.945   7.025
 3713POPC   C4B47686  16.301   2.863   7.414
 3714POPC   NC347687  34.235  18.313   5.272
 3714POPC   PO447688  33.565  18.270   5.503
 3714POPC   GL147689  33.627  18.322   5.969
 3714POPC   GL247690  33.971  18.297   6.016
 3714POPC   C1A47691  33.745  18.681   6.270
 3714POPC   D2A47692  33.938  18.694   6.687
 3714POPC   C3A47693  33.686  18.384   6.907
 3714POPC   C4A47694  33.547  18.092   7.213
 3714POPC   C1B47695  33.888  18.199   6.450
 3714POPC   C2B47696  34.157  18.177   6.813
 3714POPC   C3B47697  34.040  18.226   7.249
 3714POPC   C4B47698  34.218  18.098   7.611
 3715POPC   NC347699  30.168  15.801   5.450
 3715POPC   PO447700  29.885  16.405   5.346
 3715POPC   GL147701  29.972  16.189   5.741
 3715POPC   GL247702  29.807  15.891   5.799
 3715POPC   C1A47703  30.132  16.058   6.154
 3715POPC   D2A47704  30.030  15.736   6.453
 3715POPC   C3A47705  30.073  15.907   6.838
 3715POPC   C4A47706  29.939  15.804   7.247
 3715POPC   C1B47707  29.618  15.883   6.176
 3715POPC   C2B47708  29.510  15.655   6.532
 3715POPC   C3B47709  29.530  15.790   6.941
 3715POPC   C4B47710  29.384  15.593   7.310
 3716POPC   NC347711  25.584   6.565   5.557
 3716POPC   PO447712  26.208   6.214   5.480
 3716POPC   GL147713  26.121   6.627   5.736
 3716POPC   GL247714  25.891   6.555   6.018
 3716POPC   C1A47715  26.230   6.960   6.067
 3716POPC   D2A47716  26.016   6.897   6.481
 3716POPC   C3A47717  26.100   6.803   6.937
 3716POPC   C4A47718  25.773   6.628   7.167
 3716POPC   C1B47719  26.290   6.504   6.270
 3716POPC   C2B47720  26.514   6.620   6.674
 3716POPC   C3B47721  26.495   6.523   7.124
 3716POPC   C4B47722  26.261   6.706   7.504
 3717POPC   NC347723  13.021  44.884   5.136
 3717POPC   PO447724  13.023  44.448   5.615
 3717POPC   GL147725  12.940  44.699   5.940
 3717POPC   GL247726  12.631  44.833   5.814
 3717POPC   C1A47727  12.914  44.521   6.322
 3717POPC   D2A47728  12.714  44.534   6.704
 3717POPC   C3A47729  13.034  44.576   7.012
 3717POPC   C4A47730  13.165  44.503   7.465
 3717POPC   C1B47731  12.508  44.768   6.253
 3717POPC   C2B47732  12.393  44.955   6.645
 3717POPC   C3B47733  12.571  44.899   7.026
 3717POPC   C4B47734  12.629   0.073   7.391
 3718POPC   NC347735  39.207  41.111   5.466
 3718POPC   PO447736  38.986  41.796   5.405
 3718POPC   GL147737  39.329  41.717   5.743
 3718POPC   GL247738  39.295  41.382   5.873
 3718POPC   C1A47739  39.424  41.729   6.202
 3718POPC   D2A47740  39.219  41.619   6.576
 3718POPC   C3A47741  39.342  41.718   6.958
 3718POPC   C4A47742  39.062  41.844   7.218
 3718POPC   C1B47743  38.973  41.404   6.182
 3718POPC   C2B47744  38.917  41.225   6.607
 3718POPC   C3B47745  38.951  41.381   7.022
 3718POPC   C4B47746  38.931  41.385   7.496
 3719POPC   NC347747   1.109   7.996   5.547
 3719POPC   PO447748   1.083   8.685   5.383
 3719POPC   GL147749   1.089   8.470   5.803
 3719POPC   GL247750   1.414   8.300   5.889
 3719POPC   C1A47751   1.057   8.342   6.249
 3719POPC   D2A47752   1.299   8.466   6.617
 3719POPC   C3A47753   1.186   8.301   6.981
 3719POPC   C4A47754   0.965   8.201   7.336
 3719POPC   C1B47755   1.599   8.174   6.326
 3719POPC   C2B47756   1.551   8.020   6.736
 3719POPC   C3B47757   1.704   8.222   7.105
 3719POPC   C4B47758   1.441   8.261   7.446
 3720POPC   NC347759  10.438  11.171   5.489
 3720POPC   PO447760  10.153  11.788   5.446
 3720POPC   GL147761  10.337  11.573   5.806
 3720POPC   GL247762  10.705  11.480   5.795
 3720POPC   C1A47763  10.332  11.312   6.168
 3720POPC   D2A47764  10.129  11.434   6.549
 3720POPC   C3A47765  10.139  11.245   6.936
 3720POPC   C4A47766  10.439  11.290   7.284
 3720POPC   C1B47767  10.739  11.644   6.209
 3720POPC   C2B47768  10.668  11.418   6.573
 3720POPC   C3B47769  10.840  11.244   6.922
 3720POPC   C4B47770  10.871  11.538   7.159
 3721POPC   NC347771  38.101  30.608   5.160
 3721POPC   PO447772  37.460  30.615   5.230
 3721POPC   GL147773  37.720  30.764   5.645
 3721POPC   GL247774  37.685  30.504   5.885
 3721POPC   C1A47775  37.814  30.926   6.140
 3721POPC   D2A47776  38.036  31.099   6.538
 3721POPC   C3A47777  37.909  30.984   6.956
 3721POPC   C4A47778  37.843  30.987   7.373
 3721POPC   C1B47779  37.587  30.489   6.327
 3721POPC   C2B47780  37.606  30.606   6.757
 3721POPC   C3B47781  37.849  30.501   7.118
 3721POPC   C4B47782  37.570  30.402   7.404
 3722POPC   NC347783  26.863  18.025   5.198
 3722POPC   PO447784  26.416  18.433   5.401
 3722POPC   GL147785  26.596  18.207   5.765
 3722POPC   GL247786  26.367  17.911   5.799
 3722POPC   C1A47787  26.856  18.206   6.175
 3722POPC   D2A47788  27.047  18.376   6.561
 3722POPC   C3A47789  26.954  18.212   6.988
 3722POPC   C4A47790  27.115  18.469   7.325
 3722POPC   C1B47791  26.364  18.041   6.226
 3722POPC   C2B47792  26.594  18.091   6.615
 3722POPC   C3B47793  26.449  18.274   6.996
 3722POPC   C4B47794  26.603  18.180   7.388
 3723POPC   NC347795   3.033  27.534   5.452
 3723POPC   PO447796   2.424  27.197   5.380
 3723POPC   GL147797   2.651  27.327   5.755
 3723POPC   GL247798   2.596  27.715   5.804
 3723POPC   C1A47799   2.762  27.349   6.189
 3723POPC   D2A47800   2.804  27.733   6.432
 3723POPC   C3A47801   3.021  27.627   6.813
 3723POPC   C4A47802   2.778  27.462   7.178
 3723POPC   C1B47803   2.418  28.041   6.114
 3723POPC   C2B47804   2.288  28.016   6.559
 3723POPC   C3B47805   2.540  27.841   6.894
 3723POPC   C4B47806   2.874  27.962   7.178
 3724POPC   NC347807  15.264   2.501   5.450
 3724POPC   PO447808  15.203   3.182   5.208
 3724POPC   GL147809  15.253   2.962   5.675
 3724POPC   GL247810  15.077   2.664   5.900
 3724POPC   C1A47811  15.412   2.957   6.120
 3724POPC   D2A47812  15.183   2.871   6.505
 3724POPC   C3A47813  15.296   2.982   6.926
 3724POPC   C4A47814  14.991   2.900   7.226
 3724POPC   C1B47815  15.318   2.438   6.251
 3724POPC   C2B47816  15.429   2.457   6.715
 3724POPC   C3B47817  15.169   2.333   7.090
 3724POPC   C4B47818  14.917   2.443   7.473
 3725POPC   NC347819   5.360  42.114   5.339
 3725POPC   PO447820   4.921  42.516   5.518
 3725POPC   GL147821   5.255  42.344   5.776
 3725POPC   GL247822   4.991  42.189   5.939
 3725POPC   C1A47823   5.406  42.413   6.197
 3725POPC   D2A47824   5.120  42.298   6.507
 3725POPC   C3A47825   5.140  42.475   6.901
 3725POPC   C4A47826   5.199  42.372   7.294
 3725POPC   C1B47827   4.679  42.168   6.266
 3725POPC   C2B47828   4.612  42.271   6.705
 3725POPC   C3B47829   4.681  42.060   7.110
 3725POPC   C4B47830   4.744  42.172   7.548
 3726POPC   NC347831  25.334  16.053   5.104
 3726POPC   PO447832  24.849  15.879   5.494
 3726POPC   GL147833  25.070  16.043   5.823
 3726POPC   GL247834  25.383  15.931   5.762
 3726POPC   C1A47835  25.259  16.034   6.234
 3726POPC   D2A47836  25.370  16.188   6.587
 3726POPC   C3A47837  25.185  16.023   6.943
 3726POPC   C4A47838  25.259  16.139   7.389
 3726POPC   C1B47839  25.492  15.599   6.094
 3726POPC   C2B47840  25.594  15.610   6.534
 3726POPC   C3B47841  25.497  15.402   6.909
 3726POPC   C4B47842  25.483  15.690   7.226
 3727POPC   NC347843   3.324  38.052   5.472
 3727POPC   PO447844   3.451  38.868   5.360
 3727POPC   GL147845   3.591  38.696   5.793
 3727POPC   GL247846   3.796  38.382   5.894
 3727POPC   C1A47847   3.442  38.555   6.218
 3727POPC   D2A47848   3.420  38.332   6.617
 3727POPC   C3A47849   3.559  38.560   6.991
 3727POPC   C4A47850   3.275  38.894   7.132
 3727POPC   C1B47851   3.808  38.135   6.315
 3727POPC   C2B47852   3.872  38.150   6.790
 3727POPC   C3B47853   3.971  38.326   7.219
 3727POPC   C4B47854   3.826  38.585   7.612
 3728POPC   NC347855  14.575  42.671   5.397
 3728POPC   PO447856  14.346  42.006   5.455
 3728POPC   GL147857  14.533  42.255   5.758
 3728POPC   GL247858  14.237  42.400   5.878
 3728POPC   C1A47859  14.697  42.207   6.189
 3728POPC   D2A47860  14.879  42.368   6.591
 3728POPC   C3A47861  14.567  42.547   6.877
 3728POPC   C4A47862  14.365  42.323   7.191
 3728POPC   C1B47863  14.115  42.284   6.274
 3728POPC   C2B47864  14.330  42.200   6.632
 3728POPC   C3B47865  14.329  41.881   6.936
 3728POPC   C4B47866  13.967  41.870   7.176
 3729POPC   NC347867  11.458  14.669   5.393
 3729POPC   PO447868  11.044  14.149   5.404
 3729POPC   GL147869  11.150  14.312   5.827
 3729POPC   GL247870  11.495  14.310   5.792
 3729POPC   C1A47871  11.036  14.543   6.237
 3729POPC   D2A47872  10.822  14.530   6.660
 3729POPC   C3A47873  11.113  14.624   7.018
 3729POPC   C4A47874  11.320  14.385   7.337
 3729POPC   C1B47875  11.519  14.678   6.102
 3729POPC   C2B47876  11.683  14.653   6.530
 3729POPC   C3B47877  11.748  14.707   6.967
 3729POPC   C4B47878  11.625  14.820   7.370
 3730POPC   NC347879  15.697  25.827   5.375
 3730POPC   PO447880  15.902  26.431   5.191
 3730POPC   GL147881  15.926  26.239   5.665
 3730POPC   GL247882  16.045  25.943   5.731
 3730POPC   C1A47883  15.872  26.209   6.158
 3730POPC   D2A47884  16.137  26.199   6.572
 3730POPC   C3A47885  16.068  26.021   6.989
 3730POPC   C4A47886  15.951  25.912   7.439
 3730POPC   C1B47887  16.313  25.996   6.095
 3730POPC   C2B47888  16.298  25.718   6.449
 3730POPC   C3B47889  16.127  25.556   6.813
 3730POPC   C4B47890  16.271  25.581   7.237
 3731POPC   NC347891  32.856  35.188   5.191
 3731POPC   PO447892  33.278  35.621   5.426
 3731POPC   GL147893  32.941  35.419   5.756
 3731POPC   GL247894  32.844  35.055   5.719
 3731POPC   C1A47895  32.891  35.442   6.255
 3731POPC   D2A47896  33.143  35.599   6.667
 3731POPC   C3A47897  33.032  35.626   7.144
 3731POPC   C4A47898  33.192  35.788   7.588
 3731POPC   C1B47899  33.202  35.075   6.032
 3731POPC   C2B47900  33.151  35.076   6.512
 3731POPC   C3B47901  32.919  35.176   6.882
 3731POPC   C4B47902  33.034  35.138   7.319
 3732POPC   NC347903  44.981   8.168   5.516
 3732POPC   PO447904  44.335   8.369   5.573
 3732POPC   GL147905  44.645   8.236   5.895
 3732POPC   GL247906  44.812   7.890   5.890
 3732POPC   C1A47907  44.792   8.203   6.304
 3732POPC   D2A47908  44.506   8.256   6.605
 3732POPC   C3A47909  44.566   8.598   6.845
 3732POPC   C4A47910  44.520   8.407   7.221
 3732POPC   C1B47911  44.500   7.797   6.197
 3732POPC   C2B47912  44.689   7.766   6.586
 3732POPC   C3B47913  44.600   7.929   6.998
 3732POPC   C4B47914  44.959   8.130   7.183
 3733POPC   NC347915   8.816  28.941   5.462
 3733POPC   PO447916   8.727  28.249   5.306
 3733POPC   GL147917   8.874  28.316   5.732
 3733POPC   GL247918   8.651  28.590   5.813
 3733POPC   C1A47919   9.043  28.298   6.180
 3733POPC   D2A47920   9.117  28.457   6.610
 3733POPC   C3A47921   9.025  28.114   6.890
 3733POPC   C4A47922   8.978  28.045   7.325
 3733POPC   C1B47923   8.602  28.777   6.220
 3733POPC   C2B47924   8.733  28.845   6.646
 3733POPC   C3B47925   8.796  28.592   6.992
 3733POPC   C4B47926   9.181  28.518   7.200
 3734POPC   NC347927  17.226  30.990   5.349
 3734POPC   PO447928  16.656  30.662   5.147
 3734POPC   GL147929  16.715  30.839   5.648
 3734POPC   GL247930  17.026  30.949   5.835
 3734POPC   C1A47931  16.569  30.948   6.108
 3734POPC   D2A47932  16.613  30.741   6.551
 3734POPC   C3A47933  16.629  30.747   7.024
 3734POPC   C4A47934  16.552  30.520   7.426
 3734POPC   C1B47935  16.933  30.576   6.136
 3734POPC   C2B47936  17.096  30.529   6.552
 3734POPC   C3B47937  17.132  30.780   6.925
 3734POPC   C4B47938  17.020  30.829   7.355
 3735POPC   NC347939  33.824  29.466   5.337
 3735POPC   PO447940  33.798  28.831   5.550
 3735POPC   GL147941  33.992  29.043   5.871
 3735POPC   GL247942  33.879  29.388   5.871
 3735POPC   C1A47943  33.897  29.012   6.310
 3735POPC   D2A47944  33.569  29.111   6.619
 3735POPC   C3A47945  33.742  29.104   7.033
 3735POPC   C4A47946  34.155  28.889   6.979
 3735POPC   C1B47947  33.744  29.498   6.299
 3735POPC   C2B47948  33.942  29.452   6.700
 3735POPC   C3B47949  33.904  29.575   7.134
 3735POPC   C4B47950  33.665  29.424   7.496
 3736POPC   NC347951  10.910  12.887   5.393
 3736POPC   PO447952  10.295  12.727   5.296
 3736POPC   GL147953  10.413  12.932   5.713
 3736POPC   GL247954  10.707  13.131   5.779
 3736POPC   C1A47955  10.522  12.846   6.171
 3736POPC   D2A47956  10.403  12.996   6.564
 3736POPC   C3A47957  10.301  12.776   6.929
 3736POPC   C4A47958  10.173  13.026   7.269
 3736POPC   C1B47959  10.911  13.172   6.198
 3736POPC   C2B47960  10.917  13.017   6.614
 3736POPC   C3B47961  11.000  13.031   7.024
 3736POPC   C4B47962  10.671  12.907   7.238
 3737POPC   NC347963  31.540   4.723   5.444
 3737POPC   PO447964  31.491   4.062   5.394
 3737POPC   GL147965  31.372   4.366   5.760
 3737POPC   GL247966  31.513   4.198   6.007
 3737POPC   C1A47967  31.162   4.458   6.205
 3737POPC   D2A47968  31.351   4.319   6.596
 3737POPC   C3A47969  31.113   4.457   6.961
 3737POPC   C4A47970  31.220   4.699   7.351
 3737POPC   C1B47971  31.740   4.506   6.223
 3737POPC   C2B47972  31.758   4.648   6.662
 3737POPC   C3B47973  31.612   4.541   7.058
 3737POPC   C4B47974  31.807   4.314   7.397
 3738POPC   NC347975  36.117  16.857   5.496
 3738POPC   PO447976  36.343  16.161   5.546
 3738POPC   GL147977  36.222  16.517   5.845
 3738POPC   GL247978  36.419  16.874   5.871
 3738POPC   C1A47979  36.059  16.727   6.215
 3738POPC   D2A47980  35.784  16.777   6.567
 3738POPC   C3A47981  36.006  16.622   6.899
 3738POPC   C4A47982  36.047  16.877   7.214
 3738POPC   C1B47983  36.576  16.856   6.205
 3738POPC   C2B47984  36.436  16.718   6.589
 3738POPC   C3B47985  36.502  16.862   6.990
 3738POPC   C4B47986  36.493  16.787   7.432
 3739POPC   NC347987  27.613  40.266   5.476
 3739POPC   PO447988  27.413  39.612   5.456
 3739POPC   GL147989  27.717  39.832   5.764
 3739POPC   GL247990  27.486  40.026   5.926
 3739POPC   C1A47991  27.949  39.941   6.159
 3739POPC   D2A47992  27.853  39.836   6.593
 3739POPC   C3A47993  27.935  40.146   6.899
 3739POPC   C4A47994  27.659  40.103   7.252
 3739POPC   C1B47995  27.289  40.394   6.093
 3739POPC   C2B47996  27.416  40.601   6.462
 3739POPC   C3B47997  27.498  40.429   6.852
 3739POPC   C4B47998  27.303  40.470   7.219
 3740POPC   NC347999  18.033  30.205   5.266
 3740POPC   PO448000  18.471  29.762   5.406
 3740POPC   GL148001  18.208  29.935   5.748
 3740POPC   GL248002  18.407  30.213   5.734
 3740POPC   C1A48003  18.083  29.825   6.201
 3740POPC   D2A48004  17.933  29.655   6.619
 3740POPC   C3A48005  18.202  29.712   6.960
 3740POPC   C4A48006  18.143  29.790   7.385
 3740POPC   C1B48007  18.564  30.028   6.140
 3740POPC   C2B48008  18.397  30.009   6.577
 3740POPC   C3B48009  18.450  30.153   7.026
 3740POPC   C4B48010  18.262  30.264   7.428
 3741POPC   NC348011   8.477  10.101   5.510
 3741POPC   PO448012   8.195  10.786   5.503
 3741POPC   GL148013   8.203  10.460   5.760
 3741POPC   GL248014   7.906  10.282   5.667
 3741POPC   C1A48015   8.395  10.455   6.159
 3741POPC   D2A48016   8.389  10.793   6.472
 3741POPC   C3A48017   8.360  10.566   6.850
 3741POPC   C4A48018   8.373  10.707   7.238
 3741POPC   C1B48019   7.872  10.275   6.124
 3741POPC   C2B48020   8.116  10.156   6.482
 3741POPC   C3B48021   8.018  10.176   6.879
 3741POPC   C4B48022   8.285  10.171   7.222
 3742POPC   NC348023  13.354  41.560   5.657
 3742POPC   PO448024  12.832  41.481   5.272
 3742POPC   GL148025  12.751  41.559   5.758
 3742POPC   GL248026  12.945  41.349   5.947
 3742POPC   C1A48027  12.547  41.732   6.148
 3742POPC   D2A48028  12.619  41.921   6.541
 3742POPC   C3A48029  12.724  41.587   6.831
 3742POPC   C4A48030  12.741  41.499   7.272
 3742POPC   C1B48031  12.945  41.403   6.387
 3742POPC   C2B48032  13.077  41.183   6.747
 3742POPC   C3B48033  13.220  41.435   7.075
 3742POPC   C4B48034  13.225  41.454   7.552
 3743POPC   NC348035  26.908   7.462   5.379
 3743POPC   PO448036  26.287   7.485   5.317
 3743POPC   GL148037  26.594   7.223   5.698
 3743POPC   GL248038  26.971   7.275   5.840
 3743POPC   C1A48039  26.606   7.294   6.178
 3743POPC   D2A48040  26.645   7.573   6.557
 3743POPC   C3A48041  26.689   7.412   7.008
 3743POPC   C4A48042  26.397   7.134   7.236
 3743POPC   C1B48043  27.105   7.485   6.253
 3743POPC   C2B48044  27.122   7.620   6.700
 3743POPC   C3B48045  27.182   7.495   7.095
 3743POPC   C4B48046  27.122   7.179   7.366
 3744POPC   NC348047  44.179   2.674   5.409
 3744POPC   PO448048  43.685   3.095   5.263
 3744POPC   GL148049  43.784   2.782   5.704
 3744POPC   GL248050  43.534   2.587   5.885
 3744POPC   C1A48051  44.100   2.736   6.080
 3744POPC   D2A48052  44.107   2.986   6.488
 3744POPC   C3A48053  44.209   2.826   6.907
 3744POPC   C4A48054  44.019   2.659   7.270
 3744POPC   C1B48055  43.639   2.776   6.291
 3744POPC   C2B48056  43.749   2.658   6.721
 3744POPC   C3B48057  43.549   2.654   7.129
 3744POPC   C4B48058  43.563   2.348   7.491
 3745POPC   NC348059  40.819   7.614   5.397
 3745POPC   PO448060  40.344   7.044   5.427
 3745POPC   GL148061  40.613   7.309   5.776
 3745POPC   GL248062  40.625   7.668   5.884
 3745POPC   C1A48063  40.956   7.393   6.140
 3745POPC   D2A48064  40.846   7.380   6.603
 3745POPC   C3A48065  41.046   7.461   6.997
 3745POPC   C4A48066  41.250   7.101   7.163
 3745POPC   C1B48067  40.472   7.486   6.250
 3745POPC   C2B48068  40.446   7.703   6.617
 3745POPC   C3B48069  40.520   7.500   7.010
 3745POPC   C4B48070  40.482   7.599   7.417
 3746POPC   NC348071   1.799  43.813   5.409
 3746POPC   PO448072   2.473  43.547   5.493
 3746POPC   GL148073   2.221  43.792   5.839
 3746POPC   GL248074   1.893  43.980   5.870
 3746POPC   C1A48075   2.080  43.810   6.305
 3746POPC   D2A48076   1.912  44.085   6.630
 3746POPC   C3A48077   2.129  44.083   7.026
 3746POPC   C4A48078   2.271  43.767   7.300
 3746POPC   C1B48079   1.594  43.769   6.121
 3746POPC   C2B48080   1.605  43.673   6.559
 3746POPC   C3B48081   1.792  43.679   6.991
 3746POPC   C4B48082   1.783  43.872   7.405
 3747POPC   NC348083  36.761  38.199   5.336
 3747POPC   PO448084  36.609  38.887   5.435
 3747POPC   GL148085  36.756  38.663   5.820
 3747POPC   GL248086  37.066  38.510   5.765
 3747POPC   C1A48087  36.672  38.454   6.238
 3747POPC   D2A48088  36.480  38.652   6.571
 3747POPC   C3A48089  36.713  38.827   6.879
 3747POPC   C4A48090  36.808  38.562   7.221
 3747POPC   C1B48091  37.167  38.451   6.199
 3747POPC   C2B48092  37.039  38.530   6.617
 3747POPC   C3B48093  37.257  38.411   6.976
 3747POPC   C4B48094  37.397  38.372   7.355
 3748POPC   NC348095  34.543  20.720   5.394
 3748POPC   PO448096  34.277  20.236   5.776
 3748POPC   GL148097  34.578  20.544   5.919
 3748POPC   GL248098  34.564  20.903   5.869
 3748POPC   C1A48099  34.677  20.528   6.358
 3748POPC   D2A48100  34.480  20.632   6.739
 3748POPC   C3A48101  34.587  20.471   7.139
 3748POPC   C4A48102  34.428  20.364   7.556
 3748POPC   C1B48103  34.839  21.001   6.240
 3748POPC   C2B48104  34.906  20.909   6.682
 3748POPC   C3B48105  34.754  20.958   7.111
 3748POPC   C4B48106  34.611  20.820   7.538
 3749POPC   NC348107  17.099  15.830   5.609
 3749POPC   PO448108  16.490  16.249   5.420
 3749POPC   GL148109  16.760  16.167   5.772
 3749POPC   GL248110  16.696  15.816   5.941
 3749POPC   C1A48111  16.993  16.143   6.180
 3749POPC   D2A48112  16.848  15.941   6.535
 3749POPC   C3A48113  17.039  16.104   6.897
 3749POPC   C4A48114  16.984  16.088   7.350
 3749POPC   C1B48115  16.449  15.675   6.308
 3749POPC   C2B48116  16.523  15.570   6.753
 3749POPC   C3B48117  16.826  15.652   7.094
 3749POPC   C4B48118  16.661  15.702   7.528
 3750POPC   NC348119  26.954   2.134   5.377
 3750POPC   PO448120  26.433   1.725   5.424
 3750POPC   GL148121  26.711   1.807   5.813
 3750POPC   GL248122  27.005   2.026   5.876
 3750POPC   C1A48123  26.645   1.983   6.275
 3750POPC   D2A48124  26.817   1.844   6.701
 3750POPC   C3A48125  26.682   1.832   7.136
 3750POPC   C4A48126  26.952   1.794   7.519
 3750POPC   C1B48127  27.113   2.183   6.297
 3750POPC   C2B48128  26.858   2.346   6.641
 3750POPC   C3B48129  26.932   2.284   7.074
 3750POPC   C4B48130  27.239   2.198   7.388
 3751POPC   NC348131  29.830  44.347   5.558
 3751POPC   PO448132  29.653  44.889   5.185
 3751POPC   GL148133  29.741  44.918   5.661
 3751POPC   GL248134  30.080  44.855   5.754
 3751POPC   C1A48135  29.678  44.868   6.132
 3751POPC   D2A48136  29.542  44.948   6.596
 3751POPC   C3A48137  29.763  44.749   6.980
 3751POPC   C4A48138  29.823  44.557   7.451
 3751POPC   C1B48139  30.179   0.057   6.176
 3751POPC   C2B48140  30.086   0.048   6.653
 3751POPC   C3B48141  30.231  44.908   7.109
 3751POPC   C4B48142  30.309  44.472   7.326
 3752POPC   NC348143   3.983  29.863   5.238
 3752POPC   PO448144   4.599  29.784   5.474
 3752POPC   GL148145   4.307  29.708   5.757
 3752POPC   GL248146   4.179  30.042   5.749
 3752POPC   C1A48147   4.423  29.659   6.172
 3752POPC   D2A48148   4.241  29.550   6.545
 3752POPC   C3A48149   4.317  29.805   6.898
 3752POPC   C4A48150   4.287  29.678   7.321
 3752POPC   C1B48151   4.174  30.119   6.211
 3752POPC   C2B48152   3.927  29.950   6.567
 3752POPC   C3B48153   3.867  30.062   7.001
 3752POPC   C4B48154   4.052  30.119   7.431
 3753POPC   NC348155  16.290  26.127   5.292
 3753POPC   PO448156  16.890  25.928   5.319
 3753POPC   GL148157  16.676  26.116   5.702
 3753POPC   GL248158  16.517  25.778   5.666
 3753POPC   C1A48159  16.725  26.306   6.161
 3753POPC   D2A48160  16.669  26.070   6.559
 3753POPC   C3A48161  16.635  26.246   6.985
 3753POPC   C4A48162  16.379  26.176   7.374
 3753POPC   C1B48163  16.686  25.668   6.066
 3753POPC   C2B48164  16.793  25.551   6.477
 3753POPC   C3B48165  16.633  25.627   6.859
 3753POPC   C4B48166  16.714  25.811   7.246
 3754POPC   NC348167  24.116  16.892   4.992
 3754POPC   PO448168  24.714  16.759   5.350
 3754POPC   GL148169  24.567  16.775   5.784
 3754POPC   GL248170  24.517  17.124   5.876
 3754POPC   C1A48171  24.687  16.803   6.224
 3754POPC   D2A48172  24.496  16.736   6.606
 3754POPC   C3A48173  24.764  16.806   6.970
 3754POPC   C4A48174  24.704  16.669   7.377
 3754POPC   C1B48175  24.197  16.930   6.175
 3754POPC   C2B48176  23.999  16.948   6.598
 3754POPC   C3B48177  24.133  16.806   6.985
 3754POPC   C4B48178  24.379  17.057   7.224
 3755POPC   NC348179   6.938  17.979   5.729
 3755POPC   PO448180   6.443  18.422   5.460
 3755POPC   GL148181   6.638  18.418   5.853
 3755POPC   GL248182   6.541  18.113   6.013
 3755POPC   C1A48183   6.555  18.571   6.276
 3755POPC   D2A48184   6.499  18.340   6.666
 3755POPC   C3A48185   6.563  18.500   7.073
 3755POPC   C4A48186   6.281  18.505   7.403
 3755POPC   C1B48187   6.862  18.159   6.348
 3755POPC   C2B48188   7.077  18.129   6.746
 3755POPC   C3B48189   6.962  18.176   7.176
 3755POPC   C4B48190   7.038  17.943   7.536
 3756POPC   NC348191  23.276  16.908   5.534
 3756POPC   PO448192  22.861  16.629   5.088
 3756POPC   GL148193  22.767  16.848   5.514
 3756POPC   GL248194  22.915  16.599   5.750
 3756POPC   C1A48195  22.740  17.017   5.981
 3756POPC   D2A48196  22.965  16.823   6.361
 3756POPC   C3A48197  22.859  16.866   6.809
 3756POPC   C4A48198  23.078  16.855   7.196
 3756POPC   C1B48199  22.785  16.396   6.141
 3756POPC   C2B48200  22.947  16.278   6.534
 3756POPC   C3B48201  22.846  16.376   6.936
 3756POPC   C4B48202  22.984  16.382   7.344
 3757POPC   NC348203  43.206  12.663   5.478
 3757POPC   PO448204  42.828  13.261   5.411
 3757POPC   GL148205  42.997  13.055   5.765
 3757POPC   GL248206  43.374  12.998   5.853
 3757POPC   C1A48207  42.952  12.867   6.157
 3757POPC   D2A48208  43.160  12.921   6.533
 3757POPC   C3A48209  42.884  12.978   6.844
 3757POPC   C4A48210  42.963  13.039   7.248
 3757POPC   C1B48211  43.421  12.639   6.182
 3757POPC   C2B48212  43.395  12.453   6.603
 3757POPC   C3B48213  43.270  12.652   6.989
 3757POPC   C4B48214  43.217  12.606   7.435
 3758POPC   NC348215  12.427  17.869   5.219
 3758POPC   PO448216  12.141  18.403   5.457
 3758POPC   GL148217  12.088  18.140   5.794
 3758POPC   GL248218  12.432  18.072   5.730
 3758POPC   C1A48219  11.958  18.177   6.231
 3758POPC   D2A48220  12.049  18.386   6.600
 3758POPC   C3A48221  12.036  18.162   6.961
 3758POPC   C4A48222  11.782  18.313   7.264
 3758POPC   C1B48223  12.451  18.302   6.118
 3758POPC   C2B48224  12.556  18.237   6.530
 3758POPC   C3B48225  12.493  18.399   6.907
 3758POPC   C4B48226  12.267  18.533   7.279
 3759POPC   NC348227  28.028  37.885   5.622
 3759POPC   PO448228  28.608  37.571   5.446
 3759POPC   GL148229  28.438  37.655   5.853
 3759POPC   GL248230  28.090  37.608   6.035
 3759POPC   C1A48231  28.542  37.660   6.274
 3759POPC   D2A48232  28.291  37.604   6.625
 3759POPC   C3A48233  28.570  37.794   6.880
 3759POPC   C4A48234  28.555  37.732   7.295
 3759POPC   C1B48235  28.169  37.999   6.273
 3759POPC   C2B48236  28.158  38.095   6.701
 3759POPC   C3B48237  28.097  37.847   7.101
 3759POPC   C4B48238  28.044  37.754   7.563
 3760POPC   NC348239  21.695  24.077   5.617
 3760POPC   PO448240  21.138  23.732   5.388
 3760POPC   GL148241  21.190  23.611   5.813
 3760POPC   GL248242  21.248  23.939   5.868
 3760POPC   C1A48243  21.416  23.634   6.231
 3760POPC   D2A48244  21.327  23.782   6.662
 3760POPC   C3A48245  21.339  23.487   7.015
 3760POPC   C4A48246  21.472  23.551   7.439
 3760POPC   C1B48247  21.109  24.073   6.264
 3760POPC   C2B48248  20.905  24.081   6.667
 3760POPC   C3B48249  20.993  23.891   7.049
 3760POPC   C4B48250  21.419  24.052   7.130
 3761POPC   NC348251  37.349  21.172   5.389
 3761POPC   PO448252  36.683  21.288   5.380
 3761POPC   GL148253  36.941  21.416   5.772
 3761POPC   GL248254  36.770  21.199   5.938
 3761POPC   C1A48255  36.827  21.591   6.253
 3761POPC   D2A48256  36.991  21.484   6.679
 3761POPC   C3A48257  36.828  21.668   7.054
 3761POPC   C4A48258  36.964  21.900   7.423
 3761POPC   C1B48259  37.135  21.205   6.252
 3761POPC   C2B48260  37.295  21.064   6.668
 3761POPC   C3B48261  37.152  21.141   7.092
 3761POPC   C4B48262  37.176  21.005   7.520
 3762POPC   NC348263  24.095  24.526   5.618
 3762POPC   PO448264  24.715  24.239   5.574
 3762POPC   GL148265  24.600  24.309   5.955
 3762POPC   GL248266  24.670  23.977   6.067
 3762POPC   C1A48267  24.391  24.563   6.284
 3762POPC   D2A48268  24.209  24.782   6.652
 3762POPC   C3A48269  24.171  24.590   7.066
 3762POPC   C4A48270  24.476  24.743   7.364
 3762POPC   C1B48271  24.762  24.239   6.423
 3762POPC   C2B48272  24.519  24.348   6.762
 3762POPC   C3B48273  24.605  24.307   7.185
 3762POPC   C4B48274  24.718  24.218   7.619
 3763POPC   NC348275  15.247  33.591   5.416
 3763POPC   PO448276  14.895  34.208   5.420
 3763POPC   GL148277  15.168  34.020   5.738
 3763POPC   GL248278  14.951  33.749   5.828
 3763POPC   C1A48279  15.305  33.991   6.187
 3763POPC   D2A48280  15.205  33.740   6.547
 3763POPC   C3A48281  15.213  33.953   6.921
 3763POPC   C4A48282  14.985  34.205   7.214
 3763POPC   C1B48283  14.900  33.412   6.117
 3763POPC   C2B48284  14.957  33.283   6.532
 3763POPC   C3B48285  14.817  33.454   6.963
 3763POPC   C4B48286  14.894  33.731   7.316
 3764POPC   NC348287   3.074  20.830   5.384
 3764POPC   PO448288   3.829  20.770   5.397
 3764POPC   GL148289   3.525  20.691   5.690
 3764POPC   GL248290   3.413  21.003   5.718
 3764POPC   C1A48291   3.475  20.628   6.144
 3764POPC   D2A48292   3.704  20.529   6.533
 3764POPC   C3A48293   3.411  20.458   6.877
 3764POPC   C4A48294   3.382  20.626   7.282
 3764POPC   C1B48295   3.698  21.137   6.037
 3764POPC   C2B48296   3.687  21.056   6.472
 3764POPC   C3B48297   3.693  20.895   6.909
 3764POPC   C4B48298   3.838  20.898   7.339
 3765POPC   NC348299  22.630  17.772   5.588
 3765POPC   PO448300  23.170  17.381   5.395
 3765POPC   GL148301  23.003  17.488   5.788
 3765POPC   GL248302  23.042  17.836   5.903
 3765POPC   C1A48303  23.021  17.448   6.224
 3765POPC   D2A48304  23.102  17.258   6.593
 3765POPC   C3A48305  22.979  17.401   6.957
 3765POPC   C4A48306  23.143  17.333   7.341
 3765POPC   C1B48307  22.706  17.879   6.254
 3765POPC   C2B48308  22.642  17.758   6.698
 3765POPC   C3B48309  22.629  17.711   7.154
 3765POPC   C4B48310  22.647  17.935   7.558
 3766POPC   NC348311  42.007  31.705   5.443
 3766POPC   PO448312  42.483  31.259   5.416
 3766POPC   GL148313  42.325  31.497   5.797
 3766POPC   GL248314  41.997  31.635   5.943
 3766POPC   C1A48315  42.349  31.313   6.219
 3766POPC   D2A48316  42.677  31.305   6.533
 3766POPC   C3A48317  42.502  31.161   6.958
 3766POPC   C4A48318  42.162  31.190   7.238
 3766POPC   C1B48319  42.174  31.799   6.332
 3766POPC   C2B48320  42.205  31.590   6.750
 3766POPC   C3B48321  41.907  31.659   7.100
 3766POPC   C4B48322  41.963  31.881   7.494
 3767POPC   NC348323   2.493  21.690   5.283
 3767POPC   PO448324   3.027  21.282   5.489
 3767POPC   GL148325   2.835  21.206   5.877
 3767POPC   GL248326   2.525  21.349   5.780
 3767POPC   C1A48327   2.896  21.444   6.306
 3767POPC   D2A48328   2.834  21.582   6.735
 3767POPC   C3A48329   3.064  21.524   7.078
 3767POPC   C4A48330   2.904  21.286   7.371
 3767POPC   C1B48331   2.404  21.553   6.179
 3767POPC   C2B48332   2.340  21.452   6.614
 3767POPC   C3B48333   2.480  21.427   7.041
 3767POPC   C4B48334   2.639  21.706   7.308
 3768POPC   NC348335  39.721   8.876   5.508
 3768POPC   PO448336  40.438   8.722   5.421
 3768POPC   GL148337  40.227   8.891   5.805
 3768POPC   GL248338  39.978   9.151   5.844
 3768POPC   C1A48339  40.057   8.785   6.239
 3768POPC   D2A48340  40.060   8.561   6.638
 3768POPC   C3A48341  40.090   8.810   7.001
 3768POPC   C4A48342  39.933   8.659   7.360
 3768POPC   C1B48343  39.707   9.144   6.235
 3768POPC   C2B48344  39.738   9.034   6.695
 3768POPC   C3B48345  39.645   9.320   7.063
 3768POPC   C4B48346  39.872   9.171   7.387
 3769POPC   NC348347  13.331  18.474   5.365
 3769POPC   PO448348  13.649  17.904   5.550
 3769POPC   GL148349  13.466  18.215   5.801
 3769POPC   GL248350  13.595  18.544   5.798
 3769POPC   C1A48351  13.353  18.360   6.205
 3769POPC   D2A48352  13.581  18.249   6.545
 3769POPC   C3A48353  13.487  18.142   6.924
 3769POPC   C4A48354  13.374  18.305   7.255
 3769POPC   C1B48355  13.867  18.494   6.160
 3769POPC   C2B48356  13.897  18.642   6.580
 3769POPC   C3B48357  13.818  18.536   6.989
 3769POPC   C4B48358  14.139  18.598   7.283
 3770POPC   NC348359   1.621  24.799   5.497
 3770POPC   PO448360   1.154  24.351   5.319
 3770POPC   GL148361   1.231  24.479   5.711
 3770POPC   GL248362   1.267  24.142   5.824
 3770POPC   C1A48363   1.338  24.764   6.050
 3770POPC   D2A48364   1.208  24.784   6.424
 3770POPC   C3A48365   1.420  24.727   6.789
 3770POPC   C4A48366   1.301  24.619   7.184
 3770POPC   C1B48367   1.348  24.293   6.232
 3770POPC   C2B48368   1.118  24.320   6.596
 3770POPC   C3B48369   1.125  24.181   6.986
 3770POPC   C4B48370   1.038  24.096   7.408
 3771POPC   NC348371  38.227  32.044   5.488
 3771POPC   PO448372  38.121  32.686   5.456
 3771POPC   GL148373  38.442  32.394   5.772
 3771POPC   GL248374  38.835  32.378   5.856
 3771POPC   C1A48375  38.493  32.355   6.236
 3771POPC   D2A48376  38.245  32.388   6.634
 3771POPC   C3A48377  38.362  32.568   7.028
 3771POPC   C4A48378  38.600  32.455   7.385
 3771POPC   C1B48379  38.924  32.092   6.225
 3771POPC   C2B48380  38.657  31.959   6.571
 3771POPC   C3B48381  38.584  32.098   6.981
 3771POPC   C4B48382  38.860  32.010   7.292
 3772POPC   NC348383  14.207  10.278   5.421
 3772POPC   PO448384  14.765  10.705   5.425
 3772POPC   GL148385  14.461  10.603   5.724
 3772POPC   GL248386  14.560  10.282   5.842
 3772POPC   C1A48387  14.369  10.744   6.125
 3772POPC   D2A48388  14.557  10.593   6.507
 3772POPC   C3A48389  14.447  10.754   6.906
 3772POPC   C4A48390  14.071  10.665   7.136
 3772POPC   C1B48391  14.609  10.058   6.252
 3772POPC   C2B48392  14.453  10.131   6.676
 3772POPC   C3B48393  14.392  10.226   7.103
 3772POPC   C4B48394  14.505  10.124   7.513
 3773POPC   NC348395  33.160   2.676   5.413
 3773POPC   PO448396  33.824   2.743   5.290
 3773POPC   GL148397  33.845   2.711   5.764
 3773POPC   GL248398  34.153   2.750   5.923
 3773POPC   C1A48399  33.716   2.624   6.210
 3773POPC   D2A48400  33.710   2.830   6.612
 3773POPC   C3A48401  33.695   2.619   7.003
 3773POPC   C4A48402  33.698   2.794   7.431
 3773POPC   C1B48403  34.106   2.942   6.287
 3773POPC   C2B48404  34.222   2.807   6.673
 3773POPC   C3B48405  34.021   3.010   7.009
 3773POPC   C4B48406  34.173   2.955   7.376
 3774POPC   NC348407  12.559  31.298   5.189
 3774POPC   PO448408  11.916  31.582   5.322
 3774POPC   GL148409  11.923  31.667   5.804
 3774POPC   GL248410  12.285  31.666   5.782
 3774POPC   C1A48411  11.881  31.644   6.299
 3774POPC   D2A48412  11.960  31.344   6.678
 3774POPC   C3A48413  12.008  31.569   7.089
 3774POPC   C4A48414  12.070  31.676   7.548
 3774POPC   C1B48415  12.301  31.393   6.138
 3774POPC   C2B48416  12.426  31.525   6.531
 3774POPC   C3B48417  12.477  31.468   6.949
 3774POPC   C4B48418  12.520  31.656   7.347
 3775POPC   NC348419   9.642   6.453   5.428
 3775POPC   PO448420   9.188   7.060   5.484
 3775POPC   GL148421   9.498   6.873   5.851
 3775POPC   GL248422   9.840   6.659   5.848
 3775POPC   C1A48423   9.675   6.768   6.302
 3775POPC   D2A48424   9.447   6.764   6.693
 3775POPC   C3A48425   9.593   6.628   7.105
 3775POPC   C4A48426   9.564   6.899   7.472
 3775POPC   C1B48427  10.119   6.485   6.204
 3775POPC   C2B48428  10.210   6.702   6.582
 3775POPC   C3B48429  10.079   6.679   7.003
 3775POPC   C4B48430  10.021   6.650   7.446
 3776POPC   NC348431  27.613  18.643   5.354
 3776POPC   PO448432  27.115  19.108   5.373
 3776POPC   GL148433  27.424  19.278   5.691
 3776POPC   GL248434  27.744  19.137   5.839
 3776POPC   C1A48435  27.414  19.336   6.158
 3776POPC   D2A48436  27.585  19.149   6.543
 3776POPC   C3A48437  27.310  19.155   6.927
 3776POPC   C4A48438  27.327  18.959   7.331
 3776POPC   C1B48439  27.751  18.783   6.112
 3776POPC   C2B48440  27.782  18.649   6.544
 3776POPC   C3B48441  27.659  18.764   6.961
 3776POPC   C4B48442  27.628  18.532   7.345
 3777POPC   NC348443  28.003  12.415   5.522
 3777POPC   PO448444  28.228  11.804   5.501
 3777POPC   GL148445  28.359  11.884   5.896
 3777POPC   GL248446  28.321  12.242   5.901
 3777POPC   C1A48447  28.299  11.930   6.338
 3777POPC   D2A48448  28.220  12.089   6.730
 3777POPC   C3A48449  28.541  12.172   7.005
 3777POPC   C4A48450  28.341  11.975   7.305
 3777POPC   C1B48451  28.018  12.387   6.245
 3777POPC   C2B48452  27.993  12.552   6.697
 3777POPC   C3B48453  28.096  12.415   7.147
 3777POPC   C4B48454  28.099  12.621   7.557
 3778POPC   NC348455  40.253  43.507   5.368
 3778POPC   PO448456  40.265  42.782   5.394
 3778POPC   GL148457  40.036  42.981   5.742
 3778POPC   GL248458  39.958  43.336   5.756
 3778POPC   C1A48459  40.083  43.091   6.200
 3778POPC   D2A48460  39.961  43.063   6.629
 3778POPC   C3A48461  40.214  43.057   6.988
 3778POPC   C4A48462  40.188  42.868   7.412
 3778POPC   C1B48463  39.750  43.486   6.134
 3778POPC   C2B48464  39.869  43.572   6.556
 3778POPC   C3B48465  39.795  43.406   6.984
 3778POPC   C4B48466  40.034  43.352   7.366
 3779POPC   NC348467  32.586  19.165   5.087
 3779POPC   PO448468  33.216  18.976   5.281
 3779POPC   GL148469  33.125  19.182   5.698
 3779POPC   GL248470  32.986  18.906   5.847
 3779POPC   C1A48471  32.976  19.297   6.168
 3779POPC   D2A48472  32.901  19.092   6.608
 3779POPC   C3A48473  32.991  19.263   7.028
 3779POPC   C4A48474  33.117  19.009   7.429
 3779POPC   C1B48475  33.241  18.826   6.221
 3779POPC   C2B48476  33.412  18.836   6.635
 3779POPC   C3B48477  33.323  18.750   7.039
 3779POPC   C4B48478  33.442  18.580   7.409
 3780POPC   NC348479  10.177  37.502   5.453
 3780POPC   PO448480  10.837  37.388   5.386
 3780POPC   GL148481  10.691  37.499   5.809
 3780POPC   GL248482  10.384  37.736   5.851
 3780POPC   C1A48483  10.754  37.736   6.210
 3780POPC   D2A48484  10.477  37.767   6.555
 3780POPC   C3A48485  10.686  37.756   6.912
 3780POPC   C4A48486  10.504  37.825   7.281
 3780POPC   C1B48487  10.318  37.434   6.188
 3780POPC   C2B48488  10.131  37.384   6.626
 3780POPC   C3B48489  10.308  37.397   7.045
 3780POPC   C4B48490  10.345  37.176   7.458
 3781POPC   NC348491  12.411  41.355   5.446
 3781POPC   PO448492  11.887  41.728   5.486
 3781POPC   GL148493  11.929  41.459   5.827
 3781POPC   GL248494  12.255  41.389   5.909
 3781POPC   C1A48495  11.915  41.505   6.252
 3781POPC   D2A48496  12.221  41.591   6.532
 3781POPC   C3A48497  11.933  41.705   6.798
 3781POPC   C4A48498  11.937  41.530   7.181
 3781POPC   C1B48499  12.500  41.219   6.205
 3781POPC   C2B48500  12.511  41.154   6.614
 3781POPC   C3B48501  12.345  41.311   7.019
 3781POPC   C4B48502  12.310  41.358   7.508
 3782POPC   NC348503  41.696  12.525   5.488
 3782POPC   PO448504  41.591  13.139   5.789
 3782POPC   GL148505  41.732  12.735   5.969
 3782POPC   GL248506  41.392  12.580   5.915
 3782POPC   C1A48507  41.869  12.770   6.413
 3782POPC   D2A48508  41.536  12.888   6.702
 3782POPC   C3A48509  41.555  13.125   7.051
 3782POPC   C4A48510  41.480  12.995   7.461
 3782POPC   C1B48511  41.431  12.508   6.353
 3782POPC   C2B48512  41.689  12.401   6.738
 3782POPC   C3B48513  41.590  12.587   7.145
 3782POPC   C4B48514  41.150  12.692   7.258
 3783POPC   NC348515  23.055  21.035   5.387
 3783POPC   PO448516  22.609  21.505   5.459
 3783POPC   GL148517  22.733  21.332   5.861
 3783POPC   GL248518  22.958  21.078   5.867
 3783POPC   C1A48519  22.864  21.577   6.223
 3783POPC   D2A48520  23.055  21.668   6.615
 3783POPC   C3A48521  22.843  21.682   7.001
 3783POPC   C4A48522  22.793  21.547   7.396
 3783POPC   C1B48523  23.207  21.197   6.214
 3783POPC   C2B48524  23.035  21.157   6.614
 3783POPC   C3B48525  22.975  21.204   7.031
 3783POPC   C4B48526  22.565  21.118   7.230
 3784POPC   NC348527   5.038  18.980   5.373
 3784POPC   PO448528   4.837  19.592   5.565
 3784POPC   GL148529   5.060  19.271   5.824
 3784POPC   GL248530   5.288  18.971   5.822
 3784POPC   C1A48531   5.152  19.272   6.258
 3784POPC   D2A48532   4.857  19.294   6.598
 3784POPC   C3A48533   4.841  18.964   6.924
 3784POPC   C4A48534   4.845  19.165   7.318
 3784POPC   C1B48535   5.354  18.797   6.251
 3784POPC   C2B48536   5.303  18.982   6.666
 3784POPC   C3B48537   5.323  19.078   7.099
 3784POPC   C4B48538   5.664  18.915   7.315
 3785POPC   NC348539  38.335  15.615   5.619
 3785POPC   PO448540  38.209  15.056   5.291
 3785POPC   GL148541  38.287  15.097   5.738
 3785POPC   GL248542  38.621  15.181   5.809
 3785POPC   C1A48543  38.181  15.216   6.177
 3785POPC   D2A48544  38.219  15.416   6.597
 3785POPC   C3A48545  38.161  15.254   7.042
 3785POPC   C4A48546  38.321  15.483   7.424
 3785POPC   C1B48547  38.615  14.977   6.230
 3785POPC   C2B48548  38.524  15.009   6.674
 3785POPC   C3B48549  38.686  14.975   7.079
 3785POPC   C4B48550  38.585  15.081   7.530
 3786POPC   NC348551  18.394  41.779   5.235
 3786POPC   PO448552  18.021  41.234   5.386
 3786POPC   GL148553  18.125  41.397   5.776
 3786POPC   GL248554  18.202  41.759   5.772
 3786POPC   C1A48555  18.135  41.496   6.212
 3786POPC   D2A48556  17.918  41.557   6.606
 3786POPC   C3A48557  18.165  41.466   6.973
 3786POPC   C4A48558  18.558  41.273   7.092
 3786POPC   C1B48559  18.400  41.925   6.186
 3786POPC   C2B48560  18.411  41.760   6.606
 3786POPC   C3B48561  18.535  41.833   7.022
 3786POPC   C4B48562  18.240  41.860   7.300
 3787POPC   NC348563  29.965  18.391   5.295
 3787POPC   PO448564  29.556  17.973   5.546
 3787POPC   GL148565  29.929  18.071   5.820
 3787POPC   GL248566  30.015  18.437   5.797
 3787POPC   C1A48567  29.977  18.003   6.292
 3787POPC   D2A48568  30.015  18.147   6.757
 3787POPC   C3A48569  30.019  17.871   7.148
 3787POPC   C4A48570  29.733  17.986   7.530
 3787POPC   C1B48571  30.015  18.570   6.223
 3787POPC   C2B48572  29.833  18.700   6.611
 3787POPC   C3B48573  30.018  18.650   7.015
 3787POPC   C4B48574  30.029  18.342   7.324
 3788POPC   NC348575  27.797  26.818   5.080
 3788POPC   PO448576  27.759  26.309   5.516
 3788POPC   GL148577  27.636  26.627   5.821
 3788POPC   GL248578  27.873  26.900   5.895
 3788POPC   C1A48579  27.343  26.790   6.140
 3788POPC   D2A48580  27.212  27.031   6.525
 3788POPC   C3A48581  27.462  26.917   6.892
 3788POPC   C4A48582  27.312  26.808   7.323
 3788POPC   C1B48583  27.894  26.810   6.332
 3788POPC   C2B48584  27.978  26.932   6.765
 3788POPC   C3B48585  27.847  26.856   7.243
 3788POPC   C4B48586  27.815  27.009   7.717
 3789POPC   NC348587  42.662  38.730   5.630
 3789POPC   PO448588  42.286  38.304   5.234
 3789POPC   GL148589  42.304  38.399   5.700
 3789POPC   GL248590  42.638  38.217   5.735
 3789POPC   C1A48591  42.277  38.587   6.147
 3789POPC   D2A48592  42.245  38.789   6.585
 3789POPC   C3A48593  42.092  38.518   6.903
 3789POPC   C4A48594  42.213  38.383   7.357
 3789POPC   C1B48595  42.708  38.274   6.184
 3789POPC   C2B48596  42.470  38.259   6.575
 3789POPC   C3B48597  42.579  38.336   6.994
 3789POPC   C4B48598  42.665  38.067   7.353
 3790POPC   NC348599  22.108  10.417   5.352
 3790POPC   PO448600  22.507  10.943   5.554
 3790POPC   GL148601  22.356  10.564   5.786
 3790POPC   GL248602  21.976  10.469   5.829
 3790POPC   C1A48603  22.395  10.353   6.177
 3790POPC   D2A48604  22.480  10.564   6.549
 3790POPC   C3A48605  22.162  10.530   6.862
 3790POPC   C4A48606  22.303  10.227   7.185
 3790POPC   C1B48607  21.884  10.310   6.181
 3790POPC   C2B48608  22.014  10.139   6.554
 3790POPC   C3B48609  21.825  10.153   6.958
 3790POPC   C4B48610  21.845  10.259   7.384
 3791POPC   NC348611  14.740  41.807   5.640
 3791POPC   PO448612  14.334  41.393   5.203
 3791POPC   GL148613  14.307  41.486   5.664
 3791POPC   GL248614  14.304  41.784   5.910
 3791POPC   C1A48615  14.250  41.309   6.101
 3791POPC   D2A48616  14.018  41.405   6.486
 3791POPC   C3A48617  14.301  41.371   6.819
 3791POPC   C4A48618  14.255  41.447   7.237
 3791POPC   C1B48619  14.369  41.777   6.357
 3791POPC   C2B48620  14.735  41.876   6.617
 3791POPC   C3B48621  14.829  42.075   7.033
 3791POPC   C4B48622  14.597  41.904   7.390
 3792POPC   NC348623  16.112  13.210   5.168
 3792POPC   PO448624  15.793  12.631   5.359
 3792POPC   GL148625  15.762  12.769   5.744
 3792POPC   GL248626  16.120  12.839   5.779
 3792POPC   C1A48627  15.785  12.850   6.169
 3792POPC   D2A48628  15.607  12.777   6.538
 3792POPC   C3A48629  15.823  12.880   6.863
 3792POPC   C4A48630  15.898  12.899   7.256
 3792POPC   C1B48631  16.235  13.083   6.146
 3792POPC   C2B48632  16.093  13.152   6.542
 3792POPC   C3B48633  16.234  13.173   6.981
 3792POPC   C4B48634  16.255  13.213   7.431
 3793POPC   NC348635  37.023  27.438   5.489
 3793POPC   PO448636  36.483  27.911   5.312
 3793POPC   GL148637  36.579  27.752   5.759
 3793POPC   GL248638  36.610  27.356   5.822
 3793POPC   C1A48639  36.881  27.874   6.107
 3793POPC   D2A48640  37.176  27.724   6.448
 3793POPC   C3A48641  37.074  27.849   6.889
 3793POPC   C4A48642  36.832  27.699   7.281
 3793POPC   C1B48643  36.929  27.320   6.195
 3793POPC   C2B48644  36.843  27.386   6.658
 3793POPC   C3B48645  36.670  27.261   7.070
 3793POPC   C4B48646  36.934  27.208   7.450
 3794POPC   NC348647  33.085   3.884   5.517
 3794POPC   PO448648  33.069   3.201   5.373
 3794POPC   GL148649  33.125   3.369   5.805
 3794POPC   GL248650  32.921   3.662   5.945
 3794POPC   C1A48651  33.044   3.263   6.246
 3794POPC   D2A48652  32.866   3.058   6.601
 3794POPC   C3A48653  33.016   3.278   6.925
 3794POPC   C4A48654  32.865   3.470   7.240
 3794POPC   C1B48655  33.340   3.685   6.183
 3794POPC   C2B48656  33.469   3.751   6.629
 3794POPC   C3B48657  33.152   3.795   6.961
 3794POPC   C4B48658  33.108   3.892   7.420
 3795POPC   NC348659   1.005  29.258   5.544
 3795POPC   PO448660   1.491  28.822   5.376
 3795POPC   GL148661   1.407  28.961   5.790
 3795POPC   GL248662   1.059  28.860   5.912
 3795POPC   C1A48663   1.503  29.050   6.223
 3795POPC   D2A48664   1.198  29.024   6.542
 3795POPC   C3A48665   1.301  29.164   6.964
 3795POPC   C4A48666   1.057  29.072   7.310
 3795POPC   C1B48667   0.805  29.165   6.205
 3795POPC   C2B48668   0.861  29.431   6.605
 3795POPC   C3B48669   0.890  29.518   7.061
 3795POPC   C4B48670   0.776  29.452   7.505
 3796POPC   NC348671  16.671  35.441   5.347
 3796POPC   PO448672  17.203  35.186   5.695
 3796POPC   GL148673  16.788  35.319   5.834
 3796POPC   GL248674  16.798  35.661   5.828
 3796POPC   C1A48675  16.586  35.460   6.243
 3796POPC   D2A48676  16.724  35.443   6.677
 3796POPC   C3A48677  16.405  35.486   7.007
 3796POPC   C4A48678  16.433  35.285   7.381
 3796POPC   C1B48679  17.094  35.498   6.224
 3796POPC   C2B48680  17.264  35.309   6.590
 3796POPC   C3B48681  17.124  35.440   7.000
 3796POPC   C4B48682  16.961  35.266   7.357
 3797POPC   NC348683  35.141  16.377   5.263
 3797POPC   PO448684  35.723  16.613   5.446
 3797POPC   GL148685  35.497  16.723   5.848
 3797POPC   GL248686  35.178  16.594   5.770
 3797POPC   C1A48687  35.331  16.854   6.283
 3797POPC   D2A48688  35.308  17.087   6.696
 3797POPC   C3A48689  35.483  16.853   7.047
 3797POPC   C4A48690  35.619  16.975   7.456
 3797POPC   C1B48691  34.938  16.525   6.161
 3797POPC   C2B48692  34.912  16.646   6.613
 3797POPC   C3B48693  34.964  16.677   7.070
 3797POPC   C4B48694  35.238  16.577   7.408
 3798POPC   NC348695  21.712  43.049   5.404
 3798POPC   PO448696  21.257  43.530   5.471
 3798POPC   GL148697  21.319  43.238   5.783
 3798POPC   GL248698  21.026  43.034   5.858
 3798POPC   C1A48699  21.609  43.333   6.125
 3798POPC   D2A48700  21.672  43.475   6.541
 3798POPC   C3A48701  21.560  43.108   6.783
 3798POPC   C4A48702  21.409  42.936   7.154
 3798POPC   C1B48703  20.970  43.337   6.185
 3798POPC   C2B48704  21.159  43.426   6.563
 3798POPC   C3B48705  21.086  43.281   6.951
 3798POPC   C4B48706  20.901  43.066   7.247
 3799POPC   NC348707  43.763  19.688   5.285
 3799POPC   PO448708  44.420  19.870   5.269
 3799POPC   GL148709  44.104  19.969   5.657
 3799POPC   GL248710  43.693  19.905   5.789
 3799POPC   C1A48711  44.070  20.027   6.133
 3799POPC   D2A48712  44.130  19.801   6.546
 3799POPC   C3A48713  44.136  19.980   6.968
 3799POPC   C4A48714  44.155  19.813   7.400
 3799POPC   C1B48715  43.505  19.986   6.249
 3799POPC   C2B48716  43.605  19.893   6.702
 3799POPC   C3B48717  43.684  19.756   7.139
 3799POPC   C4B48718  43.696  19.650   7.606
 3800POPC   NC348719  36.305   8.341   5.049
 3800POPC   PO448720  35.888   7.943   5.384
 3800POPC   GL148721  35.942   8.178   5.766
 3800POPC   GL248722  36.288   8.290   5.821
 3800POPC   C1A48723  36.008   8.095   6.208
 3800POPC   D2A48724  36.251   8.073   6.575
 3800POPC   C3A48725  35.967   8.045   6.909
 3800POPC   C4A48726  36.021   8.199   7.300
 3800POPC   C1B48727  36.443   8.421   6.240
 3800POPC   C2B48728  36.369   8.572   6.686
 3800POPC   C3B48729  36.406   8.489   7.132
 3800POPC   C4B48730  36.424   8.472   7.613
 3801POPC   NC348731  30.598  29.419   5.452
 3801POPC   PO448732  31.008  29.908   5.412
 3801POPC   GL148733  30.760  29.846   5.752
 3801POPC   GL248734  30.989  30.011   5.981
 3801POPC   C1A48735  30.614  29.726   6.147
 3801POPC   D2A48736  30.498  29.647   6.546
 3801POPC   C3A48737  30.649  29.908   6.870
 3801POPC   C4A48738  30.707  29.693   7.223
 3801POPC   C1B48739  31.109  30.278   6.288
 3801POPC   C2B48740  31.024  30.273   6.703
 3801POPC   C3B48741  31.219  30.278   7.089
 3801POPC   C4B48742  31.102  30.245   7.521
 3802POPC   NC348743  22.588  23.842   5.480
 3802POPC   PO448744  23.210  23.583   5.640
 3802POPC   GL148745  23.009  23.680   5.970
 3802POPC   GL248746  22.803  23.390   5.895
 3802POPC   C1A48747  23.160  23.776   6.380
 3802POPC   D2A48748  23.136  24.044   6.716
 3802POPC   C3A48749  23.036  23.836   7.084
 3802POPC   C4A48750  22.824  24.078   7.358
 3802POPC   C1B48751  23.071  23.290   6.317
 3802POPC   C2B48752  23.075  23.354   6.794
 3802POPC   C3B48753  22.788  23.389   7.178
 3802POPC   C4B48754  22.772  23.281   7.643
 3803POPC   NC348755   0.450   7.215   5.565
 3803POPC   PO448756   0.923   7.635   5.283
 3803POPC   GL148757   0.714   7.688   5.717
 3803POPC   GL248758   0.379   7.598   5.875
 3803POPC   C1A48759   0.794   7.642   6.180
 3803POPC   D2A48760   0.871   7.347   6.532
 3803POPC   C3A48761   0.669   7.426   6.910
 3803POPC   C4A48762   0.733   7.341   7.342
 3803POPC   C1B48763   0.419   7.284   6.244
 3803POPC   C2B48764   0.296   7.078   6.658
 3803POPC   C3B48765   0.248   7.183   7.074
 3803POPC   C4B48766   0.283   7.593   7.223
 3804POPC   NC348767  16.549   3.983   5.335
 3804POPC   PO448768  16.829   4.511   5.342
 3804POPC   GL148769  16.731   4.354   5.790
 3804POPC   GL248770  16.828   4.038   5.830
 3804POPC   C1A48771  16.886   4.489   6.197
 3804POPC   D2A48772  17.164   4.524   6.574
 3804POPC   C3A48773  16.894   4.544   6.957
 3804POPC   C4A48774  16.747   4.296   7.308
 3804POPC   C1B48775  16.666   3.993   6.219
 3804POPC   C2B48776  16.789   4.153   6.594
 3804POPC   C3B48777  16.724   3.959   6.948
 3804POPC   C4B48778  16.646   3.763   7.339
 3805POPC   NC348779   0.145  33.708   5.299
 3805POPC   PO448780   0.681  34.036   5.521
 3805POPC   GL148781   0.434  33.830   5.845
 3805POPC   GL248782   0.129  33.990   5.833
 3805POPC   C1A48783   0.531  33.585   6.230
 3805POPC   D2A48784   0.519  33.366   6.641
 3805POPC   C3A48785   0.658  33.592   7.046
 3805POPC   C4A48786   0.576  33.759   7.498
 3805POPC   C1B48787   0.263  34.012   6.297
 3805POPC   C2B48788   0.637  33.972   6.586
 3805POPC   C3B48789   0.561  34.105   6.998
 3805POPC   C4B48790   0.202  33.973   7.250
 3806POPC   NC348791   2.315  20.884   5.518
 3806POPC   PO448792   2.823  20.423   5.391
 3806POPC   GL148793   2.894  20.636   5.818
 3806POPC   GL248794   2.569  20.721   5.935
 3806POPC   C1A48795   2.930  20.625   6.269
 3806POPC   D2A48796   2.642  20.594   6.627
 3806POPC   C3A48797   2.935  20.578   6.953
 3806POPC   C4A48798   3.014  20.276   7.313
 3806POPC   C1B48799   2.578  21.026   6.284
 3806POPC   C2B48800   2.753  21.089   6.698
 3806POPC   C3B48801   2.577  20.934   7.071
 3806POPC   C4B48802   2.516  20.530   7.211
 3807POPC   NC348803  29.647   8.312   5.285
 3807POPC   PO448804  30.136   8.069   5.615
 3807POPC   GL148805  29.954   8.258   5.930
 3807POPC   GL248806  29.653   8.316   5.792
 3807POPC   C1A48807  29.903   8.506   6.286
 3807POPC   D2A48808  30.170   8.625   6.620
 3807POPC   C3A48809  30.001   8.530   7.017
 3807POPC   C4A48810  30.054   8.128   7.259
 3807POPC   C1B48811  29.545   8.088   6.174
 3807POPC   C2B48812  29.548   8.233   6.557
 3807POPC   C3B48813  29.700   8.142   6.902
 3807POPC   C4B48814  29.543   8.182   7.253
 3808POPC   NC348815  38.125   2.209   5.524
 3808POPC   PO448816  38.611   1.920   5.271
 3808POPC   GL148817  38.466   1.886   5.742
 3808POPC   GL248818  38.547   2.219   5.850
 3808POPC   C1A48819  38.471   1.797   6.212
 3808POPC   D2A48820  38.301   1.972   6.621
 3808POPC   C3A48821  38.480   2.074   6.992
 3808POPC   C4A48822  38.474   1.819   7.315
 3808POPC   C1B48823  38.303   2.287   6.223
 3808POPC   C2B48824  38.346   2.482   6.647
 3808POPC   C3B48825  38.072   2.419   7.021
 3808POPC   C4B48826  38.251   2.263   7.413
 3809POPC   NC348827  34.357  22.473   5.521
 3809POPC   PO448828  34.645  21.987   5.162
 3809POPC   GL148829  34.657  21.917   5.663
 3809POPC   GL248830  34.658  22.230   5.825
 3809POPC   C1A48831  34.482  21.855   6.144
 3809POPC   D2A48832  34.349  21.774   6.611
 3809POPC   C3A48833  34.633  21.940   6.981
 3809POPC   C4A48834  34.693  21.916   7.455
 3809POPC   C1B48835  34.395  22.368   6.174
 3809POPC   C2B48836  34.455  22.273   6.566
 3809POPC   C3B48837  34.541  22.511   6.901
 3809POPC   C4B48838  34.545  22.372   7.290
 3810POPC   NC348839  37.805  24.338   5.263
 3810POPC   PO448840  37.597  24.861   5.627
 3810POPC   GL148841  37.651  24.446   5.743
 3810POPC   GL248842  37.360  24.253   5.715
 3810POPC   C1A48843  37.757  24.408   6.163
 3810POPC   D2A48844  37.854  24.732   6.481
 3810POPC   C3A48845  37.820  24.537   6.870
 3810POPC   C4A48846  37.592  24.676   7.214
 3810POPC   C1B48847  37.260  24.546   6.079
 3810POPC   C2B48848  37.388  24.470   6.488
 3810POPC   C3B48849  37.326  24.378   6.883
 3810POPC   C4B48850  37.317  24.251   7.266
 3811POPC   NC348851  39.507   5.986   5.423
 3811POPC   PO448852  38.895   5.647   5.262
 3811POPC   GL148853  39.112   5.674   5.723
 3811POPC   GL248854  39.202   5.993   5.820
 3811POPC   C1A48855  39.307   5.679   6.201
 3811POPC   D2A48856  39.535   5.482   6.544
 3811POPC   C3A48857  39.320   5.667   6.853
 3811POPC   C4A48858  39.243   5.849   7.203
 3811POPC   C1B48859  38.984   6.096   6.180
 3811POPC   C2B48860  39.109   6.120   6.586
 3811POPC   C3B48861  38.832   6.089   6.900
 3811POPC   C4B48862  38.833   6.107   7.306
 3812POPC   NC348863  44.376  34.941   5.602
 3812POPC   PO448864   0.005  34.624   5.368
 3812POPC   GL148865  44.755  34.601   5.757
 3812POPC   GL248866  44.811  34.949   5.891
 3812POPC   C1A48867  44.529  34.559   6.188
 3812POPC   D2A48868  44.451  34.774   6.599
 3812POPC   C3A48869  44.575  34.540   6.955
 3812POPC   C4A48870  44.542  34.564   7.401
 3812POPC   C1B48871  44.905  34.864   6.340
 3812POPC   C2B48872  44.952  34.859   6.784
 3812POPC   C3B48873  44.992  34.850   7.248
 3812POPC   C4B48874  44.846  34.848   7.720
 3813POPC   NC348875  35.607   5.520   5.653
 3813POPC   PO448876  35.154   4.943   5.466
 3813POPC   GL148877  35.262   5.195   5.806
 3813POPC   GL248878  35.505   4.980   5.938
 3813POPC   C1A48879  35.352   5.369   6.228
 3813POPC   D2A48880  35.419   5.035   6.483
 3813POPC   C3A48881  35.417   5.110   6.919
 3813POPC   C4A48882  35.230   5.165   7.337
 3813POPC   C1B48883  35.655   4.642   6.237
 3813POPC   C2B48884  35.503   4.560   6.673
 3813POPC   C3B48885  35.701   4.693   7.049
 3813POPC   C4B48886  35.649   4.909   7.453
 3814POPC   NC348887  20.383  20.582   5.478
 3814POPC   PO448888  21.024  20.874   5.494
 3814POPC   GL148889  20.800  20.794   5.890
 3814POPC   GL248890  20.429  20.811   5.941
 3814POPC   C1A48891  20.979  20.776   6.327
 3814POPC   D2A48892  20.839  20.903   6.760
 3814POPC   C3A48893  20.887  20.610   7.104
 3814POPC   C4A48894  20.748  20.603   7.519
 3814POPC   C1B48895  20.474  20.691   6.341
 3814POPC   C2B48896  20.512  20.475   6.692
 3814POPC   C3B48897  20.401  20.467   7.094
 3814POPC   C4B48898  20.435  20.878   7.233
 3815POPC   NC348899   6.534   3.104   5.455
 3815POPC   PO448900   6.264   2.494   5.420
 3815POPC   GL148901   6.672   2.543   5.685
 3815POPC   GL248902   6.743   2.888   5.858
 3815POPC   C1A48903   6.689   2.481   6.151
 3815POPC   D2A48904   6.705   2.425   6.603
 3815POPC   C3A48905   6.600   2.670   6.966
 3815POPC   C4A48906   6.599   2.464   7.333
 3815POPC   C1B48907   6.992   2.875   6.268
 3815POPC   C2B48908   6.898   3.000   6.694
 3815POPC   C3B48909   6.818   3.145   7.106
 3815POPC   C4B48910   6.734   2.936   7.461
 3816POPC   NC348911   7.590  28.207   5.296
 3816POPC   PO448912   6.921  28.092   5.251
 3816POPC   GL148913   7.047  28.307   5.678
 3816POPC   GL248914   7.318  28.576   5.720
 3816POPC   C1A48915   7.117  28.400   6.151
 3816POPC   D2A48916   7.440  28.354   6.472
 3816POPC   C3A48917   7.276  28.351   6.877
 3816POPC   C4A48918   7.518  28.237   7.262
 3816POPC   C1B48919   7.609  28.679   6.117
 3816POPC   C2B48920   7.738  28.774   6.576
 3816POPC   C3B48921   7.758  28.644   7.046
 3816POPC   C4B48922   7.667  28.705   7.535
 3817POPC   NC348923  13.540  35.993   5.128
 3817POPC   PO448924  13.985  36.242   5.540
 3817POPC   GL148925  13.708  36.224   5.844
 3817POPC   GL248926  13.371  36.122   5.736
 3817POPC   C1A48927  13.835  36.228   6.259
 3817POPC   D2A48928  13.724  36.000   6.629
 3817POPC   C3A48929  13.768  36.295   6.962
 3817POPC   C4A48930  13.560  36.384   7.350
 3817POPC   C1B48931  13.300  36.001   6.193
 3817POPC   C2B48932  13.076  36.084   6.604
 3817POPC   C3B48933  13.264  36.212   6.954
 3817POPC   C4B48934  13.529  35.879   7.086
 3818POPC   NC348935  15.457   1.523   5.379
 3818POPC   PO448936  14.926   1.191   5.254
 3818POPC   GL148937  15.108   1.259   5.668
 3818POPC   GL248938  15.029   1.626   5.710
 3818POPC   C1A48939  15.289   1.208   6.089
 3818POPC   D2A48940  15.277   0.987   6.488
 3818POPC   C3A48941  15.108   1.204   6.843
 3818POPC   C4A48942  15.428   1.160   7.177
 3818POPC   C1B48943  14.875   1.512   6.147
 3818POPC   C2B48944  14.747   1.561   6.610
 3818POPC   C3B48945  14.709   1.514   7.083
 3818POPC   C4B48946  15.050   1.450   7.350
 3819POPC   NC348947  19.296   2.456   5.212
 3819POPC   PO448948  19.180   2.696   5.789
 3819POPC   GL148949  18.987   2.960   6.027
 3819POPC   GL248950  19.188   3.220   6.072
 3819POPC   C1A48951  18.729   2.826   6.330
 3819POPC   D2A48952  18.897   2.528   6.581
 3819POPC   C3A48953  18.913   2.725   6.953
 3819POPC   C4A48954  18.897   2.537   7.356
 3819POPC   C1B48955  19.399   2.963   6.376
 3819POPC   C2B48956  19.440   2.781   6.774
 3819POPC   C3B48957  19.349   2.543   7.119
 3819POPC   C4B48958  19.358   2.519   7.569
 3820POPC   NC348959  44.694   3.904   5.426
 3820POPC   PO448960  44.638   3.176   5.461
 3820POPC   GL148961  44.659   3.517   5.767
 3820POPC   GL248962  44.958   3.593   5.759
 3820POPC   C1A48963  44.420   3.653   6.165
 3820POPC   D2A48964  44.412   3.422   6.553
 3820POPC   C3A48965  44.402   3.606   6.946
 3820POPC   C4A48966  44.359   3.226   7.193
 3820POPC   C1B48967  44.887   3.820   6.114
 3820POPC   C2B48968  44.788   3.786   6.548
 3820POPC   C3B48969  44.820   3.933   6.965
 3820POPC   C4B48970  44.586   3.873   7.348
 3821POPC   NC348971   3.650  44.160   5.656
 3821POPC   PO448972   3.160  43.768   5.306
 3821POPC   GL148973   3.403  43.698   5.721
 3821POPC   GL248974   3.737  43.571   5.662
 3821POPC   C1A48975   3.534  43.787   6.188
 3821POPC   D2A48976   3.420  43.761   6.630
 3821POPC   C3A48977   3.626  44.051   6.855
 3821POPC   C4A48978   3.820  44.121   7.237
 3821POPC   C1B48979   3.929  43.508   6.083
 3821POPC   C2B48980   3.957  43.702   6.524
 3821POPC   C3B48981   3.893  43.634   6.956
 3821POPC   C4B48982   3.511  43.675   7.208
 3822POPC   NC348983  10.632  19.067   5.421
 3822POPC   PO448984   9.992  19.102   5.240
 3822POPC   GL148985  10.204  19.035   5.769
 3822POPC   GL248986  10.577  18.959   5.897
 3822POPC   C1A48987  10.192  18.822   6.173
 3822POPC   D2A48988  10.307  18.946   6.600
 3822POPC   C3A48989  10.343  19.175   6.988
 3822POPC   C4A48990  10.354  18.776   7.176
 3822POPC   C1B48991  10.555  19.236   6.230
 3822POPC   C2B48992  10.711  19.281   6.636
 3822POPC   C3B48993  10.777  18.926   6.908
 3822POPC   C4B48994  10.850  18.876   7.308
 3823POPC   NC348995  25.451  11.365   5.179
 3823POPC   PO448996  25.048  10.912   5.377
 3823POPC   GL148997  25.225  11.181   5.680
 3823POPC   GL248998  24.950  11.105   5.875
 3823POPC   C1A48999  25.348  11.372   6.095
 3823POPC   D2A49000  25.252  11.443   6.533
 3823POPC   C3A49001  25.494  11.306   6.873
 3823POPC   C4A49002  25.390  11.405   7.291
 3823POPC   C1B49003  25.006  11.020   6.311
 3823POPC   C2B49004  25.097  10.960   6.728
 3823POPC   C3B49005  24.978  11.299   6.953
 3823POPC   C4B49006  24.904  11.240   7.339
 3824POPC   NC349007  28.767  27.919   5.187
 3824POPC   PO449008  28.970  27.258   5.294
 3824POPC   GL149009  28.963  27.371   5.740
 3824POPC   GL249010  28.853  27.718   5.713
 3824POPC   C1A49011  29.099  27.430   6.169
 3824POPC   D2A49012  29.313  27.398   6.554
 3824POPC   C3A49013  29.107  27.525   6.902
 3824POPC   C4A49014  28.896  27.524   7.263
 3824POPC   C1B49015  28.901  27.911   6.129
 3824POPC   C2B49016  29.123  27.876   6.513
 3824POPC   C3B49017  28.944  28.015   6.878
 3824POPC   C4B49018  28.642  27.955   7.198
 3825POPC   NC349019  14.529  12.493   5.321
 3825POPC   PO449020  14.203  13.029   5.467
 3825POPC   GL149021  14.226  12.741   5.787
 3825POPC   GL249022  14.550  12.723   5.808
 3825POPC   C1A49023  14.152  12.789   6.237
 3825POPC   D2A49024  14.241  12.563   6.649
 3825POPC   C3A49025  14.324  12.812   7.033
 3825POPC   C4A49026  14.201  12.824   7.447
 3825POPC   C1B49027  14.682  12.849   6.224
 3825POPC   C2B49028  14.640  12.945   6.658
 3825POPC   C3B49029  14.854  13.027   7.080
 3825POPC   C4B49030  14.670  12.982   7.515
 3826POPC   NC349031  27.177   4.834   5.391
 3826POPC   PO449032  26.590   5.293   5.405
 3826POPC   GL149033  26.906   5.307   5.727
 3826POPC   GL249034  26.974   4.973   5.867
 3826POPC   C1A49035  26.878   5.410   6.170
 3826POPC   D2A49036  26.984   5.209   6.537
 3826POPC   C3A49037  26.760   5.160   6.870
 3826POPC   C4A49038  26.796   5.544   7.053
 3826POPC   C1B49039  26.799   4.827   6.265
 3826POPC   C2B49040  27.024   4.703   6.648
 3826POPC   C3B49041  27.211   4.979   6.967
 3826POPC   C4B49042  27.003   5.107   7.324
 3827POPC   NC349043  13.300  21.046   5.495
 3827POPC   PO449044  12.676  20.649   5.322
 3827POPC   GL149045  12.903  20.706   5.699
 3827POPC   GL249046  12.664  20.473   5.864
 3827POPC   C1A49047  13.054  20.768   6.131
 3827POPC   D2A49048  13.063  20.892   6.547
 3827POPC   C3A49049  12.805  20.746   6.868
 3827POPC   C4A49050  12.967  20.537   7.271
 3827POPC   C1B49051  13.017  20.259   6.056
 3827POPC   C2B49052  13.124  20.288   6.492
 3827POPC   C3B49053  12.882  20.267   6.845
 3827POPC   C4B49054  12.481  20.464   7.138
 3828POPC   NC349055  44.730  38.638   5.693
 3828POPC   PO449056  44.555  39.231   5.347
 3828POPC   GL149057  44.455  39.157   5.780
 3828POPC   GL249058  44.452  39.489   5.951
 3828POPC   C1A49059  44.521  39.035   6.214
 3828POPC   D2A49060  44.465  39.368   6.530
 3828POPC   C3A49061  44.522  39.155   6.894
 3828POPC   C4A49062  44.807  39.055   7.196
 3828POPC   C1B49063  44.851  39.422   6.202
 3828POPC   C2B49064   0.088  39.619   6.529
 3828POPC   C3B49065  44.986  39.561   6.973
 3828POPC   C4B49066   0.238  39.450   7.313
 3829POPC   NC349067  44.184   6.178   5.622
 3829POPC   PO449068  44.743   5.902   5.381
 3829POPC   GL149069  44.594   5.913   5.779
 3829POPC   GL249070  44.570   5.550   5.793
 3829POPC   C1A49071  44.577   6.199   6.156
 3829POPC   D2A49072  44.687   6.127   6.565
 3829POPC   C3A49073  44.766   5.964   6.942
 3829POPC   C4A49074  44.518   5.865   7.300
 3829POPC   C1B49075  44.751   5.694   6.205
 3829POPC   C2B49076  44.656   5.565   6.636
 3829POPC   C3B49077  44.855   5.476   7.055
 3829POPC   C4B49078  44.849   5.570   7.516
 3830POPC   NC349079  17.340  23.936   5.364
 3830POPC   PO449080  17.960  23.583   5.401
 3830POPC   GL149081  17.647  23.591   5.724
 3830POPC   GL249082  17.581  23.921   5.846
 3830POPC   C1A49083  17.739  23.554   6.162
 3830POPC   D2A49084  17.787  23.823   6.519
 3830POPC   C3A49085  17.503  23.627   6.783
 3830POPC   C4A49086  17.361  23.560   7.197
 3830POPC   C1B49087  17.328  23.839   6.266
 3830POPC   C2B49088  17.112  23.934   6.694
 3830POPC   C3B49089  17.192  24.052   7.159
 3830POPC   C4B49090  17.191  23.948   7.614
 3831POPC   NC349091  37.205  11.660   5.062
 3831POPC   PO449092  36.707  11.978   5.446
 3831POPC   GL149093  36.840  12.074   5.852
 3831POPC   GL249094  37.086  12.329   5.858
 3831POPC   C1A49095  36.847  11.860   6.242
 3831POPC   D2A49096  36.977  11.914   6.660
 3831POPC   C3A49097  36.864  12.237   6.917
 3831POPC   C4A49098  36.701  12.022   7.251
 3831POPC   C1B49099  37.026  12.328   6.308
 3831POPC   C2B49100  37.301  12.370   6.646
 3831POPC   C3B49101  37.298  12.487   7.071
 3831POPC   C4B49102  37.076  12.325   7.400
 3832POPC   NC349103  37.154  14.814   5.578
 3832POPC   PO449104  37.034  15.538   5.468
 3832POPC   GL149105  36.767  15.342   5.783
 3832POPC   GL249106  36.709  14.969   5.761
 3832POPC   C1A49107  36.826  15.428   6.238
 3832POPC   D2A49108  36.948  15.610   6.651
 3832POPC   C3A49109  37.180  15.353   6.961
 3832POPC   C4A49110  37.003  15.202   7.376
 3832POPC   C1B49111  36.907  14.940   6.144
 3832POPC   C2B49112  36.795  14.936   6.542
 3832POPC   C3B49113  36.790  15.019   6.943
 3832POPC   C4B49114  36.585  14.846   7.284
 3833POPC   NC349115  41.885  38.466   5.415
 3833POPC   PO449116  41.323  38.738   5.709
 3833POPC   GL149117  41.730  38.653   5.892
 3833POPC   GL249118  41.815  38.308   5.897
 3833POPC   C1A49119  41.798  38.594   6.329
 3833POPC   D2A49120  41.432  38.558   6.595
 3833POPC   C3A49121  41.582  38.530   7.007
 3833POPC   C4A49122  41.417  38.382   7.348
 3833POPC   C1B49123  41.590  38.137   6.244
 3833POPC   C2B49124  41.747  38.154   6.666
 3833POPC   C3B49125  41.895  38.097   7.096
 3833POPC   C4B49126  41.809  38.129   7.575
 3834POPC   NC349127  38.099   7.539   5.509
 3834POPC   PO449128  38.639   7.120   5.509
 3834POPC   GL149129  38.418   7.348   5.849
 3834POPC   GL249130  38.502   7.627   6.043
 3834POPC   C1A49131  38.357   7.210   6.269
 3834POPC   D2A49132  38.574   7.011   6.594
 3834POPC   C3A49133  38.366   7.003   6.971
 3834POPC   C4A49134  38.707   7.024   7.233
 3834POPC   C1B49135  38.253   7.741   6.374
 3834POPC   C2B49136  38.259   7.473   6.722
 3834POPC   C3B49137  38.622   7.446   6.955
 3834POPC   C4B49138  38.647   7.675   7.321
 3835POPC   NC349139   9.012  30.932   5.426
 3835POPC   PO449140   8.747  30.244   5.378
 3835POPC   GL149141   8.884  30.514   5.773
 3835POPC   GL249142   9.117  30.773   5.883
 3835POPC   C1A49143   8.920  30.527   6.279
 3835POPC   D2A49144   9.003  30.370   6.752
 3835POPC   C3A49145   8.808  30.547   7.169
 3835POPC   C4A49146   8.460  30.798   7.395
 3835POPC   C1B49147   9.154  30.973   6.279
 3835POPC   C2B49148   9.284  30.793   6.663
 3835POPC   C3B49149   9.239  30.848   7.099
 3835POPC   C4B49150   9.233  31.271   7.256
 3836POPC   NC349151   0.174  23.739   5.331
 3836POPC   PO449152   0.798  23.792   5.437
 3836POPC   GL149153   0.540  23.712   5.821
 3836POPC   GL249154   0.271  23.928   5.787
 3836POPC   C1A49155   0.382  23.493   6.244
 3836POPC   D2A49156   0.542  23.438   6.705
 3836POPC   C3A49157   0.258  23.524   7.065
 3836POPC   C4A49158   0.272  23.513   7.510
 3836POPC   C1B49159   0.353  24.001   6.209
 3836POPC   C2B49160   0.224  23.835   6.622
 3836POPC   C3B49161   0.238  24.030   7.030
 3836POPC   C4B49162   0.094  24.003   7.462
 3837POPC   NC349163  13.206  39.612   5.421
 3837POPC   PO449164  12.594  39.255   5.399
 3837POPC   GL149165  12.811  39.406   5.714
 3837POPC   GL249166  12.636  39.703   5.765
 3837POPC   C1A49167  13.006  39.259   6.061
 3837POPC   D2A49168  13.010  39.093   6.469
 3837POPC   C3A49169  13.082  39.285   6.858
 3837POPC   C4A49170  13.055  39.228   7.279
 3837POPC   C1B49171  12.619  39.573   6.207
 3837POPC   C2B49172  12.666  39.443   6.629
 3837POPC   C3B49173  12.656  39.604   7.059
 3837POPC   C4B49174  12.338  39.586   7.392
 3838POPC   NC349175  37.154   8.561   5.523
 3838POPC   PO449176  37.027   9.253   5.477
 3838POPC   GL149177  37.090   9.056   5.859
 3838POPC   GL249178  36.762   8.973   5.955
 3838POPC   C1A49179  37.136   8.836   6.254
 3838POPC   D2A49180  36.835   8.649   6.528
 3838POPC   C3A49181  36.742   8.829   6.931
 3838POPC   C4A49182  37.105   8.895   7.086
 3838POPC   C1B49183  36.489   8.932   6.264
 3838POPC   C2B49184  36.526   9.150   6.599
 3838POPC   C3B49185  36.670   9.345   6.924
 3838POPC   C4B49186  36.773   9.230   7.305
 3839POPC   NC349187  12.211  39.525   5.375
 3839POPC   PO449188  12.120  40.198   5.487
 3839POPC   GL149189  12.262  40.078   5.877
 3839POPC   GL249190  12.186  39.744   6.006
 3839POPC   C1A49191  12.364  40.167   6.276
 3839POPC   D2A49192  12.483  39.907   6.621
 3839POPC   C3A49193  12.267  39.982   7.011
 3839POPC   C4A49194  11.984  40.270   7.200
 3839POPC   C1B49195  12.007  39.837   6.393
 3839POPC   C2B49196  11.741  39.749   6.673
 3839POPC   C3B49197  11.768  39.809   7.086
 3839POPC   C4B49198  11.800  39.532   7.379
 3840POPC   NC349199  31.578  19.182   5.248
 3840POPC   PO449200  32.217  19.284   5.359
 3840POPC   GL149201  31.889  19.224   5.658
 3840POPC   GL249202  31.765  18.871   5.674
 3840POPC   C1A49203  31.676  19.270   6.076
 3840POPC   D2A49204  31.429  19.426   6.446
 3840POPC   C3A49205  31.414  19.164   6.839
 3840POPC   C4A49206  31.373  19.413   7.204
 3840POPC   C1B49207  31.678  18.745   6.126
 3840POPC   C2B49208  31.555  18.659   6.562
 3840POPC   C3B49209  31.732  18.621   6.935
 3840POPC   C4B49210  31.644  18.838   7.256
 3841POPC   NC349211   3.422  18.733   5.438
 3841POPC   PO449212   3.943  18.227   5.400
 3841POPC   GL149213   3.781  18.256   5.809
 3841POPC   GL249214   3.437  18.394   5.841
 3841POPC   C1A49215   3.748  18.395   6.238
 3841POPC   D2A49216   3.634  18.505   6.628
 3841POPC   C3A49217   3.863  18.381   6.978
 3841POPC   C4A49218   3.687  18.112   7.209
 3841POPC   C1B49219   3.251  18.252   6.273
 3841POPC   C2B49220   3.123  18.436   6.707
 3841POPC   C3B49221   3.188  18.331   7.179
 3841POPC   C4B49222   3.080  18.316   7.641
 3842POPC   NC349223  36.578  31.828   5.572
 3842POPC   PO449224  36.971  31.384   5.225
 3842POPC   GL149225  37.002  31.341   5.710
 3842POPC   GL249226  37.032  31.695   5.788
 3842POPC   C1A49227  36.935  31.302   6.177
 3842POPC   D2A49228  37.107  31.350   6.629
 3842POPC   C3A49229  36.859  31.276   6.999
 3842POPC   C4A49230  36.699  31.351   7.414
 3842POPC   C1B49231  36.911  31.800   6.198
 3842POPC   C2B49232  37.183  31.840   6.496
 3842POPC   C3B49233  37.091  31.809   6.909
 3842POPC   C4B49234  36.819  31.835   7.264
 3843POPC   NC349235  16.951  43.801   5.046
 3843POPC   PO449236  16.536  43.601   5.504
 3843POPC   GL149237  16.691  43.802   5.844
 3843POPC   GL249238  16.604  44.152   5.825
 3843POPC   C1A49239  16.825  43.674   6.259
 3843POPC   D2A49240  16.933  43.829   6.668
 3843POPC   C3A49241  16.701  43.748   7.041
 3843POPC   C4A49242  16.821  43.822   7.478
 3843POPC   C1B49243  16.468  44.052   6.245
 3843POPC   C2B49244  16.532  44.144   6.694
 3843POPC   C3B49245  16.481  44.195   7.169
 3843POPC   C4B49246  16.835  44.340   7.436
 3844POPC   NC349247  44.009  21.701   5.420
 3844POPC   PO449248  43.559  21.142   5.360
 3844POPC   GL149249  43.687  21.430   5.775
 3844POPC   GL249250  43.584  21.789   5.777
 3844POPC   C1A49251  43.965  21.422   6.198
 3844POPC   D2A49252  43.826  21.293   6.627
 3844POPC   C3A49253  44.107  21.083   6.931
 3844POPC   C4A49254  44.187  21.235   7.362
 3844POPC   C1B49255  43.563  21.721   6.234
 3844POPC   C2B49256  43.859  21.815   6.580
 3844POPC   C3B49257  43.997  21.699   7.003
 3844POPC   C4B49258  43.733  21.380   7.130
 3845POPC   NC349259  42.851  28.782   5.510
 3845POPC   PO449260  43.269  28.391   5.233
 3845POPC   GL149261  43.217  28.289   5.711
 3845POPC   GL249262  43.170  28.581   5.875
 3845POPC   C1A49263  43.309  28.199   6.192
 3845POPC   D2A49264  43.126  28.124   6.595
 3845POPC   C3A49265  43.351  28.274   6.918
 3845POPC   C4A49266  43.137  28.492   7.229
 3845POPC   C1B49267  42.972  28.554   6.317
 3845POPC   C2B49268  42.752  28.510   6.745
 3845POPC   C3B49269  42.702  28.746   7.151
 3845POPC   C4B49270  42.838  28.641   7.625
 3846POPC   NC349271   4.712  41.432   5.199
 3846POPC   PO449272   5.363  41.632   5.358
 3846POPC   GL149273   5.024  41.661   5.668
 3846POPC   GL249274   5.274  41.534   5.899
 3846POPC   C1A49275   4.818  41.580   6.099
 3846POPC   D2A49276   5.037  41.492   6.521
 3846POPC   C3A49277   4.872  41.607   6.942
 3846POPC   C4A49278   4.706  41.461   7.343
 3846POPC   C1B49279   5.266  41.852   6.184
 3846POPC   C2B49280   5.382  41.880   6.599
 3846POPC   C3B49281   5.242  41.974   6.990
 3846POPC   C4B49282   5.069  41.851   7.380
 3847POPC   NC349283  32.190  16.618   5.270
 3847POPC   PO449284  32.447  17.180   5.496
 3847POPC   GL149285  32.315  16.955   5.866
 3847POPC   GL249286  32.111  16.672   5.834
 3847POPC   C1A49287  32.372  16.805   6.280
 3847POPC   D2A49288  32.620  16.610   6.595
 3847POPC   C3A49289  32.452  16.759   6.997
 3847POPC   C4A49290  32.373  16.578   7.407
 3847POPC   C1B49291  31.916  16.415   6.178
 3847POPC   C2B49292  32.082  16.463   6.593
 3847POPC   C3B49293  31.865  16.423   6.976
 3847POPC   C4B49294  31.864  16.460   7.389
 3848POPC   NC349295   5.291  27.041   5.376
 3848POPC   PO449296   4.852  26.571   5.497
 3848POPC   GL149297   5.051  26.829   5.808
 3848POPC   GL249298   4.914  27.160   5.741
 3848POPC   C1A49299   5.263  26.708   6.198
 3848POPC   D2A49300   5.487  26.692   6.589
 3848POPC   C3A49301   5.370  26.494   6.994
 3848POPC   C4A49302   5.217  26.632   7.402
 3848POPC   C1B49303   5.098  27.195   6.181
 3848POPC   C2B49304   4.983  26.963   6.579
 3848POPC   C3B49305   4.838  27.098   6.996
 3848POPC   C4B49306   4.895  27.019   7.463
 3849POPC   NC349307  31.127  36.580   5.247
 3849POPC   PO449308  30.919  35.857   5.539
 3849POPC   GL149309  30.640  36.004   5.876
 3849POPC   GL249310  30.394  36.304   5.800
 3849POPC   C1A49311  30.611  35.823   6.291
 3849POPC   D2A49312  30.867  35.675   6.646
 3849POPC   C3A49313  30.892  36.084   6.848
 3849POPC   C4A49314  30.966  36.245   7.258
 3849POPC   C1B49315  30.505  36.353   6.225
 3849POPC   C2B49316  30.542  36.513   6.629
 3849POPC   C3B49317  30.556  36.434   7.030
 3849POPC   C4B49318  30.468  36.052   7.192
 3850POPC   NC349319  44.571  20.220   5.030
 3850POPC   PO449320  44.778  19.711   5.586
 3850POPC   GL149321  44.496  19.688   5.900
 3850POPC   GL249322  44.709  19.453   6.039
 3850POPC   C1A49323  44.563  19.895   6.293
 3850POPC   D2A49324  44.845  20.119   6.567
 3850POPC   C3A49325  44.670  20.185   6.994
 3850POPC   C4A49326  44.665  19.909   7.333
 3850POPC   C1B49327  44.675  19.429   6.469
 3850POPC   C2B49328  44.642  19.691   6.817
 3850POPC   C3B49329  44.956  19.531   7.106
 3850POPC   C4B49330   0.054  19.509   7.538
 3851POPC   NC349331  10.838  18.176   5.496
 3851POPC   PO449332  10.377  18.659   5.528
 3851POPC   GL149333  10.498  18.420   5.852
 3851POPC   GL249334  10.327  18.174   5.700
 3851POPC   C1A49335  10.655  18.370   6.282
 3851POPC   D2A49336  10.577  18.510   6.713
 3851POPC   C3A49337  10.685  18.386   7.123
 3851POPC   C4A49338  10.363  18.335   7.453
 3851POPC   C1B49339  10.257  18.066   6.152
 3851POPC   C2B49340  10.395  18.032   6.571
 3851POPC   C3B49341  10.271  18.135   6.949
 3851POPC   C4B49342  10.266  17.885   7.275
 3852POPC   NC349343  19.903  34.186   5.136
 3852POPC   PO449344  19.713  34.713   5.569
 3852POPC   GL149345  19.932  34.592   5.893
 3852POPC   GL249346  19.635  34.397   5.963
 3852POPC   C1A49347  20.104  34.772   6.248
 3852POPC   D2A49348  20.339  34.898   6.614
 3852POPC   C3A49349  20.035  34.955   6.935
 3852POPC   C4A49350  19.841  34.596   7.171
 3852POPC   C1B49351  19.604  34.595   6.328
 3852POPC   C2B49352  19.866  34.543   6.656
 3852POPC   C3B49353  19.931  34.171   6.853
 3852POPC   C4B49354  19.707  34.060   7.223
 3853POPC   NC349355  26.264   7.928   5.469
 3853POPC   PO449356  25.900   8.395   5.164
 3853POPC   GL149357  25.946   8.375   5.648
 3853POPC   GL249358  26.243   8.330   5.774
 3853POPC   C1A49359  25.872   8.424   6.127
 3853POPC   D2A49360  25.826   8.165   6.510
 3853POPC   C3A49361  25.892   8.329   6.924
 3853POPC   C4A49362  25.791   8.014   7.201
 3853POPC   C1B49363  26.347   8.580   6.099
 3853POPC   C2B49364  26.233   8.496   6.541
 3853POPC   C3B49365  26.421   8.304   6.917
 3853POPC   C4B49366  26.292   8.141   7.313
 3854POPC   NC349367   0.125  35.437   5.439
 3854POPC   PO449368  44.467  35.421   5.568
 3854POPC   GL149369  44.587  35.451   5.964
 3854POPC   GL249370  44.839  35.645   5.876
 3854POPC   C1A49371  44.665  35.321   6.383
 3854POPC   D2A49372  44.667  35.270   6.826
 3854POPC   C3A49373  44.440  35.022   7.082
 3854POPC   C4A49374  44.663  35.211   7.416
 3854POPC   C1B49375   0.056  35.652   6.238
 3854POPC   C2B49376  44.968  35.652   6.663
 3854POPC   C3B49377  44.900  35.669   7.077
 3854POPC   C4B49378   0.140  35.447   7.316
 3855POPC   NC349379   5.308  43.799   5.243
 3855POPC   PO449380   4.756  44.101   5.491
 3855POPC   GL149381   5.102  43.924   5.745
 3855POPC   GL249382   5.470  43.813   5.711
 3855POPC   C1A49383   5.071  43.748   6.160
 3855POPC   D2A49384   4.993  43.642   6.600
 3855POPC   C3A49385   4.767  43.881   6.902
 3855POPC   C4A49386   4.890  43.839   7.321
 3855POPC   C1B49387   5.528  44.006   6.084
 3855POPC   C2B49388   5.375  44.008   6.478
 3855POPC   C3B49389   5.262  44.022   6.880
 3855POPC   C4B49390   5.399  43.863   7.269
 3856POPC   NC349391  26.887  16.085   5.248
 3856POPC   PO449392  26.328  15.724   5.398
 3856POPC   GL149393  26.658  15.850   5.716
 3856POPC   GL249394  26.939  16.122   5.769
 3856POPC   C1A49395  26.752  15.868   6.175
 3856POPC   D2A49396  26.702  16.148   6.528
 3856POPC   C3A49397  26.872  15.996   6.913
 3856POPC   C4A49398  27.005  15.689   7.187
 3856POPC   C1B49399  27.027  16.359   6.183
 3856POPC   C2B49400  27.179  16.317   6.647
 3856POPC   C3B49401  27.087  16.424   7.124
 3856POPC   C4B49402  27.172  16.467   7.614
 3857POPC   NC349403  24.021  19.876   5.500
 3857POPC   PO449404  23.417  19.512   5.408
 3857POPC   GL149405  23.584  19.654   5.831
 3857POPC   GL249406  23.827  19.919   5.963
 3857POPC   C1A49407  23.422  19.814   6.239
 3857POPC   D2A49408  23.673  19.959   6.625
 3857POPC   C3A49409  23.685  19.840   7.074
 3857POPC   C4A49410  24.015  19.558   7.232
 3857POPC   C1B49411  23.783  20.299   6.224
 3857POPC   C2B49412  23.645  20.464   6.621
 3857POPC   C3B49413  23.823  20.349   7.036
 3857POPC   C4B49414  23.664  20.370   7.474
 3858POPC   NC349415  31.154  12.192   5.457
 3858POPC   PO449416  31.820  12.320   5.478
 3858POPC   GL149417  31.572  12.131   5.773
 3858POPC   GL249418  31.421  11.803   5.714
 3858POPC   C1A49419  31.234  12.132   6.099
 3858POPC   D2A49420  31.096  11.830   6.381
 3858POPC   C3A49421  31.147  11.915   6.839
 3858POPC   C4A49422  31.188  11.825   7.310
 3858POPC   C1B49423  31.619  11.817   6.157
 3858POPC   C2B49424  31.543  12.011   6.547
 3858POPC   C3B49425  31.589  11.768   6.998
 3858POPC   C4B49426  31.635  12.095   7.333
 3859POPC   NC349427  26.003   1.824   5.354
 3859POPC   PO449428  26.447   2.390   5.459
 3859POPC   GL149429  26.421   2.223   5.877
 3859POPC   GL249430  26.202   1.925   5.863
 3859POPC   C1A49431  26.179   2.262   6.269
 3859POPC   D2A49432  25.837   2.191   6.555
 3859POPC   C3A49433  25.972   2.292   6.951
 3859POPC   C4A49434  25.829   2.254   7.326
 3859POPC   C1B49435  26.187   1.756   6.319
 3859POPC   C2B49436  26.286   1.921   6.752
 3859POPC   C3B49437  26.139   1.852   7.185
 3859POPC   C4B49438  26.089   1.473   7.459
 3860POPC   NC349439  26.927  39.560   5.300
 3860POPC   PO449440  26.577  40.186   5.143
 3860POPC   GL149441  26.729  40.080   5.601
 3860POPC   GL249442  26.500  39.871   5.792
 3860POPC   C1A49443  26.969  39.935   6.012
 3860POPC   D2A49444  26.715  39.750   6.397
 3860POPC   C3A49445  26.810  39.818   6.861
 3860POPC   C4A49446  27.223  39.934   7.079
 3860POPC   C1B49447  26.554  40.187   6.123
 3860POPC   C2B49448  26.891  40.326   6.414
 3860POPC   C3B49449  26.960  40.309   6.856
 3860POPC   C4B49450  26.866  40.237   7.302
 3861POPC   NC349451   2.913  12.301   5.411
 3861POPC   PO449452   2.374  12.045   5.506
 3861POPC   GL149453   2.539  12.282   5.804
 3861POPC   GL249454   2.804  12.061   5.842
 3861POPC   C1A49455   2.431  12.298   6.238
 3861POPC   D2A49456   2.700  12.429   6.581
 3861POPC   C3A49457   2.513  12.346   6.941
 3861POPC   C4A49458   2.461  12.068   7.256
 3861POPC   C1B49459   2.960  12.203   6.206
 3861POPC   C2B49460   2.967  11.971   6.583
 3861POPC   C3B49461   2.873  11.953   6.990
 3861POPC   C4B49462   2.931  12.337   7.266
 3862POPC   NC349463  37.377  30.275   5.547
 3862POPC   PO449464  37.062  29.703   5.328
 3862POPC   GL149465  36.825  29.867   5.726
 3862POPC   GL249466  36.849  30.215   5.821
 3862POPC   C1A49467  36.930  29.876   6.189
 3862POPC   D2A49468  36.773  29.731   6.546
 3862POPC   C3A49469  36.842  29.907   6.951
 3862POPC   C4A49470  36.506  29.748   7.176
 3862POPC   C1B49471  37.083  30.360   6.186
 3862POPC   C2B49472  37.228  30.241   6.606
 3862POPC   C3B49473  37.147  30.418   6.990
 3862POPC   C4B49474  36.815  30.343   7.232
 3863POPC   NC349475  11.343   6.408   5.297
 3863POPC   PO449476  11.542   7.023   5.234
 3863POPC   GL149477  11.609   6.766   5.616
 3863POPC   GL249478  11.303   6.633   5.750
 3863POPC   C1A49479  11.606   6.861   6.100
 3863POPC   D2A49480  11.568   6.645   6.518
 3863POPC   C3A49481  11.348   6.680   6.920
 3863POPC   C4A49482  11.610   6.756   7.257
 3863POPC   C1B49483  11.296   6.416   6.147
 3863POPC   C2B49484  11.077   6.481   6.509
 3863POPC   C3B49485  10.905   6.392   6.891
 3863POPC   C4B49486  11.059   6.231   7.252
 3864POPC   NC349487  30.410  11.655   5.622
 3864POPC   PO449488  30.608  11.155   5.199
 3864POPC   GL149489  30.651  11.188   5.657
 3864POPC   GL249490  30.896  11.470   5.754
 3864POPC   C1A49491  30.432  11.100   6.072
 3864POPC   D2A49492  30.611  11.019   6.481
 3864POPC   C3A49493  30.510  11.239   6.845
 3864POPC   C4A49494  30.459  11.166   7.271
 3864POPC   C1B49495  30.784  11.450   6.196
 3864POPC   C2B49496  30.971  11.371   6.596
 3864POPC   C3B49497  30.916  11.508   6.996
 3864POPC   C4B49498  30.876  11.421   7.404
 3865POPC   NC349499  17.644  37.234   5.592
 3865POPC   PO449500  17.297  36.821   5.153
 3865POPC   GL149501  17.448  36.733   5.604
 3865POPC   GL249502  17.818  36.685   5.617
 3865POPC   C1A49503  17.403  36.848   6.076
 3865POPC   D2A49504  17.263  36.733   6.524
 3865POPC   C3A49505  17.357  36.928   6.875
 3865POPC   C4A49506  17.230  37.065   7.270
 3865POPC   C1B49507  17.892  36.669   6.039
 3865POPC   C2B49508  17.744  36.590   6.444
 3865POPC   C3B49509  17.763  36.555   6.885
 3865POPC   C4B49510  17.720  36.862   7.215
 3866POPC   NC349511   0.427  42.965   5.115
 3866POPC   PO449512   0.279  43.440   5.596
 3866POPC   GL149513   0.493  43.183   5.889
 3866POPC   GL249514   0.527  42.812   5.828
 3866POPC   C1A49515   0.457  43.332   6.309
 3866POPC   D2A49516   0.205  43.231   6.652
 3866POPC   C3A49517   0.493  43.145   6.981
 3866POPC   C4A49518   0.913  43.284   7.072
 3866POPC   C1B49519   0.217  42.878   6.204
 3866POPC   C2B49520  44.915  42.811   6.547
 3866POPC   C3B49521  44.963  42.907   6.980
 3866POPC   C4B49522   0.267  42.832   7.307
 3867POPC   NC349523  35.195  35.949   5.552
 3867POPC   PO449524  35.274  35.293   5.274
 3867POPC   GL149525  35.190  35.179   5.696
 3867POPC   GL249526  35.328  35.487   5.824
 3867POPC   C1A49527  35.219  35.096   6.147
 3867POPC   D2A49528  35.567  35.104   6.469
 3867POPC   C3A49529  35.422  35.030   6.855
 3867POPC   C4A49530  35.223  35.009   7.226
 3867POPC   C1B49531  35.458  35.544   6.247
 3867POPC   C2B49532  35.191  35.417   6.583
 3867POPC   C3B49533  35.095  35.560   6.939
 3867POPC   C4B49534  35.282  35.493   7.288
 3868POPC   NC349535  13.720  21.952   5.537
 3868POPC   PO449536  13.452  22.398   5.102
 3868POPC   GL149537  13.404  22.344   5.635
 3868POPC   GL249538  13.701  22.244   5.955
 3868POPC   C1A49539  13.257  22.388   6.089
 3868POPC   D2A49540  13.383  22.103   6.418
 3868POPC   C3A49541  13.408  22.248   6.843
 3868POPC   C4A49542  13.380  22.049   7.223
 3868POPC   C1B49543  13.924  21.867   6.176
 3868POPC   C2B49544  14.163  21.703   6.542
 3868POPC   C3B49545  14.103  21.805   6.981
 3868POPC   C4B49546  13.882  22.158   7.193
 3869POPC   NC349547  15.298  21.031   5.391
 3869POPC   PO449548  14.998  20.436   5.325
 3869POPC   GL149549  15.008  20.707   5.698
 3869POPC   GL249550  15.317  20.843   5.857
 3869POPC   C1A49551  15.029  20.505   6.106
 3869POPC   D2A49552  15.055  20.401   6.520
 3869POPC   C3A49553  15.245  20.589   6.872
 3869POPC   C4A49554  14.981  20.596   7.267
 3869POPC   C1B49555  15.480  20.738   6.247
 3869POPC   C2B49556  15.563  20.964   6.596
 3869POPC   C3B49557  15.670  20.830   6.983
 3869POPC   C4B49558  15.386  20.944   7.293
 3870POPC   NC349559  29.017  26.133   5.520
 3870POPC   PO449560  29.612  26.056   5.366
 3870POPC   GL149561  29.462  26.163   5.776
 3870POPC   GL249562  29.546  25.866   5.949
 3870POPC   C1A49563  29.186  26.243   6.161
 3870POPC   D2A49564  29.115  26.524   6.528
 3870POPC   C3A49565  29.192  26.348   6.983
 3870POPC   C4A49566  28.908  26.241   7.385
 3870POPC   C1B49567  29.319  25.788   6.350
 3870POPC   C2B49568  29.322  25.886   6.802
 3870POPC   C3B49569  29.033  25.801   7.143
 3870POPC   C4B49570  28.984  25.416   7.417
 3871POPC   NC349571  35.255   2.356   5.456
 3871POPC   PO449572  35.154   1.657   5.535
 3871POPC   GL149573  35.300   1.785   5.902
 3871POPC   GL249574  35.462   2.087   5.836
 3871POPC   C1A49575  35.147   1.836   6.288
 3871POPC   D2A49576  35.408   1.949   6.582
 3871POPC   C3A49577  35.259   1.767   6.914
 3871POPC   C4A49578  35.306   2.061   7.214
 3871POPC   C1B49579  35.307   2.308   6.185
 3871POPC   C2B49580  35.117   2.377   6.550
 3871POPC   C3B49581  35.262   2.483   6.929
 3871POPC   C4B49582  35.168   2.593   7.309
 3872POPC   NC349583   6.741  22.814   5.408
 3872POPC   PO449584   6.615  23.433   5.303
 3872POPC   GL149585   6.311  23.176   5.619
 3872POPC   GL249586   6.391  22.854   5.802
 3872POPC   C1A49587   6.254  23.208   6.107
 3872POPC   D2A49588   6.336  22.853   6.447
 3872POPC   C3A49589   6.384  22.970   6.894
 3872POPC   C4A49590   6.369  22.672   7.210
 3872POPC   C1B49591   6.719  22.902   6.094
 3872POPC   C2B49592   6.854  22.731   6.475
 3872POPC   C3B49593   6.710  22.543   6.828
 3872POPC   C4B49594   6.873  22.815   7.130
 3873POPC   NC349595  43.098  41.739   5.134
 3873POPC   PO449596  42.962  42.341   5.446
 3873POPC   GL149597  43.094  42.456   5.847
 3873POPC   GL249598  43.115  42.135   5.993
 3873POPC   C1A49599  43.207  42.564   6.286
 3873POPC   D2A49600  43.077  42.283   6.628
 3873POPC   C3A49601  42.908  42.450   7.012
 3873POPC   C4A49602  43.166  42.604   7.352
 3873POPC   C1B49603  43.369  41.897   6.290
 3873POPC   C2B49604  43.392  41.872   6.751
 3873POPC   C3B49605  43.330  42.164   7.088
 3873POPC   C4B49606  43.036  42.127   7.408
 3874POPC   NC349607   3.186  44.624   5.550
 3874POPC   PO449608   2.561  44.404   5.286
 3874POPC   GL149609   2.705  44.537   5.731
 3874POPC   GL249610   2.447  44.709   5.920
 3874POPC   C1A49611   2.764  44.412   6.195
 3874POPC   D2A49612   2.899  44.631   6.565
 3874POPC   C3A49613   2.953  44.461   7.010
 3874POPC   C4A49614   3.015  44.461   7.508
 3874POPC   C1B49615   2.792  44.975   6.122
 3874POPC   C2B49616   2.993   0.220   6.489
 3874POPC   C3B49617   2.953  44.998   6.896
 3874POPC   C4B49618   2.840  44.906   7.299
 3875POPC   NC349619  28.188  17.089   5.509
 3875POPC   PO449620  28.597  16.588   5.578
 3875POPC   GL149621  28.433  16.834   5.877
 3875POPC   GL249622  28.106  16.631   5.824
 3875POPC   C1A49623  28.152  16.944   6.214
 3875POPC   D2A49624  28.031  16.749   6.608
 3875POPC   C3A49625  28.336  16.786   6.928
 3875POPC   C4A49626  28.318  16.824   7.353
 3875POPC   C1B49627  28.299  16.451   6.204
 3875POPC   C2B49628  28.201  16.260   6.594
 3875POPC   C3B49629  28.306  16.274   7.010
 3875POPC   C4B49630  28.073  16.388   7.329
 3876POPC   NC349631  40.397  12.305   5.278
 3876POPC   PO449632  40.977  12.058   5.349
 3876POPC   GL149633  40.797  12.055   5.762
 3876POPC   GL249634  40.423  12.108   5.756
 3876POPC   C1A49635  40.811  11.842   6.173
 3876POPC   D2A49636  40.957  11.624   6.544
 3876POPC   C3A49637  40.970  11.887   6.889
 3876POPC   C4A49638  40.745  12.070   7.207
 3876POPC   C1B49639  40.383  12.130   6.194
 3876POPC   C2B49640  40.554  12.016   6.599
 3876POPC   C3B49641  40.353  12.221   6.927
 3876POPC   C4B49642  40.366  12.392   7.337
 3877POPC   NC349643  20.921  29.346   5.509
 3877POPC   PO449644  21.604  29.158   5.431
 3877POPC   GL149645  21.532  29.189   5.858
 3877POPC   GL249646  21.198  29.302   5.938
 3877POPC   C1A49647  21.588  29.203   6.302
 3877POPC   D2A49648  21.310  29.107   6.661
 3877POPC   C3A49649  21.482  28.892   7.038
 3877POPC   C4A49650  21.672  28.955   7.441
 3877POPC   C1B49651  21.172  29.513   6.328
 3877POPC   C2B49652  21.283  29.619   6.742
 3877POPC   C3B49653  21.391  29.388   7.087
 3877POPC   C4B49654  21.226  29.186   7.446
 3878POPC   NC349655   7.682  41.245   5.404
 3878POPC   PO449656   8.322  41.455   5.326
 3878POPC   GL149657   8.394  41.579   5.755
 3878POPC   GL249658   8.049  41.574   5.861
 3878POPC   C1A49659   8.470  41.593   6.219
 3878POPC   D2A49660   8.254  41.655   6.608
 3878POPC   C3A49661   8.466  41.609   7.029
 3878POPC   C4A49662   8.286  41.460   7.451
 3878POPC   C1B49663   8.029  41.294   6.210
 3878POPC   C2B49664   7.907  41.261   6.618
 3878POPC   C3B49665   7.974  41.413   7.011
 3878POPC   C4B49666   7.914  41.145   7.357
 3879POPC   NC349667  11.557  32.888   5.440
 3879POPC   PO449668  11.103  33.368   5.585
 3879POPC   GL149669  11.068  33.047   5.906
 3879POPC   GL249670  11.304  32.774   5.876
 3879POPC   C1A49671  11.224  32.988   6.336
 3879POPC   D2A49672  11.439  32.955   6.714
 3879POPC   C3A49673  11.423  33.286   7.018
 3879POPC   C4A49674  11.330  33.410   7.461
 3879POPC   C1B49675  10.948  32.601   6.136
 3879POPC   C2B49676  10.912  32.621   6.568
 3879POPC   C3B49677  11.093  32.690   6.970
 3879POPC   C4B49678  11.078  33.014   7.246
 3880POPC   NC349679   5.315  24.279   5.313
 3880POPC   PO449680   4.922  23.732   5.508
 3880POPC   GL149681   4.905  23.675   5.891
 3880POPC   GL249682   5.242  23.697   5.951
 3880POPC   C1A49683   4.895  23.823   6.293
 3880POPC   D2A49684   5.116  23.976   6.623
 3880POPC   C3A49685   4.940  23.980   7.053
 3880POPC   C4A49686   5.162  23.789   7.393
 3880POPC   C1B49687   5.327  23.515   6.329
 3880POPC   C2B49688   5.440  23.619   6.741
 3880POPC   C3B49689   5.375  23.440   7.073
 3880POPC   C4B49690   5.516  23.050   7.198
 3881POPC   NC349691  22.249  41.470   5.416
 3881POPC   PO449692  21.714  41.768   5.455
 3881POPC   GL149693  21.898  41.557   5.803
 3881POPC   GL249694  22.225  41.709   5.866
 3881POPC   C1A49695  21.939  41.566   6.261
 3881POPC   D2A49696  22.196  41.440   6.569
 3881POPC   C3A49697  22.076  41.635   6.934
 3881POPC   C4A49698  22.188  41.429   7.293
 3881POPC   C1B49699  22.406  41.832   6.281
 3881POPC   C2B49700  22.658  41.649   6.643
 3881POPC   C3B49701  22.561  41.715   7.092
 3881POPC   C4B49702  22.455  41.730   7.576
 3882POPC   NC349703  39.662  29.264   5.666
 3882POPC   PO449704  40.118  28.881   5.399
 3882POPC   GL149705  40.276  29.052   5.771
 3882POPC   GL249706  40.165  29.391   5.808
 3882POPC   C1A49707  40.104  28.997   6.177
 3882POPC   D2A49708  39.832  28.971   6.529
 3882POPC   C3A49709  40.094  29.000   6.884
 3882POPC   C4A49710  39.998  29.059   7.283
 3882POPC   C1B49711  40.272  29.473   6.256
 3882POPC   C2B49712  39.976  29.454   6.578
 3882POPC   C3B49713  39.785  29.421   6.969
 3882POPC   C4B49714  39.923  29.545   7.377
 3883POPC   NC349715  14.092   3.852   5.398
 3883POPC   PO449716  13.608   3.447   5.092
 3883POPC   GL149717  13.605   3.578   5.548
 3883POPC   GL249718  13.892   3.396   5.677
 3883POPC   C1A49719  13.583   3.574   6.041
 3883POPC   D2A49720  13.631   3.381   6.486
 3883POPC   C3A49721  13.611   3.640   6.874
 3883POPC   C4A49722  13.334   3.704   7.213
 3883POPC   C1B49723  14.011   3.256   6.104
 3883POPC   C2B49724  14.098   3.174   6.554
 3883POPC   C3B49725  13.828   3.183   6.927
 3883POPC   C4B49726  13.771   3.400   7.290
 3884POPC   NC349727  37.523   0.174   5.354
 3884POPC   PO449728  37.816  44.488   5.490
 3884POPC   GL149729  37.654  44.737   5.829
 3884POPC   GL249730  37.324  44.869   5.746
 3884POPC   C1A49731  37.497  44.606   6.246
 3884POPC   D2A49732  37.589  44.300   6.598
 3884POPC   C3A49733  37.584  44.490   7.007
 3884POPC   C4A49734  37.898  44.524   7.327
 3884POPC   C1B49735  37.321   0.087   6.148
 3884POPC   C2B49736  37.313   0.010   6.587
 3884POPC   C3B49737  37.315   0.151   7.022
 3884POPC   C4B49738  37.594  44.949   7.326
 3885POPC   NC349739  36.132  29.046   5.353
 3885POPC   PO449740  36.064  29.664   5.268
 3885POPC   GL149741  35.998  29.463   5.647
 3885POPC   GL249742  36.350  29.483   5.722
 3885POPC   C1A49743  35.940  29.294   6.088
 3885POPC   D2A49744  36.006  29.461   6.506
 3885POPC   C3A49745  36.038  29.231   6.863
 3885POPC   C4A49746  35.916  29.036   7.230
 3885POPC   C1B49747  36.426  29.573   6.177
 3885POPC   C2B49748  36.495  29.280   6.530
 3885POPC   C3B49749  36.486  29.019   6.879
 3885POPC   C4B49750  36.403  29.243   7.253
 3886POPC   NC349751  43.713  14.060   5.450
 3886POPC   PO449752  43.730  13.407   5.380
 3886POPC   GL149753  43.859  13.297   5.809
 3886POPC   GL249754  43.893  13.657   5.916
 3886POPC   C1A49755  43.959  13.319   6.281
 3886POPC   D2A49756  43.735  13.572   6.618
 3886POPC   C3A49757  43.713  13.365   7.029
 3886POPC   C4A49758  43.722  13.574   7.458
 3886POPC   C1B49759  44.217  13.758   6.246
 3886POPC   C2B49760  44.234  13.664   6.683
 3886POPC   C3B49761  44.146  13.605   7.149
 3886POPC   C4B49762  44.145  13.854   7.538
 3887POPC   NC349763  26.438  20.423   5.409
 3887POPC   PO449764  26.919  20.980   5.341
 3887POPC   GL149765  26.634  20.861   5.660
 3887POPC   GL249766  26.747  20.544   5.804
 3887POPC   C1A49767  26.631  20.945   6.106
 3887POPC   D2A49768  26.813  20.820   6.488
 3887POPC   C3A49769  26.518  20.740   6.828
 3887POPC   C4A49770  26.535  20.713   7.287
 3887POPC   C1B49771  26.686  20.346   6.203
 3887POPC   C2B49772  26.848  20.343   6.620
 3887POPC   C3B49773  26.733  20.302   7.041
 3887POPC   C4B49774  27.078  20.118   7.275
 3888POPC   NC349775  18.282   5.629   4.962
 3888POPC   PO449776  18.258   4.988   5.160
 3888POPC   GL149777  18.302   5.175   5.641
 3888POPC   GL249778  18.642   5.219   5.779
 3888POPC   C1A49779  18.174   5.086   6.111
 3888POPC   D2A49780  18.061   5.206   6.516
 3888POPC   C3A49781  18.076   4.930   6.847
 3888POPC   C4A49782  18.176   5.037   7.254
 3888POPC   C1B49783  18.707   4.921   6.134
 3888POPC   C2B49784  18.500   4.959   6.520
 3888POPC   C3B49785  18.579   4.880   6.934
 3888POPC   C4B49786  18.700   4.550   7.133
 3889POPC   NC349787  41.827  36.734   5.647
 3889POPC   PO449788  41.706  37.375   5.453
 3889POPC   GL149789  41.562  37.251   5.843
 3889POPC   GL249790  41.197  37.200   5.842
 3889POPC   C1A49791  41.731  37.155   6.230
 3889POPC   D2A49792  41.731  36.839   6.565
 3889POPC   C3A49793  41.900  36.961   6.955
 3889POPC   C4A49794  41.693  36.858   7.319
 3889POPC   C1B49795  41.303  36.908   6.192
 3889POPC   C2B49796  41.172  36.845   6.622
 3889POPC   C3B49797  41.219  36.748   7.046
 3889POPC   C4B49798  41.126  36.955   7.423
 3890POPC   NC349799   5.665  21.223   5.524
 3890POPC   PO449800   6.274  21.638   5.617
 3890POPC   GL149801   5.970  21.434   5.880
 3890POPC   GL249802   6.023  21.061   5.878
 3890POPC   C1A49803   5.683  21.540   6.222
 3890POPC   D2A49804   5.473  21.567   6.613
 3890POPC   C3A49805   5.850  21.554   6.836
 3890POPC   C4A49806   6.025  21.539   7.224
 3890POPC   C1B49807   5.709  21.036   6.196
 3890POPC   C2B49808   5.750  21.067   6.648
 3890POPC   C3B49809   5.713  21.100   7.104
 3890POPC   C4B49810   5.433  21.132   7.471
 3891POPC   NC349811   3.133   6.561   5.532
 3891POPC   PO449812   3.773   6.336   5.372
 3891POPC   GL149813   3.611   6.675   5.712
 3891POPC   GL249814   3.746   7.046   5.752
 3891POPC   C1A49815   3.383   6.731   6.138
 3891POPC   D2A49816   3.134   6.749   6.522
 3891POPC   C3A49817   3.368   6.761   6.919
 3891POPC   C4A49818   3.331   6.587   7.307
 3891POPC   C1B49819   3.681   7.144   6.227
 3891POPC   C2B49820   3.758   6.862   6.625
 3891POPC   C3B49821   3.837   6.633   7.080
 3891POPC   C4B49822   3.779   6.693   7.561
 3892POPC   NC349823  21.059  43.947   5.449
 3892POPC   PO449824  21.704  44.271   5.542
 3892POPC   GL149825  21.502  43.920   5.761
 3892POPC   GL249826  21.284  44.151   5.843
 3892POPC   C1A49827  21.310  43.755   6.178
 3892POPC   D2A49828  21.160  43.974   6.541
 3892POPC   C3A49829  21.155  43.786   6.937
 3892POPC   C4A49830  21.532  43.552   7.030
 3892POPC   C1B49831  21.404  44.298   6.229
 3892POPC   C2B49832  21.347  44.474   6.636
 3892POPC   C3B49833  21.605  44.420   6.962
 3892POPC   C4B49834  21.477  44.082   7.179
 3893POPC   NC349835  33.228  15.555   5.560
 3893POPC   PO449836  33.312  14.925   5.488
 3893POPC   GL149837  33.099  15.144   5.839
 3893POPC   GL249838  33.232  14.970   6.083
 3893POPC   C1A49839  33.098  15.415   6.265
 3893POPC   D2A49840  33.351  15.448   6.680
 3893POPC   C3A49841  33.228  15.212   7.071
 3893POPC   C4A49842  33.019  15.405   7.475
 3893POPC   C1B49843  32.781  15.011   6.221
 3893POPC   C2B49844  32.629  15.138   6.663
 3893POPC   C3B49845  32.736  15.114   7.142
 3893POPC   C4B49846  32.965  14.905   7.523
 3894POPC   NC349847  37.435  41.704   5.478
 3894POPC   PO449848  37.996  41.249   5.449
 3894POPC   GL149849  37.794  41.463   5.825
 3894POPC   GL249850  37.671  41.759   5.928
 3894POPC   C1A49851  37.510  41.368   6.215
 3894POPC   D2A49852  37.452  41.139   6.637
 3894POPC   C3A49853  37.652  41.260   7.074
 3894POPC   C4A49854  37.693  41.395   7.561
 3894POPC   C1B49855  37.764  41.773   6.337
 3894POPC   C2B49856  37.700  41.993   6.662
 3894POPC   C3B49857  37.701  41.785   7.006
 3894POPC   C4B49858  37.803  42.081   7.249
 3895POPC   NC349859  28.103  10.727   5.426
 3895POPC   PO449860  27.455  10.426   5.435
 3895POPC   GL149861  27.621  10.461   5.839
 3895POPC   GL249862  27.959  10.373   5.844
 3895POPC   C1A49863  27.619  10.643   6.255
 3895POPC   D2A49864  27.698  10.770   6.693
 3895POPC   C3A49865  27.412  10.562   6.977
 3895POPC   C4A49866  27.549  10.422   7.376
 3895POPC   C1B49867  27.809  10.144   6.209
 3895POPC   C2B49868  27.673  10.257   6.606
 3895POPC   C3B49869  27.853  10.288   6.998
 3895POPC   C4B49870  27.859  10.009   7.307
 3896POPC   NC349871  23.808  33.547   5.434
 3896POPC   PO449872  23.590  34.170   5.612
 3896POPC   GL149873  23.808  33.850   5.875
 3896POPC   GL249874  23.561  33.567   5.890
 3896POPC   C1A49875  23.967  33.720   6.299
 3896POPC   D2A49876  24.010  33.666   6.756
 3896POPC   C3A49877  23.693  33.910   6.958
 3896POPC   C4A49878  23.692  34.100   7.315
 3896POPC   C1B49879  23.578  33.357   6.291
 3896POPC   C2B49880  23.541  33.456   6.751
 3896POPC   C3B49881  23.734  33.453   7.186
 3896POPC   C4B49882  23.731  33.382   7.666
 3897POPC   NC349883  39.461  10.888   5.438
 3897POPC   PO449884  38.790  10.800   5.580
 3897POPC   GL149885  39.201  10.706   5.884
 3897POPC   GL249886  39.351  10.367   5.987
 3897POPC   C1A49887  39.269  10.684   6.361
 3897POPC   D2A49888  38.953  10.630   6.691
 3897POPC   C3A49889  39.096  10.700   7.121
 3897POPC   C4A49890  39.352  10.856   7.449
 3897POPC   C1B49891  39.062  10.225   6.278
 3897POPC   C2B49892  39.231  10.219   6.649
 3897POPC   C3B49893  39.454  10.408   6.918
 3897POPC   C4B49894  39.514  10.404   7.310
 3898POPC   NC349895  39.673  37.597   5.530
 3898POPC   PO449896  40.117  38.097   5.663
 3898POPC   GL149897  39.832  37.937   5.899
 3898POPC   GL249898  40.043  37.649   5.878
 3898POPC   C1A49899  39.936  37.872   6.327
 3898POPC   D2A49900  39.885  38.044   6.674
 3898POPC   C3A49901  40.012  37.852   7.023
 3898POPC   C4A49902  39.752  37.710   7.336
 3898POPC   C1B49903  40.017  37.379   6.183
 3898POPC   C2B49904  39.849  37.194   6.525
 3898POPC   C3B49905  39.947  37.318   6.938
 3898POPC   C4B49906  40.163  37.400   7.272
 3899POPC   NC349907  13.012  30.345   5.057
 3899POPC   PO449908  12.689  30.890   5.379
 3899POPC   GL149909  12.747  30.721   5.828
 3899POPC   GL249910  12.602  30.388   5.725
 3899POPC   C1A49911  12.935  30.686   6.243
 3899POPC   D2A49912  12.873  30.775   6.647
 3899POPC   C3A49913  13.008  30.580   6.971
 3899POPC   C4A49914  13.024  30.789   7.336
 3899POPC   C1B49915  12.689  30.267   6.114
 3899POPC   C2B49916  12.527  30.438   6.476
 3899POPC   C3B49917  12.564  30.358   6.891
 3899POPC   C4B49918  12.666  30.415   7.331
 3900POPC   NC349919  36.467  25.598   5.550
 3900POPC   PO449920  35.887  25.446   5.335
 3900POPC   GL149921  36.107  25.182   5.663
 3900POPC   GL249922  36.479  25.101   5.738
 3900POPC   C1A49923  36.087  25.038   6.099
 3900POPC   D2A49924  36.160  25.250   6.478
 3900POPC   C3A49925  35.915  25.222   6.853
 3900POPC   C4A49926  36.039  25.390   7.245
 3900POPC   C1B49927  36.550  25.341   6.145
 3900POPC   C2B49928  36.591  25.525   6.567
 3900POPC   C3B49929  36.442  25.307   6.920
 3900POPC   C4B49930  36.471  25.073   7.276
 3901POPC   NC349931  14.900  36.856   5.276
 3901POPC   PO449932  14.401  36.755   5.532
 3901POPC   GL149933  14.250  36.886   5.948
 3901POPC   GL249934  13.980  37.147   5.922
 3901POPC   C1A49935  14.187  36.637   6.351
 3901POPC   D2A49936  14.041  36.698   6.777
 3901POPC   C3A49937  14.296  36.889   7.113
 3901POPC   C4A49938  14.305  37.015   7.579
 3901POPC   C1B49939  14.128  37.157   6.377
 3901POPC   C2B49940  14.253  37.341   6.786
 3901POPC   C3B49941  14.454  37.491   7.185
 3901POPC   C4B49942  14.348  37.525   7.628
 3902POPC   NC349943  22.033   8.523   5.404
 3902POPC   PO449944  22.359   9.059   5.507
 3902POPC   GL149945  22.087   8.897   5.775
 3902POPC   GL249946  22.205   8.602   5.867
 3902POPC   C1A49947  21.908   8.940   6.197
 3902POPC   D2A49948  22.095   9.111   6.576
 3902POPC   C3A49949  21.987   8.962   6.998
 3902POPC   C4A49950  22.310   8.976   7.323
 3902POPC   C1B49951  22.405   8.766   6.202
 3902POPC   C2B49952  22.365   8.674   6.624
 3902POPC   C3B49953  22.567   8.642   7.006
 3902POPC   C4B49954  22.403   8.448   7.378
 3903POPC   NC349955  28.584  40.465   5.609
 3903POPC   PO449956  28.386  41.056   5.551
 3903POPC   GL149957  28.241  40.986   5.942
 3903POPC   GL249958  28.246  40.620   5.949
 3903POPC   C1A49959  28.335  40.895   6.373
 3903POPC   D2A49960  28.548  41.096   6.683
 3903POPC   C3A49961  28.405  41.024   7.082
 3903POPC   C4A49962  28.441  40.953   7.508
 3903POPC   C1B49963  28.328  40.373   6.333
 3903POPC   C2B49964  28.424  40.424   6.784
 3903POPC   C3B49965  28.198  40.527   7.132
 3903POPC   C4B49966  28.059  40.296   7.490
 3904POPC   NC349967  18.021  39.901   5.149
 3904POPC   PO449968  18.499  40.403   5.324
 3904POPC   GL149969  18.426  40.097   5.690
 3904POPC   GL249970  18.082  39.957   5.701
 3904POPC   C1A49971  18.339  40.043   6.144
 3904POPC   D2A49972  18.111  40.137   6.521
 3904POPC   C3A49973  18.260  39.916   6.886
 3904POPC   C4A49974  18.281  40.025   7.319
 3904POPC   C1B49975  17.933  39.742   6.125
 3904POPC   C2B49976  17.922  39.652   6.607
 3904POPC   C3B49977  17.802  39.792   7.063
 3904POPC   C4B49978  17.794  39.856   7.515
 3905POPC   NC349979  43.232  21.997   5.389
 3905POPC   PO449980  42.604  22.124   5.531
 3905POPC   GL149981  42.935  22.316   5.788
 3905POPC   GL249982  43.158  22.067   5.882
 3905POPC   C1A49983  43.114  22.496   6.181
 3905POPC   D2A49984  43.140  22.505   6.639
 3905POPC   C3A49985  43.299  22.294   7.008
 3905POPC   C4A49986  43.067  22.165   7.374
 3905POPC   C1B49987  43.107  21.990   6.301
 3905POPC   C2B49988  43.336  21.956   6.629
 3905POPC   C3B49989  43.488  21.811   6.977
 3905POPC   C4B49990  43.242  21.693   7.284
 3906POPC   NC349991  15.701  21.566   5.459
 3906POPC   PO449992  16.264  21.714   5.150
 3906POPC   GL149993  16.129  21.591   5.691
 3906POPC   GL249994  16.170  21.218   5.791
 3906POPC   C1A49995  15.911  21.539   6.142
 3906POPC   D2A49996  15.954  21.333   6.586
 3906POPC   C3A49997  16.078  21.537   6.960
 3906POPC   C4A49998  15.909  21.748   7.296
 3906POPC   C1B49999  15.946  21.017   6.187
 3906POPC   C2B50000  16.063  20.837   6.584
 3906POPC   C3B50001  16.142  21.023   6.998
 3906POPC   C4B50002  15.850  21.141   7.352
 3907POPC   NC350003   0.927   0.982   5.418
 3907POPC   PO450004   1.444   1.331   5.388
 3907POPC   GL150005   1.316   1.082   5.806
 3907POPC   GL250006   0.994   0.973   5.916
 3907POPC   C1A50007   1.367   1.010   6.280
 3907POPC   D2A50008   1.034   1.040   6.622
 3907POPC   C3A50009   1.267   1.031   6.992
 3907POPC   C4A50010   1.315   0.919   7.427
 3907POPC   C1B50011   1.015   1.338   6.184
 3907POPC   C2B50012   1.135   1.540   6.559
 3907POPC   C3B50013   0.984   1.451   6.971
 3907POPC   C4B50014   1.289   1.422   7.307
 3908POPC   NC350015  21.803   2.502   5.381
 3908POPC   PO450016  22.256   3.063   5.155
 3908POPC   GL150017  22.096   2.892   5.610
 3908POPC   GL250018  22.317   2.600   5.679
 3908POPC   C1A50019  21.924   2.631   6.012
 3908POPC   D2A50020  22.006   2.725   6.457
 3908POPC   C3A50021  22.092   2.461   6.810
 3908POPC   C4A50022  22.114   2.638   7.221
 3908POPC   C1B50023  22.395   2.785   6.108
 3908POPC   C2B50024  22.433   3.018   6.494
 3908POPC   C3B50025  22.491   2.840   6.893
 3908POPC   C4B50026  22.419   3.074   7.248
 3909POPC   NC350027  11.982  28.134   5.617
 3909POPC   PO450028  11.654  28.768   5.495
 3909POPC   GL150029  11.864  28.582   5.872
 3909POPC   GL250030  12.246  28.466   5.919
 3909POPC   C1A50031  11.892  28.531   6.312
 3909POPC   D2A50032  12.143  28.696   6.656
 3909POPC   C3A50033  11.943  28.582   7.032
 3909POPC   C4A50034  11.874  28.207   7.236
 3909POPC   C1B50035  12.334  28.288   6.339
 3909POPC   C2B50036  12.236  28.212   6.781
 3909POPC   C3B50037  12.374  28.047   7.149
 3909POPC   C4B50038  12.344  28.231   7.534
 3910POPC   NC350039  36.033  22.378   5.414
 3910POPC   PO450040  36.337  21.807   5.383
 3910POPC   GL150041  36.386  22.073   5.767
 3910POPC   GL250042  36.595  21.795   5.860
 3910POPC   C1A50043  36.115  22.268   6.140
 3910POPC   D2A50044  35.887  22.138   6.533
 3910POPC   C3A50045  35.990  22.293   6.932
 3910POPC   C4A50046  36.026  22.254   7.382
 3910POPC   C1B50047  36.410  21.881   6.269
 3910POPC   C2B50048  36.361  22.000   6.689
 3910POPC   C3B50049  36.406  22.001   7.117
 3910POPC   C4B50050  36.555  22.203   7.494
 3911POPC   NC350051  25.868  17.468   5.436
 3911POPC   PO450052  26.544  17.582   5.435
 3911POPC   GL150053  26.242  17.390   5.772
 3911POPC   GL250054  25.893  17.226   5.869
 3911POPC   C1A50055  26.191  17.505   6.194
 3911POPC   D2A50056  26.032  17.349   6.574
 3911POPC   C3A50057  26.032  17.657   6.886
 3911POPC   C4A50058  26.006  17.674   7.297
 3911POPC   C1B50059  25.667  17.060   6.219
 3911POPC   C2B50060  25.521  17.246   6.595
 3911POPC   C3B50061  25.669  17.325   6.998
 3911POPC   C4B50062  25.661  17.072   7.315
 3912POPC   NC350063   3.277   2.698   5.177
 3912POPC   PO450064   3.732   2.352   5.585
 3912POPC   GL150065   3.596   2.724   5.805
 3912POPC   GL250066   3.232   2.818   5.723
 3912POPC   C1A50067   3.707   2.883   6.219
 3912POPC   D2A50068   3.620   2.674   6.612
 3912POPC   C3A50069   3.548   2.898   6.978
 3912POPC   C4A50070   3.827   3.223   7.116
 3912POPC   C1B50071   3.098   2.876   6.182
 3912POPC   C2B50072   3.070   2.754   6.639
 3912POPC   C3B50073   3.259   2.468   6.919
 3912POPC   C4B50074   3.534   2.435   7.268
 3913POPC   NC350075  38.373  10.734   5.357
 3913POPC   PO450076  38.387  10.111   5.591
 3913POPC   GL150077  38.431  10.472   5.820
 3913POPC   GL250078  38.077  10.559   5.739
 3913POPC   C1A50079  38.599  10.457   6.263
 3913POPC   D2A50080  38.691  10.182   6.638
 3913POPC   C3A50081  38.615  10.435   7.014
 3913POPC   C4A50082  38.639  10.891   7.016
 3913POPC   C1B50083  38.090  10.549   6.176
 3913POPC   C2B50084  38.269  10.734   6.558
 3913POPC   C3B50085  38.151  10.629   6.933
 3913POPC   C4B50086  37.915  10.686   7.261
 3914POPC   NC350087   3.998  16.508   5.545
 3914POPC   PO450088   4.541  16.621   5.621
 3914POPC   GL150089   4.281  16.879   5.838
 3914POPC   GL250090   4.046  16.667   6.021
 3914POPC   C1A50091   4.415  17.014   6.214
 3914POPC   D2A50092   4.587  16.907   6.595
 3914POPC   C3A50093   4.358  16.942   6.945
 3914POPC   C4A50094   4.584  16.936   7.285
 3914POPC   C1B50095   4.347  16.518   6.322
 3914POPC   C2B50096   4.318  16.448   6.770
 3914POPC   C3B50097   4.329  16.478   7.228
 3914POPC   C4B50098   4.188  16.296   7.644
 3915POPC   NC350099  25.071   9.084   5.371
 3915POPC   PO450100  25.600   8.718   5.538
 3915POPC   GL150101  25.185   8.789   5.750
 3915POPC   GL250102  25.381   9.087   5.846
 3915POPC   C1A50103  25.022   8.994   6.179
 3915POPC   D2A50104  25.286   9.076   6.507
 3915POPC   C3A50105  25.125   9.025   6.858
 3915POPC   C4A50106  25.315   9.013   7.217
 3915POPC   C1B50107  25.451   8.717   6.157
 3915POPC   C2B50108  25.613   8.629   6.523
 3915POPC   C3B50109  25.549   8.711   6.900
 3915POPC   C4B50110  25.827   8.809   7.231
 3916POPC   NC350111  17.692  43.115   5.157
 3916POPC   PO450112  17.257  42.922   5.638
 3916POPC   GL150113  17.450  43.148   5.906
 3916POPC   GL250114  17.632  43.359   5.679
 3916POPC   C1A50115  17.516  43.098   6.348
 3916POPC   D2A50116  17.528  43.154   6.809
 3916POPC   C3A50117  17.404  42.933   7.165
 3916POPC   C4A50118  17.386  42.823   7.598
 3916POPC   C1B50119  17.859  43.385   6.100
 3916POPC   C2B50120  17.972  43.238   6.557
 3916POPC   C3B50121  17.891  43.415   7.017
 3916POPC   C4B50122  17.840  43.222   7.452
 3917POPC   NC350123  44.439  25.946   5.116
 3917POPC   PO450124  44.241  26.231   5.720
 3917POPC   GL150125  44.636  26.094   5.943
 3917POPC   GL250126  44.965  26.068   5.735
 3917POPC   C1A50127  44.634  25.813   6.282
 3917POPC   D2A50128  44.444  25.776   6.697
 3917POPC   C3A50129  44.652  25.938   7.054
 3917POPC   C4A50130  44.439  26.284   7.237
 3917POPC   C1B50131   0.095  26.088   6.189
 3917POPC   C2B50132  44.901  26.111   6.614
 3917POPC   C3B50133  44.909  26.378   6.981
 3917POPC   C4B50134  44.954  26.341   7.412
 3918POPC   NC350135  34.669  19.207   5.387
 3918POPC   PO450136  34.656  18.603   5.385
 3918POPC   GL150137  34.490  18.863   5.780
 3918POPC   GL250138  34.522  19.254   5.867
 3918POPC   C1A50139  34.477  18.921   6.247
 3918POPC   D2A50140  34.335  19.178   6.591
 3918POPC   C3A50141  34.461  19.056   6.977
 3918POPC   C4A50142  34.367  18.642   7.129
 3918POPC   C1B50143  34.704  19.415   6.269
 3918POPC   C2B50144  34.580  19.604   6.671
 3918POPC   C3B50145  34.782  19.492   7.027
 3918POPC   C4B50146  34.919  19.119   7.193
 3919POPC   NC350147   8.690  41.700   5.219
 3919POPC   PO450148   9.286  41.421   5.312
 3919POPC   GL150149   9.085  41.570   5.672
 3919POPC   GL250150   9.306  41.829   5.694
 3919POPC   C1A50151   8.964  41.466   6.106
 3919POPC   D2A50152   8.955  41.186   6.450
 3919POPC   C3A50153   8.909  41.390   6.851
 3919POPC   C4A50154   8.838  41.209   7.256
 3919POPC   C1B50155   9.313  41.842   6.161
 3919POPC   C2B50156   9.331  41.605   6.592
 3919POPC   C3B50157   9.243  41.739   7.048
 3919POPC   C4B50158   9.153  41.921   7.494
 3920POPC   NC350159  33.860  14.104   5.072
 3920POPC   PO450160  33.642  13.492   5.343
 3920POPC   GL150161  33.828  13.537   5.740
 3920POPC   GL250162  34.179  13.441   5.767
 3920POPC   C1A50163  33.624  13.676   6.110
 3920POPC   D2A50164  33.703  13.590   6.531
 3920POPC   C3A50165  33.618  13.800   6.912
 3920POPC   C4A50166  33.722  13.677   7.332
 3920POPC   C1B50167  34.130  13.710   6.154
 3920POPC   C2B50168  34.215  13.586   6.553
 3920POPC   C3B50169  34.099  13.618   6.966
 3920POPC   C4B50170  34.113  14.002   7.184
 3921POPC   NC350171  13.524   7.007   5.650
 3921POPC   PO450172  13.814   7.455   5.276
 3921POPC   GL150173  13.811   7.551   5.743
 3921POPC   GL250174  14.085   7.818   5.819
 3921POPC   C1A50175  13.808   7.267   6.155
 3921POPC   D2A50176  13.929   7.233   6.575
 3921POPC   C3A50177  13.562   7.253   6.854
 3921POPC   C4A50178  13.631   7.248   7.247
 3921POPC   C1B50179  13.961   7.734   6.249
 3921POPC   C2B50180  13.723   7.697   6.613
 3921POPC   C3B50181  13.943   7.568   6.979
 3921POPC   C4B50182  13.853   7.691   7.365
 3922POPC   NC350183   6.655  21.004   5.586
 3922POPC   PO450184   6.933  21.493   5.231
 3922POPC   GL150185   6.783  21.465   5.762
 3922POPC   GL250186   6.473  21.316   5.948
 3922POPC   C1A50187   6.894  21.351   6.223
 3922POPC   D2A50188   6.785  21.513   6.642
 3922POPC   C3A50189   6.880  21.200   6.924
 3922POPC   C4A50190   6.545  20.969   7.084
 3922POPC   C1B50191   6.190  21.291   6.336
 3922POPC   C2B50192   6.297  21.297   6.788
 3922POPC   C3B50193   6.527  21.500   7.147
 3922POPC   C4B50194   6.392  21.511   7.580
 3923POPC   NC350195  40.549  25.432   5.433
 3923POPC   PO450196  41.125  25.200   5.176
 3923POPC   GL150197  40.913  25.228   5.699
 3923POPC   GL250198  40.717  25.489   5.905
 3923POPC   C1A50199  40.892  25.086   6.160
 3923POPC   D2A50200  40.978  25.263   6.593
 3923POPC   C3A50201  40.882  25.074   7.012
 3923POPC   C4A50202  40.715  25.004   7.442
 3923POPC   C1B50203  40.533  25.423   6.321
 3923POPC   C2B50204  40.492  25.272   6.744
 3923POPC   C3B50205  40.442  25.339   7.170
 3923POPC   C4B50206  40.732  25.508   7.468
 3924POPC   NC350207  17.945  26.455   5.064
 3924POPC   PO450208  18.435  26.035   5.273
 3924POPC   GL150209  18.227  26.030   5.707
 3924POPC   GL250210  17.937  26.264   5.681
 3924POPC   C1A50211  18.349  25.871   6.115
 3924POPC   D2A50212  18.139  25.905   6.486
 3924POPC   C3A50213  18.208  25.945   6.924
 3924POPC   C4A50214  18.222  25.627   7.259
 3924POPC   C1B50215  18.025  26.280   6.144
 3924POPC   C2B50216  18.118  26.390   6.596
 3924POPC   C3B50217  17.933  26.402   6.980
 3924POPC   C4B50218  17.966  26.548   7.392
 3925POPC   NC350219   4.538   0.359   5.388
 3925POPC   PO450220   4.453   0.981   5.285
 3925POPC   GL150221   4.308   0.653   5.728
 3925POPC   GL250222   4.163   0.281   5.756
 3925POPC   C1A50223   4.036   0.604   6.150
 3925POPC   D2A50224   3.948   0.774   6.599
 3925POPC   C3A50225   4.327   0.653   6.844
 3925POPC   C4A50226   4.497   0.570   7.264
 3925POPC   C1B50227   4.139   0.041   6.160
 3925POPC   C2B50228   4.341   0.101   6.580
 3925POPC   C3B50229   4.516   0.030   7.000
 3925POPC   C4B50230   4.231   0.040   7.342
 3926POPC   NC350231  15.985  32.672   5.518
 3926POPC   PO450232  15.542  32.123   5.397
 3926POPC   GL150233  15.875  32.236   5.791
 3926POPC   GL250234  16.157  31.996   5.836
 3926POPC   C1A50235  16.221  32.418   6.138
 3926POPC   D2A50236  16.165  32.731   6.500
 3926POPC   C3A50237  16.084  32.465   6.880
 3926POPC   C4A50238  15.835  32.485   7.258
 3926POPC   C1B50239  15.938  31.986   6.255
 3926POPC   C2B50240  15.742  31.980   6.675
 3926POPC   C3B50241  15.797  32.014   7.110
 3926POPC   C4B50242  16.228  32.113   7.242
 3927POPC   NC350243  42.435   5.005   5.309
 3927POPC   PO450244  43.008   5.452   5.357
 3927POPC   GL150245  42.671   5.247   5.703
 3927POPC   GL250246  42.615   4.859   5.764
 3927POPC   C1A50247  42.438   5.176   6.157
 3927POPC   D2A50248  42.585   5.256   6.614
 3927POPC   C3A50249  42.662   5.424   7.067
 3927POPC   C4A50250  42.586   5.398   7.535
 3927POPC   C1B50251  42.593   4.652   6.174
 3927POPC   C2B50252  42.453   4.742   6.584
 3927POPC   C3B50253  42.143   5.023   6.741
 3927POPC   C4B50254  42.153   5.174   7.137
 3928POPC   NC350255  41.108  14.842   5.062
 3928POPC   PO450256  41.124  15.396   5.452
 3928POPC   GL150257  40.899  15.174   5.752
 3928POPC   GL250258  40.531  15.077   5.682
 3928POPC   C1A50259  40.898  15.255   6.171
 3928POPC   D2A50260  40.872  14.961   6.481
 3928POPC   C3A50261  40.906  15.225   6.802
 3928POPC   C4A50262  40.900  15.425   7.175
 3928POPC   C1B50263  40.495  14.951   6.129
 3928POPC   C2B50264  40.409  15.128   6.592
 3928POPC   C3B50265  40.506  15.019   7.064
 3928POPC   C4B50266  40.313  14.866   7.490
 3929POPC   NC350267  37.388  22.732   5.562
 3929POPC   PO450268  37.944  22.519   5.266
 3929POPC   GL150269  37.870  22.757   5.725
 3929POPC   GL250270  37.831  23.107   5.915
 3929POPC   C1A50271  37.720  22.705   6.195
 3929POPC   D2A50272  37.889  22.929   6.582
 3929POPC   C3A50273  37.757  22.894   7.013
 3929POPC   C4A50274  37.379  22.812   7.274
 3929POPC   C1B50275  37.620  23.298   6.332
 3929POPC   C2B50276  37.414  23.209   6.737
 3929POPC   C3B50277  37.478  23.299   7.165
 3929POPC   C4B50278  37.710  23.280   7.542
 3930POPC   NC350279  22.358  31.723   5.470
 3930POPC   PO450280  21.943  31.217   5.248
 3930POPC   GL150281  22.056  31.325   5.666
 3930POPC   GL250282  21.983  31.675   5.790
 3930POPC   C1A50283  22.071  31.216   6.096
 3930POPC   D2A50284  22.114  31.435   6.462
 3930POPC   C3A50285  21.881  31.478   6.799
 3930POPC   C4A50286  22.094  31.306   7.131
 3930POPC   C1B50287  21.789  31.718   6.175
 3930POPC   C2B50288  21.949  31.932   6.525
 3930POPC   C3B50289  21.777  31.981   6.914
 3930POPC   C4B50290  21.877  31.778   7.279
 3931POPC   NC350291  31.626  28.499   4.917
 3931POPC   PO450292  31.470  28.158   5.427
 3931POPC   GL150293  31.555  28.493   5.793
 3931POPC   GL250294  31.193  28.515   5.961
 3931POPC   C1A50295  31.597  28.713   6.216
 3931POPC   D2A50296  31.552  28.583   6.665
 3931POPC   C3A50297  31.378  28.860   6.984
 3931POPC   C4A50298  31.228  28.441   7.107
 3931POPC   C1B50299  31.448  28.240   6.228
 3931POPC   C2B50300  31.512  27.974   6.547
 3931POPC   C3B50301  31.541  28.051   6.979
 3931POPC   C4B50302  31.799  28.011   7.340
 3932POPC   NC350303  16.906  16.355   5.284
 3932POPC   PO450304  16.701  17.026   5.370
 3932POPC   GL150305  16.644  16.692   5.657
 3932POPC   GL250306  16.534  16.966   5.867
 3932POPC   C1A50307  16.766  16.585   6.077
 3932POPC   D2A50308  16.638  16.756   6.450
 3932POPC   C3A50309  16.701  16.498   6.784
 3932POPC   C4A50310  16.675  16.471   7.211
 3932POPC   C1B50311  16.856  17.121   6.179
 3932POPC   C2B50312  16.799  17.241   6.623
 3932POPC   C3B50313  16.677  16.995   7.001
 3932POPC   C4B50314  16.628  16.909   7.462
 3933POPC   NC350315  14.044   2.160   5.440
 3933POPC   PO450316  13.495   1.818   5.496
 3933POPC   GL150317  13.780   1.899   5.819
 3933POPC   GL250318  13.771   2.259   5.845
 3933POPC   C1A50319  13.936   1.932   6.245
 3933POPC   D2A50320  13.801   1.725   6.628
 3933POPC   C3A50321  13.810   1.893   7.045
 3933POPC   C4A50322  13.463   1.888   7.314
 3933POPC   C1B50323  13.600   2.327   6.214
 3933POPC   C2B50324  13.756   2.296   6.623
 3933POPC   C3B50325  13.498   2.314   6.970
 3933POPC   C4B50326  13.618   2.372   7.352
 3934POPC   NC350327  30.649   7.982   5.496
 3934POPC   PO450328  30.222   8.468   5.242
 3934POPC   GL150329  30.486   8.413   5.737
 3934POPC   GL250330  30.786   8.196   5.919
 3934POPC   C1A50331  30.399   8.305   6.218
 3934POPC   D2A50332  30.642   8.123   6.598
 3934POPC   C3A50333  30.494   8.219   7.029
 3934POPC   C4A50334  30.354   8.527   7.374
 3934POPC   C1B50335  31.031   8.009   6.240
 3934POPC   C2B50336  31.185   7.953   6.660
 3934POPC   C3B50337  31.160   8.127   7.079
 3934POPC   C4B50338  30.859   7.977   7.351
 3935POPC   NC350339  39.697  20.159   5.499
 3935POPC   PO450340  40.252  19.699   5.437
 3935POPC   GL150341  40.020  19.779   5.765
 3935POPC   GL250342  39.809  19.511   5.819
 3935POPC   C1A50343  40.100  20.074   6.088
 3935POPC   D2A50344  39.924  20.169   6.463
 3935POPC   C3A50345  40.126  19.993   6.809
 3935POPC   C4A50346  39.983  19.999   7.223
 3935POPC   C1B50347  39.666  19.765   6.155
 3935POPC   C2B50348  39.803  19.674   6.529
 3935POPC   C3B50349  39.751  19.662   6.938
 3935POPC   C4B50350  39.852  19.519   7.337
 3936POPC   NC350351  21.074   7.339   5.152
 3936POPC   PO450352  21.693   7.380   5.451
 3936POPC   GL150353  21.625   7.590   5.824
 3936POPC   GL250354  21.285   7.488   5.819
 3936POPC   C1A50355  21.458   7.693   6.245
 3936POPC   D2A50356  21.252   7.389   6.529
 3936POPC   C3A50357  21.267   7.443   6.927
 3936POPC   C4A50358  21.063   7.550   7.289
 3936POPC   C1B50359  21.515   7.199   6.155
 3936POPC   C2B50360  21.732   7.211   6.586
 3936POPC   C3B50361  21.754   7.325   7.061
 3936POPC   C4B50362  21.740   7.211   7.548
 3937POPC   NC350363   7.453  19.519   5.302
 3937POPC   PO450364   7.599  18.897   5.364
 3937POPC   GL150365   7.436  19.137   5.703
 3937POPC   GL250366   7.151  19.363   5.768
 3937POPC   C1A50367   7.463  19.100   6.154
 3937POPC   D2A50368   7.758  19.029   6.509
 3937POPC   C3A50369   7.579  18.993   6.930
 3937POPC   C4A50370   7.731  18.779   7.320
 3937POPC   C1B50371   7.070  19.423   6.228
 3937POPC   C2B50372   7.138  19.136   6.593
 3937POPC   C3B50373   7.148  19.292   7.016
 3937POPC   C4B50374   6.974  19.302   7.434
 3938POPC   NC350375  39.170   0.041   5.396
 3938POPC   PO450376  38.828   0.647   5.286
 3938POPC   GL150377  38.992   0.618   5.773
 3938POPC   GL250378  39.360   0.666   5.855
 3938POPC   C1A50379  39.060   0.567   6.256
 3938POPC   D2A50380  39.250   0.259   6.576
 3938POPC   C3A50381  39.391   0.344   6.996
 3938POPC   C4A50382  39.175   0.528   7.348
 3938POPC   C1B50383  39.564   0.467   6.237
 3938POPC   C2B50384  39.628   0.656   6.674
 3938POPC   C3B50385  39.740   0.712   7.130
 3938POPC   C4B50386  39.645   0.393   7.480
 3939POPC   NC350387  23.170   6.606   5.475
 3939POPC   PO450388  22.486   6.772   5.401
 3939POPC   GL150389  22.710   6.576   5.772
 3939POPC   GL250390  22.956   6.846   5.871
 3939POPC   C1A50391  22.789   6.555   6.259
 3939POPC   D2A50392  22.988   6.505   6.687
 3939POPC   C3A50393  22.777   6.586   7.089
 3939POPC   C4A50394  22.801   6.503   7.549
 3939POPC   C1B50395  23.304   6.773   6.149
 3939POPC   C2B50396  23.375   6.814   6.588
 3939POPC   C3B50397  23.151   6.951   6.955
 3939POPC   C4B50398  23.136   6.848   7.411
 3940POPC   NC350399  10.080  17.748   5.609
 3940POPC   PO450400  10.711  17.732   5.358
 3940POPC   GL150401  10.604  17.463   5.709
 3940POPC   GL250402  10.551  17.754   5.856
 3940POPC   C1A50403  10.343  17.361   6.103
 3940POPC   D2A50404  10.116  17.636   6.404
 3940POPC   C3A50405  10.170  17.596   6.861
 3940POPC   C4A50406  10.181  17.198   7.125
 3940POPC   C1B50407  10.759  17.844   6.207
 3940POPC   C2B50408  10.718  17.633   6.580
 3940POPC   C3B50409  10.702  17.812   6.985
 3940POPC   C4B50410  10.591  17.478   7.232
 3941POPC   NC350411   7.269  38.465   5.519
 3941POPC   PO450412   7.899  38.485   5.454
 3941POPC   GL150413   7.671  38.336   5.894
 3941POPC   GL250414   7.281  38.256   5.969
 3941POPC   C1A50415   7.572  38.469   6.345
 3941POPC   D2A50416   7.517  38.350   6.783
 3941POPC   C3A50417   7.377  38.594   7.153
 3941POPC   C4A50418   7.479  38.556   7.613
 3941POPC   C1B50419   6.999  38.058   6.262
 3941POPC   C2B50420   7.092  38.049   6.702
 3941POPC   C3B50421   7.047  38.224   7.117
 3941POPC   C4B50422   7.198  38.126   7.556
 3942POPC   NC350423  13.369  31.279   5.052
 3942POPC   PO450424  13.877  31.518   5.419
 3942POPC   GL150425  13.895  31.492   5.867
 3942POPC   GL250426  13.918  31.122   5.783
 3942POPC   C1A50427  13.745  31.585   6.307
 3942POPC   D2A50428  13.941  31.416   6.681
 3942POPC   C3A50429  13.718  31.385   7.055
 3942POPC   C4A50430  13.620  31.611   7.421
 3942POPC   C1B50431  13.673  31.076   6.179
 3942POPC   C2B50432  13.329  31.019   6.492
 3942POPC   C3B50433  13.358  30.953   6.949
 3942POPC   C4B50434  13.305  31.201   7.336
 3943POPC   NC350435  19.446  20.142   5.384
 3943POPC   PO450436  18.964  19.616   5.233
 3943POPC   GL150437  19.114  19.892   5.647
 3943POPC   GL250438  18.858  20.050   5.922
 3943POPC   C1A50439  19.309  19.872   6.073
 3943POPC   D2A50440  19.227  20.080   6.483
 3943POPC   C3A50441  19.230  19.851   6.882
 3943POPC   C4A50442  18.947  20.025   7.182
 3943POPC   C1B50443  18.845  19.775   6.322
 3943POPC   C2B50444  18.614  19.764   6.699
 3943POPC   C3B50445  18.768  19.578   7.041
 3943POPC   C4B50446  18.764  19.638   7.482
 3944POPC   NC350447  25.770  30.354   5.257
 3944POPC   PO450448  26.307  30.734   5.549
 3944POPC   GL150449  26.134  30.606   5.956
 3944POPC   GL250450  25.826  30.405   5.910
 3944POPC   C1A50451  25.862  30.790   6.300
 3944POPC   D2A50452  25.628  30.959   6.646
 3944POPC   C3A50453  25.741  30.894   7.051
 3944POPC   C4A50454  26.132  30.997   7.245
 3944POPC   C1B50455  25.977  30.295   6.358
 3944POPC   C2B50456  26.012  30.519   6.782
 3944POPC   C3B50457  25.956  30.490   7.275
 3944POPC   C4B50458  25.682  30.424   7.645
 3945POPC   NC350459   3.749   8.304   5.511
 3945POPC   PO450460   3.273   7.787   5.478
 3945POPC   GL150461   3.448   8.010   5.840
 3945POPC   GL250462   3.802   7.962   5.908
 3945POPC   C1A50463   3.317   8.220   6.248
 3945POPC   D2A50464   3.160   8.399   6.665
 3945POPC   C3A50465   3.319   8.232   7.051
 3945POPC   C4A50466   3.491   8.013   7.458
 3945POPC   C1B50467   3.806   8.385   6.182
 3945POPC   C2B50468   3.717   8.429   6.652
 3945POPC   C3B50469   3.821   8.146   7.021
 3945POPC   C4B50470   3.994   8.019   7.423
 3946POPC   NC350471  19.786  17.081   5.442
 3946POPC   PO450472  19.997  16.381   5.416
 3946POPC   GL150473  19.866  16.489   5.804
 3946POPC   GL250474  20.056  16.798   5.818
 3946POPC   C1A50475  19.805  16.592   6.238
 3946POPC   D2A50476  19.775  16.790   6.651
 3946POPC   C3A50477  19.671  16.491   6.957
 3946POPC   C4A50478  19.541  16.531   7.395
 3946POPC   C1B50479  19.972  17.085   6.173
 3946POPC   C2B50480  20.172  17.088   6.569
 3946POPC   C3B50481  20.050  17.124   7.005
 3946POPC   C4B50482  20.032  16.696   7.235
 3947POPC   NC350483  25.308  28.647   5.298
 3947POPC   PO450484  25.033  28.159   5.638
 3947POPC   GL150485  25.161  28.542   5.792
 3947POPC   GL250486  25.485  28.388   5.796
 3947POPC   C1A50487  25.385  28.769   6.133
 3947POPC   D2A50488  25.366  28.660   6.582
 3947POPC   C3A50489  24.974  28.619   6.801
 3947POPC   C4A50490  24.995  28.324   7.141
 3947POPC   C1B50491  25.355  28.251   6.213
 3947POPC   C2B50492  25.501  28.154   6.622
 3947POPC   C3B50493  25.448  28.157   7.036
 3947POPC   C4B50494  25.518  27.879   7.346
 3948POPC   NC350495  24.083  35.504   5.500
 3948POPC   PO450496  23.393  35.655   5.406
 3948POPC   GL150497  23.654  35.426   5.766
 3948POPC   GL250498  23.966  35.213   5.898
 3948POPC   C1A50499  23.581  35.339   6.201
 3948POPC   D2A50500  23.768  35.330   6.579
 3948POPC   C3A50501  23.589  35.377   6.979
 3948POPC   C4A50502  23.585  35.038   7.279
 3948POPC   C1B50503  24.080  35.593   6.153
 3948POPC   C2B50504  24.094  35.710   6.583
 3948POPC   C3B50505  24.159  35.404   6.923
 3948POPC   C4B50506  23.967  35.601   7.243
 3949POPC   NC350507  37.658  19.502   5.445
 3949POPC   PO450508  37.586  20.087   5.533
 3949POPC   GL150509  37.894  19.897   5.808
 3949POPC   GL250510  37.806  19.572   5.931
 3949POPC   C1A50511  38.075  20.022   6.213
 3949POPC   D2A50512  38.280  19.908   6.621
 3949POPC   C3A50513  38.071  20.087   6.983
 3949POPC   C4A50514  37.601  20.185   7.048
 3949POPC   C1B50515  37.704  19.661   6.371
 3949POPC   C2B50516  37.487  19.718   6.777
 3949POPC   C3B50517  37.670  19.684   7.183
 3949POPC   C4B50518  37.599  19.359   7.473
 3950POPC   NC350519   5.101  25.537   5.325
 3950POPC   PO450520   5.577  25.086   5.491
 3950POPC   GL150521   5.296  25.193   5.858
 3950POPC   GL250522   4.978  25.341   5.812
 3950POPC   C1A50523   5.126  25.222   6.292
 3950POPC   D2A50524   5.352  25.236   6.671
 3950POPC   C3A50525   5.105  25.004   6.994
 3950POPC   C4A50526   5.113  25.043   7.450
 3950POPC   C1B50527   4.716  25.571   6.137
 3950POPC   C2B50528   4.616  25.468   6.568
 3950POPC   C3B50529   4.570  25.622   6.986
 3950POPC   C4B50530   4.708  25.283   7.228
 3951POPC   NC350531  26.360  31.157   5.336
 3951POPC   PO450532  26.870  31.649   5.421
 3951POPC   GL150533  26.980  31.459   5.797
 3951POPC   GL250534  26.659  31.398   5.847
 3951POPC   C1A50535  26.986  31.561   6.216
 3951POPC   D2A50536  26.865  31.337   6.568
 3951POPC   C3A50537  27.110  31.503   6.907
 3951POPC   C4A50538  27.008  31.518   7.310
 3951POPC   C1B50539  26.431  31.083   6.127
 3951POPC   C2B50540  26.264  30.964   6.559
 3951POPC   C3B50541  26.535  31.067   6.893
 3951POPC   C4B50542  26.560  31.262   7.285
 3952POPC   NC350543  14.154  21.549   5.623
 3952POPC   PO450544  14.627  21.135   5.435
 3952POPC   GL150545  14.547  21.342   5.824
 3952POPC   GL250546  14.691  21.657   5.756
 3952POPC   C1A50547  14.398  21.301   6.232
 3952POPC   D2A50548  14.585  21.194   6.577
 3952POPC   C3A50549  14.424  21.382   6.893
 3952POPC   C4A50550  14.212  21.246   7.190
 3952POPC   C1B50551  14.531  21.787   6.151
 3952POPC   C2B50552  14.664  21.707   6.551
 3952POPC   C3B50553  14.641  21.827   6.969
 3952POPC   C4B50554  14.687  21.557   7.309
 3953POPC   NC350555  13.886  32.024   5.473
 3953POPC   PO450556  13.275  32.234   5.492
 3953POPC   GL150557  13.571  32.306   5.813
 3953POPC   GL250558  13.708  31.991   5.960
 3953POPC   C1A50559  13.689  32.443   6.216
 3953POPC   D2A50560  13.836  32.469   6.622
 3953POPC   C3A50561  13.617  32.303   6.978
 3953POPC   C4A50562  13.480  32.088   7.379
 3953POPC   C1B50563  13.985  32.047   6.321
 3953POPC   C2B50564  13.921  31.965   6.762
 3953POPC   C3B50565  13.949  31.934   7.199
 3953POPC   C4B50566  14.015  31.899   7.654
 3954POPC   NC350567  12.606  42.841   5.407
 3954POPC   PO450568  12.921  43.436   5.523
 3954POPC   GL150569  12.690  43.135   5.825
 3954POPC   GL250570  12.932  42.863   5.794
 3954POPC   C1A50571  12.736  42.944   6.259
 3954POPC   D2A50572  12.966  43.204   6.520
 3954POPC   C3A50573  12.819  43.250   6.909
 3954POPC   C4A50574  12.969  43.065   7.276
 3954POPC   C1B50575  13.226  42.822   6.123
 3954POPC   C2B50576  13.260  42.782   6.558
 3954POPC   C3B50577  13.340  42.785   6.993
 3954POPC   C4B50578  13.370  42.741   7.455
 3955POPC   NC350579  40.049   2.497   5.353
 3955POPC   PO450580  40.239   3.093   5.651
 3955POPC   GL150581  39.901   2.899   5.896
 3955POPC   GL250582  39.750   2.585   5.793
 3955POPC   C1A50583  39.828   2.885   6.332
 3955POPC   D2A50584  39.910   2.717   6.689
 3955POPC   C3A50585  39.735   2.864   7.069
 3955POPC   C4A50586  40.136   2.750   7.222
 3955POPC   C1B50587  39.780   2.375   6.207
 3955POPC   C2B50588  39.654   2.266   6.636
 3955POPC   C3B50589  39.822   2.373   7.052
 3955POPC   C4B50590  39.790   2.542   7.516
 3956POPC   NC350591  33.276   9.997   5.505
 3956POPC   PO450592  33.030   9.362   5.357
 3956POPC   GL150593  32.922   9.635   5.719
 3956POPC   GL250594  33.219   9.707   5.917
 3956POPC   C1A50595  32.805   9.547   6.181
 3956POPC   D2A50596  32.996   9.480   6.600
 3956POPC   C3A50597  33.053   9.879   6.764
 3956POPC   C4A50598  32.987  10.079   7.154
 3956POPC   C1B50599  33.498   9.794   6.273
 3956POPC   C2B50600  33.508   9.624   6.696
 3956POPC   C3B50601  33.296   9.626   7.134
 3956POPC   C4B50602  33.408   9.663   7.618
 3957POPC   NC350603   1.378   4.526   5.502
 3957POPC   PO450604   0.762   4.183   5.240
 3957POPC   GL150605   1.047   4.176   5.642
 3957POPC   GL250606   1.395   4.041   5.691
 3957POPC   C1A50607   1.016   4.195   6.090
 3957POPC   D2A50608   1.213   4.237   6.506
 3957POPC   C3A50609   1.147   4.567   6.836
 3957POPC   C4A50610   1.307   4.734   7.223
 3957POPC   C1B50611   1.536   4.057   6.130
 3957POPC   C2B50612   1.643   3.963   6.575
 3957POPC   C3B50613   1.504   4.189   6.922
 3957POPC   C4B50614   1.216   4.209   7.232
 3958POPC   NC350615  25.883  24.845   5.634
 3958POPC   PO450616  26.492  24.647   5.325
 3958POPC   GL150617  26.395  24.331   5.703
 3958POPC   GL250618  26.141  24.517   5.941
 3958POPC   C1A50619  26.298  24.091   6.138
 3958POPC   D2A50620  25.994  24.225   6.486
 3958POPC   C3A50621  26.114  24.462   6.857
 3958POPC   C4A50622  26.282  24.602   7.240
 3958POPC   C1B50623  25.895  24.717   6.308
 3958POPC   C2B50624  25.945  24.928   6.710
 3958POPC   C3B50625  25.826  24.845   7.159
 3958POPC   C4B50626  25.669  24.593   7.523
 3959POPC   NC350627   6.793  25.095   5.335
 3959POPC   PO450628   6.912  25.672   5.052
 3959POPC   GL150629   6.703  25.541   5.583
 3959POPC   GL250630   6.826  25.241   5.793
 3959POPC   C1A50631   6.597  25.516   6.104
 3959POPC   D2A50632   6.708  25.332   6.502
 3959POPC   C3A50633   6.448  25.230   6.841
 3959POPC   C4A50634   6.477  25.361   7.259
 3959POPC   C1B50635   6.885  24.996   6.155
 3959POPC   C2B50636   6.940  24.867   6.568
 3959POPC   C3B50637   6.961  25.135   6.912
 3959POPC   C4B50638   6.946  25.154   7.334
 3960POPC   NC350639  29.411  28.627   5.478
 3960POPC   PO450640  28.865  28.811   5.175
 3960POPC   GL150641  28.953  28.651   5.676
 3960POPC   GL250642  29.140  28.308   5.779
 3960POPC   C1A50643  29.221  28.646   6.124
 3960POPC   D2A50644  29.082  28.387   6.490
 3960POPC   C3A50645  29.290  28.407   6.902
 3960POPC   C4A50646  29.019  28.337   7.261
 3960POPC   C1B50647  29.383  28.142   6.143
 3960POPC   C2B50648  29.568  28.181   6.541
 3960POPC   C3B50649  29.490  27.917   6.890
 3960POPC   C4B50650  29.271  27.874   7.261
 3961POPC   NC350651  21.172  18.045   5.421
 3961POPC   PO450652  21.582  18.512   5.377
 3961POPC   GL150653  21.428  18.368   5.790
 3961POPC   GL250654  21.352  18.017   5.896
 3961POPC   C1A50655  21.376  18.385   6.252
 3961POPC   D2A50656  21.458  18.213   6.670
 3961POPC   C3A50657  21.463  18.506   7.029
 3961POPC   C4A50658  21.442  18.503   7.490
 3961POPC   C1B50659  21.708  17.987   6.183
 3961POPC   C2B50660  21.739  17.792   6.562
 3961POPC   C3B50661  21.714  17.738   6.977
 3961POPC   C4B50662  21.439  18.000   7.144
 3962POPC   NC350663  30.331  34.542   5.409
 3962POPC   PO450664  29.670  34.479   5.402
 3962POPC   GL150665  29.788  34.724   5.759
 3962POPC   GL250666  30.135  34.806   5.780
 3962POPC   C1A50667  29.635  34.691   6.169
 3962POPC   D2A50668  29.590  34.869   6.573
 3962POPC   C3A50669  29.770  34.676   6.959
 3962POPC   C4A50670  29.728  34.850   7.366
 3962POPC   C1B50671  30.126  34.512   6.121
 3962POPC   C2B50672  30.099  34.620   6.540
 3962POPC   C3B50673  30.304  34.682   6.904
 3962POPC   C4B50674  30.257  34.555   7.294
 3963POPC   NC350675   2.012  23.320   5.393
 3963POPC   PO450676   1.822  22.652   5.450
 3963POPC   GL150677   1.954  22.741   5.847
 3963POPC   GL250678   2.121  23.072   5.830
 3963POPC   C1A50679   1.858  22.887   6.259
 3963POPC   D2A50680   1.979  23.071   6.636
 3963POPC   C3A50681   1.837  22.851   6.998
 3963POPC   C4A50682   1.973  23.143   7.296
 3963POPC   C1B50683   2.368  22.867   6.146
 3963POPC   C2B50684   2.445  22.875   6.575
 3963POPC   C3B50685   2.338  22.880   7.010
 3963POPC   C4B50686   2.584  22.859   7.376
 3964POPC   NC350687   9.949  12.991   5.135
 3964POPC   PO450688   9.527  12.678   5.623
 3964POPC   GL150689   9.590  12.956   5.933
 3964POPC   GL250690   9.943  12.816   5.994
 3964POPC   C1A50691   9.658  13.112   6.339
 3964POPC   D2A50692   9.896  12.875   6.631
 3964POPC   C3A50693   9.741  12.934   7.027
 3964POPC   C4A50694   9.705  13.005   7.473
 3964POPC   C1B50695   9.638  12.586   6.296
 3964POPC   C2B50696   9.472  12.558   6.748
 3964POPC   C3B50697   9.489  12.539   7.228
 3964POPC   C4B50698   9.479  12.574   7.678
 3965POPC   NC350699  37.510  37.733   5.472
 3965POPC   PO450700  38.052  37.228   5.390
 3965POPC   GL150701  37.803  37.443   5.769
 3965POPC   GL250702  37.784  37.807   5.898
 3965POPC   C1A50703  37.757  37.447   6.241
 3965POPC   D2A50704  37.658  37.748   6.574
 3965POPC   C3A50705  37.756  37.637   6.995
 3965POPC   C4A50706  37.764  37.431   7.388
 3965POPC   C1B50707  37.461  38.005   6.177
 3965POPC   C2B50708  37.267  38.071   6.581
 3965POPC   C3B50709  37.299  37.881   6.959
 3965POPC   C4B50710  37.439  37.854   7.366
 3966POPC   NC350711  31.221  14.338   5.512
 3966POPC   PO450712  31.690  14.790   5.288
 3966POPC   GL150713  31.657  14.534   5.727
 3966POPC   GL250714  31.367  14.510   5.978
 3966POPC   C1A50715  31.678  14.124   6.029
 3966POPC   D2A50716  31.920  13.961   6.388
 3966POPC   C3A50717  31.748  14.029   6.814
 3966POPC   C4A50718  31.744  14.384   7.106
 3966POPC   C1B50719  31.346  14.673   6.358
 3966POPC   C2B50720  31.407  14.644   6.795
 3966POPC   C3B50721  31.270  14.630   7.185
 3966POPC   C4B50722  31.118  14.205   7.105
 3967POPC   NC350723  15.912  31.046   5.562
 3967POPC   PO450724  16.318  30.459   5.615
 3967POPC   GL150725  16.018  30.628   5.869
 3967POPC   GL250726  15.733  30.396   5.856
 3967POPC   C1A50727  16.091  30.795   6.315
 3967POPC   D2A50728  15.857  30.737   6.724
 3967POPC   C3A50729  16.130  30.678   7.092
 3967POPC   C4A50730  16.136  30.788   7.550
 3967POPC   C1B50731  15.650  30.564   6.245
 3967POPC   C2B50732  15.586  30.324   6.592
 3967POPC   C3B50733  15.736  30.313   7.022
 3967POPC   C4B50734  15.699  30.628   7.345
 3968POPC   NC350735  39.004  29.408   5.479
 3968POPC   PO450736  39.365  28.911   5.699
 3968POPC   GL150737  39.159  29.054   6.012
 3968POPC   GL250738  39.247  29.429   5.927
 3968POPC   C1A50739  39.084  28.843   6.420
 3968POPC   D2A50740  38.769  28.787   6.762
 3968POPC   C3A50741  39.028  28.960   7.091
 3968POPC   C4A50742  39.465  29.074   7.206
 3968POPC   C1B50743  38.984  29.451   6.252
 3968POPC   C2B50744  38.990  29.305   6.632
 3968POPC   C3B50745  39.242  29.461   6.934
 3968POPC   C4B50746  38.986  29.439   7.257
 3969POPC   NC350747   6.244  27.107   5.673
 3969POPC   PO450748   5.751  26.806   5.278
 3969POPC   GL150749   5.763  26.902   5.727
 3969POPC   GL250750   5.500  27.151   5.829
 3969POPC   C1A50751   5.880  26.667   6.124
 3969POPC   D2A50752   5.994  26.593   6.572
 3969POPC   C3A50753   5.847  26.911   6.890
 3969POPC   C4A50754   6.001  27.042   7.287
 3969POPC   C1B50755   5.607  27.101   6.253
 3969POPC   C2B50756   5.422  27.223   6.632
 3969POPC   C3B50757   5.333  27.009   6.994
 3969POPC   C4B50758   5.494  27.043   7.371
 3970POPC   NC350759  40.624  21.654   5.434
 3970POPC   PO450760  41.067  21.099   5.451
 3970POPC   GL150761  40.861  21.238   5.824
 3970POPC   GL250762  40.555  21.413   5.878
 3970POPC   C1A50763  40.899  21.261   6.267
 3970POPC   D2A50764  41.097  21.035   6.599
 3970POPC   C3A50765  40.828  21.186   6.896
 3970POPC   C4A50766  40.869  21.215   7.320
 3970POPC   C1B50767  40.355  21.415   6.283
 3970POPC   C2B50768  40.465  21.525   6.699
 3970POPC   C3B50769  40.389  21.373   7.114
 3970POPC   C4B50770  40.503  21.454   7.562
 3971POPC   NC350771  21.181  23.249   5.393
 3971POPC   PO450772  21.844  22.952   5.301
 3971POPC   GL150773  21.449  22.901   5.627
 3971POPC   GL250774  21.144  22.749   5.714
 3971POPC   C1A50775  21.297  23.130   6.051
 3971POPC   D2A50776  21.283  23.243   6.521
 3971POPC   C3A50777  21.540  23.011   6.813
 3971POPC   C4A50778  21.569  23.060   7.246
 3971POPC   C1B50779  21.057  22.679   6.134
 3971POPC   C2B50780  21.324  22.640   6.481
 3971POPC   C3B50781  21.194  22.540   6.874
 3971POPC   C4B50782  21.229  22.696   7.256
 3972POPC   NC350783   5.283  29.562   5.358
 3972POPC   PO450784   4.788  28.985   5.452
 3972POPC   GL150785   5.075  29.013   5.802
 3972POPC   GL250786   5.209  29.355   5.832
 3972POPC   C1A50787   5.376  28.980   6.154
 3972POPC   D2A50788   5.520  29.010   6.592
 3972POPC   C3A50789   5.177  28.923   6.900
 3972POPC   C4A50790   5.030  29.173   7.236
 3972POPC   C1B50791   5.007  29.372   6.245
 3972POPC   C2B50792   4.761  29.576   6.573
 3972POPC   C3B50793   4.694  29.476   7.001
 3972POPC   C4B50794   4.523  29.235   7.363
 3973POPC   NC350795  38.101  21.799   5.588
 3973POPC   PO450796  37.403  21.685   5.379
 3973POPC   GL150797  37.517  21.418   5.800
 3973POPC   GL250798  37.902  21.413   5.846
 3973POPC   C1A50799  37.628  21.262   6.237
 3973POPC   D2A50800  37.492  21.514   6.537
 3973POPC   C3A50801  37.495  21.495   6.965
 3973POPC   C4A50802  37.676  21.172   7.212
 3973POPC   C1B50803  38.098  21.460   6.268
 3973POPC   C2B50804  37.965  21.390   6.718
 3973POPC   C3B50805  38.024  21.574   7.132
 3973POPC   C4B50806  37.968  21.677   7.594
 3974POPC   NC350807   9.919  12.483   5.424
 3974POPC   PO450808   9.397  11.916   5.375
 3974POPC   GL150809   9.650  12.123   5.697
 3974POPC   GL250810   9.773  11.815   5.788
 3974POPC   C1A50811   9.858  12.162   6.134
 3974POPC   D2A50812   9.828  12.219   6.586
 3974POPC   C3A50813   9.941  12.416   6.956
 3974POPC   C4A50814   9.995  12.119   7.273
 3974POPC   C1B50815   9.925  11.652   6.129
 3974POPC   C2B50816   9.720  11.744   6.489
 3974POPC   C3B50817   9.895  11.765   6.889
 3974POPC   C4B50818  10.043  11.604   7.278
 3975POPC   NC350819  27.856  34.753   5.299
 3975POPC   PO450820  27.370  34.350   5.448
 3975POPC   GL150821  27.366  34.608   5.806
 3975POPC   GL250822  27.725  34.646   5.797
 3975POPC   C1A50823  27.445  34.395   6.214
 3975POPC   D2A50824  27.512  34.158   6.607
 3975POPC   C3A50825  27.326  34.364   6.952
 3975POPC   C4A50826  27.450  34.479   7.354
 3975POPC   C1B50827  27.629  34.871   6.190
 3975POPC   C2B50828  27.693  34.684   6.584
 3975POPC   C3B50829  27.805  34.619   6.997
 3975POPC   C4B50830  27.705  34.916   7.303
 3976POPC   NC350831   0.213  31.175   5.526
 3976POPC   PO450832   0.616  31.696   5.542
 3976POPC   GL150833   0.436  31.490   5.871
 3976POPC   GL250834   0.724  31.288   5.905
 3976POPC   C1A50835   0.419  31.379   6.297
 3976POPC   D2A50836   0.694  31.377   6.635
 3976POPC   C3A50837   0.411  31.522   6.971
 3976POPC   C4A50838   0.553  31.595   7.413
 3976POPC   C1B50839   0.819  31.706   6.174
 3976POPC   C2B50840   0.958  31.877   6.600
 3976POPC   C3B50841   0.900  31.665   7.020
 3976POPC   C4B50842   0.790  31.220   7.136
 3977POPC   NC350843  14.057  28.378   5.322
 3977POPC   PO450844  14.581  28.045   5.520
 3977POPC   GL150845  14.244  28.213   5.803
 3977POPC   GL250846  14.206  28.561   5.770
 3977POPC   C1A50847  14.146  28.225   6.249
 3977POPC   D2A50848  14.285  28.087   6.653
 3977POPC   C3A50849  14.115  28.259   7.013
 3977POPC   C4A50850  14.226  28.050   7.376
 3977POPC   C1B50851  14.296  28.707   6.187
 3977POPC   C2B50852  14.476  28.545   6.565
 3977POPC   C3B50853  14.601  28.397   6.980
 3977POPC   C4B50854  14.386  28.554   7.361
 3978POPC   NC350855  40.400  39.046   5.272
 3978POPC   PO450856  39.812  39.303   5.278
 3978POPC   GL150857  39.935  39.233   5.736
 3978POPC   GL250858  40.282  39.140   5.789
 3978POPC   C1A50859  40.079  39.458   6.137
 3978POPC   D2A50860  40.053  39.264   6.519
 3978POPC   C3A50861  40.117  39.406   6.879
 3978POPC   C4A50862  40.085  39.372   7.238
 3978POPC   C1B50863  40.003  38.927   6.137
 3978POPC   C2B50864  40.077  38.744   6.580
 3978POPC   C3B50865  40.048  38.852   7.051
 3978POPC   C4B50866  40.317  38.939   7.417
 3979POPC   NC350867   2.764   5.617   5.463
 3979POPC   PO450868   2.809   6.222   5.552
 3979POPC   GL150869   2.843   5.899   5.900
 3979POPC   GL250870   2.940   5.513   5.911
 3979POPC   C1A50871   2.621   5.774   6.265
 3979POPC   D2A50872   2.432   5.917   6.612
 3979POPC   C3A50873   2.695   5.981   6.955
 3979POPC   C4A50874   2.728   5.937   7.413
 3979POPC   C1B50875   3.109   5.642   6.270
 3979POPC   C2B50876   3.079   5.911   6.616
 3979POPC   C3B50877   3.163   5.823   7.057
 3979POPC   C4B50878   3.210   6.082   7.431
 3980POPC   NC350879  30.865  31.852   5.302
 3980POPC   PO450880  30.548  32.426   5.538
 3980POPC   GL150881  30.636  32.246   5.937
 3980POPC   GL250882  30.763  31.945   5.814
 3980POPC   C1A50883  30.692  32.239   6.416
 3980POPC   D2A50884  31.001  32.287   6.789
 3980POPC   C3A50885  30.712  32.388   7.105
 3980POPC   C4A50886  30.248  32.342   7.082
 3980POPC   C1B50887  30.545  31.784   6.190
 3980POPC   C2B50888  30.555  31.617   6.607
 3980POPC   C3B50889  30.722  31.866   6.931
 3980POPC   C4B50890  30.981  31.941   7.242
 3981POPC   NC350891  14.635  17.179   5.383
 3981POPC   PO450892  14.322  17.798   5.504
 3981POPC   GL150893  14.247  17.565   5.882
 3981POPC   GL250894  14.553  17.391   5.850
 3981POPC   C1A50895  14.249  17.557   6.321
 3981POPC   D2A50896  14.636  17.663   6.519
 3981POPC   C3A50897  14.584  17.600   6.955
 3981POPC   C4A50898  14.197  17.471   7.161
 3981POPC   C1B50899  14.602  17.196   6.240
 3981POPC   C2B50900  14.385  17.138   6.621
 3981POPC   C3B50901  14.507  17.072   7.021
 3981POPC   C4B50902  14.489  17.120   7.458
 3982POPC   NC350903  19.403  38.818   5.532
 3982POPC   PO450904  19.300  38.108   5.469
 3982POPC   GL150905  19.312  38.359   5.808
 3982POPC   GL250906  18.948  38.413   5.827
 3982POPC   C1A50907  19.251  38.414   6.236
 3982POPC   D2A50908  19.004  38.255   6.560
 3982POPC   C3A50909  19.219  38.362   6.883
 3982POPC   C4A50910  19.241  38.353   7.274
 3982POPC   C1B50911  18.773  38.588   6.223
 3982POPC   C2B50912  18.675  38.624   6.686
 3982POPC   C3B50913  18.757  38.466   7.129
 3982POPC   C4B50914  18.880  38.563   7.558
 3983POPC   NC350915   2.892   8.053   5.436
 3983POPC   PO450916   2.338   8.084   5.764
 3983POPC   GL150917   2.718   8.261   5.880
 3983POPC   GL250918   2.943   7.971   5.950
 3983POPC   C1A50919   2.810   8.401   6.272
 3983POPC   D2A50920   2.586   8.240   6.626
 3983POPC   C3A50921   2.804   8.069   6.948
 3983POPC   C4A50922   2.695   8.443   7.147
 3983POPC   C1B50923   2.701   7.865   6.323
 3983POPC   C2B50924   2.423   7.739   6.679
 3983POPC   C3B50925   2.442   7.698   7.118
 3983POPC   C4B50926   2.556   7.983   7.406
 3984POPC   NC350927   1.829  29.437   5.435
 3984POPC   PO450928   2.331  28.833   5.440
 3984POPC   GL150929   2.015  28.891   5.793
 3984POPC   GL250930   1.865  29.234   5.901
 3984POPC   C1A50931   2.079  28.936   6.244
 3984POPC   D2A50932   1.887  29.196   6.540
 3984POPC   C3A50933   1.824  28.993   6.924
 3984POPC   C4A50934   1.564  28.752   7.173
 3984POPC   C1B50935   2.257  29.401   6.122
 3984POPC   C2B50936   2.363  29.418   6.583
 3984POPC   C3B50937   2.161  29.378   7.025
 3984POPC   C4B50938   1.992  29.113   7.400
 3985POPC   NC350939  11.380   5.939   4.993
 3985POPC   PO450940  11.007   6.254   5.584
 3985POPC   GL150941  11.346   6.018   5.804
 3985POPC   GL250942  11.318   5.611   5.807
 3985POPC   C1A50943  11.442   5.905   6.207
 3985POPC   D2A50944  11.141   5.963   6.494
 3985POPC   C3A50945  11.352   6.142   6.821
 3985POPC   C4A50946  11.447   5.922   7.172
 3985POPC   C1B50947  11.148   5.495   6.194
 3985POPC   C2B50948  11.052   5.452   6.594
 3985POPC   C3B50949  11.303   5.482   6.924
 3985POPC   C4B50950  11.106   5.529   7.284
 3986POPC   NC350951  30.858   9.739   5.465
 3986POPC   PO450952  30.423   9.225   5.490
 3986POPC   GL150953  30.460   9.468   5.889
 3986POPC   GL250954  30.396   9.805   5.906
 3986POPC   C1A50955  30.862   9.646   6.090
 3986POPC   D2A50956  31.064   9.672   6.453
 3986POPC   C3A50957  30.793   9.679   6.798
 3986POPC   C4A50958  30.831   9.851   7.202
 3986POPC   C1B50959  30.435   9.782   6.351
 3986POPC   C2B50960  30.565  10.110   6.620
 3986POPC   C3B50961  30.484  10.216   7.036
 3986POPC   C4B50962  30.480  10.097   7.468
 3987POPC   NC350963   7.932  16.432   5.464
 3987POPC   PO450964   8.237  15.867   5.313
 3987POPC   GL150965   8.347  15.917   5.787
 3987POPC   GL250966   8.338  16.295   5.819
 3987POPC   C1A50967   8.582  15.728   6.183
 3987POPC   D2A50968   8.693  15.817   6.612
 3987POPC   C3A50969   8.374  15.850   6.958
 3987POPC   C4A50970   8.017  15.578   7.120
 3987POPC   C1B50971   8.575  16.234   6.201
 3987POPC   C2B50972   8.702  16.337   6.622
 3987POPC   C3B50973   8.538  16.368   7.044
 3987POPC   C4B50974   8.232  16.183   7.336
 3988POPC   NC350975  29.324  18.495   5.525
 3988POPC   PO450976  28.805  18.058   5.496
 3988POPC   GL150977  29.041  18.193   5.849
 3988POPC   GL250978  29.046  18.556   5.952
 3988POPC   C1A50979  29.047  18.169   6.293
 3988POPC   D2A50980  28.913  17.993   6.677
 3988POPC   C3A50981  29.011  18.180   7.086
 3988POPC   C4A50982  29.133  17.830   7.373
 3988POPC   C1B50983  29.479  18.425   6.176
 3988POPC   C2B50984  29.527  18.094   6.530
 3988POPC   C3B50985  29.539  18.051   6.995
 3988POPC   C4B50986  29.532  18.451   7.186
 3989POPC   NC350987  40.480  35.656   5.362
 3989POPC   PO450988  40.524  35.117   5.668
 3989POPC   GL150989  40.776  35.332   5.931
 3989POPC   GL250990  41.075  35.322   5.750
 3989POPC   C1A50991  40.952  35.415   6.328
 3989POPC   D2A50992  40.895  35.607   6.717
 3989POPC   C3A50993  40.490  35.506   6.883
 3989POPC   C4A50994  40.685  35.294   7.196
 3989POPC   C1B50995  41.289  35.118   6.101
 3989POPC   C2B50996  41.301  35.015   6.556
 3989POPC   C3B50997  41.176  35.117   6.990
 3989POPC   C4B50998  40.956  34.854   7.312
 3990POPC   NC350999  21.678  35.055   5.337
 3990POPC   PO451000  21.236  35.564   5.495
 3990POPC   GL151001  21.573  35.429   5.686
 3990POPC   GL251002  21.351  35.127   5.742
 3990POPC   C1A51003  21.688  35.479   6.096
 3990POPC   D2A51004  21.381  35.399   6.420
 3990POPC   C3A51005  21.456  35.617   6.790
 3990POPC   C4A51006  21.369  35.451   7.195
 3990POPC   C1B51007  21.539  34.991   6.091
 3990POPC   C2B51008  21.744  35.039   6.487
 3990POPC   C3B51009  21.575  35.112   6.862
 3990POPC   C4B51010  21.692  35.056   7.269
 3991POPC   NC351011  19.615   1.643   5.085
 3991POPC   PO451012  19.793   1.214   5.611
 3991POPC   GL151013  19.880   1.188   5.996
 3991POPC   GL251014  20.045   0.875   5.989
 3991POPC   C1A51015  19.697   1.326   6.387
 3991POPC   D2A51016  19.500   1.557   6.705
 3991POPC   C3A51017  19.693   1.320   7.003
 3991POPC   C4A51018  19.990   1.392   7.291
 3991POPC   C1B51019  19.674   0.816   6.265
 3991POPC   C2B51020  19.646   0.847   6.682
 3991POPC   C3B51021  19.539   0.840   7.093
 3991POPC   C4B51022  19.925   0.905   7.264
 3992POPC   NC351023   7.835   7.216   5.407
 3992POPC   PO451024   8.387   7.528   5.363
 3992POPC   GL151025   8.206   7.410   5.750
 3992POPC   GL251026   8.511   7.467   5.906
 3992POPC   C1A51027   8.227   7.111   6.104
 3992POPC   D2A51028   8.356   7.066   6.525
 3992POPC   C3A51029   8.188   7.400   6.763
 3992POPC   C4A51030   8.208   7.423   7.190
 3992POPC   C1B51031   8.302   7.624   6.274
 3992POPC   C2B51032   8.479   7.836   6.636
 3992POPC   C3B51033   8.475   7.841   7.083
 3992POPC   C4B51034   8.326   7.812   7.532
 3993POPC   NC351035  44.185  22.555   5.205
 3993POPC   PO451036  43.696  22.127   5.403
 3993POPC   GL151037  43.856  22.249   5.794
 3993POPC   GL251038  43.543  22.429   5.876
 3993POPC   C1A51039  44.052  22.112   6.210
 3993POPC   D2A51040  44.275  22.283   6.594
 3993POPC   C3A51041  44.304  22.120   7.038
 3993POPC   C4A51042  44.151  22.000   7.459
 3993POPC   C1B51043  43.549  22.224   6.209
 3993POPC   C2B51044  43.632  22.348   6.562
 3993POPC   C3B51045  43.831  22.212   6.884
 3993POPC   C4B51046  43.737  22.191   7.268
 3994POPC   NC351047  17.294  40.769   5.371
 3994POPC   PO451048  17.817  40.439   5.412
 3994POPC   GL151049  17.856  40.760   5.774
 3994POPC   GL251050  17.633  41.041   5.736
 3994POPC   C1A51051  17.750  40.714   6.228
 3994POPC   D2A51052  17.855  40.580   6.652
 3994POPC   C3A51053  17.750  40.737   7.051
 3994POPC   C4A51054  17.350  40.533   7.181
 3994POPC   C1B51055  17.714  41.218   6.159
 3994POPC   C2B51056  17.710  41.084   6.610
 3994POPC   C3B51057  17.346  40.970   6.889
 3994POPC   C4B51058  17.411  41.029   7.343
 3995POPC   NC351059  21.322  37.885   5.453
 3995POPC   PO451060  21.418  37.295   5.478
 3995POPC   GL151061  21.248  37.490   5.813
 3995POPC   GL251062  21.581  37.671   5.845
 3995POPC   C1A51063  21.187  37.759   6.193
 3995POPC   D2A51064  21.051  37.807   6.639
 3995POPC   C3A51065  21.321  38.022   6.917
 3995POPC   C4A51066  21.547  37.911   7.268
 3995POPC   C1B51067  21.570  37.415   6.192
 3995POPC   C2B51068  21.618  37.384   6.611
 3995POPC   C3B51069  21.450  37.503   6.980
 3995POPC   C4B51070  21.393  37.247   7.308
 3996POPC   NC351071  26.585   6.383   5.666
 3996POPC   PO451072  26.973   6.844   5.350
 3996POPC   GL151073  26.930   6.741   5.817
 3996POPC   GL251074  27.037   6.384   5.917
 3996POPC   C1A51075  26.748   6.790   6.232
 3996POPC   D2A51076  26.820   7.079   6.586
 3996POPC   C3A51077  26.875   6.909   6.985
 3996POPC   C4A51078  26.759   6.821   7.409
 3996POPC   C1B51079  27.177   6.499   6.310
 3996POPC   C2B51080  27.063   6.406   6.710
 3996POPC   C3B51081  27.043   6.438   7.101
 3996POPC   C4B51082  27.276   6.698   7.313
 3997POPC   NC351083  29.360  19.855   5.039
 3997POPC   PO451084  29.015  19.523   5.523
 3997POPC   GL151085  29.289  19.823   5.765
 3997POPC   GL251086  29.065  19.750   6.003
 3997POPC   C1A51087  29.511  19.880   6.211
 3997POPC   D2A51088  29.573  19.752   6.675
 3997POPC   C3A51089  29.346  19.935   7.047
 3997POPC   C4A51090  29.349  19.790   7.524
 3997POPC   C1B51091  28.854  19.510   6.321
 3997POPC   C2B51092  29.038  19.691   6.659
 3997POPC   C3B51093  28.859  20.011   6.865
 3997POPC   C4B51094  28.843  20.057   7.286
 3998POPC   NC351095  27.146  16.582   5.548
 3998POPC   PO451096  27.801  16.802   5.428
 3998POPC   GL151097  27.591  16.755   5.779
 3998POPC   GL251098  27.594  16.401   5.767
 3998POPC   C1A51099  27.684  16.739   6.212
 3998POPC   D2A51100  27.513  16.706   6.620
 3998POPC   C3A51101  27.673  16.882   7.004
 3998POPC   C4A51102  27.346  16.867   7.319
 3998POPC   C1B51103  27.825  16.252   6.104
 3998POPC   C2B51104  27.688  16.190   6.516
 3998POPC   C3B51105  27.786  16.368   6.898
 3998POPC   C4B51106  27.570  16.426   7.248
 3999POPC   NC351107  43.499  29.544   5.516
 3999POPC   PO451108  44.159  29.560   5.421
 3999POPC   GL151109  44.037  29.859   5.748
 3999POPC   GL251110  43.718  29.803   5.901
 3999POPC   C1A51111  44.170  30.012   6.165
 3999POPC   D2A51112  44.135  29.849   6.586
 3999POPC   C3A51113  43.871  30.050   6.875
 3999POPC   C4A51114  43.812  29.941   7.306
 3999POPC   C1B51115  43.554  29.455   6.163
 3999POPC   C2B51116  43.665  29.585   6.573
 3999POPC   C3B51117  43.471  29.750   6.917
 3999POPC   C4B51118  43.470  29.542   7.328
 4000POPC   NC351119  26.561  36.255   5.501
 4000POPC   PO451120  27.243  36.030   5.316
 4000POPC   GL151121  27.047  35.932   5.743
 4000POPC   GL251122  26.687  35.836   5.826
 4000POPC   C1A51123  27.069  35.851   6.211
 4000POPC   D2A51124  27.175  36.013   6.641
 4000POPC   C3A51125  26.874  35.939   6.977
 4000POPC   C4A51126  26.524  36.205   7.067
 4000POPC   C1B51127  26.639  36.151   6.164
 4000POPC   C2B51128  26.684  36.293   6.574
 4000POPC   C3B51129  26.943  36.499   6.857
 4000POPC   C4B51130  26.963  36.397   7.265
 4001POPC   NC351131  22.934  38.376   5.419
 4001POPC   PO451132  23.261  38.922   5.335
 4001POPC   GL151133  23.200  38.791   5.766
 4001POPC   GL251134  22.863  38.856   5.852
 4001POPC   C1A51135  23.131  38.513   6.146
 4001POPC   D2A51136  22.875  38.175   6.370
 4001POPC   C3A51137  22.772  38.214   6.817
 4001POPC   C4A51138  22.938  38.442   7.183
 4001POPC   C1B51139  22.615  38.539   6.100
 4001POPC   C2B51140  22.436  38.489   6.509
 4001POPC   C3B51141  22.506  38.629   6.931
 4001POPC   C4B51142  22.426  38.411   7.295
 4002POPC   NC351143  35.635   1.607   5.547
 4002POPC   PO451144  35.578   0.971   5.358
 4002POPC   GL151145  35.424   1.038   5.795
 4002POPC   GL251146  35.067   0.917   5.852
 4002POPC   C1A51147  35.600   1.201   6.205
 4002POPC   D2A51148  35.764   1.027   6.596
 4002POPC   C3A51149  35.649   1.206   6.982
 4002POPC   C4A51150  35.322   1.360   7.249
 4002POPC   C1B51151  35.155   0.923   6.297
 4002POPC   C2B51152  35.198   1.109   6.715
 4002POPC   C3B51153  35.118   0.909   7.104
 4002POPC   C4B51154  35.134   0.824   7.569
 4003POPC   NC351155   4.218  28.078   5.332
 4003POPC   PO451156   4.404  27.461   5.519
 4003POPC   GL151157   4.398  27.689   5.875
 4003POPC   GL251158   4.077  27.831   5.818
 4003POPC   C1A51159   4.313  27.513   6.269
 4003POPC   D2A51160   4.134  27.543   6.671
 4003POPC   C3A51161   4.412  27.398   6.983
 4003POPC   C4A51162   4.709  27.480   7.347
 4003POPC   C1B51163   4.205  28.014   6.236
 4003POPC   C2B51164   4.485  27.924   6.579
 4003POPC   C3B51165   4.305  27.990   6.949
 4003POPC   C4B51166   4.225  27.762   7.276
 4004POPC   NC351167  35.672  20.520   5.432
 4004POPC   PO451168  35.017  20.813   5.429
 4004POPC   GL151169  35.100  20.765   5.875
 4004POPC   GL251170  35.449  20.625   5.894
 4004POPC   C1A51171  35.185  20.620   6.321
 4004POPC   D2A51172  35.439  20.448   6.665
 4004POPC   C3A51173  35.111  20.437   6.968
 4004POPC   C4A51174  35.036  20.561   7.368
 4004POPC   C1B51175  35.676  20.746   6.281
 4004POPC   C2B51176  35.899  20.740   6.638
 4004POPC   C3B51177  35.796  20.833   7.041
 4004POPC   C4B51178  35.540  20.638   7.365
 4005POPC   NC351179  22.544  17.764   5.073
 4005POPC   PO451180  22.183  17.414   5.553
 4005POPC   GL151181  22.218  17.697   5.904
 4005POPC   GL251182  22.504  17.492   5.991
 4005POPC   C1A51183  22.208  17.741   6.357
 4005POPC   D2A51184  22.094  17.465   6.677
 4005POPC   C3A51185  22.145  17.482   7.107
 4005POPC   C4A51186  22.157  17.819   7.347
 4005POPC   C1B51187  22.557  17.343   6.391
 4005POPC   C2B51188  22.526  17.248   6.792
 4005POPC   C3B51189  22.575  17.211   7.203
 4005POPC   C4B51190  22.456  17.460   7.583
 4006POPC   NC351191  35.847  41.000   5.220
 4006POPC   PO451192  36.057  41.649   5.479
 4006POPC   GL151193  36.058  41.599   5.919
 4006POPC   GL251194  35.692  41.570   5.924
 4006POPC   C1A51195  36.289  41.418   6.309
 4006POPC   D2A51196  36.498  41.576   6.654
 4006POPC   C3A51197  36.288  41.554   7.008
 4006POPC   C4A51198  36.431  41.419   7.358
 4006POPC   C1B51199  35.794  41.320   6.298
 4006POPC   C2B51200  35.948  41.289   6.713
 4006POPC   C3B51201  35.786  41.561   7.060
 4006POPC   C4B51202  35.920  41.997   7.141
 4007POPC   NC351203  11.807  17.972   5.370
 4007POPC   PO451204  11.280  18.370   5.462
 4007POPC   GL151205  11.589  18.292   5.762
 4007POPC   GL251206  11.592  17.936   5.860
 4007POPC   C1A51207  11.485  18.360   6.195
 4007POPC   D2A51208  11.495  18.253   6.630
 4007POPC   C3A51209  11.164  18.460   6.899
 4007POPC   C4A51210  11.158  18.444   7.339
 4007POPC   C1B51211  11.309  17.831   6.232
 4007POPC   C2B51212  11.160  17.851   6.689
 4007POPC   C3B51213  11.201  17.982   7.132
 4007POPC   C4B51214  11.451  18.054   7.526
 4008POPC   NC351215  29.519  40.799   5.493
 4008POPC   PO451216  30.120  41.031   5.406
 4008POPC   GL151217  30.136  40.877   5.823
 4008POPC   GL251218  29.887  40.654   5.831
 4008POPC   C1A51219  30.158  40.707   6.252
 4008POPC   D2A51220  30.235  40.870   6.667
 4008POPC   C3A51221  29.930  40.921   7.006
 4008POPC   C4A51222  29.873  41.067   7.456
 4008POPC   C1B51223  29.729  40.463   6.184
 4008POPC   C2B51224  29.675  40.662   6.574
 4008POPC   C3B51225  29.717  40.461   6.955
 4008POPC   C4B51226  29.818  40.565   7.373
 4009POPC   NC351227  18.859   9.913   5.463
 4009POPC   PO451228  19.104   9.270   5.606
 4009POPC   GL151229  19.058   9.658   5.878
 4009POPC   GL251230  19.244   9.979   5.833
 4009POPC   C1A51231  18.924   9.801   6.280
 4009POPC   D2A51232  19.114   9.725   6.682
 4009POPC   C3A51233  18.876   9.733   7.057
 4009POPC   C4A51234  18.861   9.385   7.367
 4009POPC   C1B51235  19.461   9.863   6.219
 4009POPC   C2B51236  19.635   9.888   6.644
 4009POPC   C3B51237  19.443   9.894   7.055
 4009POPC   C4B51238  19.214   9.771   7.436
 4010POPC   NC351239  10.547  44.243   5.582
 4010POPC   PO451240  10.494  43.575   5.378
 4010POPC   GL151241  10.595  43.673   5.798
 4010POPC   GL251242  10.274  43.519   5.856
 4010POPC   C1A51243  10.766  43.586   6.230
 4010POPC   D2A51244  10.682  43.843   6.621
 4010POPC   C3A51245  10.829  43.817   7.060
 4010POPC   C4A51246  10.631  43.819   7.482
 4010POPC   C1B51247  10.290  43.810   6.201
 4010POPC   C2B51248  10.227  43.586   6.594
 4010POPC   C3B51249  10.360  43.623   7.015
 4010POPC   C4B51250  10.213  43.965   7.250
 4011POPC   NC351251  35.539  36.872   5.379
 4011POPC   PO451252  34.906  37.151   5.303
 4011POPC   GL151253  35.164  37.171   5.705
 4011POPC   GL251254  35.192  36.799   5.756
 4011POPC   C1A51255  35.184  37.297   6.178
 4011POPC   D2A51256  35.180  37.377   6.652
 4011POPC   C3A51257  35.260  37.120   7.026
 4011POPC   C4A51258  35.236  36.946   7.452
 4011POPC   C1B51259  35.443  36.834   6.144
 4011POPC   C2B51260  35.511  36.922   6.601
 4011POPC   C3B51261  35.654  36.750   7.012
 4011POPC   C4B51262  35.696  36.726   7.475
 4012POPC   NC351263  31.031  38.535   5.456
 4012POPC   PO451264  30.418  38.303   5.371
 4012POPC   GL151265  30.354  38.302   5.823
 4012POPC   GL251266  30.646  38.506   5.862
 4012POPC   C1A51267  30.380  38.350   6.271
 4012POPC   D2A51268  30.415  38.611   6.638
 4012POPC   C3A51269  30.560  38.373   6.993
 4012POPC   C4A51270  31.006  38.300   7.080
 4012POPC   C1B51271  30.717  38.764   6.211
 4012POPC   C2B51272  31.035  38.858   6.503
 4012POPC   C3B51273  30.978  38.782   6.919
 4012POPC   C4B51274  30.650  38.818   7.197
 4013POPC   NC351275  17.670  11.126   5.391
 4013POPC   PO451276  17.013  11.431   5.358
 4013POPC   GL151277  17.220  11.276   5.700
 4013POPC   GL251278  17.092  11.499   5.891
 4013POPC   C1A51279  17.567  11.302   6.024
 4013POPC   D2A51280  17.632  11.298   6.493
 4013POPC   C3A51281  17.576  11.502   6.923
 4013POPC   C4A51282  17.674  11.212   7.254
 4013POPC   C1B51283  17.138  11.341   6.267
 4013POPC   C2B51284  17.183  11.553   6.607
 4013POPC   C3B51285  17.070  11.470   7.001
 4013POPC   C4B51286  17.304  11.544   7.365
 4014POPC   NC351287   0.219  17.146   5.540
 4014POPC   PO451288   0.605  17.732   5.507
 4014POPC   GL151289   0.406  17.497   5.868
 4014POPC   GL251290   0.079  17.630   5.956
 4014POPC   C1A51291   0.220  17.250   6.252
 4014POPC   D2A51292   0.102  17.392   6.702
 4014POPC   C3A51293   0.303  17.317   7.066
 4014POPC   C4A51294   0.408  16.967   7.172
 4014POPC   C1B51295   0.302  17.738   6.353
 4014POPC   C2B51296   0.100  17.905   6.720
 4014POPC   C3B51297   0.061  17.754   7.107
 4014POPC   C4B51298   0.341  17.734   7.419
 4015POPC   NC351299   5.970  28.737   5.498
 4015POPC   PO451300   5.713  29.350   5.392
 4015POPC   GL151301   5.705  29.515   5.803
 4015POPC   GL251302   5.974  29.287   5.868
 4015POPC   C1A51303   5.652  29.403   6.254
 4015POPC   D2A51304   5.952  29.299   6.593
 4015POPC   C3A51305   5.948  29.396   7.016
 4015POPC   C4A51306   5.721  29.576   7.313
 4015POPC   C1B51307   5.918  28.954   6.187
 4015POPC   C2B51308   6.181  28.852   6.536
 4015POPC   C3B51309   6.032  28.860   6.956
 4015POPC   C4B51310   6.356  28.751   7.198
 4016POPC   NC351311  44.459  17.084   5.470
 4016POPC   PO451312   0.089  16.674   5.647
 4016POPC   GL151313  44.743  16.847   5.886
 4016POPC   GL251314  44.357  16.789   5.882
 4016POPC   C1A51315  44.763  16.959   6.322
 4016POPC   D2A51316  44.689  16.683   6.692
 4016POPC   C3A51317  44.785  16.795   7.140
 4016POPC   C4A51318  44.798  16.601   7.550
 4016POPC   C1B51319  44.462  16.493   6.221
 4016POPC   C2B51320  44.347  16.276   6.602
 4016POPC   C3B51321  44.375  16.471   7.027
 4016POPC   C4B51322  44.336  16.405   7.459
 4017POPC   NC351323  38.287  26.625   5.448
 4017POPC   PO451324  37.760  27.113   5.363
 4017POPC   GL151325  37.675  26.963   5.775
 4017POPC   GL251326  38.022  26.889   5.829
 4017POPC   C1A51327  37.425  26.959   6.178
 4017POPC   D2A51328  37.266  27.079   6.605
 4017POPC   C3A51329  37.517  26.978   6.993
 4017POPC   C4A51330  37.509  26.527   7.120
 4017POPC   C1B51331  37.854  26.648   6.158
 4017POPC   C2B51332  37.715  26.693   6.588
 4017POPC   C3B51333  37.990  26.732   6.950
 4017POPC   C4B51334  38.189  27.065   7.167
 4018POPC   NC351335  13.950  36.699   5.547
 4018POPC   PO451336  13.491  37.143   5.383
 4018POPC   GL151337  13.491  36.806   5.743
 4018POPC   GL251338  13.774  36.695   6.012
 4018POPC   C1A51339  13.313  36.538   6.081
 4018POPC   D2A51340  13.439  36.419   6.509
 4018POPC   C3A51341  13.511  36.708   6.843
 4018POPC   C4A51342  13.764  36.829   7.196
 4018POPC   C1B51343  13.705  36.861   6.396
 4018POPC   C2B51344  13.773  37.137   6.762
 4018POPC   C3B51345  13.503  37.260   7.089
 4018POPC   C4B51346  13.409  37.363   7.519
 4019POPC   NC351347  16.546  17.246   4.967
 4019POPC   PO451348  16.791  17.721   5.391
 4019POPC   GL151349  16.826  17.478   5.793
 4019POPC   GL251350  16.516  17.457   5.974
 4019POPC   C1A51351  16.912  17.622   6.233
 4019POPC   D2A51352  16.854  17.846   6.613
 4019POPC   C3A51353  16.869  17.612   7.006
 4019POPC   C4A51354  16.732  17.397   7.384
 4019POPC   C1B51355  16.347  17.193   6.298
 4019POPC   C2B51356  16.175  17.402   6.612
 4019POPC   C3B51357  16.324  17.409   7.013
 4019POPC   C4B51358  16.241  17.413   7.456
 4020POPC   NC351359  10.078  42.688   5.078
 4020POPC   PO451360   9.702  42.168   5.370
 4020POPC   GL151361   9.600  42.225   5.784
 4020POPC   GL251362   9.880  42.353   5.868
 4020POPC   C1A51363   9.478  42.373   6.190
 4020POPC   D2A51364   9.196  42.255   6.485
 4020POPC   C3A51365   9.405  42.249   6.879
 4020POPC   C4A51366   9.553  42.109   7.257
 4020POPC   C1B51367   9.997  42.336   6.258
 4020POPC   C2B51368   9.815  42.466   6.603
 4020POPC   C3B51369   9.932  42.242   6.938
 4020POPC   C4B51370   9.876  42.483   7.266
 4021POPC   NC351371  22.554  44.105   5.491
 4021POPC   PO451372  23.024  43.577   5.317
 4021POPC   GL151373  23.016  43.589   5.781
 4021POPC   GL251374  22.938  43.945   5.862
 4021POPC   C1A51375  22.925  43.564   6.215
 4021POPC   D2A51376  23.106  43.681   6.576
 4021POPC   C3A51377  22.881  43.551   6.924
 4021POPC   C4A51378  22.684  43.587   7.320
 4021POPC   C1B51379  22.785  44.040   6.310
 4021POPC   C2B51380  22.669  43.982   6.719
 4021POPC   C3B51381  22.881  44.023   7.133
 4021POPC   C4B51382  23.003  44.262   7.495
 4022POPC   NC351383  18.496  43.349   5.393
 4022POPC   PO451384  18.243  44.002   5.495
 4022POPC   GL151385  18.350  43.958   5.886
 4022POPC   GL251386  18.616  43.725   5.762
 4022POPC   C1A51387  18.139  43.795   6.257
 4022POPC   D2A51388  18.165  43.690   6.684
 4022POPC   C3A51389  18.179  43.902   7.059
 4022POPC   C4A51390  18.045  43.693   7.412
 4022POPC   C1B51391  18.635  43.651   6.183
 4022POPC   C2B51392  18.671  43.814   6.600
 4022POPC   C3B51393  18.612  43.649   6.999
 4022POPC   C4B51394  18.535  43.720   7.432
 4023POPC   NC351395  36.345  34.416   5.386
 4023POPC   PO451396  35.724  34.417   5.155
 4023POPC   GL151397  35.925  34.556   5.605
 4023POPC   GL251398  36.014  34.223   5.774
 4023POPC   C1A51399  36.043  34.656   6.070
 4023POPC   D2A51400  35.924  34.746   6.521
 4023POPC   C3A51401  36.006  34.608   6.936
 4023POPC   C4A51402  36.228  34.758   7.287
 4023POPC   C1B51403  36.189  34.156   6.197
 4023POPC   C2B51404  36.071  34.192   6.634
 4023POPC   C3B51405  36.110  34.089   7.075
 4023POPC   C4B51406  35.940  34.328   7.372
 4024POPC   NC351407  41.812  23.129   5.472
 4024POPC   PO451408  41.447  22.600   5.488
 4024POPC   GL151409  41.604  22.840   5.845
 4024POPC   GL251410  41.447  23.191   5.830
 4024POPC   C1A51411  41.702  22.976   6.277
 4024POPC   D2A51412  41.890  22.800   6.661
 4024POPC   C3A51413  41.678  22.921   7.028
 4024POPC   C4A51414  41.746  23.212   7.327
 4024POPC   C1B51415  41.301  23.322   6.221
 4024POPC   C2B51416  41.480  23.398   6.614
 4024POPC   C3B51417  41.357  23.329   7.017
 4024POPC   C4B51418  41.079  23.144   7.289
 4025POPC   NC351419  34.417  42.773   5.414
 4025POPC   PO451420  34.563  43.371   5.607
 4025POPC   GL151421  34.600  43.003   5.838
 4025POPC   GL251422  34.928  43.001   5.788
 4025POPC   C1A51423  34.605  42.824   6.252
 4025POPC   D2A51424  34.728  43.033   6.647
 4025POPC   C3A51425  34.505  43.015   7.044
 4025POPC   C4A51426  34.292  42.733   7.300
 4025POPC   C1B51427  34.929  43.225   6.208
 4025POPC   C2B51428  34.949  43.482   6.618
 4025POPC   C3B51429  34.824  43.420   7.054
 4025POPC   C4B51430  34.927  43.531   7.468
 4026POPC   NC351431  39.838  13.183   5.627
 4026POPC   PO451432  40.178  12.699   5.305
 4026POPC   GL151433  40.153  12.639   5.754
 4026POPC   GL251434  39.873  12.790   5.964
 4026POPC   C1A51435  40.343  12.688   6.160
 4026POPC   D2A51436  40.103  12.740   6.533
 4026POPC   C3A51437  40.266  12.740   6.917
 4026POPC   C4A51438  40.092  12.817   7.285
 4026POPC   C1B51439  40.018  13.156   6.228
 4026POPC   C2B51440  40.142  13.288   6.603
 4026POPC   C3B51441  39.916  13.131   6.908
 4026POPC   C4B51442  39.807  13.240   7.283
 4027POPC   NC351443  12.179  33.795   5.308
 4027POPC   PO451444  11.673  34.184   5.484
 4027POPC   GL151445  12.055  34.024   5.752
 4027POPC   GL251446  12.106  33.614   5.819
 4027POPC   C1A51447  12.203  33.983   6.195
 4027POPC   D2A51448  12.071  33.716   6.554
 4027POPC   C3A51449  12.190  33.669   7.007
 4027POPC   C4A51450  12.106  34.062   7.236
 4027POPC   C1B51451  11.846  33.350   6.146
 4027POPC   C2B51452  11.732  33.354   6.605
 4027POPC   C3B51453  11.688  33.714   6.935
 4027POPC   C4B51454  11.580  33.870   7.371
 4028POPC   NC351455  18.732   2.203   5.467
 4028POPC   PO451456  18.191   1.846   5.362
 4028POPC   GL151457  18.376   1.941   5.737
 4028POPC   GL251458  18.252   2.280   5.778
 4028POPC   C1A51459  18.387   1.895   6.163
 4028POPC   D2A51460  18.140   2.088   6.499
 4028POPC   C3A51461  18.255   1.871   6.849
 4028POPC   C4A51462  18.491   1.913   7.200
 4028POPC   C1B51463  17.994   2.436   6.129
 4028POPC   C2B51464  17.601   2.399   6.356
 4028POPC   C3B51465  17.639   2.346   6.785
 4028POPC   C4B51466  18.011   2.270   7.039
 4029POPC   NC351467  39.002  15.885   5.441
 4029POPC   PO451468  39.593  15.725   5.421
 4029POPC   GL151469  39.361  15.745   5.805
 4029POPC   GL251470  39.480  16.061   5.912
 4029POPC   C1A51471  39.363  15.688   6.275
 4029POPC   D2A51472  39.532  15.966   6.603
 4029POPC   C3A51473  39.378  16.104   7.014
 4029POPC   C4A51474  39.239  15.791   7.350
 4029POPC   C1B51475  39.066  16.077   6.102
 4029POPC   C2B51476  38.951  16.104   6.519
 4029POPC   C3B51477  38.964  15.879   6.876
 4029POPC   C4B51478  38.921  16.216   7.230
 4030POPC   NC351479  29.096   3.864   5.552
 4030POPC   PO451480  29.022   4.570   5.426
 4030POPC   GL151481  29.199   4.348   5.800
 4030POPC   GL251482  28.879   4.279   5.844
 4030POPC   C1A51483  29.165   4.251   6.274
 4030POPC   D2A51484  29.099   4.499   6.668
 4030POPC   C3A51485  29.244   4.293   7.022
 4030POPC   C4A51486  29.085   4.012   7.315
 4030POPC   C1B51487  28.658   4.171   6.201
 4030POPC   C2B51488  28.580   4.370   6.575
 4030POPC   C3B51489  28.740   4.262   6.965
 4030POPC   C4B51490  28.647   4.292   7.376
 4031POPC   NC351491  30.174  21.287   5.556
 4031POPC   PO451492  29.857  21.783   5.193
 4031POPC   GL151493  29.775  21.575   5.720
 4031POPC   GL251494  29.713  21.217   5.803
 4031POPC   C1A51495  29.902  21.575   6.154
 4031POPC   D2A51496  29.778  21.531   6.573
 4031POPC   C3A51497  29.880  21.833   6.880
 4031POPC   C4A51498  29.846  21.629   7.276
 4031POPC   C1B51499  29.810  21.074   6.255
 4031POPC   C2B51500  29.847  21.038   6.712
 4031POPC   C3B51501  30.092  21.305   6.987
 4031POPC   C4B51502  30.171  21.300   7.457
 4032POPC   NC351503  20.250   5.545   5.346
 4032POPC   PO451504  20.796   5.830   5.512
 4032POPC   GL151505  20.713   5.694   5.889
 4032POPC   GL251506  20.403   5.582   5.891
 4032POPC   C1A51507  20.755   5.864   6.263
 4032POPC   D2A51508  20.570   6.150   6.514
 4032POPC   C3A51509  20.568   6.025   6.932
 4032POPC   C4A51510  20.328   6.273   7.218
 4032POPC   C1B51511  20.256   5.792   6.254
 4032POPC   C2B51512  20.183   5.758   6.700
 4032POPC   C3B51513  20.183   5.755   7.158
 4032POPC   C4B51514  20.433   5.535   7.478
 4033POPC   NC351515  36.108  20.323   5.576
 4033POPC   PO451516  36.072  20.918   5.224
 4033POPC   GL151517  36.266  20.770   5.746
 4033POPC   GL251518  35.999  20.535   5.987
 4033POPC   C1A51519  36.227  20.875   6.234
 4033POPC   D2A51520  36.367  20.543   6.503
 4033POPC   C3A51521  36.290  20.590   6.926
 4033POPC   C4A51522  36.294  20.942   7.199
 4033POPC   C1B51523  35.875  20.280   6.362
 4033POPC   C2B51524  35.879  20.138   6.765
 4033POPC   C3B51525  35.889  20.339   7.142
 4033POPC   C4B51526  36.232  20.458   7.429
 4034POPC   NC351527  42.245   9.786   5.419
 4034POPC   PO451528  42.776   9.359   5.491
 4034POPC   GL151529  42.545   9.653   5.840
 4034POPC   GL251530  42.297   9.938   5.885
 4034POPC   C1A51531  42.350   9.586   6.266
 4034POPC   D2A51532  42.492   9.495   6.687
 4034POPC   C3A51533  42.426   9.616   7.103
 4034POPC   C4A51534  42.029   9.705   7.215
 4034POPC   C1B51535  42.278  10.107   6.273
 4034POPC   C2B51536  42.371   9.984   6.692
 4034POPC   C3B51537  42.231  10.148   7.073
 4034POPC   C4B51538  41.906  10.143   7.423
 4035POPC   NC351539  32.606  19.172   5.600
 4035POPC   PO451540  32.555  18.691   5.164
 4035POPC   GL151541  32.276  18.781   5.580
 4035POPC   GL251542  32.515  18.687   5.811
 4035POPC   C1A51543  32.127  18.992   6.029
 4035POPC   D2A51544  32.024  18.895   6.478
 4035POPC   C3A51545  31.942  19.081   6.885
 4035POPC   C4A51546  32.152  18.960   7.276
 4035POPC   C1B51547  32.592  18.962   6.205
 4035POPC   C2B51548  32.435  19.280   6.481
 4035POPC   C3B51549  32.455  19.141   6.889
 4035POPC   C4B51550  32.650  18.987   7.251
 4036POPC   NC351551  38.405  35.844   5.158
 4036POPC   PO451552  38.661  36.467   5.278
 4036POPC   GL151553  38.572  36.152   5.568
 4036POPC   GL251554  38.675  36.395   5.821
 4036POPC   C1A51555  38.368  36.027   5.994
 4036POPC   D2A51556  38.448  36.218   6.427
 4036POPC   C3A51557  38.533  35.946   6.787
 4036POPC   C4A51558  38.451  35.929   7.233
 4036POPC   C1B51559  38.899  36.373   6.215
 4036POPC   C2B51560  38.797  36.527   6.653
 4036POPC   C3B51561  38.576  36.415   7.043
 4036POPC   C4B51562  38.785  36.271   7.409
 4037POPC   NC351563  17.508   3.847   5.295
 4037POPC   PO451564  17.727   3.242   5.469
 4037POPC   GL151565  17.473   3.472   5.780
 4037POPC   GL251566  17.363   3.849   5.782
 4037POPC   C1A51567  17.492   3.342   6.217
 4037POPC   D2A51568  17.286   3.365   6.605
 4037POPC   C3A51569  17.503   3.280   6.993
 4037POPC   C4A51570  17.640   3.510   7.373
 4037POPC   C1B51571  17.622   3.841   6.128
 4037POPC   C2B51572  17.723   3.704   6.540
 4037POPC   C3B51573  17.597   3.783   6.950
 4037POPC   C4B51574  17.624   4.017   7.345
 4038POPC   NC351575   8.100  15.447   5.441
 4038POPC   PO451576   8.244  14.878   5.162
 4038POPC   GL151577   8.331  14.919   5.642
 4038POPC   GL251578   8.086  15.096   5.856
 4038POPC   C1A51579   8.481  14.940   6.148
 4038POPC   D2A51580   8.371  15.204   6.491
 4038POPC   C3A51581   8.456  15.174   6.931
 4038POPC   C4A51582   8.221  15.152   7.308
 4038POPC   C1B51583   7.866  14.965   6.274
 4038POPC   C2B51584   7.800  14.840   6.757
 4038POPC   C3B51585   7.713  15.123   7.149
 4038POPC   C4B51586   7.776  15.250   7.585
 4039POPC   NC351587  19.646   5.336   5.375
 4039POPC   PO451588  20.165   4.810   5.534
 4039POPC   GL151589  19.883   4.987   5.773
 4039POPC   GL251590  20.004   5.302   5.718
 4039POPC   C1A51591  19.812   4.918   6.213
 4039POPC   D2A51592  20.081   4.912   6.547
 4039POPC   C3A51593  19.982   4.783   6.961
 4039POPC   C4A51594  19.591   4.773   7.188
 4039POPC   C1B51595  19.937   5.409   6.108
 4039POPC   C2B51596  19.832   5.416   6.520
 4039POPC   C3B51597  19.999   5.299   6.907
 4039POPC   C4B51598  19.864   5.174   7.313
 4040POPC   NC351599  12.565  24.444   5.322
 4040POPC   PO451600  13.194  24.423   5.342
 4040POPC   GL151601  12.902  24.527   5.728
 4040POPC   GL251602  13.090  24.777   5.923
 4040POPC   C1A51603  12.665  24.613   6.166
 4040POPC   D2A51604  12.843  24.678   6.624
 4040POPC   C3A51605  12.801  24.341   6.920
 4040POPC   C4A51606  12.618  24.334   7.342
 4040POPC   C1B51607  13.127  24.448   6.265
 4040POPC   C2B51608  13.307  24.326   6.635
 4040POPC   C3B51609  13.329  24.528   7.008
 4040POPC   C4B51610  13.003  24.661   7.288
 4041POPC   NC351611   0.237  26.384   5.349
 4041POPC   PO451612   0.663  25.818   5.342
 4041POPC   GL151613   0.488  25.884   5.740
 4041POPC   GL251614   0.570  26.249   5.777
 4041POPC   C1A51615   0.587  25.914   6.190
 4041POPC   D2A51616   0.383  25.847   6.567
 4041POPC   C3A51617   0.572  25.910   6.959
 4041POPC   C4A51618   0.176  25.958   7.149
 4041POPC   C1B51619   0.578  26.443   6.206
 4041POPC   C2B51620   0.346  26.359   6.586
 4041POPC   C3B51621   0.439  26.400   7.031
 4041POPC   C4B51622   0.568  26.620   7.386
 4042POPC   NC351623  40.888   5.972   5.383
 4042POPC   PO451624  40.583   5.496   5.738
 4042POPC   GL151625  40.643   5.933   5.868
 4042POPC   GL251626  40.958   6.135   5.876
 4042POPC   C1A51627  40.571   6.091   6.281
 4042POPC   D2A51628  40.570   6.219   6.738
 4042POPC   C3A51629  40.493   5.907   7.066
 4042POPC   C4A51630  40.421   5.879   7.537
 4042POPC   C1B51631  41.054   6.237   6.315
 4042POPC   C2B51632  41.253   6.171   6.710
 4042POPC   C3B51633  40.992   6.117   7.063
 4042POPC   C4B51634  40.694   6.273   7.334
 4043POPC   NC351635  35.003  27.620   5.654
 4043POPC   PO451636  34.423  27.530   5.157
 4043POPC   GL151637  34.532  27.432   5.654
 4043POPC   GL251638  34.570  27.777   5.886
 4043POPC   C1A51639  34.632  27.323   6.112
 4043POPC   D2A51640  34.967  27.374   6.472
 4043POPC   C3A51641  34.967  27.641   6.865
 4043POPC   C4A51642  34.832  27.529   7.281
 4043POPC   C1B51643  34.462  28.034   6.279
 4043POPC   C2B51644  34.420  27.868   6.708
 4043POPC   C3B51645  34.220  27.841   7.122
 4043POPC   C4B51646  34.490  27.787   7.546
 4044POPC   NC351647  42.757  17.368   5.532
 4044POPC   PO451648  43.227  17.769   5.404
 4044POPC   GL151649  43.222  17.623   5.827
 4044POPC   GL251650  42.893  17.694   5.908
 4044POPC   C1A51651  43.314  17.508   6.277
 4044POPC   D2A51652  43.400  17.457   6.741
 4044POPC   C3A51653  43.055  17.600   6.990
 4044POPC   C4A51654  43.176  17.729   7.400
 4044POPC   C1B51655  42.788  17.399   6.252
 4044POPC   C2B51656  42.661  17.110   6.590
 4044POPC   C3B51657  42.648  17.255   7.025
 4044POPC   C4B51658  42.915  17.289   7.395
 4045POPC   NC351659  36.129  23.368   5.514
 4045POPC   PO451660  36.315  22.746   5.389
 4045POPC   GL151661  36.242  22.936   5.812
 4045POPC   GL251662  36.501  23.189   5.858
 4045POPC   C1A51663  36.124  22.837   6.245
 4045POPC   D2A51664  35.822  22.677   6.543
 4045POPC   C3A51665  35.986  22.792   6.930
 4045POPC   C4A51666  36.038  22.750   7.382
 4045POPC   C1B51667  36.614  23.058   6.281
 4045POPC   C2B51668  36.399  23.021   6.672
 4045POPC   C3B51669  36.403  23.018   7.104
 4045POPC   C4B51670  36.120  23.262   7.370
 4046POPC   NC351671  29.321  32.568   5.429
 4046POPC   PO451672  29.196  31.948   5.350
 4046POPC   GL151673  29.189  32.043   5.777
 4046POPC   GL251674  29.399  32.325   5.887
 4046POPC   C1A51675  28.986  32.013   6.188
 4046POPC   D2A51676  29.115  32.160   6.590
 4046POPC   C3A51677  28.927  32.010   6.953
 4046POPC   C4A51678  29.247  32.095   7.258
 4046POPC   C1B51679  29.115  32.601   6.162
 4046POPC   C2B51680  28.898  32.613   6.568
 4046POPC   C3B51681  29.000  32.526   6.978
 4046POPC   C4B51682  28.827  32.342   7.343
 4047POPC   NC351683  38.084   5.222   5.396
 4047POPC   PO451684  37.522   4.880   5.470
 4047POPC   GL151685  37.756   5.141   5.777
 4047POPC   GL251686  38.008   4.873   5.840
 4047POPC   C1A51687  37.739   5.342   6.198
 4047POPC   D2A51688  37.677   5.157   6.624
 4047POPC   C3A51689  37.545   5.376   7.008
 4047POPC   C4A51690  37.602   5.295   7.475
 4047POPC   C1B51691  38.128   5.007   6.269
 4047POPC   C2B51692  38.149   4.949   6.720
 4047POPC   C3B51693  37.924   5.083   7.086
 4047POPC   C4B51694  37.952   4.938   7.541
 4048POPC   NC351695  25.040  27.069   5.243
 4048POPC   PO451696  25.252  26.575   5.583
 4048POPC   GL151697  25.180  26.968   5.762
 4048POPC   GL251698  24.913  26.834   5.955
 4048POPC   C1A51699  25.223  27.129   6.200
 4048POPC   D2A51700  25.088  26.925   6.599
 4048POPC   C3A51701  25.333  27.121   6.942
 4048POPC   C4A51702  25.390  27.001   7.328
 4048POPC   C1B51703  25.286  26.623   6.212
 4048POPC   C2B51704  25.336  26.455   6.614
 4048POPC   C3B51705  25.187  26.608   7.016
 4048POPC   C4B51706  25.434  26.395   7.298
 4049POPC   NC351707  44.512  14.518   5.369
 4049POPC   PO451708  44.141  14.011   5.641
 4049POPC   GL151709  44.371  14.321   5.867
 4049POPC   GL251710  44.603  14.623   5.873
 4049POPC   C1A51711  44.283  14.472   6.258
 4049POPC   D2A51712  44.326  14.709   6.614
 4049POPC   C3A51713  44.460  14.520   6.980
 4049POPC   C4A51714  44.785  14.623   7.264
 4049POPC   C1B51715  44.834  14.487   6.191
 4049POPC   C2B51716   0.034  14.230   6.456
 4049POPC   C3B51717  44.931  14.277   6.872
 4049POPC   C4B51718   0.209  14.275   7.187
 4050POPC   NC351719  22.036  18.557   5.411
 4050POPC   PO451720  22.517  18.160   5.339
 4050POPC   GL151721  22.332  18.208   5.759
 4050POPC   GL251722  21.947  18.194   5.778
 4050POPC   C1A51723  22.244  18.230   6.205
 4050POPC   D2A51724  21.996  18.217   6.560
 4050POPC   C3A51725  22.185  17.963   6.849
 4050POPC   C4A51726  22.461  18.181   7.121
 4050POPC   C1B51727  21.841  18.531   6.098
 4050POPC   C2B51728  21.736  18.653   6.537
 4050POPC   C3B51729  21.941  18.579   6.935
 4050POPC   C4B51730  21.899  18.225   7.195
 4051POPC   NC351731  24.687  20.576   5.244
 4051POPC   PO451732  24.053  20.262   5.225
 4051POPC   GL151733  24.295  20.408   5.656
 4051POPC   GL251734  24.637  20.563   5.740
 4051POPC   C1A51735  24.328  20.444   6.118
 4051POPC   D2A51736  24.139  20.557   6.505
 4051POPC   C3A51737  24.391  20.632   6.849
 4051POPC   C4A51738  24.457  20.537   7.264
 4051POPC   C1B51739  24.694  20.864   6.096
 4051POPC   C2B51740  24.559  20.986   6.504
 4051POPC   C3B51741  24.786  20.965   6.899
 4051POPC   C4B51742  24.819  20.901   7.318
 4052POPC   NC351743  25.946  18.465   5.422
 4052POPC   PO451744  25.621  17.888   5.668
 4052POPC   GL151745  25.923  18.197   5.900
 4052POPC   GL251746  26.164  18.477   5.865
 4052POPC   C1A51747  25.975  18.391   6.333
 4052POPC   D2A51748  26.074  18.115   6.663
 4052POPC   C3A51749  25.955  18.147   7.085
 4052POPC   C4A51750  26.117  18.137   7.479
 4052POPC   C1B51751  26.469  18.583   6.154
 4052POPC   C2B51752  26.407  18.572   6.575
 4052POPC   C3B51753  26.070  18.601   6.854
 4052POPC   C4B51754  26.149  18.620   7.275
 4053POPC   NC351755  42.239  18.472   5.341
 4053POPC   PO451756  42.097  17.916   5.544
 4053POPC   GL151757  42.231  18.242   5.807
 4053POPC   GL251758  42.098  18.619   5.809
 4053POPC   C1A51759  42.158  18.196   6.216
 4053POPC   D2A51760  42.409  18.205   6.561
 4053POPC   C3A51761  42.158  18.242   6.921
 4053POPC   C4A51762  42.255  18.057   7.314
 4053POPC   C1B51763  42.425  18.614   6.120
 4053POPC   C2B51764  42.609  18.697   6.526
 4053POPC   C3B51765  42.642  18.490   6.926
 4053POPC   C4B51766  42.444  18.513   7.295
 4054POPC   NC351767  35.217  40.283   5.517
 4054POPC   PO451768  35.731  39.858   5.492
 4054POPC   GL151769  35.467  39.930   5.814
 4054POPC   GL251770  35.126  39.844   5.815
 4054POPC   C1A51771  35.520  40.131   6.197
 4054POPC   D2A51772  35.329  40.325   6.519
 4054POPC   C3A51773  35.513  40.206   6.883
 4054POPC   C4A51774  35.227  40.114   7.175
 4054POPC   C1B51775  35.015  40.022   6.217
 4054POPC   C2B51776  34.910  39.921   6.648
 4054POPC   C3B51777  35.090  39.662   6.951
 4054POPC   C4B51778  35.238  39.661   7.369
 4055POPC   NC351779  13.086  17.578   5.427
 4055POPC   PO451780  12.615  17.028   5.516
 4055POPC   GL151781  12.806  17.307   5.806
 4055POPC   GL251782  12.730  17.671   5.789
 4055POPC   C1A51783  12.747  17.336   6.249
 4055POPC   D2A51784  13.055  17.294   6.593
 4055POPC   C3A51785  13.032  17.488   7.015
 4055POPC   C4A51786  12.992  17.320   7.444
 4055POPC   C1B51787  12.494  17.787   6.179
 4055POPC   C2B51788  12.684  17.738   6.601
 4055POPC   C3B51789  12.585  17.712   7.034
 4055POPC   C4B51790  12.824  17.815   7.437
 4056POPC   NC351791  42.377   6.870   5.131
 4056POPC   PO451792  42.413   7.521   5.309
 4056POPC   GL151793  42.295   7.523   5.741
 4056POPC   GL251794  42.578   7.362   5.895
 4056POPC   C1A51795  42.348   7.777   6.094
 4056POPC   D2A51796  42.549   7.796   6.461
 4056POPC   C3A51797  42.440   7.467   6.720
 4056POPC   C4A51798  42.463   7.663   7.105
 4056POPC   C1B51799  42.262   7.244   6.243
 4056POPC   C2B51800  42.080   7.016   6.632
 4056POPC   C3B51801  42.277   6.868   7.012
 4056POPC   C4B51802  42.519   7.160   7.228
 4057POPC   NC351803  17.078  42.142   5.261
 4057POPC   PO451804  17.412  42.717   5.181
 4057POPC   GL151805  17.313  42.417   5.652
 4057POPC   GL251806  17.532  42.092   5.632
 4057POPC   C1A51807  17.451  42.577   6.143
 4057POPC   D2A51808  17.354  42.703   6.618
 4057POPC   C3A51809  17.597  42.499   6.961
 4057POPC   C4A51810  17.420  42.373   7.370
 4057POPC   C1B51811  17.409  42.063   6.072
 4057POPC   C2B51812  17.383  42.218   6.497
 4057POPC   C3B51813  17.228  42.163   6.911
 4057POPC   C4B51814  17.319  41.857   7.206
 4058POPC   NC351815  27.222  26.266   5.549
 4058POPC   PO451816  27.406  25.668   5.399
 4058POPC   GL151817  27.580  25.779   5.831
 4058POPC   GL251818  27.510  26.115   5.929
 4058POPC   C1A51819  27.689  25.838   6.295
 4058POPC   D2A51820  27.674  25.979   6.707
 4058POPC   C3A51821  27.661  25.680   7.075
 4058POPC   C4A51822  27.657  25.656   7.553
 4058POPC   C1B51823  27.635  26.359   6.281
 4058POPC   C2B51824  27.795  26.465   6.698
 4058POPC   C3B51825  27.561  26.429   7.061
 4058POPC   C4B51826  27.528  26.110   7.336
 4059POPC   NC351827   7.971   8.863   5.581
 4059POPC   PO451828   8.392   9.320   5.441
 4059POPC   GL151829   8.416   9.041   5.806
 4059POPC   GL251830   8.445   8.682   5.746
 4059POPC   C1A51831   8.198   8.896   6.218
 4059POPC   D2A51832   8.050   8.989   6.650
 4059POPC   C3A51833   8.163   9.264   6.971
 4059POPC   C4A51834   8.089   9.164   7.384
 4059POPC   C1B51835   8.669   8.731   6.132
 4059POPC   C2B51836   8.512   8.665   6.540
 4059POPC   C3B51837   8.501   8.873   6.905
 4059POPC   C4B51838   8.381   8.766   7.297
 4060POPC   NC351839  30.774  13.038   5.448
 4060POPC   PO451840  30.145  12.699   5.258
 4060POPC   GL151841  30.473  12.626   5.644
 4060POPC   GL251842  30.684  12.860   5.900
 4060POPC   C1A51843  30.375  12.556   6.124
 4060POPC   D2A51844  30.565  12.806   6.455
 4060POPC   C3A51845  30.778  12.643   6.817
 4060POPC   C4A51846  30.837  12.737   7.255
 4060POPC   C1B51847  30.925  13.105   6.225
 4060POPC   C2B51848  31.127  12.997   6.645
 4060POPC   C3B51849  31.070  13.185   7.078
 4060POPC   C4B51850  31.077  13.117   7.562
 4061POPC   NC351851   2.367   6.259   5.367
 4061POPC   PO451852   2.573   6.906   5.291
 4061POPC   GL151853   2.671   6.733   5.735
 4061POPC   GL251854   2.860   6.983   5.868
 4061POPC   C1A51855   2.910   6.497   6.122
 4061POPC   D2A51856   2.798   6.306   6.493
 4061POPC   C3A51857   3.028   6.369   6.853
 4061POPC   C4A51858   2.863   6.397   7.211
 4061POPC   C1B51859   2.701   6.920   6.275
 4061POPC   C2B51860   2.625   6.804   6.675
 4061POPC   C3B51861   2.892   6.879   6.976
 4061POPC   C4B51862   3.162   7.168   7.178
 4062POPC   NC351863   2.907  23.356   5.487
 4062POPC   PO451864   2.559  23.964   5.428
 4062POPC   GL151865   2.704  23.721   5.786
 4062POPC   GL251866   3.027  23.737   5.848
 4062POPC   C1A51867   2.685  23.838   6.231
 4062POPC   D2A51868   2.796  23.710   6.631
 4062POPC   C3A51869   2.570  23.775   6.973
 4062POPC   C4A51870   2.836  23.758   7.309
 4062POPC   C1B51871   3.012  23.458   6.215
 4062POPC   C2B51872   3.216  23.439   6.579
 4062POPC   C3B51873   3.178  23.246   6.973
 4062POPC   C4B51874   2.933  23.247   7.363
 4063POPC   NC351875  18.987  31.871   5.379
 4063POPC   PO451876  18.987  32.561   5.394
 4063POPC   GL151877  18.905  32.283   5.715
 4063POPC   GL251878  19.195  32.107   5.811
 4063POPC   C1A51879  18.814  32.230   6.159
 4063POPC   D2A51880  19.055  32.213   6.543
 4063POPC   C3A51881  18.871  32.310   6.939
 4063POPC   C4A51882  18.952  32.601   7.303
 4063POPC   C1B51883  19.432  32.055   6.213
 4063POPC   C2B51884  19.522  31.938   6.617
 4063POPC   C3B51885  19.349  32.112   6.966
 4063POPC   C4B51886  19.109  32.062   7.319
 4064POPC   NC351887  10.206  31.619   5.580
 4064POPC   PO451888   9.586  31.357   5.421
 4064POPC   GL151889   9.594  31.392   5.836
 4064POPC   GL251890   9.754  31.711   5.882
 4064POPC   C1A51891   9.638  31.067   6.158
 4064POPC   D2A51892   9.774  30.875   6.529
 4064POPC   C3A51893   9.655  31.085   6.909
 4064POPC   C4A51894   9.742  31.255   7.305
 4064POPC   C1B51895   9.929  31.485   6.244
 4064POPC   C2B51896  10.051  31.307   6.663
 4064POPC   C3B51897   9.882  31.565   6.945
 4064POPC   C4B51898   9.405  31.679   7.018
 4065POPC   NC351899  43.609  38.430   5.518
 4065POPC   PO451900  44.320  38.275   5.525
 4065POPC   GL151901  44.071  38.418   5.849
 4065POPC   GL251902  44.216  38.726   5.911
 4065POPC   C1A51903  44.004  38.332   6.300
 4065POPC   D2A51904  44.201  38.498   6.694
 4065POPC   C3A51905  43.983  38.348   7.058
 4065POPC   C4A51906  43.563  38.214   6.956
 4065POPC   C1B51907  43.838  38.791   6.179
 4065POPC   C2B51908  43.715  38.660   6.617
 4065POPC   C3B51909  43.438  38.695   7.001
 4065POPC   C4B51910  43.754  38.811   7.265
 4066POPC   NC351911  23.654  21.722   5.612
 4066POPC   PO451912  23.504  21.096   5.283
 4066POPC   GL151913  23.452  21.271   5.747
 4066POPC   GL251914  23.194  21.548   5.780
 4066POPC   C1A51915  23.725  21.286   6.167
 4066POPC   D2A51916  23.987  21.579   6.494
 4066POPC   C3A51917  23.920  21.506   6.964
 4066POPC   C4A51918  23.677  21.173   7.190
 4066POPC   C1B51919  23.388  21.669   6.197
 4066POPC   C2B51920  23.502  21.455   6.611
 4066POPC   C3B51921  23.360  21.555   7.034
 4066POPC   C4B51922  23.606  21.618   7.408
 4067POPC   NC351923   7.425   1.602   5.499
 4067POPC   PO451924   7.165   2.218   5.508
 4067POPC   GL151925   7.386   2.116   5.870
 4067POPC   GL251926   7.629   2.389   5.900
 4067POPC   C1A51927   7.392   1.874   6.252
 4067POPC   D2A51928   7.261   2.037   6.629
 4067POPC   C3A51929   7.517   2.227   6.920
 4067POPC   C4A51930   7.495   2.371   7.297
 4067POPC   C1B51931   7.847   2.110   6.181
 4067POPC   C2B51932   7.801   1.958   6.596
 4067POPC   C3B51933   7.711   1.702   6.978
 4067POPC   C4B51934   7.574   1.810   7.415
 4068POPC   NC351935  28.655  35.569   5.399
 4068POPC   PO451936  28.198  35.076   5.343
 4068POPC   GL151937  28.441  35.209   5.698
 4068POPC   GL251938  28.307  35.489   5.857
 4068POPC   C1A51939  28.487  35.082   6.128
 4068POPC   D2A51940  28.673  35.177   6.525
 4068POPC   C3A51941  28.482  35.324   6.877
 4068POPC   C4A51942  28.565  35.159   7.276
 4068POPC   C1B51943  28.623  35.575   6.206
 4068POPC   C2B51944  28.631  35.800   6.611
 4068POPC   C3B51945  28.774  35.724   7.037
 4068POPC   C4B51946  28.633  35.664   7.460
 4069POPC   NC351947  22.332  35.807   5.421
 4069POPC   PO451948  22.147  35.181   5.346
 4069POPC   GL151949  22.269  35.390   5.750
 4069POPC   GL251950  22.404  35.073   5.838
 4069POPC   C1A51951  22.282  35.592   6.193
 4069POPC   D2A51952  21.923  35.575   6.534
 4069POPC   C3A51953  21.956  35.613   6.984
 4069POPC   C4A51954  22.038  35.398   7.356
 4069POPC   C1B51955  22.124  35.114   6.164
 4069POPC   C2B51956  22.273  35.212   6.571
 4069POPC   C3B51957  22.089  35.097   6.931
 4069POPC   C4B51958  22.259  34.938   7.302
 4070POPC   NC351959  13.548  37.642   5.393
 4070POPC   PO451960  14.120  37.903   5.546
 4070POPC   GL151961  13.756  37.718   5.872
 4070POPC   GL251962  13.536  37.407   5.843
 4070POPC   C1A51963  13.419  37.813   6.225
 4070POPC   D2A51964  13.209  37.800   6.680
 4070POPC   C3A51965  13.398  37.766   7.126
 4070POPC   C4A51966  13.699  38.063   7.331
 4070POPC   C1B51967  13.659  37.368   6.287
 4070POPC   C2B51968  13.690  37.629   6.660
 4070POPC   C3B51969  13.895  37.633   7.042
 4070POPC   C4B51970  14.004  37.278   7.237
 4071POPC   NC351971  20.953  32.771   5.348
 4071POPC   PO451972  21.558  33.026   5.417
 4071POPC   GL151973  21.215  33.052   5.762
 4071POPC   GL251974  21.162  32.707   5.865
 4071POPC   C1A51975  21.271  33.084   6.253
 4071POPC   D2A51976  21.562  32.909   6.634
 4071POPC   C3A51977  21.637  33.113   7.058
 4071POPC   C4A51978  21.371  33.304   7.362
 4071POPC   C1B51979  21.282  32.564   6.297
 4071POPC   C2B51980  21.054  32.799   6.621
 4071POPC   C3B51981  21.129  33.068   6.943
 4071POPC   C4B51982  21.276  32.783   7.254
 4072POPC   NC351983  35.538   4.634   5.246
 4072POPC   PO451984  35.270   3.961   5.316
 4072POPC   GL151985  35.444   4.109   5.720
 4072POPC   GL251986  35.459   4.488   5.762
 4072POPC   C1A51987  35.394   4.151   6.179
 4072POPC   D2A51988  35.128   4.191   6.554
 4072POPC   C3A51989  35.179   3.968   6.963
 4072POPC   C4A51990  35.441   4.093   7.323
 4072POPC   C1B51991  35.159   4.637   6.119
 4072POPC   C2B51992  35.012   4.712   6.542
 4072POPC   C3B51993  35.028   4.523   6.940
 4072POPC   C4B51994  35.291   4.569   7.289
 4073POPC   NC351995  11.822  15.097   5.219
 4073POPC   PO451996  12.026  15.585   5.594
 4073POPC   GL151997  11.961  15.191   5.829
 4073POPC   GL251998  12.322  15.070   5.895
 4073POPC   C1A51999  11.919  15.043   6.274
 4073POPC   D2A52000  11.901  15.368   6.609
 4073POPC   C3A52001  11.909  15.200   7.013
 4073POPC   C4A52002  12.124  14.948   7.238
 4073POPC   C1B52003  12.266  15.414   6.210
 4073POPC   C2B52004  12.442  15.464   6.604
 4073POPC   C3B52005  12.243  15.554   6.960
 4073POPC   C4B52006  12.236  15.529   7.369
 4074POPC   NC352007  20.648   0.191   5.424
 4074POPC   PO452008  20.302   0.770   5.558
 4074POPC   GL152009  20.498   0.505   5.836
 4074POPC   GL252010  20.841   0.582   5.815
 4074POPC   C1A52011  20.548   0.539   6.271
 4074POPC   D2A52012  20.613   0.804   6.604
 4074POPC   C3A52013  20.590   0.616   6.971
 4074POPC   C4A52014  20.341   0.354   7.217
 4074POPC   C1B52015  20.920   0.224   6.120
 4074POPC   C2B52016  20.961   0.378   6.548
 4074POPC   C3B52017  20.929   0.211   6.914
 4074POPC   C4B52018  20.900   0.222   7.302
 4075POPC   NC352019  42.867  24.262   5.462
 4075POPC   PO452020  42.891  23.519   5.460
 4075POPC   GL152021  43.149  23.841   5.647
 4075POPC   GL252022  43.400  23.585   5.728
 4075POPC   C1A52023  43.105  24.057   6.054
 4075POPC   D2A52024  43.153  23.936   6.469
 4075POPC   C3A52025  42.911  23.673   6.722
 4075POPC   C4A52026  42.854  23.743   7.131
 4075POPC   C1B52027  43.270  23.517   6.176
 4075POPC   C2B52028  43.431  23.544   6.632
 4075POPC   C3B52029  43.327  23.538   7.071
 4075POPC   C4B52030  43.031  23.301   7.321
 4076POPC   NC352031  23.209  23.127   5.507
 4076POPC   PO452032  22.555  23.163   5.389
 4076POPC   GL152033  22.787  22.906   5.721
 4076POPC   GL252034  23.117  22.846   5.914
 4076POPC   C1A52035  22.715  22.978   6.165
 4076POPC   D2A52036  22.858  22.893   6.573
 4076POPC   C3A52037  22.570  22.977   6.919
 4076POPC   C4A52038  22.613  22.910   7.341
 4076POPC   C1B52039  23.354  22.753   6.283
 4076POPC   C2B52040  23.362  22.961   6.673
 4076POPC   C3B52041  23.094  22.902   7.039
 4076POPC   C4B52042  23.176  22.506   7.210
 4077POPC   NC352043  26.276  22.013   5.483
 4077POPC   PO452044  25.573  22.106   5.361
 4077POPC   GL152045  25.887  22.257   5.694
 4077POPC   GL252046  25.829  21.943   5.826
 4077POPC   C1A52047  26.178  22.216   6.113
 4077POPC   D2A52048  26.371  22.399   6.492
 4077POPC   C3A52049  26.243  22.258   6.880
 4077POPC   C4A52050  26.371  21.930   7.137
 4077POPC   C1B52051  25.721  22.028   6.250
 4077POPC   C2B52052  25.866  22.000   6.651
 4077POPC   C3B52053  25.756  22.216   7.040
 4077POPC   C4B52054  25.686  21.919   7.335
 4078POPC   NC352055  12.923  32.116   5.218
 4078POPC   PO452056  12.861  32.783   5.208
 4078POPC   GL152057  12.787  32.572   5.669
 4078POPC   GL252058  13.057  32.601   5.927
 4078POPC   C1A52059  12.660  32.336   6.099
 4078POPC   D2A52060  12.727  32.182   6.565
 4078POPC   C3A52061  12.744  32.518   6.913
 4078POPC   C4A52062  12.529  32.562   7.323
 4078POPC   C1B52063  13.192  32.259   6.211
 4078POPC   C2B52064  13.492  32.041   6.489
 4078POPC   C3B52065  13.418  31.848   6.892
 4078POPC   C4B52066  13.103  32.160   7.045
 4079POPC   NC352067  27.732   7.759   5.710
 4079POPC   PO452068  27.573   8.391   5.398
 4079POPC   GL152069  27.486   8.214   5.798
 4079POPC   GL252070  27.820   8.334   5.851
 4079POPC   C1A52071  27.646   8.095   6.245
 4079POPC   D2A52072  27.796   8.294   6.565
 4079POPC   C3A52073  27.781   8.075   6.924
 4079POPC   C4A52074  27.859   8.269   7.309
 4079POPC   C1B52075  27.473   8.578   6.145
 4079POPC   C2B52076  27.302   8.589   6.572
 4079POPC   C3B52077  27.456   8.471   6.972
 4079POPC   C4B52078  27.484   8.577   7.393
 4080POPC   NC352079  16.627   3.323   5.456
 4080POPC   PO452080  17.024   3.863   5.391
 4080POPC   GL152081  16.949   3.556   5.755
 4080POPC   GL252082  16.584   3.583   5.895
 4080POPC   C1A52083  17.022   3.566   6.192
 4080POPC   D2A52084  16.800   3.605   6.590
 4080POPC   C3A52085  17.017   3.530   7.000
 4080POPC   C4A52086  17.013   3.426   7.452
 4080POPC   C1B52087  16.600   3.268   6.254
 4080POPC   C2B52088  16.404   3.312   6.708
 4080POPC   C3B52089  16.556   3.290   7.146
 4080POPC   C4B52090  16.557   3.253   7.614
 4081POPC   NC352091  39.996  39.672   5.499
 4081POPC   PO452092  40.285  40.294   5.525
 4081POPC   GL152093  39.999  40.166   5.861
 4081POPC   GL252094  39.637  40.256   5.789
 4081POPC   C1A52095  39.901  39.956   6.273
 4081POPC   D2A52096  39.814  39.782   6.709
 4081POPC   C3A52097  40.060  39.883   7.100
 4081POPC   C4A52098  40.048  39.768   7.572
 4081POPC   C1B52099  39.726  40.456   6.198
 4081POPC   C2B52100  39.972  40.383   6.584
 4081POPC   C3B52101  39.814  40.326   7.015
 4081POPC   C4B52102  39.870  40.241   7.462
 4082POPC   NC352103  14.814   7.878   5.414
 4082POPC   PO452104  14.193   8.202   5.441
 4082POPC   GL152105  14.374   8.277   5.818
 4082POPC   GL252106  14.593   8.013   5.880
 4082POPC   C1A52107  14.243   8.187   6.225
 4082POPC   D2A52108  14.386   8.402   6.586
 4082POPC   C3A52109  14.517   8.239   6.952
 4082POPC   C4A52110  14.344   8.408   7.303
 4082POPC   C1B52111  14.735   8.051   6.342
 4082POPC   C2B52112  14.866   7.894   6.792
 4082POPC   C3B52113  14.726   7.853   7.241
 4082POPC   C4B52114  14.294   7.900   7.287
 4083POPC   NC352115  16.983  27.069   5.498
 4083POPC   PO452116  16.510  26.548   5.397
 4083POPC   GL152117  16.679  26.661   5.786
 4083POPC   GL252118  17.022  26.686   5.856
 4083POPC   C1A52119  16.652  26.848   6.194
 4083POPC   D2A52120  16.827  27.070   6.539
 4083POPC   C3A52121  16.711  26.957   6.965
 4083POPC   C4A52122  16.592  26.982   7.405
 4083POPC   C1B52123  17.141  26.700   6.287
 4083POPC   C2B52124  17.000  26.474   6.648
 4083POPC   C3B52125  17.043  26.586   7.066
 4083POPC   C4B52126  17.109  26.968   7.310
 4084POPC   NC352127  36.347  14.717   5.325
 4084POPC   PO452128  35.922  14.197   5.415
 4084POPC   GL152129  36.121  14.281   5.809
 4084POPC   GL252130  36.364  14.533   5.786
 4084POPC   C1A52131  36.422  14.156   6.148
 4084POPC   D2A52132  36.444  14.337   6.568
 4084POPC   C3A52133  36.170  14.151   6.892
 4084POPC   C4A52134  36.216  13.928   7.267
 4084POPC   C1B52135  36.470  14.681   6.168
 4084POPC   C2B52136  36.284  14.865   6.527
 4084POPC   C3B52137  36.264  14.688   6.909
 4084POPC   C4B52138  36.088  14.600   7.273
 4085POPC   NC352139  40.028  36.854   5.337
 4085POPC   PO452140  40.088  37.514   5.374
 4085POPC   GL152141  39.974  37.170   5.723
 4085POPC   GL252142  40.219  36.877   5.812
 4085POPC   C1A52143  39.809  36.907   6.092
 4085POPC   D2A52144  39.772  36.647   6.487
 4085POPC   C3A52145  39.739  36.822   6.882
 4085POPC   C4A52146  39.786  36.961   7.286
 4085POPC   C1B52147  40.338  37.006   6.258
 4085POPC   C2B52148  40.245  36.951   6.699
 4085POPC   C3B52149  40.223  36.776   7.094
 4085POPC   C4B52150  40.271  36.972   7.480
 4086POPC   NC352151   5.433  24.695   5.684
 4086POPC   PO452152   4.890  24.505   5.356
 4086POPC   GL152153   4.985  24.439   5.775
 4086POPC   GL252154   5.259  24.198   5.822
 4086POPC   C1A52155   4.994  24.737   6.133
 4086POPC   D2A52156   5.132  24.765   6.531
 4086POPC   C3A52157   5.068  24.455   6.826
 4086POPC   C4A52158   5.091  24.528   7.255
 4086POPC   C1B52159   5.274  24.321   6.266
 4086POPC   C2B52160   5.547  24.249   6.643
 4086POPC   C3B52161   5.429  24.055   7.031
 4086POPC   C4B52162   5.434  24.213   7.451
 4087POPC   NC352163  26.119  15.475   5.052
 4087POPC   PO452164  26.196  14.911   5.408
 4087POPC   GL152165  26.105  15.079   5.849
 4087POPC   GL252166  25.797  15.287   5.807
 4087POPC   C1A52167  26.077  14.870   6.305
 4087POPC   D2A52168  26.194  14.736   6.748
 4087POPC   C3A52169  26.178  15.019   7.121
 4087POPC   C4A52170  25.833  15.268   7.274
 4087POPC   C1B52171  25.919  15.342   6.245
 4087POPC   C2B52172  25.967  15.286   6.718
 4087POPC   C3B52173  25.958  15.665   6.991
 4087POPC   C4B52174  25.995  15.717   7.450
 4088POPC   NC352175  42.773  37.045   5.581
 4088POPC   PO452176  42.286  36.586   5.598
 4088POPC   GL152177  42.310  36.979   5.856
 4088POPC   GL252178  42.152  37.294   5.732
 4088POPC   C1A52179  42.508  37.065   6.265
 4088POPC   D2A52180  42.781  36.953   6.619
 4088POPC   C3A52181  42.580  36.874   7.003
 4088POPC   C4A52182  42.308  37.010   7.314
 4088POPC   C1B52183  42.147  37.446   6.160
 4088POPC   C2B52184  42.047  37.321   6.585
 4088POPC   C3B52185  41.881  37.509   6.932
 4088POPC   C4B52186  41.939  37.344   7.331
 4089POPC   NC352187  27.047   8.448   5.473
 4089POPC   PO452188  26.716   7.877   5.422
 4089POPC   GL152189  26.730   8.171   5.820
 4089POPC   GL252190  26.947   8.469   5.970
 4089POPC   C1A52191  26.630   8.209   6.268
 4089POPC   D2A52192  26.808   8.055   6.628
 4089POPC   C3A52193  26.941   8.282   6.956
 4089POPC   C4A52194  26.759   7.961   7.181
 4089POPC   C1B52195  27.147   8.176   6.257
 4089POPC   C2B52196  27.334   8.071   6.673
 4089POPC   C3B52197  27.327   7.982   7.141
 4089POPC   C4B52198  27.110   8.195   7.480
 4090POPC   NC352199  32.701  34.077   5.169
 4090POPC   PO452200  32.954  33.499   5.353
 4090POPC   GL152201  33.053  33.720   5.777
 4090POPC   GL252202  33.057  34.091   5.786
 4090POPC   C1A52203  33.176  33.762   6.227
 4090POPC   D2A52204  32.856  33.669   6.579
 4090POPC   C3A52205  32.952  33.761   7.020
 4090POPC   C4A52206  33.321  33.881   7.287
 4090POPC   C1B52207  32.932  34.191   6.242
 4090POPC   C2B52208  33.184  34.095   6.629
 4090POPC   C3B52209  33.076  34.271   7.013
 4090POPC   C4B52210  32.828  34.176   7.331
 4091POPC   NC352211   1.256  40.676   5.354
 4091POPC   PO452212   0.876  41.182   5.536
 4091POPC   GL152213   1.146  40.927   5.838
 4091POPC   GL252214   1.516  40.882   5.803
 4091POPC   C1A52215   1.189  40.660   6.234
 4091POPC   D2A52216   1.154  40.472   6.669
 4091POPC   C3A52217   1.004  40.781   6.992
 4091POPC   C4A52218   0.934  40.681   7.427
 4091POPC   C1B52219   1.595  40.966   6.235
 4091POPC   C2B52220   1.407  40.937   6.627
 4091POPC   C3B52221   1.499  40.725   6.988
 4091POPC   C4B52222   1.582  40.983   7.291
 4092POPC   NC352223   4.186  19.328   5.386
 4092POPC   PO452224   4.632  18.838   5.157
 4092POPC   GL152225   4.596  19.114   5.583
 4092POPC   GL252226   4.326  18.926   5.706
 4092POPC   C1A52227   4.595  19.220   6.074
 4092POPC   D2A52228   4.362  19.417   6.454
 4092POPC   C3A52229   4.348  19.188   6.853
 4092POPC   C4A52230   4.082  19.219   7.244
 4092POPC   C1B52231   4.045  18.773   6.013
 4092POPC   C2B52232   4.096  18.904   6.425
 4092POPC   C3B52233   3.947  18.854   6.812
 4092POPC   C4B52234   4.201  18.753   7.092
 4093POPC   NC352235  37.949   0.704   5.765
 4093POPC   PO452236  37.988   0.204   5.347
 4093POPC   GL152237  37.651   0.267   5.821
 4093POPC   GL252238  37.531   0.536   5.967
 4093POPC   C1A52239  37.696   0.347   6.375
 4093POPC   D2A52240  37.686   0.627   6.734
 4093POPC   C3A52241  37.779   0.368   7.052
 4093POPC   C4A52242  38.110   0.167   7.236
 4093POPC   C1B52243  37.260   0.620   6.266
 4093POPC   C2B52244  37.172   0.522   6.638
 4093POPC   C3B52245  37.249   0.810   6.928
 4093POPC   C4B52246  37.427   0.650   7.277
 4094POPC   NC352247   4.705  31.275   5.512
 4094POPC   PO452248   4.108  31.721   5.467
 4094POPC   GL152249   4.388  31.656   5.860
 4094POPC   GL252250   4.394  31.290   5.952
 4094POPC   C1A52251   4.306  31.601   6.342
 4094POPC   D2A52252   4.054  31.466   6.726
 4094POPC   C3A52253   4.274  31.477   7.122
 4094POPC   C4A52254   4.526  31.797   7.335
 4094POPC   C1B52255   4.081  31.132   6.300
 4094POPC   C2B52256   4.129  30.955   6.733
 4094POPC   C3B52257   3.931  31.067   7.136
 4094POPC   C4B52258   4.045  31.182   7.554
 4095POPC   NC352259  39.734  35.159   5.806
 4095POPC   PO452260  40.056  35.507   5.253
 4095POPC   GL152261  40.048  35.672   5.707
 4095POPC   GL252262  40.234  35.468   5.931
 4095POPC   C1A52263  39.782  35.713   6.122
 4095POPC   D2A52264  39.869  35.418   6.476
 4095POPC   C3A52265  39.671  35.437   6.883
 4095POPC   C4A52266  39.835  35.515   7.284
 4095POPC   C1B52267  40.425  35.325   6.330
 4095POPC   C2B52268  40.250  35.064   6.640
 4095POPC   C3B52269  40.095  35.166   7.002
 4095POPC   C4B52270  40.209  35.163   7.399
 4096POPC   NC352271  13.467  31.371   5.602
 4096POPC   PO452272  12.907  31.623   5.196
 4096POPC   GL152273  12.779  31.528   5.657
 4096POPC   GL252274  12.576  31.231   5.736
 4096POPC   C1A52275  12.737  31.682   6.119
 4096POPC   D2A52276  13.035  31.775   6.468
 4096POPC   C3A52277  12.898  31.726   6.890
 4096POPC   C4A52278  13.119  31.676   7.281
 4096POPC   C1B52279  12.877  31.177   6.065
 4096POPC   C2B52280  12.865  31.271   6.499
 4096POPC   C3B52281  12.926  31.205   6.926
 4096POPC   C4B52282  12.791  31.256   7.314
 4097POPC   NC352283   8.814   7.398   5.503
 4097POPC   PO452284   9.235   7.821   5.563
 4097POPC   GL152285   9.129   7.530   5.892
 4097POPC   GL252286   8.977   7.172   5.939
 4097POPC   C1A52287   9.282   7.431   6.288
 4097POPC   D2A52288   9.158   7.198   6.649
 4097POPC   C3A52289   9.135   7.419   7.045
 4097POPC   C4A52290   9.187   7.298   7.488
 4097POPC   C1B52291   8.763   7.313   6.323
 4097POPC   C2B52292   8.691   7.381   6.764
 4097POPC   C3B52293   8.656   7.166   7.119
 4097POPC   C4B52294   8.783   7.021   7.502
 4098POPC   NC352295  14.983  25.739   5.504
 4098POPC   PO452296  15.467  26.251   5.414
 4098POPC   GL152297  15.157  26.258   5.760
 4098POPC   GL252298  15.445  26.379   5.929
 4098POPC   C1A52299  14.984  25.990   6.126
 4098POPC   D2A52300  15.147  25.781   6.532
 4098POPC   C3A52301  15.116  26.022   6.936
 4098POPC   C4A52302  14.862  26.046   7.323
 4098POPC   C1B52303  15.413  26.163   6.333
 4098POPC   C2B52304  15.611  26.206   6.730
 4098POPC   C3B52305  15.583  26.092   7.150
 4098POPC   C4B52306  15.619  26.240   7.632
 4099POPC   NC352307  34.921   7.032   5.618
 4099POPC   PO452308  35.006   7.631   5.524
 4099POPC   GL152309  35.254   7.385   5.819
 4099POPC   GL252310  35.513   7.138   5.678
 4099POPC   C1A52311  35.166   7.273   6.243
 4099POPC   D2A52312  35.087   7.495   6.621
 4099POPC   C3A52313  35.065   7.303   7.007
 4099POPC   C4A52314  35.310   7.468   7.324
 4099POPC   C1B52315  35.678   7.161   6.095
 4099POPC   C2B52316  35.593   7.249   6.524
 4099POPC   C3B52317  35.557   7.173   6.948
 4099POPC   C4B52318  35.798   7.367   7.250
 4100POPC   NC352319  25.137  12.329   5.408
 4100POPC   PO452320  25.366  11.699   5.475
 4100POPC   GL152321  25.305  11.997   5.800
 4100POPC   GL252322  24.984  12.104   5.847
 4100POPC   C1A52323  25.218  11.885   6.237
 4100POPC   D2A52324  25.492  11.907   6.570
 4100POPC   C3A52325  25.285  11.791   6.949
 4100POPC   C4A52326  25.387  12.034   7.308
 4100POPC   C1B52327  24.948  12.334   6.233
 4100POPC   C2B52328  25.094  12.221   6.645
 4100POPC   C3B52329  24.910  12.139   7.043
 4100POPC   C4B52330  24.868  12.265   7.470
 4101POPC   NC352331   8.399  39.481   5.518
 4101POPC   PO452332   8.083  39.077   5.125
 4101POPC   GL152333   8.129  39.055   5.635
 4101POPC   GL252334   7.987  39.337   5.830
 4101POPC   C1A52335   8.323  39.028   6.076
 4101POPC   D2A52336   8.375  39.320   6.393
 4101POPC   C3A52337   8.380  39.181   6.812
 4101POPC   C4A52338   8.252  39.439   7.151
 4101POPC   C1B52339   7.765  39.326   6.223
 4101POPC   C2B52340   7.924  39.436   6.631
 4101POPC   C3B52341   7.879  39.152   6.946
 4101POPC   C4B52342   7.776  38.870   7.265
 4102POPC   NC352343   7.454  39.776   5.375
 4102POPC   PO452344   7.093  40.269   5.636
 4102POPC   GL152345   7.366  40.031   5.818
 4102POPC   GL252346   7.126  39.798   5.836
 4102POPC   C1A52347   7.513  39.861   6.203
 4102POPC   D2A52348   7.654  39.956   6.611
 4102POPC   C3A52349   7.473  40.338   6.809
 4102POPC   C4A52350   7.425  40.267   7.236
 4102POPC   C1B52351   6.880  39.809   6.171
 4102POPC   C2B52352   6.967  39.781   6.556
 4102POPC   C3B52353   7.170  39.940   6.891
 4102POPC   C4B52354   6.959  39.903   7.279
 4103POPC   NC352355   9.559  15.346   5.238
 4103POPC   PO452356   9.841  14.844   5.619
 4103POPC   GL152357   9.774  15.231   5.853
 4103POPC   GL252358  10.065  15.405   5.963
 4103POPC   C1A52359   9.565  15.247   6.273
 4103POPC   D2A52360   9.402  14.946   6.621
 4103POPC   C3A52361   9.596  15.063   7.032
 4103POPC   C4A52362   9.736  15.500   7.141
 4103POPC   C1B52363  10.051  15.021   6.241
 4103POPC   C2B52364   9.922  15.063   6.638
 4103POPC   C3B52365  10.113  15.192   6.993
 4103POPC   C4B52366  10.233  14.991   7.335
 4104POPC   NC352367  11.681  40.389   5.503
 4104POPC   PO452368  11.458  40.904   5.235
 4104POPC   GL152369  11.547  40.870   5.706
 4104POPC   GL252370  11.499  41.158   5.902
 4104POPC   C1A52371  11.570  40.712   6.148
 4104POPC   D2A52372  11.397  40.399   6.469
 4104POPC   C3A52373  11.154  40.534   6.843
 4104POPC   C4A52374  11.252  40.724   7.216
 4104POPC   C1B52375  11.230  41.067   6.323
 4104POPC   C2B52376  11.189  41.053   6.806
 4104POPC   C3B52377  11.153  41.252   7.243
 4104POPC   C4B52378  10.910  41.216   7.623
 4105POPC   NC352379  40.486  38.343   5.539
 4105POPC   PO452380  40.944  37.864   5.404
 4105POPC   GL152381  40.868  37.698   5.802
 4105POPC   GL252382  40.557  37.883   5.845
 4105POPC   C1A52383  40.936  37.829   6.227
 4105POPC   D2A52384  40.789  37.723   6.611
 4105POPC   C3A52385  40.958  37.830   6.998
 4105POPC   C4A52386  41.155  37.612   7.324
 4105POPC   C1B52387  40.411  37.732   6.235
 4105POPC   C2B52388  40.321  37.489   6.616
 4105POPC   C3B52389  40.493  37.651   7.019
 4105POPC   C4B52390  40.558  38.096   7.159
 4106POPC   NC352391  44.542  30.873   5.438
 4106POPC   PO452392  44.328  30.301   5.572
 4106POPC   GL152393  44.645  30.560   5.818
 4106POPC   GL252394  44.953  30.778   5.769
 4106POPC   C1A52395  44.627  30.758   6.201
 4106POPC   D2A52396  44.562  30.802   6.612
 4106POPC   C3A52397  44.630  30.541   6.945
 4106POPC   C4A52398  44.311  30.742   7.203
 4106POPC   C1B52399   0.035  31.059   6.169
 4106POPC   C2B52400  44.850  31.248   6.566
 4106POPC   C3B52401  44.588  31.188   6.940
 4106POPC   C4B52402  44.779  30.930   7.231
 4107POPC   NC352403  37.233  13.407   5.424
 4107POPC   PO452404  36.649  13.588   5.557
 4107POPC   GL152405  36.922  13.518   5.916
 4107POPC   GL252406  37.254  13.690   5.886
 4107POPC   C1A52407  36.756  13.507   6.347
 4107POPC   D2A52408  36.500  13.818   6.576
 4107POPC   C3A52409  36.642  13.844   7.007
 4107POPC   C4A52410  36.620  13.595   7.396
 4107POPC   C1B52411  37.306  13.589   6.329
 4107POPC   C2B52412  37.115  13.252   6.604
 4107POPC   C3B52413  36.978  13.281   7.017
 4107POPC   C4B52414  37.112  13.639   7.176
 4108POPC   NC352415   5.979  32.238   5.577
 4108POPC   PO452416   5.445  32.540   5.562
 4108POPC   GL152417   5.616  32.291   5.932
 4108POPC   GL252418   5.657  31.899   5.889
 4108POPC   C1A52419   5.905  32.423   6.281
 4108POPC   D2A52420   5.990  32.620   6.695
 4108POPC   C3A52421   5.695  32.516   7.048
 4108POPC   C4A52422   5.837  32.335   7.463
 4108POPC   C1B52423   6.038  31.940   6.167
 4108POPC   C2B52424   6.095  32.021   6.626
 4108POPC   C3B52425   5.893  32.030   7.045
 4108POPC   C4B52426   5.464  32.078   7.247
 4109POPC   NC352427  24.108   6.626   5.450
 4109POPC   PO452428  24.709   6.931   5.383
 4109POPC   GL152429  24.497   6.774   5.739
 4109POPC   GL252430  24.421   6.402   5.784
 4109POPC   C1A52431  24.445   6.750   6.168
 4109POPC   D2A52432  24.718   6.525   6.408
 4109POPC   C3A52433  24.722   6.573   6.857
 4109POPC   C4A52434  24.580   6.612   7.291
 4109POPC   C1B52435  24.269   6.241   6.177
 4109POPC   C2B52436  24.234   6.427   6.574
 4109POPC   C3B52437  24.154   6.483   6.994
 4109POPC   C4B52438  24.243   6.255   7.368
 4110POPC   NC352439  18.717  28.139   5.618
 4110POPC   PO452440  18.067  28.564   5.425
 4110POPC   GL152441  18.019  28.427   5.862
 4110POPC   GL252442  18.354  28.450   5.826
 4110POPC   C1A52443  17.925  28.367   6.326
 4110POPC   D2A52444  18.069  28.223   6.730
 4110POPC   C3A52445  17.981  28.309   7.149
 4110POPC   C4A52446  18.050  28.577   7.500
 4110POPC   C1B52447  18.431  28.393   6.258
 4110POPC   C2B52448  18.574  28.319   6.673
 4110POPC   C3B52449  18.458  28.467   7.068
 4110POPC   C4B52450  18.421  28.261   7.467
 4111POPC   NC352451   4.292  37.924   5.381
 4111POPC   PO452452   3.841  37.476   5.156
 4111POPC   GL152453   4.064  37.556   5.644
 4111POPC   GL252454   4.453  37.526   5.707
 4111POPC   C1A52455   4.138  37.786   6.065
 4111POPC   D2A52456   4.196  37.806   6.511
 4111POPC   C3A52457   4.390  38.100   6.792
 4111POPC   C4A52458   4.334  37.954   7.210
 4111POPC   C1B52459   4.663  37.301   6.079
 4111POPC   C2B52460   4.685  37.319   6.546
 4111POPC   C3B52461   4.448  37.494   6.900
 4111POPC   C4B52462   4.592  37.521   7.323
 4112POPC   NC352463   8.395   2.530   5.417
 4112POPC   PO452464   7.782   3.003   5.449
 4112POPC   GL152465   8.015   2.704   5.736
 4112POPC   GL252466   8.386   2.722   5.857
 4112POPC   C1A52467   8.030   2.593   6.180
 4112POPC   D2A52468   8.108   2.773   6.566
 4112POPC   C3A52469   8.014   2.552   6.940
 4112POPC   C4A52470   7.932   2.607   7.377
 4112POPC   C1B52471   8.529   2.844   6.206
 4112POPC   C2B52472   8.596   2.636   6.547
 4112POPC   C3B52473   8.480   2.743   6.911
 4112POPC   C4B52474   8.423   2.701   7.311
 4113POPC   NC352475   2.221  31.965   5.453
 4113POPC   PO452476   2.393  32.547   5.183
 4113POPC   GL152477   2.095  32.450   5.623
 4113POPC   GL252478   2.233  32.309   5.916
 4113POPC   C1A52479   1.786  32.451   6.043
 4113POPC   D2A52480   1.950  32.255   6.451
 4113POPC   C3A52481   1.760  32.218   6.870
 4113POPC   C4A52482   1.520  32.274   7.255
 4113POPC   C1B52483   2.100  31.914   6.106
 4113POPC   C2B52484   2.056  31.756   6.526
 4113POPC   C3B52485   2.161  31.847   6.953
 4113POPC   C4B52486   1.958  32.011   7.296
 4114POPC   NC352487   2.156  12.448   5.426
 4114POPC   PO452488   1.791  11.927   5.208
 4114POPC   GL152489   1.867  11.912   5.719
 4114POPC   GL252490   2.020  12.222   5.859
 4114POPC   C1A52491   2.029  11.848   6.181
 4114POPC   D2A52492   2.019  12.154   6.551
 4114POPC   C3A52493   2.018  11.989   6.968
 4114POPC   C4A52494   2.023  11.787   7.363
 4114POPC   C1B52495   1.654  12.187   6.153
 4114POPC   C2B52496   1.490  12.332   6.554
 4114POPC   C3B52497   1.714  12.426   6.939
 4114POPC   C4B52498   2.068  12.457   7.186
 4115POPC   NC352499  21.212  16.493   5.422
 4115POPC   PO452500  21.865  16.809   5.320
 4115POPC   GL152501  21.636  16.633   5.727
 4115POPC   GL252502  21.308  16.773   5.824
 4115POPC   C1A52503  21.565  16.546   6.204
 4115POPC   D2A52504  21.579  16.769   6.640
 4115POPC   C3A52505  21.599  16.582   7.092
 4115POPC   C4A52506  21.639  16.596   7.635
 4115POPC   C1B52507  21.386  17.028   6.184
 4115POPC   C2B52508  21.179  17.076   6.584
 4115POPC   C3B52509  21.249  17.014   6.988
 4115POPC   C4B52510  21.291  16.871   7.390
 4116POPC   NC352511  13.329   9.706   5.465
 4116POPC   PO452512  12.749   9.886   5.610
 4116POPC   GL152513  12.777   9.660   5.980
 4116POPC   GL252514  13.098   9.598   5.897
 4116POPC   C1A52515  12.535   9.397   6.291
 4116POPC   D2A52516  12.641   9.492   6.725
 4116POPC   C3A52517  12.684   9.957   6.761
 4116POPC   C4A52518  12.687  10.042   7.190
 4116POPC   C1B52519  13.258   9.814   6.246
 4116POPC   C2B52520  13.120   9.735   6.698
 4116POPC   C3B52521  13.086   9.577   7.127
 4116POPC   C4B52522  13.348   9.541   7.534
 4117POPC   NC352523  15.487  27.429   5.432
 4117POPC   PO452524  14.884  27.646   5.170
 4117POPC   GL152525  14.909  27.649   5.680
 4117POPC   GL252526  15.146  27.865   5.820
 4117POPC   C1A52527  14.831  27.554   6.159
 4117POPC   D2A52528  14.855  27.368   6.598
 4117POPC   C3A52529  15.005  27.569   6.976
 4117POPC   C4A52530  15.025  27.368   7.367
 4117POPC   C1B52531  15.345  27.664   6.186
 4117POPC   C2B52532  15.387  27.474   6.604
 4117POPC   C3B52533  15.454  27.303   7.008
 4117POPC   C4B52534  15.465  27.574   7.314
 4118POPC   NC352535  42.438  44.911   5.474
 4118POPC   PO452536  41.926   0.263   5.336
 4118POPC   GL152537  42.182   0.288   5.733
 4118POPC   GL252538  42.199   0.637   5.804
 4118POPC   C1A52539  42.301   0.116   6.162
 4118POPC   D2A52540  42.460   0.425   6.455
 4118POPC   C3A52541  42.502   0.296   6.870
 4118POPC   C4A52542  42.385   0.377   7.272
 4118POPC   C1B52543  42.227   0.808   6.236
 4118POPC   C2B52544  42.072   0.785   6.680
 4118POPC   C3B52545  42.122   0.808   7.143
 4118POPC   C4B52546  41.980   0.601   7.534
 4119POPC   NC352547  19.924   3.101   5.499
 4119POPC   PO452548  19.753   2.375   5.425
 4119POPC   GL152549  19.761   2.665   5.798
 4119POPC   GL252550  19.598   2.966   5.871
 4119POPC   C1A52551  19.695   2.562   6.241
 4119POPC   D2A52552  19.882   2.311   6.559
 4119POPC   C3A52553  19.842   2.507   6.947
 4119POPC   C4A52554  19.788   2.701   7.361
 4119POPC   C1B52555  19.919   3.053   6.172
 4119POPC   C2B52556  19.900   2.932   6.586
 4119POPC   C3B52557  20.013   2.993   7.002
 4119POPC   C4B52558  20.325   3.188   7.225
 4120POPC   NC352559  31.944  11.874   5.430
 4120POPC   PO452560  32.514  12.351   5.386
 4120POPC   GL152561  32.266  12.385   5.745
 4120POPC   GL252562  32.122  12.065   5.853
 4120POPC   C1A52563  32.317  12.385   6.187
 4120POPC   D2A52564  32.287  12.137   6.533
 4120POPC   C3A52565  32.338  12.352   6.914
 4120POPC   C4A52566  32.053  12.417   7.253
 4120POPC   C1B52567  32.132  11.775   6.183
 4120POPC   C2B52568  31.955  11.738   6.581
 4120POPC   C3B52569  31.916  12.099   6.867
 4120POPC   C4B52570  32.069  11.904   7.204
 4121POPC   NC352571  41.142  32.512   5.733
 4121POPC   PO452572  41.445  32.947   5.339
 4121POPC   GL152573  41.655  32.918   5.744
 4121POPC   GL252574  41.648  32.560   5.802
 4121POPC   C1A52575  41.690  33.162   6.167
 4121POPC   D2A52576  41.719  33.034   6.616
 4121POPC   C3A52577  41.508  33.225   6.954
 4121POPC   C4A52578  41.571  33.146   7.368
 4121POPC   C1B52579  41.669  32.636   6.266
 4121POPC   C2B52580  41.308  32.644   6.574
 4121POPC   C3B52581  41.392  32.721   7.017
 4121POPC   C4B52582  41.359  32.688   7.447
 4122POPC   NC352583  18.205   4.520   5.047
 4122POPC   PO452584  18.310   4.655   5.668
 4122POPC   GL152585  18.248   4.329   5.904
 4122POPC   GL252586  18.003   4.053   5.768
 4122POPC   C1A52587  18.246   4.544   6.318
 4122POPC   D2A52588  18.486   4.461   6.662
 4122POPC   C3A52589  18.210   4.445   6.991
 4122POPC   C4A52590  18.420   4.152   7.204
 4122POPC   C1B52591  18.097   3.963   6.212
 4122POPC   C2B52592  18.090   4.132   6.572
 4122POPC   C3B52593  18.088   3.930   6.888
 4122POPC   C4B52594  18.053   3.789   7.244
 4123POPC   NC352595  18.576  23.414   5.430
 4123POPC   PO452596  18.066  22.850   5.442
 4123POPC   GL152597  18.199  22.799   5.836
 4123POPC   GL252598  18.130  22.484   5.915
 4123POPC   C1A52599  18.497  22.935   6.114
 4123POPC   D2A52600  18.574  23.208   6.461
 4123POPC   C3A52601  18.389  23.100   6.841
 4123POPC   C4A52602  18.298  23.193   7.248
 4123POPC   C1B52603  18.118  22.657   6.342
 4123POPC   C2B52604  18.182  22.582   6.774
 4123POPC   C3B52605  18.445  22.678   7.125
 4123POPC   C4B52606  18.291  22.729   7.525
 4124POPC   NC352607  30.511   8.814   5.310
 4124POPC   PO452608  31.003   8.567   5.642
 4124POPC   GL152609  30.690   8.885   5.796
 4124POPC   GL252610  30.869   9.195   5.823
 4124POPC   C1A52611  30.404   8.825   6.158
 4124POPC   D2A52612  30.661   8.667   6.504
 4124POPC   C3A52613  30.563   8.736   6.939
 4124POPC   C4A52614  30.807   8.816   7.293
 4124POPC   C1B52615  30.758   9.178   6.256
 4124POPC   C2B52616  30.528   9.175   6.625
 4124POPC   C3B52617  30.630   9.256   7.046
 4124POPC   C4B52618  30.439   9.557   7.306
 4125POPC   NC352619  30.292   1.768   5.403
 4125POPC   PO452620  29.927   2.292   5.422
 4125POPC   GL152621  29.969   2.156   5.807
 4125POPC   GL252622  29.881   1.828   5.802
 4125POPC   C1A52623  29.909   2.235   6.230
 4125POPC   D2A52624  29.813   1.937   6.541
 4125POPC   C3A52625  29.964   2.123   6.874
 4125POPC   C4A52626  29.961   2.154   7.268
 4125POPC   C1B52627  30.176   1.798   6.175
 4125POPC   C2B52628  30.265   1.647   6.609
 4125POPC   C3B52629  30.129   1.657   7.006
 4125POPC   C4B52630  29.750   1.700   7.203
 4126POPC   NC352631   1.450  14.325   5.406
 4126POPC   PO452632   0.822  14.014   5.588
 4126POPC   GL152633   1.173  14.237   5.831
 4126POPC   GL252634   1.487  14.066   5.873
 4126POPC   C1A52635   1.291  14.433   6.243
 4126POPC   D2A52636   1.028  14.412   6.609
 4126POPC   C3A52637   1.119  14.649   6.977
 4126POPC   C4A52638   1.059  14.434   7.362
 4126POPC   C1B52639   1.721  14.149   6.262
 4126POPC   C2B52640   1.722  14.269   6.709
 4126POPC   C3B52641   1.752  14.278   7.144
 4126POPC   C4B52642   1.545  14.611   7.317
 4127POPC   NC352643  42.224  20.220   5.415
 4127POPC   PO452644  42.055  19.545   5.581
 4127POPC   GL152645  42.330  19.847   5.766
 4127POPC   GL252646  42.680  19.894   5.674
 4127POPC   C1A52647  42.227  19.993   6.157
 4127POPC   D2A52648  42.054  19.885   6.592
 4127POPC   C3A52649  42.254  19.897   7.010
 4127POPC   C4A52650  42.406  19.984   7.434
 4127POPC   C1B52651  42.748  19.707   6.073
 4127POPC   C2B52652  42.572  19.808   6.469
 4127POPC   C3B52653  42.693  19.735   6.838
 4127POPC   C4B52654  42.743  19.658   7.233
 4128POPC   NC352655  36.508  39.984   5.467
 4128POPC   PO452656  36.972  40.410   5.546
 4128POPC   GL152657  36.955  40.021   5.817
 4128POPC   GL252658  36.663  39.818   5.915
 4128POPC   C1A52659  37.070  39.888   6.217
 4128POPC   D2A52660  36.772  39.846   6.543
 4128POPC   C3A52661  36.989  39.855   6.894
 4128POPC   C4A52662  36.950  39.914   7.285
 4128POPC   C1B52663  36.408  40.031   6.224
 4128POPC   C2B52664  36.371  40.243   6.616
 4128POPC   C3B52665  36.601  40.201   7.005
 4128POPC   C4B52666  36.654  40.301   7.453
 4129POPC   NC352667  27.691   1.545   5.358
 4129POPC   PO452668  27.766   0.905   5.476
 4129POPC   GL152669  27.861   1.054   5.864
 4129POPC   GL252670  27.753   1.405   5.877
 4129POPC   C1A52671  27.721   1.097   6.293
 4129POPC   D2A52672  27.754   1.487   6.506
 4129POPC   C3A52673  27.668   1.477   6.927
 4129POPC   C4A52674  27.925   1.192   7.105
 4129POPC   C1B52675  27.371   1.464   6.152
 4129POPC   C2B52676  27.270   1.627   6.603
 4129POPC   C3B52677  27.142   1.542   7.073
 4129POPC   C4B52678  27.262   1.382   7.524
 4130POPC   NC352679   0.920  22.020   5.083
 4130POPC   PO452680   1.120  22.423   5.485
 4130POPC   GL152681   1.245  22.360   5.906
 4130POPC   GL252682   1.585  22.370   5.890
 4130POPC   C1A52683   1.102  22.444   6.334
 4130POPC   D2A52684   1.165  22.163   6.700
 4130POPC   C3A52685   1.277  22.350   7.087
 4130POPC   C4A52686   1.226  22.220   7.522
 4130POPC   C1B52687   1.521  22.123   6.307
 4130POPC   C2B52688   1.685  22.058   6.761
 4130POPC   C3B52689   1.560  21.957   7.225
 4130POPC   C4B52690   1.447  21.790   7.657
 4131POPC   NC352691  22.204  36.579   5.495
 4131POPC   PO452692  21.882  35.971   5.460
 4131POPC   GL152693  22.151  35.999   5.855
 4131POPC   GL252694  22.200  36.345   5.929
 4131POPC   C1A52695  22.038  36.040   6.298
 4131POPC   D2A52696  21.855  36.069   6.683
 4131POPC   C3A52697  22.174  36.079   6.987
 4131POPC   C4A52698  22.000  36.031   7.355
 4131POPC   C1B52699  22.478  36.347   6.276
 4131POPC   C2B52700  22.622  36.189   6.682
 4131POPC   C3B52701  22.584  36.384   7.083
 4131POPC   C4B52702  22.493  36.210   7.500
 4132POPC   NC352703   9.131  44.019   5.457
 4132POPC   PO452704   8.801  43.435   5.251
 4132POPC   GL152705   8.868  43.573   5.690
 4132POPC   GL252706   8.714  43.897   5.760
 4132POPC   C1A52707   8.950  43.644   6.146
 4132POPC   D2A52708   8.793  43.601   6.577
 4132POPC   C3A52709   9.018  43.716   6.962
 4132POPC   C4A52710   9.427  43.614   7.092
 4132POPC   C1B52711   8.762  44.128   6.160
 4132POPC   C2B52712   8.584  44.088   6.579
 4132POPC   C3B52713   8.692  44.101   7.006
 4132POPC   C4B52714   9.039  44.136   7.290
 4133POPC   NC352715   3.404  37.477   5.272
 4133POPC   PO452716   3.773  37.963   5.554
 4133POPC   GL152717   3.521  37.629   5.794
 4133POPC   GL252718   3.599  37.285   5.918
 4133POPC   C1A52719   3.491  37.621   6.278
 4133POPC   D2A52720   3.477  37.809   6.683
 4133POPC   C3A52721   3.425  37.532   7.033
 4133POPC   C4A52722   3.313  37.725   7.447
 4133POPC   C1B52723   3.921  37.337   6.216
 4133POPC   C2B52724   3.846  37.441   6.641
 4133POPC   C3B52725   3.957  37.674   6.956
 4133POPC   C4B52726   3.836  37.827   7.310
 4134POPC   NC352727  36.743  15.464   5.117
 4134POPC   PO452728  36.988  16.020   5.244
 4134POPC   GL152729  37.059  16.051   5.728
 4134POPC   GL252730  37.216  16.327   5.829
 4134POPC   C1A52731  36.840  15.940   6.153
 4134POPC   D2A52732  36.814  16.119   6.597
 4134POPC   C3A52733  36.547  15.857   6.888
 4134POPC   C4A52734  36.698  15.501   7.112
 4134POPC   C1B52735  37.164  16.308   6.238
 4134POPC   C2B52736  37.287  16.375   6.638
 4134POPC   C3B52737  37.045  16.362   6.990
 4134POPC   C4B52738  37.022  15.913   7.105
 4135POPC   NC352739  29.620  31.749   5.371
 4135POPC   PO452740  30.189  31.542   5.659
 4135POPC   GL152741  29.791  31.374   5.802
 4135POPC   GL252742  29.799  31.005   5.785
 4135POPC   C1A52743  29.726  31.415   6.247
 4135POPC   D2A52744  30.047  31.398   6.610
 4135POPC   C3A52745  29.812  31.527   6.984
 4135POPC   C4A52746  29.519  31.303   7.252
 4135POPC   C1B52747  29.896  30.937   6.245
 4135POPC   C2B52748  29.712  30.943   6.685
 4135POPC   C3B52749  29.934  31.051   7.079
 4135POPC   C4B52750  30.065  31.348   7.409
 4136POPC   NC352751  42.125  41.701   5.362
 4136POPC   PO452752  42.759  41.492   5.356
 4136POPC   GL152753  42.450  41.413   5.724
 4136POPC   GL252754  42.170  41.607   5.847
 4136POPC   C1A52755  42.563  41.285   6.157
 4136POPC   D2A52756  42.768  41.402   6.570
 4136POPC   C3A52757  42.485  41.567   6.912
 4136POPC   C4A52758  42.344  41.381   7.315
 4136POPC   C1B52759  42.282  41.739   6.250
 4136POPC   C2B52760  42.047  41.651   6.603
 4136POPC   C3B52761  41.974  41.631   7.010
 4136POPC   C4B52762  42.062  41.813   7.394
 4137POPC   NC352763  17.991  38.227   5.198
 4137POPC   PO452764  18.490  38.587   5.359
 4137POPC   GL152765  18.432  38.492   5.804
 4137POPC   GL252766  18.493  38.137   5.872
 4137POPC   C1A52767  18.273  38.501   6.258
 4137POPC   D2A52768  18.122  38.357   6.681
 4137POPC   C3A52769  18.283  38.572   7.041
 4137POPC   C4A52770  18.363  38.545   7.502
 4137POPC   C1B52771  18.567  38.076   6.325
 4137POPC   C2B52772  18.560  38.120   6.774
 4137POPC   C3B52773  18.325  38.070   7.128
 4137POPC   C4B52774  17.965  38.277   7.330
 4138POPC   NC352775   0.628   8.705   5.520
 4138POPC   PO452776   0.204   9.336   5.446
 4138POPC   GL152777   0.486   9.143   5.772
 4138POPC   GL252778   0.304   8.866   5.929
 4138POPC   C1A52779   0.723   8.987   6.164
 4138POPC   D2A52780   0.483   8.886   6.580
 4138POPC   C3A52781   0.700   9.070   6.935
 4138POPC   C4A52782   0.742   8.988   7.366
 4138POPC   C1B52783   0.275   9.208   6.228
 4138POPC   C2B52784   0.107   9.362   6.574
 4138POPC   C3B52785   0.207   9.374   6.983
 4138POPC   C4B52786   0.283   8.975   7.183
 4139POPC   NC352787  42.793  29.698   5.603
 4139POPC   PO452788  43.372  30.008   5.560
 4139POPC   GL152789  43.210  29.846   5.904
 4139POPC   GL252790  43.075  29.541   5.997
 4139POPC   C1A52791  43.360  29.909   6.313
 4139POPC   D2A52792  43.362  30.223   6.635
 4139POPC   C3A52793  43.107  30.158   6.975
 4139POPC   C4A52794  43.294  30.020   7.309
 4139POPC   C1B52795  42.845  29.854   6.239
 4139POPC   C2B52796  42.962  29.846   6.616
 4139POPC   C3B52797  42.977  29.650   6.950
 4139POPC   C4B52798  42.841  29.806   7.273
 4140POPC   NC352799  27.992  31.530   5.384
 4140POPC   PO452800  28.068  30.872   5.310
 4140POPC   GL152801  28.103  31.165   5.711
 4140POPC   GL252802  28.435  31.374   5.754
 4140POPC   C1A52803  28.071  31.458   6.097
 4140POPC   D2A52804  28.274  31.289   6.452
 4140POPC   C3A52805  28.195  31.411   6.859
 4140POPC   C4A52806  28.200  31.585   7.241
 4140POPC   C1B52807  28.623  31.565   6.159
 4140POPC   C2B52808  28.552  31.685   6.602
 4140POPC   C3B52809  28.687  31.539   6.988
 4140POPC   C4B52810  28.668  31.483   7.417
 4141POPC   NC352811  27.939  24.769   5.372
 4141POPC   PO452812  27.226  24.811   5.416
 4141POPC   GL152813  27.330  24.528   5.738
 4141POPC   GL252814  27.631  24.497   5.711
 4141POPC   C1A52815  27.309  24.663   6.152
 4141POPC   D2A52816  27.529  24.545   6.549
 4141POPC   C3A52817  27.324  24.402   6.925
 4141POPC   C4A52818  27.077  24.668   7.181
 4141POPC   C1B52819  27.820  24.622   6.076
 4141POPC   C2B52820  28.020  24.462   6.448
 4141POPC   C3B52821  27.971  24.718   6.818
 4141POPC   C4B52822  27.892  24.802   7.237
 4142POPC   NC352823  28.978  14.251   5.491
 4142POPC   PO452824  29.488  14.686   5.437
 4142POPC   GL152825  29.281  14.590   5.766
 4142POPC   GL252826  29.373  14.264   5.836
 4142POPC   C1A52827  29.240  14.702   6.172
 4142POPC   D2A52828  29.006  14.664   6.511
 4142POPC   C3A52829  29.173  14.696   6.896
 4142POPC   C4A52830  29.108  14.520   7.278
 4142POPC   C1B52831  29.105  14.190   6.171
 4142POPC   C2B52832  29.288  14.213   6.569
 4142POPC   C3B52833  29.090  14.137   6.937
 4142POPC   C4B52834  29.159  13.997   7.352
 4143POPC   NC352835  38.122  42.534   5.166
 4143POPC   PO452836  37.746  42.094   5.543
 4143POPC   GL152837  37.444  42.185   5.787
 4143POPC   GL252838  37.465  42.510   5.803
 4143POPC   C1A52839  37.630  42.236   6.204
 4143POPC   D2A52840  37.888  42.493   6.440
 4143POPC   C3A52841  37.888  42.442   6.881
 4143POPC   C4A52842  37.713  42.602   7.285
 4143POPC   C1B52843  37.185  42.453   6.172
 4143POPC   C2B52844  37.258  42.241   6.568
 4143POPC   C3B52845  37.403  42.273   6.980
 4143POPC   C4B52846  37.170  42.561   7.187
 4144POPC   NC352847  32.389  29.739   5.446
 4144POPC   PO452848  31.781  29.731   5.114
 4144POPC   GL152849  31.895  30.014   5.553
 4144POPC   GL252850  32.209  30.202   5.642
 4144POPC   C1A52851  32.039  29.940   6.027
 4144POPC   D2A52852  32.316  29.874   6.381
 4144POPC   C3A52853  32.067  29.778   6.738
 4144POPC   C4A52854  32.137  29.871   7.161
 4144POPC   C1B52855  32.463  30.285   6.033
 4144POPC   C2B52856  32.456  30.371   6.479
 4144POPC   C3B52857  32.402  30.164   6.836
 4144POPC   C4B52858  32.543  30.178   7.232
 4145POPC   NC352859  11.551  20.386   5.422
 4145POPC   PO452860  11.214  21.028   5.374
 4145POPC   GL152861  11.264  20.904   5.820
 4145POPC   GL252862  11.348  20.526   5.865
 4145POPC   C1A52863  11.258  20.798   6.276
 4145POPC   D2A52864  11.562  20.821   6.612
 4145POPC   C3A52865  11.335  20.821   6.941
 4145POPC   C4A52866  11.478  20.829   7.353
 4145POPC   C1B52867  11.464  20.128   6.098
 4145POPC   C2B52868  11.421  20.029   6.535
 4145POPC   C3B52869  11.336  20.307   6.889
 4145POPC   C4B52870  11.407  20.215   7.328
 4146POPC   NC352871   0.626  41.446   5.254
 4146POPC   PO452872   0.607  42.001   5.426
 4146POPC   GL152873   0.395  41.766   5.763
 4146POPC   GL252874   0.549  41.438   5.866
 4146POPC   C1A52875   0.374  41.793   6.202
 4146POPC   D2A52876   0.696  41.615   6.459
 4146POPC   C3A52877   0.606  41.627   6.888
 4146POPC   C4A52878   0.741  41.440   7.252
 4146POPC   C1B52879   0.366  41.238   6.267
 4146POPC   C2B52880   0.464  41.160   6.727
 4146POPC   C3B52881   0.231  41.357   7.081
 4146POPC   C4B52882  44.940  41.207   7.352
 4147POPC   NC352883  15.462  36.061   5.504
 4147POPC   PO452884  14.931  36.404   5.301
 4147POPC   GL152885  14.844  36.088   5.722
 4147POPC   GL252886  14.999  35.728   5.777
 4147POPC   C1A52887  14.813  35.936   6.211
 4147POPC   D2A52888  14.727  35.935   6.695
 4147POPC   C3A52889  15.057  36.087   7.003
 4147POPC   C4A52890  15.354  36.185   7.385
 4147POPC   C1B52891  15.328  35.797   6.133
 4147POPC   C2B52892  15.371  35.804   6.605
 4147POPC   C3B52893  15.497  35.798   7.060
 4147POPC   C4B52894  15.586  35.757   7.547
 4148POPC   NC352895  27.276  29.728   5.062
 4148POPC   PO452896  26.716  29.824   5.475
 4148POPC   GL152897  26.784  29.939   5.902
 4148POPC   GL252898  27.022  30.244   5.811
 4148POPC   C1A52899  26.642  29.607   6.194
 4148POPC   D2A52900  26.549  29.424   6.597
 4148POPC   C3A52901  26.786  29.691   6.837
 4148POPC   C4A52902  26.866  29.874   7.238
 4148POPC   C1B52903  26.949  30.324   6.228
 4148POPC   C2B52904  26.944  30.173   6.630
 4148POPC   C3B52905  27.136  30.235   6.985
 4148POPC   C4B52906  26.831  30.385   7.229
 4149POPC   NC352907   9.961   2.216   5.525
 4149POPC   PO452908   9.475   1.794   5.259
 4149POPC   GL152909   9.579   1.782   5.725
 4149POPC   GL252910   9.934   1.751   5.796
 4149POPC   C1A52911   9.617   1.974   6.171
 4149POPC   D2A52912   9.880   2.100   6.555
 4149POPC   C3A52913   9.791   2.279   6.964
 4149POPC   C4A52914   9.499   2.110   7.272
 4149POPC   C1B52915  10.138   1.814   6.211
 4149POPC   C2B52916  10.188   1.698   6.682
 4149POPC   C3B52917   9.861   1.774   7.040
 4149POPC   C4B52918   9.848   1.797   7.511
 4150POPC   NC352919   4.438  28.671   5.545
 4150POPC   PO452920   3.840  28.336   5.347
 4150POPC   GL152921   4.110  28.349   5.785
 4150POPC   GL252922   4.425  28.221   5.850
 4150POPC   C1A52923   4.273  28.572   6.193
 4150POPC   D2A52924   4.212  28.391   6.611
 4150POPC   C3A52925   4.189  28.691   6.937
 4150POPC   C4A52926   4.229  28.762   7.364
 4150POPC   C1B52927   4.674  28.249   6.235
 4150POPC   C2B52928   4.707  28.535   6.604
 4150POPC   C3B52929   4.623  28.390   7.020
 4150POPC   C4B52930   4.754  28.000   7.213
 4151POPC   NC352931  36.528  31.635   5.045
 4151POPC   PO452932  36.120  31.303   5.474
 4151POPC   GL152933  36.160  31.385   5.863
 4151POPC   GL252934  36.513  31.373   5.844
 4151POPC   C1A52935  36.159  31.153   6.246
 4151POPC   D2A52936  36.167  31.376   6.644
 4151POPC   C3A52937  35.909  31.183   6.945
 4151POPC   C4A52938  35.649  31.251   7.263
 4151POPC   C1B52939  36.477  31.542   6.246
 4151POPC   C2B52940  36.670  31.592   6.621
 4151POPC   C3B52941  36.470  31.596   6.993
 4151POPC   C4B52942  36.201  31.461   7.278
 4152POPC   NC352943  21.367  40.423   5.407
 4152POPC   PO452944  21.082  41.005   5.515
 4152POPC   GL152945  21.241  40.686   5.837
 4152POPC   GL252946  21.605  40.728   5.811
 4152POPC   C1A52947  21.417  40.576   6.259
 4152POPC   D2A52948  21.669  40.834   6.538
 4152POPC   C3A52949  21.747  40.679   6.946
 4152POPC   C4A52950  21.488  40.511   7.224
 4152POPC   C1B52951  21.461  41.085   6.106
 4152POPC   C2B52952  21.374  41.312   6.499
 4152POPC   C3B52953  21.481  41.155   6.893
 4152POPC   C4B52954  21.396  41.010   7.261
 4153POPC   NC352955  19.944  34.144   5.653
 4153POPC   PO452956  19.548  33.538   5.540
 4153POPC   GL152957  19.858  33.658   5.799
 4153POPC   GL252958  19.613  33.879   5.970
 4153POPC   C1A52959  20.020  33.708   6.198
 4153POPC   D2A52960  19.796  33.609   6.579
 4153POPC   C3A52961  19.949  33.676   6.984
 4153POPC   C4A52962  20.199  33.745   7.334
 4153POPC   C1B52963  19.696  34.081   6.389
 4153POPC   C2B52964  19.463  33.971   6.780
 4153POPC   C3B52965  19.303  33.745   7.172
 4153POPC   C4B52966  19.349  33.907   7.615
 4154POPC   NC352967  18.910  29.725   5.267
 4154POPC   PO452968  19.401  30.120   5.318
 4154POPC   GL152969  19.230  30.107   5.745
 4154POPC   GL252970  19.050  29.798   5.789
 4154POPC   C1A52971  19.057  30.198   6.195
 4154POPC   D2A52972  18.910  29.953   6.579
 4154POPC   C3A52973  18.991  30.131   7.022
 4154POPC   C4A52974  19.063  30.063   7.472
 4154POPC   C1B52975  19.403  29.828   6.116
 4154POPC   C2B52976  19.419  29.940   6.552
 4154POPC   C3B52977  19.411  29.770   6.978
 4154POPC   C4B52978  19.756  29.555   7.176
 4155POPC   NC352979  37.011  18.165   5.281
 4155POPC   PO452980  37.183  18.748   5.561
 4155POPC   GL152981  36.952  18.391   5.763
 4155POPC   GL252982  36.624  18.178   5.684
 4155POPC   C1A52983  36.903  18.219   6.170
 4155POPC   D2A52984  37.045  18.000   6.525
 4155POPC   C3A52985  36.883  18.110   6.930
 4155POPC   C4A52986  37.022  18.177   7.354
 4155POPC   C1B52987  36.410  18.134   6.096
 4155POPC   C2B52988  36.476  18.133   6.537
 4155POPC   C3B52989  36.368  18.081   6.971
 4155POPC   C4B52990  36.528  18.248   7.355
 4156POPC   NC352991  22.923  10.996   5.360
 4156POPC   PO452992  22.809  11.651   5.522
 4156POPC   GL152993  22.822  11.268   5.813
 4156POPC   GL252994  23.101  11.019   5.858
 4156POPC   C1A52995  22.678  11.086   6.210
 4156POPC   D2A52996  22.818  11.247   6.609
 4156POPC   C3A52997  22.773  11.068   6.985
 4156POPC   C4A52998  22.631  11.166   7.362
 4156POPC   C1B52999  23.194  11.224   6.249
 4156POPC   C2B53000  23.310  11.375   6.661
 4156POPC   C3B53001  23.255  11.272   7.084
 4156POPC   C4B53002  23.014  11.489   7.406
 4157POPC   NC353003   0.734  24.560   5.336
 4157POPC   PO453004   0.163  24.217   5.329
 4157POPC   GL153005   0.403  24.411   5.696
 4157POPC   GL253006   0.737  24.221   5.743
 4157POPC   C1A53007   0.342  24.517   6.138
 4157POPC   D2A53008   0.288  24.354   6.559
 4157POPC   C3A53009   0.225  24.656   6.831
 4157POPC   C4A53010   0.219  24.494   7.221
 4157POPC   C1B53011   0.868  24.485   6.115
 4157POPC   C2B53012   0.715  24.625   6.540
 4157POPC   C3B53013   0.670  24.420   6.954
 4157POPC   C4B53014   0.764  24.521   7.389
 4158POPC   NC353015  16.473  25.410   4.901
 4158POPC   PO453016  16.444  24.819   5.293
 4158POPC   GL153017  16.533  25.111   5.699
 4158POPC   GL253018  16.849  25.339   5.688
 4158POPC   C1A53019  16.660  25.163   6.151
 4158POPC   D2A53020  16.408  25.199   6.543
 4158POPC   C3A53021  16.675  25.092   6.884
 4158POPC   C4A53022  16.735  25.300   7.243
 4158POPC   C1B53023  17.149  25.448   6.056
 4158POPC   C2B53024  17.281  25.402   6.484
 4158POPC   C3B53025  17.123  25.356   6.891
 4158POPC   C4B53026  17.173  25.021   7.202
 4159POPC   NC353027  34.518  12.399   5.531
 4159POPC   PO453028  34.444  13.058   5.453
 4159POPC   GL153029  34.680  12.906   5.791
 4159POPC   GL253030  34.693  13.256   5.923
 4159POPC   C1A53031  34.846  12.846   6.223
 4159POPC   D2A53032  34.595  12.845   6.637
 4159POPC   C3A53033  34.757  12.897   7.061
 4159POPC   C4A53034  34.916  12.524   7.233
 4159POPC   C1B53035  34.549  13.264   6.352
 4159POPC   C2B53036  34.591  13.346   6.822
 4159POPC   C3B53037  34.366  13.237   7.213
 4159POPC   C4B53038  34.425  13.214   7.694
 4160POPC   NC353039  28.570   3.570   5.288
 4160POPC   PO453040  27.963   3.453   5.319
 4160POPC   GL153041  28.250   3.476   5.731
 4160POPC   GL253042  28.640   3.369   5.778
 4160POPC   C1A53043  28.366   3.424   6.201
 4160POPC   D2A53044  28.582   3.506   6.576
 4160POPC   C3A53045  28.516   3.285   6.945
 4160POPC   C4A53046  28.324   3.494   7.254
 4160POPC   C1B53047  28.827   3.668   6.151
 4160POPC   C2B53048  28.899   3.902   6.590
 4160POPC   C3B53049  28.740   3.752   7.025
 4160POPC   C4B53050  28.677   3.763   7.514
 4161POPC   NC353051  33.690  35.288   5.442
 4161POPC   PO453052  34.158  35.645   5.524
 4161POPC   GL153053  34.023  35.374   5.849
 4161POPC   GL253054  33.702  35.245   5.935
 4161POPC   C1A53055  33.990  35.550   6.273
 4161POPC   D2A53056  33.684  35.659   6.617
 4161POPC   C3A53057  33.854  35.543   7.001
 4161POPC   C4A53058  33.914  35.727   7.416
 4161POPC   C1B53059  33.603  35.224   6.339
 4161POPC   C2B53060  33.627  35.064   6.712
 4161POPC   C3B53061  33.409  35.281   7.002
 4161POPC   C4B53062  33.503  35.430   7.395
 4162POPC   NC353063  23.627  28.655   5.445
 4162POPC   PO453064  23.820  28.071   5.222
 4162POPC   GL153065  23.678  28.204   5.699
 4162POPC   GL253066  23.871  28.514   5.870
 4162POPC   C1A53067  23.774  28.165   6.187
 4162POPC   D2A53068  23.937  28.337   6.574
 4162POPC   C3A53069  23.744  28.092   6.885
 4162POPC   C4A53070  23.536  28.253   7.234
 4162POPC   C1B53071  24.084  28.698   6.234
 4162POPC   C2B53072  24.064  28.911   6.617
 4162POPC   C3B53073  24.072  28.648   6.954
 4162POPC   C4B53074  24.205  28.679   7.366
 4163POPC   NC353075  33.015  20.944   5.364
 4163POPC   PO453076  33.406  20.395   5.426
 4163POPC   GL153077  33.030  20.468   5.712
 4163POPC   GL253078  32.892  20.805   5.851
 4163POPC   C1A53079  33.034  20.405   6.163
 4163POPC   D2A53080  33.099  20.648   6.517
 4163POPC   C3A53081  32.998  20.501   6.924
 4163POPC   C4A53082  33.223  20.622   7.234
 4163POPC   C1B53083  32.654  20.760   6.234
 4163POPC   C2B53084  32.653  20.785   6.706
 4163POPC   C3B53085  32.692  20.904   7.140
 4163POPC   C4B53086  32.416  20.825   7.532
 4164POPC   NC353087  34.189  40.834   5.045
 4164POPC   PO453088  33.677  40.680   5.380
 4164POPC   GL153089  33.911  40.562   5.740
 4164POPC   GL253090  33.669  40.422   5.985
 4164POPC   C1A53091  33.946  40.837   6.107
 4164POPC   D2A53092  33.727  40.728   6.471
 4164POPC   C3A53093  33.684  40.844   6.924
 4164POPC   C4A53094  33.304  40.996   7.148
 4164POPC   C1B53095  34.048  40.348   6.204
 4164POPC   C2B53096  34.070  40.380   6.638
 4164POPC   C3B53097  34.131  40.575   7.011
 4164POPC   C4B53098  33.946  40.486   7.374
 4165POPC   NC353099  22.759   7.992   5.486
 4165POPC   PO453100  23.143   8.551   5.510
 4165POPC   GL153101  23.015   8.282   5.854
 4165POPC   GL253102  22.689   8.417   5.920
 4165POPC   C1A53103  22.946   8.272   6.314
 4165POPC   D2A53104  22.671   8.265   6.636
 4165POPC   C3A53105  22.861   7.934   6.808
 4165POPC   C4A53106  23.000   7.805   7.209
 4165POPC   C1B53107  22.923   8.762   6.158
 4165POPC   C2B53108  22.949   8.741   6.594
 4165POPC   C3B53109  23.118   8.445   6.846
 4165POPC   C4B53110  22.912   8.297   7.160
 4166POPC   NC353111   7.530  20.915   5.531
 4166POPC   PO453112   7.284  20.338   5.395
 4166POPC   GL153113   7.475  20.496   5.792
 4166POPC   GL253114   7.468  20.262   5.968
 4166POPC   C1A53115   7.480  20.781   6.189
 4166POPC   D2A53116   7.657  20.758   6.618
 4166POPC   C3A53117   7.465  20.859   7.013
 4166POPC   C4A53118   7.472  20.838   7.469
 4166POPC   C1B53119   7.443  20.298   6.407
 4166POPC   C2B53120   7.344  20.405   6.798
 4166POPC   C3B53121   7.341  20.338   7.224
 4166POPC   C4B53122   7.654  20.012   7.343
 4167POPC   NC353123   3.421  25.380   5.476
 4167POPC   PO453124   4.055  25.051   5.420
 4167POPC   GL153125   3.762  25.158   5.803
 4167POPC   GL253126   3.771  25.511   5.862
 4167POPC   C1A53127   3.404  25.279   6.148
 4167POPC   D2A53128   3.121  25.159   6.504
 4167POPC   C3A53129   3.178  25.351   6.901
 4167POPC   C4A53130   3.273  25.174   7.268
 4167POPC   C1B53131   3.878  25.381   6.288
 4167POPC   C2B53132   3.663  25.518   6.673
 4167POPC   C3B53133   3.670  25.482   7.127
 4167POPC   C4B53134   3.746  25.213   7.464
 4168POPC   NC353135  44.910  26.991   5.583
 4168POPC   PO453136  44.770  26.376   5.219
 4168POPC   GL153137  44.718  26.524   5.680
 4168POPC   GL253138  44.474  26.761   5.829
 4168POPC   C1A53139  44.771  26.507   6.166
 4168POPC   D2A53140  44.722  26.641   6.588
 4168POPC   C3A53141  44.480  26.719   6.958
 4168POPC   C4A53142  44.610  26.741   7.386
 4168POPC   C1B53143  44.653  26.999   6.208
 4168POPC   C2B53144  44.855  27.133   6.625
 4168POPC   C3B53145  44.736  27.142   7.081
 4168POPC   C4B53146  44.798  27.152   7.586
 4169POPC   NC353147  23.094  37.290   5.413
 4169POPC   PO453148  22.913  37.932   5.334
 4169POPC   GL153149  23.010  37.710   5.722
 4169POPC   GL253150  23.383  37.652   5.693
 4169POPC   C1A53151  22.872  37.694   6.176
 4169POPC   D2A53152  22.736  37.366   6.515
 4169POPC   C3A53153  22.853  37.399   6.964
 4169POPC   C4A53154  22.966  37.821   7.077
 4169POPC   C1B53155  23.360  37.663   6.143
 4169POPC   C2B53156  23.188  37.627   6.575
 4169POPC   C3B53157  23.372  37.490   6.939
 4169POPC   C4B53158  23.259  37.530   7.365
 4170POPC   NC353159   6.596  27.911   5.536
 4170POPC   PO453160   6.660  27.190   5.441
 4170POPC   GL153161   6.615  27.454   5.783
 4170POPC   GL253162   6.940  27.366   5.850
 4170POPC   C1A53163   6.408  27.676   6.147
 4170POPC   D2A53164   6.569  27.795   6.565
 4170POPC   C3A53165   6.622  27.526   6.968
 4170POPC   C4A53166   6.613  27.517   7.442
 4170POPC   C1B53167   6.902  27.582   6.220
 4170POPC   C2B53168   7.026  27.476   6.630
 4170POPC   C3B53169   7.187  27.315   7.016
 4170POPC   C4B53170   7.016  27.162   7.414
 4171POPC   NC353171  18.415  36.600   5.551
 4171POPC   PO453172  18.059  37.111   5.461
 4171POPC   GL153173  18.101  37.126   5.874
 4171POPC   GL253174  18.369  36.891   5.950
 4171POPC   C1A53175  18.081  37.063   6.317
 4171POPC   D2A53176  18.217  36.746   6.578
 4171POPC   C3A53177  18.143  37.002   6.922
 4171POPC   C4A53178  18.245  37.203   7.299
 4171POPC   C1B53179  18.590  36.601   6.217
 4171POPC   C2B53180  18.746  36.703   6.632
 4171POPC   C3B53181  18.482  36.627   7.003
 4171POPC   C4B53182  18.159  36.666   7.303
 4172POPC   NC353183  34.770   8.698   5.277
 4172POPC   PO453184  34.332   9.148   5.585
 4172POPC   GL153185  34.564   9.049   5.924
 4172POPC   GL253186  34.722   8.756   5.855
 4172POPC   C1A53187  34.908   9.206   6.201
 4172POPC   D2A53188  35.098   9.103   6.555
 4172POPC   C3A53189  34.814   9.053   6.836
 4172POPC   C4A53190  34.557   8.926   7.151
 4172POPC   C1B53191  34.679   8.768   6.331
 4172POPC   C2B53192  34.921   8.575   6.645
 4172POPC   C3B53193  34.933   8.618   7.081
 4172POPC   C4B53194  34.760   8.619   7.531
 4173POPC   NC353195   8.546   0.957   5.425
 4173POPC   PO453196   7.804   1.300   5.460
 4173POPC   GL153197   7.992   1.310   5.844
 4173POPC   GL253198   8.283   1.129   5.836
 4173POPC   C1A53199   7.907   1.549   6.203
 4173POPC   D2A53200   8.090   1.554   6.606
 4173POPC   C3A53201   8.024   1.264   6.897
 4173POPC   C4A53202   7.974   1.348   7.303
 4173POPC   C1B53203   8.391   1.345   6.236
 4173POPC   C2B53204   8.556   1.349   6.667
 4173POPC   C3B53205   8.491   1.246   7.086
 4173POPC   C4B53206   8.269   0.893   7.235
 4174POPC   NC353207  35.246  28.586   5.290
 4174POPC   PO453208  35.160  28.031   5.611
 4174POPC   GL153209  35.158  28.418   5.788
 4174POPC   GL253210  35.453  28.611   5.748
 4174POPC   C1A53211  35.247  28.417   6.212
 4174POPC   D2A53212  34.969  28.355   6.534
 4174POPC   C3A53213  35.082  28.642   6.802
 4174POPC   C4A53214  35.120  28.363   7.133
 4174POPC   C1B53215  35.590  28.797   6.127
 4174POPC   C2B53216  35.699  28.584   6.499
 4174POPC   C3B53217  35.577  28.510   6.918
 4174POPC   C4B53218  35.476  28.764   7.271
 4175POPC   NC353219  29.430  19.230   5.401
 4175POPC   PO453220  28.944  18.781   5.486
 4175POPC   GL153221  29.098  19.089   5.826
 4175POPC   GL253222  29.407  19.331   5.885
 4175POPC   C1A53223  29.284  18.919   6.211
 4175POPC   D2A53224  29.155  18.624   6.536
 4175POPC   C3A53225  29.209  18.775   6.940
 4175POPC   C4A53226  28.959  19.081   7.150
 4175POPC   C1B53227  29.354  19.411   6.300
 4175POPC   C2B53228  29.207  19.197   6.647
 4175POPC   C3B53229  29.322  19.401   7.002
 4175POPC   C4B53230  28.993  19.591   7.182
 4176POPC   NC353231   0.746  21.431   5.465
 4176POPC   PO453232   0.065  21.505   5.426
 4176POPC   GL153233   0.325  21.547   5.783
 4176POPC   GL253234   0.431  21.193   5.781
 4176POPC   C1A53235   0.323  21.714   6.246
 4176POPC   D2A53236   0.172  21.608   6.677
 4176POPC   C3A53237   0.454  21.479   7.022
 4176POPC   C4A53238   0.340  21.210   7.405
 4176POPC   C1B53239   0.621  21.322   6.130
 4176POPC   C2B53240   0.557  21.255   6.550
 4176POPC   C3B53241   0.759  21.073   6.890
 4176POPC   C4B53242   0.858  21.278   7.262
 4177POPC   NC353243  36.164  32.527   5.316
 4177POPC   PO453244  36.622  32.068   5.157
 4177POPC   GL153245  36.347  32.241   5.674
 4177POPC   GL253246  36.159  31.923   5.820
 4177POPC   C1A53247  36.067  32.336   6.088
 4177POPC   D2A53248  36.048  32.422   6.543
 4177POPC   C3A53249  35.911  32.198   6.930
 4177POPC   C4A53250  35.843  32.257   7.389
 4177POPC   C1B53251  36.455  32.040   6.169
 4177POPC   C2B53252  36.375  32.005   6.569
 4177POPC   C3B53253  36.469  32.106   6.949
 4177POPC   C4B53254  36.249  31.973   7.276
 4178POPC   NC353255  42.680  34.428   5.408
 4178POPC   PO453256  43.332  34.271   5.411
 4178POPC   GL153257  43.282  34.568   5.758
 4178POPC   GL253258  42.972  34.409   5.806
 4178POPC   C1A53259  43.062  34.733   6.158
 4178POPC   D2A53260  43.227  34.603   6.501
 4178POPC   C3A53261  43.216  34.644   6.954
 4178POPC   C4A53262  43.575  34.540   7.188
 4178POPC   C1B53263  43.107  34.215   6.171
 4178POPC   C2B53264  42.923  34.062   6.545
 4178POPC   C3B53265  42.948  34.137   6.980
 4178POPC   C4B53266  42.941  34.398   7.342
 4179POPC   NC353267  16.685  15.005   5.152
 4179POPC   PO453268  16.726  15.591   5.490
 4179POPC   GL153269  17.007  15.359   5.808
 4179POPC   GL253270  17.085  15.027   5.624
 4179POPC   C1A53271  16.884  15.297   6.256
 4179POPC   D2A53272  16.494  15.133   6.453
 4179POPC   C3A53273  16.564  15.005   6.876
 4179POPC   C4A53274  16.583  15.244   7.246
 4179POPC   C1B53275  17.077  14.840   6.054
 4179POPC   C2B53276  16.931  14.816   6.492
 4179POPC   C3B53277  17.112  14.786   6.894
 4179POPC   C4B53278  16.954  14.878   7.274
 4180POPC   NC353279  43.323  36.416   5.306
 4180POPC   PO453280  42.960  35.859   5.466
 4180POPC   GL153281  43.229  36.188   5.748
 4180POPC   GL253282  42.976  36.445   5.763
 4180POPC   C1A53283  43.431  36.305   6.194
 4180POPC   D2A53284  43.423  36.050   6.626
 4180POPC   C3A53285  43.198  36.192   7.033
 4180POPC   C4A53286  43.007  36.063   7.446
 4180POPC   C1B53287  42.939  36.158   6.162
 4180POPC   C2B53288  42.809  36.035   6.577
 4180POPC   C3B53289  42.640  36.332   6.855
 4180POPC   C4B53290  42.743  36.440   7.222
 4181POPC   NC353291   3.813  12.372   5.694
 4181POPC   PO453292   3.779  12.876   5.272
 4181POPC   GL153293   3.755  12.901   5.738
 4181POPC   GL253294   3.487  12.727   5.835
 4181POPC   C1A53295   3.623  13.001   6.234
 4181POPC   D2A53296   3.631  12.808   6.658
 4181POPC   C3A53297   3.683  12.906   7.123
 4181POPC   C4A53298   3.959  12.657   7.402
 4181POPC   C1B53299   3.424  12.506   6.228
 4181POPC   C2B53300   3.235  12.411   6.603
 4181POPC   C3B53301   3.267  12.614   6.962
 4181POPC   C4B53302   3.204  12.766   7.334
 4182POPC   NC353303  39.425  18.534   5.354
 4182POPC   PO453304  39.076  17.982   5.520
 4182POPC   GL153305  39.088  18.294   5.793
 4182POPC   GL253306  39.424  18.224   5.857
 4182POPC   C1A53307  38.979  18.161   6.224
 4182POPC   D2A53308  39.111  18.272   6.637
 4182POPC   C3A53309  38.946  18.018   7.001
 4182POPC   C4A53310  38.887  17.989   7.463
 4182POPC   C1B53311  39.507  18.170   6.290
 4182POPC   C2B53312  39.622  18.318   6.684
 4182POPC   C3B53313  39.356  18.426   7.045
 4182POPC   C4B53314  39.320  18.207   7.379
 4183POPC   NC353315  34.606  17.377   5.504
 4183POPC   PO453316  34.519  17.956   5.190
 4183POPC   GL153317  34.639  17.820   5.726
 4183POPC   GL253318  34.283  17.575   5.828
 4183POPC   C1A53319  34.622  17.633   6.186
 4183POPC   D2A53320  34.419  17.506   6.574
 4183POPC   C3A53321  34.405  17.725   6.936
 4183POPC   C4A53322  34.769  17.735   7.127
 4183POPC   C1B53323  34.226  17.263   6.184
 4183POPC   C2B53324  34.067  17.158   6.643
 4183POPC   C3B53325  34.238  17.230   7.097
 4183POPC   C4B53326  34.206  17.153   7.588
 4184POPC   NC353327  33.746   2.296   5.473
 4184POPC   PO453328  34.098   1.699   5.531
 4184POPC   GL153329  33.819   1.873   5.856
 4184POPC   GL253330  33.913   2.224   5.956
 4184POPC   C1A53331  33.787   1.904   6.324
 4184POPC   D2A53332  33.507   1.738   6.647
 4184POPC   C3A53333  33.666   1.880   7.043
 4184POPC   C4A53334  34.059   1.793   7.222
 4184POPC   C1B53335  34.167   2.293   6.330
 4184POPC   C2B53336  34.190   2.087   6.759
 4184POPC   C3B53337  34.367   2.215   7.144
 4184POPC   C4B53338  34.060   2.459   7.324
 4185POPC   NC353339  23.380   1.674   5.602
 4185POPC   PO453340  23.978   1.722   5.280
 4185POPC   GL153341  23.966   1.947   5.715
 4185POPC   GL253342  23.733   1.758   5.964
 4185POPC   C1A53343  23.903   2.185   6.127
 4185POPC   D2A53344  23.554   2.097   6.440
 4185POPC   C3A53345  23.723   2.076   6.855
 4185POPC   C4A53346  23.503   2.121   7.233
 4185POPC   C1B53347  23.921   1.742   6.385
 4185POPC   C2B53348  23.744   1.571   6.737
 4185POPC   C3B53349  23.688   1.627   7.144
 4185POPC   C4B53350  23.552   1.701   7.553
 4186POPC   NC353351  40.647  39.988   5.500
 4186POPC   PO453352  41.280  39.780   5.671
 4186POPC   GL153353  41.023  40.124   5.913
 4186POPC   GL253354  40.642  40.288   5.919
 4186POPC   C1A53355  40.868  40.155   6.350
 4186POPC   D2A53356  40.658  40.461   6.623
 4186POPC   C3A53357  40.599  40.251   7.012
 4186POPC   C4A53358  40.956  39.998   7.162
 4186POPC   C1B53359  40.420  39.918   6.128
 4186POPC   C2B53360  40.324  39.749   6.545
 4186POPC   C3B53361  40.541  39.710   6.964
 4186POPC   C4B53362  40.495  39.876   7.370
 4187POPC   NC353363  31.041  19.142   5.514
 4187POPC   PO453364  30.500  19.439   5.457
 4187POPC   GL153365  30.582  19.208   5.831
 4187POPC   GL253366  30.641  18.848   5.726
 4187POPC   C1A53367  30.803  19.121   6.226
 4187POPC   D2A53368  31.044  18.865   6.532
 4187POPC   C3A53369  30.856  19.032   6.894
 4187POPC   C4A53370  30.826  19.360   7.146
 4187POPC   C1B53371  30.519  18.702   6.139
 4187POPC   C2B53372  30.535  18.767   6.577
 4187POPC   C3B53373  30.542  18.646   7.020
 4187POPC   C4B53374  30.352  18.719   7.409
 4188POPC   NC353375  19.588  20.694   5.194
 4188POPC   PO453376  20.048  20.262   5.477
 4188POPC   GL153377  19.700  20.451   5.714
 4188POPC   GL253378  19.909  20.735   5.663
 4188POPC   C1A53379  19.483  20.393   6.146
 4188POPC   D2A53380  19.657  20.326   6.582
 4188POPC   C3A53381  19.436  20.343   6.976
 4188POPC   C4A53382  19.566  20.597   7.317
 4188POPC   C1B53383  19.956  20.653   6.129
 4188POPC   C2B53384  20.011  20.696   6.581
 4188POPC   C3B53385  19.965  20.774   7.023
 4188POPC   C4B53386  20.056  20.603   7.443
 4189POPC   NC353387  43.730  25.730   5.179
 4189POPC   PO453388  44.141  25.420   5.582
 4189POPC   GL153389  43.808  25.347   5.828
 4189POPC   GL253390  43.494  25.531   5.669
 4189POPC   C1A53391  43.872  25.266   6.297
 4189POPC   D2A53392  43.964  24.970   6.636
 4189POPC   C3A53393  43.816  25.127   7.017
 4189POPC   C4A53394  43.988  25.360   7.349
 4189POPC   C1B53395  43.445  25.543   6.127
 4189POPC   C2B53396  43.364  25.349   6.542
 4189POPC   C3B53397  43.457  25.541   6.952
 4189POPC   C4B53398  43.487  25.370   7.339
 4190POPC   NC353399  33.721  14.738   5.417
 4190POPC   PO453400  34.037  15.367   5.430
 4190POPC   GL153401  34.028  15.136   5.826
 4190POPC   GL253402  33.699  14.969   5.866
 4190POPC   C1A53403  34.007  15.101   6.271
 4190POPC   D2A53404  33.742  15.097   6.601
 4190POPC   C3A53405  33.915  15.290   6.952
 4190POPC   C4A53406  33.893  15.166   7.328
 4190POPC   C1B53407  33.979  14.643   6.032
 4190POPC   C2B53408  34.046  14.587   6.488
 4190POPC   C3B53409  34.096  14.794   6.908
 4190POPC   C4B53410  34.326  14.937   7.287
 4191POPC   NC353411  11.074  10.752   5.465
 4191POPC   PO453412  11.680  11.098   5.461
 4191POPC   GL153413  11.512  10.703   5.778
 4191POPC   GL253414  11.253  10.403   5.795
 4191POPC   C1A53415  11.478  10.536   6.237
 4191POPC   D2A53416  11.227  10.698   6.598
 4191POPC   C3A53417  11.358  10.526   7.028
 4191POPC   C4A53418  11.455  10.617   7.473
 4191POPC   C1B53419  10.974  10.576   6.131
 4191POPC   C2B53420  10.819  10.396   6.513
 4191POPC   C3B53421  10.851  10.515   6.931
 4191POPC   C4B53422  10.946  10.400   7.341
 4192POPC   NC353423  28.340   6.909   5.508
 4192POPC   PO453424  27.999   7.489   5.445
 4192POPC   GL153425  28.059   7.301   5.848
 4192POPC   GL253426  28.417   7.367   5.874
 4192POPC   C1A53427  28.093   7.553   6.254
 4192POPC   D2A53428  28.125   7.870   6.595
 4192POPC   C3A53429  28.192   7.597   6.959
 4192POPC   C4A53430  28.295   7.580   7.422
 4192POPC   C1B53431  28.533   7.251   6.318
 4192POPC   C2B53432  28.380   7.131   6.752
 4192POPC   C3B53433  28.569   7.287   7.119
 4192POPC   C4B53434  28.709   7.738   7.149
 4193POPC   NC353435  38.176   2.915   5.225
 4193POPC   PO453436  38.821   2.927   5.410
 4193POPC   GL153437  38.527   2.885   5.754
 4193POPC   GL253438  38.348   3.198   5.710
 4193POPC   C1A53439  38.621   2.717   6.180
 4193POPC   D2A53440  38.936   2.749   6.500
 4193POPC   C3A53441  38.803   2.780   6.905
 4193POPC   C4A53442  38.485   2.653   7.148
 4193POPC   C1B53443  38.360   3.180   6.165
 4193POPC   C2B53444  38.417   2.992   6.600
 4193POPC   C3B53445  38.509   3.170   7.040
 4193POPC   C4B53446  38.627   3.045   7.448
 4194POPC   NC353447  31.459  20.251   5.314
 4194POPC   PO453448  31.228  19.541   5.350
 4194POPC   GL153449  31.375  19.759   5.730
 4194POPC   GL253450  31.283  20.102   5.780
 4194POPC   C1A53451  31.658  19.808   6.101
 4194POPC   D2A53452  31.671  19.975   6.519
 4194POPC   C3A53453  31.627  19.708   6.859
 4194POPC   C4A53454  31.742  19.847   7.250
 4194POPC   C1B53455  31.178  19.968   6.216
 4194POPC   C2B53456  31.163  19.911   6.676
 4194POPC   C3B53457  31.341  20.110   7.042
 4194POPC   C4B53458  31.301  20.096   7.522
 4195POPC   NC353459  39.994  33.437   5.410
 4195POPC   PO453460  40.282  32.812   5.439
 4195POPC   GL153461  40.031  32.968   5.785
 4195POPC   GL253462  39.950  33.319   5.902
 4195POPC   C1A53463  39.909  32.902   6.200
 4195POPC   D2A53464  39.879  33.127   6.574
 4195POPC   C3A53465  39.934  32.893   6.951
 4195POPC   C4A53466  40.005  32.992   7.387
 4195POPC   C1B53467  40.177  33.523   6.196
 4195POPC   C2B53468  40.333  33.595   6.589
 4195POPC   C3B53469  40.155  33.392   6.968
 4195POPC   C4B53470  40.284  33.404   7.419
 4196POPC   NC353471  17.468  10.266   5.414
 4196POPC   PO453472  17.234  10.901   5.336
 4196POPC   GL153473  17.404  10.813   5.821
 4196POPC   GL253474  17.512  10.461   5.893
 4196POPC   C1A53475  17.652  10.815   6.240
 4196POPC   D2A53476  17.488  10.656   6.672
 4196POPC   C3A53477  17.726  10.710   7.070
 4196POPC   C4A53478  17.625  10.745   7.504
 4196POPC   C1B53479  17.405  10.284   6.301
 4196POPC   C2B53480  17.588  10.114   6.656
 4196POPC   C3B53481  17.600  10.199   7.070
 4196POPC   C4B53482  17.980  10.267   7.251
 4197POPC   NC353483  42.109  17.791   5.095
 4197POPC   PO453484  42.423  17.196   5.243
 4197POPC   GL153485  42.317  17.494   5.706
 4197POPC   GL253486  42.062  17.539   5.919
 4197POPC   C1A53487  42.457  17.786   6.125
 4197POPC   D2A53488  42.773  17.833   6.514
 4197POPC   C3A53489  42.575  17.842   6.948
 4197POPC   C4A53490  42.328  17.570   7.238
 4197POPC   C1B53491  42.251  17.350   6.291
 4197POPC   C2B53492  42.259  17.427   6.735
 4197POPC   C3B53493  42.010  17.223   7.083
 4197POPC   C4B53494  41.955  17.304   7.567
 4198POPC   NC353495   2.451  31.047   5.129
 4198POPC   PO453496   2.770  30.545   5.468
 4198POPC   GL153497   2.820  30.663   5.854
 4198POPC   GL253498   2.944  30.982   5.873
 4198POPC   C1A53499   2.909  30.674   6.284
 4198POPC   D2A53500   3.103  30.901   6.568
 4198POPC   C3A53501   2.966  30.751   6.924
 4198POPC   C4A53502   2.626  30.648   7.168
 4198POPC   C1B53503   2.643  31.082   6.221
 4198POPC   C2B53504   2.559  30.910   6.610
 4198POPC   C3B53505   2.580  31.098   6.994
 4198POPC   C4B53506   2.452  31.093   7.413
 4199POPC   NC353507   6.469   1.301   5.392
 4199POPC   PO453508   6.672   0.795   5.082
 4199POPC   GL153509   6.740   0.948   5.636
 4199POPC   GL253510   6.804   1.270   5.781
 4199POPC   C1A53511   6.561   1.023   6.149
 4199POPC   D2A53512   6.616   0.970   6.624
 4199POPC   C3A53513   6.403   1.044   7.092
 4199POPC   C4A53514   6.364   1.256   7.542
 4199POPC   C1B53515   6.975   1.559   6.077
 4199POPC   C2B53516   7.065   1.517   6.520
 4199POPC   C3B53517   6.730   1.421   6.814
 4199POPC   C4B53518   6.736   1.430   7.228
 4200POPC   NC353519  43.522  16.340   5.413
 4200POPC   PO453520  43.119  15.845   5.614
 4200POPC   GL153521  43.098  16.085   5.925
 4200POPC   GL253522  43.279  16.386   5.835
 4200POPC   C1A53523  42.882  15.962   6.270
 4200POPC   D2A53524  42.820  16.094   6.646
 4200POPC   C3A53525  43.077  15.896   6.921
 4200POPC   C4A53526  43.015  15.903   7.338
 4200POPC   C1B53527  43.515  16.275   6.150
 4200POPC   C2B53528  43.324  16.124   6.498
 4200POPC   C3B53529  43.426  16.254   6.870
 4200POPC   C4B53530  43.473  16.117   7.241
 4201POPC   NC353531   1.208  33.410   5.193
 4201POPC   PO453532   0.856  33.045   5.618
 4201POPC   GL153533   1.196  33.126   5.837
 4201POPC   GL253534   1.295  33.451   5.749
 4201POPC   C1A53535   1.209  33.161   6.263
 4201POPC   D2A53536   1.240  32.957   6.645
 4201POPC   C3A53537   1.068  33.078   7.037
 4201POPC   C4A53538   1.273  33.241   7.424
 4201POPC   C1B53539   1.552  33.534   6.134
 4201POPC   C2B53540   1.529  33.430   6.572
 4201POPC   C3B53541   1.563  33.227   6.938
 4201POPC   C4B53542   1.701  33.486   7.228
 4202POPC   NC353543   2.227  24.106   5.106
 4202POPC   PO453544   2.064  24.692   5.558
 4202POPC   GL153545   2.022  24.566   5.963
 4202POPC   GL253546   1.738  24.364   5.847
 4202POPC   C1A53547   2.157  24.615   6.404
 4202POPC   D2A53548   1.965  24.710   6.781
 4202POPC   C3A53549   2.116  24.554   7.160
 4202POPC   C4A53550   2.226  24.385   7.547
 4202POPC   C1B53551   1.826  24.086   6.172
 4202POPC   C2B53552   1.883  24.220   6.587
 4202POPC   C3B53553   1.661  24.296   6.955
 4202POPC   C4B53554   1.517  23.998   7.259
 4203POPC   NC353555  40.263   4.829   5.458
 4203POPC   PO453556  39.784   5.196   5.178
 4203POPC   GL153557  39.883   5.112   5.713
 4203POPC   GL253558  39.753   4.877   5.962
 4203POPC   C1A53559  40.075   5.297   6.130
 4203POPC   D2A53560  40.315   5.610   6.452
 4203POPC   C3A53561  40.198   5.520   6.899
 4203POPC   C4A53562  40.237   5.117   7.110
 4203POPC   C1B53563  40.104   4.707   6.260
 4203POPC   C2B53564  40.307   4.734   6.717
 4203POPC   C3B53565  40.100   4.639   7.140
 4203POPC   C4B53566  39.804   4.935   7.348
 4204POPC   NC353567  42.190  20.908   5.528
 4204POPC   PO453568  42.771  20.564   5.382
 4204POPC   GL153569  42.577  20.388   5.800
 4204POPC   GL253570  42.239  20.520   5.874
 4204POPC   C1A53571  42.490  20.380   6.289
 4204POPC   D2A53572  42.359  20.305   6.692
 4204POPC   C3A53573  42.569  20.593   6.970
 4204POPC   C4A53574  42.590  20.525   7.416
 4204POPC   C1B53575  42.122  20.750   6.275
 4204POPC   C2B53576  42.239  20.920   6.704
 4204POPC   C3B53577  42.198  20.881   7.161
 4204POPC   C4B53578  42.203  20.843   7.596
 4205POPC   NC353579   4.520  34.355   5.207
 4205POPC   PO453580   4.097  34.771   5.425
 4205POPC   GL153581   4.195  34.639   5.806
 4205POPC   GL253582   4.438  34.381   5.763
 4205POPC   C1A53583   4.308  34.718   6.230
 4205POPC   D2A53584   4.056  34.562   6.562
 4205POPC   C3A53585   4.206  34.413   6.933
 4205POPC   C4A53586   4.049  34.525   7.311
 4205POPC   C1B53587   4.168  34.240   6.136
 4205POPC   C2B53588   4.429  34.184   6.506
 4205POPC   C3B53589   4.606  34.070   6.904
 4205POPC   C4B53590   4.513  34.237   7.337
 4206POPC   NC353591   0.995  17.472   5.423
 4206POPC   PO453592   1.638  17.187   5.414
 4206POPC   GL153593   1.479  17.482   5.775
 4206POPC   GL253594   1.109  17.579   5.899
 4206POPC   C1A53595   1.481  17.572   6.248
 4206POPC   D2A53596   1.168  17.435   6.579
 4206POPC   C3A53597   1.078  17.659   6.973
 4206POPC   C4A53598   1.195  17.617   7.418
 4206POPC   C1B53599   0.792  17.370   6.184
 4206POPC   C2B53600   0.606  17.269   6.589
 4206POPC   C3B53601   0.809  17.228   6.955
 4206POPC   C4B53602   0.757  17.396   7.347
 4207POPC   NC353603  42.569  42.594   5.441
 4207POPC   PO453604  42.451  41.952   5.560
 4207POPC   GL153605  42.603  42.255   5.865
 4207POPC   GL253606  42.353  42.545   5.909
 4207POPC   C1A53607  42.678  42.395   6.301
 4207POPC   D2A53608  42.478  42.483   6.722
 4207POPC   C3A53609  42.442  42.160   7.073
 4207POPC   C4A53610  42.564  42.239   7.517
 4207POPC   C1B53611  42.140  42.241   6.175
 4207POPC   C2B53612  42.131  42.134   6.610
 4207POPC   C3B53613  41.931  42.152   7.016
 4207POPC   C4B53614  42.075  42.321   7.435
 4208POPC   NC353615  29.512   5.936   5.527
 4208POPC   PO453616  28.992   5.555   5.594
 4208POPC   GL153617  29.157   5.799   5.904
 4208POPC   GL253618  29.475   5.611   5.913
 4208POPC   C1A53619  29.049   5.955   6.309
 4208POPC   D2A53620  29.291   6.049   6.677
 4208POPC   C3A53621  29.072   6.023   7.080
 4208POPC   C4A53622  28.781   5.734   7.270
 4208POPC   C1B53623  29.403   5.606   6.337
 4208POPC   C2B53624  29.129   5.485   6.636
 4208POPC   C3B53625  29.215   5.522   7.070
 4208POPC   C4B53626  29.119   5.339   7.463
 4209POPC   NC353627  27.199  42.726   5.560
 4209POPC   PO453628  27.691  42.225   5.500
 4209POPC   GL153629  27.877  42.383   5.902
 4209POPC   GL253630  27.545  42.347   5.997
 4209POPC   C1A53631  27.819  42.584   6.323
 4209POPC   D2A53632  27.695  42.279   6.625
 4209POPC   C3A53633  27.743  42.458   7.012
 4209POPC   C4A53634  27.753  42.260   7.417
 4209POPC   C1B53635  27.427  42.032   6.261
 4209POPC   C2B53636  27.299  41.946   6.675
 4209POPC   C3B53637  27.357  42.140   7.079
 4209POPC   C4B53638  27.441  41.848   7.427
 4210POPC   NC353639  40.589  13.350   5.286
 4210POPC   PO453640  41.155  13.041   5.396
 4210POPC   GL153641  40.936  12.810   5.766
 4210POPC   GL253642  40.672  12.558   5.719
 4210POPC   C1A53643  40.843  12.876   6.223
 4210POPC   D2A53644  41.045  12.773   6.602
 4210POPC   C3A53645  41.071  13.088   6.892
 4210POPC   C4A53646  40.965  13.169   7.287
 4210POPC   C1B53647  40.814  12.386   6.153
 4210POPC   C2B53648  40.613  12.517   6.570
 4210POPC   C3B53649  40.731  12.589   7.015
 4210POPC   C4B53650  40.604  12.848   7.401
 4211POPC   NC353651  17.093   1.574   5.025
 4211POPC   PO453652  16.594   1.298   5.476
 4211POPC   GL153653  16.588   1.160   5.908
 4211POPC   GL253654  16.290   0.951   5.899
 4211POPC   C1A53655  16.792   1.222   6.348
 4211POPC   D2A53656  16.784   0.986   6.762
 4211POPC   C3A53657  16.978   1.128   7.128
 4211POPC   C4A53658  16.809   1.313   7.483
 4211POPC   C1B53659  16.399   0.888   6.326
 4211POPC   C2B53660  16.312   1.149   6.674
 4211POPC   C3B53661  16.319   0.967   7.072
 4211POPC   C4B53662  16.638   0.817   7.316
 4212POPC   NC353663  15.014  19.103   5.417
 4212POPC   PO453664  15.534  18.829   5.514
 4212POPC   GL153665  15.448  19.186   5.770
 4212POPC   GL253666  15.123  19.092   5.923
 4212POPC   C1A53667  15.530  19.179   6.214
 4212POPC   D2A53668  15.241  19.137   6.584
 4212POPC   C3A53669  15.460  19.197   6.963
 4212POPC   C4A53670  15.423  18.893   7.268
 4212POPC   C1B53671  14.825  19.150   6.281
 4212POPC   C2B53672  14.770  18.760   6.529
 4212POPC   C3B53673  14.978  18.708   6.932
 4212POPC   C4B53674  14.975  19.085   7.137
 4213POPC   NC353675  17.095   8.644   5.514
 4213POPC   PO453676  17.464   8.099   5.518
 4213POPC   GL153677  17.532   8.405   5.841
 4213POPC   GL253678  17.845   8.624   5.866
 4213POPC   C1A53679  17.411   8.169   6.221
 4213POPC   D2A53680  17.522   7.809   6.471
 4213POPC   C3A53681  17.559   7.946   6.890
 4213POPC   C4A53682  17.249   8.206   7.117
 4213POPC   C1B53683  17.587   8.641   6.286
 4213POPC   C2B53684  17.526   8.444   6.711
 4213POPC   C3B53685  17.753   8.373   7.132
 4213POPC   C4B53686  17.842   8.454   7.584
 4214POPC   NC353687  15.265  21.984   5.205
 4214POPC   PO453688  14.936  22.426   5.442
 4214POPC   GL153689  15.191  22.253   5.765
 4214POPC   GL253690  15.163  21.911   5.735
 4214POPC   C1A53691  15.313  22.401   6.198
 4214POPC   D2A53692  15.498  22.343   6.614
 4214POPC   C3A53693  15.331  22.273   6.996
 4214POPC   C4A53694  15.141  22.539   7.266
 4214POPC   C1B53695  15.034  21.934   6.195
 4214POPC   C2B53696  15.099  21.950   6.657
 4214POPC   C3B53697  15.152  21.796   7.098
 4214POPC   C4B53698  15.361  21.999   7.499
 4215POPC   NC353699  20.270  19.589   5.503
 4215POPC   PO453700  20.068  18.976   5.306
 4215POPC   GL153701  19.954  19.170   5.702
 4215POPC   GL253702  20.278  19.108   5.788
 4215POPC   C1A53703  19.717  19.326   6.100
 4215POPC   D2A53704  19.810  19.253   6.545
 4215POPC   C3A53705  19.580  19.177   6.918
 4215POPC   C4A53706  19.595  19.432   7.257
 4215POPC   C1B53707  20.206  19.154   6.202
 4215POPC   C2B53708  20.261  19.003   6.611
 4215POPC   C3B53709  20.082  19.108   7.020
 4215POPC   C4B53710  20.253  18.847   7.354
 4216POPC   NC353711  32.303  17.604   5.392
 4216POPC   PO453712  31.722  17.174   5.164
 4216POPC   GL153713  31.949  17.289   5.654
 4216POPC   GL253714  32.290  17.468   5.872
 4216POPC   C1A53715  31.872  17.354   6.119
 4216POPC   D2A53716  32.136  17.234   6.487
 4216POPC   C3A53717  32.066  17.334   6.927
 4216POPC   C4A53718  32.398  17.361   7.238
 4216POPC   C1B53719  32.243  17.700   6.237
 4216POPC   C2B53720  32.037  17.766   6.609
 4216POPC   C3B53721  32.228  17.817   7.005
 4216POPC   C4B53722  31.994  17.829   7.372
 4217POPC   NC353723  31.703  15.937   5.470
 4217POPC   PO453724  31.226  15.490   5.345
 4217POPC   GL153725  31.335  15.694   5.731
 4217POPC   GL253726  31.584  15.512   5.869
 4217POPC   C1A53727  31.431  16.023   6.057
 4217POPC   D2A53728  31.275  16.021   6.476
 4217POPC   C3A53729  31.513  16.068   6.839
 4217POPC   C4A53730  31.436  16.216   7.265
 4217POPC   C1B53731  31.619  15.614   6.305
 4217POPC   C2B53732  31.462  15.559   6.709
 4217POPC   C3B53733  31.398  15.663   7.131
 4217POPC   C4B53734  31.567  15.629   7.529
 4218POPC   NC353735  34.397  16.644   5.296
 4218POPC   PO453736  35.057  16.827   5.108
 4218POPC   GL153737  34.783  16.858   5.560
 4218POPC   GL253738  34.664  16.503   5.701
 4218POPC   C1A53739  34.600  16.898   6.039
 4218POPC   D2A53740  34.522  16.977   6.522
 4218POPC   C3A53741  34.464  16.770   6.927
 4218POPC   C4A53742  34.592  16.906   7.349
 4218POPC   C1B53743  34.440  16.390   6.079
 4218POPC   C2B53744  34.464  16.394   6.510
 4218POPC   C3B53745  34.528  16.241   6.918
 4218POPC   C4B53746  34.504  16.418   7.322
 4219POPC   NC353747  12.080  42.492   5.227
 4219POPC   PO453748  12.070  43.216   5.259
 4219POPC   GL153749  12.046  43.175   5.741
 4219POPC   GL253750  11.778  43.441   5.823
 4219POPC   C1A53751  12.243  43.032   6.162
 4219POPC   D2A53752  12.444  43.242   6.550
 4219POPC   C3A53753  12.297  43.166   6.958
 4219POPC   C4A53754  11.998  42.864   7.082
 4219POPC   C1B53755  11.951  43.437   6.199
 4219POPC   C2B53756  11.951  43.167   6.565
 4219POPC   C3B53757  11.809  43.327   6.934
 4219POPC   C4B53758  12.048  43.596   7.234
 4220POPC   NC353759  38.111  23.747   5.456
 4220POPC   PO453760  38.789  23.754   5.467
 4220POPC   GL153761  38.541  23.630   5.797
 4220POPC   GL253762  38.517  23.987   5.832
 4220POPC   C1A53763  38.473  23.672   6.242
 4220POPC   D2A53764  38.585  23.494   6.612
 4220POPC   C3A53765  38.363  23.602   6.921
 4220POPC   C4A53766  38.475  23.582   7.311
 4220POPC   C1B53767  38.850  24.007   6.159
 4220POPC   C2B53768  38.911  23.881   6.581
 4220POPC   C3B53769  38.750  23.954   6.983
 4220POPC   C4B53770  38.750  23.985   7.407
 4221POPC   NC353771   5.504   0.374   5.494
 4221POPC   PO453772   4.856   0.662   5.579
 4221POPC   GL153773   5.047   0.322   5.809
 4221POPC   GL253774   4.905  44.997   5.746
 4221POPC   C1A53775   5.178   0.383   6.241
 4221POPC   D2A53776   5.247   0.680   6.607
 4221POPC   C3A53777   5.387   0.444   6.981
 4221POPC   C4A53778   5.328   0.483   7.419
 4221POPC   C1B53779   4.671   0.034   6.129
 4221POPC   C2B53780   4.851   0.123   6.540
 4221POPC   C3B53781   4.823   0.442   6.832
 4221POPC   C4B53782   4.923   0.286   7.200
 4222POPC   NC353783  29.312   9.219   5.541
 4222POPC   PO453784  29.245   8.538   5.437
 4222POPC   GL153785  29.088   8.779   5.788
 4222POPC   GL253786  28.801   8.983   5.738
 4222POPC   C1A53787  29.147   9.028   6.172
 4222POPC   D2A53788  29.317   9.192   6.565
 4222POPC   C3A53789  29.131   9.004   6.935
 4222POPC   C4A53790  29.271   9.027   7.329
 4222POPC   C1B53791  28.659   9.205   6.113
 4222POPC   C2B53792  28.801   9.128   6.542
 4222POPC   C3B53793  28.670   9.193   6.941
 4222POPC   C4B53794  28.815   9.238   7.372
 4223POPC   NC353795   6.989  43.931   5.346
 4223POPC   PO453796   6.311  44.072   5.415
 4223POPC   GL153797   6.471  43.803   5.763
 4223POPC   GL253798   6.811  43.647   5.766
 4223POPC   C1A53799   6.432  43.947   6.201
 4223POPC   D2A53800   6.300  44.207   6.561
 4223POPC   C3A53801   6.434  44.025   6.926
 4223POPC   C4A53802   6.842  43.900   7.086
 4223POPC   C1B53803   6.950  43.669   6.188
 4223POPC   C2B53804   6.759  43.743   6.592
 4223POPC   C3B53805   6.729  43.431   6.924
 4223POPC   C4B53806   7.067  43.171   7.105
 4224POPC   NC353807   9.236  17.976   5.391
 4224POPC   PO453808   9.943  18.094   5.329
 4224POPC   GL153809   9.807  18.230   5.748
 4224POPC   GL253810   9.462  18.357   5.753
 4224POPC   C1A53811   9.870  18.392   6.168
 4224POPC   D2A53812  10.107  18.460   6.527
 4224POPC   C3A53813   9.933  18.523   6.923
 4224POPC   C4A53814   9.887  18.250   7.280
 4224POPC   C1B53815   9.355  18.496   6.164
 4224POPC   C2B53816   9.528  18.413   6.558
 4224POPC   C3B53817   9.459  18.330   6.958
 4224POPC   C4B53818   9.084  18.441   7.149
 4225POPC   NC353819  15.757  25.108   5.456
 4225POPC   PO453820  16.109  25.655   5.194
 4225POPC   GL153821  16.122  25.440   5.610
 4225POPC   GL253822  15.796  25.486   5.805
 4225POPC   C1A53823  16.208  25.383   6.069
 4225POPC   D2A53824  15.873  25.295   6.387
 4225POPC   C3A53825  15.814  25.175   6.835
 4225POPC   C4A53826  16.210  25.113   7.096
 4225POPC   C1B53827  15.551  25.662   6.154
 4225POPC   C2B53828  15.664  25.732   6.584
 4225POPC   C3B53829  15.490  25.602   6.971
 4225POPC   C4B53830  15.781  25.462   7.261
 4226POPC   NC353831   6.208  35.626   5.319
 4226POPC   PO453832   6.869  35.275   5.358
 4226POPC   GL153833   6.569  35.385   5.608
 4226POPC   GL253834   6.807  35.611   5.735
 4226POPC   C1A53835   6.424  35.333   6.032
 4226POPC   D2A53836   6.369  35.222   6.441
 4226POPC   C3A53837   6.320  35.402   6.840
 4226POPC   C4A53838   6.565  35.236   7.210
 4226POPC   C1B53839   6.719  35.754   6.114
 4226POPC   C2B53840   6.651  35.652   6.537
 4226POPC   C3B53841   6.750  35.687   6.969
 4226POPC   C4B53842   7.061  35.879   7.215
 4227POPC   NC353843  10.237  14.643   5.453
 4227POPC   PO453844  10.313  13.964   5.675
 4227POPC   GL153845  10.658  14.161   5.816
 4227POPC   GL253846  10.613  14.515   5.905
 4227POPC   C1A53847  10.739  14.132   6.238
 4227POPC   D2A53848  10.453  14.015   6.601
 4227POPC   C3A53849  10.534  14.183   7.020
 4227POPC   C4A53850  10.902  14.063   7.311
 4227POPC   C1B53851  10.403  14.483   6.341
 4227POPC   C2B53852  10.020  14.547   6.550
 4227POPC   C3B53853  10.078  14.674   6.960
 4227POPC   C4B53854  10.211  14.476   7.317
 4228POPC   NC353855  24.002  31.776   5.558
 4228POPC   PO453856  23.380  31.422   5.454
 4228POPC   GL153857  23.634  31.482   5.838
 4228POPC   GL253858  23.923  31.360   6.022
 4228POPC   C1A53859  23.687  31.753   6.213
 4228POPC   D2A53860  23.465  31.674   6.569
 4228POPC   C3A53861  23.723  31.603   6.901
 4228POPC   C4A53862  23.563  31.860   7.184
 4228POPC   C1B53863  23.588  31.232   6.327
 4228POPC   C2B53864  23.433  31.185   6.754
 4228POPC   C3B53865  23.492  31.267   7.218
 4228POPC   C4B53866  23.372  31.091   7.667
 4229POPC   NC353867   0.389  27.898   5.365
 4229POPC   PO453868   0.278  27.244   5.459
 4229POPC   GL153869   0.280  27.548   5.806
 4229POPC   GL253870   0.592  27.679   5.788
 4229POPC   C1A53871   0.410  27.451   6.243
 4229POPC   D2A53872   0.386  27.264   6.656
 4229POPC   C3A53873   0.126  27.524   6.890
 4229POPC   C4A53874   0.164  27.772   7.260
 4229POPC   C1B53875   0.607  27.915   6.182
 4229POPC   C2B53876   0.391  27.849   6.568
 4229POPC   C3B53877   0.568  27.832   6.945
 4229POPC   C4B53878   0.637  28.137   7.224
 4230POPC   NC353879  24.757  31.427   5.487
 4230POPC   PO453880  24.102  31.310   5.539
 4230POPC   GL153881  24.413  31.428   5.872
 4230POPC   GL253882  24.742  31.638   5.941
 4230POPC   C1A53883  24.374  31.347   6.292
 4230POPC   D2A53884  24.036  31.328   6.579
 4230POPC   C3A53885  24.199  31.372   6.991
 4230POPC   C4A53886  24.171  31.119   7.345
 4230POPC   C1B53887  24.483  31.856   6.242
 4230POPC   C2B53888  24.342  31.762   6.674
 4230POPC   C3B53889  24.430  31.862   7.110
 4230POPC   C4B53890  24.762  32.010   7.400
 4231POPC   NC353891  32.864   4.212   5.011
 4231POPC   PO453892  32.699   4.087   5.655
 4231POPC   GL153893  32.803   4.432   5.910
 4231POPC   GL253894  33.102   4.450   5.679
 4231POPC   C1A53895  32.721   4.383   6.332
 4231POPC   D2A53896  33.032   4.077   6.510
 4231POPC   C3A53897  33.326   4.239   6.806
 4231POPC   C4A53898  33.100   4.320   7.158
 4231POPC   C1B53899  33.262   4.415   6.128
 4231POPC   C2B53900  33.136   4.607   6.509
 4231POPC   C3B53901  33.166   4.759   6.897
 4231POPC   C4B53902  33.127   4.783   7.337
 4232POPC   NC353903  37.641  28.810   5.491
 4232POPC   PO453904  37.670  29.554   5.419
 4232POPC   GL153905  37.526  29.230   5.767
 4232POPC   GL253906  37.820  29.083   5.901
 4232POPC   C1A53907  37.475  29.105   6.259
 4232POPC   D2A53908  37.414  29.014   6.687
 4232POPC   C3A53909  37.781  29.087   6.912
 4232POPC   C4A53910  37.951  29.143   7.295
 4232POPC   C1B53911  37.936  29.351   6.301
 4232POPC   C2B53912  37.737  29.594   6.634
 4232POPC   C3B53913  37.506  29.530   7.010
 4232POPC   C4B53914  37.268  29.200   7.181
 4233POPC   NC353915  20.460  10.691   5.134
 4233POPC   PO453916  20.483  10.181   5.519
 4233POPC   GL153917  20.509  10.620   5.732
 4233POPC   GL253918  20.868  10.794   5.828
 4233POPC   C1A53919  20.555  10.575   6.159
 4233POPC   D2A53920  20.626  10.345   6.519
 4233POPC   C3A53921  20.555  10.586   6.864
 4233POPC   C4A53922  20.351  10.449   7.233
 4233POPC   C1B53923  21.050  10.676   6.187
 4233POPC   C2B53924  21.088  10.574   6.593
 4233POPC   C3B53925  21.089  10.701   7.001
 4233POPC   C4B53926  20.864  10.445   7.255
 4234POPC   NC353927  24.527  15.555   5.423
 4234POPC   PO453928  24.565  14.921   5.500
 4234POPC   GL153929  24.719  15.182   5.778
 4234POPC   GL253930  24.579  15.492   5.915
 4234POPC   C1A53931  24.902  15.102   6.156
 4234POPC   D2A53932  24.857  14.936   6.560
 4234POPC   C3A53933  24.530  15.124   6.786
 4234POPC   C4A53934  24.502  14.994   7.196
 4234POPC   C1B53935  24.522  15.633   6.347
 4234POPC   C2B53936  24.728  15.671   6.756
 4234POPC   C3B53937  24.542  15.510   7.136
 4234POPC   C4B53938  24.155  15.393   7.340
 4235POPC   NC353939  32.635  21.468   5.495
 4235POPC   PO453940  31.979  21.592   5.431
 4235POPC   GL153941  32.193  21.253   5.704
 4235POPC   GL253942  32.537  21.238   5.928
 4235POPC   C1A53943  32.127  21.017   6.084
 4235POPC   D2A53944  32.371  21.107   6.451
 4235POPC   C3A53945  32.242  21.057   6.864
 4235POPC   C4A53946  32.137  21.172   7.257
 4235POPC   C1B53947  32.250  21.509   6.191
 4235POPC   C2B53948  32.280  21.583   6.655
 4235POPC   C3B53949  32.354  21.600   7.106
 4235POPC   C4B53950  32.608  21.315   7.408
 4236POPC   NC353951  28.813  33.291   5.405
 4236POPC   PO453952  29.432  32.935   5.178
 4236POPC   GL153953  29.324  33.121   5.637
 4236POPC   GL253954  29.143  33.417   5.774
 4236POPC   C1A53955  29.393  33.144   6.146
 4236POPC   D2A53956  29.257  32.992   6.593
 4236POPC   C3A53957  29.459  32.799   6.999
 4236POPC   C4A53958  29.286  32.593   7.392
 4236POPC   C1B53959  28.897  33.293   6.180
 4236POPC   C2B53960  29.043  33.478   6.597
 4236POPC   C3B53961  29.255  33.326   6.984
 4236POPC   C4B53962  29.017  33.015   7.140
 4237POPC   NC353963  11.439  36.898   5.229
 4237POPC   PO453964  10.898  36.515   5.267
 4237POPC   GL153965  11.173  36.726   5.638
 4237POPC   GL253966  11.555  36.832   5.727
 4237POPC   C1A53967  11.202  36.803   6.101
 4237POPC   D2A53968  11.565  36.665   6.397
 4237POPC   C3A53969  11.485  36.683   6.862
 4237POPC   C4A53970  11.151  36.785   7.165
 4237POPC   C1B53971  11.601  37.102   6.107
 4237POPC   C2B53972  11.370  37.127   6.519
 4237POPC   C3B53973  11.485  37.192   6.937
 4237POPC   C4B53974  11.679  37.038   7.272
 4238POPC   NC353975  24.200  11.805   5.375
 4238POPC   PO453976  24.785  11.991   5.383
 4238POPC   GL153977  24.515  11.938   5.764
 4238POPC   GL253978  24.149  11.947   5.860
 4238POPC   C1A53979  24.581  11.946   6.218
 4238POPC   D2A53980  24.578  12.197   6.609
 4238POPC   C3A53981  24.376  12.149   7.019
 4238POPC   C4A53982  24.452  11.973   7.433
 4238POPC   C1B53983  24.091  11.835   6.299
 4238POPC   C2B53984  24.277  11.741   6.689
 4238POPC   C3B53985  24.122  11.719   7.127
 4238POPC   C4B53986  24.075  11.656   7.580
 4239POPC   NC353987  31.860  39.093   5.491
 4239POPC   PO453988  32.467  38.893   5.435
 4239POPC   GL153989  32.267  39.156   5.795
 4239POPC   GL253990  31.998  39.474   5.781
 4239POPC   C1A53991  32.364  39.118   6.225
 4239POPC   D2A53992  32.134  39.002   6.581
 4239POPC   C3A53993  32.288  39.156   6.957
 4239POPC   C4A53994  32.321  39.021   7.346
 4239POPC   C1B53995  32.070  39.511   6.207
 4239POPC   C2B53996  32.260  39.505   6.591
 4239POPC   C3B53997  32.133  39.643   6.983
 4239POPC   C4B53998  32.260  39.510   7.370
 4240POPC   NC353999  34.514   0.785   5.318
 4240POPC   PO454000  34.338   0.171   5.417
 4240POPC   GL154001  34.542   0.438   5.737
 4240POPC   GL254002  34.369   0.746   5.830
 4240POPC   C1A54003  34.760   0.583   6.153
 4240POPC   D2A54004  34.618   0.735   6.575
 4240POPC   C3A54005  34.713   0.435   6.911
 4240POPC   C4A54006  34.892   0.107   7.140
 4240POPC   C1B54007  34.271   0.458   6.186
 4240POPC   C2B54008  34.105   0.330   6.588
 4240POPC   C3B54009  34.222   0.531   6.966
 4240POPC   C4B54010  34.446   0.436   7.355
 4241POPC   NC354011  35.897  40.275   5.313
 4241POPC   PO454012  36.234  39.738   5.213
 4241POPC   GL154013  36.205  39.641   5.700
 4241POPC   GL254014  36.122  39.988   5.796
 4241POPC   C1A54015  36.358  39.505   6.164
 4241POPC   D2A54016  36.286  39.652   6.613
 4241POPC   C3A54017  36.523  39.689   6.995
 4241POPC   C4A54018  36.379  39.897   7.352
 4241POPC   C1B54019  35.925  39.822   6.147
 4241POPC   C2B54020  35.885  39.965   6.582
 4241POPC   C3B54021  36.052  40.099   6.993
 4241POPC   C4B54022  36.020  40.228   7.456
 4242POPC   NC354023   3.411  10.644   4.997
 4242POPC   PO454024   3.729  10.421   5.592
 4242POPC   GL154025   3.684  10.583   5.967
 4242POPC   GL254026   3.339  10.434   5.980
 4242POPC   C1A54027   3.603  10.662   6.349
 4242POPC   D2A54028   3.863  10.472   6.627
 4242POPC   C3A54029   3.707  10.581   6.965
 4242POPC   C4A54030   3.647  10.850   7.237
 4242POPC   C1B54031   3.211  10.254   6.347
 4242POPC   C2B54032   3.285  10.467   6.691
 4242POPC   C3B54033   3.295  10.874   6.834
 4242POPC   C4B54034   3.168  10.675   7.197
 4243POPC   NC354035  29.460  21.653   5.366
 4243POPC   PO454036  29.152  22.228   5.323
 4243POPC   GL154037  29.122  22.154   5.765
 4243POPC   GL254038  29.340  21.883   5.827
 4243POPC   C1A54039  28.892  22.292   6.145
 4243POPC   D2A54040  28.973  22.536   6.541
 4243POPC   C3A54041  29.223  22.349   6.835
 4243POPC   C4A54042  29.223  22.391   7.290
 4243POPC   C1B54043  29.116  21.834   6.229
 4243POPC   C2B54044  28.927  21.986   6.626
 4243POPC   C3B54045  29.065  21.931   7.075
 4243POPC   C4B54046  29.185  21.669   7.455
 4244POPC   NC354047   2.886   7.249   5.386
 4244POPC   PO454048   2.525   7.820   5.271
 4244POPC   GL154049   2.562   7.598   5.684
 4244POPC   GL254050   2.455   7.240   5.674
 4244POPC   C1A54051   2.641   7.416   6.118
 4244POPC   D2A54052   2.739   7.321   6.568
 4244POPC   C3A54053   2.902   7.556   6.897
 4244POPC   C4A54054   2.962   7.662   7.320
 4244POPC   C1B54055   2.286   7.061   6.045
 4244POPC   C2B54056   2.227   7.306   6.438
 4244POPC   C3B54057   2.355   7.243   6.887
 4244POPC   C4B54058   2.657   7.251   7.230
 4245POPC   NC354059   0.338  36.187   5.325
 4245POPC   PO454060   1.010  35.999   5.497
 4245POPC   GL154061   0.769  36.120   5.829
 4245POPC   GL254062   0.433  36.265   5.825
 4245POPC   C1A54063   0.862  36.239   6.238
 4245POPC   D2A54064   0.693  36.109   6.629
 4245POPC   C3A54065   0.656  36.301   7.015
 4245POPC   C4A54066   0.887  36.213   7.398
 4245POPC   C1B54067   0.143  36.263   6.191
 4245POPC   C2B54068   0.151  36.124   6.586
 4245POPC   C3B54069   0.146  36.382   6.959
 4245POPC   C4B54070   0.272  36.321   7.375
 4246POPC   NC354071  42.252  21.619   5.029
 4246POPC   PO454072  42.565  21.195   5.524
 4246POPC   GL154073  42.322  21.271   5.864
 4246POPC   GL254074  42.165  21.576   5.826
 4246POPC   C1A54075  42.380  21.183   6.282
 4246POPC   D2A54076  42.620  21.312   6.608
 4246POPC   C3A54077  42.572  21.189   7.005
 4246POPC   C4A54078  42.438  21.246   7.415
 4246POPC   C1B54079  42.250  21.653   6.238
 4246POPC   C2B54080  42.038  21.422   6.576
 4246POPC   C3B54081  42.079  21.346   6.992
 4246POPC   C4B54082  42.126  21.644   7.307
 4247POPC   NC354083  16.919  10.841   5.668
 4247POPC   PO454084  16.440  11.339   5.568
 4247POPC   GL154085  16.666  11.215   5.897
 4247POPC   GL254086  16.498  10.932   5.892
 4247POPC   C1A54087  16.709  11.095   6.317
 4247POPC   D2A54088  16.710  11.383   6.632
 4247POPC   C3A54089  16.593  11.258   7.000
 4247POPC   C4A54090  16.830  11.192   7.355
 4247POPC   C1B54091  16.284  10.804   6.217
 4247POPC   C2B54092  16.351  10.935   6.641
 4247POPC   C3B54093  16.152  10.947   7.021
 4247POPC   C4B54094  16.322  11.110   7.397
 4248POPC   NC354095  36.710  37.733   5.589
 4248POPC   PO454096  37.192  37.364   5.372
 4248POPC   GL154097  37.020  37.390   5.797
 4248POPC   GL254098  37.159  37.716   5.868
 4248POPC   C1A54099  36.802  37.462   6.231
 4248POPC   D2A54100  36.940  37.365   6.677
 4248POPC   C3A54101  36.902  37.606   7.081
 4248POPC   C4A54102  36.535  37.832   7.165
 4248POPC   C1B54103  36.957  37.952   6.198
 4248POPC   C2B54104  36.791  37.865   6.600
 4248POPC   C3B54105  36.840  38.136   6.915
 4248POPC   C4B54106  36.977  38.078   7.330
 4249POPC   NC354107  28.148  20.767   5.596
 4249POPC   PO454108  28.766  20.470   5.458
 4249POPC   GL154109  28.604  20.630   5.843
 4249POPC   GL254110  28.323  20.387   5.915
 4249POPC   C1A54111  28.637  20.513   6.283
 4249POPC   D2A54112  28.327  20.363   6.572
 4249POPC   C3A54113  28.499  20.376   6.975
 4249POPC   C4A54114  28.560  20.784   7.076
 4249POPC   C1B54115  28.171  20.719   6.220
 4249POPC   C2B54116  28.288  20.898   6.610
 4249POPC   C3B54117  28.065  20.911   6.970
 4249POPC   C4B54118  28.036  20.545   7.186
 4250POPC   NC354119  36.564  33.440   5.390
 4250POPC   PO454120  37.000  33.911   5.161
 4250POPC   GL154121  36.915  33.885   5.640
 4250POPC   GL254122  37.234  33.882   5.836
 4250POPC   C1A54123  36.780  33.614   6.013
 4250POPC   D2A54124  36.921  33.567   6.465
 4250POPC   C3A54125  36.812  33.576   6.914
 4250POPC   C4A54126  37.051  33.536   7.264
 4250POPC   C1B54127  36.998  34.031   6.220
 4250POPC   C2B54128  36.939  34.243   6.623
 4250POPC   C3B54129  36.923  34.078   7.042
 4250POPC   C4B54130  36.581  34.054   7.325
 4251POPC   NC354131  44.150   0.041   5.547
 4251POPC   PO454132  43.701  44.603   5.592
 4251POPC   GL154133  44.099  44.621   5.810
 4251POPC   GL254134  43.906  44.875   5.973
 4251POPC   C1A54135  44.353  44.752   6.176
 4251POPC   D2A54136  44.349  44.576   6.562
 4251POPC   C3A54137  44.216  44.795   6.935
 4251POPC   C4A54138  44.108  44.740   7.359
 4251POPC   C1B54139  43.864  44.496   6.245
 4251POPC   C2B54140  43.828  44.571   6.662
 4251POPC   C3B54141  43.747  44.509   7.062
 4251POPC   C4B54142  43.548  44.836   7.279
 4252POPC   NC354143  43.166  13.580   5.387
 4252POPC   PO454144  43.284  14.192   5.246
 4252POPC   GL154145  43.408  13.821   5.739
 4252POPC   GL254146  43.069  13.686   5.873
 4252POPC   C1A54147  43.469  13.778   6.209
 4252POPC   D2A54148  43.364  13.953   6.629
 4252POPC   C3A54149  43.427  13.782   7.052
 4252POPC   C4A54150  43.274  13.959   7.460
 4252POPC   C1B54151  43.116  13.371   6.197
 4252POPC   C2B54152  43.188  13.463   6.630
 4252POPC   C3B54153  42.951  13.713   6.930
 4252POPC   C4B54154  42.987  13.540   7.367
 4253POPC   NC354155   7.737   9.642   5.370
 4253POPC   PO454156   7.135   9.801   5.512
 4253POPC   GL154157   7.353   9.571   5.837
 4253POPC   GL254158   7.638   9.836   5.832
 4253POPC   C1A54159   7.243   9.383   6.276
 4253POPC   D2A54160   7.166   9.574   6.716
 4253POPC   C3A54161   7.317   9.766   7.085
 4253POPC   C4A54162   7.363   9.499   7.437
 4253POPC   C1B54163   7.601   9.754   6.257
 4253POPC   C2B54164   7.607   9.892   6.659
 4253POPC   C3B54165   7.817   9.685   6.984
 4253POPC   C4B54166   7.840   9.924   7.269
 4254POPC   NC354167  25.792  36.200   5.315
 4254POPC   PO454168  26.342  35.842   5.431
 4254POPC   GL154169  26.072  36.049   5.761
 4254POPC   GL254170  25.738  35.868   5.739
 4254POPC   C1A54171  26.015  36.179   6.221
 4254POPC   D2A54172  26.220  36.081   6.629
 4254POPC   C3A54173  26.022  36.128   7.016
 4254POPC   C4A54174  25.811  36.395   7.245
 4254POPC   C1B54175  25.826  35.716   6.174
 4254POPC   C2B54176  25.974  35.598   6.615
 4254POPC   C3B54177  25.797  35.687   7.042
 4254POPC   C4B54178  25.701  35.939   7.440
 4255POPC   NC354179  33.566  36.128   5.399
 4255POPC   PO454180  34.222  36.436   5.152
 4255POPC   GL154181  34.163  36.469   5.715
 4255POPC   GL254182  33.936  36.137   5.790
 4255POPC   C1A54183  34.095  36.349   6.212
 4255POPC   D2A54184  34.100  35.986   6.549
 4255POPC   C3A54185  33.985  36.069   6.998
 4255POPC   C4A54186  34.012  36.511   7.149
 4255POPC   C1B54187  33.700  36.013   6.189
 4255POPC   C2B54188  33.617  36.225   6.610
 4255POPC   C3B54189  33.529  36.300   7.068
 4255POPC   C4B54190  33.480  35.867   7.141
 4256POPC   NC354191   7.007  32.543   5.439
 4256POPC   PO454192   6.406  32.283   5.461
 4256POPC   GL154193   6.445  32.150   5.856
 4256POPC   GL254194   6.789  32.243   5.865
 4256POPC   C1A54195   6.414  32.275   6.278
 4256POPC   D2A54196   6.579  32.136   6.677
 4256POPC   C3A54197   6.336  32.336   7.034
 4256POPC   C4A54198   6.540  32.414   7.431
 4256POPC   C1B54199   6.965  32.174   6.269
 4256POPC   C2B54200   7.086  32.227   6.701
 4256POPC   C3B54201   6.906  32.285   7.107
 4256POPC   C4B54202   7.045  32.307   7.562
 4257POPC   NC354203  23.355  43.232   5.272
 4257POPC   PO454204  22.835  42.808   5.436
 4257POPC   GL154205  23.016  42.772   5.820
 4257POPC   GL254206  23.197  43.080   5.766
 4257POPC   C1A54207  23.028  42.902   6.238
 4257POPC   D2A54208  23.023  43.188   6.553
 4257POPC   C3A54209  23.123  43.098   6.959
 4257POPC   C4A54210  22.904  42.841   7.250
 4257POPC   C1B54211  23.357  43.305   6.141
 4257POPC   C2B54212  23.535  43.352   6.585
 4257POPC   C3B54213  23.411  43.575   6.970
 4257POPC   C4B54214  23.182  43.449   7.335
 4258POPC   NC354215  16.142  43.348   5.422
 4258POPC   PO454216  15.627  42.862   5.472
 4258POPC   GL154217  15.777  43.066   5.826
 4258POPC   GL254218  15.796  43.401   5.812
 4258POPC   C1A54219  16.005  43.102   6.220
 4258POPC   D2A54220  16.205  43.124   6.632
 4258POPC   C3A54221  16.009  43.047   7.017
 4258POPC   C4A54222  16.174  43.204   7.405
 4258POPC   C1B54223  15.621  43.452   6.205
 4258POPC   C2B54224  15.862  43.472   6.579
 4258POPC   C3B54225  15.734  43.529   6.989
 4258POPC   C4B54226  15.637  43.278   7.304
 4259POPC   NC354227  40.127  28.408   5.440
 4259POPC   PO454228  39.576  28.079   5.439
 4259POPC   GL154229  39.815  28.200   5.807
 4259POPC   GL254230  40.187  28.115   5.867
 4259POPC   C1A54231  39.950  28.505   6.116
 4259POPC   D2A54232  40.152  28.575   6.511
 4259POPC   C3A54233  39.865  28.549   6.838
 4259POPC   C4A54234  40.098  28.554   7.203
 4259POPC   C1B54235  39.955  28.007   6.285
 4259POPC   C2B54236  40.074  28.092   6.725
 4259POPC   C3B54237  40.142  28.042   7.172
 4259POPC   C4B54238  39.899  27.999   7.571
 4260POPC   NC354239  37.903  39.455   5.769
 4260POPC   PO454240  37.509  38.918   5.499
 4260POPC   GL154241  37.589  39.049   5.871
 4260POPC   GL254242  37.256  38.951   5.987
 4260POPC   C1A54243  37.834  39.052   6.254
 4260POPC   D2A54244  37.620  38.962   6.585
 4260POPC   C3A54245  37.622  39.204   6.923
 4260POPC   C4A54246  37.947  39.433   7.125
 4260POPC   C1B54247  37.373  39.302   6.255
 4260POPC   C2B54248  37.281  39.550   6.616
 4260POPC   C3B54249  37.462  39.683   7.011
 4260POPC   C4B54250  37.303  39.399   7.296
 4261POPC   NC354251  25.982  25.831   5.501
 4261POPC   PO454252  26.090  26.492   5.515
 4261POPC   GL154253  26.023  26.216   5.857
 4261POPC   GL254254  26.374  26.245   5.881
 4261POPC   C1A54255  26.078  26.085   6.287
 4261POPC   D2A54256  26.344  25.848   6.540
 4261POPC   C3A54257  26.216  25.882   6.967
 4261POPC   C4A54258  25.970  26.261   7.139
 4261POPC   C1B54259  26.401  26.467   6.267
 4261POPC   C2B54260  26.301  26.330   6.712
 4261POPC   C3B54261  26.448  26.481   7.113
 4261POPC   C4B54262  26.291  26.391   7.547
 4262POPC   NC354263  43.311  33.780   5.448
 4262POPC   PO454264  42.637  33.969   5.365
 4262POPC   GL154265  42.913  33.894   5.749
 4262POPC   GL254266  42.840  33.560   5.698
 4262POPC   C1A54267  43.242  33.736   6.096
 4262POPC   D2A54268  43.413  33.895   6.494
 4262POPC   C3A54269  43.303  33.761   6.915
 4262POPC   C4A54270  43.355  34.035   7.290
 4262POPC   C1B54271  42.768  33.574   6.145
 4262POPC   C2B54272  42.991  33.542   6.535
 4262POPC   C3B54273  42.892  33.430   6.948
 4262POPC   C4B54274  42.971  33.676   7.300
 4263POPC   NC354275  43.223  20.261   5.412
 4263POPC   PO454276  42.937  19.583   5.346
 4263POPC   GL154277  43.190  19.673   5.715
 4263POPC   GL254278  43.167  20.009   5.853
 4263POPC   C1A54279  43.243  19.541   6.155
 4263POPC   D2A54280  43.089  19.764   6.507
 4263POPC   C3A54281  43.191  19.695   6.934
 4263POPC   C4A54282  43.299  20.070   7.158
 4263POPC   C1B54283  42.936  20.162   6.199
 4263POPC   C2B54284  42.852  20.226   6.649
 4263POPC   C3B54285  42.792  20.161   7.100
 4263POPC   C4B54286  42.908  20.038   7.518
 4264POPC   NC354287  15.847  23.544   5.389
 4264POPC   PO454288  16.483  23.236   5.626
 4264POPC   GL154289  16.112  23.519   5.856
 4264POPC   GL254290  15.711  23.657   5.855
 4264POPC   C1A54291  16.017  23.810   6.230
 4264POPC   D2A54292  15.720  23.806   6.574
 4264POPC   C3A54293  15.956  23.899   6.924
 4264POPC   C4A54294  15.905  23.778   7.329
 4264POPC   C1B54295  15.690  23.427   6.202
 4264POPC   C2B54296  15.759  23.219   6.584
 4264POPC   C3B54297  15.715  23.440   6.974
 4264POPC   C4B54298  15.479  23.495   7.348
 4265POPC   NC354299  34.259  34.466   5.420
 4265POPC   PO454300  34.757  34.873   5.462
 4265POPC   GL154301  34.604  34.603   5.782
 4265POPC   GL254302  34.275  34.775   5.829
 4265POPC   C1A54303  34.736  34.598   6.216
 4265POPC   D2A54304  34.547  34.820   6.543
 4265POPC   C3A54305  34.822  34.958   6.859
 4265POPC   C4A54306  34.796  34.754   7.244
 4265POPC   C1B54307  34.259  34.449   6.155
 4265POPC   C2B54308  34.456  34.293   6.567
 4265POPC   C3B54309  34.392  34.513   6.981
 4265POPC   C4B54310  34.060  34.392   7.296
 4266POPC   NC354311  34.761   9.412   5.621
 4266POPC   PO454312  34.398   9.959   5.457
 4266POPC   GL154313  34.443   9.737   5.867
 4266POPC   GL254314  34.251   9.465   5.976
 4266POPC   C1A54315  34.538   9.862   6.286
 4266POPC   D2A54316  34.696   9.686   6.663
 4266POPC   C3A54317  34.424   9.853   6.952
 4266POPC   C4A54318  34.544   9.917   7.354
 4266POPC   C1B54319  34.412   9.276   6.368
 4266POPC   C2B54320  34.372   9.299   6.825
 4266POPC   C3B54321  34.640   9.438   7.170
 4266POPC   C4B54322  34.499   9.491   7.622
 4267POPC   NC354323  10.164  16.097   5.392
 4267POPC   PO454324   9.613  15.790   5.390
 4267POPC   GL154325   9.531  15.920   5.804
 4267POPC   GL254326   9.906  15.885   5.841
 4267POPC   C1A54327   9.573  15.793   6.225
 4267POPC   D2A54328   9.861  15.719   6.536
 4267POPC   C3A54329   9.651  15.911   6.867
 4267POPC   C4A54330   9.519  16.048   7.244
 4267POPC   C1B54331   9.933  16.161   6.196
 4267POPC   C2B54332  10.008  16.241   6.614
 4267POPC   C3B54333   9.927  16.310   7.028
 4267POPC   C4B54334  10.189  16.183   7.332
 4268POPC   NC354335  35.847   0.073   5.388
 4268POPC   PO454336  36.257  44.572   5.339
 4268POPC   GL154337  36.197  44.638   5.767
 4268POPC   GL254338  36.201   0.010   5.846
 4268POPC   C1A54339  35.964  44.663   6.152
 4268POPC   D2A54340  36.055  44.884   6.538
 4268POPC   C3A54341  36.122  44.681   6.943
 4268POPC   C4A54342  35.882  44.448   7.226
 4268POPC   C1B54343  36.451  44.823   6.212
 4268POPC   C2B54344  36.597  44.670   6.647
 4268POPC   C3B54345  36.593  44.770   7.108
 4268POPC   C4B54346  36.240  44.892   7.407
 4269POPC   NC354347  43.946  12.954   5.384
 4269POPC   PO454348  43.593  12.454   5.598
 4269POPC   GL154349  43.850  12.750   5.855
 4269POPC   GL254350  44.234  12.738   5.872
 4269POPC   C1A54351  43.912  12.803   6.295
 4269POPC   D2A54352  44.030  12.679   6.709
 4269POPC   C3A54353  43.750  12.830   7.074
 4269POPC   C4A54354  43.715  12.752   7.541
 4269POPC   C1B54355  44.395  12.980   6.230
 4269POPC   C2B54356  44.420  13.115   6.650
 4269POPC   C3B54357  44.245  13.010   7.054
 4269POPC   C4B54358  43.997  13.155   7.412
 4270POPC   NC354359  11.502  13.306   5.282
 4270POPC   PO454360  11.289  12.702   5.185
 4270POPC   GL154361  11.361  12.904   5.652
 4270POPC   GL254362  11.123  12.876   5.857
 4270POPC   C1A54363  11.513  12.789   6.136
 4270POPC   D2A54364  11.418  12.992   6.550
 4270POPC   C3A54365  11.540  12.917   7.001
 4270POPC   C4A54366  11.534  12.983   7.501
 4270POPC   C1B54367  11.026  12.673   6.250
 4270POPC   C2B54368  11.041  12.487   6.620
 4270POPC   C3B54369  10.892  12.521   7.008
 4270POPC   C4B54370  11.229  12.645   7.275
 4271POPC   NC354371   1.265  44.155   5.422
 4271POPC   PO454372   1.102  44.869   5.483
 4271POPC   GL154373   1.345  44.608   5.762
 4271POPC   GL254374   1.044  44.611   5.931
 4271POPC   C1A54375   1.465  44.606   6.230
 4271POPC   D2A54376   1.397  44.804   6.653
 4271POPC   C3A54377   1.319  44.626   7.075
 4271POPC   C4A54378   1.141  44.840   7.444
 4271POPC   C1B54379   0.861  44.492   6.313
 4271POPC   C2B54380   0.936  44.493   6.744
 4271POPC   C3B54381   0.954  44.221   7.085
 4271POPC   C4B54382   0.853  44.353   7.481
 4272POPC   NC354383  12.016   7.781   5.370
 4272POPC   PO454384  12.256   8.443   5.321
 4272POPC   GL154385  11.977   8.263   5.657
 4272POPC   GL254386  12.168   7.998   5.804
 4272POPC   C1A54387  11.812   8.221   6.110
 4272POPC   D2A54388  11.779   7.964   6.472
 4272POPC   C3A54389  11.931   8.178   6.826
 4272POPC   C4A54390  11.772   8.250   7.218
 4272POPC   C1B54391  12.231   7.944   6.237
 4272POPC   C2B54392  12.344   7.889   6.677
 4272POPC   C3B54393  12.271   7.938   7.138
 4272POPC   C4B54394  12.123   8.084   7.533
 4273POPC   NC354395  31.705  13.583   5.429
 4273POPC   PO454396  31.110  13.858   5.513
 4273POPC   GL154397  31.442  13.697   5.863
 4273POPC   GL254398  31.612  13.348   5.875
 4273POPC   C1A54399  31.516  13.608   6.324
 4273POPC   D2A54400  31.257  13.510   6.703
 4273POPC   C3A54401  31.365  13.738   7.081
 4273POPC   C4A54402  31.242  13.580   7.464
 4273POPC   C1B54403  31.938  13.331   6.203
 4273POPC   C2B54404  32.020  13.505   6.634
 4273POPC   C3B54405  31.902  13.296   6.989
 4273POPC   C4B54406  31.551  13.274   7.221
 4274POPC   NC354407  13.864  42.370   5.522
 4274POPC   PO454408  13.230  42.689   5.422
 4274POPC   GL154409  13.273  42.403   5.837
 4274POPC   GL254410  13.609  42.257   5.945
 4274POPC   C1A54411  13.230  42.303   6.333
 4274POPC   D2A54412  13.155  42.330   6.800
 4274POPC   C3A54413  13.422  42.320   7.189
 4274POPC   C4A54414  13.672  42.162   7.566
 4274POPC   C1B54415  13.656  42.553   6.277
 4274POPC   C2B54416  13.643  42.443   6.695
 4274POPC   C3B54417  13.899  42.349   7.018
 4274POPC   C4B54418  13.947  42.560   7.430
 4275POPC   NC354419  32.801  39.801   5.344
 4275POPC   PO454420  33.108  40.380   5.447
 4275POPC   GL154421  33.129  40.112   5.831
 4275POPC   GL254422  33.033  39.748   5.857
 4275POPC   C1A54423  32.936  40.073   6.240
 4275POPC   D2A54424  33.026  40.234   6.629
 4275POPC   C3A54425  33.209  39.968   6.914
 4275POPC   C4A54426  33.042  40.087   7.288
 4275POPC   C1B54427  33.222  39.616   6.254
 4275POPC   C2B54428  32.921  39.668   6.588
 4275POPC   C3B54429  32.723  39.599   6.977
 4275POPC   C4B54430  33.052  39.565   7.258
 4276POPC   NC354431   2.755  25.759   5.384
 4276POPC   PO454432   2.977  26.364   5.368
 4276POPC   GL154433   2.690  26.239   5.738
 4276POPC   GL254434   2.746  25.886   5.898
 4276POPC   C1A54435   2.586  26.306   6.197
 4276POPC   D2A54436   2.806  26.096   6.534
 4276POPC   C3A54437   2.725  26.256   6.932
 4276POPC   C4A54438   2.951  26.203   7.314
 4276POPC   C1B54439   3.106  25.737   6.203
 4276POPC   C2B54440   3.205  25.788   6.659
 4276POPC   C3B54441   2.874  25.777   7.014
 4276POPC   C4B54442   2.936  25.724   7.483
 4277POPC   NC354443  14.282  19.637   5.484
 4277POPC   PO454444  14.229  20.233   5.606
 4277POPC   GL154445  14.274  19.913   5.938
 4277POPC   GL254446  14.591  19.697   5.883
 4277POPC   C1A54447  14.063  19.936   6.352
 4277POPC   D2A54448  14.213  20.185   6.722
 4277POPC   C3A54449  14.341  19.915   7.067
 4277POPC   C4A54450  14.058  19.886   7.433
 4277POPC   C1B54451  14.748  20.027   6.153
 4277POPC   C2B54452  14.694  20.049   6.587
 4277POPC   C3B54453  14.709  20.319   6.920
 4277POPC   C4B54454  14.765  20.101   7.317
 4278POPC   NC354455  36.308   4.834   5.458
 4278POPC   PO454456  35.865   5.337   5.329
 4278POPC   GL154457  35.964   5.119   5.748
 4278POPC   GL254458  35.937   4.740   5.797
 4278POPC   C1A54459  35.898   5.157   6.219
 4278POPC   D2A54460  35.889   4.909   6.620
 4278POPC   C3A54461  35.972   5.132   7.007
 4278POPC   C4A54462  35.716   5.381   7.235
 4278POPC   C1B54463  36.192   4.732   6.171
 4278POPC   C2B54464  36.375   4.924   6.533
 4278POPC   C3B54465  36.292   4.746   6.920
 4278POPC   C4B54466  36.102   4.706   7.343
 4279POPC   NC354467   2.126  39.283   5.502
 4279POPC   PO454468   1.650  38.878   5.573
 4279POPC   GL154469   1.994  38.899   5.865
 4279POPC   GL254470   2.347  38.884   5.749
 4279POPC   C1A54471   1.923  39.000   6.311
 4279POPC   D2A54472   1.736  39.286   6.616
 4279POPC   C3A54473   1.730  39.192   7.058
 4279POPC   C4A54474   1.751  39.381   7.457
 4279POPC   C1B54475   2.360  39.209   6.111
 4279POPC   C2B54476   2.365  39.108   6.552
 4279POPC   C3B54477   2.202  39.367   6.868
 4279POPC   C4B54478   2.192  39.222   7.249
 4280POPC   NC354479  25.945  30.997   5.695
 4280POPC   PO454480  25.967  31.602   5.413
 4280POPC   GL154481  26.166  31.535   5.825
 4280POPC   GL254482  26.397  31.839   5.910
 4280POPC   C1A54483  26.006  31.345   6.226
 4280POPC   D2A54484  25.752  31.452   6.544
 4280POPC   C3A54485  25.935  31.332   6.888
 4280POPC   C4A54486  25.993  31.488   7.262
 4280POPC   C1B54487  26.466  31.580   6.256
 4280POPC   C2B54488  26.351  31.453   6.606
 4280POPC   C3B54489  26.565  31.597   6.919
 4280POPC   C4B54490  26.441  31.738   7.310
 4281POPC   NC354491  10.649  30.495   5.564
 4281POPC   PO454492  10.328  31.092   5.399
 4281POPC   GL154493  10.331  30.878   5.795
 4281POPC   GL254494  10.039  31.095   5.851
 4281POPC   C1A54495  10.508  30.644   6.199
 4281POPC   D2A54496  10.772  30.740   6.570
 4281POPC   C3A54497  10.663  30.565   6.923
 4281POPC   C4A54498  10.597  30.488   7.332
 4281POPC   C1B54499  10.216  31.057   6.259
 4281POPC   C2B54500  10.269  30.834   6.645
 4281POPC   C3B54501  10.128  30.902   7.058
 4281POPC   C4B54502  10.318  30.886   7.484
 4282POPC   NC354503  33.066   8.482   5.343
 4282POPC   PO454504  33.263   7.864   5.341
 4282POPC   GL154505  33.119   8.145   5.716
 4282POPC   GL254506  32.775   8.201   5.845
 4282POPC   C1A54507  33.205   8.329   6.149
 4282POPC   D2A54508  32.965   8.430   6.540
 4282POPC   C3A54509  33.070   8.291   6.956
 4282POPC   C4A54510  32.733   8.320   7.255
 4282POPC   C1B54511  32.619   8.073   6.294
 4282POPC   C2B54512  32.596   8.109   6.778
 4282POPC   C3B54513  32.704   7.828   7.162
 4282POPC   C4B54514  32.793   7.798   7.649
 4283POPC   NC354515  18.646  14.944   5.173
 4283POPC   PO454516  19.280  14.763   5.424
 4283POPC   GL154517  19.145  15.081   5.708
 4283POPC   GL254518  18.804  15.060   5.661
 4283POPC   C1A54519  19.200  15.112   6.152
 4283POPC   D2A54520  19.018  14.865   6.459
 4283POPC   C3A54521  19.137  14.948   6.864
 4283POPC   C4A54522  19.262  15.310   7.050
 4283POPC   C1B54523  18.693  15.088   6.123
 4283POPC   C2B54524  18.678  15.231   6.575
 4283POPC   C3B54525  18.648  15.008   6.979
 4283POPC   C4B54526  18.740  14.981   7.423
 4284POPC   NC354527   1.377  27.746   5.402
 4284POPC   PO454528   1.246  27.154   5.693
 4284POPC   GL154529   1.348  27.538   5.914
 4284POPC   GL254530   1.086  27.775   5.827
 4284POPC   C1A54531   1.371  27.510   6.389
 4284POPC   D2A54532   1.320  27.167   6.700
 4284POPC   C3A54533   1.374  27.285   7.156
 4284POPC   C4A54534   1.292  27.747   7.198
 4284POPC   C1B54535   0.907  27.490   6.155
 4284POPC   C2B54536   0.851  27.535   6.587
 4284POPC   C3B54537   0.900  27.418   7.012
 4284POPC   C4B54538   0.587  27.481   7.314
 4285POPC   NC354539   2.295  34.370   5.599
 4285POPC   PO454540   1.783  34.720   5.377
 4285POPC   GL154541   1.847  34.749   5.796
 4285POPC   GL254542   2.198  34.812   5.874
 4285POPC   C1A54543   1.885  34.576   6.206
 4285POPC   D2A54544   2.000  34.264   6.496
 4285POPC   C3A54545   1.747  34.339   6.847
 4285POPC   C4A54546   1.783  34.609   7.181
 4285POPC   C1B54547   2.395  34.510   6.211
 4285POPC   C2B54548   2.490  34.372   6.633
 4285POPC   C3B54549   2.269  34.444   6.995
 4285POPC   C4B54550   2.318  34.775   7.285
 4286POPC   NC354551  27.926   8.105   5.254
 4286POPC   PO454552  28.560   8.296   5.262
 4286POPC   GL154553  28.333   8.266   5.668
 4286POPC   GL254554  28.643   8.327   5.842
 4286POPC   C1A54555  28.214   8.227   6.142
 4286POPC   D2A54556  28.285   8.469   6.509
 4286POPC   C3A54557  28.196   8.340   6.921
 4286POPC   C4A54558  28.276   8.024   7.203
 4286POPC   C1B54559  28.720   8.193   6.300
 4286POPC   C2B54560  28.627   8.120   6.762
 4286POPC   C3B54561  28.701   8.280   7.193
 4286POPC   C4B54562  28.851   8.343   7.662
 4287POPC   NC354563   6.481  31.806   5.469
 4287POPC   PO454564   6.746  31.131   5.551
 4287POPC   GL154565   6.611  31.406   5.882
 4287POPC   GL254566   6.820  31.716   5.849
 4287POPC   C1A54567   6.734  31.332   6.311
 4287POPC   D2A54568   6.726  31.086   6.693
 4287POPC   C3A54569   6.927  31.286   7.010
 4287POPC   C4A54570   6.685  31.466   7.300
 4287POPC   C1B54571   6.625  31.813   6.224
 4287POPC   C2B54572   6.923  31.746   6.573
 4287POPC   C3B54573   6.846  31.801   6.968
 4287POPC   C4B54574   6.405  31.843   7.082
 4288POPC   NC354575  42.089  30.955   5.387
 4288POPC   PO454576  42.454  30.338   5.340
 4288POPC   GL154577  42.307  30.573   5.702
 4288POPC   GL254578  42.525  30.857   5.740
 4288POPC   C1A54579  42.168  30.666   6.141
 4288POPC   D2A54580  42.258  30.500   6.577
 4288POPC   C3A54581  42.155  30.715   6.979
 4288POPC   C4A54582  42.147  30.559   7.416
 4288POPC   C1B54583  42.643  30.848   6.185
 4288POPC   C2B54584  42.663  30.806   6.624
 4288POPC   C3B54585  42.639  30.573   6.974
 4288POPC   C4B54586  42.592  30.775   7.311
 4289POPC   NC354587  37.570   1.200   5.394
 4289POPC   PO454588  37.829   1.856   5.478
 4289POPC   GL154589  37.626   1.563   5.830
 4289POPC   GL254590  37.645   1.146   5.890
 4289POPC   C1A54591  37.627   1.456   6.294
 4289POPC   D2A54592  37.536   1.270   6.698
 4289POPC   C3A54593  37.593   1.524   7.088
 4289POPC   C4A54594  37.595   1.412   7.522
 4289POPC   C1B54595  37.674   0.935   6.295
 4289POPC   C2B54596  38.049   0.917   6.520
 4289POPC   C3B54597  38.007   1.093   6.911
 4289POPC   C4B54598  37.895   0.874   7.266
 4290POPC   NC354599  24.839  40.847   5.411
 4290POPC   PO454600  24.129  41.046   5.483
 4290POPC   GL154601  24.326  40.877   5.862
 4290POPC   GL254602  24.697  40.825   5.893
 4290POPC   C1A54603  24.376  40.910   6.317
 4290POPC   D2A54604  24.551  41.057   6.718
 4290POPC   C3A54605  24.413  40.740   7.029
 4290POPC   C4A54606  24.346  40.502   7.414
 4290POPC   C1B54607  24.795  40.603   6.282
 4290POPC   C2B54608  24.807  40.597   6.713
 4290POPC   C3B54609  24.922  40.856   7.025
 4290POPC   C4B54610  24.885  41.188   7.301
 4291POPC   NC354611  43.628  32.021   5.366
 4291POPC   PO454612  44.208  31.974   5.640
 4291POPC   GL154613  43.922  32.099   5.897
 4291POPC   GL254614  43.850  32.395   5.714
 4291POPC   C1A54615  43.983  32.107   6.342
 4291POPC   D2A54616  43.987  32.130   6.801
 4291POPC   C3A54617  43.804  31.898   7.136
 4291POPC   C4A54618  43.687  32.116   7.530
 4291POPC   C1B54619  43.952  32.578   6.131
 4291POPC   C2B54620  43.749  32.565   6.550
 4291POPC   C3B54621  43.864  32.590   6.988
 4291POPC   C4B54622  43.545  32.621   7.299
 4292POPC   NC354623  12.305  30.791   5.605
 4292POPC   PO454624  11.855  30.308   5.522
 4292POPC   GL154625  11.917  30.602   5.900
 4292POPC   GL254626  12.255  30.576   6.059
 4292POPC   C1A54627  11.963  30.944   6.249
 4292POPC   D2A54628  12.068  30.642   6.573
 4292POPC   C3A54629  12.087  30.767   6.988
 4292POPC   C4A54630  12.048  30.751   7.428
 4292POPC   C1B54631  12.475  30.917   6.276
 4292POPC   C2B54632  12.429  31.026   6.698
 4292POPC   C3B54633  12.572  30.854   7.092
 4292POPC   C4B54634  12.559  30.870   7.567
 4293POPC   NC354635   1.929   4.507   5.216
 4293POPC   PO454636   1.744   3.854   5.360
 4293POPC   GL154637   1.992   4.172   5.633
 4293POPC   GL254638   1.785   4.388   5.809
 4293POPC   C1A54639   2.117   4.096   6.113
 4293POPC   D2A54640   2.157   3.895   6.548
 4293POPC   C3A54641   2.014   4.104   6.933
 4293POPC   C4A54642   2.239   4.212   7.300
 4293POPC   C1B54643   1.965   4.574   6.198
 4293POPC   C2B54644   1.814   4.442   6.585
 4293POPC   C3B54645   1.744   4.625   6.985
 4293POPC   C4B54646   1.753   4.383   7.354
 4294POPC   NC354647  11.385  30.435   5.458
 4294POPC   PO454648  11.183  31.042   5.318
 4294POPC   GL154649  11.109  30.781   5.695
 4294POPC   GL254650  11.444  30.815   5.843
 4294POPC   C1A54651  11.046  30.716   6.141
 4294POPC   D2A54652  11.171  31.042   6.464
 4294POPC   C3A54653  11.129  30.977   6.924
 4294POPC   C4A54654  11.115  30.585   7.145
 4294POPC   C1B54655  11.538  30.683   6.289
 4294POPC   C2B54656  11.619  30.869   6.714
 4294POPC   C3B54657  11.612  30.658   7.124
 4294POPC   C4B54658  11.463  30.737   7.541
 4295POPC   NC354659  15.167   7.172   5.377
 4295POPC   PO454660  14.967   7.663   5.786
 4295POPC   GL154661  15.232   7.371   5.857
 4295POPC   GL254662  14.941   7.109   5.829
 4295POPC   C1A54663  15.465   7.509   6.237
 4295POPC   D2A54664  15.368   7.393   6.653
 4295POPC   C3A54665  15.483   7.626   7.003
 4295POPC   C4A54666  15.345   7.473   7.348
 4295POPC   C1B54667  15.085   7.100   6.259
 4295POPC   C2B54668  14.987   7.014   6.668
 4295POPC   C3B54669  15.105   7.118   7.073
 4295POPC   C4B54670  14.857   7.295   7.422
 4296POPC   NC354671  38.326   0.553   5.308
 4296POPC   PO454672  38.123   0.288   5.898
 4296POPC   GL154673  38.471   0.525   5.807
 4296POPC   GL254674  38.649   0.253   5.613
 4296POPC   C1A54675  38.551   0.642   6.229
 4296POPC   D2A54676  38.237   0.443   6.539
 4296POPC   C3A54677  38.213   0.613   6.947
 4296POPC   C4A54678  38.521   0.630   7.247
 4296POPC   C1B54679  38.733   0.170   6.069
 4296POPC   C2B54680  38.735   0.261   6.524
 4296POPC   C3B54681  38.874   0.434   6.917
 4296POPC   C4B54682  38.784   0.191   7.305
 4297POPC   NC354683   3.381  42.394   5.459
 4297POPC   PO454684   3.541  41.733   5.582
 4297POPC   GL154685   3.681  42.117   5.803
 4297POPC   GL254686   3.348  42.142   5.897
 4297POPC   C1A54687   3.651  42.390   6.217
 4297POPC   D2A54688   3.462  42.362   6.647
 4297POPC   C3A54689   3.653  42.271   7.049
 4297POPC   C4A54690   3.798  42.416   7.471
 4297POPC   C1B54691   3.130  42.199   6.274
 4297POPC   C2B54692   2.975  42.463   6.594
 4297POPC   C3B54693   2.935  42.409   7.018
 4297POPC   C4B54694   3.188  42.221   7.322
 4298POPC   NC354695  14.847  26.612   5.503
 4298POPC   PO454696  14.343  27.074   5.540
 4298POPC   GL154697  14.564  26.844   5.882
 4298POPC   GL254698  14.507  26.460   5.855
 4298POPC   C1A54699  14.670  26.974   6.313
 4298POPC   D2A54700  14.303  27.026   6.608
 4298POPC   C3A54701  14.206  26.712   6.921
 4298POPC   C4A54702  14.493  26.876   7.188
 4298POPC   C1B54703  14.765  26.474   6.233
 4298POPC   C2B54704  14.657  26.591   6.671
 4298POPC   C3B54705  14.835  26.502   7.059
 4298POPC   C4B54706  14.868  26.709   7.480
 4299POPC   NC354707  18.385  31.515   5.410
 4299POPC   PO454708  18.778  31.057   5.655
 4299POPC   GL154709  18.511  31.360   5.902
 4299POPC   GL254710  18.194  31.613   5.847
 4299POPC   C1A54711  18.219  31.349   6.269
 4299POPC   D2A54712  17.993  31.146   6.601
 4299POPC   C3A54713  18.092  31.337   6.964
 4299POPC   C4A54714  18.323  31.523   7.269
 4299POPC   C1B54715  18.015  31.832   6.168
 4299POPC   C2B54716  18.112  31.746   6.588
 4299POPC   C3B54717  17.977  31.831   6.964
 4299POPC   C4B54718  18.081  31.941   7.359
 4300POPC   NC354719  28.616  34.808   5.409
 4300POPC   PO454720  28.101  34.332   5.374
 4300POPC   GL154721  28.411  34.439   5.696
 4300POPC   GL254722  28.240  34.738   5.756
 4300POPC   C1A54723  28.643  34.603   6.069
 4300POPC   D2A54724  28.691  34.514   6.506
 4300POPC   C3A54725  28.628  34.774   6.878
 4300POPC   C4A54726  28.396  34.611   7.239
 4300POPC   C1B54727  28.122  34.716   6.191
 4300POPC   C2B54728  28.209  34.903   6.607
 4300POPC   C3B54729  28.133  35.002   7.052
 4300POPC   C4B54730  28.147  34.954   7.547
 4301POPC   NC354731  37.437  15.987   5.382
 4301POPC   PO454732  37.935  15.557   5.342
 4301POPC   GL154733  37.912  15.869   5.743
 4301POPC   GL254734  37.728  16.210   5.797
 4301POPC   C1A54735  38.081  15.850   6.190
 4301POPC   D2A54736  37.869  15.790   6.594
 4301POPC   C3A54737  38.018  15.934   6.977
 4301POPC   C4A54738  37.839  15.910   7.367
 4301POPC   C1B54739  37.651  16.132   6.252
 4301POPC   C2B54740  37.776  16.292   6.686
 4301POPC   C3B54741  37.505  16.134   7.057
 4301POPC   C4B54742  37.430  16.134   7.547
 4302POPC   NC354743  15.750  14.706   5.341
 4302POPC   PO454744  16.017  15.311   5.251
 4302POPC   GL154745  15.873  15.171   5.702
 4302POPC   GL254746  15.604  15.331   5.924
 4302POPC   C1A54747  15.897  14.954   6.128
 4302POPC   D2A54748  15.795  15.104   6.556
 4302POPC   C3A54749  15.919  14.895   6.958
 4302POPC   C4A54750  15.863  14.948   7.475
 4302POPC   C1B54751  15.958  15.486   6.161
 4302POPC   C2B54752  16.009  15.583   6.573
 4302POPC   C3B54753  15.786  15.449   6.948
 4302POPC   C4B54754  16.085  15.309   7.196
 4303POPC   NC354755   1.001  29.911   5.396
 4303POPC   PO454756   1.474  30.313   5.298
 4303POPC   GL154757   1.327  30.084   5.752
 4303POPC   GL254758   1.110  29.776   5.870
 4303POPC   C1A54759   1.422  29.939   6.218
 4303POPC   D2A54760   1.462  30.046   6.645
 4303POPC   C3A54761   1.049  29.981   6.842
 4303POPC   C4A54762   1.118  30.028   7.263
 4303POPC   C1B54763   1.211  29.472   6.179
 4303POPC   C2B54764   1.375  29.517   6.587
 4303POPC   C3B54765   1.406  29.667   7.022
 4303POPC   C4B54766   1.270  29.552   7.451
 4304POPC   NC354767  44.565   7.270   5.370
 4304POPC   PO454768   0.056   7.691   5.430
 4304POPC   GL154769  44.915   7.397   5.766
 4304POPC   GL254770  44.560   7.431   5.854
 4304POPC   C1A54771  44.908   7.416   6.235
 4304POPC   D2A54772  44.764   7.200   6.628
 4304POPC   C3A54773  44.834   7.467   6.978
 4304POPC   C4A54774  44.809   7.657   7.380
 4304POPC   C1B54775  44.407   7.288   6.270
 4304POPC   C2B54776  44.311   7.460   6.689
 4304POPC   C3B54777  44.350   7.306   7.076
 4304POPC   C4B54778  44.232   7.059   7.409
 4305POPC   NC354779   4.817  39.292   5.369
 4305POPC   PO454780   4.067  39.273   5.241
 4305POPC   GL154781   4.394  39.116   5.595
 4305POPC   GL254782   4.530  39.400   5.792
 4305POPC   C1A54783   4.488  38.973   6.080
 4305POPC   D2A54784   4.257  39.024   6.516
 4305POPC   C3A54785   4.514  39.061   6.902
 4305POPC   C4A54786   4.416  39.277   7.296
 4305POPC   C1B54787   4.318  39.437   6.202
 4305POPC   C2B54788   4.180  39.714   6.532
 4305POPC   C3B54789   4.174  39.462   6.873
 4305POPC   C4B54790   3.939  39.422   7.212
 4306POPC   NC354791  40.954  41.947   5.483
 4306POPC   PO454792  41.148  41.284   5.246
 4306POPC   GL154793  40.958  41.402   5.635
 4306POPC   GL254794  41.213  41.601   5.759
 4306POPC   C1A54795  40.775  41.468   6.071
 4306POPC   D2A54796  40.530  41.680   6.409
 4306POPC   C3A54797  40.655  41.571   6.815
 4306POPC   C4A54798  40.690  41.697   7.219
 4306POPC   C1B54799  41.271  41.693   6.182
 4306POPC   C2B54800  41.103  41.506   6.551
 4306POPC   C3B54801  41.114  41.476   6.990
 4306POPC   C4B54802  41.235  41.473   7.401
 4307POPC   NC354803  44.548  23.350   5.114
 4307POPC   PO454804  44.390  22.848   5.497
 4307POPC   GL154805  44.431  22.812   5.904
 4307POPC   GL254806  44.722  22.977   5.889
 4307POPC   C1A54807  44.421  22.735   6.327
 4307POPC   D2A54808  44.713  22.891   6.609
 4307POPC   C3A54809  44.430  22.934   6.904
 4307POPC   C4A54810  44.435  22.941   7.301
 4307POPC   C1B54811  44.808  23.237   6.225
 4307POPC   C2B54812   0.041  23.293   6.634
 4307POPC   C3B54813  44.813  23.266   7.002
 4307POPC   C4B54814  44.875  23.184   7.435
 4308POPC   NC354815   3.030  24.079   5.436
 4308POPC   PO454816   2.442  24.514   5.240
 4308POPC   GL154817   2.585  24.566   5.729
 4308POPC   GL254818   2.683  24.231   5.839
 4308POPC   C1A54819   2.648  24.586   6.199
 4308POPC   D2A54820   2.891  24.570   6.592
 4308POPC   C3A54821   2.588  24.534   6.917
 4308POPC   C4A54822   2.550  24.231   7.200
 4308POPC   C1B54823   3.045  24.208   6.091
 4308POPC   C2B54824   3.086  24.107   6.506
 4308POPC   C3B54825   2.940  24.139   6.904
 4308POPC   C4B54826   3.055  24.219   7.332
 4309POPC   NC354827   8.825  44.970   5.328
 4309POPC   PO454828   8.782  44.298   5.459
 4309POPC   GL154829   8.777  44.638   5.711
 4309POPC   GL254830   9.123  44.797   5.706
 4309POPC   C1A54831   8.620  44.641   6.114
 4309POPC   D2A54832   8.769  44.821   6.503
 4309POPC   C3A54833   8.702  44.595   6.852
 4309POPC   C4A54834   8.573  44.529   7.267
 4309POPC   C1B54835   9.361  44.847   6.084
 4309POPC   C2B54836   9.439  44.850   6.508
 4309POPC   C3B54837   9.204  44.929   6.895
 4309POPC   C4B54838   9.091  44.623   7.178
 4310POPC   NC354839  14.773   9.481   5.511
 4310POPC   PO454840  15.278   9.874   5.450
 4310POPC   GL154841  15.217   9.733   5.819
 4310POPC   GL254842  14.894   9.882   5.844
 4310POPC   C1A54843  15.355   9.931   6.202
 4310POPC   D2A54844  15.583   9.825   6.584
 4310POPC   C3A54845  15.391   9.914   6.981
 4310POPC   C4A54846  15.185   9.555   7.124
 4310POPC   C1B54847  14.915   9.617   6.207
 4310POPC   C2B54848  15.054   9.778   6.592
 4310POPC   C3B54849  14.830   9.893   6.935
 4310POPC   C4B54850  14.934   9.977   7.316
 4311POPC   NC354851   3.713  31.401   5.483
 4311POPC   PO454852   3.367  31.928   5.493
 4311POPC   GL154853   3.278  31.660   5.810
 4311POPC   GL254854   3.243  31.321   5.659
 4311POPC   C1A54855   3.418  31.749   6.230
 4311POPC   D2A54856   3.662  31.774   6.606
 4311POPC   C3A54857   3.548  31.770   7.022
 4311POPC   C4A54858   3.812  31.560   7.279
 4311POPC   C1B54859   3.402  31.198   6.083
 4311POPC   C2B54860   3.371  31.329   6.508
 4311POPC   C3B54861   3.576  31.304   6.868
 4311POPC   C4B54862   3.425  31.260   7.288
 4312POPC   NC354863  19.801  40.587   5.560
 4312POPC   PO454864  20.224  41.139   5.681
 4312POPC   GL154865  19.979  40.924   5.926
 4312POPC   GL254866  19.642  41.047   5.876
 4312POPC   C1A54867  19.935  40.679   6.276
 4312POPC   D2A54868  19.785  40.809   6.658
 4312POPC   C3A54869  20.090  40.782   6.928
 4312POPC   C4A54870  19.913  40.432   7.116
 4312POPC   C1B54871  19.700  41.190   6.327
 4312POPC   C2B54872  19.781  41.291   6.793
 4312POPC   C3B54873  19.673  40.990   7.145
 4312POPC   C4B54874  19.610  41.078   7.597
 4313POPC   NC354875  16.969  41.355   5.638
 4313POPC   PO454876  16.853  40.704   5.451
 4313POPC   GL154877  16.859  40.714   5.937
 4313POPC   GL254878  17.032  41.029   6.024
 4313POPC   C1A54879  16.620  40.592   6.381
 4313POPC   D2A54880  16.543  40.317   6.805
 4313POPC   C3A54881  16.761  40.468   7.176
 4313POPC   C4A54882  16.936  40.879   7.211
 4313POPC   C1B54883  16.560  41.084   6.109
 4313POPC   C2B54884  16.374  41.076   6.509
 4313POPC   C3B54885  16.525  40.829   6.859
 4313POPC   C4B54886  16.422  40.866   7.280
 4314POPC   NC354887   8.935  11.665   5.447
 4314POPC   PO454888   9.162  11.036   5.457
 4314POPC   GL154889   8.966  11.162   5.824
 4314POPC   GL254890   8.925  11.490   5.908
 4314POPC   C1A54891   9.162  11.125   6.198
 4314POPC   D2A54892   8.953  11.075   6.560
 4314POPC   C3A54893   9.088  11.215   6.900
 4314POPC   C4A54894   9.079  11.421   7.253
 4314POPC   C1B54895   8.808  11.695   6.273
 4314POPC   C2B54896   8.847  11.735   6.717
 4314POPC   C3B54897   8.641  11.575   7.064
 4314POPC   C4B54898   8.529  11.510   7.505
 4315POPC   NC354899  15.414   5.471   5.163
 4315POPC   PO454900  15.225   4.818   5.140
 4315POPC   GL154901  15.187   5.083   5.558
 4315POPC   GL254902  14.866   5.103   5.794
 4315POPC   C1A54903  15.327   5.052   6.021
 4315POPC   D2A54904  15.144   4.915   6.449
 4315POPC   C3A54905  15.321   5.077   6.850
 4315POPC   C4A54906  15.405   4.847   7.202
 4315POPC   C1B54907  14.908   5.348   6.215
 4315POPC   C2B54908  14.918   5.380   6.704
 4315POPC   C3B54909  15.014   5.401   7.179
 4315POPC   C4B54910  14.877   5.459   7.636
 4316POPC   NC354911  30.421  14.362   4.913
 4316POPC   PO454912  30.781  14.392   5.409
 4316POPC   GL154913  30.489  14.409   5.712
 4316POPC   GL254914  30.638  14.716   5.805
 4316POPC   C1A54915  30.339  14.457   6.136
 4316POPC   D2A54916  30.473  14.487   6.566
 4316POPC   C3A54917  30.357  14.174   6.839
 4316POPC   C4A54918  30.616  14.138   7.165
 4316POPC   C1B54919  30.856  14.415   6.121
 4316POPC   C2B54920  30.981  14.355   6.567
 4316POPC   C3B54921  30.855  14.605   6.901
 4316POPC   C4B54922  30.469  14.656   7.074
 4317POPC   NC354923  31.000  40.327   5.558
 4317POPC   PO454924  31.652  40.258   5.433
 4317POPC   GL154925  31.588  39.874   5.768
 4317POPC   GL254926  31.229  39.905   5.847
 4317POPC   C1A54927  31.572  39.669   6.188
 4317POPC   D2A54928  31.402  39.802   6.604
 4317POPC   C3A54929  31.582  39.631   6.964
 4317POPC   C4A54930  31.699  39.864   7.312
 4317POPC   C1B54931  31.009  40.145   6.186
 4317POPC   C2B54932  30.954  40.179   6.632
 4317POPC   C3B54933  31.214  40.127   7.003
 4317POPC   C4B54934  31.566  40.365   7.197
 4318POPC   NC354935  26.228  16.167   5.538
 4318POPC   PO454936  25.787  15.793   5.159
 4318POPC   GL154937  25.895  15.813   5.677
 4318POPC   GL254938  25.823  16.159   5.820
 4318POPC   C1A54939  26.208  15.736   6.046
 4318POPC   D2A54940  26.214  15.667   6.493
 4318POPC   C3A54941  26.375  15.895   6.811
 4318POPC   C4A54942  26.231  16.093   7.156
 4318POPC   C1B54943  25.789  15.980   6.212
 4318POPC   C2B54944  25.876  16.055   6.620
 4318POPC   C3B54945  25.688  16.152   6.985
 4318POPC   C4B54946  25.769  16.164   7.364
 4319POPC   NC354947  25.529  37.146   5.505
 4319POPC   PO454948  24.926  36.767   5.594
 4319POPC   GL154949  25.128  37.025   5.930
 4319POPC   GL254950  24.860  36.991   6.167
 4319POPC   C1A54951  25.334  36.974   6.358
 4319POPC   D2A54952  25.044  36.887   6.723
 4319POPC   C3A54953  25.037  37.188   7.062
 4319POPC   C4A54954  25.472  37.122   7.105
 4319POPC   C1B54955  25.021  36.560   6.308
 4319POPC   C2B54956  25.377  36.467   6.564
 4319POPC   C3B54957  25.428  36.611   6.967
 4319POPC   C4B54958  25.098  36.707   7.215
 4320POPC   NC354959  39.795   3.279   5.563
 4320POPC   PO454960  39.805   3.911   5.275
 4320POPC   GL154961  39.923   3.924   5.743
 4320POPC   GL254962  40.061   3.624   5.825
 4320POPC   C1A54963  39.789   3.890   6.224
 4320POPC   D2A54964  39.593   3.907   6.660
 4320POPC   C3A54965  39.793   3.682   7.023
 4320POPC   C4A54966  39.769   3.318   7.287
 4320POPC   C1B54967  39.911   3.386   6.189
 4320POPC   C2B54968  39.726   3.384   6.574
 4320POPC   C3B54969  40.021   3.218   6.851
 4320POPC   C4B54970  40.305   3.220   7.187
 4321POPC   NC354971  44.112  12.005   5.304
 4321POPC   PO454972  44.755  11.857   5.439
 4321POPC   GL154973  44.493  11.940   5.812
 4321POPC   GL254974  44.555  12.290   5.756
 4321POPC   C1A54975  44.611  11.890   6.294
 4321POPC   D2A54976  44.834  12.185   6.585
 4321POPC   C3A54977  44.797  12.193   7.030
 4321POPC   C4A54978  44.910  12.187   7.472
 4321POPC   C1B54979  44.347  12.317   6.153
 4321POPC   C2B54980  44.253  12.188   6.558
 4321POPC   C3B54981  44.284  12.146   6.981
 4321POPC   C4B54982  44.113  12.496   7.187
 4322POPC   NC354983  39.245  42.104   5.125
 4322POPC   PO454984  39.621  42.598   5.506
 4322POPC   GL154985  39.462  42.251   5.777
 4322POPC   GL254986  39.080  42.168   5.790
 4322POPC   C1A54987  39.401  42.259   6.232
 4322POPC   D2A54988  39.575  42.036   6.584
 4322POPC   C3A54989  39.447  42.223   6.948
 4322POPC   C4A54990  39.390  42.524   7.241
 4322POPC   C1B54991  38.983  41.975   6.212
 4322POPC   C2B54992  39.069  42.093   6.633
 4322POPC   C3B54993  38.932  42.308   6.993
 4322POPC   C4B54994  38.696  42.184   7.322
 4323POPC   NC354995  33.647  25.373   5.287
 4323POPC   PO454996  34.243  25.061   5.429
 4323POPC   GL154997  34.049  25.238   5.767
 4323POPC   GL254998  33.799  24.990   5.841
 4323POPC   C1A54999  34.134  25.389   6.188
 4323POPC   D2A55000  33.897  25.463   6.572
 4323POPC   C3A55001  33.950  25.115   6.819
 4323POPC   C4A55002  34.100  25.084   7.189
 4323POPC   C1B55003  33.676  25.097   6.298
 4323POPC   C2B55004  33.450  25.126   6.733
 4323POPC   C3B55005  33.551  25.210   7.188
 4323POPC   C4B55006  33.406  25.273   7.641
 4324POPC   NC355007  44.603  27.829   5.346
 4324POPC   PO455008  44.405  27.205   5.559
 4324POPC   GL155009  44.768  27.463   5.790
 4324POPC   GL255010  44.774  27.864   5.839
 4324POPC   C1A55011  44.905  27.549   6.231
 4324POPC   D2A55012  44.679  27.597   6.611
 4324POPC   C3A55013  44.736  27.850   6.953
 4324POPC   C4A55014  44.687  27.592   7.326
 4324POPC   C1B55015  44.551  27.947   6.280
 4324POPC   C2B55016  44.279  27.899   6.710
 4324POPC   C3B55017  44.244  27.816   7.181
 4324POPC   C4B55018  44.404  27.928   7.601
 4325POPC   NC355019  12.679   0.707   5.405
 4325POPC   PO455020  13.008   1.347   5.397
 4325POPC   GL155021  13.060   1.054   5.703
 4325POPC   GL255022  12.896   1.318   5.912
 4325POPC   C1A55023  13.231   1.023   6.130
 4325POPC   D2A55024  12.947   1.220   6.421
 4325POPC   C3A55025  12.969   1.074   6.805
 4325POPC   C4A55026  12.897   1.076   7.227
 4325POPC   C1B55027  12.574   1.491   6.200
 4325POPC   C2B55028  12.471   1.437   6.634
 4325POPC   C3B55029  12.489   1.266   7.031
 4325POPC   C4B55030  12.526   1.342   7.476
 4326POPC   NC355031  37.075  17.184   5.459
 4326POPC   PO455032  36.745  17.788   5.344
 4326POPC   GL155033  36.816  17.649   5.768
 4326POPC   GL255034  36.704  17.317   5.822
 4326POPC   C1A55035  36.688  17.726   6.218
 4326POPC   D2A55036  36.682  17.663   6.674
 4326POPC   C3A55037  37.089  17.650   6.918
 4326POPC   C4A55038  36.849  17.709   7.281
 4326POPC   C1B55039  36.898  17.254   6.197
 4326POPC   C2B55040  36.742  17.160   6.601
 4326POPC   C3B55041  36.783  17.273   7.024
 4326POPC   C4B55042  36.591  17.295   7.434
 4327POPC   NC355043   4.743   9.445   5.350
 4327POPC   PO455044   5.239   9.848   5.244
 4327POPC   GL155045   5.106   9.665   5.694
 4327POPC   GL255046   4.873   9.395   5.845
 4327POPC   C1A55047   4.957   9.853   6.106
 4327POPC   D2A55048   5.186   9.990   6.474
 4327POPC   C3A55049   5.205   9.751   6.863
 4327POPC   C4A55050   5.454   9.638   7.233
 4327POPC   C1B55051   4.696   9.439   6.258
 4327POPC   C2B55052   4.689   9.725   6.625
 4327POPC   C3B55053   4.741   9.740   7.085
 4327POPC   C4B55054   4.984   9.494   7.322
 4328POPC   NC355055  36.519   3.212   5.460
 4328POPC   PO455056  35.827   3.396   5.374
 4328POPC   GL155057  36.089   3.386   5.747
 4328POPC   GL255058  36.108   3.715   5.829
 4328POPC   C1A55059  36.120   3.385   6.234
 4328POPC   D2A55060  36.264   3.386   6.698
 4328POPC   C3A55061  35.983   3.436   7.084
 4328POPC   C4A55062  35.980   3.371   7.575
 4328POPC   C1B55063  36.369   3.826   6.141
 4328POPC   C2B55064  36.251   3.955   6.533
 4328POPC   C3B55065  36.222   3.867   6.955
 4328POPC   C4B55066  36.160   3.814   7.399
 4329POPC   NC355067   2.987  40.717   5.172
 4329POPC   PO455068   2.844  41.033   5.739
 4329POPC   GL155069   2.658  40.735   6.025
 4329POPC   GL255070   2.922  40.435   6.018
 4329POPC   C1A55071   2.366  40.773   6.370
 4329POPC   D2A55072   2.396  40.525   6.723
 4329POPC   C3A55073   2.660  40.756   6.989
 4329POPC   C4A55074   2.571  41.012   7.304
 4329POPC   C1B55075   3.093  40.785   6.278
 4329POPC   C2B55076   2.893  41.058   6.556
 4329POPC   C3B55077   3.079  41.069   6.939
 4329POPC   C4B55078   3.059  41.009   7.349
 4330POPC   NC355079  35.664  35.465   5.438
 4330POPC   PO455080  36.234  35.565   5.212
 4330POPC   GL155081  36.140  35.358   5.640
 4330POPC   GL255082  36.259  35.010   5.681
 4330POPC   C1A55083  35.898  35.286   6.058
 4330POPC   D2A55084  35.960  35.423   6.497
 4330POPC   C3A55085  35.675  35.484   6.865
 4330POPC   C4A55086  35.789  35.584   7.319
 4330POPC   C1B55087  36.409  35.161   6.091
 4330POPC   C2B55088  36.331  35.058   6.516
 4330POPC   C3B55089  36.121  35.143   6.911
 4330POPC   C4B55090  35.793  35.060   7.192
 4331POPC   NC355091  18.588  19.967   5.483
 4331POPC   PO455092  17.990  19.648   5.455
 4331POPC   GL155093  18.247  19.768   5.829
 4331POPC   GL255094  18.310  20.118   5.909
 4331POPC   C1A55095  18.348  19.625   6.260
 4331POPC   D2A55096  18.213  19.324   6.567
 4331POPC   C3A55097  18.259  19.471   6.995
 4331POPC   C4A55098  18.018  19.662   7.315
 4331POPC   C1B55099  17.996  19.991   6.243
 4331POPC   C2B55100  18.085  19.860   6.685
 4331POPC   C3B55101  18.297  20.008   7.063
 4331POPC   C4B55102  18.531  20.329   7.253
 4332POPC   NC355103  23.724  39.617   5.490
 4332POPC   PO455104  23.557  40.303   5.381
 4332POPC   GL155105  23.619  40.131   5.831
 4332POPC   GL255106  23.666  39.766   5.973
 4332POPC   C1A55107  23.841  40.150   6.262
 4332POPC   D2A55108  23.905  39.946   6.672
 4332POPC   C3A55109  23.756  40.143   7.045
 4332POPC   C4A55110  23.810  40.272   7.475
 4332POPC   C1B55111  23.974  39.582   6.291
 4332POPC   C2B55112  24.020  39.446   6.693
 4332POPC   C3B55113  24.062  39.601   7.058
 4332POPC   C4B55114  23.857  39.737   7.398
 4333POPC   NC355115   9.356  13.110   5.475
 4333POPC   PO455116   8.716  12.943   5.379
 4333POPC   GL155117   8.776  12.586   5.723
 4333POPC   GL255118   9.114  12.509   5.922
 4333POPC   C1A55119   8.689  12.668   6.172
 4333POPC   D2A55120   8.770  12.984   6.483
 4333POPC   C3A55121   8.844  12.911   6.924
 4333POPC   C4A55122   8.784  13.216   7.250
 4333POPC   C1B55123   9.205  12.836   6.272
 4333POPC   C2B55124   9.306  13.036   6.725
 4333POPC   C3B55125   9.260  13.006   7.226
 4333POPC   C4B55126   9.271  13.024   7.740
 4334POPC   NC355127  19.202  28.885   5.174
 4334POPC   PO455128  19.578  29.301   5.581
 4334POPC   GL155129  19.757  29.379   5.906
 4334POPC   GL255130  19.811  29.034   5.974
 4334POPC   C1A55131  19.687  29.460   6.305
 4334POPC   D2A55132  19.946  29.231   6.519
 4334POPC   C3A55133  19.972  29.180   6.931
 4334POPC   C4A55134  20.087  28.854   7.158
 4334POPC   C1B55135  19.474  29.012   6.282
 4334POPC   C2B55136  19.479  29.127   6.690
 4334POPC   C3B55137  19.554  28.890   7.041
 4334POPC   C4B55138  19.310  28.792   7.353
 4335POPC   NC355139  26.265  31.993   5.455
 4335POPC   PO455140  25.924  32.600   5.458
 4335POPC   GL155141  26.083  32.330   5.793
 4335POPC   GL255142  25.900  31.988   5.818
 4335POPC   C1A55143  26.256  32.301   6.198
 4335POPC   D2A55144  25.965  32.319   6.546
 4335POPC   C3A55145  26.169  32.424   6.920
 4335POPC   C4A55146  26.126  32.716   7.240
 4335POPC   C1B55147  26.022  31.852   6.249
 4335POPC   C2B55148  26.321  31.954   6.574
 4335POPC   C3B55149  26.110  31.836   6.894
 4335POPC   C4B55150  26.043  32.042   7.231
 4336POPC   NC355151  25.085  10.611   5.724
 4336POPC   PO455152  25.494  10.086   5.719
 4336POPC   GL155153  25.406  10.337   6.049
 4336POPC   GL255154  25.378  10.712   6.132
 4336POPC   C1A55155  25.503  10.334   6.459
 4336POPC   D2A55156  25.580  10.669   6.650
 4336POPC   C3A55157  25.416  10.565   6.999
 4336POPC   C4A55158  25.509  10.909   7.209
 4336POPC   C1B55159  25.030  10.511   6.412
 4336POPC   C2B55160  24.921  10.479   6.860
 4336POPC   C3B55161  24.988  10.701   7.258
 4336POPC   C4B55162  24.909  10.557   7.694
 4337POPC   NC355163  32.794  33.018   5.278
 4337POPC   PO455164  33.316  32.569   5.414
 4337POPC   GL155165  33.056  32.842   5.698
 4337POPC   GL255166  33.039  33.196   5.747
 4337POPC   C1A55167  33.052  32.902   6.162
 4337POPC   D2A55168  32.798  32.996   6.508
 4337POPC   C3A55169  32.909  33.181   6.871
 4337POPC   C4A55170  32.860  32.972   7.245
 4337POPC   C1B55171  32.900  33.366   6.140
 4337POPC   C2B55172  33.227  33.314   6.487
 4337POPC   C3B55173  33.359  33.454   6.919
 4337POPC   C4B55174  33.162  33.371   7.346
 4338POPC   NC355175   7.750  10.683   5.321
 4338POPC   PO455176   7.209  10.682   5.635
 4338POPC   GL155177   7.488  10.531   5.921
 4338POPC   GL255178   7.763  10.760   5.821
 4338POPC   C1A55179   7.352  10.209   6.263
 4338POPC   D2A55180   7.117  10.177   6.682
 4338POPC   C3A55181   7.206  10.595   6.868
 4338POPC   C4A55182   7.320  10.766   7.298
 4338POPC   C1B55183   7.973  10.774   6.182
 4338POPC   C2B55184   7.902  10.612   6.588
 4338POPC   C3B55185   7.743  10.591   7.015
 4338POPC   C4B55186   7.491  10.268   7.202
 4339POPC   NC355187  11.609  17.016   5.427
 4339POPC   PO455188  11.000  16.776   5.313
 4339POPC   GL155189  11.162  16.749   5.743
 4339POPC   GL255190  11.490  16.641   5.785
 4339POPC   C1A55191  11.223  16.869   6.182
 4339POPC   D2A55192  11.013  16.753   6.579
 4339POPC   C3A55193  11.269  16.620   6.906
 4339POPC   C4A55194  11.236  16.830   7.265
 4339POPC   C1B55195  11.489  16.427   6.218
 4339POPC   C2B55196  11.724  16.264   6.539
 4339POPC   C3B55197  11.751  16.399   6.961
 4339POPC   C4B55198  11.565  16.453   7.345
 4340POPC   NC355199  19.329  28.911   5.662
 4340POPC   PO455200  18.893  29.261   5.248
 4340POPC   GL155201  18.945  29.252   5.728
 4340POPC   GL255202  19.239  29.346   5.940
 4340POPC   C1A55203  18.939  28.996   6.157
 4340POPC   D2A55204  18.776  28.757   6.499
 4340POPC   C3A55205  18.993  28.786   6.914
 4340POPC   C4A55206  18.851  28.996   7.303
 4340POPC   C1B55207  19.151  29.442   6.359
 4340POPC   C2B55208  18.983  29.265   6.726
 4340POPC   C3B55209  19.219  29.283   7.107
 4340POPC   C4B55210  19.130  29.511   7.461
 4341POPC   NC355211   5.593  36.505   5.300
 4341POPC   PO455212   6.022  36.119   5.524
 4341POPC   GL155213   5.957  36.156   5.920
 4341POPC   GL255214   5.618  36.285   5.946
 4341POPC   C1A55215   5.940  36.171   6.342
 4341POPC   D2A55216   5.735  36.214   6.683
 4341POPC   C3A55217   6.017  36.253   7.018
 4341POPC   C4A55218   6.191  36.314   7.404
 4341POPC   C1B55219   5.593  35.846   6.164
 4341POPC   C2B55220   5.413  35.811   6.597
 4341POPC   C3B55221   5.606  35.849   7.014
 4341POPC   C4B55222   5.777  36.020   7.422
 4342POPC   NC355223   7.646  30.219   5.269
 4342POPC   PO455224   7.071  30.029   5.534
 4342POPC   GL155225   7.337  29.918   5.852
 4342POPC   GL255226   7.521  30.195   5.982
 4342POPC   C1A55227   7.598  29.707   6.138
 4342POPC   D2A55228   7.753  29.802   6.537
 4342POPC   C3A55229   7.440  29.839   6.799
 4342POPC   C4A55230   7.450  29.843   7.185
 4342POPC   C1B55231   7.305  30.070   6.347
 4342POPC   C2B55232   7.098  30.202   6.694
 4342POPC   C3B55233   7.347  30.314   7.017
 4342POPC   C4B55234   7.608  30.274   7.364
 4343POPC   NC355235  44.313  17.867   5.382
 4343POPC   PO455236  44.827  17.399   5.447
 4343POPC   GL155237  44.618  17.637   5.716
 4343POPC   GL255238  44.640  17.349   5.930
 4343POPC   C1A55239  44.616  17.827   6.102
 4343POPC   D2A55240  44.783  17.628   6.408
 4343POPC   C3A55241  44.634  17.650   6.838
 4343POPC   C4A55242  44.600  17.798   7.289
 4343POPC   C1B55243  44.312  17.288   6.195
 4343POPC   C2B55244  44.296  17.013   6.545
 4343POPC   C3B55245  44.341  17.043   6.995
 4343POPC   C4B55246  44.667  17.298   7.210
 4344POPC   NC355247   8.520  31.586   5.403
 4344POPC   PO455248   8.643  31.003   5.706
 4344POPC   GL155249   9.048  31.295   5.832
 4344POPC   GL255250   9.112  31.677   5.775
 4344POPC   C1A55251   9.269  31.465   6.223
 4344POPC   D2A55252   9.261  31.326   6.678
 4344POPC   C3A55253   8.871  31.182   6.910
 4344POPC   C4A55254   8.670  31.296   7.314
 4344POPC   C1B55255   8.866  31.835   6.147
 4344POPC   C2B55256   8.732  31.906   6.598
 4344POPC   C3B55257   8.866  31.703   6.985
 4344POPC   C4B55258   8.931  31.739   7.414
 4345POPC   NC355259  42.965  24.998   5.325
 4345POPC   PO455260  43.347  24.408   5.501
 4345POPC   GL155261  43.091  24.642   5.775
 4345POPC   GL255262  43.334  24.549   6.024
 4345POPC   C1A55263  42.853  24.524   6.143
 4345POPC   D2A55264  43.084  24.427   6.509
 4345POPC   C3A55265  42.912  24.427   6.931
 4345POPC   C4A55266  42.962  24.689   7.273
 4345POPC   C1B55267  43.552  24.278   6.301
 4345POPC   C2B55268  43.592  24.057   6.690
 4345POPC   C3B55269  43.264  24.042   6.979
 4345POPC   C4B55270  43.322  24.314   7.307
 4346POPC   NC355271  35.738  23.917   5.244
 4346POPC   PO455272  36.380  23.743   5.428
 4346POPC   GL155273  36.077  23.896   5.700
 4346POPC   GL255274  36.241  23.658   5.921
 4346POPC   C1A55275  35.992  24.031   6.140
 4346POPC   D2A55276  35.922  23.877   6.583
 4346POPC   C3A55277  36.227  23.973   6.905
 4346POPC   C4A55278  36.034  23.772   7.249
 4346POPC   C1B55279  36.158  23.361   6.216
 4346POPC   C2B55280  36.324  23.517   6.565
 4346POPC   C3B55281  36.350  23.489   6.971
 4346POPC   C4B55282  36.575  23.700   7.285
 4347POPC   NC355283   2.695  39.778   5.351
 4347POPC   PO455284   2.629  40.471   5.314
 4347POPC   GL155285   2.475  40.331   5.742
 4347POPC   GL255286   2.652  40.017   5.817
 4347POPC   C1A55287   2.461  40.272   6.222
 4347POPC   D2A55288   2.686  40.063   6.572
 4347POPC   C3A55289   2.719  40.240   7.007
 4347POPC   C4A55290   2.375  40.418   7.260
 4347POPC   C1B55291   2.612  39.704   6.144
 4347POPC   C2B55292   2.588  39.555   6.561
 4347POPC   C3B55293   2.600  39.743   6.968
 4347POPC   C4B55294   2.539  39.946   7.406
 4348POPC   NC355295  44.364  25.008   5.455
 4348POPC   PO455296  44.836  25.494   5.445
 4348POPC   GL155297  44.602  25.326   5.825
 4348POPC   GL255298  44.290  25.114   5.951
 4348POPC   C1A55299  44.783  25.298   6.236
 4348POPC   D2A55300  44.961  25.551   6.577
 4348POPC   C3A55301  44.743  25.431   6.951
 4348POPC   C4A55302  44.506  25.451   7.308
 4348POPC   C1B55303  44.395  24.943   6.336
 4348POPC   C2B55304  44.501  24.987   6.760
 4348POPC   C3B55305  44.310  25.001   7.170
 4348POPC   C4B55306  44.297  25.103   7.648
 4349POPC   NC355307   8.508  18.039   5.483
 4349POPC   PO455308   9.058  18.408   5.438
 4349POPC   GL155309   8.927  18.404   5.842
 4349POPC   GL255310   8.932  18.049   5.833
 4349POPC   C1A55311   8.820  18.416   6.284
 4349POPC   D2A55312   8.980  18.273   6.678
 4349POPC   C3A55313   8.681  18.150   7.018
 4349POPC   C4A55314   8.596  18.477   7.319
 4349POPC   C1B55315   9.169  18.026   6.225
 4349POPC   C2B55316   9.336  17.927   6.626
 4349POPC   C3B55317   9.161  17.929   7.030
 4349POPC   C4B55318   9.288  17.793   7.397
 4350POPC   NC355319  38.444  28.178   5.349
 4350POPC   PO455320  38.064  28.694   5.645
 4350POPC   GL155321  38.262  28.475   5.985
 4350POPC   GL255322  38.517  28.291   5.839
 4350POPC   C1A55323  38.461  28.551   6.376
 4350POPC   D2A55324  38.391  28.274   6.665
 4350POPC   C3A55325  38.353  28.403   7.036
 4350POPC   C4A55326  38.691  28.618   7.273
 4350POPC   C1B55327  38.527  28.064   6.223
 4350POPC   C2B55328  38.717  27.899   6.623
 4350POPC   C3B55329  38.801  28.161   6.994
 4350POPC   C4B55330  38.601  28.129   7.396
 4351POPC   NC355331   4.793   2.463   5.160
 4351POPC   PO455332   5.315   2.764   5.257
 4351POPC   GL155333   5.324   2.675   5.731
 4351POPC   GL255334   5.042   2.472   5.769
 4351POPC   C1A55335   5.279   2.643   6.207
 4351POPC   D2A55336   5.229   2.447   6.637
 4351POPC   C3A55337   5.187   2.673   7.023
 4351POPC   C4A55338   5.262   2.666   7.494
 4351POPC   C1B55339   4.789   2.561   6.149
 4351POPC   C2B55340   4.788   2.747   6.528
 4351POPC   C3B55341   4.675   2.717   6.934
 4351POPC   C4B55342   4.863   2.936   7.295
 4352POPC   NC355343  11.914   8.768   5.409
 4352POPC   PO455344  12.214   9.340   5.556
 4352POPC   GL155345  12.111   8.982   5.870
 4352POPC   GL255346  11.822   8.720   5.899
 4352POPC   C1A55347  12.068   8.910   6.319
 4352POPC   D2A55348  12.163   9.181   6.627
 4352POPC   C3A55349  12.052   9.092   7.028
 4352POPC   C4A55350  12.403   9.325   7.168
 4352POPC   C1B55351  12.234   8.500   6.048
 4352POPC   C2B55352  12.315   8.393   6.492
 4352POPC   C3B55353  12.393   8.408   6.937
 4352POPC   C4B55354  12.141   8.610   7.216
 4353POPC   NC355355  37.199  20.069   5.273
 4353POPC   PO455356  36.560  20.300   5.474
 4353POPC   GL155357  36.674  19.966   5.850
 4353POPC   GL255358  37.058  19.934   5.945
 4353POPC   C1A55359  36.703  19.783   6.284
 4353POPC   D2A55360  36.953  19.946   6.635
 4353POPC   C3A55361  36.767  19.818   6.998
 4353POPC   C4A55362  36.495  19.507   7.149
 4353POPC   C1B55363  37.182  19.607   6.294
 4353POPC   C2B55364  37.027  19.455   6.739
 4353POPC   C3B55365  37.165  19.508   7.200
 4353POPC   C4B55366  37.186  19.561   7.694
 4354POPC   NC355367   0.065   3.086   5.628
 4354POPC   PO455368   0.528   2.742   5.325
 4354POPC   GL155369   0.635   2.643   5.781
 4354POPC   GL255370   0.571   2.976   5.882
 4354POPC   C1A55371   0.428   2.618   6.238
 4354POPC   D2A55372   0.126   2.788   6.602
 4354POPC   C3A55373   0.236   2.575   7.002
 4354POPC   C4A55374   0.700   2.565   7.083
 4354POPC   C1B55375   0.330   3.135   6.242
 4354POPC   C2B55376   0.460   3.195   6.672
 4354POPC   C3B55377   0.261   3.066   7.067
 4354POPC   C4B55378   0.257   2.821   7.487
 4355POPC   NC355379  15.854  19.176   5.414
 4355POPC   PO455380  16.155  18.556   5.288
 4355POPC   GL155381  16.081  18.652   5.741
 4355POPC   GL255382  15.928  18.978   5.860
 4355POPC   C1A55383  16.289  18.799   6.159
 4355POPC   D2A55384  16.381  19.004   6.573
 4355POPC   C3A55385  16.143  18.853   6.953
 4355POPC   C4A55386  16.207  18.699   7.385
 4355POPC   C1B55387  16.048  19.266   6.201
 4355POPC   C2B55388  15.908  19.225   6.644
 4355POPC   C3B55389  15.993  19.321   7.085
 4355POPC   C4B55390  16.150  19.191   7.532
 4356POPC   NC355391  18.671   7.577   5.521
 4356POPC   PO455392  18.046   7.625   5.595
 4356POPC   GL155393  18.244   7.346   5.901
 4356POPC   GL255394  18.579   7.193   5.862
 4356POPC   C1A55395  18.211   7.349   6.344
 4356POPC   D2A55396  17.963   7.582   6.617
 4356POPC   C3A55397  18.218   7.536   6.906
 4356POPC   C4A55398  18.266   7.367   7.229
 4356POPC   C1B55399  18.675   7.508   6.196
 4356POPC   C2B55400  18.725   7.417   6.668
 4356POPC   C3B55401  18.749   7.504   7.102
 4356POPC   C4B55402  18.753   7.323   7.519
 4357POPC   NC355403  27.319  12.794   5.462
 4357POPC   PO455404  27.896  12.840   5.660
 4357POPC   GL155405  27.564  12.756   5.933
 4357POPC   GL255406  27.217  12.592   5.923
 4357POPC   C1A55407  27.650  12.770   6.346
 4357POPC   D2A55408  27.484  12.637   6.708
 4357POPC   C3A55409  27.700  12.717   7.116
 4357POPC   C4A55410  27.616  12.488   7.499
 4357POPC   C1B55411  27.159  12.957   6.193
 4357POPC   C2B55412  27.215  13.114   6.601
 4357POPC   C3B55413  27.294  13.008   7.023
 4357POPC   C4B55414  27.292  12.875   7.441
 4358POPC   NC355415  35.522  11.776   5.532
 4358POPC   PO455416  35.322  11.145   5.265
 4358POPC   GL155417  35.421  11.303   5.700
 4358POPC   GL255418  35.112  11.236   5.891
 4358POPC   C1A55419  35.561  11.189   6.122
 4358POPC   D2A55420  35.733  10.993   6.484
 4358POPC   C3A55421  35.689  11.311   6.813
 4358POPC   C4A55422  35.631  11.287   7.236
 4358POPC   C1B55423  35.129  11.403   6.300
 4358POPC   C2B55424  35.236  11.188   6.649
 4358POPC   C3B55425  35.158  11.340   7.038
 4358POPC   C4B55426  34.903  11.709   7.084
 4359POPC   NC355427  16.818  19.431   5.494
 4359POPC   PO455428  16.537  20.079   5.424
 4359POPC   GL155429  16.491  19.771   5.725
 4359POPC   GL255430  16.857  19.841   5.795
 4359POPC   C1A55431  16.507  19.647   6.159
 4359POPC   D2A55432  16.600  19.916   6.524
 4359POPC   C3A55433  16.676  19.750   6.956
 4359POPC   C4A55434  16.374  19.596   7.273
 4359POPC   C1B55435  17.022  19.662   6.177
 4359POPC   C2B55436  17.093  19.765   6.615
 4359POPC   C3B55437  17.168  19.535   7.016
 4359POPC   C4B55438  16.871  19.463   7.358
 4360POPC   NC355439  36.441  13.175   5.519
 4360POPC   PO455440  37.116  12.951   5.450
 4360POPC   GL155441  36.913  12.997   5.842
 4360POPC   GL255442  36.580  12.796   5.880
 4360POPC   C1A55443  36.958  12.838   6.252
 4360POPC   D2A55444  36.693  12.659   6.529
 4360POPC   C3A55445  36.890  12.761   6.895
 4360POPC   C4A55446  36.999  12.845   7.300
 4360POPC   C1B55447  36.491  13.068   6.245
 4360POPC   C2B55448  36.582  13.148   6.700
 4360POPC   C3B55449  36.522  13.080   7.153
 4360POPC   C4B55450  36.660  13.120   7.579
 4361POPC   NC355451   4.204  12.697   5.250
 4361POPC   PO455452   4.751  12.957   5.444
 4361POPC   GL155453   4.345  12.920   5.702
 4361POPC   GL255454   4.297  12.557   5.760
 4361POPC   C1A55455   4.099  12.885   6.108
 4361POPC   D2A55456   4.086  12.590   6.429
 4361POPC   C3A55457   4.082  12.677   6.890
 4361POPC   C4A55458   4.236  13.009   7.190
 4361POPC   C1B55459   4.553  12.678   6.137
 4361POPC   C2B55460   4.514  12.819   6.587
 4361POPC   C3B55461   4.577  12.654   6.974
 4361POPC   C4B55462   4.620  12.744   7.386
 4362POPC   NC355463  28.929  43.931   5.436
 4362POPC   PO455464  29.617  43.946   5.470
 4362POPC   GL155465  29.427  43.908   5.874
 4362POPC   GL255466  29.066  43.859   5.923
 4362POPC   C1A55467  29.388  43.953   6.318
 4362POPC   D2A55468  29.192  44.064   6.684
 4362POPC   C3A55469  29.366  43.843   7.014
 4362POPC   C4A55470  29.349  44.010   7.400
 4362POPC   C1B55471  28.892  43.836   6.340
 4362POPC   C2B55472  28.871  43.676   6.767
 4362POPC   C3B55473  28.884  43.934   7.121
 4362POPC   C4B55474  28.865  43.895   7.563
 4363POPC   NC355475  44.709   2.004   5.353
 4363POPC   PO455476  44.252   1.578   5.669
 4363POPC   GL155477  44.533   1.880   5.873
 4363POPC   GL255478  44.582   2.204   5.794
 4363POPC   C1A55479  44.841   1.989   6.192
 4363POPC   D2A55480  44.618   1.978   6.576
 4363POPC   C3A55481  44.708   1.686   6.922
 4363POPC   C4A55482  44.690   1.921   7.307
 4363POPC   C1B55483  44.365   2.276   6.162
 4363POPC   C2B55484  44.325   2.469   6.553
 4363POPC   C3B55485  44.455   2.329   6.959
 4363POPC   C4B55486  44.348   2.290   7.373
 4364POPC   NC355487   6.325  42.336   5.482
 4364POPC   PO455488   5.666  42.455   5.408
 4364POPC   GL155489   5.767  42.505   5.842
 4364POPC   GL255490   6.044  42.298   5.889
 4364POPC   C1A55491   5.898  42.574   6.301
 4364POPC   D2A55492   6.054  42.428   6.724
 4364POPC   C3A55493   5.716  42.275   7.012
 4364POPC   C4A55494   5.650  42.245   7.465
 4364POPC   C1B55495   6.223  42.143   6.259
 4364POPC   C2B55496   6.397  41.911   6.580
 4364POPC   C3B55497   6.252  41.984   6.987
 4364POPC   C4B55498   6.134  42.297   7.350
 4365POPC   NC355499   1.496  34.328   5.463
 4365POPC   PO455500   1.120  34.928   5.409
 4365POPC   GL155501   1.276  34.711   5.732
 4365POPC   GL255502   1.035  34.431   5.737
 4365POPC   C1A55503   1.435  34.796   6.116
 4365POPC   D2A55504   1.418  34.526   6.471
 4365POPC   C3A55505   1.349  34.693   6.878
 4365POPC   C4A55506   1.301  34.434   7.255
 4365POPC   C1B55507   0.949  34.609   6.149
 4365POPC   C2B55508   0.897  34.515   6.602
 4365POPC   C3B55509   0.868  34.560   7.039
 4365POPC   C4B55510   1.086  34.886   7.275
 4366POPC   NC355511  41.821  39.245   5.405
 4366POPC   PO455512  41.291  38.897   5.201
 4366POPC   GL155513  41.451  39.202   5.723
 4366POPC   GL255514  41.669  39.452   5.847
 4366POPC   C1A55515  41.523  39.090   6.211
 4366POPC   D2A55516  41.737  38.994   6.633
 4366POPC   C3A55517  41.411  39.002   6.910
 4366POPC   C4A55518  41.416  38.929   7.356
 4366POPC   C1B55519  41.788  39.522   6.280
 4366POPC   C2B55520  41.585  39.471   6.704
 4366POPC   C3B55521  41.555  39.407   7.180
 4366POPC   C4B55522  41.773  39.572   7.534
 4367POPC   NC355523  21.269   9.082   5.388
 4367POPC   PO455524  21.593   8.373   5.394
 4367POPC   GL155525  21.506   8.713   5.688
 4367POPC   GL255526  21.617   9.064   5.754
 4367POPC   C1A55527  21.443   8.716   6.141
 4367POPC   D2A55528  21.649   8.622   6.545
 4367POPC   C3A55529  21.432   8.779   6.924
 4367POPC   C4A55530  21.534   8.919   7.318
 4367POPC   C1B55531  21.357   9.221   6.084
 4367POPC   C2B55532  21.313   9.065   6.512
 4367POPC   C3B55533  21.374   9.286   6.891
 4367POPC   C4B55534  21.153   9.279   7.242
 4368POPC   NC355535   3.403  10.748   5.597
 4368POPC   PO455536   3.537  11.373   5.339
 4368POPC   GL155537   3.407  11.253   5.778
 4368POPC   GL255538   3.678  11.095   5.882
 4368POPC   C1A55539   3.399  11.226   6.286
 4368POPC   D2A55540   3.178  11.514   6.592
 4368POPC   C3A55541   3.247  11.556   7.055
 4368POPC   C4A55542   3.269  11.172   7.267
 4368POPC   C1B55543   3.875  11.427   6.203
 4368POPC   C2B55544   3.869  11.524   6.665
 4368POPC   C3B55545   3.757  11.369   7.099
 4368POPC   C4B55546   3.935  11.181   7.492
 4369POPC   NC355547  17.052  43.363   5.588
 4369POPC   PO455548  16.508  43.019   5.303
 4369POPC   GL155549  16.561  42.952   5.767
 4369POPC   GL255550  16.648  43.289   5.902
 4369POPC   C1A55551  16.522  42.976   6.259
 4369POPC   D2A55552  16.705  43.145   6.655
 4369POPC   C3A55553  16.943  42.860   6.904
 4369POPC   C4A55554  16.974  42.670   7.300
 4369POPC   C1B55555  16.998  43.189   6.215
 4369POPC   C2B55556  17.155  43.389   6.581
 4369POPC   C3B55557  17.036  43.358   7.005
 4369POPC   C4B55558  16.633  43.229   7.177
 4370POPC   NC355559  41.602   2.933   5.221
 4370POPC   PO455560  41.369   2.358   5.217
 4370POPC   GL155561  41.521   2.610   5.627
 4370POPC   GL255562  41.747   2.912   5.715
 4370POPC   C1A55563  41.416   2.737   6.070
 4370POPC   D2A55564  41.273   2.534   6.438
 4370POPC   C3A55565  41.413   2.671   6.858
 4370POPC   C4A55566  41.420   2.889   7.254
 4370POPC   C1B55567  41.855   3.019   6.138
 4370POPC   C2B55568  41.689   3.003   6.574
 4370POPC   C3B55569  41.831   3.058   7.006
 4370POPC   C4B55570  41.761   3.170   7.474
 4371POPC   NC355571  38.853  12.278   5.577
 4371POPC   PO455572  38.450  11.772   5.392
 4371POPC   GL155573  38.482  11.925   5.797
 4371POPC   GL255574  38.373  12.262   5.848
 4371POPC   C1A55575  38.598  11.946   6.230
 4371POPC   D2A55576  38.669  11.836   6.657
 4371POPC   C3A55577  38.759  12.150   6.988
 4371POPC   C4A55578  38.487  12.337   7.301
 4371POPC   C1B55579  38.286  12.375   6.313
 4371POPC   C2B55580  38.307  12.297   6.783
 4371POPC   C3B55581  38.321  11.881   7.034
 4371POPC   C4B55582  38.103  11.531   7.212
 4372POPC   NC355583  26.393  42.630   5.467
 4372POPC   PO455584  26.722  42.045   5.514
 4372POPC   GL155585  26.786  42.364   5.831
 4372POPC   GL255586  27.085  42.177   5.882
 4372POPC   C1A55587  26.923  42.514   6.271
 4372POPC   D2A55588  27.051  42.380   6.689
 4372POPC   C3A55589  26.959  42.590   7.070
 4372POPC   C4A55590  26.820  42.773   7.451
 4372POPC   C1B55591  26.921  42.013   6.276
 4372POPC   C2B55592  26.607  42.185   6.553
 4372POPC   C3B55593  26.673  42.169   6.999
 4372POPC   C4B55594  26.958  41.881   7.217
 4373POPC   NC355595  38.075   5.966   5.421
 4373POPC   PO455596  37.598   5.522   5.386
 4373POPC   GL155597  37.810   5.676   5.764
 4373POPC   GL255598  37.520   5.863   5.872
 4373POPC   C1A55599  37.911   5.825   6.203
 4373POPC   D2A55600  37.987   6.044   6.584
 4373POPC   C3A55601  37.910   5.777   6.944
 4373POPC   C4A55602  37.697   5.763   7.316
 4373POPC   C1B55603  37.329   5.671   6.195
 4373POPC   C2B55604  37.516   5.662   6.580
 4373POPC   C3B55605  37.325   5.821   6.937
 4373POPC   C4B55606  37.207   5.648   7.309
 4374POPC   NC355607  25.330  36.601   5.739
 4374POPC   PO455608  25.330  36.120   5.293
 4374POPC   GL155609  25.254  36.086   5.747
 4374POPC   GL255610  24.949  36.292   5.838
 4374POPC   C1A55611  25.476  36.102   6.183
 4374POPC   D2A55612  25.680  36.021   6.602
 4374POPC   C3A55613  25.477  36.104   6.992
 4374POPC   C4A55614  25.310  36.283   7.383
 4374POPC   C1B55615  24.973  36.017   6.182
 4374POPC   C2B55616  25.114  36.032   6.594
 4374POPC   C3B55617  24.968  36.173   6.987
 4374POPC   C4B55618  25.031  35.866   7.296
 4375POPC   NC355619  39.086  36.576   5.148
 4375POPC   PO455620  39.522  37.093   5.410
 4375POPC   GL155621  39.459  37.226   5.838
 4375POPC   GL255622  39.109  37.259   5.893
 4375POPC   C1A55623  39.392  37.115   6.304
 4375POPC   D2A55624  39.250  36.698   6.422
 4375POPC   C3A55625  39.262  36.603   6.855
 4375POPC   C4A55626  39.294  36.853   7.198
 4375POPC   C1B55627  38.885  37.151   6.277
 4375POPC   C2B55628  38.993  37.049   6.712
 4375POPC   C3B55629  38.992  37.260   7.102
 4375POPC   C4B55630  38.967  37.105   7.541
 4376POPC   NC355631  42.867  19.132   5.422
 4376POPC   PO455632  43.296  18.598   5.278
 4376POPC   GL155633  43.086  18.708   5.700
 4376POPC   GL255634  42.732  18.788   5.765
 4376POPC   C1A55635  43.161  18.887   6.156
 4376POPC   D2A55636  43.451  19.020   6.524
 4376POPC   C3A55637  43.359  18.926   6.970
 4376POPC   C4A55638  43.317  19.145   7.385
 4376POPC   C1B55639  42.678  19.074   6.167
 4376POPC   C2B55640  42.767  19.312   6.558
 4376POPC   C3B55641  42.896  19.208   7.007
 4376POPC   C4B55642  42.939  18.800   7.266
 4377POPC   NC355643  23.909  37.029   5.393
 4377POPC   PO455644  23.403  36.524   5.442
 4377POPC   GL155645  23.604  36.770   5.752
 4377POPC   GL255646  23.472  37.114   5.719
 4377POPC   C1A55647  23.881  36.690   6.103
 4377POPC   D2A55648  23.727  36.730   6.516
 4377POPC   C3A55649  24.070  36.807   6.805
 4377POPC   C4A55650  23.864  36.785   7.164
 4377POPC   C1B55651  23.634  37.142   6.133
 4377POPC   C2B55652  23.916  37.197   6.491
 4377POPC   C3B55653  23.879  37.314   6.913
 4377POPC   C4B55654  23.671  37.239   7.279
 4378POPC   NC355655  26.822  32.771   5.675
 4378POPC   PO455656  26.839  33.289   5.236
 4378POPC   GL155657  27.020  33.299   5.734
 4378POPC   GL255658  26.844  33.126   6.052
 4378POPC   C1A55659  27.291  33.299   6.132
 4378POPC   D2A55660  27.274  33.046   6.514
 4378POPC   C3A55661  27.049  33.146   6.894
 4378POPC   C4A55662  27.203  33.407   7.227
 4378POPC   C1B55663  26.542  33.310   6.349
 4378POPC   C2B55664  26.536  33.290   6.799
 4378POPC   C3B55665  26.539  32.878   6.966
 4378POPC   C4B55666  26.732  32.716   7.292
 4379POPC   NC355667  25.698  26.736   5.518
 4379POPC   PO455668  26.414  27.077   5.469
 4379POPC   GL155669  26.362  26.876   5.889
 4379POPC   GL255670  26.024  26.729   5.950
 4379POPC   C1A55671  26.259  26.969   6.311
 4379POPC   D2A55672  26.055  26.753   6.596
 4379POPC   C3A55673  26.156  26.928   6.989
 4379POPC   C4A55674  26.308  26.873   7.397
 4379POPC   C1B55675  25.745  27.020   6.171
 4379POPC   C2B55676  25.583  26.914   6.552
 4379POPC   C3B55677  25.674  26.718   6.945
 4379POPC   C4B55678  25.833  26.726   7.344
 4380POPC   NC355679   1.060  21.108   4.970
 4380POPC   PO455680   1.213  21.457   5.506
 4380POPC   GL155681   1.045  21.568   5.880
 4380POPC   GL255682   1.241  21.852   5.874
 4380POPC   C1A55683   1.081  21.412   6.294
 4380POPC   D2A55684   1.358  21.143   6.508
 4380POPC   C3A55685   1.280  21.209   6.921
 4380POPC   C4A55686   1.342  21.395   7.308
 4380POPC   C1B55687   1.051  21.925   6.249
 4380POPC   C2B55688   0.841  21.757   6.600
 4380POPC   C3B55689   1.107  21.701   6.949
 4380POPC   C4B55690   1.026  21.791   7.340
 4381POPC   NC355691   2.204  32.892   5.413
 4381POPC   PO455692   1.531  33.128   5.407
 4381POPC   GL155693   1.709  33.085   5.848
 4381POPC   GL255694   2.043  32.910   5.911
 4381POPC   C1A55695   1.722  33.039   6.314
 4381POPC   D2A55696   2.020  33.179   6.652
 4381POPC   C3A55697   2.009  33.057   7.096
 4381POPC   C4A55698   1.715  32.989   7.422
 4381POPC   C1B55699   2.133  32.737   6.332
 4381POPC   C2B55700   2.043  32.654   6.777
 4381POPC   C3B55701   1.980  32.557   7.217
 4381POPC   C4B55702   2.175  32.825   7.538
 4382POPC   NC355703  19.307  34.581   5.384
 4382POPC   PO455704  18.795  34.093   5.520
 4382POPC   GL155705  18.918  34.463   5.839
 4382POPC   GL255706  18.654  34.726   5.859
 4382POPC   C1A55707  19.080  34.710   6.235
 4382POPC   D2A55708  19.207  34.506   6.659
 4382POPC   C3A55709  19.340  34.592   7.118
 4382POPC   C4A55710  19.104  34.467   7.491
 4382POPC   C1B55711  18.621  34.962   6.237
 4382POPC   C2B55712  18.805  34.886   6.646
 4382POPC   C3B55713  18.847  34.676   7.044
 4382POPC   C4B55714  18.698  34.740   7.448
 4383POPC   NC355715  15.530  42.400   5.521
 4383POPC   PO455716  14.905  42.180   5.356
 4383POPC   GL155717  15.088  42.147   5.776
 4383POPC   GL255718  15.063  42.482   5.812
 4383POPC   C1A55719  15.227  42.213   6.223
 4383POPC   D2A55720  15.400  42.487   6.566
 4383POPC   C3A55721  15.397  42.325   6.996
 4383POPC   C4A55722  15.328  42.107   7.370
 4383POPC   C1B55723  15.032  42.701   6.218
 4383POPC   C2B55724  15.053  42.864   6.636
 4383POPC   C3B55725  15.034  42.649   7.004
 4383POPC   C4B55726  14.785  42.577   7.341
 4384POPC   NC355727  35.072  22.107   5.356
 4384POPC   PO455728  35.604  22.520   5.320
 4384POPC   GL155729  35.514  22.281   5.685
 4384POPC   GL255730  35.177  22.230   5.838
 4384POPC   C1A55731  35.611  22.169   6.101
 4384POPC   D2A55732  35.353  22.174   6.457
 4384POPC   C3A55733  35.474  22.375   6.814
 4384POPC   C4A55734  35.567  22.122   7.166
 4384POPC   C1B55735  34.966  22.023   6.155
 4384POPC   C2B55736  34.890  21.849   6.535
 4384POPC   C3B55737  35.158  21.883   6.890
 4384POPC   C4B55738  35.056  22.238   7.120
 4385POPC   NC355739  26.461  22.929   5.425
 4385POPC   PO455740  25.805  22.922   5.335
 4385POPC   GL155741  26.040  23.062   5.700
 4385POPC   GL255742  26.046  22.737   5.818
 4385POPC   C1A55743  26.341  23.068   6.068
 4385POPC   D2A55744  26.285  22.916   6.493
 4385POPC   C3A55745  26.246  23.172   6.865
 4385POPC   C4A55746  26.031  23.076   7.248
 4385POPC   C1B55747  25.791  22.549   6.130
 4385POPC   C2B55748  25.875  22.497   6.540
 4385POPC   C3B55749  25.962  22.691   6.921
 4385POPC   C4B55750  25.654  22.720   7.250
 4386POPC   NC355751  11.600  18.822   5.472
 4386POPC   PO455752  11.071  19.261   5.313
 4386POPC   GL155753  11.245  19.223   5.751
 4386POPC   GL255754  10.932  19.376   5.866
 4386POPC   C1A55755  11.550  19.070   6.130
 4386POPC   D2A55756  11.824  18.865   6.491
 4386POPC   C3A55757  11.636  18.680   6.882
 4386POPC   C4A55758  11.351  18.918   7.190
 4386POPC   C1B55759  11.107  19.264   6.276
 4386POPC   C2B55760  11.201  19.117   6.717
 4386POPC   C3B55761  11.033  19.330   7.088
 4386POPC   C4B55762  11.095  19.261   7.534
 4387POPC   NC355763  20.924  21.316   5.392
 4387POPC   PO455764  20.340  21.043   5.515
 4387POPC   GL155765  20.526  21.365   5.792
 4387POPC   GL255766  20.859  21.335   5.912
 4387POPC   C1A55767  20.497  21.520   6.230
 4387POPC   D2A55768  20.721  21.401   6.634
 4387POPC   C3A55769  20.581  21.508   7.064
 4387POPC   C4A55770  20.261  21.712   7.352
 4387POPC   C1B55771  20.997  21.674   6.233
 4387POPC   C2B55772  21.183  21.610   6.640
 4387POPC   C3B55773  21.085  21.521   7.070
 4387POPC   C4B55774  20.884  21.119   7.265
 4388POPC   NC355775  13.820  11.822   5.541
 4388POPC   PO455776  13.384  12.343   5.520
 4388POPC   GL155777  13.589  12.205   5.859
 4388POPC   GL255778  13.912  12.331   5.884
 4388POPC   C1A55779  13.582  11.909   6.203
 4388POPC   D2A55780  13.454  11.672   6.584
 4388POPC   C3A55781  13.470  11.852   6.999
 4388POPC   C4A55782  13.436  12.275   7.127
 4388POPC   C1B55783  13.865  12.362   6.310
 4388POPC   C2B55784  13.707  12.323   6.700
 4388POPC   C3B55785  13.891  12.518   7.052
 4388POPC   C4B55786  13.727  12.700   7.377
 4389POPC   NC355787  36.665  15.823   5.533
 4389POPC   PO455788  36.046  15.686   5.255
 4389POPC   GL155789  36.055  15.817   5.762
 4389POPC   GL255790  36.313  15.611   5.832
 4389POPC   C1A55791  36.040  16.130   6.139
 4389POPC   D2A55792  35.811  16.193   6.551
 4389POPC   C3A55793  36.015  16.114   6.971
 4389POPC   C4A55794  35.889  15.978   7.350
 4389POPC   C1B55795  36.172  15.640   6.246
 4389POPC   C2B55796  36.095  15.729   6.651
 4389POPC   C3B55797  35.985  15.579   7.048
 4389POPC   C4B55798  36.303  15.707   7.344
 4390POPC   NC355799  34.109   7.131   5.405
 4390POPC   PO455800  34.689   6.691   5.383
 4390POPC   GL155801  34.866   6.553   5.787
 4390POPC   GL255802  34.553   6.428   5.880
 4390POPC   C1A55803  34.839   6.718   6.253
 4390POPC   D2A55804  34.770   6.580   6.695
 4390POPC   C3A55805  34.845   6.839   7.086
 4390POPC   C4A55806  34.909   6.626   7.526
 4390POPC   C1B55807  34.387   6.835   5.999
 4390POPC   C2B55808  34.324   6.864   6.446
 4390POPC   C3B55809  34.320   6.712   6.878
 4390POPC   C4B55810  34.560   6.446   7.194
 4391POPC   NC355811   2.010  19.528   5.378
 4391POPC   PO455812   1.863  20.173   5.266
 4391POPC   GL155813   1.852  19.931   5.700
 4391POPC   GL255814   2.167  19.781   5.820
 4391POPC   C1A55815   1.836  19.912   6.198
 4391POPC   D2A55816   1.857  20.195   6.604
 4391POPC   C3A55817   2.220  20.270   6.834
 4391POPC   C4A55818   2.213  20.145   7.263
 4391POPC   C1B55819   2.505  19.712   6.135
 4391POPC   C2B55820   2.504  19.838   6.557
 4391POPC   C3B55821   2.132  19.762   6.784
 4391POPC   C4B55822   2.071  19.648   7.182
 4392POPC   NC355823  26.418  28.424   5.507
 4392POPC   PO455824  25.741  28.459   5.358
 4392POPC   GL155825  25.983  28.475   5.760
 4392POPC   GL255826  26.242  28.242   5.951
 4392POPC   C1A55827  25.835  28.503   6.181
 4392POPC   D2A55828  25.982  28.305   6.550
 4392POPC   C3A55829  25.783  28.534   6.875
 4392POPC   C4A55830  25.776  28.472   7.288
 4392POPC   C1B55831  26.316  27.891   6.251
 4392POPC   C2B55832  26.351  27.884   6.701
 4392POPC   C3B55833  26.272  28.215   6.981
 4392POPC   C4B55834  26.250  28.308   7.407
 4393POPC   NC355835  37.384  31.263   5.396
 4393POPC   PO455836  37.865  31.709   5.590
 4393POPC   GL155837  37.883  31.363   5.852
 4393POPC   GL255838  37.542  31.231   5.854
 4393POPC   C1A55839  37.865  31.500   6.274
 4393POPC   D2A55840  37.623  31.626   6.615
 4393POPC   C3A55841  37.881  31.485   6.876
 4393POPC   C4A55842  37.933  31.477   7.305
 4393POPC   C1B55843  37.429  31.266   6.249
 4393POPC   C2B55844  37.548  31.115   6.626
 4393POPC   C3B55845  37.465  31.286   7.048
 4393POPC   C4B55846  37.212  31.512   7.295
 4394POPC   NC355847  23.716  38.852   5.292
 4394POPC   PO455848  24.177  39.312   5.239
 4394POPC   GL155849  23.914  39.151   5.663
 4394POPC   GL255850  24.096  38.844   5.750
 4394POPC   C1A55851  23.585  39.260   6.065
 4394POPC   D2A55852  23.525  39.479   6.523
 4394POPC   C3A55853  23.607  39.325   6.987
 4394POPC   C4A55854  23.518  39.297   7.475
 4394POPC   C1B55855  24.031  39.058   6.166
 4394POPC   C2B55856  23.841  39.000   6.565
 4394POPC   C3B55857  24.011  39.008   6.973
 4394POPC   C4B55858  23.999  39.195   7.356
 4395POPC   NC355859  12.169  19.644   5.415
 4395POPC   PO455860  11.704  19.275   5.489
 4395POPC   GL155861  11.979  19.194   5.830
 4395POPC   GL255862  12.334  19.347   5.821
 4395POPC   C1A55863  11.978  19.320   6.261
 4395POPC   D2A55864  12.103  19.276   6.673
 4395POPC   C3A55865  11.811  19.132   6.999
 4395POPC   C4A55866  11.830  18.823   7.345
 4395POPC   C1B55867  12.458  19.131   6.227
 4395POPC   C2B55868  12.370  18.778   6.496
 4395POPC   C3B55869  12.173  18.808   6.887
 4395POPC   C4B55870  12.253  19.116   7.248
 4396POPC   NC355871   2.745  17.370   5.460
 4396POPC   PO455872   2.539  17.936   5.184
 4396POPC   GL155873   2.573  17.860   5.683
 4396POPC   GL255874   2.923  17.764   5.813
 4396POPC   C1A55875   2.531  17.617   6.117
 4396POPC   D2A55876   2.636  17.347   6.493
 4396POPC   C3A55877   2.691  17.507   6.920
 4396POPC   C4A55878   2.595  17.256   7.270
 4396POPC   C1B55879   3.032  17.434   6.153
 4396POPC   C2B55880   3.178  17.369   6.583
 4396POPC   C3B55881   3.025  17.120   6.913
 4396POPC   C4B55882   3.088  17.078   7.341
 4397POPC   NC355883  21.964   1.700   5.609
 4397POPC   PO455884  22.385   2.107   5.350
 4397POPC   GL155885  22.268   2.101   5.830
 4397POPC   GL255886  21.949   1.957   6.032
 4397POPC   C1A55887  22.237   2.281   6.267
 4397POPC   D2A55888  21.903   2.075   6.519
 4397POPC   C3A55889  22.071   1.902   6.891
 4397POPC   C4A55890  21.968   2.101   7.285
 4397POPC   C1B55891  22.238   1.671   6.272
 4397POPC   C2B55892  22.558   1.625   6.610
 4397POPC   C3B55893  22.540   1.651   7.080
 4397POPC   C4B55894  22.498   1.572   7.523
 4398POPC   NC355895  33.534  40.255   5.530
 4398POPC   PO455896  34.111  40.060   5.373
 4398POPC   GL155897  33.925  39.991   5.813
 4398POPC   GL255898  33.576  39.842   5.857
 4398POPC   C1A55899  33.912  39.870   6.275
 4398POPC   D2A55900  33.687  39.809   6.685
 4398POPC   C3A55901  33.845  40.096   7.011
 4398POPC   C4A55902  33.997  39.976   7.404
 4398POPC   C1B55903  33.448  40.070   6.263
 4398POPC   C2B55904  33.538  40.297   6.642
 4398POPC   C3B55905  33.429  40.421   7.069
 4398POPC   C4B55906  33.514  40.221   7.442
 4399POPC   NC355907  32.134   6.075   5.530
 4399POPC   PO455908  32.356   6.600   5.120
 4399POPC   GL155909  32.287   6.564   5.623
 4399POPC   GL255910  32.411   6.831   5.871
 4399POPC   C1A55911  32.285   6.414   6.091
 4399POPC   D2A55912  32.341   6.685   6.467
 4399POPC   C3A55913  32.134   6.587   6.848
 4399POPC   C4A55914  32.255   6.437   7.244
 4399POPC   C1B55915  32.694   7.007   6.182
 4399POPC   C2B55916  32.652   7.063   6.635
 4399POPC   C3B55917  32.557   6.807   6.962
 4399POPC   C4B55918  32.312   6.964   7.244
 4400POPC   NC355919  38.062  19.322   5.118
 4400POPC   PO455920  37.440  19.130   5.281
 4400POPC   GL155921  37.587  19.097   5.746
 4400POPC   GL255922  37.932  19.032   5.761
 4400POPC   C1A55923  37.665  19.166   6.191
 4400POPC   D2A55924  37.424  19.213   6.557
 4400POPC   C3A55925  37.603  19.204   6.970
 4400POPC   C4A55926  37.999  19.219   7.190
 4400POPC   C1B55927  37.822  18.698   6.092
 4400POPC   C2B55928  37.720  18.777   6.548
 4400POPC   C3B55929  37.812  18.706   6.998
 4400POPC   C4B55930  37.622  18.819   7.389
 4401POPC   NC355931   0.364  14.014   5.575
 4401POPC   PO455932  44.953  14.504   5.517
 4401POPC   GL155933   0.245  14.523   5.864
 4401POPC   GL255934   0.334  14.849   5.960
 4401POPC   C1A55935   0.558  14.391   6.196
 4401POPC   D2A55936   0.635  14.068   6.501
 4401POPC   C3A55937   0.677  14.166   6.946
 4401POPC   C4A55938   0.639  14.577   7.126
 4401POPC   C1B55939   0.249  14.757   6.351
 4401POPC   C2B55940   0.346  14.559   6.705
 4401POPC   C3B55941   0.200  14.788   7.037
 4401POPC   C4B55942   0.258  14.731   7.495
 4402POPC   NC355943  13.341  43.216   5.414
 4402POPC   PO455944  13.903  43.612   5.592
 4402POPC   GL155945  13.880  43.152   5.808
 4402POPC   GL255946  13.720  42.792   5.819
 4402POPC   C1A55947  13.661  43.102   6.237
 4402POPC   D2A55948  13.593  43.417   6.578
 4402POPC   C3A55949  13.324  43.288   6.885
 4402POPC   C4A55950  13.466  43.197   7.270
 4402POPC   C1B55951  14.075  42.804   6.172
 4402POPC   C2B55952  14.098  42.690   6.636
 4402POPC   C3B55953  13.871  42.869   7.010
 4402POPC   C4B55954  13.969  43.216   7.299
 4403POPC   NC355955  11.500   3.899   5.391
 4403POPC   PO455956  11.382   3.246   5.337
 4403POPC   GL155957  11.228   3.318   5.754
 4403POPC   GL255958  11.516   3.537   5.816
 4403POPC   C1A55959  11.236   3.430   6.219
 4403POPC   D2A55960  11.484   3.486   6.586
 4403POPC   C3A55961  11.293   3.323   6.938
 4403POPC   C4A55962  11.006   3.555   7.195
 4403POPC   C1B55963  11.598   3.828   6.182
 4403POPC   C2B55964  11.730   4.058   6.563
 4403POPC   C3B55965  11.714   4.046   7.000
 4403POPC   C4B55966  11.512   3.700   7.196
 4404POPC   NC355967  29.954  30.155   5.460
 4404POPC   PO455968  30.132  29.449   5.263
 4404POPC   GL155969  29.935  29.670   5.642
 4404POPC   GL255970  30.220  29.861   5.800
 4404POPC   C1A55971  29.805  29.658   6.109
 4404POPC   D2A55972  29.559  29.674   6.497
 4404POPC   C3A55973  29.599  30.030   6.778
 4404POPC   C4A55974  29.838  30.062   7.182
 4404POPC   C1B55975  30.124  30.066   6.200
 4404POPC   C2B55976  30.041  29.850   6.595
 4404POPC   C3B55977  30.186  29.717   7.004
 4404POPC   C4B55978  30.299  29.935   7.393
 4405POPC   NC355979  39.820  29.923   5.297
 4405POPC   PO455980  40.378  29.948   5.198
 4405POPC   GL155981  40.171  29.916   5.672
 4405POPC   GL255982  39.812  29.780   5.783
 4405POPC   C1A55983  40.097  29.947   6.154
 4405POPC   D2A55984  40.231  29.887   6.601
 4405POPC   C3A55985  40.063  30.174   6.922
 4405POPC   C4A55986  40.104  30.011   7.322
 4405POPC   C1B55987  39.643  29.729   6.214
 4405POPC   C2B55988  39.712  29.924   6.637
 4405POPC   C3B55989  39.640  29.896   7.094
 4405POPC   C4B55990  39.442  29.601   7.378
 4406POPC   NC355991  18.977  18.213   5.532
 4406POPC   PO455992  19.208  18.835   5.463
 4406POPC   GL155993  19.218  18.549   5.839
 4406POPC   GL255994  19.461  18.247   5.761
 4406POPC   C1A55995  19.098  18.285   6.222
 4406POPC   D2A55996  19.178  18.273   6.677
 4406POPC   C3A55997  18.939  18.078   6.966
 4406POPC   C4A55998  18.852  18.329   7.348
 4406POPC   C1B55999  19.514  17.894   6.058
 4406POPC   C2B56000  19.465  17.789   6.476
 4406POPC   C3B56001  19.501  17.873   6.884
 4406POPC   C4B56002  19.358  18.128   7.230
 4407POPC   NC356003  13.336  40.560   5.640
 4407POPC   PO456004  13.727  41.043   5.350
 4407POPC   GL156005  13.926  40.950   5.770
 4407POPC   GL256006  13.839  40.605   5.887
 4407POPC   C1A56007  13.811  41.030   6.198
 4407POPC   D2A56008  13.590  41.012   6.598
 4407POPC   C3A56009  13.735  40.692   6.880
 4407POPC   C4A56010  13.975  40.879   7.193
 4407POPC   C1B56011  13.644  40.551   6.324
 4407POPC   C2B56012  13.275  40.608   6.615
 4407POPC   C3B56013  13.257  40.740   7.053
 4407POPC   C4B56014  13.322  40.535   7.486
 4408POPC   NC356015  43.208   9.180   5.389
 4408POPC   PO456016  42.817   8.624   5.289
 4408POPC   GL156017  42.919   8.837   5.692
 4408POPC   GL256018  43.067   9.142   5.856
 4408POPC   C1A56019  42.837   8.799   6.145
 4408POPC   D2A56020  43.074   8.741   6.501
 4408POPC   C3A56021  42.825   8.652   6.887
 4408POPC   C4A56022  42.968   8.815   7.270
 4408POPC   C1B56023  43.304   9.248   6.186
 4408POPC   C2B56024  43.214   9.432   6.584
 4408POPC   C3B56025  43.181   9.154   6.944
 4408POPC   C4B56026  43.386   9.103   7.328
 4409POPC   NC356027  17.742  12.652   5.286
 4409POPC   PO456028  17.263  13.063   5.361
 4409POPC   GL156029  17.332  12.852   5.742
 4409POPC   GL256030  17.625  12.675   5.793
 4409POPC   C1A56031  17.178  12.763   6.124
 4409POPC   D2A56032  17.405  12.716   6.490
 4409POPC   C3A56033  17.206  12.791   6.868
 4409POPC   C4A56034  17.386  12.852   7.258
 4409POPC   C1B56035  17.720  12.414   6.132
 4409POPC   C2B56036  17.788  12.360   6.556
 4409POPC   C3B56037  17.653  12.547   6.921
 4409POPC   C4B56038  17.791  12.400   7.282
 4410POPC   NC356039  16.083  34.253   5.517
 4410POPC   PO456040  15.580  33.916   5.361
 4410POPC   GL156041  15.718  33.641   5.704
 4410POPC   GL256042  15.446  33.584   5.917
 4410POPC   C1A56043  15.963  33.666   6.113
 4410POPC   D2A56044  16.184  33.821   6.507
 4410POPC   C3A56045  16.087  33.628   6.888
 4410POPC   C4A56046  16.081  33.389   7.246
 4410POPC   C1B56047  15.551  33.419   6.328
 4410POPC   C2B56048  15.605  33.428   6.785
 4410POPC   C3B56049  15.641  33.675   7.156
 4410POPC   C4B56050  15.412  33.953   7.388
 4411POPC   NC356051  30.109  32.662   5.566
 4411POPC   PO456052  29.958  32.094   5.314
 4411POPC   GL156053  29.902  32.174   5.770
 4411POPC   GL256054  29.687  31.880   5.878
 4411POPC   C1A56055  30.174  32.345   6.147
 4411POPC   D2A56056  30.234  32.578   6.553
 4411POPC   C3A56057  29.852  32.495   6.813
 4411POPC   C4A56058  29.708  32.336   7.205
 4411POPC   C1B56059  30.022  31.856   6.211
 4411POPC   C2B56060  30.242  32.024   6.588
 4411POPC   C3B56061  30.235  31.813   6.989
 4411POPC   C4B56062  29.997  31.864   7.337
 4412POPC   NC356063   5.833  30.397   5.332
 4412POPC   PO456064   5.974  31.116   5.352
 4412POPC   GL156065   5.777  30.810   5.642
 4412POPC   GL256066   6.029  30.813   5.876
 4412POPC   C1A56067   5.554  30.768   6.044
 4412POPC   D2A56068   5.779  30.806   6.443
 4412POPC   C3A56069   5.628  30.588   6.815
 4412POPC   C4A56070   5.684  30.557   7.257
 4412POPC   C1B56071   6.305  31.027   6.144
 4412POPC   C2B56072   6.239  31.029   6.580
 4412POPC   C3B56073   6.018  30.902   6.954
 4412POPC   C4B56074   6.064  31.087   7.344
 4413POPC   NC356075  13.046  43.919   5.397
 4413POPC   PO456076  12.450  44.138   5.190
 4413POPC   GL156077  12.615  44.004   5.682
 4413POPC   GL256078  12.736  44.221   5.939
 4413POPC   C1A56079  12.897  43.772   6.071
 4413POPC   D2A56080  13.166  43.669   6.438
 4413POPC   C3A56081  13.055  43.728   6.851
 4413POPC   C4A56082  13.042  43.602   7.237
 4413POPC   C1B56083  12.550  44.136   6.305
 4413POPC   C2B56084  12.482  44.102   6.731
 4413POPC   C3B56085  12.780  44.126   7.068
 4413POPC   C4B56086  12.881  44.048   7.490
 4414POPC   NC356087   9.013  39.563   5.246
 4414POPC   PO456088   8.658  39.048   5.486
 4414POPC   GL156089   8.984  39.264   5.767
 4414POPC   GL256090   9.150  39.607   5.779
 4414POPC   C1A56091   8.912  39.332   6.215
 4414POPC   D2A56092   8.806  39.028   6.534
 4414POPC   C3A56093   8.896  39.190   6.950
 4414POPC   C4A56094   8.617  39.117   7.290
 4414POPC   C1B56095   9.369  39.575   6.194
 4414POPC   C2B56096   9.257  39.646   6.631
 4414POPC   C3B56097   9.343  39.470   7.045
 4414POPC   C4B56098   9.384  39.602   7.481
 4415POPC   NC356099  17.242  35.640   5.563
 4415POPC   PO456100  17.768  35.317   5.325
 4415POPC   GL156101  17.662  35.378   5.758
 4415POPC   GL256102  17.682  35.061   5.889
 4415POPC   C1A56103  17.669  35.419   6.246
 4415POPC   D2A56104  17.891  35.523   6.654
 4415POPC   C3A56105  17.617  35.360   7.000
 4415POPC   C4A56106  17.460  35.264   7.443
 4415POPC   C1B56107  17.768  34.917   6.299
 4415POPC   C2B56108  17.908  35.026   6.696
 4415POPC   C3B56109  17.857  34.921   7.082
 4415POPC   C4B56110  17.906  35.088   7.473
 4416POPC   NC356111  41.159  17.306   5.430
 4416POPC   PO456112  40.636  17.667   5.025
 4416POPC   GL156113  40.714  17.545   5.529
 4416POPC   GL256114  40.726  17.819   5.777
 4416POPC   C1A56115  40.769  17.392   6.032
 4416POPC   D2A56116  40.502  17.352   6.440
 4416POPC   C3A56117  40.571  17.493   6.872
 4416POPC   C4A56118  40.945  17.394   7.114
 4416POPC   C1B56119  40.945  17.876   6.201
 4416POPC   C2B56120  40.837  17.874   6.632
 4416POPC   C3B56121  40.897  17.914   7.067
 4416POPC   C4B56122  40.589  17.707   7.343
 4417POPC   NC356123  30.872  33.500   5.388
 4417POPC   PO456124  30.512  34.102   5.457
 4417POPC   GL156125  30.693  33.825   5.750
 4417POPC   GL256126  30.933  34.026   5.798
 4417POPC   C1A56127  30.651  33.683   6.161
 4417POPC   D2A56128  30.299  33.643   6.441
 4417POPC   C3A56129  30.350  33.784   6.861
 4417POPC   C4A56130  30.669  33.775   7.109
 4417POPC   C1B56131  31.047  34.022   6.196
 4417POPC   C2B56132  30.841  33.989   6.573
 4417POPC   C3B56133  31.026  34.104   6.928
 4417POPC   C4B56134  31.093  33.936   7.301
 4418POPC   NC356135  17.009   5.486   5.623
 4418POPC   PO456136  16.663   6.073   5.421
 4418POPC   GL156137  16.680   5.850   5.815
 4418POPC   GL256138  17.022   5.987   5.813
 4418POPC   C1A56139  16.662   5.513   6.171
 4418POPC   D2A56140  16.843   5.431   6.601
 4418POPC   C3A56141  16.557   5.532   6.957
 4418POPC   C4A56142  16.545   5.868   7.248
 4418POPC   C1B56143  17.045   5.835   6.220
 4418POPC   C2B56144  17.025   6.046   6.602
 4418POPC   C3B56145  17.006   5.917   7.030
 4418POPC   C4B56146  17.080   5.934   7.493
 4419POPC   NC356147  11.679  27.433   5.532
 4419POPC   PO456148  11.173  27.829   5.142
 4419POPC   GL156149  11.182  27.795   5.676
 4419POPC   GL256150  11.141  27.466   5.811
 4419POPC   C1A56151  11.296  27.863   6.162
 4419POPC   D2A56152  11.529  27.607   6.508
 4419POPC   C3A56153  11.422  27.595   6.936
 4419POPC   C4A56154  11.135  27.703   7.259
 4419POPC   C1B56155  10.943  27.225   6.153
 4419POPC   C2B56156  11.078  27.222   6.573
 4419POPC   C3B56157  10.969  27.348   6.939
 4419POPC   C4B56158  11.136  27.172   7.263
 4420POPC   NC356159  21.870  37.285   5.576
 4420POPC   PO456160  22.385  36.974   5.346
 4420POPC   GL156161  22.266  36.942   5.836
 4420POPC   GL256162  22.264  37.236   5.883
 4420POPC   C1A56163  22.108  36.712   6.270
 4420POPC   D2A56164  22.220  36.510   6.702
 4420POPC   C3A56165  22.186  36.787   7.085
 4420POPC   C4A56166  22.334  37.276   7.126
 4420POPC   C1B56167  22.039  37.211   6.250
 4420POPC   C2B56168  21.992  37.038   6.671
 4420POPC   C3B56169  21.843  37.167   7.072
 4420POPC   C4B56170  21.750  36.869   7.393
 4421POPC   NC356171  19.193  21.868   5.572
 4421POPC   PO456172  18.989  22.465   5.461
 4421POPC   GL156173  19.014  22.304   5.865
 4421POPC   GL256174  18.653  22.386   5.950
 4421POPC   C1A56175  19.310  22.080   6.169
 4421POPC   D2A56176  19.225  21.932   6.573
 4421POPC   C3A56177  19.378  22.127   6.951
 4421POPC   C4A56178  19.053  21.944   7.177
 4421POPC   C1B56179  18.850  22.236   6.348
 4421POPC   C2B56180  18.990  22.393   6.772
 4421POPC   C3B56181  18.937  22.467   7.230
 4421POPC   C4B56182  18.785  22.631   7.673
 4422POPC   NC356183  23.008  40.920   5.517
 4422POPC   PO456184  22.613  40.396   5.697
 4422POPC   GL156185  22.844  40.658   5.923
 4422POPC   GL256186  22.620  40.929   5.842
 4422POPC   C1A56187  23.041  40.745   6.303
 4422POPC   D2A56188  23.190  40.628   6.696
 4422POPC   C3A56189  23.025  40.971   6.902
 4422POPC   C4A56190  23.131  40.984   7.302
 4422POPC   C1B56191  22.444  40.819   6.184
 4422POPC   C2B56192  22.546  40.564   6.465
 4422POPC   C3B56193  22.557  40.669   6.866
 4422POPC   C4B56194  22.676  40.777   7.252
 4423POPC   NC356195   5.551  39.563   5.542
 4423POPC   PO456196   6.045  40.073   5.370
 4423POPC   GL156197   5.833  39.993   5.762
 4423POPC   GL256198   6.101  40.156   5.906
 4423POPC   C1A56199   5.679  39.750   6.145
 4423POPC   D2A56200   5.863  39.599   6.520
 4423POPC   C3A56201   5.643  39.676   6.914
 4423POPC   C4A56202   5.709  39.870   7.314
 4423POPC   C1B56203   6.027  40.062   6.340
 4423POPC   C2B56204   6.080  39.979   6.787
 4423POPC   C3B56205   6.191  39.987   7.208
 4423POPC   C4B56206   6.032  40.257   7.548
 4424POPC   NC356207  10.569  43.064   5.362
 4424POPC   PO456208  10.066  42.686   5.541
 4424POPC   GL156209  10.366  43.002   5.896
 4424POPC   GL256210  10.707  43.161   5.859
 4424POPC   C1A56211  10.489  43.139   6.369
 4424POPC   D2A56212  10.541  42.855   6.768
 4424POPC   C3A56213  10.602  42.962   7.207
 4424POPC   C4A56214  10.370  43.310   7.462
 4424POPC   C1B56215  10.987  43.065   6.217
 4424POPC   C2B56216  10.988  43.055   6.654
 4424POPC   C3B56217  10.763  43.328   6.893
 4424POPC   C4B56218  10.837  43.387   7.326
 4425POPC   NC356219  28.534   4.557   5.390
 4425POPC   PO456220  28.260   3.925   5.362
 4425POPC   GL156221  28.372   4.182   5.725
 4425POPC   GL256222  28.572   3.882   5.775
 4425POPC   C1A56223  28.211   4.409   6.153
 4425POPC   D2A56224  28.029   4.350   6.593
 4425POPC   C3A56225  28.268   4.448   6.989
 4425POPC   C4A56226  28.331   4.728   7.355
 4425POPC   C1B56227  28.234   3.893   6.101
 4425POPC   C2B56228  28.231   3.875   6.513
 4425POPC   C3B56229  28.083   3.799   6.901
 4425POPC   C4B56230  28.315   3.989   7.187
 4426POPC   NC356231  12.375  12.868   5.494
 4426POPC   PO456232  11.786  12.688   5.544
 4426POPC   GL156233  11.996  12.803   5.884
 4426POPC   GL256234  11.872  13.133   5.950
 4426POPC   C1A56235  11.976  12.670   6.303
 4426POPC   D2A56236  11.948  12.863   6.687
 4426POPC   C3A56237  11.957  12.607   7.060
 4426POPC   C4A56238  12.194  12.661   7.427
 4426POPC   C1B56239  12.263  13.140   6.236
 4426POPC   C2B56240  12.486  13.204   6.655
 4426POPC   C3B56241  12.309  13.005   7.021
 4426POPC   C4B56242  11.958  13.078   7.267
 4427POPC   NC356243   2.230  24.261   5.593
 4427POPC   PO456244   1.923  23.765   5.209
 4427POPC   GL156245   1.925  23.803   5.686
 4427POPC   GL256246   2.238  23.870   5.898
 4427POPC   C1A56247   1.910  23.563   6.105
 4427POPC   D2A56248   2.099  23.750   6.493
 4427POPC   C3A56249   2.113  23.525   6.905
 4427POPC   C4A56250   1.866  23.639   7.273
 4427POPC   C1B56251   2.321  24.172   6.232
 4427POPC   C2B56252   2.388  24.149   6.666
 4427POPC   C3B56253   2.116  24.036   7.031
 4427POPC   C4B56254   2.305  23.850   7.405
 4428POPC   NC356255   2.554  18.350   5.400
 4428POPC   PO456256   1.890  18.153   5.478
 4428POPC   GL156257   2.143  18.223   5.780
 4428POPC   GL256258   2.181  18.593   5.733
 4428POPC   C1A56259   2.214  18.070   6.228
 4428POPC   D2A56260   2.020  17.888   6.656
 4428POPC   C3A56261   1.852  18.148   6.944
 4428POPC   C4A56262   2.206  18.378   7.126
 4428POPC   C1B56263   1.948  18.514   6.140
 4428POPC   C2B56264   2.040  18.443   6.576
 4428POPC   C3B56265   1.874  18.702   6.909
 4428POPC   C4B56266   1.750  18.679   7.318
 4429POPC   NC356267  25.514  34.216   5.305
 4429POPC   PO456268  24.993  33.624   5.431
 4429POPC   GL156269  24.987  33.653   5.875
 4429POPC   GL256270  25.334  33.684   5.914
 4429POPC   C1A56271  24.878  33.766   6.321
 4429POPC   D2A56272  24.911  34.142   6.618
 4429POPC   C3A56273  25.237  34.130   6.954
 4429POPC   C4A56274  25.164  34.057   7.409
 4429POPC   C1B56275  25.284  33.420   6.266
 4429POPC   C2B56276  25.222  33.564   6.699
 4429POPC   C3B56277  25.366  33.641   7.127
 4429POPC   C4B56278  25.671  33.942   7.297
 4430POPC   NC356279   4.636  23.377   5.475
 4430POPC   PO456280   4.277  23.911   5.178
 4430POPC   GL156281   4.461  23.927   5.706
 4430POPC   GL256282   4.392  23.607   5.856
 4430POPC   C1A56283   4.386  23.948   6.202
 4430POPC   D2A56284   4.488  23.626   6.533
 4430POPC   C3A56285   4.490  23.779   6.942
 4430POPC   C4A56286   4.290  23.982   7.275
 4430POPC   C1B56287   4.180  23.403   6.188
 4430POPC   C2B56288   4.092  23.283   6.604
 4430POPC   C3B56289   4.099  23.474   7.013
 4430POPC   C4B56290   4.329  23.406   7.346
 4431POPC   NC356291  44.697  24.213   5.339
 4431POPC   PO456292  44.417  24.638   5.747
 4431POPC   GL156293  44.833  24.610   5.932
 4431POPC   GL256294  44.904  24.282   5.807
 4431POPC   C1A56295  44.844  24.624   6.385
 4431POPC   D2A56296  44.440  24.473   6.545
 4431POPC   C3A56297  44.406  24.518   6.965
 4431POPC   C4A56298  44.782  24.733   7.113
 4431POPC   C1B56299  44.623  24.156   6.142
 4431POPC   C2B56300  44.832  24.128   6.488
 4431POPC   C3B56301  44.852  24.303   6.853
 4431POPC   C4B56302  44.696  24.223   7.255
 4432POPC   NC356303  37.235  33.573   5.382
 4432POPC   PO456304  37.862  33.314   5.372
 4432POPC   GL156305  37.924  33.633   5.786
 4432POPC   GL256306  37.755  34.000   5.851
 4432POPC   C1A56307  37.864  33.731   6.263
 4432POPC   D2A56308  37.727  33.560   6.683
 4432POPC   C3A56309  37.876  33.485   7.118
 4432POPC   C4A56310  37.867  33.728   7.519
 4432POPC   C1B56311  37.506  34.132   6.261
 4432POPC   C2B56312  37.414  34.045   6.759
 4432POPC   C3B56313  37.441  33.866   7.230
 4432POPC   C4B56314  37.453  34.005   7.729
 4433POPC   NC356315  41.109  11.671   5.578
 4433POPC   PO456316  40.635  11.136   5.435
 4433POPC   GL156317  40.568  11.264   5.832
 4433POPC   GL256318  40.544  11.604   5.763
 4433POPC   C1A56319  40.731  11.234   6.259
 4433POPC   D2A56320  40.598  11.038   6.640
 4433POPC   C3A56321  40.831  11.067   7.023
 4433POPC   C4A56322  40.580  11.078   7.393
 4433POPC   C1B56323  40.366  11.588   6.183
 4433POPC   C2B56324  40.432  11.524   6.611
 4433POPC   C3B56325  40.587  11.572   7.051
 4433POPC   C4B56326  40.764  11.590   7.478
 4434POPC   NC356327  10.001  43.561   5.308
 4434POPC   PO456328   9.552  44.077   5.281
 4434POPC   GL156329   9.637  44.022   5.708
 4434POPC   GL256330  10.021  43.983   5.732
 4434POPC   C1A56331   9.362  43.958   6.102
 4434POPC   D2A56332   9.150  43.965   6.522
 4434POPC   C3A56333   9.403  44.095   6.890
 4434POPC   C4A56334   9.550  44.058   7.321
 4434POPC   C1B56335   9.810  43.690   6.057
 4434POPC   C2B56336   9.676  43.784   6.498
 4434POPC   C3B56337   9.858  43.805   6.910
 4434POPC   C4B56338   9.926  43.479   7.217
 4435POPC   NC356339  40.535  28.843   5.236
 4435POPC   PO456340  41.053  29.235   5.386
 4435POPC   GL156341  40.913  29.176   5.777
 4435POPC   GL256342  40.753  28.867   5.710
 4435POPC   C1A56343  41.139  29.084   6.140
 4435POPC   D2A56344  40.997  28.975   6.555
 4435POPC   C3A56345  41.105  29.247   6.892
 4435POPC   C4A56346  40.822  29.395   7.194
 4435POPC   C1B56347  40.631  28.925   6.145
 4435POPC   C2B56348  40.470  29.050   6.541
 4435POPC   C3B56349  40.615  28.978   6.970
 4435POPC   C4B56350  40.493  29.064   7.420
 4436POPC   NC356351   4.960   2.009   5.541
 4436POPC   PO456352   5.536   2.249   5.526
 4436POPC   GL156353   5.377   2.028   5.862
 4436POPC   GL256354   5.196   1.702   5.856
 4436POPC   C1A56355   5.207   2.128   6.238
 4436POPC   D2A56356   5.430   1.940   6.561
 4436POPC   C3A56357   5.353   1.922   6.976
 4436POPC   C4A56358   5.345   2.231   7.266
 4436POPC   C1B56359   5.034   1.653   6.264
 4436POPC   C2B56360   4.921   1.801   6.647
 4436POPC   C3B56361   4.915   1.674   7.072
 4436POPC   C4B56362   4.752   1.913   7.419
 4437POPC   NC356363  16.536  18.782   5.131
 4437POPC   PO456364  16.346  19.394   5.367
 4437POPC   GL156365  16.417  19.153   5.755
 4437POPC   GL256366  16.560  18.811   5.682
 4437POPC   C1A56367  16.673  19.155   6.146
 4437POPC   D2A56368  16.787  19.370   6.532
 4437POPC   C3A56369  16.831  19.160   6.910
 4437POPC   C4A56370  16.526  19.091   7.210
 4437POPC   C1B56371  16.774  18.652   6.065
 4437POPC   C2B56372  16.859  18.786   6.499
 4437POPC   C3B56373  16.648  18.684   6.885
 4437POPC   C4B56374  16.690  18.595   7.308
 4438POPC   NC356375  42.780  23.081   5.520
 4438POPC   PO456376  43.160  22.540   5.372
 4438POPC   GL156377  43.202  22.785   5.738
 4438POPC   GL256378  43.441  23.043   5.654
 4438POPC   C1A56379  43.069  23.009   6.119
 4438POPC   D2A56380  43.004  23.205   6.513
 4438POPC   C3A56381  42.901  22.934   6.838
 4438POPC   C4A56382  43.137  22.761   7.158
 4438POPC   C1B56383  43.577  22.966   6.075
 4438POPC   C2B56384  43.459  22.846   6.471
 4438POPC   C3B56385  43.394  23.080   6.839
 4438POPC   C4B56386  43.510  23.080   7.252
 4439POPC   NC356387  33.197  19.966   5.457
 4439POPC   PO456388  32.687  19.572   5.386
 4439POPC   GL156389  32.862  19.666   5.786
 4439POPC   GL256390  33.207  19.649   5.881
 4439POPC   C1A56391  32.802  19.830   6.211
 4439POPC   D2A56392  32.923  19.624   6.571
 4439POPC   C3A56393  32.647  19.620   6.876
 4439POPC   C4A56394  32.883  19.764   7.195
 4439POPC   C1B56395  33.296  19.964   6.187
 4439POPC   C2B56396  33.126  20.116   6.604
 4439POPC   C3B56397  33.297  20.096   7.045
 4439POPC   C4B56398  33.388  20.211   7.496
 4440POPC   NC356399  40.792  40.968   5.362
 4440POPC   PO456400  41.243  40.570   5.446
 4440POPC   GL156401  41.005  40.643   5.812
 4440POPC   GL256402  40.840  40.937   5.843
 4440POPC   C1A56403  41.016  40.647   6.263
 4440POPC   D2A56404  41.212  40.462   6.621
 4440POPC   C3A56405  41.049  40.515   7.027
 4440POPC   C4A56406  41.125  40.637   7.514
 4440POPC   C1B56407  40.636  40.962   6.174
 4440POPC   C2B56408  40.689  41.169   6.522
 4440POPC   C3B56409  40.580  41.067   6.947
 4440POPC   C4B56410  40.694  40.759   7.255
 4441POPC   NC356411  24.218  10.205   5.435
 4441POPC   PO456412  23.679   9.956   5.746
 4441POPC   GL156413  23.778   9.621   5.993
 4441POPC   GL256414  23.985   9.348   5.835
 4441POPC   C1A56415  23.504   9.563   6.346
 4441POPC   D2A56416  23.303   9.849   6.593
 4441POPC   C3A56417  23.543   9.883   6.924
 4441POPC   C4A56418  23.520  10.095   7.292
 4441POPC   C1B56419  23.866   9.208   6.264
 4441POPC   C2B56420  23.903   9.412   6.648
 4441POPC   C3B56421  23.914   9.323   7.058
 4441POPC   C4B56422  23.809   9.660   7.313
 4442POPC   NC356423  28.053   3.038   5.502
 4442POPC   PO456424  28.580   2.670   5.234
 4442POPC   GL156425  28.469   2.769   5.658
 4442POPC   GL256426  28.421   2.488   5.870
 4442POPC   C1A56427  28.400   2.944   6.076
 4442POPC   D2A56428  28.460   3.012   6.505
 4442POPC   C3A56429  28.215   2.880   6.840
 4442POPC   C4A56430  28.267   2.973   7.291
 4442POPC   C1B56431  28.750   2.562   6.178
 4442POPC   C2B56432  28.831   2.681   6.608
 4442POPC   C3B56433  28.648   2.708   7.023
 4442POPC   C4B56434  28.515   2.531   7.411
 4443POPC   NC356435  28.964   8.170   5.428
 4443POPC   PO456436  29.552   7.843   5.369
 4443POPC   GL156437  29.293   7.933   5.755
 4443POPC   GL256438  29.156   8.269   5.889
 4443POPC   C1A56439  29.095   7.835   6.160
 4443POPC   D2A56440  29.081   7.881   6.602
 4443POPC   C3A56441  29.134   8.204   6.917
 4443POPC   C4A56442  29.083   8.015   7.360
 4443POPC   C1B56443  29.368   8.560   6.164
 4443POPC   C2B56444  29.298   8.679   6.573
 4443POPC   C3B56445  29.464   8.615   6.989
 4443POPC   C4B56446  29.177   8.533   7.326
 4444POPC   NC356447  25.411  27.901   5.560
 4444POPC   PO456448  24.904  27.496   5.343
 4444POPC   GL156449  25.174  27.503   5.777
 4444POPC   GL256450  25.105  27.812   5.988
 4444POPC   C1A56451  25.499  27.555   6.150
 4444POPC   D2A56452  25.484  27.408   6.532
 4444POPC   C3A56453  25.467  27.636   6.866
 4444POPC   C4A56454  25.691  27.426   7.195
 4444POPC   C1B56455  25.171  27.819   6.446
 4444POPC   C2B56456  24.994  27.877   6.871
 4444POPC   C3B56457  25.088  27.557   7.180
 4444POPC   C4B56458  25.321  27.461   7.549
 4445POPC   NC356459   9.489  31.829   5.443
 4445POPC   PO456460   9.455  32.564   5.407
 4445POPC   GL156461   9.618  32.551   5.858
 4445POPC   GL256462   9.786  32.250   5.904
 4445POPC   C1A56463   9.682  32.494   6.339
 4445POPC   D2A56464  10.017  32.440   6.662
 4445POPC   C3A56465   9.897  32.460   7.118
 4445POPC   C4A56466   9.724  32.716   7.481
 4445POPC   C1B56467   9.897  32.022   6.283
 4445POPC   C2B56468   9.739  32.001   6.704
 4445POPC   C3B56469   9.756  31.998   7.151
 4445POPC   C4B56470   9.957  31.766   7.448
 4446POPC   NC356471  35.735  43.588   5.204
 4446POPC   PO456472  35.639  44.154   5.359
 4446POPC   GL156473  35.594  43.893   5.715
 4446POPC   GL256474  35.274  43.837   5.800
 4446POPC   C1A56475  35.578  44.093   6.133
 4446POPC   D2A56476  35.641  43.988   6.542
 4446POPC   C3A56477  35.537  44.180   6.943
 4446POPC   C4A56478  35.572  43.878   7.291
 4446POPC   C1B56479  35.076  44.158   6.055
 4446POPC   C2B56480  35.148  44.217   6.478
 4446POPC   C3B56481  35.136  43.923   6.770
 4446POPC   C4B56482  35.084  43.902   7.171
 4447POPC   NC356483   7.828  27.283   5.472
 4447POPC   PO456484   8.480  27.618   5.426
 4447POPC   GL156485   8.341  27.491   5.810
 4447POPC   GL256486   8.040  27.676   5.793
 4447POPC   C1A56487   8.422  27.571   6.248
 4447POPC   D2A56488   8.310  27.875   6.561
 4447POPC   C3A56489   8.182  27.656   6.946
 4447POPC   C4A56490   8.183  27.451   7.386
 4447POPC   C1B56491   7.915  27.408   6.142
 4447POPC   C2B56492   8.050  27.329   6.560
 4447POPC   C3B56493   8.074  27.152   6.974
 4447POPC   C4B56494   7.786  27.091   7.281
 4448POPC   NC356495  15.725   9.787   5.505
 4448POPC   PO456496  16.265   9.420   5.462
 4448POPC   GL156497  16.257   9.715   5.846
 4448POPC   GL256498  15.902   9.805   6.005
 4448POPC   C1A56499  16.372   9.770   6.274
 4448POPC   D2A56500  16.080   9.917   6.564
 4448POPC   C3A56501  15.952   9.842   6.971
 4448POPC   C4A56502  15.781  10.095   7.281
 4448POPC   C1B56503  15.546   9.466   6.135
 4448POPC   C2B56504  15.444   9.291   6.547
 4448POPC   C3B56505  15.673   9.389   6.924
 4448POPC   C4B56506  15.678   9.597   7.326
 4449POPC   NC356507  10.231  26.785   5.477
 4449POPC   PO456508  10.959  27.086   5.474
 4449POPC   GL156509  10.627  27.004   5.782
 4449POPC   GL256510  10.670  26.645   5.802
 4449POPC   C1A56511  10.454  27.085   6.221
 4449POPC   D2A56512  10.664  26.897   6.595
 4449POPC   C3A56513  10.680  26.944   7.054
 4449POPC   C4A56514  10.303  27.028   7.270
 4449POPC   C1B56515  10.415  26.566   6.178
 4449POPC   C2B56516  10.445  26.405   6.611
 4449POPC   C3B56517  10.350  26.540   7.029
 4449POPC   C4B56518  10.225  26.305   7.362
 4450POPC   NC356519  13.817   7.917   5.357
 4450POPC   PO456520  13.296   8.314   5.366
 4450POPC   GL156521  13.580   8.211   5.741
 4450POPC   GL256522  13.862   8.446   5.854
 4450POPC   C1A56523  13.601   8.057   6.177
 4450POPC   D2A56524  13.864   8.199   6.580
 4450POPC   C3A56525  13.745   8.043   7.001
 4450POPC   C4A56526  13.406   7.787   7.196
 4450POPC   C1B56527  13.625   8.550   6.260
 4450POPC   C2B56528  13.337   8.297   6.554
 4450POPC   C3B56529  13.249   8.212   6.974
 4450POPC   C4B56530  13.483   8.324   7.349
 4451POPC   NC356531  44.368  32.394   5.565
 4451POPC   PO456532   0.071  32.446   5.460
 4451POPC   GL156533  44.809  32.497   5.832
 4451POPC   GL256534  44.723  32.164   5.852
 4451POPC   C1A56535  44.493  32.465   6.201
 4451POPC   D2A56536  44.248  32.501   6.565
 4451POPC   C3A56537  44.376  32.407   6.978
 4451POPC   C4A56538  44.621  32.442   7.337
 4451POPC   C1B56539  44.892  32.139   6.243
 4451POPC   C2B56540  44.648  32.156   6.605
 4451POPC   C3B56541  44.792  32.099   6.997
 4451POPC   C4B56542  44.707  31.935   7.391
 4452POPC   NC356543  40.413  24.441   5.444
 4452POPC   PO456544  39.753  24.630   5.487
 4452POPC   GL156545  40.029  24.483   5.826
 4452POPC   GL256546  40.377  24.644   5.893
 4452POPC   C1A56547  39.948  24.600   6.240
 4452POPC   D2A56548  39.735  24.448   6.610
 4452POPC   C3A56549  39.905  24.651   6.962
 4452POPC   C4A56550  39.949  24.418   7.291
 4452POPC   C1B56551  40.396  24.330   6.182
 4452POPC   C2B56552  40.557  24.295   6.564
 4452POPC   C3B56553  40.354  24.371   6.911
 4452POPC   C4B56554  40.342  24.113   7.231
 4453POPC   NC356555   4.455  24.759   5.483
 4453POPC   PO456556   4.656  25.475   5.429
 4453POPC   GL156557   4.498  25.196   5.758
 4453POPC   GL256558   4.249  25.351   5.869
 4453POPC   C1A56559   4.620  25.074   6.213
 4453POPC   D2A56560   4.600  24.695   6.512
 4453POPC   C3A56561   4.608  24.818   6.956
 4453POPC   C4A56562   4.325  24.910   7.305
 4453POPC   C1B56563   4.145  24.971   6.099
 4453POPC   C2B56564   4.115  24.917   6.558
 4453POPC   C3B56565   4.045  25.163   6.954
 4453POPC   C4B56566   4.189  25.409   7.330
 4454POPC   NC356567  30.640   1.253   5.323
 4454POPC   PO456568  31.147   1.742   5.618
 4454POPC   GL156569  30.740   1.562   5.814
 4454POPC   GL256570  30.686   1.200   5.849
 4454POPC   C1A56571  30.587   1.495   6.248
 4454POPC   D2A56572  30.701   1.349   6.690
 4454POPC   C3A56573  30.630   1.517   7.111
 4454POPC   C4A56574  30.992   1.394   7.371
 4454POPC   C1B56575  30.780   1.018   6.295
 4454POPC   C2B56576  30.667   0.843   6.732
 4454POPC   C3B56577  30.671   0.994   7.178
 4454POPC   C4B56578  30.439   0.827   7.499
 4455POPC   NC356579   6.197   9.160   5.029
 4455POPC   PO456580   6.687   9.004   5.476
 4455POPC   GL156581   6.639   9.038   5.860
 4455POPC   GL256582   6.337   8.898   5.878
 4455POPC   C1A56583   6.748   8.866   6.243
 4455POPC   D2A56584   6.492   8.799   6.608
 4455POPC   C3A56585   6.741   8.835   6.967
 4455POPC   C4A56586   6.627   8.967   7.355
 4455POPC   C1B56587   6.219   9.144   6.214
 4455POPC   C2B56588   6.293   9.261   6.622
 4455POPC   C3B56589   6.256   9.060   6.999
 4455POPC   C4B56590   6.294   9.373   7.294
 4456POPC   NC356591   4.666  17.054   5.516
 4456POPC   PO456592   4.031  17.408   5.347
 4456POPC   GL156593   4.305  17.416   5.729
 4456POPC   GL256594   4.651  17.534   5.697
 4456POPC   C1A56595   4.237  17.478   6.183
 4456POPC   D2A56596   4.285  17.336   6.585
 4456POPC   C3A56597   4.204  17.551   6.964
 4456POPC   C4A56598   4.088  17.243   7.256
 4456POPC   C1B56599   4.750  17.418   6.115
 4456POPC   C2B56600   4.746  17.564   6.536
 4456POPC   C3B56601   4.676  17.349   6.925
 4456POPC   C4B56602   4.556  17.438   7.337
 4457POPC   NC356603  18.042  44.766   5.260
 4457POPC   PO456604  18.654  44.610   5.418
 4457POPC   GL156605  18.456  44.462   5.804
 4457POPC   GL256606  18.110  44.455   5.717
 4457POPC   C1A56607  18.432  44.614   6.238
 4457POPC   D2A56608  18.129  44.715   6.578
 4457POPC   C3A56609  18.345  44.777   6.966
 4457POPC   C4A56610  18.595  44.763   7.344
 4457POPC   C1B56611  18.023  44.304   6.138
 4457POPC   C2B56612  18.090  44.196   6.573
 4457POPC   C3B56613  18.004  44.370   6.964
 4457POPC   C4B56614  18.258  44.376   7.281
 4458POPC   NC356615  19.775  28.090   5.330
 4458POPC   PO456616  19.677  28.817   5.363
 4458POPC   GL156617  19.682  28.556   5.759
 4458POPC   GL256618  19.579  28.222   5.774
 4458POPC   C1A56619  19.740  28.573   6.217
 4458POPC   D2A56620  19.853  28.742   6.625
 4458POPC   C3A56621  19.816  28.465   6.960
 4458POPC   C4A56622  20.155  28.342   7.197
 4458POPC   C1B56623  19.832  28.089   6.100
 4458POPC   C2B56624  19.805  28.156   6.527
 4458POPC   C3B56625  19.874  27.963   6.894
 4458POPC   C4B56626  19.784  28.028   7.275
 4459POPC   NC356627   0.318  38.472   5.291
 4459POPC   PO456628   0.349  38.101   5.746
 4459POPC   GL156629   0.503  38.385   5.931
 4459POPC   GL256630   0.329  38.678   5.782
 4459POPC   C1A56631   0.555  38.386   6.379
 4459POPC   D2A56632   0.716  38.222   6.744
 4459POPC   C3A56633   0.368  38.196   7.027
 4459POPC   C4A56634   0.129  38.224   7.430
 4459POPC   C1B56635   0.603  38.820   6.137
 4459POPC   C2B56636   0.793  38.856   6.525
 4459POPC   C3B56637   0.676  38.722   6.929
 4459POPC   C4B56638   0.560  38.560   7.321
 4460POPC   NC356639   1.735  38.363   5.479
 4460POPC   PO456640   2.391  38.483   5.348
 4460POPC   GL156641   2.186  38.400   5.761
 4460POPC   GL256642   1.952  38.161   5.894
 4460POPC   C1A56643   2.082  38.521   6.201
 4460POPC   D2A56644   2.267  38.586   6.586
 4460POPC   C3A56645   2.024  38.826   6.848
 4460POPC   C4A56646   1.889  38.668   7.235
 4460POPC   C1B56647   1.954  37.958   6.254
 4460POPC   C2B56648   2.172  38.023   6.622
 4460POPC   C3B56649   2.128  38.281   6.968
 4460POPC   C4B56650   2.076  38.188   7.360
 4461POPC   NC356651  32.438   7.683   5.462
 4461POPC   PO456652  32.213   7.078   5.478
 4461POPC   GL156653  32.380   7.341   5.892
 4461POPC   GL256654  32.597   7.665   5.932
 4461POPC   C1A56655  32.262   7.297   6.376
 4461POPC   D2A56656  32.028   7.107   6.769
 4461POPC   C3A56657  31.974   7.363   7.179
 4461POPC   C4A56658  32.034   7.200   7.596
 4461POPC   C1B56659  32.740   7.506   6.300
 4461POPC   C2B56660  32.648   7.593   6.693
 4461POPC   C3B56661  32.447   7.398   7.002
 4461POPC   C4B56662  32.500   7.408   7.445
 4462POPC   NC356663  43.835   1.741   5.556
 4462POPC   PO456664  43.822   2.376   5.430
 4462POPC   GL156665  43.933   2.267   5.858
 4462POPC   GL256666  44.028   1.941   5.981
 4462POPC   C1A56667  43.880   2.315   6.319
 4462POPC   D2A56668  44.004   2.074   6.687
 4462POPC   C3A56669  43.830   2.188   7.085
 4462POPC   C4A56670  43.889   1.969   7.489
 4462POPC   C1B56671  44.216   1.734   6.337
 4462POPC   C2B56672  43.959   1.490   6.638
 4462POPC   C3B56673  43.841   1.641   7.046
 4462POPC   C4B56674  44.233   1.858   7.115
 4463POPC   NC356675  13.363   4.510   5.442
 4463POPC   PO456676  12.865   4.016   5.378
 4463POPC   GL156677  13.084   4.150   5.781
 4463POPC   GL256678  13.418   4.012   5.810
 4463POPC   C1A56679  12.909   4.339   6.184
 4463POPC   D2A56680  12.668   4.548   6.524
 4463POPC   C3A56681  12.681   4.345   6.919
 4463POPC   C4A56682  12.524   4.479   7.330
 4463POPC   C1B56683  13.396   4.145   6.259
 4463POPC   C2B56684  13.108   4.143   6.622
 4463POPC   C3B56685  13.158   4.140   7.048
 4463POPC   C4B56686  13.030   4.452   7.305
 4464POPC   NC356687  33.909  31.246   5.219
 4464POPC   PO456688  33.453  31.796   5.421
 4464POPC   GL156689  33.681  31.617   5.800
 4464POPC   GL256690  34.005  31.431   5.774
 4464POPC   C1A56691  33.755  31.427   6.231
 4464POPC   D2A56692  33.619  31.411   6.664
 4464POPC   C3A56693  33.778  31.591   7.047
 4464POPC   C4A56694  33.645  31.232   7.215
 4464POPC   C1B56695  34.244  31.566   6.147
 4464POPC   C2B56696  34.099  31.596   6.591
 4464POPC   C3B56697  34.152  31.304   6.930
 4464POPC   C4B56698  34.163  31.385   7.355
 4465POPC   NC356699  24.765  23.785   5.579
 4465POPC   PO456700  24.325  23.319   5.550
 4465POPC   GL156701  24.503  23.496   5.898
 4465POPC   GL256702  24.712  23.264   5.954
 4465POPC   C1A56703  24.626  23.551   6.349
 4465POPC   D2A56704  24.495  23.853   6.591
 4465POPC   C3A56705  24.687  23.873   6.949
 4465POPC   C4A56706  24.383  23.879   7.250
 4465POPC   C1B56707  24.356  23.137   6.218
 4465POPC   C2B56708  24.314  23.171   6.640
 4465POPC   C3B56709  24.398  23.461   6.927
 4465POPC   C4B56710  24.606  23.436   7.307
 4466POPC   NC356711  27.906  25.838   5.413
 4466POPC   PO456712  28.565  26.215   5.459
 4466POPC   GL156713  28.389  26.018   5.852
 4466POPC   GL256714  28.024  26.029   5.886
 4466POPC   C1A56715  28.574  25.994   6.271
 4466POPC   D2A56716  28.897  26.067   6.559
 4466POPC   C3A56717  28.716  26.234   6.893
 4466POPC   C4A56718  28.463  26.061   7.174
 4466POPC   C1B56719  28.123  26.232   6.280
 4466POPC   C2B56720  28.220  26.105   6.691
 4466POPC   C3B56721  27.983  26.090   7.073
 4466POPC   C4B56722  28.040  26.401   7.316
 4467POPC   NC356723   1.544  20.406   5.491
 4467POPC   PO456724   0.946  20.568   5.201
 4467POPC   GL156725   1.114  20.715   5.671
 4467POPC   GL256726   0.985  21.057   5.830
 4467POPC   C1A56727   1.248  20.573   6.144
 4467POPC   D2A56728   1.359  20.266   6.525
 4467POPC   C3A56729   1.208  20.277   6.980
 4467POPC   C4A56730   0.968  20.350   7.361
 4467POPC   C1B56731   0.918  20.928   6.299
 4467POPC   C2B56732   1.109  20.726   6.679
 4467POPC   C3B56733   1.148  20.775   7.129
 4467POPC   C4B56734   1.138  20.949   7.526
 4468POPC   NC356735  32.701   2.983   5.570
 4468POPC   PO456736  33.378   2.921   5.725
 4468POPC   GL156737  33.052   2.851   5.960
 4468POPC   GL256738  32.819   2.595   5.873
 4468POPC   C1A56739  33.230   2.790   6.374
 4468POPC   D2A56740  33.269   2.529   6.720
 4468POPC   C3A56741  33.197   2.678   7.148
 4468POPC   C4A56742  33.097   3.050   7.390
 4468POPC   C1B56743  32.734   2.653   6.313
 4468POPC   C2B56744  32.774   2.384   6.666
 4468POPC   C3B56745  32.729   2.479   7.046
 4468POPC   C4B56746  32.719   2.901   7.075
 4469POPC   NC356747  43.511  44.315   5.293
 4469POPC   PO456748  43.865  43.662   5.390
 4469POPC   GL156749  43.778  43.770   5.801
 4469POPC   GL256750  43.481  43.615   5.951
 4469POPC   C1A56751  43.842  43.926   6.225
 4469POPC   D2A56752  43.996  44.109   6.589
 4469POPC   C3A56753  44.106  43.943   6.943
 4469POPC   C4A56754  44.025  44.162   7.310
 4469POPC   C1B56755  43.428  43.510   6.361
 4469POPC   C2B56756  43.685  43.673   6.648
 4469POPC   C3B56757  43.793  43.510   6.990
 4469POPC   C4B56758  43.567  43.528   7.302
 4470POPC   NC356759  25.311  21.870   5.658
 4470POPC   PO456760  24.933  21.407   5.357
 4470POPC   GL156761  25.111  21.445   5.824
 4470POPC   GL256762  25.393  21.239   5.941
 4470POPC   C1A56763  24.970  21.326   6.232
 4470POPC   D2A56764  25.109  21.051   6.510
 4470POPC   C3A56765  25.210  21.265   6.868
 4470POPC   C4A56766  25.243  21.166   7.265
 4470POPC   C1B56767  25.619  21.507   6.196
 4470POPC   C2B56768  25.797  21.373   6.561
 4470POPC   C3B56769  25.715  21.134   6.928
 4470POPC   C4B56770  25.696  21.376   7.287
 4471POPC   NC356771  15.621   5.717   5.708
 4471POPC   PO456772  15.057   5.725   5.372
 4471POPC   GL156773  15.069   5.857   5.817
 4471POPC   GL256774  15.305   6.125   5.851
 4471POPC   C1A56775  15.224   5.796   6.255
 4471POPC   D2A56776  15.413   5.921   6.652
 4471POPC   C3A56777  15.099   5.829   6.929
 4471POPC   C4A56778  15.020   5.891   7.349
 4471POPC   C1B56779  15.067   6.282   6.229
 4471POPC   C2B56780  15.136   6.504   6.599
 4471POPC   C3B56781  15.225   6.308   7.017
 4471POPC   C4B56782  15.372   6.365   7.446
 4472POPC   NC356783  23.618   7.493   5.368
 4472POPC   PO456784  23.958   7.003   5.695
 4472POPC   GL156785  23.711   7.323   5.862
 4472POPC   GL256786  23.948   7.578   5.808
 4472POPC   C1A56787  23.397   7.390   6.202
 4472POPC   D2A56788  23.377   7.320   6.656
 4472POPC   C3A56789  23.639   7.502   6.965
 4472POPC   C4A56790  24.105   7.483   6.861
 4472POPC   C1B56791  23.884   7.601   6.269
 4472POPC   C2B56792  23.781   7.859   6.620
 4472POPC   C3B56793  23.883   7.934   7.059
 4472POPC   C4B56794  23.893   7.781   7.515
 4473POPC   NC356795  33.570  39.273   5.401
 4473POPC   PO456796  34.179  39.319   5.225
 4473POPC   GL156797  33.989  39.441   5.684
 4473POPC   GL256798  33.927  39.104   5.813
 4473POPC   C1A56799  33.711  39.423   6.131
 4473POPC   D2A56800  33.593  39.215   6.544
 4473POPC   C3A56801  33.632  39.340   7.010
 4473POPC   C4A56802  33.557  39.742   7.226
 4473POPC   C1B56803  34.051  39.026   6.274
 4473POPC   C2B56804  34.135  38.896   6.696
 4473POPC   C3B56805  33.985  38.948   7.108
 4473POPC   C4B56806  33.685  39.013   7.463
 4474POPC   NC356807  15.667  17.628   5.250
 4474POPC   PO456808  15.025  17.465   5.362
 4474POPC   GL156809  15.308  17.561   5.726
 4474POPC   GL256810  15.008  17.640   5.891
 4474POPC   C1A56811  15.422  17.777   6.142
 4474POPC   D2A56812  15.159  17.752   6.522
 4474POPC   C3A56813  15.341  17.606   6.883
 4474POPC   C4A56814  15.197  17.697   7.275
 4474POPC   C1B56815  15.105  17.345   6.223
 4474POPC   C2B56816  14.912  17.256   6.646
 4474POPC   C3B56817  14.959  17.269   7.072
 4474POPC   C4B56818  14.933  16.901   7.336
 4475POPC   NC356819   3.842   4.500   5.426
 4475POPC   PO456820   3.459   4.037   5.258
 4475POPC   GL156821   3.555   4.069   5.688
 4475POPC   GL256822   3.890   3.947   5.677
 4475POPC   C1A56823   3.420   4.277   6.103
 4475POPC   D2A56824   3.346   4.653   6.414
 4475POPC   C3A56825   3.441   4.632   6.882
 4475POPC   C4A56826   3.608   4.375   7.229
 4475POPC   C1B56827   3.928   4.170   6.075
 4475POPC   C2B56828   3.758   4.314   6.495
 4475POPC   C3B56829   3.914   4.165   6.884
 4475POPC   C4B56830   4.001   3.999   7.285
 4476POPC   NC356831   0.336  41.084   5.558
 4476POPC   PO456832   0.774  40.667   5.270
 4476POPC   GL156833   0.670  40.729   5.733
 4476POPC   GL256834   0.324  40.623   5.817
 4476POPC   C1A56835   0.717  40.865   6.197
 4476POPC   D2A56836   0.664  40.632   6.613
 4476POPC   C3A56837   0.530  40.621   7.069
 4476POPC   C4A56838   0.507  40.996   7.309
 4476POPC   C1B56839   0.262  40.637   6.246
 4476POPC   C2B56840   0.081  40.854   6.575
 4476POPC   C3B56841   0.094  40.868   6.991
 4476POPC   C4B56842   0.089  40.710   7.387
 4477POPC   NC356843  22.714  30.945   5.293
 4477POPC   PO456844  23.257  30.527   5.376
 4477POPC   GL156845  23.046  30.815   5.709
 4477POPC   GL256846  22.700  30.881   5.795
 4477POPC   C1A56847  23.099  31.034   6.113
 4477POPC   D2A56848  22.975  30.933   6.524
 4477POPC   C3A56849  22.981  31.079   6.947
 4477POPC   C4A56850  23.188  30.866   7.264
 4477POPC   C1B56851  22.858  30.567   6.112
 4477POPC   C2B56852  22.891  30.434   6.525
 4477POPC   C3B56853  22.992  30.545   6.918
 4477POPC   C4B56854  22.953  30.380   7.344
 4478POPC   NC356855   7.617  42.883   5.434
 4478POPC   PO456856   7.111  43.474   5.370
 4478POPC   GL156857   7.104  43.217   5.767
 4478POPC   GL256858   7.251  42.900   5.790
 4478POPC   C1A56859   7.198  43.187   6.215
 4478POPC   D2A56860   7.621  43.143   6.437
 4478POPC   C3A56861   7.566  43.180   6.880
 4478POPC   C4A56862   7.565  43.232   7.307
 4478POPC   C1B56863   7.398  42.723   6.215
 4478POPC   C2B56864   7.474  42.712   6.681
 4478POPC   C3B56865   7.480  42.726   7.119
 4478POPC   C4B56866   7.264  42.817   7.422
 4479POPC   NC356867  21.028  19.687   5.574
 4479POPC   PO456868  20.489  19.898   5.218
 4479POPC   GL156869  20.589  19.971   5.670
 4479POPC   GL256870  20.488  20.284   5.866
 4479POPC   C1A56871  20.592  19.825   6.109
 4479POPC   D2A56872  20.870  19.789   6.446
 4479POPC   C3A56873  20.709  19.565   6.806
 4479POPC   C4A56874  20.797  19.650   7.220
 4479POPC   C1B56875  20.259  20.220   6.251
 4479POPC   C2B56876  20.406  19.984   6.601
 4479POPC   C3B56877  20.713  20.068   6.941
 4479POPC   C4B56878  20.723  20.129   7.389
 4480POPC   NC356879   2.435   0.563   5.434
 4480POPC   PO456880   3.082   0.166   5.523
 4480POPC   GL156881   2.783   0.381   5.770
 4480POPC   GL256882   2.459   0.206   5.787
 4480POPC   C1A56883   2.680   0.491   6.163
 4480POPC   D2A56884   2.591   0.627   6.544
 4480POPC   C3A56885   2.770   0.472   6.903
 4480POPC   C4A56886   2.595   0.459   7.289
 4480POPC   C1B56887   2.306   0.120   6.187
 4480POPC   C2B56888   2.519   0.073   6.575
 4480POPC   C3B56889   2.441   0.058   6.992
 4480POPC   C4B56890   2.206   0.039   7.336
 4481POPC   NC356891  11.819  34.620   5.478
 4481POPC   PO456892  12.302  34.238   5.295
 4481POPC   GL156893  12.336  34.483   5.674
 4481POPC   GL256894  12.410  34.852   5.632
 4481POPC   C1A56895  12.110  34.497   6.071
 4481POPC   D2A56896  12.020  34.785   6.416
 4481POPC   C3A56897  11.955  34.630   6.822
 4481POPC   C4A56898  12.206  34.742   7.135
 4481POPC   C1B56899  12.535  34.773   6.093
 4481POPC   C2B56900  12.486  34.511   6.454
 4481POPC   C3B56901  12.399  34.347   6.846
 4481POPC   C4B56902  12.509  34.374   7.258
 4482POPC   NC356903  13.091  12.730   5.477
 4482POPC   PO456904  12.603  13.273   5.552
 4482POPC   GL156905  12.903  13.076   5.847
 4482POPC   GL256906  13.184  13.288   5.731
 4482POPC   C1A56907  12.810  12.838   6.259
 4482POPC   D2A56908  12.441  12.674   6.530
 4482POPC   C3A56909  12.465  12.529   6.966
 4482POPC   C4A56910  12.690  12.726   7.257
 4482POPC   C1B56911  13.299  13.291   6.170
 4482POPC   C2B56912  13.226  13.036   6.548
 4482POPC   C3B56913  12.972  13.039   6.949
 4482POPC   C4B56914  12.980  13.096   7.424
 4483POPC   NC356915  27.867   3.873   5.096
 4483POPC   PO456916  27.431   3.438   5.450
 4483POPC   GL156917  27.333   3.737   5.761
 4483POPC   GL256918  27.584   3.497   5.927
 4483POPC   C1A56919  27.324   3.796   6.209
 4483POPC   D2A56920  27.427   3.450   6.491
 4483POPC   C3A56921  27.608   3.593   6.863
 4483POPC   C4A56922  27.428   3.767   7.220
 4483POPC   C1B56923  27.877   3.536   6.261
 4483POPC   C2B56924  28.060   3.349   6.638
 4483POPC   C3B56925  27.922   3.250   7.050
 4483POPC   C4B56926  27.843   3.546   7.370
 4484POPC   NC356927  26.413   2.854   5.399
 4484POPC   PO456928  27.068   2.841   5.327
 4484POPC   GL156929  26.859   2.946   5.735
 4484POPC   GL256930  26.588   2.717   5.848
 4484POPC   C1A56931  26.982   2.861   6.170
 4484POPC   D2A56932  27.242   2.781   6.507
 4484POPC   C3A56933  27.060   2.768   6.895
 4484POPC   C4A56934  26.815   3.055   7.088
 4484POPC   C1B56935  26.585   2.567   6.255
 4484POPC   C2B56936  26.643   2.800   6.620
 4484POPC   C3B56937  26.530   2.644   7.034
 4484POPC   C4B56938  26.416   2.277   7.228
 4485POPC   NC356939  16.416  13.432   5.621
 4485POPC   PO456940  16.944  13.881   5.436
 4485POPC   GL156941  16.873  13.597   5.812
 4485POPC   GL256942  17.025  13.274   5.781
 4485POPC   C1A56943  16.629  13.421   6.227
 4485POPC   D2A56944  16.493  13.455   6.648
 4485POPC   C3A56945  16.717  13.516   7.034
 4485POPC   C4A56946  17.065  13.731   7.253
 4485POPC   C1B56947  17.123  13.363   6.198
 4485POPC   C2B56948  17.009  13.211   6.589
 4485POPC   C3B56949  17.180  13.288   6.979
 4485POPC   C4B56950  17.009  13.227   7.352
 4486POPC   NC356951   8.048  14.466   5.256
 4486POPC   PO456952   8.668  14.340   5.238
 4486POPC   GL156953   8.438  14.421   5.613
 4486POPC   GL256954   8.210  14.202   5.690
 4486POPC   C1A56955   8.169  14.591   5.984
 4486POPC   D2A56956   8.120  14.566   6.417
 4486POPC   C3A56957   8.303  14.704   6.767
 4486POPC   C4A56958   8.245  14.658   7.203
 4486POPC   C1B56959   8.028  14.105   6.112
 4486POPC   C2B56960   7.870  14.144   6.533
 4486POPC   C3B56961   7.997  14.295   6.933
 4486POPC   C4B56962   7.878  14.128   7.325
 4487POPC   NC356963  41.033   2.525   5.483
 4487POPC   PO456964  40.444   2.759   5.251
 4487POPC   GL156965  40.572   2.700   5.681
 4487POPC   GL256966  40.291   2.538   5.797
 4487POPC   C1A56967  40.776   2.870   6.067
 4487POPC   D2A56968  40.964   2.947   6.485
 4487POPC   C3A56969  40.912   2.599   6.790
 4487POPC   C4A56970  41.003   2.627   7.225
 4487POPC   C1B56971  40.284   2.695   6.188
 4487POPC   C2B56972  40.432   2.855   6.542
 4487POPC   C3B56973  40.419   2.576   6.854
 4487POPC   C4B56974  40.540   2.414   7.240
 4488POPC   NC356975   0.770  33.558   5.578
 4488POPC   PO456976   1.416  33.791   5.345
 4488POPC   GL156977   1.282  33.963   5.768
 4488POPC   GL256978   0.942  33.958   5.944
 4488POPC   C1A56979   1.385  34.072   6.196
 4488POPC   D2A56980   1.292  33.892   6.599
 4488POPC   C3A56981   1.103  34.070   6.955
 4488POPC   C4A56982   1.462  33.966   7.235
 4488POPC   C1B56983   1.047  33.635   6.221
 4488POPC   C2B56984   1.019  33.449   6.643
 4488POPC   C3B56985   1.197  33.569   7.020
 4488POPC   C4B56986   1.058  33.714   7.401
 4489POPC   NC356987   2.621  19.047   5.281
 4489POPC   PO456988   3.266  19.198   5.461
 4489POPC   GL156989   2.937  19.211   5.788
 4489POPC   GL256990   2.605  19.392   5.739
 4489POPC   C1A56991   3.007  19.082   6.230
 4489POPC   D2A56992   2.823  18.955   6.625
 4489POPC   C3A56993   2.975  19.126   6.998
 4489POPC   C4A56994   2.764  18.945   7.334
 4489POPC   C1B56995   2.523  19.210   6.190
 4489POPC   C2B56996   2.425  19.319   6.644
 4489POPC   C3B56997   2.436  19.297   7.081
 4489POPC   C4B56998   2.690  19.423   7.412
 4490POPC   NC356999   0.963  10.434   5.454
 4490POPC   PO457000   1.592  10.614   5.566
 4490POPC   GL157001   1.358  10.713   5.927
 4490POPC   GL257002   1.273  10.348   5.904
 4490POPC   C1A57003   1.266  10.696   6.386
 4490POPC   D2A57004   1.152  10.283   6.584
 4490POPC   C3A57005   1.235  10.277   7.014
 4490POPC   C4A57006   1.409  10.638   7.169
 4490POPC   C1B57007   0.900  10.472   6.121
 4490POPC   C2B57008   0.765  10.616   6.514
 4490POPC   C3B57009   0.969  10.712   6.893
 4490POPC   C4B57010   0.720  10.767   7.252
 4491POPC   NC357011  40.540  16.300   5.515
 4491POPC   PO457012  40.880  16.888   5.492
 4491POPC   GL157013  40.650  16.724   5.806
 4491POPC   GL257014  40.929  16.484   5.820
 4491POPC   C1A57015  40.618  16.909   6.204
 4491POPC   D2A57016  40.828  16.831   6.585
 4491POPC   C3A57017  40.622  16.982   6.922
 4491POPC   C4A57018  40.824  16.910   7.265
 4491POPC   C1B57019  40.865  16.453   6.226
 4491POPC   C2B57020  40.810  16.292   6.623
 4491POPC   C3B57021  40.767  16.458   7.000
 4491POPC   C4B57022  40.900  16.427   7.382
 4492POPC   NC357023  31.966  35.568   5.443
 4492POPC   PO457024  32.450  35.063   5.369
 4492POPC   GL157025  32.345  35.319   5.709
 4492POPC   GL257026  32.002  35.254   5.848
 4492POPC   C1A57027  32.374  35.504   6.125
 4492POPC   D2A57028  32.463  35.306   6.537
 4492POPC   C3A57029  32.281  35.428   6.919
 4492POPC   C4A57030  32.531  35.246   7.215
 4492POPC   C1B57031  31.798  35.047   6.203
 4492POPC   C2B57032  31.662  34.964   6.599
 4492POPC   C3B57033  31.818  35.137   6.950
 4492POPC   C4B57034  31.973  35.284   7.338
 4493POPC   NC357035  41.359  21.458   5.449
 4493POPC   PO457036  42.037  21.321   5.353
 4493POPC   GL157037  41.770  21.274   5.728
 4493POPC   GL257038  41.658  21.643   5.818
 4493POPC   C1A57039  41.808  21.169   6.178
 4493POPC   D2A57040  41.744  20.944   6.601
 4493POPC   C3A57041  41.585  21.197   6.909
 4493POPC   C4A57042  41.691  21.319   7.338
 4493POPC   C1B57043  41.346  21.494   6.117
 4493POPC   C2B57044  41.337  21.487   6.568
 4493POPC   C3B57045  41.205  21.512   7.019
 4493POPC   C4B57046  41.340  21.659   7.435
 4494POPC   NC357047  41.464   6.788   5.417
 4494POPC   PO457048  41.297   6.175   5.451
 4494POPC   GL157049  41.405   6.412   5.839
 4494POPC   GL257050  41.699   6.666   5.855
 4494POPC   C1A57051  41.544   6.387   6.278
 4494POPC   D2A57052  41.719   6.579   6.653
 4494POPC   C3A57053  41.410   6.621   6.988
 4494POPC   C4A57054  41.464   6.662   7.459
 4494POPC   C1B57055  41.604   6.907   6.243
 4494POPC   C2B57056  41.549   7.063   6.689
 4494POPC   C3B57057  41.739   6.982   7.109
 4494POPC   C4B57058  41.613   7.132   7.551
 4495POPC   NC357059  34.263   2.813   5.426
 4495POPC   PO457060  34.795   2.338   5.395
 4495POPC   GL157061  34.641   2.592   5.779
 4495POPC   GL257062  34.636   2.932   5.809
 4495POPC   C1A57063  34.556   2.656   6.238
 4495POPC   D2A57064  34.765   2.795   6.611
 4495POPC   C3A57065  34.711   2.605   7.030
 4495POPC   C4A57066  34.550   2.609   7.460
 4495POPC   C1B57067  34.526   3.186   6.167
 4495POPC   C2B57068  34.459   3.280   6.582
 4495POPC   C3B57069  34.523   3.105   6.974
 4495POPC   C4B57070  34.521   3.317   7.326
 4496POPC   NC357071   4.216  10.237   5.550
 4496POPC   PO457072   4.245   9.578   5.337
 4496POPC   GL157073   4.459   9.711   5.715
 4496POPC   GL257074   4.364   9.407   5.841
 4496POPC   C1A57075   4.407   9.858   6.164
 4496POPC   D2A57076   4.128   9.968   6.517
 4496POPC   C3A57077   4.353  10.039   6.890
 4496POPC   C4A57078   4.331   9.922   7.344
 4496POPC   C1B57079   4.104   9.412   6.198
 4496POPC   C2B57080   4.292   9.393   6.559
 4496POPC   C3B57081   4.296   9.549   6.929
 4496POPC   C4B57082   4.087   9.432   7.282
 4497POPC   NC357083  16.885   7.207   5.418
 4497POPC   PO457084  16.514   7.734   5.524
 4497POPC   GL157085  16.741   7.531   5.813
 4497POPC   GL257086  16.570   7.202   5.819
 4497POPC   C1A57087  16.649   7.509   6.233
 4497POPC   D2A57088  16.866   7.581   6.579
 4497POPC   C3A57089  16.677   7.404   6.932
 4497POPC   C4A57090  16.897   7.409   7.312
 4497POPC   C1B57091  16.940   7.109   6.116
 4497POPC   C2B57092  16.903   7.055   6.579
 4497POPC   C3B57093  16.971   6.976   7.024
 4497POPC   C4B57094  16.637   6.969   7.349
 4498POPC   NC357095  20.587   4.631   5.572
 4498POPC   PO457096  20.771   3.999   5.571
 4498POPC   GL157097  20.680   4.283   5.940
 4498POPC   GL257098  20.817   4.663   6.013
 4498POPC   C1A57099  20.660   4.186   6.353
 4498POPC   D2A57100  20.842   4.326   6.715
 4498POPC   C3A57101  20.601   4.129   6.991
 4498POPC   C4A57102  20.281   4.201   7.294
 4498POPC   C1B57103  20.435   4.636   6.253
 4498POPC   C2B57104  20.371   4.511   6.673
 4498POPC   C3B57105  20.475   4.627   7.091
 4498POPC   C4B57106  20.568   4.764   7.536
 4499POPC   NC357107  17.792  44.104   5.473
 4499POPC   PO457108  17.335  43.619   5.295
 4499POPC   GL157109  17.367  43.786   5.746
 4499POPC   GL257110  17.726  43.858   5.918
 4499POPC   C1A57111  17.369  43.590   6.159
 4499POPC   D2A57112  17.645  43.621   6.506
 4499POPC   C3A57113  17.473  43.896   6.770
 4499POPC   C4A57114  17.195  43.865   7.111
 4499POPC   C1B57115  17.556  44.124   6.270
 4499POPC   C2B57116  17.626  44.425   6.616
 4499POPC   C3B57117  17.495  44.333   7.037
 4499POPC   C4B57118  17.695  44.006   7.233
 4500POPC   NC357119   1.359  11.768   5.381
 4500POPC   PO457120   1.259  12.428   5.689
 4500POPC   GL157121   1.178  12.135   5.980
 4500POPC   GL257122   1.284  11.853   5.882
 4500POPC   C1A57123   0.954  12.091   6.339
 4500POPC   D2A57124   1.014  12.080   6.764
 4500POPC   C3A57125   1.223  12.377   7.013
 4500POPC   C4A57126   1.221  12.142   7.417
 4500POPC   C1B57127   1.472  11.724   6.265
 4500POPC   C2B57128   1.630  11.840   6.628
 4500POPC   C3B57129   1.492  11.938   6.998
 4500POPC   C4B57130   1.477  11.670   7.321
 4501POPC   NC357131  25.909  28.889   5.413
 4501POPC   PO457132  25.757  29.589   5.521
 4501POPC   GL157133  26.051  29.293   5.777
 4501POPC   GL257134  26.006  28.953   5.899
 4501POPC   C1A57135  26.238  29.280   6.187
 4501POPC   D2A57136  26.189  29.036   6.576
 4501POPC   C3A57137  26.194  29.273   6.968
 4501POPC   C4A57138  25.901  29.452   7.271
 4501POPC   C1B57139  26.298  28.710   6.163
 4501POPC   C2B57140  26.428  28.560   6.596
 4501POPC   C3B57141  26.245  28.714   7.003
 4501POPC   C4B57142  25.990  28.923   7.307
 4502POPC   NC357143  40.520  32.054   5.471
 4502POPC   PO457144  41.212  32.064   5.702
 4502POPC   GL157145  40.848  32.156   5.909
 4502POPC   GL257146  40.697  31.886   5.899
 4502POPC   C1A57147  40.820  32.403   6.275
 4502POPC   D2A57148  40.696  32.700   6.528
 4502POPC   C3A57149  40.738  32.532   6.915
 4502POPC   C4A57150  40.901  32.635   7.265
 4502POPC   C1B57151  40.540  31.976   6.274
 4502POPC   C2B57152  40.460  32.195   6.611
 4502POPC   C3B57153  40.536  32.049   7.027
 4502POPC   C4B57154  40.757  32.166   7.399
 4503POPC   NC357155  19.555   6.235   5.547
 4503POPC   PO457156  19.911   5.783   5.155
 4503POPC   GL157157  20.004   5.845   5.688
 4503POPC   GL257158  20.011   6.171   5.823
 4503POPC   C1A57159  19.767   5.878   6.154
 4503POPC   D2A57160  19.709   5.995   6.582
 4503POPC   C3A57161  19.702   5.718   6.939
 4503POPC   C4A57162  19.526   5.770   7.334
 4503POPC   C1B57163  20.100   6.271   6.286
 4503POPC   C2B57164  20.126   6.263   6.740
 4503POPC   C3B57165  19.825   6.218   7.083
 4503POPC   C4B57166  19.879   6.096   7.511
 4504POPC   NC357167  14.735  29.988   5.334
 4504POPC   PO457168  14.157  29.836   5.337
 4504POPC   GL157169  14.336  29.932   5.725
 4504POPC   GL257170  14.518  30.248   5.747
 4504POPC   C1A57171  14.215  30.038   6.172
 4504POPC   D2A57172  14.177  29.835   6.603
 4504POPC   C3A57173  14.357  30.042   6.947
 4504POPC   C4A57174  14.116  30.227   7.293
 4504POPC   C1B57175  14.716  29.918   6.046
 4504POPC   C2B57176  14.696  29.937   6.485
 4504POPC   C3B57177  14.860  29.822   6.875
 4504POPC   C4B57178  14.747  29.943   7.276
 4505POPC   NC357179  36.244   9.333   5.130
 4505POPC   PO457180  35.958   9.921   5.367
 4505POPC   GL157181  36.180   9.776   5.749
 4505POPC   GL257182  36.295   9.415   5.745
 4505POPC   C1A57183  36.064   9.810   6.181
 4505POPC   D2A57184  35.873   9.572   6.512
 4505POPC   C3A57185  35.714   9.843   6.842
 4505POPC   C4A57186  35.921   9.842   7.223
 4505POPC   C1B57187  36.428   9.444   6.178
 4505POPC   C2B57188  36.380   9.647   6.570
 4505POPC   C3B57189  36.405   9.768   6.992
 4505POPC   C4B57190  36.298   9.480   7.281
 4506POPC   NC357191  33.351   7.276   5.490
 4506POPC   PO457192  33.817   7.706   5.400
 4506POPC   GL157193  33.791   7.353   5.763
 4506POPC   GL257194  33.541   7.106   5.909
 4506POPC   C1A57195  33.761   7.428   6.242
 4506POPC   D2A57196  33.585   7.574   6.646
 4506POPC   C3A57197  33.976   7.581   6.884
 4506POPC   C4A57198  34.114   7.570   7.295
 4506POPC   C1B57199  33.840   6.927   6.205
 4506POPC   C2B57200  33.907   7.086   6.633
 4506POPC   C3B57201  33.642   7.170   6.954
 4506POPC   C4B57202  33.640   7.111   7.370
 4507POPC   NC357203   1.701  21.519   5.506
 4507POPC   PO457204   2.331  21.263   5.280
 4507POPC   GL157205   2.038  21.223   5.735
 4507POPC   GL257206   1.685  21.115   5.836
 4507POPC   C1A57207   2.069  21.157   6.186
 4507POPC   D2A57208   1.848  21.317   6.527
 4507POPC   C3A57209   1.779  21.080   6.861
 4507POPC   C4A57210   2.068  21.184   7.179
 4507POPC   C1B57211   1.555  21.468   6.135
 4507POPC   C2B57212   1.454  21.654   6.555
 4507POPC   C3B57213   1.673  21.555   6.965
 4507POPC   C4B57214   1.798  21.495   7.460
 4508POPC   NC357215  35.576  12.870   5.608
 4508POPC   PO457216  36.166  12.785   5.207
 4508POPC   GL157217  36.080  12.847   5.676
 4508POPC   GL257218  36.094  12.547   5.886
 4508POPC   C1A57219  35.992  13.060   6.095
 4508POPC   D2A57220  35.795  13.057   6.527
 4508POPC   C3A57221  36.074  13.013   6.896
 4508POPC   C4A57222  36.047  12.959   7.357
 4508POPC   C1B57223  36.163  12.630   6.346
 4508POPC   C2B57224  35.912  12.554   6.716
 4508POPC   C3B57225  35.924  12.533   7.162
 4508POPC   C4B57226  35.976  12.418   7.633
 4509POPC   NC357227  10.741  36.931   5.444
 4509POPC   PO457228  10.107  37.060   5.548
 4509POPC   GL157229  10.470  37.025   5.868
 4509POPC   GL257230  10.714  36.721   5.915
 4509POPC   C1A57231  10.593  37.030   6.319
 4509POPC   D2A57232  10.684  37.296   6.672
 4509POPC   C3A57233  10.693  37.069   7.074
 4509POPC   C4A57234  10.380  36.736   7.209
 4509POPC   C1B57235  10.825  36.573   6.366
 4509POPC   C2B57236  10.758  36.635   6.821
 4509POPC   C3B57237  10.792  36.409   7.231
 4509POPC   C4B57238  10.944  36.364   7.671
 4510POPC   NC357239  27.385   3.005   5.614
 4510POPC   PO457240  27.963   2.618   5.663
 4510POPC   GL157241  27.621   2.697   5.988
 4510POPC   GL257242  27.480   3.034   6.112
 4510POPC   C1A57243  27.574   2.436   6.359
 4510POPC   D2A57244  27.353   2.342   6.730
 4510POPC   C3A57245  27.475   2.538   7.075
 4510POPC   C4A57246  27.836   2.728   7.150
 4510POPC   C1B57247  27.900   3.002   6.282
 4510POPC   C2B57248  27.752   2.852   6.649
 4510POPC   C3B57249  27.478   3.062   6.880
 4510POPC   C4B57250  27.349   3.036   7.280
 4511POPC   NC357251  41.535   9.276   5.369
 4511POPC   PO457252  41.302   8.686   5.536
 4511POPC   GL157253  41.571   8.764   5.881
 4511POPC   GL257254  41.771   9.015   5.763
 4511POPC   C1A57255  41.709   8.846   6.311
 4511POPC   D2A57256  41.600   9.177   6.597
 4511POPC   C3A57257  41.540   9.034   7.015
 4511POPC   C4A57258  41.798   8.769   7.235
 4511POPC   C1B57259  41.904   9.272   6.144
 4511POPC   C2B57260  42.125   9.153   6.539
 4511POPC   C3B57261  42.054   9.230   6.984
 4511POPC   C4B57262  41.797   9.291   7.373
 4512POPC   NC357263   5.163  37.737   5.318
 4512POPC   PO457264   4.640  37.999   5.703
 4512POPC   GL157265   4.985  37.715   5.794
 4512POPC   GL257266   5.356  37.857   5.788
 4512POPC   C1A57267   5.121  37.588   6.178
 4512POPC   D2A57268   5.180  37.755   6.577
 4512POPC   C3A57269   4.932  37.657   6.911
 4512POPC   C4A57270   5.049  37.686   7.341
 4512POPC   C1B57271   5.501  37.942   6.214
 4512POPC   C2B57272   5.470  38.200   6.613
 4512POPC   C3B57273   5.343  38.040   7.015
 4512POPC   C4B57274   5.471  37.894   7.445
 4513POPC   NC357275   9.166  20.383   5.391
 4513POPC   PO457276   8.756  20.945   5.435
 4513POPC   GL157277   8.983  20.825   5.800
 4513POPC   GL257278   8.948  20.471   5.856
 4513POPC   C1A57279   9.158  20.755   6.222
 4513POPC   D2A57280   8.954  20.850   6.595
 4513POPC   C3A57281   9.117  20.788   7.001
 4513POPC   C4A57282   8.884  20.539   7.250
 4513POPC   C1B57283   8.950  20.272   6.276
 4513POPC   C2B57284   9.065  20.358   6.713
 4513POPC   C3B57285   9.314  20.295   7.066
 4513POPC   C4B57286   9.378  20.445   7.490
 4514POPC   NC357287   0.862  42.388   5.494
 4514POPC   PO457288   0.187  42.552   5.424
 4514POPC   GL157289   0.285  42.337   5.846
 4514POPC   GL257290   0.619  42.212   5.899
 4514POPC   C1A57291   0.430  42.442   6.300
 4514POPC   D2A57292   0.400  42.722   6.686
 4514POPC   C3A57293   0.329  42.417   6.996
 4514POPC   C4A57294   0.219  41.980   6.867
 4514POPC   C1B57295   0.822  42.099   6.279
 4514POPC   C2B57296   0.785  42.065   6.722
 4514POPC   C3B57297   0.704  42.093   7.144
 4514POPC   C4B57298   0.718  42.402   7.461
 4515POPC   NC357299  39.507  16.885   5.241
 4515POPC   PO457300  39.186  16.328   5.493
 4515POPC   GL157301  39.419  16.564   5.797
 4515POPC   GL257302  39.306  16.907   5.733
 4515POPC   C1A57303  39.344  16.477   6.248
 4515POPC   D2A57304  39.471  16.463   6.659
 4515POPC   C3A57305  39.232  16.615   7.017
 4515POPC   C4A57306  39.321  17.010   7.212
 4515POPC   C1B57307  38.983  16.766   6.058
 4515POPC   C2B57308  39.013  16.768   6.536
 4515POPC   C3B57309  38.892  17.020   6.921
 4515POPC   C4B57310  38.847  17.160   7.343
 4516POPC   NC357311   5.864  25.489   5.424
 4516POPC   PO457312   6.324  24.968   5.452
 4516POPC   GL157313   6.026  25.119   5.734
 4516POPC   GL257314   6.147  25.459   5.844
 4516POPC   C1A57315   5.928  25.111   6.165
 4516POPC   D2A57316   6.069  25.353   6.521
 4516POPC   C3A57317   5.924  25.150   6.903
 4516POPC   C4A57318   5.547  25.148   7.183
 4516POPC   C1B57319   6.203  25.814   6.134
 4516POPC   C2B57320   6.389  25.777   6.560
 4516POPC   C3B57321   6.137  25.663   6.935
 4516POPC   C4B57322   5.974  25.441   7.307
 4517POPC   NC357323   6.988   9.372   5.464
 4517POPC   PO457324   7.552   8.999   5.449
 4517POPC   GL157325   7.519   9.058   5.863
 4517POPC   GL257326   7.153   9.063   5.869
 4517POPC   C1A57327   7.698   9.099   6.274
 4517POPC   D2A57328   7.635   9.364   6.633
 4517POPC   C3A57329   7.659   9.193   7.038
 4517POPC   C4A57330   7.516   8.786   7.106
 4517POPC   C1B57331   7.272   8.779   6.231
 4517POPC   C2B57332   7.207   8.854   6.685
 4517POPC   C3B57333   7.148   9.143   7.058
 4517POPC   C4B57334   7.109   9.032   7.504
 4518POPC   NC357335   5.736  27.834   5.404
 4518POPC   PO457336   5.591  28.470   5.446
 4518POPC   GL157337   5.927  28.305   5.754
 4518POPC   GL257338   6.089  27.981   5.836
 4518POPC   C1A57339   6.139  28.400   6.152
 4518POPC   D2A57340   6.128  28.127   6.503
 4518POPC   C3A57341   6.227  28.357   6.864
 4518POPC   C4A57342   6.108  28.296   7.274
 4518POPC   C1B57343   5.741  28.036   6.147
 4518POPC   C2B57344   5.531  28.126   6.514
 4518POPC   C3B57345   5.739  28.126   6.911
 4518POPC   C4B57346   5.795  27.906   7.300
 4519POPC   NC357347  18.611  11.405   5.591
 4519POPC   PO457348  19.287  11.340   5.383
 4519POPC   GL157349  19.293  11.219   5.833
 4519POPC   GL257350  18.991  11.351   5.943
 4519POPC   C1A57351  19.405  11.281   6.291
 4519POPC   D2A57352  19.522  11.085   6.699
 4519POPC   C3A57353  19.388  11.331   7.069
 4519POPC   C4A57354  19.139  11.320   7.412
 4519POPC   C1B57355  18.918  11.143   6.341
 4519POPC   C2B57356  19.008  11.192   6.755
 4519POPC   C3B57357  18.764  11.190   7.121
 4519POPC   C4B57358  18.470  11.156   7.458
 4520POPC   NC357359  44.355  28.229   5.736
 4520POPC   PO457360  44.951  28.168   5.385
 4520POPC   GL157361  44.839  28.413   5.766
 4520POPC   GL257362  44.684  28.747   5.693
 4520POPC   C1A57363  44.740  28.457   6.219
 4520POPC   D2A57364  44.476  28.373   6.572
 4520POPC   C3A57365  44.675  28.463   6.956
 4520POPC   C4A57366  44.716  28.196   7.320
 4520POPC   C1B57367  44.383  28.782   6.042
 4520POPC   C2B57368  44.357  28.877   6.441
 4520POPC   C3B57369  44.240  28.745   6.834
 4520POPC   C4B57370  44.181  28.791   7.265
 4521POPC   NC357371   2.095   6.885   5.158
 4521POPC   PO457372   1.670   6.650   5.636
 4521POPC   GL157373   1.961   6.715   5.889
 4521POPC   GL257374   2.193   6.485   5.785
 4521POPC   C1A57375   1.935   6.667   6.320
 4521POPC   D2A57376   2.107   6.865   6.652
 4521POPC   C3A57377   1.985   6.679   6.996
 4521POPC   C4A57378   1.659   6.625   7.234
 4521POPC   C1B57379   2.400   6.530   6.156
 4521POPC   C2B57380   2.319   6.413   6.549
 4521POPC   C3B57381   2.415   6.407   6.956
 4521POPC   C4B57382   2.446   6.787   7.190
 4522POPC   NC357383  44.212  16.174   5.138
 4522POPC   PO457384  43.721  15.793   5.301
 4522POPC   GL157385  43.911  15.971   5.659
 4522POPC   GL257386  43.600  15.937   5.807
 4522POPC   C1A57387  44.016  16.104   6.102
 4522POPC   D2A57388  43.836  16.178   6.532
 4522POPC   C3A57389  43.855  15.918   6.876
 4522POPC   C4A57390  44.188  16.007   7.174
 4522POPC   C1B57391  43.632  15.776   6.251
 4522POPC   C2B57392  43.449  15.648   6.652
 4522POPC   C3B57393  43.435  15.584   7.110
 4522POPC   C4B57394  43.786  15.711   7.337
 4523POPC   NC357395   6.045  20.299   5.575
 4523POPC   PO457396   5.592  20.785   5.392
 4523POPC   GL157397   5.714  20.647   5.808
 4523POPC   GL257398   5.496  20.370   5.776
 4523POPC   C1A57399   6.018  20.631   6.179
 4523POPC   D2A57400   6.147  20.556   6.598
 4523POPC   C3A57401   6.083  20.771   6.960
 4523POPC   C4A57402   6.119  20.560   7.343
 4523POPC   C1B57403   5.633  20.302   6.205
 4523POPC   C2B57404   5.639  20.537   6.594
 4523POPC   C3B57405   5.691  20.429   7.021
 4523POPC   C4B57406   5.628  20.666   7.368
 4524POPC   NC357407  31.317  16.836   5.384
 4524POPC   PO457408  31.388  16.243   5.331
 4524POPC   GL157409  31.374  16.470   5.758
 4524POPC   GL257410  31.609  16.749   5.857
 4524POPC   C1A57411  31.286  16.514   6.205
 4524POPC   D2A57412  31.557  16.481   6.540
 4524POPC   C3A57413  31.350  16.569   6.900
 4524POPC   C4A57414  31.440  16.744   7.280
 4524POPC   C1B57415  31.789  16.885   6.289
 4524POPC   C2B57416  31.811  16.900   6.763
 4524POPC   C3B57417  31.990  16.910   7.201
 4524POPC   C4B57418  31.811  16.903   7.625
 4525POPC   NC357419  26.427   4.841   5.424
 4525POPC   PO457420  25.806   4.642   5.628
 4525POPC   GL157421  25.886   5.031   5.814
 4525POPC   GL257422  26.156   5.268   5.699
 4525POPC   C1A57423  26.003   5.054   6.225
 4525POPC   D2A57424  25.898   5.107   6.637
 4525POPC   C3A57425  26.100   4.829   6.938
 4525POPC   C4A57426  26.079   5.023   7.335
 4525POPC   C1B57427  26.457   5.153   6.033
 4525POPC   C2B57428  26.424   5.193   6.488
 4525POPC   C3B57429  26.296   5.306   6.928
 4525POPC   C4B57430  26.485   5.306   7.344
 4526POPC   NC357431  26.011   2.374   5.610
 4526POPC   PO457432  25.979   3.067   5.457
 4526POPC   GL157433  26.156   3.029   5.817
 4526POPC   GL257434  26.430   3.246   5.736
 4526POPC   C1A57435  26.130   2.806   6.200
 4526POPC   D2A57436  26.156   2.651   6.619
 4526POPC   C3A57437  25.910   2.800   6.963
 4526POPC   C4A57438  26.071   2.698   7.330
 4526POPC   C1B57439  26.548   3.145   6.145
 4526POPC   C2B57440  26.461   3.260   6.534
 4526POPC   C3B57441  26.321   3.100   6.898
 4526POPC   C4B57442  26.365   3.112   7.323
 4527POPC   NC357443  40.001   0.917   5.485
 4527POPC   PO457444  39.521   0.415   5.439
 4527POPC   GL157445  39.865   0.457   5.795
 4527POPC   GL257446  39.865   0.782   5.945
 4527POPC   C1A57447  40.040   0.313   6.232
 4527POPC   D2A57448  39.791   0.175   6.633
 4527POPC   C3A57449  39.917   0.249   7.057
 4527POPC   C4A57450  40.143   0.243   7.459
 4527POPC   C1B57451  39.983   0.812   6.342
 4527POPC   C2B57452  40.137   0.571   6.702
 4527POPC   C3B57453  40.294   0.609   7.112
 4527POPC   C4B57454  40.178   0.779   7.499
 4528POPC   NC357455  44.171  14.826   5.711
 4528POPC   PO457456  43.989  14.385   5.277
 4528POPC   GL157457  43.873  14.437   5.769
 4528POPC   GL257458  43.760  14.165   5.940
 4528POPC   C1A57459  43.798  14.654   6.234
 4528POPC   D2A57460  43.830  14.859   6.687
 4528POPC   C3A57461  43.857  14.581   7.090
 4528POPC   C4A57462  44.172  14.361   7.376
 4528POPC   C1B57463  43.869  14.115   6.355
 4528POPC   C2B57464  44.053  14.286   6.689
 4528POPC   C3B57465  43.997  14.066   7.004
 4528POPC   C4B57466  43.747  14.064   7.313
 4529POPC   NC357467   6.633  30.044   5.340
 4529POPC   PO457468   6.147  30.379   5.657
 4529POPC   GL157469   6.506  30.132   5.877
 4529POPC   GL257470   6.691  29.823   5.827
 4529POPC   C1A57471   6.505  30.025   6.341
 4529POPC   D2A57472   6.610  30.080   6.803
 4529POPC   C3A57473   6.535  30.244   7.232
 4529POPC   C4A57474   6.336  30.172   7.637
 4529POPC   C1B57475   6.950  29.753   6.171
 4529POPC   C2B57476   6.895  29.680   6.607
 4529POPC   C3B57477   6.775  29.626   7.020
 4529POPC   C4B57478   6.971  29.994   7.178
 4530POPC   NC357479   9.919  13.809   5.468
 4530POPC   PO457480   9.270  13.549   5.347
 4530POPC   GL157481   9.535  13.505   5.776
 4530POPC   GL257482   9.825  13.316   5.673
 4530POPC   C1A57483   9.540  13.720   6.234
 4530POPC   D2A57484   9.540  13.573   6.676
 4530POPC   C3A57485   9.542  13.906   7.027
 4530POPC   C4A57486   9.573  13.899   7.501
 4530POPC   C1B57487   9.949  13.460   6.090
 4530POPC   C2B57488  10.056  13.402   6.546
 4530POPC   C3B57489  10.011  13.585   6.962
 4530POPC   C4B57490  10.009  13.488   7.390
 4531POPC   NC357491  41.319  31.677   5.506
 4531POPC   PO457492  41.760  31.284   5.401
 4531POPC   GL157493  41.552  31.345   5.809
 4531POPC   GL257494  41.268  31.098   5.782
 4531POPC   C1A57495  41.522  31.626   6.179
 4531POPC   D2A57496  41.696  31.577   6.603
 4531POPC   C3A57497  41.451  31.829   6.883
 4531POPC   C4A57498  41.374  31.774   7.318
 4531POPC   C1B57499  41.268  31.190   6.241
 4531POPC   C2B57500  41.213  31.397   6.656
 4531POPC   C3B57501  41.401  31.321   7.091
 4531POPC   C4B57502  41.315  31.145   7.527
 4532POPC   NC357503  28.484  39.852   5.212
 4532POPC   PO457504  28.095  40.324   5.522
 4532POPC   GL157505  28.318  40.083   5.833
 4532POPC   GL257506  28.250  39.751   5.743
 4532POPC   C1A57507  28.481  39.882   6.224
 4532POPC   D2A57508  28.358  39.927   6.654
 4532POPC   C3A57509  28.568  39.797   7.011
 4532POPC   C4A57510  28.487  40.131   7.275
 4532POPC   C1B57511  28.193  39.476   6.091
 4532POPC   C2B57512  28.204  39.473   6.509
 4532POPC   C3B57513  28.127  39.515   6.940
 4532POPC   C4B57514  28.096  39.819   7.251
 4533POPC   NC357515  16.949  42.836   5.308
 4533POPC   PO457516  16.604  42.283   5.231
 4533POPC   GL157517  16.802  42.352   5.646
 4533POPC   GL257518  16.540  42.394   5.850
 4533POPC   C1A57519  16.967  42.323   6.113
 4533POPC   D2A57520  16.857  42.495   6.543
 4533POPC   C3A57521  16.729  42.303   6.956
 4533POPC   C4A57522  16.947  42.171   7.355
 4533POPC   C1B57523  16.386  42.494   6.266
 4533POPC   C2B57524  16.363  42.650   6.708
 4533POPC   C3B57525  16.482  42.729   7.133
 4533POPC   C4B57526  16.519  42.408   7.492
 4534POPC   NC357527  19.315  42.151   5.363
 4534POPC   PO457528  18.639  41.944   5.587
 4534POPC   GL157529  18.860  42.201   5.843
 4534POPC   GL257530  19.109  42.450   5.783
 4534POPC   C1A57531  18.763  42.301   6.244
 4534POPC   D2A57532  18.944  42.368   6.631
 4534POPC   C3A57533  18.789  42.313   7.052
 4534POPC   C4A57534  19.046  42.353   7.415
 4534POPC   C1B57535  19.002  42.742   6.125
 4534POPC   C2B57536  19.261  42.849   6.445
 4534POPC   C3B57537  19.264  42.683   6.843
 4534POPC   C4B57538  19.116  42.805   7.183
 4535POPC   NC357539   9.714  44.511   5.301
 4535POPC   PO457540   9.348   0.056   5.310
 4535POPC   GL157541   9.673  44.887   5.665
 4535POPC   GL257542   9.732  44.520   5.814
 4535POPC   C1A57543   9.872  44.896   6.115
 4535POPC   D2A57544   9.895  44.633   6.504
 4535POPC   C3A57545   9.739  44.831   6.922
 4535POPC   C4A57546   9.538  44.817   7.330
 4535POPC   C1B57547   9.813  44.208   6.171
 4535POPC   C2B57548  10.079  44.131   6.543
 4535POPC   C3B57549  10.003  44.313   6.929
 4535POPC   C4B57550  10.166  44.654   7.122
 4536POPC   NC357551  34.746  21.552   5.263
 4536POPC   PO457552  34.267  21.172   5.422
 4536POPC   GL157553  34.537  21.393   5.715
 4536POPC   GL257554  34.902  21.268   5.701
 4536POPC   C1A57555  34.479  21.345   6.155
 4536POPC   D2A57556  34.658  21.362   6.579
 4536POPC   C3A57557  34.523  21.431   7.015
 4536POPC   C4A57558  34.331  21.163   7.332
 4536POPC   C1B57559  34.955  21.490   6.119
 4536POPC   C2B57560  35.155  21.420   6.538
 4536POPC   C3B57561  35.042  21.356   6.927
 4536POPC   C4B57562  34.989  21.563   7.258
 4537POPC   NC357563  42.104  29.277   5.461
 4537POPC   PO457564  42.517  28.813   5.149
 4537POPC   GL157565  42.386  28.876   5.658
 4537POPC   GL257566  42.433  29.236   5.824
 4537POPC   C1A57567  42.226  28.888   6.119
 4537POPC   D2A57568  42.208  29.206   6.481
 4537POPC   C3A57569  42.412  29.096   6.887
 4537POPC   C4A57570  42.200  29.059   7.266
 4537POPC   C1B57571  42.616  29.393   6.170
 4537POPC   C2B57572  42.681  29.428   6.573
 4537POPC   C3B57573  42.456  29.598   6.863
 4537POPC   C4B57574  42.440  29.506   7.265
 4538POPC   NC357575   9.221  12.371   5.427
 4538POPC   PO457576   8.625  12.000   5.509
 4538POPC   GL157577   8.868  12.032   5.869
 4538POPC   GL257578   9.171  11.967   5.816
 4538POPC   C1A57579   8.876  12.199   6.294
 4538POPC   D2A57580   8.965  12.514   6.600
 4538POPC   C3A57581   9.041  12.352   7.001
 4538POPC   C4A57582   9.048  11.918   7.172
 4538POPC   C1B57583   9.363  12.111   6.181
 4538POPC   C2B57584   9.292  12.081   6.610
 4538POPC   C3B57585   9.519  12.097   6.988
 4538POPC   C4B57586   9.511  12.026   7.403
 4539POPC   NC357587  13.188  33.482   5.461
 4539POPC   PO457588  12.631  33.757   5.215
 4539POPC   GL157589  12.823  33.886   5.655
 4539POPC   GL257590  13.125  33.799   5.879
 4539POPC   C1A57591  12.717  33.973   6.109
 4539POPC   D2A57592  12.570  33.770   6.489
 4539POPC   C3A57593  12.620  33.898   6.882
 4539POPC   C4A57594  12.590  33.874   7.287
 4539POPC   C1B57595  13.200  33.839   6.337
 4539POPC   C2B57596  13.066  33.701   6.744
 4539POPC   C3B57597  13.072  33.750   7.196
 4539POPC   C4B57598  13.123  33.412   7.468
 4540POPC   NC357599  27.784  38.566   5.301
 4540POPC   PO457600  27.309  38.133   5.276
 4540POPC   GL157601  27.616  38.236   5.671
 4540POPC   GL257602  27.621  38.563   5.778
 4540POPC   C1A57603  27.689  38.127   6.136
 4540POPC   D2A57604  27.684  38.299   6.559
 4540POPC   C3A57605  27.710  38.135   6.957
 4540POPC   C4A57606  27.839  38.190   7.413
 4540POPC   C1B57607  27.720  38.632   6.178
 4540POPC   C2B57608  27.752  38.808   6.560
 4540POPC   C3B57609  27.645  38.660   6.960
 4540POPC   C4B57610  27.830  38.793   7.340
 4541POPC   NC357611   6.909  39.394   5.606
 4541POPC   PO457612   6.283  39.182   5.511
 4541POPC   GL157613   6.535  39.103   5.879
 4541POPC   GL257614   6.891  39.083   5.999
 4541POPC   C1A57615   6.465  38.862   6.253
 4541POPC   D2A57616   6.642  38.871   6.640
 4541POPC   C3A57617   6.566  39.194   6.935
 4541POPC   C4A57618   6.426  39.143   7.361
 4541POPC   C1B57619   6.734  39.312   6.317
 4541POPC   C2B57620   6.988  39.251   6.639
 4541POPC   C3B57621   7.017  39.474   6.976
 4541POPC   C4B57622   6.908  39.301   7.301
 4542POPC   NC357623  12.313  20.381   5.488
 4542POPC   PO457624  11.800  19.944   5.349
 4542POPC   GL157625  11.860  20.016   5.789
 4542POPC   GL257626  11.966  19.699   5.898
 4542POPC   C1A57627  11.945  20.026   6.272
 4542POPC   D2A57628  11.918  19.773   6.637
 4542POPC   C3A57629  11.719  19.962   6.987
 4542POPC   C4A57630  12.076  20.082   7.201
 4542POPC   C1B57631  12.337  19.672   6.218
 4542POPC   C2B57632  12.453  19.681   6.643
 4542POPC   C3B57633  12.306  19.566   7.029
 4542POPC   C4B57634  11.961  19.575   7.207
 4543POPC   NC357635  27.720   7.135   5.323
 4543POPC   PO457636  27.349   7.611   5.512
 4543POPC   GL157637  27.526   7.288   5.786
 4543POPC   GL257638  27.381   6.995   5.712
 4543POPC   C1A57639  27.637   7.310   6.212
 4543POPC   D2A57640  27.610   7.653   6.507
 4543POPC   C3A57641  27.656   7.581   6.931
 4543POPC   C4A57642  27.837   7.747   7.299
 4543POPC   C1B57643  27.243   6.986   6.170
 4543POPC   C2B57644  27.329   7.156   6.614
 4543POPC   C3B57645  27.511   7.098   7.040
 4543POPC   C4B57646  27.903   7.239   7.250
 4544POPC   NC357647  43.321  15.531   5.347
 4544POPC   PO457648  42.937  14.942   5.226
 4544POPC   GL157649  43.203  15.038   5.646
 4544POPC   GL257650  43.098  15.359   5.775
 4544POPC   C1A57651  43.369  15.054   6.114
 4544POPC   D2A57652  43.339  15.143   6.584
 4544POPC   C3A57653  43.245  14.843   6.926
 4544POPC   C4A57654  43.247  14.974   7.379
 4544POPC   C1B57655  43.177  15.527   6.201
 4544POPC   C2B57656  42.951  15.541   6.583
 4544POPC   C3B57657  42.893  15.428   7.013
 4544POPC   C4B57658  42.571  15.502   7.369
 4545POPC   NC357659   5.338   7.874   5.625
 4545POPC   PO457660   4.821   8.275   5.297
 4545POPC   GL157661   4.879   8.110   5.729
 4545POPC   GL257662   5.161   8.349   5.836
 4545POPC   C1A57663   5.029   7.962   6.166
 4545POPC   D2A57664   4.933   8.074   6.549
 4545POPC   C3A57665   5.241   8.185   6.800
 4545POPC   C4A57666   5.207   7.876   7.110
 4545POPC   C1B57667   4.854   8.457   6.195
 4545POPC   C2B57668   4.857   8.552   6.669
 4545POPC   C3B57669   4.808   8.290   7.049
 4545POPC   C4B57670   4.815   8.318   7.513
 4546POPC   NC357671  30.257   3.781   5.460
 4546POPC   PO457672  29.555   3.941   5.571
 4546POPC   GL157673  29.906   3.813   5.853
 4546POPC   GL257674  30.083   3.459   5.836
 4546POPC   C1A57675  29.994   3.762   6.275
 4546POPC   D2A57676  30.142   3.541   6.627
 4546POPC   C3A57677  29.819   3.540   6.911
 4546POPC   C4A57678  29.919   3.753   7.266
 4546POPC   C1B57679  30.039   3.219   6.235
 4546POPC   C2B57680  29.860   3.063   6.627
 4546POPC   C3B57681  30.027   2.993   7.000
 4546POPC   C4B57682  30.157   3.308   7.216
 4547POPC   NC357683  33.425  32.238   5.116
 4547POPC   PO457684  34.032  32.466   5.448
 4547POPC   GL157685  33.825  32.472   5.853
 4547POPC   GL257686  33.699  32.148   5.813
 4547POPC   C1A57687  33.980  32.380   6.282
 4547POPC   D2A57688  33.743  32.444   6.652
 4547POPC   C3A57689  33.879  32.520   7.045
 4547POPC   C4A57690  34.093  32.209   7.254
 4547POPC   C1B57691  33.532  32.136   6.235
 4547POPC   C2B57692  33.688  31.929   6.589
 4547POPC   C3B57693  33.645  32.060   6.993
 4547POPC   C4B57694  33.663  31.959   7.417
 4548POPC   NC357695  38.167  19.962   5.364
 4548POPC   PO457696  38.765  19.531   5.399
 4548POPC   GL157697  38.550  19.760   5.739
 4548POPC   GL257698  38.393  20.085   5.793
 4548POPC   C1A57699  38.469  19.704   6.183
 4548POPC   D2A57700  38.684  19.574   6.583
 4548POPC   C3A57701  38.428  19.565   6.993
 4548POPC   C4A57702  38.171  19.682   7.371
 4548POPC   C1B57703  38.737  20.154   6.045
 4548POPC   C2B57704  38.819  20.079   6.463
 4548POPC   C3B57705  38.625  20.217   6.851
 4548POPC   C4B57706  38.648  19.977   7.189
 4549POPC   NC357707  18.470   4.000   5.519
 4549POPC   PO457708  18.487   3.308   5.447
 4549POPC   GL157709  18.153   3.434   5.727
 4549POPC   GL257710  18.342   3.684   5.886
 4549POPC   C1A57711  18.014   3.408   6.160
 4549POPC   D2A57712  18.212   3.573   6.523
 4549POPC   C3A57713  18.026   3.406   6.895
 4549POPC   C4A57714  18.348   3.384   7.196
 4549POPC   C1B57715  18.582   3.841   6.230
 4549POPC   C2B57716  18.570   3.929   6.671
 4549POPC   C3B57717  18.689   3.733   7.074
 4549POPC   C4B57718  18.525   3.790   7.522
 4550POPC   NC357719  13.332  25.550   5.635
 4550POPC   PO457720  13.678  25.229   5.145
 4550POPC   GL157721  13.702  25.171   5.692
 4550POPC   GL257722  13.404  25.200   5.979
 4550POPC   C1A57723  13.839  25.275   6.187
 4550POPC   D2A57724  13.636  25.404   6.610
 4550POPC   C3A57725  13.757  25.198   6.990
 4550POPC   C4A57726  14.113  25.132   7.213
 4550POPC   C1B57727  13.183  25.452   6.308
 4550POPC   C2B57728  13.159  25.531   6.770
 4550POPC   C3B57729  13.346  25.458   7.173
 4550POPC   C4B57730  13.389  25.366   7.607
 4551POPC   NC357731  42.065  30.120   5.585
 4551POPC   PO457732  41.359  29.829   5.350
 4551POPC   GL157733  41.429  29.935   5.761
 4551POPC   GL257734  41.766  29.879   5.921
 4551POPC   C1A57735  41.341  30.141   6.144
 4551POPC   D2A57736  41.583  29.962   6.452
 4551POPC   C3A57737  41.537  29.957   6.877
 4551POPC   C4A57738  41.510  29.826   7.290
 4551POPC   C1B57739  41.979  30.184   6.240
 4551POPC   C2B57740  41.783  30.371   6.667
 4551POPC   C3B57741  41.923  30.253   7.085
 4551POPC   C4B57742  41.770  30.229   7.504
 4552POPC   NC357743  42.585  39.474   5.528
 4552POPC   PO457744  42.268  38.871   5.412
 4552POPC   GL157745  42.337  39.083   5.783
 4552POPC   GL257746  42.007  39.070   5.831
 4552POPC   C1A57747  42.519  39.075   6.208
 4552POPC   D2A57748  42.648  39.197   6.612
 4552POPC   C3A57749  42.528  39.233   7.020
 4552POPC   C4A57750  42.367  38.858   7.155
 4552POPC   C1B57751  42.026  39.069   6.221
 4552POPC   C2B57752  42.164  39.324   6.565
 4552POPC   C3B57753  42.024  39.323   6.977
 4552POPC   C4B57754  41.877  38.965   7.176
 4553POPC   NC357755  38.887  38.302   5.486
 4553POPC   PO457756  39.442  37.953   5.357
 4553POPC   GL157757  39.396  38.245   5.757
 4553POPC   GL257758  39.074  38.214   5.950
 4553POPC   C1A57759  39.372  38.589   6.106
 4553POPC   D2A57760  39.152  38.717   6.503
 4553POPC   C3A57761  39.364  38.661   6.909
 4553POPC   C4A57762  39.199  38.516   7.291
 4553POPC   C1B57763  38.915  38.265   6.361
 4553POPC   C2B57764  38.996  38.127   6.778
 4553POPC   C3B57765  38.934  38.110   7.209
 4553POPC   C4B57766  38.972  38.215   7.689
 4554POPC   NC357767  33.759  24.085   5.397
 4554POPC   PO457768  33.989  23.514   5.431
 4554POPC   GL157769  33.898  23.771   5.800
 4554POPC   GL257770  33.576  23.964   5.864
 4554POPC   C1A57771  33.873  23.657   6.250
 4554POPC   D2A57772  33.748  23.447   6.635
 4554POPC   C3A57773  33.814  23.709   6.995
 4554POPC   C4A57774  33.663  23.688   7.409
 4554POPC   C1B57775  33.723  24.151   6.279
 4554POPC   C2B57776  33.642  24.156   6.748
 4554POPC   C3B57777  33.361  23.950   7.064
 4554POPC   C4B57778  33.312  24.014   7.519
 4555POPC   NC357779  20.054  36.854   5.338
 4555POPC   PO457780  19.624  37.316   5.443
 4555POPC   GL157781  19.751  37.044   5.770
 4555POPC   GL257782  19.714  36.727   5.695
 4555POPC   C1A57783  19.969  37.037   6.164
 4555POPC   D2A57784  20.139  37.132   6.585
 4555POPC   C3A57785  19.909  37.038   6.947
 4555POPC   C4A57786  20.051  36.968   7.380
 4555POPC   C1B57787  19.665  36.596   6.127
 4555POPC   C2B57788  19.787  36.730   6.521
 4555POPC   C3B57789  19.837  36.551   6.881
 4555POPC   C4B57790  19.650  36.686   7.245
 4556POPC   NC357791   6.692  34.838   5.493
 4556POPC   PO457792   7.048  34.434   5.869
 4556POPC   GL157793   6.594  34.572   5.940
 4556POPC   GL257794   6.294  34.383   5.995
 4556POPC   C1A57795   6.463  34.720   6.352
 4556POPC   D2A57796   6.640  34.885   6.733
 4556POPC   C3A57797   6.572  34.705   7.135
 4556POPC   C4A57798   6.870  34.864   7.449
 4556POPC   C1B57799   6.520  34.193   6.334
 4556POPC   C2B57800   6.440  34.368   6.736
 4556POPC   C3B57801   6.292  34.259   7.108
 4556POPC   C4B57802   6.593  34.110   7.415
 4557POPC   NC357803  19.674  18.788   5.441
 4557POPC   PO457804  19.950  18.164   5.466
 4557POPC   GL157805  20.038  18.287   5.830
 4557POPC   GL257806  20.126  18.614   5.745
 4557POPC   C1A57807  19.950  18.139   6.218
 4557POPC   D2A57808  19.660  18.254   6.537
 4557POPC   C3A57809  19.795  18.270   6.983
 4557POPC   C4A57810  19.760  18.680   7.230
 4557POPC   C1B57811  20.049  18.673   6.169
 4557POPC   C2B57812  20.115  18.489   6.549
 4557POPC   C3B57813  20.159  18.607   6.931
 4557POPC   C4B57814  20.166  18.355   7.332
 4558POPC   NC357815  44.640  28.530   5.167
 4558POPC   PO457816  44.765  29.138   5.350
 4558POPC   GL157817  44.594  29.337   5.669
 4558POPC   GL257818  44.896  29.245   5.840
 4558POPC   C1A57819  44.435  29.268   6.066
 4558POPC   D2A57820  44.618  29.339   6.455
 4558POPC   C3A57821  44.562  29.132   6.835
 4558POPC   C4A57822  44.551  29.134   7.254
 4558POPC   C1B57823  44.835  28.964   6.166
 4558POPC   C2B57824  44.890  28.825   6.585
 4558POPC   C3B57825   0.023  28.928   7.013
 4558POPC   C4B57826  44.919  28.662   7.354
 4559POPC   NC357827  44.394  40.477   5.541
 4559POPC   PO457828  44.999  40.767   5.447
 4559POPC   GL157829  44.767  40.999   5.744
 4559POPC   GL257830  44.400  41.000   5.672
 4559POPC   C1A57831  44.774  40.795   6.141
 4559POPC   D2A57832  44.816  40.449   6.432
 4559POPC   C3A57833  44.707  40.565   6.826
 4559POPC   C4A57834  44.601  40.648   7.241
 4559POPC   C1B57835  44.348  41.081   6.109
 4559POPC   C2B57836  44.547  41.014   6.538
 4559POPC   C3B57837  44.632  41.075   6.969
 4559POPC   C4B57838  44.321  41.068   7.338
 4560POPC   NC357839  44.205  39.503   5.493
 4560POPC   PO457840  43.880  38.837   5.488
 4560POPC   GL157841  43.943  39.163   5.774
 4560POPC   GL257842  43.702  39.382   5.871
 4560POPC   C1A57843  44.066  39.241   6.194
 4560POPC   D2A57844  44.121  38.991   6.575
 4560POPC   C3A57845  44.006  39.186   6.964
 4560POPC   C4A57846  44.272  39.365   7.302
 4560POPC   C1B57847  43.720  39.618   6.214
 4560POPC   C2B57848  43.963  39.552   6.579
 4560POPC   C3B57849  43.716  39.615   6.893
 4560POPC   C4B57850  43.761  39.509   7.291
 4561POPC   NC357851  39.899   0.098   5.414
 4561POPC   PO457852  40.235  44.544   5.346
 4561POPC   GL157853  40.172  44.555   5.789
 4561POPC   GL257854  39.844  44.735   5.817
 4561POPC   C1A57855  40.052  44.484   6.228
 4561POPC   D2A57856  39.928  44.677   6.605
 4561POPC   C3A57857  39.794  44.384   6.914
 4561POPC   C4A57858  40.192  44.275   7.117
 4561POPC   C1B57859  39.656  44.938   6.197
 4561POPC   C2B57860  39.431  44.783   6.597
 4561POPC   C3B57861  39.591  44.841   7.006
 4561POPC   C4B57862  40.056  44.771   7.103
 4562POPC   NC357863  11.318  39.557   5.402
 4562POPC   PO457864  10.924  38.999   5.589
 4562POPC   GL157865  11.134  39.188   5.880
 4562POPC   GL257866  11.446  39.297   5.842
 4562POPC   C1A57867  11.160  39.195   6.317
 4562POPC   D2A57868  11.087  38.936   6.678
 4562POPC   C3A57869  11.191  39.173   6.965
 4562POPC   C4A57870  11.191  39.278   7.329
 4562POPC   C1B57871  11.543  38.931   6.087
 4562POPC   C2B57872  11.580  38.972   6.521
 4562POPC   C3B57873  11.682  39.270   6.842
 4562POPC   C4B57874  11.638  39.099   7.230
 4563POPC   NC357875  18.940  40.563   5.433
 4563POPC   PO457876  19.419  40.082   5.552
 4563POPC   GL157877  19.296  39.983   5.954
 4563POPC   GL257878  19.166  40.317   5.995
 4563POPC   C1A57879  19.318  39.982   6.375
 4563POPC   D2A57880  19.131  40.217   6.643
 4563POPC   C3A57881  19.265  40.058   7.003
 4563POPC   C4A57882  19.109  39.817   7.278
 4563POPC   C1B57883  18.841  40.086   6.214
 4563POPC   C2B57884  18.621  40.152   6.596
 4563POPC   C3B57885  18.730  40.056   7.015
 4563POPC   C4B57886  18.751  40.270   7.381
 4564POPC   NC357887  17.631   6.557   5.157
 4564POPC   PO457888  17.311   7.027   5.448
 4564POPC   GL157889  17.413   6.679   5.752
 4564POPC   GL257890  17.105   6.635   5.972
 4564POPC   C1A57891  17.576   6.728   6.197
 4564POPC   D2A57892  17.369   6.824   6.604
 4564POPC   C3A57893  17.527   6.681   6.984
 4564POPC   C4A57894  17.441   6.959   7.297
 4564POPC   C1B57895  17.278   6.309   6.179
 4564POPC   C2B57896  17.485   6.339   6.554
 4564POPC   C3B57897  17.464   6.115   6.880
 4564POPC   C4B57898  17.385   6.251   7.265
 4565POPC   NC357899  24.523  34.784   5.324
 4565POPC   PO457900  25.061  34.586   5.662
 4565POPC   GL157901  24.650  34.514   5.787
 4565POPC   GL257902  24.306  34.645   5.772
 4565POPC   C1A57903  24.594  34.620   6.211
 4565POPC   D2A57904  24.363  34.494   6.546
 4565POPC   C3A57905  24.568  34.606   6.898
 4565POPC   C4A57906  24.420  34.557   7.301
 4565POPC   C1B57907  24.113  34.783   6.138
 4565POPC   C2B57908  24.152  34.980   6.549
 4565POPC   C3B57909  24.115  34.855   6.977
 4565POPC   C4B57910  23.925  34.683   7.349
 4566POPC   NC357911   0.974   2.806   5.320
 4566POPC   PO457912   1.517   3.209   5.273
 4566POPC   GL157913   1.262   3.072   5.629
 4566POPC   GL257914   1.358   2.723   5.656
 4566POPC   C1A57915   1.059   2.889   6.043
 4566POPC   D2A57916   1.116   2.642   6.458
 4566POPC   C3A57917   1.112   2.798   6.902
 4566POPC   C4A57918   1.453   3.022   7.114
 4566POPC   C1B57919   1.405   2.484   6.041
 4566POPC   C2B57920   1.600   2.453   6.436
 4566POPC   C3B57921   1.548   2.582   6.798
 4566POPC   C4B57922   1.335   2.317   7.091
 4567POPC   NC357923   5.189  32.150   5.489
 4567POPC   PO457924   4.625  32.461   5.306
 4567POPC   GL157925   4.753  32.345   5.730
 4567POPC   GL257926   4.801  31.992   5.818
 4567POPC   C1A57927   4.861  32.349   6.170
 4567POPC   D2A57928   5.011  32.517   6.533
 4567POPC   C3A57929   5.106  32.315   6.920
 4567POPC   C4A57930   5.142  32.531   7.309
 4567POPC   C1B57931   5.166  31.931   6.109
 4567POPC   C2B57932   5.232  31.662   6.454
 4567POPC   C3B57933   5.023  31.677   6.814
 4567POPC   C4B57934   5.017  31.844   7.216
 4568POPC   NC357935  13.248  32.722   5.478
 4568POPC   PO457936  13.677  33.280   5.364
 4568POPC   GL157937  13.734  33.121   5.802
 4568POPC   GL257938  13.756  32.791   5.841
 4568POPC   C1A57939  13.843  33.216   6.225
 4568POPC   D2A57940  13.711  32.975   6.577
 4568POPC   C3A57941  13.880  33.078   6.941
 4568POPC   C4A57942  13.745  33.036   7.305
 4568POPC   C1B57943  13.422  32.864   6.170
 4568POPC   C2B57944  13.326  32.615   6.574
 4568POPC   C3B57945  13.422  32.768   7.000
 4568POPC   C4B57946  13.555  32.584   7.389
 4569POPC   NC357947  15.396  34.348   5.409
 4569POPC   PO457948  15.064  34.941   5.445
 4569POPC   GL157949  15.074  34.625   5.718
 4569POPC   GL257950  15.399  34.678   5.807
 4569POPC   C1A57951  14.998  34.389   6.075
 4569POPC   D2A57952  14.983  34.278   6.512
 4569POPC   C3A57953  15.036  34.593   6.827
 4569POPC   C4A57954  15.033  34.690   7.245
 4569POPC   C1B57955  15.482  34.514   6.225
 4569POPC   C2B57956  15.479  34.383   6.653
 4569POPC   C3B57957  15.467  34.425   7.101
 4569POPC   C4B57958  15.507  34.838   7.351
 4570POPC   NC357959   6.872  18.636   5.406
 4570POPC   PO457960   6.337  19.132   5.446
 4570POPC   GL157961   6.560  18.931   5.746
 4570POPC   GL257962   6.288  18.809   5.907
 4570POPC   C1A57963   6.696  19.073   6.173
 4570POPC   D2A57964   6.646  19.310   6.584
 4570POPC   C3A57965   6.704  19.036   6.978
 4570POPC   C4A57966   6.617  18.886   7.410
 4570POPC   C1B57967   6.182  19.150   6.171
 4570POPC   C2B57968   6.142  19.123   6.618
 4570POPC   C3B57969   6.304  19.340   6.992
 4570POPC   C4B57970   6.455  19.355   7.423
 4571POPC   NC357971  20.328  15.634   5.459
 4571POPC   PO457972  20.815  16.146   5.537
 4571POPC   GL157973  20.682  16.091   5.917
 4571POPC   GL257974  20.617  15.733   5.875
 4571POPC   C1A57975  20.711  16.282   6.338
 4571POPC   D2A57976  20.638  16.369   6.777
 4571POPC   C3A57977  20.903  16.199   7.067
 4571POPC   C4A57978  20.779  16.122   7.479
 4571POPC   C1B57979  20.354  15.838   6.215
 4571POPC   C2B57980  20.456  15.938   6.617
 4571POPC   C3B57981  20.526  15.852   7.044
 4571POPC   C4B57982  20.198  15.615   7.202
 4572POPC   NC357983  14.010  44.848   5.277
 4572POPC   PO457984  13.405  44.611   5.225
 4572POPC   GL157985  13.648  44.580   5.678
 4572POPC   GL257986  14.028  44.601   5.741
 4572POPC   C1A57987  13.455  44.590   6.125
 4572POPC   D2A57988  13.321  44.672   6.552
 4572POPC   C3A57989  13.545  44.484   6.817
 4572POPC   C4A57990  13.545  44.686   7.177
 4572POPC   C1B57991  13.928  44.790   6.159
 4572POPC   C2B57992  13.788  44.904   6.597
 4572POPC   C3B57993  14.008  44.800   7.009
 4572POPC   C4B57994  14.081  44.893   7.458
 4573POPC   NC357995  20.388  17.990   5.574
 4573POPC   PO457996  20.878  18.530   5.405
 4573POPC   GL157997  20.637  18.403   5.764
 4573POPC   GL257998  20.932  18.392   5.960
 4573POPC   C1A57999  20.441  18.324   6.162
 4573POPC   D2A58000  20.414  18.040   6.488
 4573POPC   C3A58001  20.336  18.134   6.898
 4573POPC   C4A58002  20.577  18.058   7.264
 4573POPC   C1B58003  20.910  18.176   6.370
 4573POPC   C2B58004  20.900  18.138   6.826
 4573POPC   C3B58005  21.036  18.291   7.219
 4573POPC   C4B58006  20.863  18.324   7.610
 4574POPC   NC358007  14.518   6.994   5.545
 4574POPC   PO458008  14.155   6.517   5.215
 4574POPC   GL158009  14.335   6.488   5.679
 4574POPC   GL258010  14.290   6.738   5.919
 4574POPC   C1A58011  14.403   6.325   6.163
 4574POPC   D2A58012  14.266   6.266   6.621
 4574POPC   C3A58013  14.373   6.490   7.050
 4574POPC   C4A58014  14.349   6.431   7.529
 4574POPC   C1B58015  14.030   6.707   6.277
 4574POPC   C2B58016  14.084   6.747   6.705
 4574POPC   C3B58017  14.073   7.011   7.060
 4574POPC   C4B58018  14.060   6.868   7.491
 4575POPC   NC358019   4.481  32.018   5.408
 4575POPC   PO458020   4.087  32.603   5.333
 4575POPC   GL158021   4.202  32.345   5.700
 4575POPC   GL258022   4.323  32.607   5.861
 4575POPC   C1A58023   4.392  32.134   6.102
 4575POPC   D2A58024   4.707  31.904   6.400
 4575POPC   C3A58025   4.580  31.940   6.851
 4575POPC   C4A58026   4.680  32.263   7.190
 4575POPC   C1B58027   4.452  32.646   6.240
 4575POPC   C2B58028   4.507  32.371   6.578
 4575POPC   C3B58029   4.258  32.372   6.968
 4575POPC   C4B58030   4.318  32.682   7.287
 4576POPC   NC358031  21.787  39.820   5.171
 4576POPC   PO458032  21.179  39.992   5.474
 4576POPC   GL158033  21.269  40.152   5.848
 4576POPC   GL258034  20.983  39.924   5.936
 4576POPC   C1A58035  21.324  40.076   6.288
 4576POPC   D2A58036  21.433  40.252   6.680
 4576POPC   C3A58037  21.319  39.911   6.946
 4576POPC   C4A58038  21.577  39.647   7.178
 4576POPC   C1B58039  20.886  40.319   6.126
 4576POPC   C2B58040  20.941  40.383   6.554
 4576POPC   C3B58041  21.065  40.417   6.993
 4576POPC   C4B58042  21.186  40.135   7.384
 4577POPC   NC358043  34.569   6.243   5.387
 4577POPC   PO458044  33.920   5.985   5.425
 4577POPC   GL158045  34.311   5.971   5.735
 4577POPC   GL258046  34.510   5.680   5.720
 4577POPC   C1A58047  34.665   5.983   6.086
 4577POPC   D2A58048  34.636   5.812   6.507
 4577POPC   C3A58049  34.684   6.061   6.872
 4577POPC   C4A58050  34.836   5.901   7.234
 4577POPC   C1B58051  34.436   5.504   6.113
 4577POPC   C2B58052  34.230   5.503   6.500
 4577POPC   C3B58053  34.289   5.716   6.898
 4577POPC   C4B58054  34.278   5.505   7.296
 4578POPC   NC358055   4.688  24.080   5.290
 4578POPC   PO458056   4.148  24.363   5.556
 4578POPC   GL158057   4.303  24.392   5.911
 4578POPC   GL258058   4.527  24.643   5.966
 4578POPC   C1A58059   4.115  24.480   6.266
 4578POPC   D2A58060   4.191  24.342   6.623
 4578POPC   C3A58061   4.104  24.585   6.961
 4578POPC   C4A58062   4.064  24.446   7.366
 4578POPC   C1B58063   4.737  24.306   6.197
 4578POPC   C2B58064   4.654  24.150   6.599
 4578POPC   C3B58065   4.556  24.306   6.965
 4578POPC   C4B58066   4.592  24.437   7.335
 4579POPC   NC358067  36.621   6.036   5.435
 4579POPC   PO458068  37.237   6.397   5.364
 4579POPC   GL158069  37.210   6.623   5.748
 4579POPC   GL258070  36.858   6.575   5.842
 4579POPC   C1A58071  37.171   6.797   6.169
 4579POPC   D2A58072  37.060   6.578   6.522
 4579POPC   C3A58073  37.160   6.819   6.877
 4579POPC   C4A58074  37.022   6.717   7.266
 4579POPC   C1B58075  36.698   6.322   6.175
 4579POPC   C2B58076  36.588   6.324   6.595
 4579POPC   C3B58077  36.679   6.576   6.909
 4579POPC   C4B58078  36.715   6.292   7.259
 4580POPC   NC358079  30.152   9.618   5.488
 4580POPC   PO458080  29.596  10.053   5.299
 4580POPC   GL158081  29.808   9.953   5.710
 4580POPC   GL258082  30.059  10.161   5.683
 4580POPC   C1A58083  29.917   9.764   6.143
 4580POPC   D2A58084  29.649   9.803   6.538
 4580POPC   C3A58085  29.641   9.629   6.958
 4580POPC   C4A58086  29.953   9.422   7.237
 4580POPC   C1B58087  30.187  10.212   6.112
 4580POPC   C2B58088  30.046  10.126   6.510
 4580POPC   C3B58089  30.145   9.837   6.814
 4580POPC   C4B58090  30.085   9.928   7.208
 4581POPC   NC358091  36.249   2.250   5.462
 4581POPC   PO458092  36.137   1.513   5.443
 4581POPC   GL158093  36.253   1.764   5.772
 4581POPC   GL258094  35.952   1.968   5.782
 4581POPC   C1A58095  36.282   1.966   6.183
 4581POPC   D2A58096  36.414   2.183   6.559
 4581POPC   C3A58097  36.264   1.988   6.933
 4581POPC   C4A58098  36.137   2.169   7.318
 4581POPC   C1B58099  35.757   1.859   6.185
 4581POPC   C2B58100  35.916   2.034   6.561
 4581POPC   C3B58101  35.751   2.063   6.959
 4581POPC   C4B58102  35.696   1.717   7.172
 4582POPC   NC358103  11.753   7.287   5.539
 4582POPC   PO458104  12.333   7.082   5.220
 4582POPC   GL158105  12.441   7.270   5.698
 4582POPC   GL258106  12.165   7.462   5.776
 4582POPC   C1A58107  12.386   7.460   6.203
 4582POPC   D2A58108  12.253   7.371   6.663
 4582POPC   C3A58109  11.929   7.619   6.864
 4582POPC   C4A58110  11.810   7.729   7.293
 4582POPC   C1B58111  11.914   7.280   6.184
 4582POPC   C2B58112  11.752   7.119   6.567
 4582POPC   C3B58113  11.901   7.069   6.979
 4582POPC   C4B58114  12.169   7.313   7.210
 4583POPC   NC358115  38.108  25.916   5.251
 4583POPC   PO458116  38.669  26.182   5.483
 4583POPC   GL158117  38.422  26.196   5.843
 4583POPC   GL258118  38.140  25.949   5.841
 4583POPC   C1A58119  38.451  26.092   6.287
 4583POPC   D2A58120  38.452  25.780   6.617
 4583POPC   C3A58121  38.701  25.752   7.001
 4583POPC   C4A58122  38.679  26.148   7.219
 4583POPC   C1B58123  38.041  25.731   6.270
 4583POPC   C2B58124  37.960  25.767   6.735
 4583POPC   C3B58125  38.238  25.947   7.076
 4583POPC   C4B58126  38.315  26.034   7.553
 4584POPC   NC358127  32.631   6.891   5.407
 4584POPC   PO458128  32.960   6.263   5.447
 4584POPC   GL158129  32.851   6.567   5.811
 4584POPC   GL258130  33.021   6.913   5.772
 4584POPC   C1A58131  32.795   6.505   6.290
 4584POPC   D2A58132  32.965   6.642   6.707
 4584POPC   C3A58133  32.888   6.462   7.172
 4584POPC   C4A58134  32.608   6.315   7.581
 4584POPC   C1B58135  33.209   6.842   6.184
 4584POPC   C2B58136  33.442   6.840   6.603
 4584POPC   C3B58137  33.304   6.797   7.063
 4584POPC   C4B58138  33.204   6.904   7.473
 4585POPC   NC358139  19.949  33.393   5.366
 4585POPC   PO458140  19.831  32.740   5.410
 4585POPC   GL158141  19.781  33.062   5.723
 4585POPC   GL258142  19.533  32.888   5.904
 4585POPC   C1A58143  19.808  33.243   6.145
 4585POPC   D2A58144  19.684  33.112   6.565
 4585POPC   C3A58145  20.061  33.212   6.822
 4585POPC   C4A58146  20.091  33.241   7.279
 4585POPC   C1B58147  19.806  32.711   6.231
 4585POPC   C2B58148  20.015  32.728   6.645
 4585POPC   C3B58149  19.764  32.846   7.005
 4585POPC   C4B58150  19.604  33.265   7.091
 4586POPC   NC358151  29.673  10.493   5.460
 4586POPC   PO458152  30.216  10.912   5.487
 4586POPC   GL158153  30.056  10.671   5.858
 4586POPC   GL258154  29.743  10.466   5.948
 4586POPC   C1A58155  30.035  10.650   6.315
 4586POPC   D2A58156  30.281  10.553   6.630
 4586POPC   C3A58157  30.071  10.517   7.010
 4586POPC   C4A58158  29.985  10.846   7.277
 4586POPC   C1B58159  29.526  10.648   6.287
 4586POPC   C2B58160  29.651  10.505   6.678
 4586POPC   C3B58161  29.715  10.154   6.927
 4586POPC   C4B58162  29.730  10.266   7.321
 4587POPC   NC358163  20.923  22.311   5.493
 4587POPC   PO458164  20.418  21.826   5.346
 4587POPC   GL158165  20.478  22.065   5.714
 4587POPC   GL258166  20.779  21.872   5.807
 4587POPC   C1A58167  20.378  22.056   6.168
 4587POPC   D2A58168  20.615  21.918   6.541
 4587POPC   C3A58169  20.362  21.941   6.888
 4587POPC   C4A58170  20.268  22.224   7.201
 4587POPC   C1B58171  20.860  22.191   6.134
 4587POPC   C2B58172  20.726  22.448   6.480
 4587POPC   C3B58173  20.694  22.361   6.912
 4587POPC   C4B58174  20.806  21.971   7.149
 4588POPC   NC358175  33.684  12.146   5.390
 4588POPC   PO458176  34.224  12.143   5.790
 4588POPC   GL158177  33.774  12.122   5.885
 4588POPC   GL258178  33.517  11.857   5.820
 4588POPC   C1A58179  33.638  12.062   6.286
 4588POPC   D2A58180  33.591  12.310   6.620
 4588POPC   C3A58181  33.897  12.181   6.886
 4588POPC   C4A58182  33.792  12.315   7.259
 4588POPC   C1B58183  33.337  11.649   6.210
 4588POPC   C2B58184  33.490  11.519   6.638
 4588POPC   C3B58185  33.582  11.790   7.005
 4588POPC   C4B58186  33.462  11.908   7.418
 4589POPC   NC358187  20.115  21.487   5.498
 4589POPC   PO458188  19.671  21.144   5.197
 4589POPC   GL158189  19.736  21.207   5.721
 4589POPC   GL258190  20.041  21.173   5.902
 4589POPC   C1A58191  19.669  21.355   6.192
 4589POPC   D2A58192  19.819  21.213   6.630
 4589POPC   C3A58193  19.656  21.196   7.052
 4589POPC   C4A58194  19.781  21.568   7.271
 4589POPC   C1B58195  20.191  21.106   6.299
 4589POPC   C2B58196  20.334  21.066   6.731
 4589POPC   C3B58197  20.152  21.265   7.076
 4589POPC   C4B58198  19.999  21.102   7.448
 4590POPC   NC358199   7.060  27.417   5.332
 4590POPC   PO458200   7.653  27.716   5.439
 4590POPC   GL158201   7.405  27.519   5.732
 4590POPC   GL258202   7.137  27.794   5.675
 4590POPC   C1A58203   7.376  27.381   6.185
 4590POPC   D2A58204   7.542  27.599   6.562
 4590POPC   C3A58205   7.663  27.498   7.004
 4590POPC   C4A58206   7.460  27.450   7.442
 4590POPC   C1B58207   7.278  27.908   6.091
 4590POPC   C2B58208   7.107  27.972   6.508
 4590POPC   C3B58209   7.249  27.844   6.930
 4590POPC   C4B58210   7.020  27.732   7.264
 4591POPC   NC358211  23.327  16.700   5.055
 4591POPC   PO458212  23.938  16.904   5.412
 4591POPC   GL158213  23.914  16.629   5.824
 4591POPC   GL258214  23.555  16.673   5.875
 4591POPC   C1A58215  23.799  16.595   6.305
 4591POPC   D2A58216  23.466  16.804   6.618
 4591POPC   C3A58217  23.594  16.944   7.062
 4591POPC   C4A58218  23.516  17.045   7.524
 4591POPC   C1B58219  23.316  16.468   6.183
 4591POPC   C2B58220  23.455  16.288   6.581
 4591POPC   C3B58221  23.357  16.405   6.979
 4591POPC   C4B58222  23.480  16.538   7.369
 4592POPC   NC358223  24.800  42.494   5.357
 4592POPC   PO458224  24.369  41.956   5.141
 4592POPC   GL158225  24.449  42.210   5.613
 4592POPC   GL258226  24.213  42.500   5.743
 4592POPC   C1A58227  24.630  42.423   6.042
 4592POPC   D2A58228  24.808  42.408   6.497
 4592POPC   C3A58229  24.538  42.402   6.887
 4592POPC   C4A58230  24.672  42.285   7.294
 4592POPC   C1B58231  24.146  42.317   6.193
 4592POPC   C2B58232  23.942  42.329   6.622
 4592POPC   C3B58233  24.067  42.353   7.082
 4592POPC   C4B58234  24.293  41.944   7.170
 4593POPC   NC358235   8.995   1.774   5.194
 4593POPC   PO458236   8.819   2.341   5.521
 4593POPC   GL158237   8.943   2.146   5.890
 4593POPC   GL258238   8.892   1.826   5.734
 4593POPC   C1A58239   9.126   2.082   6.332
 4593POPC   D2A58240   9.343   1.933   6.741
 4593POPC   C3A58241   9.033   1.957   7.100
 4593POPC   C4A58242   9.064   1.962   7.548
 4593POPC   C1B58243   8.786   1.724   6.179
 4593POPC   C2B58244   9.003   1.577   6.540
 4593POPC   C3B58245   9.094   1.455   6.944
 4593POPC   C4B58246   8.893   1.489   7.347
 4594POPC   NC358247  15.855   3.901   5.563
 4594POPC   PO458248  15.962   4.513   5.426
 4594POPC   GL158249  16.102   4.381   5.844
 4594POPC   GL258250  16.302   4.054   5.777
 4594POPC   C1A58251  15.949   4.408   6.317
 4594POPC   D2A58252  15.727   4.100   6.585
 4594POPC   C3A58253  15.857   4.115   7.019
 4594POPC   C4A58254  16.244   4.278   7.203
 4594POPC   C1B58255  16.163   3.990   6.174
 4594POPC   C2B58256  16.275   4.016   6.611
 4594POPC   C3B58257  16.259   3.783   6.997
 4594POPC   C4B58258  16.148   3.844   7.421
 4595POPC   NC358259  31.791  36.942   5.432
 4595POPC   PO458260  31.107  37.048   5.373
 4595POPC   GL158261  31.372  37.078   5.732
 4595POPC   GL258262  31.456  36.739   5.781
 4595POPC   C1A58263  31.419  37.181   6.181
 4595POPC   D2A58264  31.245  37.241   6.604
 4595POPC   C3A58265  31.436  37.040   6.996
 4595POPC   C4A58266  31.368  37.035   7.455
 4595POPC   C1B58267  31.675  36.742   6.182
 4595POPC   C2B58268  31.657  36.628   6.615
 4595POPC   C3B58269  31.845  36.636   6.982
 4595POPC   C4B58270  31.844  36.805   7.380
 4596POPC   NC358271   3.594  28.751   5.394
 4596POPC   PO458272   3.893  29.411   5.347
 4596POPC   GL158273   3.718  29.179   5.747
 4596POPC   GL258274   3.537  29.369   5.970
 4596POPC   C1A58275   3.615  28.895   6.117
 4596POPC   D2A58276   3.479  28.989   6.528
 4596POPC   C3A58277   3.773  29.017   6.844
 4596POPC   C4A58278   3.750  28.784   7.220
 4596POPC   C1B58279   3.207  29.344   6.291
 4596POPC   C2B58280   3.056  29.454   6.692
 4596POPC   C3B58281   3.167  29.429   7.123
 4596POPC   C4B58282   3.509  29.223   7.232
 4597POPC   NC358283  34.071   5.528   5.533
 4597POPC   PO458284  33.394   5.599   5.243
 4597POPC   GL158285  33.574   5.785   5.729
 4597POPC   GL258286  33.831   6.043   5.910
 4597POPC   C1A58287  33.426   5.926   6.170
 4597POPC   D2A58288  33.727   6.087   6.460
 4597POPC   C3A58289  33.699   5.981   6.889
 4597POPC   C4A58290  33.909   5.849   7.223
 4597POPC   C1B58291  34.173   5.960   6.228
 4597POPC   C2B58292  34.277   6.209   6.585
 4597POPC   C3B58293  34.146   6.232   6.998
 4597POPC   C4B58294  34.350   6.010   7.349
 4598POPC   NC358295  22.502  21.829   5.135
 4598POPC   PO458296  22.315  22.380   5.434
 4598POPC   GL158297  22.217  22.180   5.820
 4598POPC   GL258298  21.846  22.114   5.836
 4598POPC   C1A58299  22.460  22.095   6.210
 4598POPC   D2A58300  22.670  21.970   6.572
 4598POPC   C3A58301  22.484  22.038   6.965
 4598POPC   C4A58302  22.364  21.970   7.398
 4598POPC   C1B58303  21.985  21.903   6.190
 4598POPC   C2B58304  22.126  22.003   6.588
 4598POPC   C3B58305  21.989  21.911   6.980
 4598POPC   C4B58306  21.844  22.138   7.274
 4599POPC   NC358307   5.119  18.423   5.423
 4599POPC   PO458308   4.870  17.856   5.358
 4599POPC   GL158309   4.873  18.131   5.767
 4599POPC   GL258310   5.245  18.170   5.839
 4599POPC   C1A58311   4.707  18.299   6.220
 4599POPC   D2A58312   4.738  18.102   6.637
 4599POPC   C3A58313   4.939  18.217   7.037
 4599POPC   C4A58314   4.681  17.921   7.275
 4599POPC   C1B58315   5.201  18.322   6.240
 4599POPC   C2B58316   5.068  18.510   6.627
 4599POPC   C3B58317   5.307  18.583   7.003
 4599POPC   C4B58318   5.359  18.531   7.431
 4600POPC   NC358319  12.750  34.300   5.303
 4600POPC   PO458320  12.831  35.031   5.336
 4600POPC   GL158321  12.915  34.726   5.755
 4600POPC   GL258322  13.040  34.939   6.068
 4600POPC   C1A58323  12.944  34.456   6.183
 4600POPC   D2A58324  12.892  34.183   6.555
 4600POPC   C3A58325  12.936  34.272   6.989
 4600POPC   C4A58326  12.935  34.663   7.245
 4600POPC   C1B58327  13.310  34.772   6.383
 4600POPC   C2B58328  13.022  34.685   6.710
 4600POPC   C3B58329  12.633  34.856   6.856
 4600POPC   C4B58330  12.568  35.063   7.252
 4601POPC   NC358331   1.448  16.009   5.517
 4601POPC   PO458332   1.037  15.497   5.626
 4601POPC   GL158333   1.284  15.723   5.898
 4601POPC   GL258334   1.293  16.083   5.998
 4601POPC   C1A58335   1.533  15.719   6.269
 4601POPC   D2A58336   1.449  16.081   6.540
 4601POPC   C3A58337   1.165  15.947   6.841
 4601POPC   C4A58338   1.209  15.794   7.235
 4601POPC   C1B58339   1.046  15.867   6.325
 4601POPC   C2B58340   0.711  15.955   6.543
 4601POPC   C3B58341   0.614  16.188   6.847
 4601POPC   C4B58342   0.904  16.225   7.200
 4602POPC   NC358343  11.028   2.962   5.258
 4602POPC   PO458344  11.110   2.290   5.235
 4602POPC   GL158345  11.122   2.385   5.726
 4602POPC   GL258346  11.289   2.676   5.937
 4602POPC   C1A58347  11.079   2.290   6.192
 4602POPC   D2A58348  11.246   2.554   6.528
 4602POPC   C3A58349  11.029   2.651   6.897
 4602POPC   C4A58350  11.090   2.946   7.219
 4602POPC   C1B58351  11.621   2.762   6.278
 4602POPC   C2B58352  11.640   2.965   6.718
 4602POPC   C3B58353  11.618   3.004   7.203
 4602POPC   C4B58354  11.610   2.913   7.687
 4603POPC   NC358355  43.356  43.553   5.450
 4603POPC   PO458356  43.085  44.145   5.284
 4603POPC   GL158357  43.033  43.913   5.675
 4603POPC   GL258358  43.353  44.041   5.728
 4603POPC   C1A58359  43.002  43.717   6.107
 4603POPC   D2A58360  43.045  43.882   6.549
 4603POPC   C3A58361  43.223  43.690   6.918
 4603POPC   C4A58362  43.152  43.821   7.389
 4603POPC   C1B58363  43.360  44.084   6.185
 4603POPC   C2B58364  43.481  44.157   6.640
 4603POPC   C3B58365  43.614  43.984   7.063
 4603POPC   C4B58366  43.641  43.953   7.568
 4604POPC   NC358367  20.081  35.017   5.532
 4604POPC   PO458368  20.046  35.679   5.602
 4604POPC   GL158369  20.062  35.342   5.948
 4604POPC   GL258370  19.777  35.094   5.950
 4604POPC   C1A58371  20.022  35.270   6.407
 4604POPC   D2A58372  19.734  35.364   6.742
 4604POPC   C3A58373  19.907  35.478   7.129
 4604POPC   C4A58374  19.635  35.685   7.412
 4604POPC   C1B58375  19.521  35.090   6.324
 4604POPC   C2B58376  19.525  34.907   6.754
 4604POPC   C3B58377  19.581  35.077   7.176
 4604POPC   C4B58378  19.659  34.868   7.562
 4605POPC   NC358379  16.768  30.355   5.480
 4605POPC   PO458380  16.876  29.696   5.287
 4605POPC   GL158381  16.756  29.832   5.692
 4605POPC   GL258382  16.876  29.577   5.919
 4605POPC   C1A58383  16.577  30.008   6.086
 4605POPC   D2A58384  16.466  29.968   6.519
 4605POPC   C3A58385  16.685  30.267   6.792
 4605POPC   C4A58386  16.757  30.119   7.187
 4605POPC   C1B58387  16.765  29.573   6.342
 4605POPC   C2B58388  16.926  29.465   6.733
 4605POPC   C3B58389  16.862  29.606   7.160
 4605POPC   C4B58390  16.660  29.424   7.526
 4606POPC   NC358391  14.208   4.565   5.502
 4606POPC   PO458392  13.695   4.128   5.384
 4606POPC   GL158393  13.901   4.235   5.739
 4606POPC   GL258394  13.672   4.446   5.912
 4606POPC   C1A58395  13.978   4.038   6.110
 4606POPC   D2A58396  13.772   3.859   6.442
 4606POPC   C3A58397  13.612   4.137   6.752
 4606POPC   C4A58398  13.748   4.088   7.159
 4606POPC   C1B58399  13.327   4.621   6.109
 4606POPC   C2B58400  13.206   4.638   6.526
 4606POPC   C3B58401  13.367   4.575   6.926
 4606POPC   C4B58402  13.619   4.569   7.317
 4607POPC   NC358403  16.095   7.129   5.431
 4607POPC   PO458404  15.538   7.483   5.416
 4607POPC   GL158405  15.736   7.277   5.755
 4607POPC   GL258406  16.068   7.471   5.798
 4607POPC   C1A58407  15.713   7.089   6.151
 4607POPC   D2A58408  15.882   7.333   6.523
 4607POPC   C3A58409  15.765   7.208   6.945
 4607POPC   C4A58410  15.835   7.450   7.363
 4607POPC   C1B58411  16.151   7.654   6.191
 4607POPC   C2B58412  16.308   7.667   6.599
 4607POPC   C3B58413  16.158   7.559   6.981
 4607POPC   C4B58414  16.341   7.390   7.341
 4608POPC   NC358415  37.125  11.731   5.572
 4608POPC   PO458416  36.993  11.116   5.215
 4608POPC   GL158417  36.854  11.288   5.671
 4608POPC   GL258418  36.644  11.595   5.785
 4608POPC   C1A58419  36.860  11.234   6.154
 4608POPC   D2A58420  37.092  10.921   6.450
 4608POPC   C3A58421  37.098  11.035   6.903
 4608POPC   C4A58422  36.894  11.121   7.293
 4608POPC   C1B58423  36.400  11.634   6.166
 4608POPC   C2B58424  36.546  11.560   6.591
 4608POPC   C3B58425  36.621  11.501   7.042
 4608POPC   C4B58426  36.383  11.660   7.423
 4609POPC   NC358427  44.245   5.268   5.422
 4609POPC   PO458428  44.158   4.611   5.342
 4609POPC   GL158429  44.111   4.883   5.735
 4609POPC   GL258430  43.809   5.150   5.709
 4609POPC   C1A58431  43.999   5.000   6.175
 4609POPC   D2A58432  44.059   4.812   6.571
 4609POPC   C3A58433  43.938   4.986   6.953
 4609POPC   C4A58434  43.849   4.793   7.333
 4609POPC   C1B58435  43.682   5.429   6.076
 4609POPC   C2B58436  43.725   5.574   6.516
 4609POPC   C3B58437  43.678   5.428   6.938
 4609POPC   C4B58438  43.495   5.198   7.253
 4610POPC   NC358439  11.449   1.971   5.327
 4610POPC   PO458440  11.679   2.479   5.653
 4610POPC   GL158441  11.545   2.220   6.011
 4610POPC   GL258442  11.365   1.928   5.848
 4610POPC   C1A58443  11.451   2.055   6.460
 4610POPC   D2A58444  11.042   2.133   6.696
 4610POPC   C3A58445  11.117   2.145   7.077
 4610POPC   C4A58446  11.527   2.097   7.171
 4610POPC   C1B58447  11.121   1.779   6.186
 4610POPC   C2B58448  11.074   1.647   6.586
 4610POPC   C3B58449  11.299   1.684   6.935
 4610POPC   C4B58450  11.174   1.682   7.367
 4611POPC   NC358451  28.009  33.093   5.491
 4611POPC   PO458452  28.691  32.800   5.486
 4611POPC   GL158453  28.465  32.982   5.821
 4611POPC   GL258454  28.143  32.837   5.914
 4611POPC   C1A58455  28.587  32.866   6.254
 4611POPC   D2A58456  28.731  33.086   6.647
 4611POPC   C3A58457  28.503  33.084   7.022
 4611POPC   C4A58458  28.608  32.773   7.311
 4611POPC   C1B58459  28.195  33.173   6.260
 4611POPC   C2B58460  28.075  33.204   6.720
 4611POPC   C3B58461  28.039  32.860   7.056
 4611POPC   C4B58462  28.161  32.853   7.489
 4612POPC   NC358463  33.927   1.285   5.381
 4612POPC   PO458464  33.276   1.241   5.193
 4612POPC   GL158465  33.473   1.391   5.665
 4612POPC   GL258466  33.753   1.199   5.859
 4612POPC   C1A58467  33.520   1.505   6.154
 4612POPC   D2A58468  33.741   1.265   6.523
 4612POPC   C3A58469  33.652   1.366   6.970
 4612POPC   C4A58470  33.842   1.339   7.383
 4612POPC   C1B58471  34.011   0.953   6.145
 4612POPC   C2B58472  34.105   0.862   6.557
 4612POPC   C3B58473  33.891   0.919   6.924
 4612POPC   C4B58474  34.092   0.905   7.294
 4613POPC   NC358475   1.546   1.759   5.531
 4613POPC   PO458476   1.129   2.333   5.407
 4613POPC   GL158477   1.228   2.070   5.778
 4613POPC   GL258478   1.129   1.692   5.836
 4613POPC   C1A58479   1.347   1.989   6.199
 4613POPC   D2A58480   1.218   2.101   6.598
 4613POPC   C3A58481   1.420   1.834   6.897
 4613POPC   C4A58482   1.484   1.881   7.327
 4613POPC   C1B58483   0.854   1.807   6.221
 4613POPC   C2B58484   0.721   1.812   6.634
 4613POPC   C3B58485   0.938   1.956   7.017
 4613POPC   C4B58486   0.903   1.732   7.400
 4614POPC   NC358487  19.251  31.055   5.608
 4614POPC   PO458488  18.821  31.438   5.255
 4614POPC   GL158489  19.029  31.511   5.726
 4614POPC   GL258490  19.055  31.282   6.009
 4614POPC   C1A58491  19.016  31.760   6.132
 4614POPC   D2A58492  19.047  31.706   6.569
 4614POPC   C3A58493  19.308  31.557   6.904
 4614POPC   C4A58494  19.060  31.519   7.238
 4614POPC   C1B58495  18.759  31.341   6.339
 4614POPC   C2B58496  18.522  31.449   6.670
 4614POPC   C3B58497  18.657  31.250   7.008
 4614POPC   C4B58498  18.935  31.018   7.243
 4615POPC   NC358499  32.003  22.034   5.294
 4615POPC   PO458500  32.301  22.533   5.530
 4615POPC   GL158501  32.486  22.119   5.778
 4615POPC   GL258502  32.309  21.794   5.765
 4615POPC   C1A58503  32.472  21.981   6.222
 4615POPC   D2A58504  32.166  22.060   6.541
 4615POPC   C3A58505  32.312  22.119   6.966
 4615POPC   C4A58506  32.089  22.444   7.208
 4615POPC   C1B58507  31.946  21.889   6.073
 4615POPC   C2B58508  31.801  21.708   6.477
 4615POPC   C3B58509  31.833  21.893   6.930
 4615POPC   C4B58510  32.027  21.941   7.358
 4616POPC   NC358511  31.564   5.821   5.423
 4616POPC   PO458512  31.822   5.298   5.736
 4616POPC   GL158513  31.450   5.589   5.889
 4616POPC   GL258514  31.392   5.952   5.876
 4616POPC   C1A58515  31.281   5.718   6.315
 4616POPC   D2A58516  31.566   5.773   6.673
 4616POPC   C3A58517  31.554   5.653   7.105
 4616POPC   C4A58518  31.844   5.416   7.375
 4616POPC   C1B58519  31.304   6.242   6.184
 4616POPC   C2B58520  31.516   6.260   6.547
 4616POPC   C3B58521  31.377   6.252   6.948
 4616POPC   C4B58522  31.332   6.053   7.329
 4617POPC   NC358523  37.755   2.094   5.088
 4617POPC   PO458524  37.411   2.471   5.557
 4617POPC   GL158525  37.676   2.207   5.869
 4617POPC   GL258526  37.975   1.996   5.940
 4617POPC   C1A58527  37.564   2.132   6.250
 4617POPC   D2A58528  37.862   2.271   6.521
 4617POPC   C3A58529  37.630   2.266   6.844
 4617POPC   C4A58530  37.561   2.202   7.242
 4617POPC   C1B58531  37.958   1.830   6.286
 4617POPC   C2B58532  37.834   1.785   6.710
 4617POPC   C3B58533  37.981   1.920   7.083
 4617POPC   C4B58534  37.862   1.870   7.484
 4618POPC   NC358535  35.644  33.088   5.548
 4618POPC   PO458536  36.283  32.978   5.398
 4618POPC   GL158537  36.085  33.017   5.797
 4618POPC   GL258538  35.933  32.692   5.750
 4618POPC   C1A58539  36.047  33.217   6.206
 4618POPC   D2A58540  36.248  33.260   6.607
 4618POPC   C3A58541  35.970  33.249   6.947
 4618POPC   C4A58542  35.829  33.093   7.348
 4618POPC   C1B58543  35.789  32.758   6.163
 4618POPC   C2B58544  35.838  32.898   6.583
 4618POPC   C3B58545  35.946  32.730   6.979
 4618POPC   C4B58546  36.261  32.501   7.179
 4619POPC   NC358547  23.717  15.853   5.409
 4619POPC   PO458548  23.315  16.429   5.462
 4619POPC   GL158549  23.594  16.173   5.789
 4619POPC   GL258550  23.515  15.797   5.859
 4619POPC   C1A58551  23.766  16.091   6.205
 4619POPC   D2A58552  23.749  15.860   6.607
 4619POPC   C3A58553  23.767  16.035   7.021
 4619POPC   C4A58554  23.752  15.712   7.377
 4619POPC   C1B58555  23.527  15.548   6.254
 4619POPC   C2B58556  23.529  15.391   6.689
 4619POPC   C3B58557  23.677  15.287   7.105
 4619POPC   C4B58558  23.708  15.231   7.566
 4620POPC   NC358559  33.292  30.304   5.459
 4620POPC   PO458560  32.655  30.114   5.414
 4620POPC   GL158561  32.938  30.050   5.757
 4620POPC   GL258562  33.235  29.823   5.704
 4620POPC   C1A58563  33.179  30.165   6.109
 4620POPC   D2A58564  33.200  30.189   6.566
 4620POPC   C3A58565  32.892  29.953   6.800
 4620POPC   C4A58566  32.983  29.936   7.237
 4620POPC   C1B58567  33.285  29.665   6.155
 4620POPC   C2B58568  33.315  29.616   6.633
 4620POPC   C3B58569  32.996  29.484   6.962
 4620POPC   C4B58570  32.590  29.613   7.164
 4621POPC   NC358571  22.140  23.190   5.597
 4621POPC   PO458572  22.108  23.874   5.586
 4621POPC   GL158573  22.289  23.589   5.888
 4621POPC   GL258574  22.517  23.822   6.000
 4621POPC   C1A58575  22.069  23.475   6.288
 4621POPC   D2A58576  21.745  23.476   6.646
 4621POPC   C3A58577  21.814  23.740   7.043
 4621POPC   C4A58578  21.988  23.675   7.470
 4621POPC   C1B58579  22.600  23.525   6.328
 4621POPC   C2B58580  22.734  23.691   6.685
 4621POPC   C3B58581  22.573  23.988   6.926
 4621POPC   C4B58582  22.264  24.029   7.230
 4622POPC   NC358583  33.603   8.062   5.604
 4622POPC   PO458584  34.231   8.220   5.535
 4622POPC   GL158585  34.124   8.047   5.904
 4622POPC   GL258586  33.864   7.817   5.948
 4622POPC   C1A58587  34.029   8.122   6.339
 4622POPC   D2A58588  34.079   8.091   6.777
 4622POPC   C3A58589  33.867   8.415   7.018
 4622POPC   C4A58590  33.510   8.374   7.302
 4622POPC   C1B58591  33.534   7.922   6.263
 4622POPC   C2B58592  33.499   8.148   6.663
 4622POPC   C3B58593  33.640   7.961   7.039
 4622POPC   C4B58594  33.590   7.594   7.238
 4623POPC   NC358595   3.953  27.162   5.569
 4623POPC   PO458596   3.492  27.621   5.318
 4623POPC   GL158597   3.442  27.380   5.746
 4623POPC   GL258598   3.750  27.417   5.969
 4623POPC   C1A58599   3.300  27.480   6.205
 4623POPC   D2A58600   3.599  27.509   6.577
 4623POPC   C3A58601   3.488  27.400   7.007
 4623POPC   C4A58602   3.245  27.619   7.284
 4623POPC   C1B58603   3.715  27.843   6.179
 4623POPC   C2B58604   3.841  27.993   6.597
 4623POPC   C3B58605   3.810  27.796   6.983
 4623POPC   C4B58606   3.646  27.922   7.347
 4624POPC   NC358607  20.228  30.970   5.512
 4624POPC   PO458608  20.660  30.484   5.234
 4624POPC   GL158609  20.599  30.631   5.676
 4624POPC   GL258610  20.657  30.985   5.777
 4624POPC   C1A58611  20.565  30.617   6.111
 4624POPC   D2A58612  20.809  30.551   6.466
 4624POPC   C3A58613  20.598  30.529   6.848
 4624POPC   C4A58614  20.771  30.373   7.226
 4624POPC   C1B58615  20.418  31.109   6.144
 4624POPC   C2B58616  20.449  30.911   6.515
 4624POPC   C3B58617  20.728  31.026   6.811
 4624POPC   C4B58618  20.680  30.866   7.233
 4625POPC   NC358619  34.481  35.265   5.434
 4625POPC   PO458620  34.724  35.869   5.374
 4625POPC   GL158621  34.835  35.565   5.686
 4625POPC   GL258622  34.523  35.498   5.883
 4625POPC   C1A58623  34.939  35.550   6.149
 4625POPC   D2A58624  34.700  35.326   6.477
 4625POPC   C3A58625  34.591  35.478   6.866
 4625POPC   C4A58626  34.767  35.305   7.236
 4625POPC   C1B58627  34.348  35.160   6.159
 4625POPC   C2B58628  34.141  35.145   6.568
 4625POPC   C3B58629  34.301  35.060   6.951
 4625POPC   C4B58630  34.260  35.378   7.253
 4626POPC   NC358631  17.728  33.173   5.454
 4626POPC   PO458632  17.087  33.152   5.490
 4626POPC   GL158633  17.357  33.100   5.835
 4626POPC   GL258634  17.663  32.885   5.888
 4626POPC   C1A58635  17.250  33.007   6.252
 4626POPC   D2A58636  17.474  32.828   6.624
 4626POPC   C3A58637  17.392  32.933   7.075
 4626POPC   C4A58638  17.339  33.096   7.529
 4626POPC   C1B58639  17.800  33.289   6.104
 4626POPC   C2B58640  17.983  33.340   6.500
 4626POPC   C3B58641  17.827  33.160   6.878
 4626POPC   C4B58642  17.782  33.190   7.317
 4627POPC   NC358643  30.624  37.032   5.440
 4627POPC   PO458644  30.802  36.397   5.503
 4627POPC   GL158645  30.934  36.708   5.731
 4627POPC   GL258646  30.610  36.761   5.867
 4627POPC   C1A58647  31.054  36.824   6.145
 4627POPC   D2A58648  30.862  36.889   6.550
 4627POPC   C3A58649  31.007  36.683   6.926
 4627POPC   C4A58650  30.936  37.055   7.137
 4627POPC   C1B58651  30.360  36.848   6.214
 4627POPC   C2B58652  30.130  36.818   6.578
 4627POPC   C3B58653  30.363  36.902   6.948
 4627POPC   C4B58654  30.516  36.835   7.348
 4628POPC   NC358655  41.921   7.352   5.447
 4628POPC   PO458656  41.205   7.171   5.453
 4628POPC   GL158657  41.492   7.366   5.790
 4628POPC   GL258658  41.835   7.298   5.941
 4628POPC   C1A58659  41.454   7.395   6.266
 4628POPC   D2A58660  41.407   7.617   6.652
 4628POPC   C3A58661  41.577   7.466   7.026
 4628POPC   C4A58662  41.393   7.554   7.402
 4628POPC   C1B58663  41.841   7.718   6.174
 4628POPC   C2B58664  41.840   7.955   6.573
 4628POPC   C3B58665  41.966   7.802   6.985
 4628POPC   C4B58666  42.073   7.351   7.045
 4629POPC   NC358667   0.800  27.021   5.613
 4629POPC   PO458668   0.236  26.666   5.700
 4629POPC   GL158669   0.391  27.011   5.923
 4629POPC   GL258670   0.101  27.122   6.034
 4629POPC   C1A58671   0.651  26.995   6.296
 4629POPC   D2A58672   0.699  26.742   6.683
 4629POPC   C3A58673   0.589  27.003   7.074
 4629POPC   C4A58674   0.532  27.071   7.607
 4629POPC   C1B58675   0.168  26.812   6.358
 4629POPC   C2B58676   0.187  26.784   6.793
 4629POPC   C3B58677   0.110  26.805   7.191
 4629POPC   C4B58678   0.179  27.207   7.274
 4630POPC   NC358679  23.660   2.980   5.550
 4630POPC   PO458680  24.165   2.614   5.358
 4630POPC   GL158681  23.888   2.538   5.737
 4630POPC   GL258682  23.931   2.822   5.947
 4630POPC   C1A58683  23.559   2.541   6.117
 4630POPC   D2A58684  23.772   2.554   6.543
 4630POPC   C3A58685  23.484   2.537   6.906
 4630POPC   C4A58686  23.332   2.899   7.138
 4630POPC   C1B58687  23.677   3.017   6.270
 4630POPC   C2B58688  23.589   3.025   6.707
 4630POPC   C3B58689  23.861   2.847   7.038
 4630POPC   C4B58690  24.008   2.959   7.459
 4631POPC   NC358691  17.020  26.364   5.386
 4631POPC   PO458692  17.655  25.961   5.310
 4631POPC   GL158693  17.524  25.986   5.752
 4631POPC   GL258694  17.343  26.287   5.760
 4631POPC   C1A58695  17.538  26.125   6.190
 4631POPC   D2A58696  17.677  26.163   6.569
 4631POPC   C3A58697  17.431  26.293   6.886
 4631POPC   C4A58698  17.576  26.224   7.293
 4631POPC   C1B58699  17.088  25.983   6.017
 4631POPC   C2B58700  17.166  25.908   6.463
 4631POPC   C3B58701  17.078  25.899   6.882
 4631POPC   C4B58702  17.096  26.124   7.264
 4632POPC   NC358703   0.867  37.011   5.544
 4632POPC   PO458704   0.289  36.680   5.368
 4632POPC   GL158705   0.446  36.794   5.756
 4632POPC   GL258706   0.285  37.104   5.790
 4632POPC   C1A58707   0.553  36.636   6.153
 4632POPC   D2A58708   0.399  36.567   6.546
 4632POPC   C3A58709   0.512  36.841   6.872
 4632POPC   C4A58710   0.299  36.809   7.246
 4632POPC   C1B58711   0.439  37.146   6.213
 4632POPC   C2B58712   0.289  37.294   6.615
 4632POPC   C3B58713   0.459  37.341   7.019
 4632POPC   C4B58714   0.669  37.152   7.330
 4633POPC   NC358715  30.982  34.380   5.442
 4633POPC   PO458716  30.576  34.940   5.430
 4633POPC   GL158717  30.802  34.774   5.748
 4633POPC   GL258718  30.633  34.484   5.828
 4633POPC   C1A58719  30.951  34.781   6.169
 4633POPC   D2A58720  30.730  34.558   6.508
 4633POPC   C3A58721  30.894  34.623   6.907
 4633POPC   C4A58722  30.793  34.819   7.255
 4633POPC   C1B58723  30.557  34.197   6.147
 4633POPC   C2B58724  30.368  34.183   6.540
 4633POPC   C3B58725  30.549  34.252   6.945
 4633POPC   C4B58726  30.728  34.318   7.366
 4634POPC   NC358727  37.261  12.501   5.398
 4634POPC   PO458728  37.988  12.492   5.485
 4634POPC   GL158729  37.623  12.692   5.712
 4634POPC   GL258730  37.535  13.047   5.743
 4634POPC   C1A58731  37.461  12.577   6.122
 4634POPC   D2A58732  37.776  12.420   6.449
 4634POPC   C3A58733  37.765  12.571   6.895
 4634POPC   C4A58734  37.948  12.715   7.301
 4634POPC   C1B58735  37.382  13.095   6.159
 4634POPC   C2B58736  37.431  12.858   6.547
 4634POPC   C3B58737  37.400  12.974   6.964
 4634POPC   C4B58738  37.494  12.899   7.388
 4635POPC   NC358739  41.799  22.309   5.388
 4635POPC   PO458740  41.228  21.905   5.424
 4635POPC   GL158741  41.472  22.147   5.756
 4635POPC   GL258742  41.213  22.342   5.884
 4635POPC   C1A58743  41.605  22.412   6.166
 4635POPC   D2A58744  41.391  22.441   6.587
 4635POPC   C3A58745  41.613  22.409   7.002
 4635POPC   C4A58746  41.709  22.228   7.434
 4635POPC   C1B58747  41.224  22.011   6.180
 4635POPC   C2B58748  41.021  21.891   6.534
 4635POPC   C3B58749  41.290  21.986   6.852
 4635POPC   C4B58750  41.251  22.112   7.241
 4636POPC   NC358751  16.385  27.775   5.118
 4636POPC   PO458752  16.944  27.483   5.329
 4636POPC   GL158753  17.060  27.515   5.782
 4636POPC   GL258754  16.921  27.236   5.991
 4636POPC   C1A58755  16.919  27.771   6.121
 4636POPC   D2A58756  16.819  27.593   6.493
 4636POPC   C3A58757  16.847  27.463   6.881
 4636POPC   C4A58758  16.876  27.430   7.292
 4636POPC   C1B58759  16.507  27.354   6.174
 4636POPC   C2B58760  16.341  27.389   6.622
 4636POPC   C3B58761  16.368  27.336   7.085
 4636POPC   C4B58762  16.431  27.458   7.530
 4637POPC   NC358763  40.207  22.580   5.475
 4637POPC   PO458764  40.307  23.299   5.526
 4637POPC   GL158765  40.056  23.079   5.780
 4637POPC   GL258766  40.314  22.869   5.893
 4637POPC   C1A58767  39.881  22.997   6.174
 4637POPC   D2A58768  39.775  22.661   6.451
 4637POPC   C3A58769  39.942  22.801   6.841
 4637POPC   C4A58770  39.823  23.019   7.181
 4637POPC   C1B58771  40.355  23.254   6.190
 4637POPC   C2B58772  40.271  23.362   6.632
 4637POPC   C3B58773  40.303  23.135   7.052
 4637POPC   C4B58774  40.241  23.267   7.491
 4638POPC   NC358775  17.918   8.085   5.614
 4638POPC   PO458776  18.473   8.514   5.431
 4638POPC   GL158777  18.352   8.331   5.826
 4638POPC   GL258778  18.393   7.959   5.773
 4638POPC   C1A58779  18.105   8.328   6.213
 4638POPC   D2A58780  17.983   8.118   6.598
 4638POPC   C3A58781  18.202   8.364   6.883
 4638POPC   C4A58782  18.276   8.441   7.301
 4638POPC   C1B58783  18.229   7.828   6.188
 4638POPC   C2B58784  18.451   7.832   6.564
 4638POPC   C3B58785  18.493   7.956   6.989
 4638POPC   C4B58786  18.084   7.953   7.184
 4639POPC   NC358787  42.933   9.793   5.535
 4639POPC   PO458788  43.584   9.933   5.359
 4639POPC   GL158789  43.385   9.689   5.720
 4639POPC   GL258790  43.350  10.048   5.813
 4639POPC   C1A58791  43.140   9.732   6.155
 4639POPC   D2A58792  42.839   9.835   6.493
 4639POPC   C3A58793  42.993   9.833   6.935
 4639POPC   C4A58794  43.053   9.531   7.269
 4639POPC   C1B58795  43.468  10.176   6.214
 4639POPC   C2B58796  43.350   9.984   6.591
 4639POPC   C3B58797  43.581   9.973   6.986
 4639POPC   C4B58798  43.514  10.026   7.412
 4640POPC   NC358799  17.416   0.030   5.448
 4640POPC   PO458800  17.291   0.790   5.546
 4640POPC   GL158801  17.552   0.514   5.828
 4640POPC   GL258802  17.413   0.185   5.944
 4640POPC   C1A58803  17.828   0.488   6.220
 4640POPC   D2A58804  17.906   0.620   6.676
 4640POPC   C3A58805  17.902   0.286   7.034
 4640POPC   C4A58806  17.902   0.348   7.506
 4640POPC   C1B58807  17.320   0.425   6.314
 4640POPC   C2B58808  17.422   0.434   6.741
 4640POPC   C3B58809  17.360   0.159   7.071
 4640POPC   C4B58810  17.148   0.261   7.416
 4641POPC   NC358811  34.257  30.050   5.226
 4641POPC   PO458812  33.626  29.992   5.392
 4641POPC   GL158813  33.649  30.102   5.840
 4641POPC   GL258814  33.905  29.893   6.005
 4641POPC   C1A58815  33.648  30.230   6.284
 4641POPC   D2A58816  33.748  29.928   6.598
 4641POPC   C3A58817  33.556  30.049   6.969
 4641POPC   C4A58818  33.416  29.706   7.159
 4641POPC   C1B58819  34.146  30.164   6.312
 4641POPC   C2B58820  34.011  30.334   6.709
 4641POPC   C3B58821  34.066  30.057   7.072
 4641POPC   C4B58822  33.784  30.002   7.450
 4642POPC   NC358823   0.135  17.820   5.489
 4642POPC   PO458824   0.308  18.476   5.375
 4642POPC   GL158825   0.382  18.390   5.826
 4642POPC   GL258826   0.382  18.038   5.880
 4642POPC   C1A58827   0.480  18.335   6.281
 4642POPC   D2A58828   0.523  18.197   6.697
 4642POPC   C3A58829   0.345  18.183   7.107
 4642POPC   C4A58830   0.473  18.237   7.532
 4642POPC   C1B58831   0.728  17.890   6.124
 4642POPC   C2B58832   0.777  17.761   6.550
 4642POPC   C3B58833   0.575  17.736   6.943
 4642POPC   C4B58834   0.792  17.913   7.308
 4643POPC   NC358835  19.662  35.923   5.468
 4643POPC   PO458836  20.122  36.409   5.476
 4643POPC   GL158837  19.856  36.250   5.804
 4643POPC   GL258838  19.443  36.290   5.754
 4643POPC   C1A58839  19.941  36.119   6.211
 4643POPC   D2A58840  19.856  35.786   6.494
 4643POPC   C3A58841  19.733  35.912   6.924
 4643POPC   C4A58842  19.811  36.200   7.247
 4643POPC   C1B58843  19.430  36.109   6.165
 4643POPC   C2B58844  19.585  36.252   6.554
 4643POPC   C3B58845  19.402  36.331   6.951
 4643POPC   C4B58846  19.288  36.038   7.225
 4644POPC   NC358847  23.109  31.800   5.460
 4644POPC   PO458848  22.610  31.332   5.499
 4644POPC   GL158849  22.959  31.392   5.764
 4644POPC   GL258850  22.775  31.680   5.885
 4644POPC   C1A58851  23.183  31.535   6.151
 4644POPC   D2A58852  23.003  31.456   6.567
 4644POPC   C3A58853  23.152  31.590   6.984
 4644POPC   C4A58854  23.026  31.430   7.400
 4644POPC   C1B58855  22.639  31.329   6.188
 4644POPC   C2B58856  22.554  31.230   6.629
 4644POPC   C3B58857  22.647  31.455   6.991
 4644POPC   C4B58858  22.551  31.288   7.365
 4645POPC   NC358859  27.570  27.202   5.587
 4645POPC   PO458860  27.338  27.794   5.379
 4645POPC   GL158861  27.269  27.618   5.838
 4645POPC   GL258862  27.224  27.271   5.983
 4645POPC   C1A58863  27.481  27.701   6.259
 4645POPC   D2A58864  27.728  27.880   6.606
 4645POPC   C3A58865  27.586  27.741   6.996
 4645POPC   C4A58866  27.871  27.706   7.367
 4645POPC   C1B58867  27.592  27.214   6.237
 4645POPC   C2B58868  27.694  27.342   6.630
 4645POPC   C3B58869  27.823  27.310   7.056
 4645POPC   C4B58870  27.513  27.275   7.373
 4646POPC   NC358871   9.256   2.491   5.547
 4646POPC   PO458872   8.765   2.903   5.384
 4646POPC   GL158873   8.903   2.790   5.807
 4646POPC   GL258874   9.265   2.856   5.888
 4646POPC   C1A58875   8.989   2.589   6.208
 4646POPC   D2A58876   9.079   2.755   6.607
 4646POPC   C3A58877   8.907   2.454   6.911
 4646POPC   C4A58878   8.912   2.798   7.171
 4646POPC   C1B58879   9.439   2.975   6.293
 4646POPC   C2B58880   9.381   3.220   6.639
 4646POPC   C3B58881   9.306   3.105   7.042
 4646POPC   C4B58882   9.290   2.983   7.472
 4647POPC   NC358883  17.885   6.273   5.602
 4647POPC   PO458884  18.457   5.963   5.256
 4647POPC   GL158885  18.391   5.981   5.714
 4647POPC   GL258886  18.108   5.754   5.782
 4647POPC   C1A58887  18.386   6.060   6.187
 4647POPC   D2A58888  18.148   6.067   6.592
 4647POPC   C3A58889  18.342   6.001   7.010
 4647POPC   C4A58890  18.583   6.071   7.394
 4647POPC   C1B58891  18.378   5.555   6.084
 4647POPC   C2B58892  18.443   5.575   6.517
 4647POPC   C3B58893  18.405   5.362   6.888
 4647POPC   C4B58894  18.248   5.533   7.247
 4648POPC   NC358895  38.294  31.415   5.454
 4648POPC   PO458896  38.679  31.901   5.609
 4648POPC   GL158897  38.638  31.527   5.834
 4648POPC   GL258898  38.725  31.198   5.680
 4648POPC   C1A58899  38.357  31.395   6.170
 4648POPC   D2A58900  38.310  31.535   6.594
 4648POPC   C3A58901  38.329  31.302   6.993
 4648POPC   C4A58902  38.387  31.687   7.263
 4648POPC   C1B58903  38.786  31.131   6.102
 4648POPC   C2B58904  38.831  31.454   6.422
 4648POPC   C3B58905  38.803  31.416   6.879
 4648POPC   C4B58906  38.749  31.094   7.237
 4649POPC   NC358907   5.347  23.453   5.526
 4649POPC   PO458908   4.876  22.951   5.452
 4649POPC   GL158909   5.152  22.897   5.827
 4649POPC   GL258910   5.110  23.204   5.925
 4649POPC   C1A58911   5.383  22.896   6.255
 4649POPC   D2A58912   5.404  23.103   6.669
 4649POPC   C3A58913   5.060  23.010   6.957
 4649POPC   C4A58914   4.981  22.660   7.224
 4649POPC   C1B58915   4.843  23.311   6.269
 4649POPC   C2B58916   4.940  23.462   6.697
 4649POPC   C3B58917   4.861  23.470   7.128
 4649POPC   C4B58918   5.097  23.257   7.448
 4650POPC   NC358919   7.628  22.426   5.660
 4650POPC   PO458920   7.161  22.070   5.451
 4650POPC   GL158921   7.180  22.184   5.867
 4650POPC   GL258922   7.111  22.540   5.872
 4650POPC   C1A58923   7.508  22.008   6.167
 4650POPC   D2A58924   7.740  22.190   6.519
 4650POPC   C3A58925   7.589  22.034   6.892
 4650POPC   C4A58926   7.544  22.080   7.302
 4650POPC   C1B58927   7.280  22.451   6.295
 4650POPC   C2B58928   7.182  22.319   6.707
 4650POPC   C3B58929   7.228  22.440   7.151
 4650POPC   C4B58930   7.137  22.574   7.590
 4651POPC   NC358931   4.539   7.696   5.427
 4651POPC   PO458932   4.127   7.270   5.423
 4651POPC   GL158933   4.163   7.540   5.767
 4651POPC   GL258934   4.484   7.387   5.835
 4651POPC   C1A58935   4.107   7.540   6.207
 4651POPC   D2A58936   4.308   7.267   6.515
 4651POPC   C3A58937   4.081   7.167   6.896
 4651POPC   C4A58938   4.205   7.205   7.306
 4651POPC   C1B58939   4.570   7.745   6.089
 4651POPC   C2B58940   4.543   7.731   6.540
 4651POPC   C3B58941   4.424   7.559   6.945
 4651POPC   C4B58942   4.676   7.458   7.293
 4652POPC   NC358943  42.857   3.947   5.435
 4652POPC   PO458944  42.556   4.559   5.356
 4652POPC   GL158945  42.634   4.319   5.763
 4652POPC   GL258946  42.283   4.355   5.904
 4652POPC   C1A58947  42.581   4.011   6.120
 4652POPC   D2A58948  42.350   4.223   6.438
 4652POPC   C3A58949  42.387   4.136   6.865
 4652POPC   C4A58950  42.559   4.319   7.232
 4652POPC   C1B58951  42.061   4.604   6.232
 4652POPC   C2B58952  41.985   4.528   6.670
 4652POPC   C3B58953  42.160   4.603   7.080
 4652POPC   C4B58954  42.107   4.361   7.484
 4653POPC   NC358955  17.079  29.356   5.515
 4653POPC   PO458956  16.519  28.971   5.408
 4653POPC   GL158957  16.742  29.063   5.785
 4653POPC   GL258958  17.069  28.889   5.805
 4653POPC   C1A58959  16.607  29.118   6.192
 4653POPC   D2A58960  16.779  28.937   6.577
 4653POPC   C3A58961  16.627  29.085   6.973
 4653POPC   C4A58962  16.659  28.838   7.331
 4653POPC   C1B58963  17.113  29.120   6.203
 4653POPC   C2B58964  17.295  29.106   6.611
 4653POPC   C3B58965  17.147  28.897   6.978
 4653POPC   C4B58966  17.048  29.148   7.293
 4654POPC   NC358967   2.746  30.069   5.457
 4654POPC   PO458968   2.120  29.800   5.472
 4654POPC   GL158969   2.416  29.893   5.852
 4654POPC   GL258970   2.715  30.158   5.954
 4654POPC   C1A58971   2.733  29.681   6.130
 4654POPC   D2A58972   2.894  29.893   6.468
 4654POPC   C3A58973   2.663  29.782   6.824
 4654POPC   C4A58974   2.787  29.754   7.230
 4654POPC   C1B58975   3.123  30.251   6.158
 4654POPC   C2B58976   3.114  30.342   6.603
 4654POPC   C3B58977   2.840  30.246   6.942
 4654POPC   C4B58978   2.850  30.238   7.374
 4655POPC   NC358979  13.095  26.515   5.525
 4655POPC   PO458980  12.918  25.819   5.379
 4655POPC   GL158981  12.882  26.086   5.746
 4655POPC   GL258982  13.223  26.077   5.829
 4655POPC   C1A58983  12.572  26.088   6.090
 4655POPC   D2A58984  12.462  25.950   6.523
 4655POPC   C3A58985  12.688  25.933   6.925
 4655POPC   C4A58986  12.783  26.081   7.370
 4655POPC   C1B58987  13.037  25.926   6.221
 4655POPC   C2B58988  13.111  26.018   6.642
 4655POPC   C3B58989  13.195  25.944   7.092
 4655POPC   C4B58990  13.174  25.816   7.547
 4656POPC   NC358991   4.740   8.670   5.538
 4656POPC   PO458992   5.157   9.190   5.469
 4656POPC   GL158993   5.328   9.167   5.871
 4656POPC   GL258994   5.072   8.885   5.892
 4656POPC   C1A58995   5.209   9.399   6.245
 4656POPC   D2A58996   5.000   9.316   6.656
 4656POPC   C3A58997   5.276   9.236   6.976
 4656POPC   C4A58998   5.336   9.118   7.396
 4656POPC   C1B58999   5.031   8.927   6.310
 4656POPC   C2B59000   5.302   8.851   6.647
 4656POPC   C3B59001   5.191   8.725   7.053
 4656POPC   C4B59002   4.771   8.780   7.197
 4657POPC   NC359003  41.384  15.778   5.391
 4657POPC   PO459004  41.707  16.347   5.341
 4657POPC   GL159005  41.737  16.077   5.702
 4657POPC   GL259006  41.510  15.854   5.870
 4657POPC   C1A59007  41.869  16.150   6.124
 4657POPC   D2A59008  41.763  16.085   6.547
 4657POPC   C3A59009  41.741  16.195   6.957
 4657POPC   C4A59010  42.134  16.118   7.183
 4657POPC   C1B59011  41.644  15.686   6.251
 4657POPC   C2B59012  41.537  15.384   6.570
 4657POPC   C3B59013  41.392  15.381   6.974
 4657POPC   C4B59014  41.336  15.681   7.272
 4658POPC   NC359015   0.908  20.113   5.067
 4658POPC   PO459016   1.329  19.659   5.370
 4658POPC   GL159017   1.359  19.648   5.822
 4658POPC   GL259018   1.638  19.464   5.883
 4658POPC   C1A59019   1.172  19.743   6.236
 4658POPC   D2A59020   1.120  19.503   6.629
 4658POPC   C3A59021   1.099  19.769   7.012
 4658POPC   C4A59022   0.947  19.834   7.440
 4658POPC   C1B59023   1.569  19.453   6.322
 4658POPC   C2B59024   1.580  19.753   6.636
 4658POPC   C3B59025   1.614  19.788   7.046
 4658POPC   C4B59026   1.561  19.568   7.428
 4659POPC   NC359027  33.884   5.415   5.068
 4659POPC   PO459028  33.654   5.002   5.449
 4659POPC   GL159029  33.806   5.011   5.854
 4659POPC   GL259030  33.677   5.315   5.858
 4659POPC   C1A59031  33.845   5.125   6.299
 4659POPC   D2A59032  34.049   5.016   6.610
 4659POPC   C3A59033  33.994   4.868   7.003
 4659POPC   C4A59034  33.948   4.952   7.419
 4659POPC   C1B59035  33.826   5.603   6.161
 4659POPC   C2B59036  33.743   5.568   6.590
 4659POPC   C3B59037  33.904   5.378   6.968
 4659POPC   C4B59038  33.776   5.413   7.421
 4660POPC   NC359039   0.882   0.286   5.486
 4660POPC   PO459040   0.303  44.964   5.404
 4660POPC   GL159041   0.390   0.295   5.742
 4660POPC   GL259042   0.230   0.627   5.745
 4660POPC   C1A59043   0.523   0.494   6.148
 4660POPC   D2A59044   0.668   0.340   6.553
 4660POPC   C3A59045   0.562   0.564   6.920
 4660POPC   C4A59046   0.300   0.357   7.194
 4660POPC   C1B59047   0.145   0.856   6.144
 4660POPC   C2B59048   0.267   0.832   6.578
 4660POPC   C3B59049   0.077   0.768   6.976
 4660POPC   C4B59050   0.190   1.025   7.288
 4661POPC   NC359051  18.530  13.083   5.723
 4661POPC   PO459052  18.130  12.591   5.521
 4661POPC   GL159053  18.170  12.703   5.935
 4661POPC   GL259054  18.000  13.015   5.921
 4661POPC   C1A59055  18.391  12.886   6.310
 4661POPC   D2A59056  18.452  13.114   6.665
 4661POPC   C3A59057  18.450  12.833   7.022
 4661POPC   C4A59058  18.418  12.910   7.461
 4661POPC   C1B59059  17.898  12.834   6.356
 4661POPC   C2B59060  17.996  12.892   6.766
 4661POPC   C3B59061  17.975  12.845   7.219
 4661POPC   C4B59062  17.735  13.002   7.571
 4662POPC   NC359063  35.458  17.009   5.416
 4662POPC   PO459064  35.078  17.539   5.631
 4662POPC   GL159065  35.099  17.513   6.013
 4662POPC   GL259066  35.081  17.117   5.927
 4662POPC   C1A59067  35.343  17.561   6.406
 4662POPC   D2A59068  35.767  17.402   6.520
 4662POPC   C3A59069  35.781  17.252   6.937
 4662POPC   C4A59070  35.426  17.372   7.171
 4662POPC   C1B59071  34.928  17.202   6.345
 4662POPC   C2B59072  34.914  17.466   6.695
 4662POPC   C3B59073  34.920  17.239   7.072
 4662POPC   C4B59074  35.080  17.089   7.452
 4663POPC   NC359075  43.357   2.428   5.428
 4663POPC   PO459076  43.395   1.730   5.406
 4663POPC   GL159077  43.238   1.916   5.805
 4663POPC   GL259078  43.009   2.207   5.793
 4663POPC   C1A59079  43.425   2.128   6.171
 4663POPC   D2A59080  43.469   2.227   6.637
 4663POPC   C3A59081  43.355   1.880   6.919
 4663POPC   C4A59082  43.406   1.879   7.348
 4663POPC   C1B59083  42.908   2.098   6.228
 4663POPC   C2B59084  42.951   2.262   6.655
 4663POPC   C3B59085  42.714   2.170   7.017
 4663POPC   C4B59086  42.906   1.885   7.307
 4664POPC   NC359087  30.237  33.732   5.523
 4664POPC   PO459088  29.600  33.704   5.350
 4664POPC   GL159089  29.794  33.843   5.750
 4664POPC   GL259090  29.988  34.184   5.728
 4664POPC   C1A59091  29.708  33.637   6.172
 4664POPC   D2A59092  29.561  33.441   6.572
 4664POPC   C3A59093  29.598  33.695   6.920
 4664POPC   C4A59094  29.900  33.771   7.166
 4664POPC   C1B59095  30.081  33.993   6.148
 4664POPC   C2B59096  29.911  33.923   6.586
 4664POPC   C3B59097  30.035  34.202   6.934
 4664POPC   C4B59098  30.280  34.060   7.327
 4665POPC   NC359099  30.525  36.038   5.384
 4665POPC   PO459100  29.814  35.936   5.465
 4665POPC   GL159101  29.890  36.226   5.804
 4665POPC   GL259102  30.063  36.000   6.054
 4665POPC   C1A59103  29.980  36.462   6.203
 4665POPC   D2A59104  30.081  36.259   6.587
 4665POPC   C3A59105  30.018  36.488   6.956
 4665POPC   C4A59106  30.167  36.436   7.346
 4665POPC   C1B59107  29.757  35.663   6.147
 4665POPC   C2B59108  29.776  35.482   6.523
 4665POPC   C3B59109  29.808  35.729   6.876
 4665POPC   C4B59110  29.976  35.966   7.225
 4666POPC   NC359111  10.272   0.142   5.527
 4666POPC   PO459112  10.148  44.480   5.478
 4666POPC   GL159113  10.252  44.688   5.834
 4666POPC   GL259114  10.250  44.382   6.016
 4666POPC   C1A59115  10.375  44.824   6.260
 4666POPC   D2A59116  10.372  44.624   6.649
 4666POPC   C3A59117  10.649  44.757   6.960
 4666POPC   C4A59118  10.525  44.912   7.347
 4666POPC   C1B59119  10.638  44.314   6.237
 4666POPC   C2B59120  10.800  44.347   6.630
 4666POPC   C3B59121  10.548  44.240   6.963
 4666POPC   C4B59122  10.528  44.383   7.358
 4667POPC   NC359123   5.181  20.562   5.348
 4667POPC   PO459124   5.179  21.177   5.440
 4667POPC   GL159125   5.262  20.890   5.795
 4667POPC   GL259126   5.029  20.584   5.839
 4667POPC   C1A59127   5.302  20.727   6.234
 4667POPC   D2A59128   5.072  20.847   6.610
 4667POPC   C3A59129   5.283  20.742   6.979
 4667POPC   C4A59130   5.134  20.634   7.381
 4667POPC   C1B59131   4.769  20.601   6.226
 4667POPC   C2B59132   4.657  20.379   6.607
 4667POPC   C3B59133   4.797  20.490   7.002
 4667POPC   C4B59134   4.798  20.924   7.109
 4668POPC   NC359135  27.480  28.164   5.140
 4668POPC   PO459136  27.784  28.552   5.488
 4668POPC   GL159137  27.676  28.411   5.862
 4668POPC   GL259138  27.494  28.099   5.811
 4668POPC   C1A59139  27.795  28.245   6.234
 4668POPC   D2A59140  27.626  28.508   6.512
 4668POPC   C3A59141  27.535  28.411   6.912
 4668POPC   C4A59142  27.675  28.165   7.238
 4668POPC   C1B59143  27.277  28.158   6.234
 4668POPC   C2B59144  27.245  28.025   6.718
 4668POPC   C3B59145  27.163  28.167   7.192
 4668POPC   C4B59146  27.173  28.164   7.669
 4669POPC   NC359147  38.371  22.592   5.674
 4669POPC   PO459148  38.840  22.097   5.405
 4669POPC   GL159149  38.590  22.155   5.822
 4669POPC   GL259150  38.858  22.427   5.856
 4669POPC   C1A59151  38.316  22.204   6.272
 4669POPC   D2A59152  38.223  22.499   6.592
 4669POPC   C3A59153  38.032  22.278   6.908
 4669POPC   C4A59154  38.146  22.078   7.295
 4669POPC   C1B59155  38.815  22.248   6.267
 4669POPC   C2B59156  38.630  22.141   6.666
 4669POPC   C3B59157  38.519  22.337   7.028
 4669POPC   C4B59158  38.643  22.253   7.431
 4670POPC   NC359159  24.157   2.160   5.267
 4670POPC   PO459160  24.752   2.273   5.177
 4670POPC   GL159161  24.537   2.075   5.590
 4670POPC   GL259162  24.371   2.343   5.737
 4670POPC   C1A59163  24.357   1.943   6.049
 4670POPC   D2A59164  24.263   2.109   6.493
 4670POPC   C3A59165  24.200   1.857   6.893
 4670POPC   C4A59166  24.482   1.697   7.243
 4670POPC   C1B59167  24.281   2.521   6.151
 4670POPC   C2B59168  24.356   2.604   6.573
 4670POPC   C3B59169  24.467   2.364   6.901
 4670POPC   C4B59170  24.434   2.201   7.252
 4671POPC   NC359171  15.616  41.712   5.404
 4671POPC   PO459172  16.190  41.424   5.248
 4671POPC   GL159173  16.073  41.586   5.693
 4671POPC   GL259174  15.782  41.436   5.825
 4671POPC   C1A59175  16.184  41.598   6.193
 4671POPC   D2A59176  15.986  41.759   6.624
 4671POPC   C3A59177  16.082  41.646   7.099
 4671POPC   C4A59178  16.256  41.585   7.537
 4671POPC   C1B59179  15.676  41.491   6.270
 4671POPC   C2B59180  15.535  41.502   6.707
 4671POPC   C3B59181  15.665  41.342   7.109
 4671POPC   C4B59182  15.596  40.912   7.300
 4672POPC   NC359183  43.269   6.531   5.428
 4672POPC   PO459184  42.690   6.895   5.467
 4672POPC   GL159185  42.909   6.607   5.807
 4672POPC   GL259186  43.174   6.752   5.882
 4672POPC   C1A59187  43.071   6.372   6.177
 4672POPC   D2A59188  43.356   6.548   6.454
 4672POPC   C3A59189  43.264   6.553   6.908
 4672POPC   C4A59190  43.540   6.496   7.266
 4672POPC   C1B59191  42.893   6.908   6.231
 4672POPC   C2B59192  42.626   6.936   6.590
 4672POPC   C3B59193  42.873   6.922   6.955
 4672POPC   C4B59194  42.902   6.882   7.392
 4673POPC   NC359195  31.654   0.620   5.211
 4673POPC   PO459196  31.205   0.146   5.538
 4673POPC   GL159197  31.313   0.534   5.726
 4673POPC   GL259198  31.635   0.445   5.791
 4673POPC   C1A59199  31.336   0.615   6.194
 4673POPC   D2A59200  31.501   0.339   6.535
 4673POPC   C3A59201  31.269   0.318   6.939
 4673POPC   C4A59202  30.999   0.619   7.076
 4673POPC   C1B59203  31.842   0.569   6.173
 4673POPC   C2B59204  31.880   0.637   6.646
 4673POPC   C3B59205  31.780   0.360   7.018
 4673POPC   C4B59206  31.797   0.296   7.474
 4674POPC   NC359207  11.438  13.912   5.401
 4674POPC   PO459208  11.057  13.373   5.363
 4674POPC   GL159209  11.179  13.407   5.749
 4674POPC   GL259210  11.231  13.765   5.822
 4674POPC   C1A59211  11.390  13.294   6.089
 4674POPC   D2A59212  11.363  13.534   6.449
 4674POPC   C3A59213  11.201  13.440   6.811
 4674POPC   C4A59214  11.401  13.368   7.194
 4674POPC   C1B59215  11.367  14.009   6.191
 4674POPC   C2B59216  11.345  14.244   6.592
 4674POPC   C3B59217  11.291  13.986   6.972
 4674POPC   C4B59218  11.475  13.872   7.356
 4675POPC   NC359219   5.747   1.820   5.525
 4675POPC   PO459220   6.347   1.733   5.199
 4675POPC   GL159221   6.167   2.033   5.684
 4675POPC   GL259222   6.031   1.793   5.976
 4675POPC   C1A59223   5.878   2.232   6.073
 4675POPC   D2A59224   5.722   2.348   6.447
 4675POPC   C3A59225   5.873   2.136   6.755
 4675POPC   C4A59226   5.844   2.123   7.149
 4675POPC   C1B59227   5.965   1.778   6.404
 4675POPC   C2B59228   6.271   1.686   6.699
 4675POPC   C3B59229   6.263   1.528   7.074
 4675POPC   C4B59230   6.114   1.751   7.356
 4676POPC   NC359231   3.595  17.191   5.291
 4676POPC   PO459232   3.593  16.509   5.324
 4676POPC   GL159233   3.560  16.819   5.715
 4676POPC   GL259234   3.816  17.065   5.748
 4676POPC   C1A59235   3.402  16.995   6.155
 4676POPC   D2A59236   3.467  16.943   6.636
 4676POPC   C3A59237   3.321  16.722   7.038
 4676POPC   C4A59238   3.392  16.411   7.369
 4676POPC   C1B59239   3.904  17.096   6.213
 4676POPC   C2B59240   4.016  16.832   6.577
 4676POPC   C3B59241   3.877  16.789   7.051
 4676POPC   C4B59242   4.029  16.782   7.498
 4677POPC   NC359243  14.005   9.548   5.557
 4677POPC   PO459244  14.527   9.908   5.478
 4677POPC   GL159245  14.379   9.754   5.853
 4677POPC   GL259246  14.113   9.968   5.842
 4677POPC   C1A59247  14.222   9.731   6.284
 4677POPC   D2A59248  14.543   9.649   6.569
 4677POPC   C3A59249  14.332   9.690   6.926
 4677POPC   C4A59250  14.519   9.653   7.285
 4677POPC   C1B59251  14.154  10.276   6.179
 4677POPC   C2B59252  13.994  10.327   6.590
 4677POPC   C3B59253  13.951  10.052   6.948
 4677POPC   C4B59254  14.062   9.895   7.336
 4678POPC   NC359255  12.228  38.967   5.498
 4678POPC   PO459256  11.768  39.530   5.514
 4678POPC   GL159257  11.951  39.260   5.824
 4678POPC   GL259258  12.320  39.279   5.880
 4678POPC   C1A59259  11.836  39.357   6.239
 4678POPC   D2A59260  12.198  39.373   6.463
 4678POPC   C3A59261  12.175  39.488   6.872
 4678POPC   C4A59262  12.125  39.188   7.169
 4678POPC   C1B59263  12.548  39.065   6.211
 4678POPC   C2B59264  12.527  38.966   6.633
 4678POPC   C3B59265  12.603  39.096   7.052
 4678POPC   C4B59266  12.463  38.871   7.430
 4679POPC   NC359267  18.557   1.560   5.428
 4679POPC   PO459268  18.230   0.984   5.392
 4679POPC   GL159269  18.275   1.227   5.743
 4679POPC   GL259270  18.037   1.516   5.755
 4679POPC   C1A59271  18.406   1.343   6.142
 4679POPC   D2A59272  18.483   1.548   6.517
 4679POPC   C3A59273  18.442   1.335   6.871
 4679POPC   C4A59274  18.181   1.477   7.159
 4679POPC   C1B59275  17.901   1.239   6.108
 4679POPC   C2B59276  18.108   1.105   6.490
 4679POPC   C3B59277  17.960   1.136   6.858
 4679POPC   C4B59278  17.736   1.242   7.194
 4680POPC   NC359279  15.673  26.650   5.557
 4680POPC   PO459280  15.965  27.303   5.428
 4680POPC   GL159281  15.924  27.011   5.813
 4680POPC   GL259282  16.140  26.695   5.791
 4680POPC   C1A59283  15.772  26.771   6.227
 4680POPC   D2A59284  15.873  26.648   6.693
 4680POPC   C3A59285  15.797  26.907   7.093
 4680POPC   C4A59286  16.076  27.076   7.431
 4680POPC   C1B59287  16.260  26.533   6.201
 4680POPC   C2B59288  16.473  26.602   6.625
 4680POPC   C3B59289  16.296  26.640   7.064
 4680POPC   C4B59290  15.933  26.437   7.260
 4681POPC   NC359291  32.810  27.968   5.320
 4681POPC   PO459292  33.338  27.478   5.226
 4681POPC   GL159293  33.194  27.465   5.668
 4681POPC   GL259294  32.861  27.654   5.732
 4681POPC   C1A59295  33.207  27.563   6.116
 4681POPC   D2A59296  32.968  27.524   6.481
 4681POPC   C3A59297  33.183  27.430   6.877
 4681POPC   C4A59298  32.983  27.349   7.243
 4681POPC   C1B59299  32.873  27.941   6.101
 4681POPC   C2B59300  32.874  28.050   6.507
 4681POPC   C3B59301  32.874  27.835   6.871
 4681POPC   C4B59302  33.170  27.840   7.173
 4682POPC   NC359303  37.487   9.221   5.565
 4682POPC   PO459304  37.646   8.605   5.570
 4682POPC   GL159305  37.981   8.869   5.806
 4682POPC   GL259306  37.906   9.233   5.879
 4682POPC   C1A59307  37.964   8.840   6.251
 4682POPC   D2A59308  37.590   8.749   6.493
 4682POPC   C3A59309  37.632   8.785   6.916
 4682POPC   C4A59310  37.581   9.121   7.180
 4682POPC   C1B59311  37.540   9.196   6.212
 4682POPC   C2B59312  37.600   9.291   6.657
 4682POPC   C3B59313  37.986   9.243   6.891
 4682POPC   C4B59314  38.093   9.396   7.297
 4683POPC   NC359315   1.644  26.877   5.622
 4683POPC   PO459316   0.987  26.623   5.430
 4683POPC   GL159317   0.993  26.608   5.863
 4683POPC   GL259318   1.342  26.575   5.884
 4683POPC   C1A59319   1.120  26.793   6.282
 4683POPC   D2A59320   1.233  26.592   6.658
 4683POPC   C3A59321   1.085  26.823   7.016
 4683POPC   C4A59322   0.979  27.016   7.394
 4683POPC   C1B59323   1.587  26.534   6.264
 4683POPC   C2B59324   1.766  26.550   6.675
 4683POPC   C3B59325   1.594  26.825   6.946
 4683POPC   C4B59326   1.492  26.804   7.357
 4684POPC   NC359327  38.942   8.545   5.421
 4684POPC   PO459328  39.322   9.149   5.521
 4684POPC   GL159329  39.064   8.906   5.774
 4684POPC   GL259330  39.284   8.614   5.800
 4684POPC   C1A59331  39.035   8.886   6.197
 4684POPC   D2A59332  39.265   8.955   6.535
 4684POPC   C3A59333  39.121   8.820   6.897
 4684POPC   C4A59334  39.036   9.006   7.307
 4684POPC   C1B59335  39.508   8.683   6.166
 4684POPC   C2B59336  39.549   8.531   6.555
 4684POPC   C3B59337  39.613   8.592   6.954
 4684POPC   C4B59338  39.507   8.874   7.214
 4685POPC   NC359339   4.137  44.450   5.295
 4685POPC   PO459340   4.636  44.877   5.338
 4685POPC   GL159341   4.485  44.609   5.677
 4685POPC   GL259342   4.146  44.733   5.733
 4685POPC   C1A59343   4.621  44.499   6.102
 4685POPC   D2A59344   4.643  44.655   6.519
 4685POPC   C3A59345   4.392  44.531   6.877
 4685POPC   C4A59346   4.578  44.563   7.288
 4685POPC   C1B59347   4.107  44.463   6.099
 4685POPC   C2B59348   3.933  44.263   6.501
 4685POPC   C3B59349   3.878  44.498   6.888
 4685POPC   C4B59350   4.054  44.563   7.304
 4686POPC   NC359351  41.646  35.966   5.342
 4686POPC   PO459352  41.399  36.514   5.635
 4686POPC   GL159353  41.505  36.083   5.882
 4686POPC   GL259354  41.808  35.832   5.797
 4686POPC   C1A59355  41.490  36.078   6.362
 4686POPC   D2A59356  41.840  36.302   6.624
 4686POPC   C3A59357  41.646  36.426   7.009
 4686POPC   C4A59358  41.271  36.138   7.089
 4686POPC   C1B59359  41.953  35.989   6.176
 4686POPC   C2B59360  41.846  35.764   6.538
 4686POPC   C3B59361  41.680  35.898   6.894
 4686POPC   C4B59362  41.982  36.065   7.162
 4687POPC   NC359363  19.632  13.987   5.234
 4687POPC   PO459364  19.654  13.299   5.307
 4687POPC   GL159365  19.788  13.455   5.773
 4687POPC   GL259366  19.668  13.776   5.832
 4687POPC   C1A59367  19.980  13.563   6.224
 4687POPC   D2A59368  19.888  13.814   6.629
 4687POPC   C3A59369  20.098  13.618   7.031
 4687POPC   C4A59370  20.227  13.268   7.368
 4687POPC   C1B59371  19.498  13.680   6.278
 4687POPC   C2B59372  19.325  13.602   6.674
 4687POPC   C3B59373  19.549  13.707   7.032
 4687POPC   C4B59374  19.717  13.471   7.306
 4688POPC   NC359375  32.265  19.735   5.443
 4688POPC   PO459376  31.937  20.242   5.431
 4688POPC   GL159377  32.051  20.027   5.830
 4688POPC   GL259378  32.387  19.838   5.909
 4688POPC   C1A59379  32.108  20.060   6.263
 4688POPC   D2A59380  32.300  19.867   6.581
 4688POPC   C3A59381  32.091  20.061   6.933
 4688POPC   C4A59382  32.145  20.148   7.368
 4688POPC   C1B59383  32.124  19.534   6.115
 4688POPC   C2B59384  31.947  19.469   6.525
 4688POPC   C3B59385  32.117  19.551   6.954
 4688POPC   C4B59386  32.392  19.454   7.291
 4689POPC   NC359387  28.942  20.918   5.571
 4689POPC   PO459388  29.273  20.330   5.276
 4689POPC   GL159389  29.189  20.455   5.740
 4689POPC   GL259390  28.969  20.259   5.929
 4689POPC   C1A59391  29.109  20.697   6.158
 4689POPC   D2A59392  29.416  20.821   6.478
 4689POPC   C3A59393  29.291  20.911   6.896
 4689POPC   C4A59394  29.370  20.747   7.293
 4689POPC   C1B59395  29.027  20.153   6.349
 4689POPC   C2B59396  29.003  20.477   6.643
 4689POPC   C3B59397  29.029  20.475   7.047
 4689POPC   C4B59398  28.827  20.524   7.429
 4690POPC   NC359399  44.480  29.876   5.482
 4690POPC   PO459400   0.140  29.845   5.374
 4690POPC   GL159401  44.907  29.739   5.720
 4690POPC   GL259402  44.839  30.089   5.798
 4690POPC   C1A59403  44.648  29.722   6.106
 4690POPC   D2A59404  44.641  29.855   6.535
 4690POPC   C3A59405  44.523  29.630   6.887
 4690POPC   C4A59406  44.792  29.606   7.247
 4690POPC   C1B59407  44.635  30.241   6.200
 4690POPC   C2B59408  44.375  30.303   6.577
 4690POPC   C3B59409  44.377  30.100   6.998
 4690POPC   C4B59410  44.642  30.124   7.387
 4691POPC   NC359411  37.623  23.218   5.454
 4691POPC   PO459412  37.678  23.904   5.349
 4691POPC   GL159413  37.730  23.909   5.809
 4691POPC   GL259414  37.564  23.588   5.866
 4691POPC   C1A59415  37.670  23.885   6.288
 4691POPC   D2A59416  37.522  23.728   6.695
 4691POPC   C3A59417  37.696  24.017   6.986
 4691POPC   C4A59418  37.813  24.224   7.375
 4691POPC   C1B59419  37.998  23.553   6.081
 4691POPC   C2B59420  38.086  23.421   6.502
 4691POPC   C3B59421  37.901  23.385   6.887
 4691POPC   C4B59422  37.949  23.637   7.249
 4692POPC   NC359423  16.820  31.917   5.478
 4692POPC   PO459424  16.430  32.516   5.536
 4692POPC   GL159425  16.606  32.243   5.812
 4692POPC   GL259426  16.960  32.274   5.848
 4692POPC   C1A59427  16.637  32.022   6.194
 4692POPC   D2A59428  16.810  31.903   6.578
 4692POPC   C3A59429  16.745  32.146   6.937
 4692POPC   C4A59430  17.061  32.136   7.235
 4692POPC   C1B59431  16.807  32.515   6.189
 4692POPC   C2B59432  16.582  32.431   6.540
 4692POPC   C3B59433  16.529  32.689   6.888
 4692POPC   C4B59434  16.544  32.517   7.267
 4693POPC   NC359435  17.631  28.726   5.350
 4693POPC   PO459436  17.516  29.397   5.344
 4693POPC   GL159437  17.514  29.131   5.687
 4693POPC   GL259438  17.409  29.393   5.897
 4693POPC   C1A59439  17.594  28.937   6.083
 4693POPC   D2A59440  17.755  28.851   6.491
 4693POPC   C3A59441  17.773  29.177   6.812
 4693POPC   C4A59442  17.566  29.121   7.198
 4693POPC   C1B59443  17.274  29.618   6.240
 4693POPC   C2B59444  17.395  29.715   6.625
 4693POPC   C3B59445  17.361  29.540   6.998
 4693POPC   C4B59446  17.686  29.612   7.240
 4694POPC   NC359447  42.603  36.266   5.415
 4694POPC   PO459448  42.087  35.841   5.365
 4694POPC   GL159449  42.300  36.014   5.779
 4694POPC   GL259450  42.512  36.281   5.927
 4694POPC   C1A59451  42.453  35.869   6.212
 4694POPC   D2A59452  42.286  36.004   6.613
 4694POPC   C3A59453  42.489  35.855   6.967
 4694POPC   C4A59454  42.457  36.069   7.344
 4694POPC   C1B59455  42.534  36.453   6.357
 4694POPC   C2B59456  42.249  36.633   6.684
 4694POPC   C3B59457  42.193  36.535   7.132
 4694POPC   C4B59458  42.357  36.583   7.570
 4695POPC   NC359459  30.209  22.286   5.571
 4695POPC   PO459460  30.751  22.225   5.248
 4695POPC   GL159461  30.869  22.030   5.698
 4695POPC   GL259462  30.563  21.977   5.922
 4695POPC   C1A59463  31.009  22.046   6.159
 4695POPC   D2A59464  30.784  21.931   6.540
 4695POPC   C3A59465  30.837  22.153   6.907
 4695POPC   C4A59466  30.575  22.264   7.235
 4695POPC   C1B59467  30.418  21.676   6.257
 4695POPC   C2B59468  30.413  21.571   6.701
 4695POPC   C3B59469  30.332  21.755   7.123
 4695POPC   C4B59470  30.279  21.788   7.578
 4696POPC   NC359471  16.525   9.940   5.483
 4696POPC   PO459472  17.156   9.799   5.214
 4696POPC   GL159473  16.955   9.722   5.678
 4696POPC   GL259474  16.813   9.996   5.903
 4696POPC   C1A59475  16.876   9.540   6.113
 4696POPC   D2A59476  16.677   9.451   6.520
 4696POPC   C3A59477  16.868   9.523   6.881
 4696POPC   C4A59478  16.912   9.787   7.215
 4696POPC   C1B59479  16.782  10.087   6.341
 4696POPC   C2B59480  16.588   9.964   6.738
 4696POPC   C3B59481  16.436   9.753   7.111
 4696POPC   C4B59482  16.538   9.934   7.525
 4697POPC   NC359483  31.636   8.188   5.442
 4697POPC   PO459484  31.102   7.851   5.476
 4697POPC   GL159485  31.334   7.983   5.835
 4697POPC   GL259486  31.410   8.339   5.891
 4697POPC   C1A59487  31.576   7.989   6.221
 4697POPC   D2A59488  31.544   8.302   6.508
 4697POPC   C3A59489  31.648   8.109   6.885
 4697POPC   C4A59490  31.796   7.925   7.245
 4697POPC   C1B59491  31.855   8.412   6.088
 4697POPC   C2B59492  31.950   8.626   6.488
 4697POPC   C3B59493  31.712   8.633   6.870
 4697POPC   C4B59494  31.701   8.444   7.274
 4698POPC   NC359495  42.802  27.800   5.329
 4698POPC   PO459496  43.347  27.493   5.621
 4698POPC   GL159497  43.170  27.763   5.937
 4698POPC   GL259498  43.517  27.900   5.871
 4698POPC   C1A59499  43.078  27.657   6.408
 4698POPC   D2A59500  43.194  27.283   6.691
 4698POPC   C3A59501  43.174  27.439   7.125
 4698POPC   C4A59502  43.026  27.894   7.124
 4698POPC   C1B59503  43.556  27.720   6.294
 4698POPC   C2B59504  43.472  27.739   6.758
 4698POPC   C3B59505  43.518  27.817   7.195
 4698POPC   C4B59506  43.459  28.136   7.395
 4699POPC   NC359507  43.784   4.318   5.386
 4699POPC   PO459508  44.252   3.874   5.529
 4699POPC   GL159509  44.134   4.290   5.784
 4699POPC   GL259510  43.790   4.486   5.854
 4699POPC   C1A59511  44.144   4.439   6.223
 4699POPC   D2A59512  43.908   4.305   6.593
 4699POPC   C3A59513  44.001   4.471   6.980
 4699POPC   C4A59514  44.090   4.340   7.426
 4699POPC   C1B59515  43.575   4.301   6.195
 4699POPC   C2B59516  43.415   4.423   6.593
 4699POPC   C3B59517  43.534   4.264   6.945
 4699POPC   C4B59518  43.577   4.381   7.297
 4700POPC   NC359519  41.907  11.582   5.233
 4700POPC   PO459520  42.281  10.991   5.338
 4700POPC   GL159521  42.488  11.203   5.735
 4700POPC   GL259522  42.268  11.459   5.912
 4700POPC   C1A59523  42.534  11.158   6.193
 4700POPC   D2A59524  42.351  11.036   6.568
 4700POPC   C3A59525  42.537  11.232   6.937
 4700POPC   C4A59526  42.371  11.554   7.209
 4700POPC   C1B59527  42.021  11.210   6.220
 4700POPC   C2B59528  41.894  11.291   6.627
 4700POPC   C3B59529  42.036  11.136   7.003
 4700POPC   C4B59530  41.967  11.082   7.409
 4701POPC   NC359531  21.981  30.799   5.419
 4701POPC   PO459532  22.614  30.505   5.347
 4701POPC   GL159533  22.298  30.538   5.712
 4701POPC   GL259534  22.405  30.395   5.983
 4701POPC   C1A59535  21.960  30.641   6.075
 4701POPC   D2A59536  22.042  30.550   6.529
 4701POPC   C3A59537  22.032  30.805   6.910
 4701POPC   C4A59538  21.993  30.494   7.222
 4701POPC   C1B59539  22.415  30.809   6.200
 4701POPC   C2B59540  22.501  30.742   6.581
 4701POPC   C3B59541  22.488  30.622   6.940
 4701POPC   C4B59542  22.682  30.793   7.247
 4702POPC   NC359543  17.739  27.193   5.586
 4702POPC   PO459544  17.293  26.740   5.427
 4702POPC   GL159545  17.544  26.762   5.784
 4702POPC   GL259546  17.402  27.048   5.955
 4702POPC   C1A59547  17.648  26.624   6.174
 4702POPC   D2A59548  17.668  26.691   6.593
 4702POPC   C3A59549  17.343  26.899   6.794
 4702POPC   C4A59550  17.539  26.737   7.152
 4702POPC   C1B59551  17.711  27.138   6.298
 4702POPC   C2B59552  17.732  27.258   6.750
 4702POPC   C3B59553  17.793  27.300   7.230
 4702POPC   C4B59554  17.890  27.380   7.700
 4703POPC   NC359555  39.029   9.539   5.484
 4703POPC   PO459556  39.386  10.146   5.550
 4703POPC   GL159557  39.379   9.842   5.867
 4703POPC   GL259558  39.560   9.521   5.817
 4703POPC   C1A59559  39.405   9.853   6.304
 4703POPC   D2A59560  39.078   9.747   6.606
 4703POPC   C3A59561  39.250   9.853   6.994
 4703POPC   C4A59562  39.035  10.192   7.155
 4703POPC   C1B59563  39.268   9.386   6.167
 4703POPC   C2B59564  39.440   9.422   6.592
 4703POPC   C3B59565  39.156   9.342   6.929
 4703POPC   C4B59566  39.169   9.495   7.343
 4704POPC   NC359567  33.136  27.023   5.352
 4704POPC   PO459568  32.982  26.368   5.455
 4704POPC   GL159569  32.933  26.691   5.767
 4704POPC   GL259570  33.292  26.727   5.749
 4704POPC   C1A59571  32.990  26.687   6.261
 4704POPC   D2A59572  33.283  26.577   6.647
 4704POPC   C3A59573  33.032  26.465   7.044
 4704POPC   C4A59574  32.685  26.743   7.220
 4704POPC   C1B59575  33.229  27.065   6.029
 4704POPC   C2B59576  33.255  27.087   6.485
 4704POPC   C3B59577  33.021  26.959   6.866
 4704POPC   C4B59578  33.181  26.882   7.273
 4705POPC   NC359579  17.241  14.261   5.383
 4705POPC   PO459580  17.590  14.811   5.055
 4705POPC   GL159581  17.519  14.677   5.590
 4705POPC   GL259582  17.559  14.292   5.767
 4705POPC   C1A59583  17.632  14.659   6.086
 4705POPC   D2A59584  17.452  14.646   6.522
 4705POPC   C3A59585  17.676  14.571   6.942
 4705POPC   C4A59586  17.447  14.708   7.277
 4705POPC   C1B59587  17.427  14.187   6.226
 4705POPC   C2B59588  17.518  14.142   6.702
 4705POPC   C3B59589  17.547  14.134   7.193
 4705POPC   C4B59590  17.403  13.884   7.584
 4706POPC   NC359591  29.304   6.883   5.774
 4706POPC   PO459592  29.209   6.289   5.462
 4706POPC   GL159593  29.117   6.332   5.876
 4706POPC   GL259594  28.854   6.553   5.819
 4706POPC   C1A59595  29.237   6.411   6.289
 4706POPC   D2A59596  29.271   6.718   6.589
 4706POPC   C3A59597  29.243   6.507   6.963
 4706POPC   C4A59598  28.932   6.487   7.266
 4706POPC   C1B59599  28.864   6.746   6.226
 4706POPC   C2B59600  28.771   6.860   6.594
 4706POPC   C3B59601  28.936   6.918   6.964
 4706POPC   C4B59602  28.880   6.986   7.392
 4707POPC   NC359603  41.069  18.930   5.445
 4707POPC   PO459604  40.393  18.862   5.536
 4707POPC   GL159605  40.616  18.884   5.920
 4707POPC   GL259606  40.788  19.145   5.801
 4707POPC   C1A59607  40.586  19.224   6.259
 4707POPC   D2A59608  40.732  19.331   6.650
 4707POPC   C3A59609  40.881  18.904   6.807
 4707POPC   C4A59610  40.810  18.761   7.203
 4707POPC   C1B59611  41.100  19.181   6.129
 4707POPC   C2B59612  41.232  19.202   6.574
 4707POPC   C3B59613  41.061  19.304   7.041
 4707POPC   C4B59614  40.741  19.438   7.294
 4708POPC   NC359615  21.801   6.228   5.197
 4708POPC   PO459616  22.324   5.793   5.281
 4708POPC   GL159617  22.426   5.826   5.720
 4708POPC   GL259618  22.097   5.980   5.787
 4708POPC   C1A59619  22.523   6.108   6.109
 4708POPC   D2A59620  22.727   6.112   6.521
 4708POPC   C3A59621  22.556   6.094   6.935
 4708POPC   C4A59622  22.457   6.186   7.339
 4708POPC   C1B59623  22.142   5.782   6.185
 4708POPC   C2B59624  22.229   5.994   6.552
 4708POPC   C3B59625  22.028   6.205   6.886
 4708POPC   C4B59626  21.966   6.035   7.291
 4709POPC   NC359627  22.154   0.824   5.174
 4709POPC   PO459628  22.073   0.199   5.488
 4709POPC   GL159629  22.117   0.426   5.842
 4709POPC   GL259630  22.076   0.749   5.777
 4709POPC   C1A59631  22.103   0.335   6.262
 4709POPC   D2A59632  21.915   0.212   6.636
 4709POPC   C3A59633  22.103   0.353   7.020
 4709POPC   C4A59634  22.447   0.291   7.303
 4709POPC   C1B59635  21.855   0.775   6.181
 4709POPC   C2B59636  21.976   0.708   6.631
 4709POPC   C3B59637  21.963   0.885   7.030
 4709POPC   C4B59638  22.146   0.743   7.421
 4710POPC   NC359639  16.284   6.408   5.418
 4710POPC   PO459640  15.750   6.808   5.426
 4710POPC   GL159641  15.906   6.584   5.762
 4710POPC   GL259642  16.168   6.787   5.829
 4710POPC   C1A59643  15.912   6.617   6.230
 4710POPC   D2A59644  15.972   6.849   6.591
 4710POPC   C3A59645  15.997   6.610   6.938
 4710POPC   C4A59646  15.846   6.523   7.353
 4710POPC   C1B59647  16.210   7.107   6.153
 4710POPC   C2B59648  16.399   7.158   6.538
 4710POPC   C3B59649  16.289   7.061   6.945
 4710POPC   C4B59650  16.046   6.986   7.293
 4711POPC   NC359651  13.096  11.926   5.528
 4711POPC   PO459652  12.642  12.459   5.519
 4711POPC   GL159653  12.942  12.335   5.831
 4711POPC   GL259654  13.167  12.581   5.958
 4711POPC   C1A59655  12.842  12.280   6.271
 4711POPC   D2A59656  12.627  12.173   6.647
 4711POPC   C3A59657  12.823  11.933   7.017
 4711POPC   C4A59658  12.683  11.910   7.480
 4711POPC   C1B59659  13.349  12.352   6.290
 4711POPC   C2B59660  13.200  12.162   6.652
 4711POPC   C3B59661  12.984  12.428   6.928
 4711POPC   C4B59662  12.951  12.316   7.345
 4712POPC   NC359663   2.793  32.783   5.146
 4712POPC   PO459664   2.484  33.231   5.541
 4712POPC   GL159665   2.702  33.065   5.844
 4712POPC   GL259666   2.526  32.727   5.837
 4712POPC   C1A59667   3.039  33.112   6.153
 4712POPC   D2A59668   3.118  32.858   6.510
 4712POPC   C3A59669   3.220  32.956   6.908
 4712POPC   C4A59670   2.999  32.958   7.291
 4712POPC   C1B59671   2.634  32.816   6.282
 4712POPC   C2B59672   2.546  32.868   6.725
 4712POPC   C3B59673   2.521  33.104   7.104
 4712POPC   C4B59674   2.600  33.127   7.541
 4713POPC   NC359675  41.215  27.813   5.301
 4713POPC   PO459676  41.771  27.480   5.372
 4713POPC   GL159677  41.665  27.384   5.837
 4713POPC   GL259678  41.350  27.537   5.760
 4713POPC   C1A59679  41.553  27.482   6.322
 4713POPC   D2A59680  41.501  27.769   6.720
 4713POPC   C3A59681  41.783  27.607   7.063
 4713POPC   C4A59682  41.829  27.452   7.532
 4713POPC   C1B59683  41.145  27.284   6.062
 4713POPC   C2B59684  41.111  27.210   6.511
 4713POPC   C3B59685  41.268  27.343   6.924
 4713POPC   C4B59686  41.082  27.303   7.349
 4714POPC   NC359687   7.922  11.170   5.532
 4714POPC   PO459688   8.554  11.393   5.497
 4714POPC   GL159689   8.325  11.242   5.820
 4714POPC   GL259690   8.436  10.921   5.930
 4714POPC   C1A59691   8.103  11.269   6.215
 4714POPC   D2A59692   7.912  11.288   6.610
 4714POPC   C3A59693   8.061  11.002   6.885
 4714POPC   C4A59694   8.222  11.262   7.169
 4714POPC   C1B59695   8.616  11.216   6.217
 4714POPC   C2B59696   8.475  11.313   6.613
 4714POPC   C3B59697   8.576  11.039   6.891
 4714POPC   C4B59698   8.701  11.097   7.257
 4715POPC   NC359699   1.839  40.295   5.371
 4715POPC   PO459700   2.207  39.732   5.422
 4715POPC   GL159701   2.109  39.967   5.816
 4715POPC   GL259702   1.767  40.145   5.855
 4715POPC   C1A59703   2.107  39.887   6.262
 4715POPC   D2A59704   2.057  40.167   6.587
 4715POPC   C3A59705   2.183  40.044   6.965
 4715POPC   C4A59706   1.899  40.104   7.278
 4715POPC   C1B59707   1.602  39.817   6.119
 4715POPC   C2B59708   1.596  39.777   6.562
 4715POPC   C3B59709   1.747  39.707   6.971
 4715POPC   C4B59710   1.459  39.807   7.292
 4716POPC   NC359711  17.922  14.921   5.357
 4716POPC   PO459712  18.468  15.345   5.368
 4716POPC   GL159713  18.369  15.290   5.807
 4716POPC   GL259714  18.318  14.983   5.799
 4716POPC   C1A59715  18.367  15.473   6.211
 4716POPC   D2A59716  18.180  15.385   6.575
 4716POPC   C3A59717  18.351  15.500   6.924
 4716POPC   C4A59718  18.327  15.284   7.257
 4716POPC   C1B59719  18.182  14.978   6.226
 4716POPC   C2B59720  18.272  14.888   6.645
 4716POPC   C3B59721  18.151  14.840   7.062
 4716POPC   C4B59722  18.440  14.588   7.299
 4717POPC   NC359723  28.979   5.096   5.437
 4717POPC   PO459724  29.713   4.905   5.355
 4717POPC   GL159725  29.360   4.871   5.711
 4717POPC   GL259726  28.983   4.821   5.854
 4717POPC   C1A59727  29.287   5.145   6.086
 4717POPC   D2A59728  29.269   4.967   6.487
 4717POPC   C3A59729  29.132   5.039   6.899
 4717POPC   C4A59730  29.433   5.048   7.195
 4717POPC   C1B59731  28.861   4.678   6.228
 4717POPC   C2B59732  28.761   4.875   6.586
 4717POPC   C3B59733  28.673   4.781   6.974
 4717POPC   C4B59734  28.969   4.672   7.237
 4718POPC   NC359735   7.228   3.561   5.338
 4718POPC   PO459736   7.640   3.839   5.609
 4718POPC   GL159737   7.512   3.449   5.864
 4718POPC   GL259738   7.130   3.452   5.838
 4718POPC   C1A59739   7.712   3.345   6.299
 4718POPC   D2A59740   7.517   3.539   6.703
 4718POPC   C3A59741   7.719   3.515   7.131
 4718POPC   C4A59742   7.549   3.472   7.567
 4718POPC   C1B59743   7.211   3.326   6.276
 4718POPC   C2B59744   7.393   3.049   6.603
 4718POPC   C3B59745   7.319   3.193   7.029
 4718POPC   C4B59746   7.203   3.596   7.206
 4719POPC   NC359747   0.824  39.880   5.433
 4719POPC   PO459748   1.390  40.244   5.420
 4719POPC   GL159749   1.179  40.130   5.761
 4719POPC   GL259750   1.271  39.789   5.703
 4719POPC   C1A59751   1.237  40.155   6.212
 4719POPC   D2A59752   1.583  40.284   6.437
 4719POPC   C3A59753   1.569  40.209   6.884
 4719POPC   C4A59754   1.231  40.304   7.194
 4719POPC   C1B59755   1.012  39.733   6.054
 4719POPC   C2B59756   1.092  39.701   6.477
 4719POPC   C3B59757   1.136  39.901   6.869
 4719POPC   C4B59758   0.879  39.718   7.210
 4720POPC   NC359759  38.614  14.807   5.297
 4720POPC   PO459760  38.327  14.204   5.513
 4720POPC   GL159761  38.319  14.366   5.859
 4720POPC   GL259762  38.567  14.639   5.813
 4720POPC   C1A59763  38.168  14.191   6.253
 4720POPC   D2A59764  38.432  14.089   6.586
 4720POPC   C3A59765  38.232  14.105   6.970
 4720POPC   C4A59766  38.367  14.123   7.399
 4720POPC   C1B59767  38.613  14.458   6.236
 4720POPC   C2B59768  38.762  14.541   6.602
 4720POPC   C3B59769  38.620  14.422   6.980
 4720POPC   C4B59770  38.554  14.597   7.393
 4721POPC   NC359771   7.138  44.927   5.496
 4721POPC   PO459772   7.258  44.302   5.289
 4721POPC   GL159773   7.367  44.509   5.754
 4721POPC   GL259774   7.586  44.840   5.735
 4721POPC   C1A59775   7.596  44.613   6.196
 4721POPC   D2A59776   7.788  44.484   6.608
 4721POPC   C3A59777   7.582  44.598   6.997
 4721POPC   C4A59778   7.260  44.504   7.289
 4721POPC   C1B59779   7.398   0.065   6.107
 4721POPC   C2B59780   7.418  44.995   6.575
 4721POPC   C3B59781   7.271  44.990   7.032
 4721POPC   C4B59782   7.488  44.939   7.443
 4722POPC   NC359783   6.896  28.857   5.443
 4722POPC   PO459784   6.662  29.560   5.402
 4722POPC   GL159785   6.496  29.331   5.748
 4722POPC   GL259786   6.792  29.186   5.844
 4722POPC   C1A59787   6.388  29.162   6.159
 4722POPC   D2A59788   6.472  29.340   6.551
 4722POPC   C3A59789   6.417  29.203   6.935
 4722POPC   C4A59790   6.455  29.339   7.332
 4722POPC   C1B59791   6.896  29.263   6.298
 4722POPC   C2B59792   6.922  29.185   6.759
 4722POPC   C3B59793   6.872  29.062   7.199
 4722POPC   C4B59794   6.890  28.760   7.575
 4723POPC   NC359795  17.057  27.915   5.460
 4723POPC   PO459796  17.682  27.652   5.561
 4723POPC   GL159797  17.566  27.578   5.929
 4723POPC   GL259798  17.802  27.879   6.015
 4723POPC   C1A59799  17.298  27.448   6.275
 4723POPC   D2A59800  17.335  27.630   6.672
 4723POPC   C3A59801  17.328  27.390   7.030
 4723POPC   C4A59802  17.312  27.728   7.272
 4723POPC   C1B59803  17.768  27.648   6.372
 4723POPC   C2B59804  17.883  27.753   6.680
 4723POPC   C3B59805  17.754  27.819   7.024
 4723POPC   C4B59806  17.933  27.791   7.399
 4724POPC   NC359807  41.308  25.479   5.509
 4724POPC   PO459808  41.720  25.014   5.525
 4724POPC   GL159809  41.639  25.273   5.850
 4724POPC   GL259810  41.350  25.226   5.958
 4724POPC   C1A59811  41.765  25.505   6.197
 4724POPC   D2A59812  41.967  25.432   6.615
 4724POPC   C3A59813  41.652  25.387   6.942
 4724POPC   C4A59814  41.761  25.303   7.394
 4724POPC   C1B59815  41.145  25.536   6.187
 4724POPC   C2B59816  41.115  25.756   6.586
 4724POPC   C3B59817  41.076  25.579   7.013
 4724POPC   C4B59818  41.265  25.264   7.293
 4725POPC   NC359819  28.584  37.957   5.183
 4725POPC   PO459820  28.179  38.404   5.480
 4725POPC   GL159821  28.118  38.390   5.919
 4725POPC   GL259822  28.487  38.328   6.005
 4725POPC   C1A59823  28.161  38.502   6.371
 4725POPC   D2A59824  28.474  38.544   6.652
 4725POPC   C3A59825  28.500  38.296   7.001
 4725POPC   C4A59826  28.100  38.443   7.076
 4725POPC   C1B59827  28.613  38.748   6.175
 4725POPC   C2B59828  28.801  38.934   6.577
 4725POPC   C3B59829  28.619  38.841   7.024
 4725POPC   C4B59830  28.437  38.655   7.377
 4726POPC   NC359831  21.684  28.713   5.370
 4726POPC   PO459832  21.182  28.252   5.383
 4726POPC   GL159833  21.199  28.476   5.783
 4726POPC   GL259834  21.150  28.829   5.735
 4726POPC   C1A59835  21.267  28.322   6.220
 4726POPC   D2A59836  21.458  28.094   6.610
 4726POPC   C3A59837  21.368  28.035   7.069
 4726POPC   C4A59838  21.612  28.047   7.455
 4726POPC   C1B59839  21.162  28.848   6.217
 4726POPC   C2B59840  21.240  28.603   6.636
 4726POPC   C3B59841  21.146  28.486   7.049
 4726POPC   C4B59842  21.342  28.581   7.452
 4727POPC   NC359843  39.503  24.214   5.513
 4727POPC   PO459844  39.006  24.622   5.380
 4727POPC   GL159845  39.279  24.639   5.727
 4727POPC   GL259846  39.054  24.358   5.839
 4727POPC   C1A59847  39.466  24.432   6.131
 4727POPC   D2A59848  39.185  24.296   6.454
 4727POPC   C3A59849  39.375  24.093   6.775
 4727POPC   C4A59850  39.478  24.391   7.098
 4727POPC   C1B59851  39.005  24.666   6.153
 4727POPC   C2B59852  38.799  24.660   6.536
 4727POPC   C3B59853  38.983  24.524   6.927
 4727POPC   C4B59854  38.932  24.818   7.251
 4728POPC   NC359855  25.851   7.524   5.463
 4728POPC   PO459856  25.616   6.952   5.804
 4728POPC   GL159857  25.853   7.344   5.970
 4728POPC   GL259858  26.190   7.474   5.849
 4728POPC   C1A59859  26.137   7.407   6.352
 4728POPC   D2A59860  26.319   7.221   6.716
 4728POPC   C3A59861  25.984   7.307   6.996
 4728POPC   C4A59862  25.924   7.535   7.357
 4728POPC   C1B59863  26.418   7.775   6.129
 4728POPC   C2B59864  26.292   7.940   6.557
 4728POPC   C3B59865  26.288   7.748   6.981
 4728POPC   C4B59866  26.426   7.645   7.417
 4729POPC   NC359867  23.688  29.326   5.455
 4729POPC   PO459868  24.077  28.775   5.499
 4729POPC   GL159869  23.854  29.045   5.848
 4729POPC   GL259870  24.034  29.171   6.153
 4729POPC   C1A59871  23.600  29.379   6.119
 4729POPC   D2A59872  23.449  29.298   6.560
 4729POPC   C3A59873  23.658  29.167   6.893
 4729POPC   C4A59874  24.011  29.126   7.088
 4729POPC   C1B59875  23.640  28.900   6.321
 4729POPC   C2B59876  23.586  28.687   6.763
 4729POPC   C3B59877  23.673  28.745   7.244
 4729POPC   C4B59878  23.595  28.798   7.709
 4730POPC   NC359879  17.006   6.418   5.518
 4730POPC   PO459880  16.475   6.846   5.419
 4730POPC   GL159881  16.658   6.698   5.753
 4730POPC   GL259882  16.563   6.369   5.833
 4730POPC   C1A59883  16.586   6.763   6.181
 4730POPC   D2A59884  16.396   6.583   6.517
 4730POPC   C3A59885  16.572   6.643   6.916
 4730POPC   C4A59886  16.351   6.558   7.291
 4730POPC   C1B59887  16.758   6.276   6.198
 4730POPC   C2B59888  16.947   6.545   6.506
 4730POPC   C3B59889  17.058   6.462   6.924
 4730POPC   C4B59890  16.780   6.299   7.267
 4731POPC   NC359891  27.249  13.791   5.437
 4731POPC   PO459892  27.853  13.524   5.367
 4731POPC   GL159893  27.608  13.548   5.767
 4731POPC   GL259894  27.353  13.249   5.809
 4731POPC   C1A59895  27.779  13.754   6.154
 4731POPC   D2A59896  27.921  13.604   6.547
 4731POPC   C3A59897  27.673  13.666   6.913
 4731POPC   C4A59898  27.723  13.959   7.233
 4731POPC   C1B59899  27.587  13.269   6.236
 4731POPC   C2B59900  27.728  13.137   6.686
 4731POPC   C3B59901  27.782  13.213   7.112
 4731POPC   C4B59902  27.470  13.365   7.397
 4732POPC   NC359903  21.075  15.743   5.583
 4732POPC   PO459904  21.543  16.161   5.458
 4732POPC   GL159905  21.413  16.050   5.857
 4732POPC   GL259906  21.167  16.259   5.952
 4732POPC   C1A59907  21.495  16.057   6.310
 4732POPC   D2A59908  21.222  16.128   6.658
 4732POPC   C3A59909  21.427  16.036   7.051
 4732POPC   C4A59910  21.653  15.694   7.303
 4732POPC   C1B59911  21.011  15.878   6.234
 4732POPC   C2B59912  20.917  15.709   6.660
 4732POPC   C3B59913  21.032  15.702   7.094
 4732POPC   C4B59914  20.853  15.606   7.488
 4733POPC   NC359915  24.476  25.381   5.267
 4733POPC   PO459916  24.041  24.976   5.612
 4733POPC   GL159917  24.520  24.996   5.707
 4733POPC   GL259918  24.697  25.333   5.772
 4733POPC   C1A59919  24.745  24.931   6.126
 4733POPC   D2A59920  24.855  25.065   6.588
 4733POPC   C3A59921  24.518  25.091   6.934
 4733POPC   C4A59922  24.104  25.107   7.145
 4733POPC   C1B59923  24.874  25.448   6.230
 4733POPC   C2B59924  24.766  25.544   6.711
 4733POPC   C3B59925  24.730  25.601   7.165
 4733POPC   C4B59926  24.631  25.758   7.581
 4734POPC   NC359927  18.915   8.516   5.279
 4734POPC   PO459928  19.566   8.190   5.399
 4734POPC   GL159929  19.270   8.227   5.759
 4734POPC   GL259930  18.927   8.025   5.767
 4734POPC   C1A59931  19.129   8.261   6.199
 4734POPC   D2A59932  19.245   8.195   6.619
 4734POPC   C3A59933  19.010   8.050   6.953
 4734POPC   C4A59934  19.224   8.137   7.294
 4734POPC   C1B59935  18.667   8.094   6.165
 4734POPC   C2B59936  18.709   8.270   6.586
 4734POPC   C3B59937  18.708   8.454   7.002
 4734POPC   C4B59938  18.714   8.193   7.398
 4735POPC   NC359939  21.770   7.868   5.404
 4735POPC   PO459940  21.065   7.757   5.359
 4735POPC   GL159941  21.353   8.018   5.724
 4735POPC   GL259942  21.204   8.339   5.859
 4735POPC   C1A59943  21.574   8.201   6.154
 4735POPC   D2A59944  21.508   8.079   6.588
 4735POPC   C3A59945  21.580   8.297   6.964
 4735POPC   C4A59946  21.460   8.171   7.371
 4735POPC   C1B59947  20.960   8.529   6.153
 4735POPC   C2B59948  21.126   8.567   6.559
 4735POPC   C3B59949  21.034   8.421   6.965
 4735POPC   C4B59950  21.155   8.568   7.338
 4736POPC   NC359951  12.591  37.679   5.459
 4736POPC   PO459952  13.175  37.933   5.389
 4736POPC   GL159953  13.053  37.650   5.802
 4736POPC   GL259954  12.704  37.463   5.899
 4736POPC   C1A59955  13.015  37.498   6.283
 4736POPC   D2A59956  12.738  37.622   6.640
 4736POPC   C3A59957  12.890  37.603   7.055
 4736POPC   C4A59958  13.013  37.218   7.246
 4736POPC   C1B59959  12.438  37.700   6.215
 4736POPC   C2B59960  12.361  37.945   6.604
 4736POPC   C3B59961  12.391  37.764   7.035
 4736POPC   C4B59962  12.570  37.873   7.420
 4737POPC   NC359963   4.801   1.152   5.531
 4737POPC   PO459964   5.415   1.482   5.461
 4737POPC   GL159965   5.269   1.180   5.819
 4737POPC   GL259966   4.946   1.249   5.990
 4737POPC   C1A59967   5.337   1.135   6.292
 4737POPC   D2A59968   5.088   1.309   6.653
 4737POPC   C3A59969   5.289   1.287   7.055
 4737POPC   C4A59970   5.490   0.911   7.189
 4737POPC   C1B59971   4.871   0.897   6.252
 4737POPC   C2B59972   4.719   0.931   6.656
 4737POPC   C3B59973   4.781   1.107   7.036
 4737POPC   C4B59974   4.983   0.792   7.200
 4738POPC   NC359975  36.543   6.889   5.570
 4738POPC   PO459976  36.576   7.535   5.346
 4738POPC   GL159977  36.776   7.596   5.766
 4738POPC   GL259978  37.136   7.677   5.783
 4738POPC   C1A59979  36.784   7.327   6.137
 4738POPC   D2A59980  36.945   7.142   6.509
 4738POPC   C3A59981  36.670   7.251   6.828
 4738POPC   C4A59982  36.727   7.159   7.220
 4738POPC   C1B59983  37.060   7.749   6.223
 4738POPC   C2B59984  37.168   7.601   6.611
 4738POPC   C3B59985  37.136   7.384   7.002
 4738POPC   C4B59986  37.215   7.634   7.343
 4739POPC   NC359987  35.065   1.203   5.420
 4739POPC   PO459988  34.386   1.212   5.240
 4739POPC   GL159989  34.587   1.186   5.653
 4739POPC   GL259990  34.276   1.291   5.816
 4739POPC   C1A59991  34.654   1.104   6.112
 4739POPC   D2A59992  34.453   1.251   6.490
 4739POPC   C3A59993  34.670   1.215   6.879
 4739POPC   C4A59994  34.576   0.874   7.133
 4739POPC   C1B59995  34.068   1.477   6.178
 4739POPC   C2B59996  34.111   1.613   6.604
 4739POPC   C3B59997  34.165   1.351   6.938
 4739POPC   C4B59998  34.359   1.353   7.311
 4740POPC   NC359999  19.318  10.892   5.238
 4740POPC   PO460000  19.186  10.245   5.403
 4740POPC   GL160001  18.941  10.431   5.737
 4740POPC   GL260002  18.931  10.822   5.775
 4740POPC   C1A60003  18.962  10.299   6.165
 4740POPC   D2A60004  19.202  10.200   6.530
 4740POPC   C3A60005  18.972  10.241   6.933
 4740POPC   C4A60006  18.953  10.226   7.407
 4740POPC   C1B60007  19.194  10.763   6.162
 4740POPC   C2B60008  19.120  10.703   6.617
 4740POPC   C3B60009  19.215  10.835   7.051
 4740POPC   C4B60010  19.132  10.723   7.460
 4741POPC   NC360011  22.211   4.366   5.407
 4741POPC   PO460012  21.625   4.278   5.348
 4741POPC   GL160013  21.854   4.174   5.724
 4741POPC   GL260014  22.119   3.954   5.704
 4741POPC   C1A60015  21.920   4.522   6.059
 4741POPC   D2A60016  22.042   4.437   6.511
 4741POPC   C3A60017  22.085   4.559   6.959
 4741POPC   C4A60018  22.408   4.389   7.231
 4741POPC   C1B60019  22.164   4.086   6.129
 4741POPC   C2B60020  21.992   3.919   6.506
 4741POPC   C3B60021  22.016   4.032   6.941
 4741POPC   C4B60022  21.915   4.139   7.362
 4742POPC   NC360023   4.138  21.823   5.095
 4742POPC   PO460024   4.174  22.365   5.475
 4742POPC   GL160025   4.168  22.249   5.908
 4742POPC   GL260026   3.847  22.145   5.934
 4742POPC   C1A60027   4.444  22.032   6.230
 4742POPC   D2A60028   4.342  21.758   6.579
 4742POPC   C3A60029   4.493  21.922   6.953
 4742POPC   C4A60030   4.509  21.766   7.359
 4742POPC   C1B60031   3.943  22.002   6.324
 4742POPC   C2B60032   3.802  21.841   6.686
 4742POPC   C3B60033   3.907  22.067   7.042
 4742POPC   C4B60034   4.243  22.277   7.258
 4743POPC   NC360035  44.228  31.536   5.460
 4743POPC   PO460036  44.770  31.235   5.599
 4743POPC   GL160037  44.637  31.640   5.799
 4743POPC   GL260038  44.989  31.739   5.778
 4743POPC   C1A60039  44.473  31.829   6.218
 4743POPC   D2A60040  44.481  31.638   6.636
 4743POPC   C3A60041  44.365  31.795   7.033
 4743POPC   C4A60042  44.487  31.477   7.364
 4743POPC   C1B60043  44.952  31.604   6.207
 4743POPC   C2B60044  44.981  31.758   6.633
 4743POPC   C3B60045  44.886  31.593   7.036
 4743POPC   C4B60046   0.094  31.307   7.323
 4744POPC   NC360047  24.374  19.655   5.010
 4744POPC   PO460048  24.637  20.137   5.396
 4744POPC   GL160049  24.696  19.970   5.790
 4744POPC   GL260050  24.360  19.959   5.879
 4744POPC   C1A60051  24.672  19.687   6.167
 4744POPC   D2A60052  24.626  19.787   6.591
 4744POPC   C3A60053  24.422  19.563   6.908
 4744POPC   C4A60054  24.626  19.753   7.235
 4744POPC   C1B60055  24.206  19.969   6.289
 4744POPC   C2B60056  24.176  20.084   6.685
 4744POPC   C3B60057  24.466  20.136   6.956
 4744POPC   C4B60058  24.192  20.043   7.251
 4745POPC   NC360059  36.563  41.616   5.548
 4745POPC   PO460060  37.142  41.299   5.489
 4745POPC   GL160061  37.123  41.530   5.879
 4745POPC   GL260062  36.874  41.805   5.895
 4745POPC   C1A60063  36.861  41.533   6.294
 4745POPC   D2A60064  36.973  41.355   6.691
 4745POPC   C3A60065  36.681  41.190   6.980
 4745POPC   C4A60066  36.858  41.167   7.413
 4745POPC   C1B60067  37.208  41.927   6.162
 4745POPC   C2B60068  37.299  41.719   6.518
 4745POPC   C3B60069  37.196  41.784   6.896
 4745POPC   C4B60070  36.801  41.690   7.072
 4746POPC   NC360071   6.121  17.976   5.406
 4746POPC   PO460072   5.499  18.183   5.336
 4746POPC   GL160073   5.750  18.229   5.744
 4746POPC   GL260074   6.087  18.352   5.819
 4746POPC   C1A60075   5.662  18.101   6.182
 4746POPC   D2A60076   5.554  18.304   6.598
 4746POPC   C3A60077   5.519  18.110   7.008
 4746POPC   C4A60078   5.808  18.411   7.180
 4746POPC   C1B60079   6.136  18.255   6.268
 4746POPC   C2B60080   6.131  17.985   6.629
 4746POPC   C3B60081   6.228  18.068   7.069
 4746POPC   C4B60082   6.036  18.078   7.491
 4747POPC   NC360083  40.539   9.185   5.399
 4747POPC   PO460084  41.131   9.400   5.173
 4747POPC   GL160085  41.096   9.171   5.628
 4747POPC   GL260086  40.807   8.945   5.764
 4747POPC   C1A60087  41.164   9.100   6.102
 4747POPC   D2A60088  40.915   9.219   6.488
 4747POPC   C3A60089  41.033   9.054   6.901
 4747POPC   C4A60090  41.091   8.779   7.251
 4747POPC   C1B60091  40.551   9.009   6.174
 4747POPC   C2B60092  40.530   8.791   6.598
 4747POPC   C3B60093  40.606   8.800   7.068
 4747POPC   C4B60094  40.649   8.845   7.522
 4748POPC   NC360095  31.213  28.631   5.446
 4748POPC   PO460096  30.555  28.559   5.437
 4748POPC   GL160097  30.693  28.362   5.825
 4748POPC   GL260098  30.427  28.156   5.909
 4748POPC   C1A60099  30.859  28.230   6.248
 4748POPC   D2A60100  31.101  28.281   6.633
 4748POPC   C3A60101  30.797  28.204   6.980
 4748POPC   C4A60102  30.354  28.163   7.059
 4748POPC   C1B60103  30.361  28.445   6.234
 4748POPC   C2B60104  30.500  28.519   6.660
 4748POPC   C3B60105  30.375  28.694   7.065
 4748POPC   C4B60106  30.388  28.489   7.457
 4749POPC   NC360107  40.425  34.685   5.581
 4749POPC   PO460108  41.039  34.476   5.338
 4749POPC   GL160109  41.007  34.487   5.788
 4749POPC   GL260110  40.934  34.825   5.849
 4749POPC   C1A60111  40.815  34.425   6.228
 4749POPC   D2A60112  40.806  34.589   6.686
 4749POPC   C3A60113  40.829  34.398   7.108
 4749POPC   C4A60114  41.187  34.425   7.450
 4749POPC   C1B60115  40.812  34.932   6.278
 4749POPC   C2B60116  40.756  35.092   6.700
 4749POPC   C3B60117  40.524  34.861   7.034
 4749POPC   C4B60118  40.492  34.642   7.437
 4750POPC   NC360119  35.364   7.923   5.494
 4750POPC   PO460120  35.159   8.591   5.503
 4750POPC   GL160121  35.354   8.360   5.840
 4750POPC   GL260122  35.138   8.078   5.936
 4750POPC   C1A60123  35.513   8.280   6.268
 4750POPC   D2A60124  35.507   8.174   6.718
 4750POPC   C3A60125  35.414   8.428   7.067
 4750POPC   C4A60126  35.122   8.281   7.377
 4750POPC   C1B60127  35.439   7.770   6.131
 4750POPC   C2B60128  35.696   7.758   6.483
 4750POPC   C3B60129  35.538   7.675   6.876
 4750POPC   C4B60130  35.460   7.946   7.184
 4751POPC   NC360131   7.537   8.550   5.307
 4751POPC   PO460132   7.026   8.195   5.509
 4751POPC   GL160133   7.297   8.339   5.859
 4751POPC   GL260134   7.666   8.369   5.793
 4751POPC   C1A60135   7.442   8.264   6.299
 4751POPC   D2A60136   7.586   8.173   6.714
 4751POPC   C3A60137   7.260   8.365   6.943
 4751POPC   C4A60138   7.118   8.123   7.255
 4751POPC   C1B60139   7.816   8.568   6.159
 4751POPC   C2B60140   7.694   8.650   6.582
 4751POPC   C3B60141   7.912   8.513   6.969
 4751POPC   C4B60142   7.662   8.273   7.254
 4752POPC   NC360143   6.199  24.566   5.662
 4752POPC   PO460144   6.695  24.657   5.185
 4752POPC   GL160145   6.699  24.722   5.720
 4752POPC   GL260146   6.443  24.928   5.941
 4752POPC   C1A60147   6.663  24.534   6.207
 4752POPC   D2A60148   6.826  24.318   6.621
 4752POPC   C3A60149   6.926  24.438   7.078
 4752POPC   C4A60150   7.097  24.241   7.492
 4752POPC   C1B60151   6.380  24.936   6.384
 4752POPC   C2B60152   6.487  24.692   6.735
 4752POPC   C3B60153   6.596  24.824   7.129
 4752POPC   C4B60154   6.415  24.916   7.516
 4753POPC   NC360155  18.443  29.306   5.422
 4753POPC   PO460156  18.859  28.759   5.478
 4753POPC   GL160157  18.568  28.912   5.776
 4753POPC   GL260158  18.213  28.944   5.729
 4753POPC   C1A60159  18.480  29.217   6.114
 4753POPC   D2A60160  18.214  29.222   6.494
 4753POPC   C3A60161  18.384  29.202   6.910
 4753POPC   C4A60162  18.078  29.304   7.223
 4753POPC   C1B60163  18.162  28.815   6.168
 4753POPC   C2B60164  18.228  28.713   6.628
 4753POPC   C3B60165  18.073  28.815   7.045
 4753POPC   C4B60166  18.364  28.932   7.385
 4754POPC   NC360167  12.464  14.562   5.576
 4754POPC   PO460168  12.736  14.044   5.218
 4754POPC   GL160169  12.916  14.189   5.709
 4754POPC   GL260170  13.038  14.533   5.764
 4754POPC   C1A60171  12.800  14.144   6.182
 4754POPC   D2A60172  12.520  14.237   6.527
 4754POPC   C3A60173  12.672  14.160   6.930
 4754POPC   C4A60174  12.773  14.246   7.323
 4754POPC   C1B60175  12.769  14.649   6.136
 4754POPC   C2B60176  12.675  14.718   6.551
 4754POPC   C3B60177  12.816  14.653   6.940
 4754POPC   C4B60178  13.151  14.557   7.191
 4755POPC   NC360179  18.824  14.514   5.499
 4755POPC   PO460180  19.327  14.098   5.553
 4755POPC   GL160181  19.138  14.353   5.872
 4755POPC   GL260182  18.952  14.676   5.965
 4755POPC   C1A60183  18.982  14.281   6.268
 4755POPC   D2A60184  18.988  13.974   6.560
 4755POPC   C3A60185  19.208  14.055   6.908
 4755POPC   C4A60186  19.177  14.169   7.285
 4755POPC   C1B60187  18.594  14.629   6.301
 4755POPC   C2B60188  18.705  14.522   6.712
 4755POPC   C3B60189  18.914  14.558   7.105
 4755POPC   C4B60190  18.967  14.525   7.557
 4756POPC   NC360191  38.994  44.347   5.535
 4756POPC   PO460192  39.561  44.776   5.371
 4756POPC   GL160193  39.320  44.756   5.803
 4756POPC   GL260194  39.427  44.509   6.091
 4756POPC   C1A60195  39.131  44.904   6.198
 4756POPC   D2A60196  38.910  44.774   6.577
 4756POPC   C3A60197  39.072  44.938   6.968
 4756POPC   C4A60198  39.267   0.029   7.382
 4756POPC   C1B60199  38.996  44.384   6.211
 4756POPC   C2B60200  38.982  44.260   6.633
 4756POPC   C3B60201  39.216  44.446   6.967
 4756POPC   C4B60202  39.009  44.232   7.263
 4757POPC   NC360203  23.596  30.253   5.559
 4757POPC   PO460204  23.835  29.717   5.271
 4757POPC   GL160205  23.789  29.755   5.737
 4757POPC   GL260206  24.061  29.533   5.777
 4757POPC   C1A60207  23.611  29.922   6.168
 4757POPC   D2A60208  23.869  30.139   6.499
 4757POPC   C3A60209  23.699  30.148   6.915
 4757POPC   C4A60210  23.542  29.934   7.283
 4757POPC   C1B60211  24.061  29.699   6.187
 4757POPC   C2B60212  23.861  29.582   6.543
 4757POPC   C3B60213  23.831  29.632   6.965
 4757POPC   C4B60214  24.089  29.899   7.119
 4758POPC   NC360215  14.595   6.362   5.252
 4758POPC   PO460216  14.309   5.830   5.535
 4758POPC   GL160217  14.557   5.901   5.885
 4758POPC   GL260218  14.477   5.573   6.014
 4758POPC   C1A60219  14.700   5.934   6.335
 4758POPC   D2A60220  14.770   6.182   6.734
 4758POPC   C3A60221  14.568   6.012   7.096
 4758POPC   C4A60222  14.510   5.603   7.293
 4758POPC   C1B60223  14.143   5.865   6.188
 4758POPC   C2B60224  13.943   5.872   6.587
 4758POPC   C3B60225  14.077   5.779   7.000
 4758POPC   C4B60226  14.146   5.965   7.412
 4759POPC   NC360227   5.513   9.489   5.354
 4759POPC   PO460228   6.210   9.599   5.192
 4759POPC   GL160229   5.938   9.675   5.610
 4759POPC   GL260230   6.155   9.701   5.886
 4759POPC   C1A60231   5.667   9.606   6.030
 4759POPC   D2A60232   5.588   9.584   6.524
 4759POPC   C3A60233   5.722   9.873   6.850
 4759POPC   C4A60234   5.947   9.727   7.215
 4759POPC   C1B60235   6.272   9.666   6.308
 4759POPC   C2B60236   6.208   9.756   6.748
 4759POPC   C3B60237   6.264  10.070   7.044
 4759POPC   C4B60238   6.157  10.112   7.482
 4760POPC   NC360239  29.185  17.677   5.544
 4760POPC   PO460240  28.621  17.312   5.465
 4760POPC   GL160241  28.817  17.453   5.827
 4760POPC   GL260242  29.082  17.274   5.928
 4760POPC   C1A60243  28.860  17.678   6.227
 4760POPC   D2A60244  28.746  17.488   6.632
 4760POPC   C3A60245  28.931  17.489   7.053
 4760POPC   C4A60246  29.021  17.313   7.487
 4760POPC   C1B60247  29.127  17.218   6.352
 4760POPC   C2B60248  29.433  17.133   6.667
 4760POPC   C3B60249  29.370  17.193   7.115
 4760POPC   C4B60250  29.460  17.082   7.554
 4761POPC   NC360251  17.103  16.938   5.590
 4761POPC   PO460252  17.676  16.810   5.327
 4761POPC   GL160253  17.539  16.667   5.763
 4761POPC   GL260254  17.518  17.000   5.926
 4761POPC   C1A60255  17.665  16.496   6.188
 4761POPC   D2A60256  17.525  16.465   6.642
 4761POPC   C3A60257  17.857  16.427   6.945
 4761POPC   C4A60258  17.804  16.457   7.402
 4761POPC   C1B60259  17.244  16.777   6.225
 4761POPC   C2B60260  17.113  16.786   6.639
 4761POPC   C3B60261  17.122  16.719   7.070
 4761POPC   C4B60262  17.135  17.135   7.244
 4762POPC   NC360263  27.003  28.018   5.613
 4762POPC   PO460264  26.814  28.585   5.245
 4762POPC   GL160265  26.832  28.622   5.726
 4762POPC   GL260266  27.171  28.516   5.754
 4762POPC   C1A60267  26.725  28.412   6.136
 4762POPC   D2A60268  26.785  28.066   6.426
 4762POPC   C3A60269  26.771  28.196   6.840
 4762POPC   C4A60270  26.702  28.411   7.213
 4762POPC   C1B60271  27.158  28.677   6.183
 4762POPC   C2B60272  27.105  28.480   6.577
 4762POPC   C3B60273  27.086  28.633   6.991
 4762POPC   C4B60274  27.061  28.929   7.292
 4763POPC   NC360275   0.657   2.288   5.386
 4763POPC   PO460276   0.170   1.841   5.373
 4763POPC   GL160277   0.375   1.905   5.798
 4763POPC   GL260278   0.715   2.012   5.796
 4763POPC   C1A60279   0.400   2.059   6.243
 4763POPC   D2A60280   0.114   2.284   6.527
 4763POPC   C3A60281  44.967   2.135   6.916
 4763POPC   C4A60282   0.163   2.023   7.290
 4763POPC   C1B60283   0.878   2.309   6.125
 4763POPC   C2B60284   0.723   2.326   6.570
 4763POPC   C3B60285   0.480   2.148   6.908
 4763POPC   C4B60286   0.623   2.153   7.360
 4764POPC   NC360287  18.536  32.600   5.490
 4764POPC   PO460288  18.235  31.975   5.452
 4764POPC   GL160289  18.413  32.111   5.812
 4764POPC   GL260290  18.651  31.850   5.783
 4764POPC   C1A60291  18.276  32.267   6.228
 4764POPC   D2A60292  17.981  32.242   6.588
 4764POPC   C3A60293  18.257  32.246   6.945
 4764POPC   C4A60294  18.481  32.485   7.210
 4764POPC   C1B60295  18.517  31.787   6.213
 4764POPC   C2B60296  18.587  31.972   6.589
 4764POPC   C3B60297  18.730  31.810   6.961
 4764POPC   C4B60298  18.585  31.989   7.269
 4765POPC   NC360299  23.885  40.646   5.465
 4765POPC   PO460300  23.393  41.178   5.543
 4765POPC   GL160301  23.475  40.814   5.779
 4765POPC   GL260302  23.796  40.960   5.877
 4765POPC   C1A60303  23.543  40.612   6.191
 4765POPC   D2A60304  23.898  40.629   6.480
 4765POPC   C3A60305  23.847  40.633   6.948
 4765POPC   C4A60306  23.491  40.616   7.269
 4765POPC   C1B60307  23.907  41.129   6.268
 4765POPC   C2B60308  24.049  41.056   6.705
 4765POPC   C3B60309  24.045  41.065   7.150
 4765POPC   C4B60310  23.932  40.777   7.487
 4766POPC   NC360311  23.540  36.102   5.327
 4766POPC   PO460312  24.224  35.953   5.434
 4766POPC   GL160313  23.846  35.919   5.708
 4766POPC   GL260314  23.743  36.262   5.822
 4766POPC   C1A60315  23.625  35.844   6.099
 4766POPC   D2A60316  23.591  35.831   6.562
 4766POPC   C3A60317  23.685  35.953   7.008
 4766POPC   C4A60318  23.555  35.961   7.489
 4766POPC   C1B60319  23.513  36.328   6.250
 4766POPC   C2B60320  23.437  36.339   6.724
 4766POPC   C3B60321  23.457  36.372   7.201
 4766POPC   C4B60322  23.351  36.364   7.711
 4767POPC   NC360323   3.754  35.050   5.320
 4767POPC   PO460324   3.469  35.631   5.478
 4767POPC   GL160325   3.484  35.212   5.738
 4767POPC   GL260326   3.830  35.153   5.851
 4767POPC   C1A60327   3.408  35.006   6.157
 4767POPC   D2A60328   3.717  35.033   6.525
 4767POPC   C3A60329   3.472  35.075   6.897
 4767POPC   C4A60330   3.198  35.147   7.228
 4767POPC   C1B60331   3.675  35.434   6.193
 4767POPC   C2B60332   3.741  35.559   6.626
 4767POPC   C3B60333   3.558  35.579   7.042
 4767POPC   C4B60334   3.810  35.754   7.365
 4768POPC   NC360335  20.145   2.164   5.257
 4768POPC   PO460336  19.411   1.973   5.342
 4768POPC   GL160337  19.761   1.905   5.670
 4768POPC   GL260338  19.850   2.172   5.898
 4768POPC   C1A60339  19.900   1.698   6.088
 4768POPC   D2A60340  20.011   1.805   6.551
 4768POPC   C3A60341  19.854   1.820   7.012
 4768POPC   C4A60342  19.907   1.820   7.517
 4768POPC   C1B60343  20.216   2.091   6.136
 4768POPC   C2B60344  20.472   2.177   6.496
 4768POPC   C3B60345  20.256   2.154   6.878
 4768POPC   C4B60346  20.095   2.220   7.265
 4769POPC   NC360347  41.259  24.911   5.542
 4769POPC   PO460348  41.577  24.402   5.191
 4769POPC   GL160349  41.586  24.388   5.685
 4769POPC   GL260350  41.699  24.681   5.901
 4769POPC   C1A60351  41.430  24.302   6.136
 4769POPC   D2A60352  41.598  24.437   6.557
 4769POPC   C3A60353  41.371  24.401   6.935
 4769POPC   C4A60354  41.542  24.194   7.246
 4769POPC   C1B60355  41.416  24.819   6.242
 4769POPC   C2B60356  41.241  24.824   6.659
 4769POPC   C3B60357  41.501  24.889   7.016
 4769POPC   C4B60358  41.849  24.610   7.121
 4770POPC   NC360359   0.760  38.141   5.491
 4770POPC   PO460360   0.623  37.423   5.504
 4770POPC   GL160361   0.497  37.615   5.834
 4770POPC   GL260362   0.749  37.863   5.915
 4770POPC   C1A60363   0.365  37.662   6.241
 4770POPC   D2A60364   0.284  37.970   6.543
 4770POPC   C3A60365   0.168  37.743   6.896
 4770POPC   C4A60366   0.269  37.738   7.337
 4770POPC   C1B60367   0.795  37.918   6.329
 4770POPC   C2B60368   0.691  37.662   6.652
 4770POPC   C3B60369   0.692  37.796   7.031
 4770POPC   C4B60370   0.839  37.617   7.340
 4771POPC   NC360371   6.836  42.307   5.196
 4771POPC   PO460372   6.484  41.934   5.655
 4771POPC   GL160373   6.592  42.301   5.927
 4771POPC   GL260374   6.819  42.480   5.729
 4771POPC   C1A60375   6.621  42.422   6.370
 4771POPC   D2A60376   6.686  42.299   6.754
 4771POPC   C3A60377   6.498  42.415   7.032
 4771POPC   C4A60378   6.606  42.112   7.368
 4771POPC   C1B60379   6.888  42.747   6.098
 4771POPC   C2B60380   6.885  42.865   6.550
 4771POPC   C3B60381   7.006  42.664   6.953
 4771POPC   C4B60382   6.857  42.551   7.344
 4772POPC   NC360383  34.847  18.190   5.404
 4772POPC   PO460384  34.212  18.039   5.648
 4772POPC   GL160385  34.481  18.314   5.873
 4772POPC   GL260386  34.835  18.455   5.847
 4772POPC   C1A60387  34.406  18.171   6.295
 4772POPC   D2A60388  34.659  17.970   6.575
 4772POPC   C3A60389  34.803  18.196   6.897
 4772POPC   C4A60390  34.539  18.179   7.218
 4772POPC   C1B60391  34.799  18.495   6.287
 4772POPC   C2B60392  34.510  18.564   6.622
 4772POPC   C3B60393  34.803  18.711   6.877
 4772POPC   C4B60394  34.903  18.589   7.253
 4773POPC   NC360395  20.864  31.879   5.122
 4773POPC   PO460396  20.295  32.184   5.394
 4773POPC   GL160397  20.496  32.267   5.803
 4773POPC   GL260398  20.671  32.594   5.783
 4773POPC   C1A60399  20.507  32.053   6.234
 4773POPC   D2A60400  20.411  32.201   6.657
 4773POPC   C3A60401  20.396  32.098   7.091
 4773POPC   C4A60402  20.415  32.446   7.383
 4773POPC   C1B60403  20.803  32.459   6.183
 4773POPC   C2B60404  20.907  32.312   6.590
 4773POPC   C3B60405  20.861  32.361   7.051
 4773POPC   C4B60406  20.891  32.089   7.424
 4774POPC   NC360407  39.450  39.214   5.535
 4774POPC   PO460408  39.003  38.766   5.518
 4774POPC   GL160409  38.936  39.102   5.922
 4774POPC   GL260410  39.230  39.336   5.976
 4774POPC   C1A60411  38.883  39.483   6.303
 4774POPC   D2A60412  39.020  39.799   6.672
 4774POPC   C3A60413  39.213  39.503   7.010
 4774POPC   C4A60414  39.085  39.049   7.114
 4774POPC   C1B60415  39.593  39.243   6.240
 4774POPC   C2B60416  39.626  39.014   6.628
 4774POPC   C3B60417  39.618  39.145   7.061
 4774POPC   C4B60418  39.549  38.865   7.388
 4775POPC   NC360419  35.529   8.834   5.345
 4775POPC   PO460420  34.942   9.132   5.309
 4775POPC   GL160421  35.136   9.034   5.765
 4775POPC   GL260422  35.497   8.919   5.838
 4775POPC   C1A60423  35.172   8.747   6.178
 4775POPC   D2A60424  35.421   8.681   6.578
 4775POPC   C3A60425  35.330   8.907   6.959
 4775POPC   C4A60426  35.159   9.224   7.187
 4775POPC   C1B60427  35.471   9.187   6.204
 4775POPC   C2B60428  35.609   9.161   6.621
 4775POPC   C3B60429  35.642   9.345   7.012
 4775POPC   C4B60430  35.629   9.038   7.347
 4776POPC   NC360431  24.053  43.018   5.356
 4776POPC   PO460432  23.738  43.496   5.261
 4776POPC   GL160433  23.698  43.222   5.695
 4776POPC   GL260434  23.885  42.900   5.810
 4776POPC   C1A60435  23.862  43.234   6.166
 4776POPC   D2A60436  24.056  43.150   6.550
 4776POPC   C3A60437  23.962  43.366   6.932
 4776POPC   C4A60438  23.692  43.295   7.270
 4776POPC   C1B60439  23.825  42.712   6.227
 4776POPC   C2B60440  23.690  42.803   6.647
 4776POPC   C3B60441  23.852  42.825   7.080
 4776POPC   C4B60442  23.899  42.704   7.529
 4777POPC   NC360443  24.883   6.481   5.415
 4777POPC   PO460444  25.375   6.888   5.267
 4777POPC   GL160445  25.123   6.794   5.735
 4777POPC   GL260446  24.913   6.473   5.912
 4777POPC   C1A60447  25.170   6.747   6.228
 4777POPC   D2A60448  25.189   6.523   6.627
 4777POPC   C3A60449  25.290   6.709   6.973
 4777POPC   C4A60450  25.030   6.821   7.261
 4777POPC   C1B60451  25.121   6.211   6.245
 4777POPC   C2B60452  25.237   6.003   6.641
 4777POPC   C3B60453  25.471   6.220   6.970
 4777POPC   C4B60454  25.387   6.389   7.374
 4778POPC   NC360455  26.171  21.185   5.456
 4778POPC   PO460456  25.511  21.464   5.497
 4778POPC   GL160457  25.888  21.438   5.784
 4778POPC   GL260458  26.030  21.135   5.948
 4778POPC   C1A60459  26.122  21.644   6.139
 4778POPC   D2A60460  26.275  21.670   6.581
 4778POPC   C3A60461  26.013  21.620   6.960
 4778POPC   C4A60462  26.153  21.535   7.367
 4778POPC   C1B60463  26.229  21.168   6.348
 4778POPC   C2B60464  26.230  21.188   6.795
 4778POPC   C3B60465  26.164  21.074   7.201
 4778POPC   C4B60466  26.393  21.101   7.603
 4779POPC   NC360467  12.828   8.364   5.409
 4779POPC   PO460468  12.489   7.727   5.435
 4779POPC   GL160469  12.687   8.034   5.774
 4779POPC   GL260470  13.052   8.238   5.847
 4779POPC   C1A60471  12.673   8.182   6.191
 4779POPC   D2A60472  12.895   7.985   6.523
 4779POPC   C3A60473  12.761   8.061   6.922
 4779POPC   C4A60474  12.912   7.888   7.246
 4779POPC   C1B60475  13.023   8.542   6.221
 4779POPC   C2B60476  12.806   8.494   6.612
 4779POPC   C3B60477  12.905   8.578   7.021
 4779POPC   C4B60478  12.862   8.393   7.396
 4780POPC   NC360479  30.901  32.777   5.453
 4780POPC   PO460480  30.444  33.323   5.438
 4780POPC   GL160481  30.727  33.170   5.782
 4780POPC   GL260482  30.544  32.850   5.851
 4780POPC   C1A60483  30.773  33.193   6.254
 4780POPC   D2A60484  30.735  33.475   6.635
 4780POPC   C3A60485  30.575  33.281   7.013
 4780POPC   C4A60486  30.796  33.356   7.408
 4780POPC   C1B60487  30.805  32.687   6.190
 4780POPC   C2B60488  30.772  32.740   6.646
 4780POPC   C3B60489  30.923  32.879   7.062
 4780POPC   C4B60490  30.879  32.796   7.515
 4781POPC   NC360491   8.031  31.115   5.488
 4781POPC   PO460492   8.139  31.824   5.566
 4781POPC   GL160493   7.971  31.564   5.824
 4781POPC   GL260494   8.286  31.375   5.851
 4781POPC   C1A60495   7.786  31.544   6.233
 4781POPC   D2A60496   7.785  31.190   6.571
 4781POPC   C3A60497   7.874  31.345   6.965
 4781POPC   C4A60498   7.918  31.765   7.075
 4781POPC   C1B60499   8.330  31.682   6.193
 4781POPC   C2B60500   8.146  31.639   6.596
 4781POPC   C3B60501   8.365  31.518   6.956
 4781POPC   C4B60502   8.435  31.767   7.286
 4782POPC   NC360503  20.792   5.021   5.219
 4782POPC   PO460504  20.177   5.133   5.149
 4782POPC   GL160505  20.485   5.169   5.603
 4782POPC   GL260506  20.776   5.174   5.829
 4782POPC   C1A60507  20.348   5.107   6.073
 4782POPC   D2A60508  20.354   5.333   6.447
 4782POPC   C3A60509  20.485   5.097   6.801
 4782POPC   C4A60510  20.360   5.101   7.221
 4782POPC   C1B60511  20.857   5.364   6.267
 4782POPC   C2B60512  20.743   5.587   6.688
 4782POPC   C3B60513  20.753   5.423   7.100
 4782POPC   C4B60514  20.869   4.975   7.145
 4783POPC   NC360515  20.125  12.256   5.511
 4783POPC   PO460516  19.403  12.333   5.362
 4783POPC   GL160517  19.528  12.120   5.799
 4783POPC   GL260518  19.473  11.734   5.876
 4783POPC   C1A60519  19.577  12.254   6.192
 4783POPC   D2A60520  19.437  12.079   6.551
 4783POPC   C3A60521  19.617  12.210   6.904
 4783POPC   C4A60522  19.601  11.902   7.182
 4783POPC   C1B60523  19.757  11.787   6.238
 4783POPC   C2B60524  20.117  11.785   6.527
 4783POPC   C3B60525  20.066  11.902   6.949
 4783POPC   C4B60526  20.068  11.867   7.382
 4784POPC   NC360527   7.370  41.487   4.992
 4784POPC   PO460528   7.682  41.716   5.529
 4784POPC   GL160529   7.443  41.456   5.830
 4784POPC   GL260530   7.275  41.683   6.076
 4784POPC   C1A60531   7.511  41.234   6.236
 4784POPC   D2A60532   7.402  41.352   6.657
 4784POPC   C3A60533   7.495  41.231   7.068
 4784POPC   C4A60534   7.369  41.408   7.460
 4784POPC   C1B60535   7.686  41.738   6.241
 4784POPC   C2B60536   7.738  41.747   6.673
 4784POPC   C3B60537   7.563  41.761   7.088
 4784POPC   C4B60538   7.823  41.649   7.450
 4785POPC   NC360539  11.769  39.901   5.778
 4785POPC   PO460540  11.210  40.212   5.527
 4785POPC   GL160541  11.283  40.061   5.917
 4785POPC   GL260542  11.156  39.725   5.877
 4785POPC   C1A60543  11.002  40.080   6.267
 4785POPC   D2A60544  11.000  40.066   6.698
 4785POPC   C3A60545  11.384  40.073   6.880
 4785POPC   C4A60546  11.458  40.248   7.250
 4785POPC   C1B60547  11.387  39.672   6.270
 4785POPC   C2B60548  11.245  39.589   6.678
 4785POPC   C3B60549  11.072  39.699   7.069
 4785POPC   C4B60550  11.321  39.760   7.413
 4786POPC   NC360551  18.136   3.005   5.422
 4786POPC   PO460552  18.802   2.635   5.298
 4786POPC   GL160553  18.565   2.788   5.682
 4786POPC   GL260554  18.693   2.541   5.887
 4786POPC   C1A60555  18.287   2.871   6.076
 4786POPC   D2A60556  18.239   3.052   6.522
 4786POPC   C3A60557  18.214   2.898   6.973
 4786POPC   C4A60558  18.564   2.933   7.254
 4786POPC   C1B60559  18.501   2.381   6.254
 4786POPC   C2B60560  18.388   2.504   6.679
 4786POPC   C3B60561  18.467   2.442   7.126
 4786POPC   C4B60562  18.456   2.248   7.570
 4787POPC   NC360563  23.171  40.055   5.322
 4787POPC   PO460564  22.577  40.266   5.185
 4787POPC   GL160565  22.846  39.958   5.680
 4787POPC   GL260566  23.158  39.856   5.871
 4787POPC   C1A60567  22.782  40.000   6.171
 4787POPC   D2A60568  22.917  40.218   6.542
 4787POPC   C3A60569  22.880  40.043   6.944
 4787POPC   C4A60570  22.928  39.778   7.267
 4787POPC   C1B60571  23.322  40.062   6.253
 4787POPC   C2B60572  23.381  39.955   6.697
 4787POPC   C3B60573  23.417  39.778   7.120
 4787POPC   C4B60574  23.326  40.122   7.354
 4788POPC   NC360575  22.677  43.325   5.509
 4788POPC   PO460576  22.032  43.399   5.360
 4788POPC   GL160577  22.227  43.254   5.763
 4788POPC   GL260578  22.475  42.950   5.790
 4788POPC   C1A60579  22.139  43.368   6.208
 4788POPC   D2A60580  22.066  43.139   6.572
 4788POPC   C3A60581  22.001  43.296   6.969
 4788POPC   C4A60582  22.010  42.907   7.207
 4788POPC   C1B60583  22.606  43.169   6.165
 4788POPC   C2B60584  22.540  43.354   6.590
 4788POPC   C3B60585  22.520  43.182   7.042
 4788POPC   C4B60586  22.590  43.134   7.518
 4789POPC   NC360587  22.763  36.724   5.268
 4789POPC   PO460588  22.734  37.227   5.685
 4789POPC   GL160589  22.955  36.846   5.785
 4789POPC   GL260590  22.656  36.634   5.796
 4789POPC   C1A60591  23.242  36.798   6.163
 4789POPC   D2A60592  23.318  37.093   6.539
 4789POPC   C3A60593  23.385  36.957   6.964
 4789POPC   C4A60594  23.088  37.070   7.307
 4789POPC   C1B60595  22.603  36.857   6.216
 4789POPC   C2B60596  22.504  36.937   6.668
 4789POPC   C3B60597  22.674  36.899   7.084
 4789POPC   C4B60598  22.541  36.708   7.475
 4790POPC   NC360599  31.400  38.864   5.093
 4790POPC   PO460600  31.577  39.437   5.389
 4790POPC   GL160601  31.485  39.314   5.810
 4790POPC   GL260602  31.497  38.933   5.813
 4790POPC   C1A60603  31.308  39.213   6.226
 4790POPC   D2A60604  31.216  39.317   6.665
 4790POPC   C3A60605  31.313  39.149   7.067
 4790POPC   C4A60606  31.440  39.403   7.441
 4790POPC   C1B60607  31.812  39.091   6.142
 4790POPC   C2B60608  31.743  39.324   6.567
 4790POPC   C3B60609  31.800  39.149   7.007
 4790POPC   C4B60610  31.833  39.071   7.475
 4791POPC   NC360611  41.936  19.114   5.521
 4791POPC   PO460612  41.504  18.718   5.468
 4791POPC   GL160613  41.506  18.990   5.820
 4791POPC   GL260614  41.574  19.352   5.827
 4791POPC   C1A60615  41.556  18.941   6.256
 4791POPC   D2A60616  41.791  19.038   6.632
 4791POPC   C3A60617  41.534  19.166   6.976
 4791POPC   C4A60618  41.569  19.271   7.412
 4791POPC   C1B60619  41.784  19.385   6.211
 4791POPC   C2B60620  41.656  19.536   6.600
 4791POPC   C3B60621  41.862  19.562   6.955
 4791POPC   C4B60622  41.995  19.525   7.327
 4792POPC   NC360623  29.198  37.743   5.314
 4792POPC   PO460624  28.807  37.151   5.143
 4792POPC   GL160625  29.057  37.361   5.630
 4792POPC   GL260626  29.342  37.609   5.785
 4792POPC   C1A60627  29.005  37.494   6.134
 4792POPC   D2A60628  29.245  37.368   6.566
 4792POPC   C3A60629  29.050  37.511   7.010
 4792POPC   C4A60630  29.186  37.699   7.386
 4792POPC   C1B60631  29.407  37.768   6.256
 4792POPC   C2B60632  29.032  37.808   6.594
 4792POPC   C3B60633  29.020  38.021   7.018
 4792POPC   C4B60634  29.297  38.197   7.393
 4793POPC   NC360635  21.144  36.910   5.572
 4793POPC   PO460636  21.821  36.823   5.643
 4793POPC   GL160637  21.552  36.995   5.907
 4793POPC   GL260638  21.288  36.728   6.019
 4793POPC   C1A60639  21.609  36.937   6.328
 4793POPC   D2A60640  21.287  36.798   6.553
 4793POPC   C3A60641  21.418  36.941   6.902
 4793POPC   C4A60642  21.318  36.704   7.216
 4793POPC   C1B60643  21.132  37.145   6.216
 4793POPC   C2B60644  21.098  37.282   6.664
 4793POPC   C3B60645  20.947  37.170   7.101
 4793POPC   C4B60646  20.972  37.270   7.596
 4794POPC   NC360647  10.625  29.674   5.487
 4794POPC   PO460648  10.269  30.225   5.589
 4794POPC   GL160649  10.349  29.859   5.865
 4794POPC   GL260650  10.700  29.992   5.893
 4794POPC   C1A60651  10.468  29.799   6.310
 4794POPC   D2A60652  10.557  30.185   6.563
 4794POPC   C3A60653  10.538  30.057   6.985
 4794POPC   C4A60654  10.366  29.711   7.151
 4794POPC   C1B60655  10.948  29.709   6.168
 4794POPC   C2B60656  10.911  29.572   6.603
 4794POPC   C3B60657  10.872  29.637   7.063
 4794POPC   C4B60658  10.834  29.610   7.531
 4795POPC   NC360659  17.723  36.607   5.116
 4795POPC   PO460660  17.372  36.085   5.423
 4795POPC   GL160661  17.557  36.232   5.783
 4795POPC   GL260662  17.705  35.892   5.812
 4795POPC   C1A60663  17.348  36.359   6.166
 4795POPC   D2A60664  17.386  36.243   6.602
 4795POPC   C3A60665  17.173  36.422   6.946
 4795POPC   C4A60666  17.432  36.471   7.290
 4795POPC   C1B60667  17.469  35.876   6.223
 4795POPC   C2B60668  17.453  35.761   6.682
 4795POPC   C3B60669  17.388  35.907   7.100
 4795POPC   C4B60670  17.224  35.691   7.478
 4796POPC   NC360671  10.483   7.616   5.476
 4796POPC   PO460672  10.910   7.110   5.436
 4796POPC   GL160673  10.851   7.382   5.785
 4796POPC   GL260674  10.935   7.724   5.662
 4796POPC   C1A60675  10.683   7.258   6.200
 4796POPC   D2A60676  10.382   7.195   6.552
 4796POPC   C3A60677  10.547   7.325   6.953
 4796POPC   C4A60678  10.365   7.467   7.335
 4796POPC   C1B60679  10.842   7.796   6.103
 4796POPC   C2B60680  10.978   7.584   6.474
 4796POPC   C3B60681  11.046   7.644   6.887
 4796POPC   C4B60682  10.824   7.688   7.261
 4797POPC   NC360683  29.940  17.633   5.503
 4797POPC   PO460684  29.362  17.228   5.514
 4797POPC   GL160685  29.570  17.490   5.853
 4797POPC   GL260686  29.946  17.543   5.988
 4797POPC   C1A60687  29.556  17.550   6.295
 4797POPC   D2A60688  29.912  17.557   6.559
 4797POPC   C3A60689  29.695  17.541   6.919
 4797POPC   C4A60690  29.702  17.520   7.343
 4797POPC   C1B60691  30.154  17.218   6.226
 4797POPC   C2B60692  30.371  17.237   6.618
 4797POPC   C3B60693  30.176  17.379   6.999
 4797POPC   C4B60694  30.214  17.428   7.429
 4798POPC   NC360695  19.825  23.743   5.410
 4798POPC   PO460696  19.771  23.123   5.415
 4798POPC   GL160697  19.885  23.300   5.852
 4798POPC   GL260698  19.878  23.658   5.911
 4798POPC   C1A60699  19.902  23.366   6.335
 4798POPC   D2A60700  19.972  23.648   6.712
 4798POPC   C3A60701  19.696  23.607   7.108
 4798POPC   C4A60702  19.794  23.485   7.607
 4798POPC   C1B60703  19.761  23.905   6.284
 4798POPC   C2B60704  19.596  24.038   6.696
 4798POPC   C3B60705  19.438  24.075   7.113
 4798POPC   C4B60706  19.718  23.973   7.473
 4799POPC   NC360707   9.174  40.296   5.426
 4799POPC   PO460708   8.677  39.848   5.415
 4799POPC   GL160709   8.875  40.052   5.820
 4799POPC   GL260710   9.118  40.346   5.914
 4799POPC   C1A60711   8.847  39.905   6.280
 4799POPC   D2A60712   8.740  39.599   6.633
 4799POPC   C3A60713   8.906  39.757   7.017
 4799POPC   C4A60714   8.890  40.151   7.247
 4799POPC   C1B60715   9.306  40.137   6.258
 4799POPC   C2B60716   9.168  40.150   6.681
 4799POPC   C3B60717   9.256  40.441   6.990
 4799POPC   C4B60718   9.327  40.401   7.395
 4800POPC   NC360719  12.961  13.674   5.412
 4800POPC   PO460720  12.440  14.076   5.657
 4800POPC   GL160721  12.792  13.722   5.886
 4800POPC   GL260722  13.144  13.775   5.902
 4800POPC   C1A60723  12.797  13.466   6.264
 4800POPC   D2A60724  12.729  13.762   6.610
 4800POPC   C3A60725  12.590  13.662   6.997
 4800POPC   C4A60726  12.588  13.337   7.250
 4800POPC   C1B60727  13.151  13.829   6.344
 4800POPC   C2B60728  13.196  13.537   6.678
 4800POPC   C3B60729  13.057  13.531   7.104
 4800POPC   C4B60730  12.975  13.785   7.425
 4801POPC   NC360731  15.371   7.852   5.652
 4801POPC   PO460732  15.016   8.332   5.327
 4801POPC   GL160733  15.032   8.261   5.750
 4801POPC   GL260734  14.835   8.557   5.811
 4801POPC   C1A60735  15.203   8.260   6.173
 4801POPC   D2A60736  15.472   8.372   6.514
 4801POPC   C3A60737  15.350   8.092   6.809
 4801POPC   C4A60738  15.207   8.007   7.210
 4801POPC   C1B60739  14.816   8.571   6.257
 4801POPC   C2B60740  14.934   8.402   6.653
 4801POPC   C3B60741  15.088   8.474   7.042
 4801POPC   C4B60742  14.838   8.338   7.395
 4802POPC   NC360743  22.358  20.423   5.632
 4802POPC   PO460744  22.305  19.774   5.470
 4802POPC   GL160745  22.081  19.963   5.805
 4802POPC   GL260746  22.359  20.064   6.005
 4802POPC   C1A60747  21.974  19.862   6.255
 4802POPC   D2A60748  22.241  19.977   6.611
 4802POPC   C3A60749  22.068  20.045   7.053
 4802POPC   C4A60750  21.717  20.184   7.355
 4802POPC   C1B60751  22.440  19.649   6.182
 4802POPC   C2B60752  22.318  19.475   6.576
 4802POPC   C3B60753  22.481  19.685   6.951
 4802POPC   C4B60754  22.468  19.780   7.368
 4803POPC   NC360755  43.362   5.727   5.515
 4803POPC   PO460756  42.865   6.259   5.426
 4803POPC   GL160757  43.037   6.032   5.787
 4803POPC   GL260758  42.914   5.689   5.805
 4803POPC   C1A60759  43.196   5.871   6.211
 4803POPC   D2A60760  43.301   6.048   6.626
 4803POPC   C3A60761  43.022   6.092   6.993
 4803POPC   C4A60762  43.009   6.372   7.366
 4803POPC   C1B60763  42.801   5.536   6.221
 4803POPC   C2B60764  42.888   5.695   6.644
 4803POPC   C3B60765  43.164   5.580   6.999
 4803POPC   C4B60766  43.057   5.609   7.423
 4804POPC   NC360767  30.029   7.654   5.428
 4804POPC   PO460768  29.717   7.092   5.773
 4804POPC   GL160769  29.944   7.451   5.885
 4804POPC   GL260770  29.775   7.772   5.845
 4804POPC   C1A60771  30.163   7.416   6.252
 4804POPC   D2A60772  29.988   7.315   6.659
 4804POPC   C3A60773  30.243   7.303   7.010
 4804POPC   C4A60774  30.236   7.127   7.401
 4804POPC   C1B60775  30.000   7.886   6.244
 4804POPC   C2B60776  30.117   8.093   6.605
 4804POPC   C3B60777  30.131   7.787   6.907
 4804POPC   C4B60778  29.805   7.539   7.109
 4805POPC   NC360779   9.399   5.400   5.528
 4805POPC   PO460780   9.971   5.747   5.431
 4805POPC   GL160781   9.674   5.937   5.687
 4805POPC   GL260782   9.939   6.153   5.812
 4805POPC   C1A60783   9.550   5.760   6.082
 4805POPC   D2A60784   9.773   5.619   6.458
 4805POPC   C3A60785   9.594   5.783   6.850
 4805POPC   C4A60786   9.687   5.729   7.283
 4805POPC   C1B60787   9.671   6.252   6.187
 4805POPC   C2B60788   9.815   6.375   6.620
 4805POPC   C3B60789   9.901   6.179   6.993
 4805POPC   C4B60790   9.771   6.215   7.384
 4806POPC   NC360791  24.700   4.919   5.466
 4806POPC   PO460792  24.138   5.286   5.637
 4806POPC   GL160793  24.404   4.992   5.886
 4806POPC   GL260794  24.174   4.764   5.995
 4806POPC   C1A60795  24.534   4.880   6.336
 4806POPC   D2A60796  24.763   5.023   6.675
 4806POPC   C3A60797  24.546   5.091   7.021
 4806POPC   C4A60798  24.501   5.379   7.322
 4806POPC   C1B60799  24.085   5.109   6.278
 4806POPC   C2B60800  24.158   5.061   6.687
 4806POPC   C3B60801  24.114   4.826   7.046
 4806POPC   C4B60802  24.096   5.098   7.321
 4807POPC   NC360803  30.282  35.327   5.382
 4807POPC   PO460804  29.664  35.242   5.510
 4807POPC   GL160805  29.924  35.260   5.872
 4807POPC   GL260806  30.118  35.564   5.802
 4807POPC   C1A60807  29.979  35.052   6.287
 4807POPC   D2A60808  30.020  35.093   6.760
 4807POPC   C3A60809  29.677  35.215   6.965
 4807POPC   C4A60810  29.663  35.483   7.297
 4807POPC   C1B60811  30.259  35.462   6.234
 4807POPC   C2B60812  30.319  35.531   6.684
 4807POPC   C3B60813  30.173  35.496   7.118
 4807POPC   C4B60814  30.299  35.565   7.524
 4808POPC   NC360815  29.551  13.432   5.471
 4808POPC   PO460816  30.159  13.699   5.247
 4808POPC   GL160817  30.007  13.601   5.699
 4808POPC   GL260818  29.753  13.862   5.772
 4808POPC   C1A60819  30.072  13.644   6.179
 4808POPC   D2A60820  30.206  13.712   6.621
 4808POPC   C3A60821  29.957  13.502   6.918
 4808POPC   C4A60822  30.045  13.443   7.325
 4808POPC   C1B60823  29.582  13.943   6.186
 4808POPC   C2B60824  29.668  13.780   6.583
 4808POPC   C3B60825  29.539  13.830   7.009
 4808POPC   C4B60826  29.605  13.726   7.432
 4809POPC   NC360827  26.914  38.175   5.509
 4809POPC   PO460828  26.628  38.719   5.207
 4809POPC   GL160829  26.773  38.647   5.655
 4809POPC   GL260830  27.117  38.712   5.723
 4809POPC   C1A60831  26.725  38.568   6.102
 4809POPC   D2A60832  26.855  38.282   6.443
 4809POPC   C3A60833  26.766  38.515   6.817
 4809POPC   C4A60834  26.880  38.410   7.219
 4809POPC   C1B60835  27.233  38.512   6.111
 4809POPC   C2B60836  27.256  38.599   6.536
 4809POPC   C3B60837  27.248  38.351   6.864
 4809POPC   C4B60838  27.365  38.294   7.273
 4810POPC   NC360839  10.118  10.460   5.466
 4810POPC   PO460840  10.811  10.364   5.462
 4810POPC   GL160841  10.575  10.680   5.698
 4810POPC   GL260842  10.743  10.937   5.829
 4810POPC   C1A60843  10.451  10.677   6.145
 4810POPC   D2A60844  10.337  10.310   6.376
 4810POPC   C3A60845  10.353  10.410   6.791
 4810POPC   C4A60846  10.419  10.437   7.225
 4810POPC   C1B60847  10.815  11.106   6.182
 4810POPC   C2B60848  10.732  10.897   6.558
 4810POPC   C3B60849  10.488  10.877   6.943
 4810POPC   C4B60850  10.704  10.852   7.315
 4811POPC   NC360851  20.100  41.536   5.467
 4811POPC   PO460852  19.486  41.689   5.335
 4811POPC   GL160853  19.608  41.598   5.808
 4811POPC   GL260854  19.933  41.464   5.954
 4811POPC   C1A60855  19.592  41.690   6.272
 4811POPC   D2A60856  19.839  41.795   6.625
 4811POPC   C3A60857  19.582  41.759   6.985
 4811POPC   C4A60858  19.526  41.456   7.243
 4811POPC   C1B60859  20.205  41.313   6.308
 4811POPC   C2B60860  20.365  41.557   6.632
 4811POPC   C3B60861  20.155  41.622   7.004
 4811POPC   C4B60862  20.028  41.335   7.317
 4812POPC   NC360863   1.656  15.122   5.508
 4812POPC   PO460864   2.259  15.465   5.424
 4812POPC   GL160865   2.052  15.240   5.807
 4812POPC   GL260866   2.043  14.905   5.833
 4812POPC   C1A60867   1.901  15.176   6.254
 4812POPC   D2A60868   1.642  15.299   6.584
 4812POPC   C3A60869   1.924  15.269   6.921
 4812POPC   C4A60870   1.937  15.127   7.327
 4812POPC   C1B60871   2.296  14.877   6.203
 4812POPC   C2B60872   2.314  15.061   6.639
 4812POPC   C3B60873   2.354  14.949   7.096
 4812POPC   C4B60874   2.332  14.979   7.601
 4813POPC   NC360875  39.788  35.884   5.316
 4813POPC   PO460876  39.730  36.510   5.438
 4813POPC   GL160877  40.030  36.350   5.723
 4813POPC   GL260878  39.787  36.392   5.997
 4813POPC   C1A60879  40.179  36.049   6.051
 4813POPC   D2A60880  39.932  36.069   6.449
 4813POPC   C3A60881  40.041  35.814   6.802
 4813POPC   C4A60882  40.133  35.915   7.218
 4813POPC   C1B60883  40.169  36.529   6.207
 4813POPC   C2B60884  40.257  36.428   6.629
 4813POPC   C3B60885  39.954  36.337   6.913
 4813POPC   C4B60886  39.876  36.451   7.313
 4814POPC   NC360887  19.850   0.782   5.461
 4814POPC   PO460888  19.691   0.157   5.188
 4814POPC   GL160889  19.892   0.304   5.641
 4814POPC   GL260890  19.656   0.540   5.854
 4814POPC   C1A60891  20.072   0.368   6.093
 4814POPC   D2A60892  20.182   0.283   6.545
 4814POPC   C3A60893  20.050   0.582   6.867
 4814POPC   C4A60894  19.808   0.421   7.229
 4814POPC   C1B60895  19.588   0.301   6.270
 4814POPC   C2B60896  19.617   0.305   6.733
 4814POPC   C3B60897  19.462   0.061   7.089
 4814POPC   C4B60898  19.475   0.179   7.539
 4815POPC   NC360899  41.022  22.400   5.424
 4815POPC   PO460900  40.394  22.060   5.454
 4815POPC   GL160901  40.776  22.090   5.750
 4815POPC   GL260902  40.940  21.770   5.841
 4815POPC   C1A60903  40.808  22.314   6.186
 4815POPC   D2A60904  40.877  22.548   6.570
 4815POPC   C3A60905  40.883  22.312   6.928
 4815POPC   C4A60906  40.780  22.279   7.354
 4815POPC   C1B60907  40.600  21.849   6.164
 4815POPC   C2B60908  40.542  22.062   6.568
 4815POPC   C3B60909  40.506  21.961   7.015
 4815POPC   C4B60910  40.833  21.753   7.271
 4816POPC   NC360911   0.424  30.202   5.429
 4816POPC   PO460912   0.674  29.564   5.409
 4816POPC   GL160913   0.627  29.838   5.747
 4816POPC   GL260914   0.340  29.932   5.871
 4816POPC   C1A60915   0.689  29.717   6.188
 4816POPC   D2A60916   0.426  29.744   6.555
 4816POPC   C3A60917   0.467  30.034   6.910
 4816POPC   C4A60918   0.636  29.917   7.316
 4816POPC   C1B60919   0.090  29.990   6.234
 4816POPC   C2B60920  44.977  30.227   6.595
 4816POPC   C3B60921  44.915  30.042   6.964
 4816POPC   C4B60922   0.145  30.008   7.330
 4817POPC   NC360923  27.556  36.241   5.595
 4817POPC   PO460924  27.497  35.636   5.674
 4817POPC   GL160925  27.523  35.902   5.992
 4817POPC   GL260926  27.852  36.023   5.942
 4817POPC   C1A60927  27.597  36.143   6.358
 4817POPC   D2A60928  27.950  36.085   6.650
 4817POPC   C3A60929  27.758  35.980   7.000
 4817POPC   C4A60930  27.357  36.110   7.127
 4817POPC   C1B60931  28.023  36.377   6.213
 4817POPC   C2B60932  27.966  36.602   6.645
 4817POPC   C3B60933  27.882  36.521   7.100
 4817POPC   C4B60934  27.741  36.246   7.463
 4818POPC   NC360935  10.066  28.142   5.493
 4818POPC   PO460936  10.719  28.412   5.500
 4818POPC   GL160937  10.561  28.376   5.885
 4818POPC   GL260938  10.242  28.449   5.889
 4818POPC   C1A60939  10.690  28.201   6.266
 4818POPC   D2A60940  10.969  28.263   6.619
 4818POPC   C3A60941  10.785  28.340   7.035
 4818POPC   C4A60942  10.446  28.290   7.336
 4818POPC   C1B60943  10.174  28.167   6.218
 4818POPC   C2B60944  10.384  28.099   6.645
 4818POPC   C3B60945  10.276  27.927   7.011
 4818POPC   C4B60946   9.990  28.019   7.304
 4819POPC   NC360947  18.669  34.513   5.382
 4819POPC   PO460948  17.998  34.541   5.449
 4819POPC   GL160949  18.145  34.562   5.849
 4819POPC   GL260950  18.172  34.857   5.996
 4819POPC   C1A60951  18.404  34.361   6.118
 4819POPC   D2A60952  18.676  34.412   6.468
 4819POPC   C3A60953  18.443  34.420   6.863
 4819POPC   C4A60954  18.442  34.264   7.291
 4819POPC   C1B60955  18.221  34.713   6.440
 4819POPC   C2B60956  17.940  34.513   6.734
 4819POPC   C3B60957  17.985  34.433   7.133
 4819POPC   C4B60958  18.203  34.696   7.399
 4820POPC   NC360959   1.243  23.882   5.372
 4820POPC   PO460960   1.576  23.272   5.536
 4820POPC   GL160961   1.444  23.630   5.793
 4820POPC   GL260962   1.076  23.661   5.847
 4820POPC   C1A60963   1.415  23.786   6.207
 4820POPC   D2A60964   1.455  23.939   6.622
 4820POPC   C3A60965   1.212  23.683   6.882
 4820POPC   C4A60966   1.279  23.547   7.275
 4820POPC   C1B60967   0.905  23.962   6.174
 4820POPC   C2B60968   0.713  24.007   6.604
 4820POPC   C3B60969   0.717  23.867   7.038
 4820POPC   C4B60970   0.752  23.510   7.290
 4821POPC   NC360971  10.873  16.350   5.549
 4821POPC   PO460972  10.345  16.464   5.161
 4821POPC   GL160973  10.367  16.576   5.627
 4821POPC   GL260974  10.282  16.310   5.851
 4821POPC   C1A60975  10.424  16.765   6.091
 4821POPC   D2A60976  10.236  16.701   6.558
 4821POPC   C3A60977  10.455  16.762   6.974
 4821POPC   C4A60978  10.830  17.037   7.022
 4821POPC   C1B60979  10.430  16.296   6.284
 4821POPC   C2B60980  10.650  16.371   6.665
 4821POPC   C3B60981  10.821  16.360   7.076
 4821POPC   C4B60982  10.661  16.226   7.513
 4822POPC   NC360983   6.903  10.209   5.561
 4822POPC   PO460984   6.286  10.589   5.324
 4822POPC   GL160985   6.416  10.597   5.803
 4822POPC   GL260986   6.749  10.572   5.867
 4822POPC   C1A60987   6.442  10.651   6.283
 4822POPC   D2A60988   6.706  10.722   6.632
 4822POPC   C3A60989   6.569  10.886   7.022
 4822POPC   C4A60990   6.798  10.802   7.395
 4822POPC   C1B60991   6.794  10.297   6.233
 4822POPC   C2B60992   6.570  10.214   6.617
 4822POPC   C3B60993   6.669  10.378   7.012
 4822POPC   C4B60994   7.007  10.309   7.216
 4823POPC   NC360995  20.184   6.901   5.491
 4823POPC   PO460996  20.080   7.624   5.469
 4823POPC   GL160997  19.821   7.341   5.711
 4823POPC   GL260998  19.927   7.122   5.855
 4823POPC   C1A60999  19.641   7.414   6.160
 4823POPC   D2A61000  19.871   7.441   6.527
 4823POPC   C3A61001  19.657   7.423   6.922
 4823POPC   C4A61002  19.557   7.063   7.218
 4823POPC   C1B61003  20.168   7.397   6.116
 4823POPC   C2B61004  20.407   7.414   6.486
 4823POPC   C3B61005  20.222   7.451   6.882
 4823POPC   C4B61006  20.040   7.279   7.222
 4824POPC   NC361007  34.430  32.712   5.401
 4824POPC   PO461008  34.563  33.364   5.441
 4824POPC   GL161009  34.669  33.072   5.786
 4824POPC   GL261010  34.879  32.802   5.666
 4824POPC   C1A61011  34.526  33.062   6.242
 4824POPC   D2A61012  34.577  33.264   6.652
 4824POPC   C3A61013  34.352  33.066   6.999
 4824POPC   C4A61014  34.285  33.206   7.417
 4824POPC   C1B61015  34.930  32.749   6.118
 4824POPC   C2B61016  34.941  32.914   6.531
 4824POPC   C3B61017  34.804  32.807   6.938
 4824POPC   C4B61018  34.993  32.710   7.315
 4825POPC   NC361019  41.390  10.206   5.627
 4825POPC   PO461020  41.604  10.906   5.521
 4825POPC   GL161021  41.706  10.617   5.843
 4825POPC   GL261022  41.940  10.327   5.855
 4825POPC   C1A61023  41.505  10.672   6.242
 4825POPC   D2A61024  41.440  10.466   6.632
 4825POPC   C3A61025  41.529  10.712   7.009
 4825POPC   C4A61026  41.428  10.846   7.406
 4825POPC   C1B61027  41.763  10.248   6.241
 4825POPC   C2B61028  41.910  10.211   6.636
 4825POPC   C3B61029  41.704  10.206   6.985
 4825POPC   C4B61030  41.418  10.332   7.331
 4826POPC   NC361031  16.356  41.892   5.375
 4826POPC   PO461032  17.053  41.811   5.574
 4826POPC   GL161033  16.664  41.873   5.809
 4826POPC   GL261034  16.554  41.544   5.840
 4826POPC   C1A61035  16.574  42.009   6.245
 4826POPC   D2A61036  16.928  41.955   6.547
 4826POPC   C3A61037  16.851  41.791   6.973
 4826POPC   C4A61038  16.524  41.899   7.250
 4826POPC   C1B61039  16.735  41.536   6.266
 4826POPC   C2B61040  16.488  41.610   6.640
 4826POPC   C3B61041  16.428  41.321   6.964
 4826POPC   C4B61042  16.629  41.336   7.300
 4827POPC   NC361043  16.260  42.617   5.312
 4827POPC   PO461044  15.895  42.086   5.460
 4827POPC   GL161045  16.050  42.284   5.783
 4827POPC   GL261046  16.098  42.658   5.794
 4827POPC   C1A61047  16.064  42.102   6.178
 4827POPC   D2A61048  16.023  42.290   6.559
 4827POPC   C3A61049  16.188  42.130   6.923
 4827POPC   C4A61050  15.789  42.051   7.141
 4827POPC   C1B61051  15.854  42.606   6.167
 4827POPC   C2B61052  15.823  42.780   6.584
 4827POPC   C3B61053  15.841  42.562   6.943
 4827POPC   C4B61054  16.063  42.484   7.252
 4828POPC   NC361055  25.695   4.204   5.664
 4828POPC   PO461056  25.978   4.568   5.092
 4828POPC   GL161057  26.240   4.397   5.564
 4828POPC   GL261058  26.460   4.158   5.790
 4828POPC   C1A61059  26.317   4.601   6.034
 4828POPC   D2A61060  26.092   4.611   6.455
 4828POPC   C3A61061  25.992   4.315   6.805
 4828POPC   C4A61062  26.291   4.366   7.151
 4828POPC   C1B61063  26.151   4.137   6.182
 4828POPC   C2B61064  25.832   3.889   6.450
 4828POPC   C3B61065  25.725   3.805   6.912
 4828POPC   C4B61066  25.795   4.061   7.288
 4829POPC   NC361067  42.189  33.855   5.369
 4829POPC   PO461068  42.066  33.192   5.430
 4829POPC   GL161069  42.315  33.471   5.753
 4829POPC   GL261070  42.402  33.858   5.824
 4829POPC   C1A61071  42.267  33.562   6.199
 4829POPC   D2A61072  42.462  33.801   6.546
 4829POPC   C3A61073  42.430  33.662   6.979
 4829POPC   C4A61074  42.575  33.960   7.284
 4829POPC   C1B61075  42.193  34.065   6.184
 4829POPC   C2B61076  42.007  34.052   6.575
 4829POPC   C3B61077  42.206  34.114   6.945
 4829POPC   C4B61078  42.059  34.048   7.315
 4830POPC   NC361079  20.383  37.542   5.425
 4830POPC   PO461080  20.768  37.154   5.642
 4830POPC   GL161081  20.709  37.507   5.903
 4830POPC   GL261082  20.404  37.710   5.907
 4830POPC   C1A61083  20.766  37.503   6.331
 4830POPC   D2A61084  20.589  37.390   6.710
 4830POPC   C3A61085  20.668  37.606   7.062
 4830POPC   C4A61086  20.358  37.872   7.216
 4830POPC   C1B61087  20.265  37.551   6.296
 4830POPC   C2B61088  20.139  37.632   6.743
 4830POPC   C3B61089  20.192  37.410   7.121
 4830POPC   C4B61090  20.187  37.454   7.567
 4831POPC   NC361091  17.966  24.055   5.460
 4831POPC   PO461092  18.622  24.242   5.391
 4831POPC   GL161093  18.463  23.904   5.717
 4831POPC   GL261094  18.133  23.767   5.852
 4831POPC   C1A61095  18.567  23.732   6.148
 4831POPC   D2A61096  18.577  23.884   6.593
 4831POPC   C3A61097  18.429  23.624   6.943
 4831POPC   C4A61098  18.524  23.721   7.398
 4831POPC   C1B61099  18.202  23.370   6.089
 4831POPC   C2B61100  18.115  23.418   6.534
 4831POPC   C3B61101  17.944  23.417   6.955
 4831POPC   C4B61102  17.840  23.775   7.141
 4832POPC   NC361103  30.422  20.637   5.446
 4832POPC   PO461104  30.981  20.316   5.429
 4832POPC   GL161105  30.809  20.557   5.800
 4832POPC   GL261106  31.034  20.445   6.069
 4832POPC   C1A61107  30.581  20.619   6.212
 4832POPC   D2A61108  30.811  20.465   6.585
 4832POPC   C3A61109  30.654  20.627   6.968
 4832POPC   C4A61110  30.445  20.488   7.356
 4832POPC   C1B61111  31.037  20.872   6.228
 4832POPC   C2B61112  30.967  20.956   6.648
 4832POPC   C3B61113  31.196  20.685   6.927
 4832POPC   C4B61114  31.056  20.467   7.262
 4833POPC   NC361115  20.858  42.549   5.259
 4833POPC   PO461116  20.613  42.058   5.609
 4833POPC   GL161117  20.738  42.250   5.964
 4833POPC   GL261118  20.819  42.571   5.844
 4833POPC   C1A61119  20.578  42.430   6.329
 4833POPC   D2A61120  20.644  42.588   6.735
 4833POPC   C3A61121  20.321  42.447   7.054
 4833POPC   C4A61122  20.357  42.104   7.365
 4833POPC   C1B61123  21.068  42.628   6.207
 4833POPC   C2B61124  21.171  42.766   6.624
 4833POPC   C3B61125  21.106  42.548   6.988
 4833POPC   C4B61126  20.755  42.589   7.241
 4834POPC   NC361127   7.873  25.525   5.509
 4834POPC   PO461128   7.208  25.434   5.500
 4834POPC   GL161129   7.319  25.248   5.892
 4834POPC   GL261130   7.236  24.904   5.806
 4834POPC   C1A61131   7.211  25.366   6.331
 4834POPC   D2A61132   7.395  25.599   6.687
 4834POPC   C3A61133   7.240  25.539   7.102
 4834POPC   C4A61134   7.347  25.412   7.533
 4834POPC   C1B61135   7.380  24.882   6.267
 4834POPC   C2B61136   7.433  25.068   6.703
 4834POPC   C3B61137   7.425  25.044   7.168
 4834POPC   C4B61138   7.362  24.685   7.428
 4835POPC   NC361139  26.258  34.330   5.487
 4835POPC   PO461140  25.763  34.623   5.288
 4835POPC   GL161141  25.873  34.764   5.708
 4835POPC   GL261142  26.006  34.458   5.891
 4835POPC   C1A61143  26.107  34.914   6.076
 4835POPC   D2A61144  26.188  34.611   6.403
 4835POPC   C3A61145  26.214  34.746   6.849
 4835POPC   C4A61146  25.966  34.770   7.231
 4835POPC   C1B61147  25.902  34.189   6.217
 4835POPC   C2B61148  26.087  34.142   6.618
 4835POPC   C3B61149  26.010  34.285   7.052
 4835POPC   C4B61150  25.998  34.329   7.509
 4836POPC   NC361151  39.226   6.980   5.479
 4836POPC   PO461152  39.010   6.387   5.566
 4836POPC   GL161153  39.363   6.517   5.853
 4836POPC   GL261154  39.520   6.856   5.885
 4836POPC   C1A61155  39.294   6.589   6.302
 4836POPC   D2A61156  39.017   6.714   6.638
 4836POPC   C3A61157  39.104   6.494   6.982
 4836POPC   C4A61158  39.110   6.539   7.388
 4836POPC   C1B61159  39.642   6.982   6.284
 4836POPC   C2B61160  39.493   6.899   6.691
 4836POPC   C3B61161  39.582   6.669   7.021
 4836POPC   C4B61162  39.637   6.776   7.415
 4837POPC   NC361163  19.701   3.839   5.507
 4837POPC   PO461164  19.532   3.275   5.310
 4837POPC   GL161165  19.528   3.454   5.772
 4837POPC   GL261166  19.335   3.747   5.862
 4837POPC   C1A61167  19.736   3.589   6.185
 4837POPC   D2A61168  19.950   3.491   6.566
 4837POPC   C3A61169  19.675   3.353   6.904
 4837POPC   C4A61170  19.821   3.364   7.339
 4837POPC   C1B61171  19.436   3.998   6.258
 4837POPC   C2B61172  19.649   3.931   6.638
 4837POPC   C3B61173  19.814   3.823   7.040
 4837POPC   C4B61174  19.819   3.921   7.496
 4838POPC   NC361175  26.721  40.568   5.419
 4838POPC   PO461176  26.787  41.191   5.587
 4838POPC   GL161177  26.613  40.952   5.898
 4838POPC   GL261178  26.450  40.620   5.887
 4838POPC   C1A61179  26.956  40.793   6.134
 4838POPC   D2A61180  27.044  40.939   6.533
 4838POPC   C3A61181  26.806  40.779   6.880
 4838POPC   C4A61182  27.002  40.889   7.231
 4838POPC   C1B61183  26.520  40.680   6.335
 4838POPC   C2B61184  26.319  40.800   6.695
 4838POPC   C3B61185  26.327  40.705   7.126
 4838POPC   C4B61186  26.624  40.657   7.459
 4839POPC   NC361187  36.364   7.914   5.490
 4839POPC   PO461188  36.659   8.577   5.435
 4839POPC   GL161189  36.768   8.470   5.845
 4839POPC   GL261190  36.784   8.111   5.779
 4839POPC   C1A61191  37.011   8.297   6.192
 4839POPC   D2A61192  36.936   8.103   6.583
 4839POPC   C3A61193  36.907   8.335   6.957
 4839POPC   C4A61194  36.885   8.485   7.372
 4839POPC   C1B61195  36.568   7.915   6.157
 4839POPC   C2B61196  36.660   7.682   6.556
 4839POPC   C3B61197  36.802   7.790   6.999
 4839POPC   C4B61198  36.582   8.049   7.333
 4840POPC   NC361199  33.304  37.613   5.422
 4840POPC   PO461200  32.922  38.131   5.492
 4840POPC   GL161201  33.131  38.143   5.903
 4840POPC   GL261202  33.377  37.895   5.850
 4840POPC   C1A61203  33.178  38.010   6.371
 4840POPC   D2A61204  33.084  37.931   6.841
 4840POPC   C3A61205  32.751  37.763   7.051
 4840POPC   C4A61206  32.743  37.382   7.239
 4840POPC   C1B61207  33.209  37.543   6.145
 4840POPC   C2B61208  33.327  37.553   6.598
 4840POPC   C3B61209  33.197  37.431   7.014
 4840POPC   C4B61210  33.195  37.265   7.439
 4841POPC   NC361211  36.471  19.798   5.394
 4841POPC   PO461212  35.870  20.116   5.242
 4841POPC   GL161213  35.937  19.741   5.593
 4841POPC   GL261214  36.171  19.876   5.838
 4841POPC   C1A61215  35.837  19.577   6.069
 4841POPC   D2A61216  36.041  19.751   6.463
 4841POPC   C3A61217  36.038  19.587   6.903
 4841POPC   C4A61218  36.018  19.605   7.347
 4841POPC   C1B61219  36.325  20.112   6.207
 4841POPC   C2B61220  36.423  20.055   6.672
 4841POPC   C3B61221  36.278  20.000   7.117
 4841POPC   C4B61222  36.318  19.969   7.576
 4842POPC   NC361223  23.516  19.087   5.214
 4842POPC   PO461224  24.129  19.270   5.124
 4842POPC   GL161225  23.918  19.035   5.580
 4842POPC   GL261226  23.546  19.122   5.729
 4842POPC   C1A61227  23.805  18.890   6.086
 4842POPC   D2A61228  23.780  19.073   6.532
 4842POPC   C3A61229  23.713  18.819   6.910
 4842POPC   C4A61230  23.838  18.658   7.305
 4842POPC   C1B61231  23.432  19.285   6.173
 4842POPC   C2B61232  23.435  19.462   6.601
 4842POPC   C3B61233  23.595  19.342   6.967
 4842POPC   C4B61234  23.738  19.150   7.304
 4843POPC   NC361235   5.609  12.370   5.302
 4843POPC   PO461236   5.178  11.830   5.394
 4843POPC   GL161237   5.024  11.992   5.835
 4843POPC   GL261238   4.726  12.235   5.855
 4843POPC   C1A61239   4.811  11.884   6.220
 4843POPC   D2A61240   4.774  11.986   6.626
 4843POPC   C3A61241   5.139  11.872   6.886
 4843POPC   C4A61242   5.455  11.889   7.203
 4843POPC   C1B61243   4.928  12.370   6.275
 4843POPC   C2B61244   5.146  12.345   6.678
 4843POPC   C3B61245   5.185  12.341   7.134
 4843POPC   C4B61246   5.113  12.674   7.434
 4844POPC   NC361247  25.593  12.916   5.572
 4844POPC   PO461248  26.164  13.204   5.236
 4844POPC   GL161249  26.223  12.989   5.736
 4844POPC   GL261250  25.927  12.979   5.931
 4844POPC   C1A61251  26.284  12.813   6.213
 4844POPC   D2A61252  26.049  12.932   6.615
 4844POPC   C3A61253  26.140  12.762   7.039
 4844POPC   C4A61254  26.306  12.663   7.445
 4844POPC   C1B61255  25.679  12.819   6.245
 4844POPC   C2B61256  25.552  13.120   6.516
 4844POPC   C3B61257  25.674  13.208   6.897
 4844POPC   C4B61258  25.635  12.870   7.159
 4845POPC   NC361259  37.412  25.922   5.506
 4845POPC   PO461260  37.877  26.379   5.287
 4845POPC   GL161261  37.718  26.286   5.720
 4845POPC   GL261262  37.341  26.299   5.841
 4845POPC   C1A61263  37.761  26.142   6.148
 4845POPC   D2A61264  38.027  26.261   6.490
 4845POPC   C3A61265  37.826  26.247   6.845
 4845POPC   C4A61266  37.779  26.060   7.199
 4845POPC   C1B61267  37.294  25.934   6.150
 4845POPC   C2B61268  37.473  25.909   6.570
 4845POPC   C3B61269  37.329  26.007   6.975
 4845POPC   C4B61270  37.394  25.842   7.411
 4846POPC   NC361271   2.248  27.627   5.352
 4846POPC   PO461272   1.602  27.368   5.214
 4846POPC   GL161273   1.801  27.451   5.654
 4846POPC   GL261274   2.155  27.425   5.797
 4846POPC   C1A61275   1.798  27.445   6.128
 4846POPC   D2A61276   1.886  27.622   6.534
 4846POPC   C3A61277   1.799  27.376   6.860
 4846POPC   C4A61278   1.775  27.606   7.216
 4846POPC   C1B61279   2.296  27.563   6.227
 4846POPC   C2B61280   2.368  27.416   6.662
 4846POPC   C3B61281   2.267  27.465   7.125
 4846POPC   C4B61282   2.439  27.811   7.412
 4847POPC   NC361283  15.079  31.905   5.533
 4847POPC   PO461284  15.536  31.346   5.542
 4847POPC   GL161285  15.250  31.522   5.854
 4847POPC   GL261286  15.068  31.205   5.961
 4847POPC   C1A61287  15.057  31.653   6.242
 4847POPC   D2A61288  14.932  31.348   6.548
 4847POPC   C3A61289  14.836  31.531   6.941
 4847POPC   C4A61290  14.881  31.666   7.367
 4847POPC   C1B61291  15.410  31.176   6.264
 4847POPC   C2B61292  15.550  31.134   6.690
 4847POPC   C3B61293  15.260  31.216   7.034
 4847POPC   C4B61294  15.332  31.455   7.418
 4848POPC   NC361295  23.195  19.870   5.575
 4848POPC   PO461296  22.865  20.328   5.253
 4848POPC   GL161297  22.731  20.068   5.662
 4848POPC   GL261298  22.726  19.698   5.742
 4848POPC   C1A61299  22.874  19.963   6.146
 4848POPC   D2A61300  22.797  19.760   6.562
 4848POPC   C3A61301  22.929  19.911   7.008
 4848POPC   C4A61302  22.976  19.662   7.382
 4848POPC   C1B61303  22.932  19.429   6.060
 4848POPC   C2B61304  22.969  19.287   6.495
 4848POPC   C3B61305  23.034  19.406   6.937
 4848POPC   C4B61306  23.229  19.189   7.293
 4849POPC   NC361307  37.077  23.664   5.384
 4849POPC   PO461308  37.330  23.121   5.793
 4849POPC   GL161309  36.977  23.429   5.830
 4849POPC   GL261310  37.062  23.815   5.856
 4849POPC   C1A61311  36.742  23.569   6.192
 4849POPC   D2A61312  37.009  23.540   6.564
 4849POPC   C3A61313  36.842  23.346   6.918
 4849POPC   C4A61314  37.022  23.446   7.304
 4849POPC   C1B61315  37.197  24.048   6.187
 4849POPC   C2B61316  37.056  24.059   6.604
 4849POPC   C3B61317  37.072  23.869   7.016
 4849POPC   C4B61318  37.001  23.926   7.476
 4850POPC   NC361319   0.177  10.997   5.575
 4850POPC   PO461320   0.427  11.581   5.529
 4850POPC   GL161321   0.435  11.375   5.911
 4850POPC   GL261322   0.585  11.094   5.871
 4850POPC   C1A61323   0.535  11.326   6.356
 4850POPC   D2A61324   0.617  11.627   6.700
 4850POPC   C3A61325   0.397  11.467   7.090
 4850POPC   C4A61326   0.568  11.436   7.502
 4850POPC   C1B61327   0.883  10.990   6.138
 4850POPC   C2B61328   0.975  11.110   6.548
 4850POPC   C3B61329   0.796  11.196   6.924
 4850POPC   C4B61330   0.980  11.207   7.308
 4851POPC   NC361331  38.366  36.815   5.395
 4851POPC   PO461332  38.929  37.099   5.442
 4851POPC   GL161333  38.690  36.918   5.812
 4851POPC   GL261334  38.359  37.061   5.872
 4851POPC   C1A61335  38.542  36.774   6.261
 4851POPC   D2A61336  38.473  37.035   6.675
 4851POPC   C3A61337  38.603  36.932   7.110
 4851POPC   C4A61338  38.578  36.725   7.520
 4851POPC   C1B61339  38.204  37.213   6.274
 4851POPC   C2B61340  37.948  37.148   6.657
 4851POPC   C3B61341  38.069  36.957   7.040
 4851POPC   C4B61342  38.198  37.115   7.455
 4852POPC   NC361343  36.386  10.103   5.404
 4852POPC   PO461344  36.269  10.869   5.327
 4852POPC   GL161345  35.992  10.682   5.660
 4852POPC   GL261346  36.037  10.312   5.740
 4852POPC   C1A61347  36.055  10.716   6.100
 4852POPC   D2A61348  36.258  10.660   6.486
 4852POPC   C3A61349  36.032  10.745   6.861
 4852POPC   C4A61350  35.831  10.521   7.196
 4852POPC   C1B61351  36.347  10.246   6.104
 4852POPC   C2B61352  36.381  10.157   6.567
 4852POPC   C3B61353  36.171  10.220   6.984
 4852POPC   C4B61354  36.186  10.181   7.491
 4853POPC   NC361355  32.592  34.641   5.501
 4853POPC   PO461356  33.088  34.368   5.245
 4853POPC   GL161357  33.148  34.599   5.690
 4853POPC   GL261358  32.845  34.556   5.910
 4853POPC   C1A61359  33.266  34.593   6.178
 4853POPC   D2A61360  33.070  34.586   6.601
 4853POPC   C3A61361  33.259  34.764   7.008
 4853POPC   C4A61362  33.133  34.578   7.437
 4853POPC   C1B61363  32.788  34.852   6.223
 4853POPC   C2B61364  32.648  34.827   6.633
 4853POPC   C3B61365  32.746  34.723   7.082
 4853POPC   C4B61366  32.684  34.839   7.517
 4854POPC   NC361367  34.232  14.954   5.388
 4854POPC   PO461368  34.759  15.320   5.320
 4854POPC   GL161369  34.488  15.363   5.688
 4854POPC   GL261370  34.556  15.034   5.769
 4854POPC   C1A61371  34.426  15.385   6.155
 4854POPC   D2A61372  34.665  15.373   6.553
 4854POPC   C3A61373  34.459  15.293   6.938
 4854POPC   C4A61374  34.636  15.349   7.338
 4854POPC   C1B61375  34.440  14.839   6.138
 4854POPC   C2B61376  34.414  14.943   6.558
 4854POPC   C3B61377  34.640  14.779   6.929
 4854POPC   C4B61378  34.847  14.851   7.325
 4855POPC   NC361379  13.155  14.244   5.282
 4855POPC   PO461380  13.719  14.562   5.365
 4855POPC   GL161381  13.751  14.378   5.775
 4855POPC   GL261382  13.445  14.193   5.823
 4855POPC   C1A61383  13.805  14.244   6.188
 4855POPC   D2A61384  13.677  14.556   6.496
 4855POPC   C3A61385  13.546  14.427   6.889
 4855POPC   C4A61386  13.649  14.532   7.313
 4855POPC   C1B61387  13.269  14.365   6.224
 4855POPC   C2B61388  13.100  14.264   6.654
 4855POPC   C3B61389  13.214  14.068   7.078
 4855POPC   C4B61390  13.246  14.213   7.561
 4856POPC   NC361391   9.283  37.945   5.388
 4856POPC   PO461392  10.004  37.937   5.444
 4856POPC   GL161393   9.830  37.702   5.804
 4856POPC   GL261394   9.449  37.709   5.829
 4856POPC   C1A61395   9.872  37.674   6.249
 4856POPC   D2A61396   9.671  37.712   6.646
 4856POPC   C3A61397   9.919  37.770   7.020
 4856POPC   C4A61398   9.956  37.523   7.380
 4856POPC   C1B61399   9.413  37.447   6.215
 4856POPC   C2B61400   9.580  37.216   6.598
 4856POPC   C3B61401   9.594  37.345   7.043
 4856POPC   C4B61402   9.544  37.266   7.507
 4857POPC   NC361403   9.515  14.393   5.538
 4857POPC   PO461404  10.054  14.229   5.286
 4857POPC   GL161405   9.943  14.305   5.763
 4857POPC   GL261406  10.095  14.539   5.959
 4857POPC   C1A61407   9.644  14.409   6.170
 4857POPC   D2A61408   9.539  14.251   6.601
 4857POPC   C3A61409   9.594  14.514   6.954
 4857POPC   C4A61410   9.715  14.428   7.370
 4857POPC   C1B61411  10.053  14.122   6.225
 4857POPC   C2B61412   9.931  13.921   6.571
 4857POPC   C3B61413   9.996  14.147   6.932
 4857POPC   C4B61414  10.029  13.993   7.320
 4858POPC   NC361415  19.066  24.254   5.196
 4858POPC   PO461416  18.948  23.682   5.526
 4858POPC   GL161417  19.220  23.639   5.884
 4858POPC   GL261418  19.260  23.264   5.724
 4858POPC   C1A61419  19.245  23.918   6.308
 4858POPC   D2A61420  19.045  24.124   6.702
 4858POPC   C3A61421  18.882  23.890   7.046
 4858POPC   C4A61422  19.195  23.633   7.243
 4858POPC   C1B61423  18.929  23.259   6.062
 4858POPC   C2B61424  18.957  23.523   6.410
 4858POPC   C3B61425  18.929  23.432   6.814
 4858POPC   C4B61426  18.774  23.339   7.184
 4859POPC   NC361427   5.428  41.187   5.572
 4859POPC   PO461428   5.199  40.646   5.406
 4859POPC   GL161429   5.010  40.771   5.789
 4859POPC   GL261430   4.883  41.147   5.732
 4859POPC   C1A61431   4.983  40.554   6.217
 4859POPC   D2A61432   5.054  40.321   6.625
 4859POPC   C3A61433   5.043  40.613   6.966
 4859POPC   C4A61434   5.319  40.765   7.274
 4859POPC   C1B61435   5.062  41.108   6.168
 4859POPC   C2B61436   5.197  40.987   6.593
 4859POPC   C3B61437   5.076  41.133   7.008
 4859POPC   C4B61438   4.850  40.970   7.371
 4860POPC   NC361439  14.826  17.934   5.420
 4860POPC   PO461440  15.506  17.978   5.494
 4860POPC   GL161441  15.217  18.115   5.797
 4860POPC   GL261442  15.334  18.457   5.906
 4860POPC   C1A61443  14.996  18.104   6.191
 4860POPC   D2A61444  15.049  18.332   6.585
 4860POPC   C3A61445  15.000  18.111   6.962
 4860POPC   C4A61446  15.069  18.214   7.392
 4860POPC   C1B61447  15.469  18.258   6.320
 4860POPC   C2B61448  15.491  18.080   6.720
 4860POPC   C3B61449  15.509  18.088   7.162
 4860POPC   C4B61450  15.547  17.998   7.619
 4861POPC   NC361451  32.392  15.731   5.685
 4861POPC   PO461452  32.002  16.285   5.526
 4861POPC   GL161453  32.173  16.144   5.857
 4861POPC   GL261454  31.944  15.871   5.914
 4861POPC   C1A61455  32.412  16.286   6.215
 4861POPC   D2A61456  32.522  16.103   6.614
 4861POPC   C3A61457  32.352  16.250   7.015
 4861POPC   C4A61458  32.229  16.109   7.448
 4861POPC   C1B61459  32.074  15.908   6.311
 4861POPC   C2B61460  32.031  15.961   6.711
 4861POPC   C3B61461  32.204  15.762   7.053
 4861POPC   C4B61462  31.839  15.921   7.203
 4862POPC   NC361463  22.273  44.835   5.261
 4862POPC   PO461464  22.195  44.238   5.233
 4862POPC   GL161465  22.164  44.504   5.705
 4862POPC   GL261466  21.889  44.683   5.787
 4862POPC   C1A61467  22.133  44.819   6.181
 4862POPC   D2A61468  22.392  44.988   6.527
 4862POPC   C3A61469  22.355  44.869   6.957
 4862POPC   C4A61470  22.219  44.827   7.378
 4862POPC   C1B61471  21.936  44.369   6.179
 4862POPC   C2B61472  22.157  44.382   6.625
 4862POPC   C3B61473  22.095  44.421   7.078
 4862POPC   C4B61474  21.896  44.262   7.434
 4863POPC   NC361475  28.007  23.772   5.410
 4863POPC   PO461476  28.631  23.899   5.436
 4863POPC   GL161477  28.537  23.621   5.804
 4863POPC   GL261478  28.174  23.586   5.862
 4863POPC   C1A61479  28.506  23.679   6.273
 4863POPC   D2A61480  28.487  23.910   6.689
 4863POPC   C3A61481  28.458  23.694   7.089
 4863POPC   C4A61482  28.289  23.998   7.391
 4863POPC   C1B61483  28.080  23.390   6.266
 4863POPC   C2B61484  28.157  23.445   6.732
 4863POPC   C3B61485  27.976  23.517   7.154
 4863POPC   C4B61486  27.919  23.357   7.571
 4864POPC   NC361487  37.482   2.951   5.525
 4864POPC   PO461488  37.935   2.505   5.218
 4864POPC   GL161489  37.883   2.630   5.691
 4864POPC   GL261490  37.944   2.924   5.782
 4864POPC   C1A61491  37.640   2.641   6.138
 4864POPC   D2A61492  37.388   2.813   6.468
 4864POPC   C3A61493  37.524   2.944   6.894
 4864POPC   C4A61494  37.648   2.704   7.226
 4864POPC   C1B61495  38.114   2.747   6.192
 4864POPC   C2B61496  37.922   2.761   6.615
 4864POPC   C3B61497  38.051   2.942   7.021
 4864POPC   C4B61498  38.125   2.825   7.460
 4865POPC   NC361499  26.412  25.038   5.083
 4865POPC   PO461500  25.924  25.353   5.487
 4865POPC   GL161501  26.199  25.375   5.856
 4865POPC   GL261502  26.280  25.732   5.953
 4865POPC   C1A61503  26.226  25.182   6.290
 4865POPC   D2A61504  26.334  25.369   6.677
 4865POPC   C3A61505  26.216  25.186   7.034
 4865POPC   C4A61506  26.295  25.082   7.440
 4865POPC   C1B61507  25.910  25.615   6.210
 4865POPC   C2B61508  25.799  25.409   6.576
 4865POPC   C3B61509  25.694  25.315   6.984
 4865POPC   C4B61510  25.933  25.467   7.328
 4866POPC   NC361511  36.501  36.853   5.651
 4866POPC   PO461512  35.909  36.567   5.474
 4866POPC   GL161513  36.054  36.707   5.873
 4866POPC   GL261514  36.084  37.090   5.889
 4866POPC   C1A61515  35.958  36.761   6.310
 4866POPC   D2A61516  36.018  37.105   6.591
 4866POPC   C3A61517  36.123  36.981   6.988
 4866POPC   C4A61518  36.146  36.980   7.424
 4866POPC   C1B61519  36.401  37.104   6.237
 4866POPC   C2B61520  36.552  37.003   6.657
 4866POPC   C3B61521  36.545  37.264   7.038
 4866POPC   C4B61522  36.323  37.432   7.389
 4867POPC   NC361523   4.424  26.546   5.326
 4867POPC   PO461524   3.979  26.935   5.170
 4867POPC   GL161525   4.321  26.882   5.679
 4867POPC   GL261526   4.547  26.679   5.876
 4867POPC   C1A61527   4.143  26.839   6.160
 4867POPC   D2A61528   4.111  26.617   6.575
 4867POPC   C3A61529   4.115  26.909   6.933
 4867POPC   C4A61530   4.423  26.972   7.263
 4867POPC   C1B61531   4.592  27.080   6.134
 4867POPC   C2B61532   4.443  27.056   6.560
 4867POPC   C3B61533   4.569  26.700   6.788
 4867POPC   C4B61534   4.860  26.571   7.054
 4868POPC   NC361535  38.002  35.516   5.639
 4868POPC   PO461536  38.634  35.466   5.303
 4868POPC   GL161537  38.717  35.436   5.757
 4868POPC   GL261538  38.418  35.239   5.810
 4868POPC   C1A61539  38.805  35.300   6.209
 4868POPC   D2A61540  38.634  35.464   6.627
 4868POPC   C3A61541  38.782  35.341   7.037
 4868POPC   C4A61542  38.730  34.955   7.291
 4868POPC   C1B61543  38.314  35.479   6.204
 4868POPC   C2B61544  38.103  35.369   6.599
 4868POPC   C3B61545  38.221  35.550   6.966
 4868POPC   C4B61546  38.395  35.439   7.345
 4869POPC   NC361547  38.512  41.724   5.367
 4869POPC   PO461548  38.707  41.020   5.284
 4869POPC   GL161549  38.708  41.374   5.673
 4869POPC   GL261550  38.324  41.457   5.753
 4869POPC   C1A61551  38.589  41.711   6.061
 4869POPC   D2A61552  38.554  41.564   6.490
 4869POPC   C3A61553  38.698  41.788   6.843
 4869POPC   C4A61554  38.580  41.683   7.248
 4869POPC   C1B61555  38.139  41.475   6.187
 4869POPC   C2B61556  37.958  41.362   6.591
 4869POPC   C3B61557  38.189  41.431   6.959
 4869POPC   C4B61558  38.070  41.642   7.333
 4870POPC   NC361559  11.932  29.082   5.304
 4870POPC   PO461560  12.586  29.107   5.366
 4870POPC   GL161561  12.236  28.928   5.698
 4870POPC   GL261562  11.924  29.122   5.828
 4870POPC   C1A61563  12.222  28.918   6.189
 4870POPC   D2A61564  12.265  29.191   6.591
 4870POPC   C3A61565  12.079  29.075   7.009
 4870POPC   C4A61566  11.900  28.964   7.397
 4870POPC   C1B61567  11.797  29.250   6.274
 4870POPC   C2B61568  11.782  29.392   6.744
 4870POPC   C3B61569  11.699  29.403   7.241
 4870POPC   C4B61570  11.813  29.364   7.712
 4871POPC   NC361571   3.944   9.274   5.561
 4871POPC   PO461572   3.517   8.722   5.479
 4871POPC   GL161573   3.480   8.728   5.904
 4871POPC   GL261574   3.530   9.082   5.868
 4871POPC   C1A61575   3.423   8.735   6.348
 4871POPC   D2A61576   3.406   8.991   6.732
 4871POPC   C3A61577   3.388   8.744   7.073
 4871POPC   C4A61578   3.653   8.499   7.359
 4871POPC   C1B61579   3.515   9.229   6.286
 4871POPC   C2B61580   3.316   9.546   6.575
 4871POPC   C3B61581   3.409   9.595   7.009
 4871POPC   C4B61582   3.631   9.233   7.158
 4872POPC   NC361583   2.337  35.190   5.478
 4872POPC   PO461584   1.926  35.685   5.599
 4872POPC   GL161585   1.944  35.269   5.786
 4872POPC   GL261586   2.260  35.356   5.975
 4872POPC   C1A61587   1.850  35.117   6.195
 4872POPC   D2A61588   1.971  35.487   6.400
 4872POPC   C3A61589   2.117  35.532   6.800
 4872POPC   C4A61590   2.053  35.759   7.191
 4872POPC   C1B61591   2.364  35.032   6.296
 4872POPC   C2B61592   2.148  34.788   6.601
 4872POPC   C3B61593   1.964  35.013   6.929
 4872POPC   C4B61594   2.183  35.255   7.213
 4873POPC   NC361595  39.227  21.571   4.923
 4873POPC   PO461596  39.073  21.131   5.467
 4873POPC   GL161597  39.203  21.320   5.825
 4873POPC   GL261598  39.232  21.022   5.961
 4873POPC   C1A61599  39.200  21.556   6.210
 4873POPC   D2A61600  39.437  21.559   6.612
 4873POPC   C3A61601  39.144  21.474   6.926
 4873POPC   C4A61602  38.893  21.589   7.240
 4873POPC   C1B61603  39.435  21.111   6.309
 4873POPC   C2B61604  39.412  21.031   6.696
 4873POPC   C3B61605  39.531  21.190   7.051
 4873POPC   C4B61606  39.275  21.277   7.394
 4874POPC   NC361607  20.849  35.610   5.270
 4874POPC   PO461608  20.488  35.136   5.356
 4874POPC   GL161609  20.552  35.203   5.786
 4874POPC   GL261610  20.853  35.392   5.775
 4874POPC   C1A61611  20.539  35.428   6.194
 4874POPC   D2A61612  20.371  35.647   6.555
 4874POPC   C3A61613  20.363  35.371   6.881
 4874POPC   C4A61614  20.383  35.374   7.318
 4874POPC   C1B61615  21.000  35.157   6.136
 4874POPC   C2B61616  20.808  35.112   6.544
 4874POPC   C3B61617  20.922  35.267   6.946
 4874POPC   C4B61618  20.890  35.364   7.375
 4875POPC   NC361619  43.899  41.840   5.448
 4875POPC   PO461620  44.141  41.268   5.329
 4875POPC   GL161621  44.079  41.435   5.741
 4875POPC   GL261622  44.386  41.620   5.815
 4875POPC   C1A61623  43.728  41.541   6.052
 4875POPC   D2A61624  43.627  41.462   6.498
 4875POPC   C3A61625  43.828  41.616   6.848
 4875POPC   C4A61626  43.659  41.804   7.211
 4875POPC   C1B61627  44.229  41.591   6.215
 4875POPC   C2B61628  44.433  41.523   6.572
 4875POPC   C3B61629  44.278  41.409   6.931
 4875POPC   C4B61630  44.071  41.531   7.293
 4876POPC   NC361631  42.635  16.800   5.376
 4876POPC   PO461632  43.323  16.775   5.356
 4876POPC   GL161633  43.024  16.818   5.733
 4876POPC   GL261634  42.778  16.532   5.837
 4876POPC   C1A61635  43.016  16.961   6.168
 4876POPC   D2A61636  43.265  17.038   6.510
 4876POPC   C3A61637  43.089  17.042   6.901
 4876POPC   C4A61638  42.852  16.822   7.205
 4876POPC   C1B61639  43.012  16.469   6.266
 4876POPC   C2B61640  43.051  16.564   6.712
 4876POPC   C3B61641  42.956  16.344   7.095
 4876POPC   C4B61642  43.021  16.388   7.547
 4877POPC   NC361643  37.692   7.608   4.918
 4877POPC   PO461644  37.850   7.117   5.368
 4877POPC   GL161645  37.698   7.291   5.800
 4877POPC   GL261646  37.945   7.468   6.017
 4877POPC   C1A61647  37.397   7.306   6.188
 4877POPC   D2A61648  37.452   7.185   6.637
 4877POPC   C3A61649  37.636   7.449   7.004
 4877POPC   C4A61650  37.659   7.419   7.502
 4877POPC   C1B61651  37.736   7.637   6.406
 4877POPC   C2B61652  37.900   7.858   6.773
 4877POPC   C3B61653  38.162   7.783   7.161
 4877POPC   C4B61654  38.017   7.752   7.634
 4878POPC   NC361655   8.344  29.856   5.439
 4878POPC   PO461656   7.633  29.793   5.449
 4878POPC   GL161657   7.937  30.000   5.759
 4878POPC   GL261658   8.235  29.843   5.931
 4878POPC   C1A61659   7.952  30.143   6.207
 4878POPC   D2A61660   8.120  30.174   6.606
 4878POPC   C3A61661   7.878  30.100   6.957
 4878POPC   C4A61662   8.140  29.938   7.208
 4878POPC   C1B61663   8.340  29.795   6.347
 4878POPC   C2B61664   8.217  29.654   6.745
 4878POPC   C3B61665   8.439  29.552   7.127
 4878POPC   C4B61666   8.804  29.571   7.380
 4879POPC   NC361667  44.430  23.292   5.623
 4879POPC   PO461668  44.729  23.761   5.190
 4879POPC   GL161669  44.759  23.793   5.660
 4879POPC   GL261670  44.425  23.783   5.831
 4879POPC   C1A61671  44.911  23.737   6.103
 4879POPC   D2A61672  44.716  23.647   6.503
 4879POPC   C3A61673  44.782  23.795   6.901
 4879POPC   C4A61674  44.752  23.677   7.297
 4879POPC   C1B61675  44.294  23.577   6.235
 4879POPC   C2B61676  44.327  23.359   6.654
 4879POPC   C3B61677  44.340  23.434   7.119
 4879POPC   C4B61678  44.425  23.366   7.593
 4880POPC   NC361679  12.440  27.699   5.447
 4880POPC   PO461680  13.067  27.499   5.234
 4880POPC   GL161681  13.034  27.647   5.681
 4880POPC   GL261682  12.736  27.818   5.865
 4880POPC   C1A61683  13.041  27.470   6.101
 4880POPC   D2A61684  12.921  27.640   6.504
 4880POPC   C3A61685  12.906  27.342   6.848
 4880POPC   C4A61686  13.152  27.366   7.225
 4880POPC   C1B61687  12.491  27.802   6.286
 4880POPC   C2B61688  12.451  27.656   6.762
 4880POPC   C3B61689  12.587  27.586   7.200
 4880POPC   C4B61690  12.477  27.762   7.619
 4881POPC   NC361691  42.979  37.861   5.434
 4881POPC   PO461692  43.096  37.277   5.349
 4881POPC   GL161693  43.194  37.585   5.802
 4881POPC   GL261694  42.922  37.819   5.942
 4881POPC   C1A61695  43.274  37.746   6.289
 4881POPC   D2A61696  42.900  37.874   6.579
 4881POPC   C3A61697  42.971  37.800   7.030
 4881POPC   C4A61698  43.313  37.916   7.317
 4881POPC   C1B61699  42.879  37.445   6.225
 4881POPC   C2B61700  43.043  37.394   6.651
 4881POPC   C3B61701  42.928  37.257   7.075
 4881POPC   C4B61702  43.054  37.333   7.528
 4882POPC   NC361703  33.208  44.868   5.364
 4882POPC   PO461704  33.099  44.317   5.554
 4882POPC   GL161705  33.116  44.691   5.855
 4882POPC   GL261706  32.906  44.992   5.758
 4882POPC   C1A61707  32.873  44.651   6.258
 4882POPC   D2A61708  32.739  44.536   6.695
 4882POPC   C3A61709  33.075  44.402   7.010
 4882POPC   C4A61710  33.258  44.137   7.338
 4882POPC   C1B61711  33.032   0.117   6.184
 4882POPC   C2B61712  33.142  44.928   6.590
 4882POPC   C3B61713  33.016  44.896   7.009
 4882POPC   C4B61714  33.188  44.980   7.403
 4883POPC   NC361715   0.095  43.023   5.585
 4883POPC   PO461716  44.520  43.437   5.555
 4883POPC   GL161717  44.663  43.131   5.834
 4883POPC   GL261718  44.453  42.797   5.794
 4883POPC   C1A61719  44.887  43.264   6.229
 4883POPC   D2A61720  44.679  43.263   6.630
 4883POPC   C3A61721  44.791  43.394   7.025
 4883POPC   C4A61722  44.484  43.318   7.343
 4883POPC   C1B61723  44.513  42.898   6.248
 4883POPC   C2B61724  44.305  42.929   6.665
 4883POPC   C3B61725  44.438  42.874   7.082
 4883POPC   C4B61726  44.157  42.698   7.363
 4884POPC   NC361727  31.235   8.954   5.582
 4884POPC   PO461728  31.734   8.609   5.307
 4884POPC   GL161729  31.672   8.761   5.745
 4884POPC   GL261730  31.623   9.143   5.858
 4884POPC   C1A61731  31.511   8.769   6.192
 4884POPC   D2A61732  31.655   9.041   6.507
 4884POPC   C3A61733  31.538   9.117   6.930
 4884POPC   C4A61734  31.354   8.864   7.251
 4884POPC   C1B61735  31.278   9.259   6.207
 4884POPC   C2B61736  31.094   9.232   6.686
 4884POPC   C3B61737  31.143   9.364   7.160
 4884POPC   C4B61738  31.357   9.235   7.596
 4885POPC   NC361739  38.011  14.679   5.589
 4885POPC   PO461740  37.458  14.685   5.230
 4885POPC   GL161741  37.483  14.320   5.628
 4885POPC   GL261742  37.805  14.339   5.903
 4885POPC   C1A61743  37.333  14.245   6.068
 4885POPC   D2A61744  37.418  14.147   6.491
 4885POPC   C3A61745  37.743  14.286   6.793
 4885POPC   C4A61746  37.542  14.340   7.186
 4885POPC   C1B61747  38.054  14.674   6.223
 4885POPC   C2B61748  38.241  14.587   6.615
 4885POPC   C3B61749  38.216  14.733   7.021
 4885POPC   C4B61750  38.021  14.476   7.290
 4886POPC   NC361751  31.722  12.752   5.589
 4886POPC   PO461752  31.041  12.649   5.449
 4886POPC   GL161753  31.210  12.890   5.789
 4886POPC   GL261754  31.339  12.584   5.882
 4886POPC   C1A61755  31.441  12.990   6.196
 4886POPC   D2A61756  31.633  13.149   6.570
 4886POPC   C3A61757  31.599  12.859   6.884
 4886POPC   C4A61758  31.372  12.794   7.248
 4886POPC   C1B61759  31.054  12.615   6.222
 4886POPC   C2B61760  31.142  12.362   6.574
 4886POPC   C3B61761  31.431  12.354   6.917
 4886POPC   C4B61762  31.186  12.329   7.250
 4887POPC   NC361763  29.644   2.537   5.674
 4887POPC   PO461764  30.043   3.094   5.430
 4887POPC   GL161765  29.946   2.920   5.838
 4887POPC   GL261766  30.166   2.648   5.778
 4887POPC   C1A61767  29.743   2.734   6.264
 4887POPC   D2A61768  29.657   2.448   6.625
 4887POPC   C3A61769  29.742   2.576   7.060
 4887POPC   C4A61770  29.757   2.902   7.427
 4887POPC   C1B61771  30.250   2.721   6.220
 4887POPC   C2B61772  30.129   2.620   6.630
 4887POPC   C3B61773  30.272   2.522   7.026
 4887POPC   C4B61774  30.144   2.595   7.455
 4888POPC   NC361775  13.935  30.601   5.346
 4888POPC   PO461776  14.571  30.800   5.354
 4888POPC   GL161777  14.340  30.787   5.735
 4888POPC   GL261778  14.619  30.946   5.866
 4888POPC   C1A61779  14.354  30.600   6.164
 4888POPC   D2A61780  14.414  30.360   6.527
 4888POPC   C3A61781  14.270  30.535   6.899
 4888POPC   C4A61782  14.487  30.547   7.279
 4888POPC   C1B61783  14.723  30.934   6.293
 4888POPC   C2B61784  14.654  30.803   6.711
 4888POPC   C3B61785  14.839  30.862   7.109
 4888POPC   C4B61786  14.763  30.779   7.606
 4889POPC   NC361787  26.332  32.797   5.447
 4889POPC   PO461788  25.850  33.232   5.375
 4889POPC   GL161789  26.016  33.062   5.749
 4889POPC   GL261790  26.185  33.277   5.986
 4889POPC   C1A61791  26.127  32.786   6.098
 4889POPC   D2A61792  26.222  32.769   6.542
 4889POPC   C3A61793  26.070  33.082   6.844
 4889POPC   C4A61794  26.230  33.221   7.242
 4889POPC   C1B61795  25.788  33.190   6.195
 4889POPC   C2B61796  25.648  33.280   6.602
 4889POPC   C3B61797  25.452  33.158   6.960
 4889POPC   C4B61798  25.721  33.023   7.234
 4890POPC   NC361799  38.028  12.017   5.501
 4890POPC   PO461800  37.342  12.050   5.292
 4890POPC   GL161801  37.547  12.127   5.726
 4890POPC   GL261802  37.847  12.282   5.924
 4890POPC   C1A61803  37.465  12.069   6.186
 4890POPC   D2A61804  37.471  11.837   6.562
 4890POPC   C3A61805  37.398  11.991   6.984
 4890POPC   C4A61806  37.718  11.826   7.255
 4890POPC   C1B61807  38.050  11.952   6.136
 4890POPC   C2B61808  38.154  11.862   6.526
 4890POPC   C3B61809  37.875  12.057   6.823
 4890POPC   C4B61810  37.998  12.232   7.214
 4891POPC   NC361811  30.293  38.730   5.559
 4891POPC   PO461812  29.820  38.276   5.585
 4891POPC   GL161813  29.864  38.556   5.877
 4891POPC   GL261814  29.563  38.770   5.946
 4891POPC   C1A61815  29.927  38.645   6.310
 4891POPC   D2A61816  29.924  38.464   6.709
 4891POPC   C3A61817  30.139  38.676   7.098
 4891POPC   C4A61818  30.237  38.864   7.510
 4891POPC   C1B61819  29.476  38.325   6.131
 4891POPC   C2B61820  29.321  38.202   6.514
 4891POPC   C3B61821  29.446  38.288   6.902
 4891POPC   C4B61822  29.776  38.336   7.172
 4892POPC   NC361823  16.522  31.083   5.249
 4892POPC   PO461824  17.014  31.529   5.302
 4892POPC   GL161825  16.798  31.392   5.668
 4892POPC   GL261826  16.545  31.634   5.817
 4892POPC   C1A61827  16.875  31.373   6.116
 4892POPC   D2A61828  16.648  31.395   6.501
 4892POPC   C3A61829  16.845  31.209   6.851
 4892POPC   C4A61830  16.820  31.309   7.268
 4892POPC   C1B61831  16.302  31.641   6.208
 4892POPC   C2B61832  16.300  31.841   6.624
 4892POPC   C3B61833  16.551  31.652   6.950
 4892POPC   C4B61834  16.678  31.810   7.321
 4893POPC   NC361835  30.274  27.384   5.471
 4893POPC   PO461836  30.827  27.473   5.108
 4893POPC   GL161837  30.726  27.653   5.595
 4893POPC   GL261838  30.991  27.499   5.819
 4893POPC   C1A61839  30.654  27.759   6.111
 4893POPC   D2A61840  30.532  27.970   6.558
 4893POPC   C3A61841  30.570  27.687   6.950
 4893POPC   C4A61842  30.385  27.245   6.975
 4893POPC   C1B61843  30.981  27.376   6.300
 4893POPC   C2B61844  30.976  27.328   6.798
 4893POPC   C3B61845  30.955  27.366   7.270
 4893POPC   C4B61846  31.065  27.524   7.695
 4894POPC   NC361847  28.425  11.376   5.443
 4894POPC   PO461848  27.853  11.169   5.436
 4894POPC   GL161849  28.144  11.157   5.823
 4894POPC   GL261850  28.554  11.147   5.877
 4894POPC   C1A61851  28.262  11.449   6.163
 4894POPC   D2A61852  28.424  11.377   6.583
 4894POPC   C3A61853  28.362  11.589   6.957
 4894POPC   C4A61854  28.484  11.478   7.390
 4894POPC   C1B61855  28.405  10.963   6.271
 4894POPC   C2B61856  28.258  10.868   6.696
 4894POPC   C3B61857  28.366  11.073   7.070
 4894POPC   C4B61858  28.534  10.979   7.464
 4895POPC   NC361859  10.083  16.843   5.185
 4895POPC   PO461860   9.484  16.782   5.383
 4895POPC   GL161861   9.828  16.703   5.678
 4895POPC   GL261862   9.777  16.370   5.725
 4895POPC   C1A61863   9.917  16.669   6.141
 4895POPC   D2A61864   9.715  16.676   6.562
 4895POPC   C3A61865   9.888  16.811   6.959
 4895POPC   C4A61866  10.056  16.715   7.374
 4895POPC   C1B61867   9.491  16.360   6.105
 4895POPC   C2B61868   9.513  16.232   6.500
 4895POPC   C3B61869   9.406  16.400   6.887
 4895POPC   C4B61870   9.540  16.561   7.289
 4896POPC   NC361871  22.567  37.452   5.312
 4896POPC   PO461872  21.930  37.799   5.456
 4896POPC   GL161873  22.103  37.746   5.828
 4896POPC   GL261874  22.473  37.688   5.761
 4896POPC   C1A61875  21.940  37.744   6.264
 4896POPC   D2A61876  22.111  37.542   6.625
 4896POPC   C3A61877  21.939  37.747   6.915
 4896POPC   C4A61878  21.958  37.629   7.287
 4896POPC   C1B61879  22.400  37.593   6.193
 4896POPC   C2B61880  22.438  37.911   6.468
 4896POPC   C3B61881  22.518  37.766   6.836
 4896POPC   C4B61882  22.434  37.791   7.236
 4897POPC   NC361883  36.725  28.317   5.340
 4897POPC   PO461884  37.247  28.723   5.253
 4897POPC   GL161885  36.848  28.689   5.629
 4897POPC   GL261886  36.957  28.320   5.819
 4897POPC   C1A61887  36.632  28.624   6.069
 4897POPC   D2A61888  36.705  28.343   6.447
 4897POPC   C3A61889  36.604  28.484   6.872
 4897POPC   C4A61890  36.752  28.178   7.145
 4897POPC   C1B61891  37.300  28.165   6.176
 4897POPC   C2B61892  37.427  28.149   6.595
 4897POPC   C3B61893  37.143  28.386   6.838
 4897POPC   C4B61894  37.089  28.543   7.242
 4898POPC   NC361895  35.493  29.686   5.545
 4898POPC   PO461896  35.262  29.055   5.350
 4898POPC   GL161897  35.180  29.053   5.784
 4898POPC   GL261898  34.873  28.852   5.768
 4898POPC   C1A61899  35.369  29.260   6.171
 4898POPC   D2A61900  35.621  29.114   6.553
 4898POPC   C3A61901  35.556  29.389   6.930
 4898POPC   C4A61902  35.470  29.326   7.360
 4898POPC   C1B61903  34.999  28.885   6.236
 4898POPC   C2B61904  35.101  29.149   6.608
 4898POPC   C3B61905  35.146  29.080   7.045
 4898POPC   C4B61906  34.917  28.802   7.279
 4899POPC   NC361907  34.847   0.090   5.396
 4899POPC   PO461908  34.986   0.730   5.388
 4899POPC   GL161909  35.038   0.378   5.795
 4899POPC   GL261910  35.330   0.507   6.015
 4899POPC   C1A61911  35.094   0.145   6.227
 4899POPC   D2A61912  35.082   0.222   6.644
 4899POPC   C3A61913  35.357   0.190   6.965
 4899POPC   C4A61914  35.288   0.462   7.251
 4899POPC   C1B61915  35.601   0.645   6.298
 4899POPC   C2B61916  35.463   0.641   6.730
 4899POPC   C3B61917  35.737   0.616   7.059
 4899POPC   C4B61918  35.997   0.648   7.412
 4900POPC   NC361919  43.393  44.915   5.740
 4900POPC   PO461920  42.897   0.050   5.224
 4900POPC   GL161921  42.876  44.710   5.630
 4900POPC   GL261922  43.103  44.475   5.778
 4900POPC   C1A61923  42.680  44.679   6.081
 4900POPC   D2A61924  42.751   0.004   6.442
 4900POPC   C3A61925  42.852  44.889   6.880
 4900POPC   C4A61926  42.939  44.587   7.230
 4900POPC   C1B61927  43.134  44.536   6.254
 4900POPC   C2B61928  42.973  44.403   6.658
 4900POPC   C3B61929  43.103  44.174   7.002
 4900POPC   C4B61930  43.362  44.304   7.333
 4901POPC   NC361931  15.980  10.733   5.306
 4901POPC   PO461932  16.085  10.070   5.465
 4901POPC   GL161933  15.939  10.389   5.711
 4901POPC   GL261934  16.258  10.525   5.716
 4901POPC   C1A61935  15.853  10.482   6.135
 4901POPC   D2A61936  15.912  10.655   6.535
 4901POPC   C3A61937  15.871  10.375   6.856
 4901POPC   C4A61938  15.755  10.621   7.209
 4901POPC   C1B61939  16.291  10.225   6.063
 4901POPC   C2B61940  16.318  10.341   6.457
 4901POPC   C3B61941  16.381  10.469   6.849
 4901POPC   C4B61942  16.276  10.227   7.175
 4902POPC   NC361943  13.008  20.315   5.275
 4902POPC   PO461944  12.613  19.776   5.472
 4902POPC   GL161945  12.679  19.902   5.882
 4902POPC   GL261946  12.372  20.031   5.871
 4902POPC   C1A61947  12.835  19.848   6.325
 4902POPC   D2A61948  13.079  19.774   6.710
 4902POPC   C3A61949  12.822  19.548   7.023
 4902POPC   C4A61950  12.661  19.627   7.431
 4902POPC   C1B61951  12.445  20.201   6.289
 4902POPC   C2B61952  12.310  20.164   6.732
 4902POPC   C3B61953  12.564  19.977   7.073
 4902POPC   C4B61954  13.025  19.968   7.228
 4903POPC   NC361955  20.399  35.961   5.626
 4903POPC   PO461956  20.905  36.064   5.266
 4903POPC   GL161957  20.907  35.923   5.714
 4903POPC   GL261958  20.723  36.140   5.977
 4903POPC   C1A61959  20.987  35.740   6.144
 4903POPC   D2A61960  20.927  35.613   6.581
 4903POPC   C3A61961  20.706  35.784   6.964
 4903POPC   C4A61962  20.689  36.219   7.185
 4903POPC   C1B61963  20.437  36.119   6.338
 4903POPC   C2B61964  20.166  36.129   6.717
 4903POPC   C3B61965  20.235  35.947   7.124
 4903POPC   C4B61966  20.282  36.176   7.526
 4904POPC   NC361967  32.997  28.945   5.426
 4904POPC   PO461968  33.552  29.121   5.145
 4904POPC   GL161969  33.436  29.217   5.639
 4904POPC   GL261970  33.079  29.336   5.767
 4904POPC   C1A61971  33.377  29.141   6.138
 4904POPC   D2A61972  33.065  29.166   6.535
 4904POPC   C3A61973  33.224  29.024   6.975
 4904POPC   C4A61974  33.382  28.859   7.382
 4904POPC   C1B61975  32.792  29.451   6.145
 4904POPC   C2B61976  32.623  29.486   6.594
 4904POPC   C3B61977  32.593  29.153   6.924
 4904POPC   C4B61978  32.804  28.986   7.282
 4905POPC   NC361979  37.558  35.521   5.183
 4905POPC   PO461980  38.019  35.094   5.442
 4905POPC   GL161981  37.751  35.102   5.817
 4905POPC   GL261982  37.508  35.303   5.652
 4905POPC   C1A61983  37.730  35.387   6.227
 4905POPC   D2A61984  37.603  35.653   6.596
 4905POPC   C3A61985  37.705  35.575   7.028
 4905POPC   C4A61986  37.916  35.232   7.263
 4905POPC   C1B61987  37.262  35.361   6.010
 4905POPC   C2B61988  37.223  35.338   6.436
 4905POPC   C3B61989  37.280  35.289   6.833
 4905POPC   C4B61990  37.065  35.038   7.124
 4906POPC   NC361991  43.751  18.688   5.279
 4906POPC   PO461992  43.954  19.268   5.353
 4906POPC   GL161993  43.833  19.245   5.763
 4906POPC   GL261994  44.010  19.512   5.821
 4906POPC   C1A61995  43.850  19.041   6.182
 4906POPC   D2A61996  43.903  18.753   6.529
 4906POPC   C3A61997  43.878  18.931   6.919
 4906POPC   C4A61998  44.205  19.018   7.212
 4906POPC   C1B61999  43.779  19.565   6.196
 4906POPC   C2B62000  43.817  19.399   6.599
 4906POPC   C3B62001  44.052  19.449   6.965
 4906POPC   C4B62002  43.779  19.283   7.269
 4907POPC   NC362003  34.889   6.996   5.082
 4907POPC   PO462004  35.330   6.685   5.490
 4907POPC   GL162005  35.513   6.651   5.872
 4907POPC   GL262006  35.743   6.366   5.870
 4907POPC   C1A62007  35.358   6.793   6.259
 4907POPC   D2A62008  35.191   6.901   6.638
 4907POPC   C3A62009  35.260   6.568   6.910
 4907POPC   C4A62010  35.329   6.788   7.235
 4907POPC   C1B62011  35.498   6.290   6.239
 4907POPC   C2B62012  35.603   6.219   6.627
 4907POPC   C3B62013  35.794   6.320   6.966
 4907POPC   C4B62014  35.588   6.330   7.307
 4908POPC   NC362015  42.111   4.388   5.429
 4908POPC   PO462016  41.550   3.978   5.389
 4908POPC   GL162017  41.493   4.197   5.779
 4908POPC   GL262018  41.757   4.467   5.830
 4908POPC   C1A62019  41.347   4.368   6.189
 4908POPC   D2A62020  41.508   4.679   6.516
 4908POPC   C3A62021  41.277   4.677   6.901
 4908POPC   C4A62022  41.218   4.386   7.269
 4908POPC   C1B62023  41.862   4.111   6.134
 4908POPC   C2B62024  41.967   3.889   6.514
 4908POPC   C3B62025  41.888   4.022   6.927
 4908POPC   C4B62026  41.685   4.400   7.064
 4909POPC   NC362027  26.502  41.863   5.140
 4909POPC   PO462028  26.064  42.342   5.283
 4909POPC   GL162029  26.226  42.138   5.655
 4909POPC   GL262030  25.908  42.111   5.809
 4909POPC   C1A62031  26.338  42.262   6.106
 4909POPC   D2A62032  26.186  42.488   6.473
 4909POPC   C3A62033  26.193  42.332   6.944
 4909POPC   C4A62034  26.408  42.501   7.319
 4909POPC   C1B62035  25.800  42.235   6.238
 4909POPC   C2B62036  25.752  42.317   6.669
 4909POPC   C3B62037  25.674  42.200   7.085
 4909POPC   C4B62038  25.942  42.365   7.418
 4910POPC   NC362039   3.647  40.043   5.504
 4910POPC   PO462040   3.135  39.611   5.248
 4910POPC   GL162041   3.157  39.941   5.718
 4910POPC   GL262042   3.495  39.964   5.977
 4910POPC   C1A62043   3.078  39.964   6.223
 4910POPC   D2A62044   3.439  39.976   6.581
 4910POPC   C3A62045   3.219  40.076   6.993
 4910POPC   C4A62046   3.061  40.095   7.419
 4910POPC   C1B62047   3.862  40.060   6.234
 4910POPC   C2B62048   3.887  40.384   6.548
 4910POPC   C3B62049   3.651  40.374   6.944
 4910POPC   C4B62050   3.629  40.196   7.343
 4911POPC   NC362051  44.161  13.589   5.482
 4911POPC   PO462052  44.391  13.051   5.515
 4911POPC   GL162053  44.370  13.352   5.888
 4911POPC   GL262054  44.533  13.682   5.825
 4911POPC   C1A62055  44.638  13.442   6.263
 4911POPC   D2A62056  44.758  13.686   6.614
 4911POPC   C3A62057  44.604  13.479   6.980
 4911POPC   C4A62058  44.593  13.638   7.404
 4911POPC   C1B62059  44.679  13.976   6.153
 4911POPC   C2B62060  44.526  14.137   6.552
 4911POPC   C3B62061  44.499  13.994   6.970
 4911POPC   C4B62062  44.664  14.140   7.317
 4912POPC   NC362063  43.163  27.159   5.374
 4912POPC   PO462064  43.002  26.504   5.572
 4912POPC   GL162065  43.063  26.877   5.814
 4912POPC   GL262066  43.438  26.895   5.814
 4912POPC   C1A62067  43.058  26.959   6.265
 4912POPC   D2A62068  42.801  26.832   6.613
 4912POPC   C3A62069  42.926  26.968   7.002
 4912POPC   C4A62070  42.875  26.761   7.367
 4912POPC   C1B62071  43.447  26.603   6.174
 4912POPC   C2B62072  43.345  26.674   6.617
 4912POPC   C3B62073  43.380  26.613   7.071
 4912POPC   C4B62074  43.321  26.974   7.346
 4913POPC   NC362075  34.121  10.327   5.406
 4913POPC   PO462076  33.618  10.709   5.229
 4913POPC   GL162077  33.816  10.679   5.696
 4913POPC   GL262078  33.830  10.377   5.862
 4913POPC   C1A62079  33.915  10.765   6.186
 4913POPC   D2A62080  33.943  10.599   6.665
 4913POPC   C3A62081  33.953  10.711   7.131
 4913POPC   C4A62082  33.846  10.977   7.531
 4913POPC   C1B62083  33.712  10.284   6.282
 4913POPC   C2B62084  33.927  10.105   6.636
 4913POPC   C3B62085  33.837  10.214   7.031
 4913POPC   C4B62086  33.510  10.063   7.282
 4914POPC   NC362087  10.722  40.114   5.431
 4914POPC   PO462088  10.183  39.759   5.393
 4914POPC   GL162089  10.186  39.939   5.783
 4914POPC   GL262090  10.258  40.294   5.743
 4914POPC   C1A62091  10.373  39.826   6.158
 4914POPC   D2A62092  10.228  39.766   6.569
 4914POPC   C3A62093  10.603  39.777   6.825
 4914POPC   C4A62094  10.624  39.854   7.269
 4914POPC   C1B62095  10.507  40.312   6.152
 4914POPC   C2B62096  10.548  40.291   6.610
 4914POPC   C3B62097  10.657  40.380   7.047
 4914POPC   C4B62098  10.495  40.352   7.472
 4915POPC   NC362099  30.329  16.696   5.446
 4915POPC   PO462100  30.921  17.073   5.436
 4915POPC   GL162101  30.766  16.998   5.861
 4915POPC   GL262102  30.396  16.893   5.922
 4915POPC   C1A62103  30.791  16.974   6.322
 4915POPC   D2A62104  30.904  16.770   6.706
 4915POPC   C3A62105  30.858  17.023   7.063
 4915POPC   C4A62106  30.888  16.890   7.493
 4915POPC   C1B62107  30.195  16.591   6.254
 4915POPC   C2B62108  30.243  16.417   6.707
 4915POPC   C3B62109  30.531  16.599   7.039
 4915POPC   C4B62110  30.405  16.973   7.305
 4916POPC   NC362111  40.367  30.400   5.375
 4916POPC   PO462112  39.711  30.368   5.348
 4916POPC   GL162113  39.961  30.567   5.705
 4916POPC   GL262114  40.259  30.383   5.888
 4916POPC   C1A62115  40.033  30.760   6.127
 4916POPC   D2A62116  39.934  30.567   6.545
 4916POPC   C3A62117  39.969  30.852   6.875
 4916POPC   C4A62118  40.192  30.775   7.200
 4916POPC   C1B62119  40.348  30.330   6.351
 4916POPC   C2B62120  40.532  30.265   6.758
 4916POPC   C3B62121  40.474  30.340   7.199
 4916POPC   C4B62122  40.307  30.396   7.576
 4917POPC   NC362123  11.116  21.450   5.586
 4917POPC   PO462124  10.576  21.585   5.279
 4917POPC   GL162125  10.516  21.538   5.727
 4917POPC   GL262126  10.783  21.721   5.818
 4917POPC   C1A62127  10.467  21.299   6.136
 4917POPC   D2A62128  10.324  20.999   6.456
 4917POPC   C3A62129  10.348  21.157   6.857
 4917POPC   C4A62130  10.522  21.199   7.224
 4917POPC   C1B62131  10.742  21.726   6.225
 4917POPC   C2B62132  10.558  21.571   6.595
 4917POPC   C3B62133  10.499  21.728   7.014
 4917POPC   C4B62134  10.290  21.640   7.378
 4918POPC   NC362135  23.956   4.867   5.564
 4918POPC   PO462136  23.765   5.395   5.195
 4918POPC   GL162137  23.613   5.257   5.650
 4918POPC   GL262138  23.498   4.913   5.757
 4918POPC   C1A62139  23.610   5.288   6.136
 4918POPC   D2A62140  23.789   5.416   6.563
 4918POPC   C3A62141  23.738   5.202   6.966
 4918POPC   C4A62142  23.455   5.254   7.314
 4918POPC   C1B62143  23.702   4.788   6.165
 4918POPC   C2B62144  23.565   4.899   6.579
 4918POPC   C3B62145  23.402   4.835   7.000
 4918POPC   C4B62146  23.686   4.803   7.343
 4919POPC   NC362147  39.480  15.306   5.249
 4919POPC   PO462148  38.764  15.466   5.364
 4919POPC   GL162149  39.105  15.286   5.664
 4919POPC   GL262150  39.471  15.241   5.764
 4919POPC   C1A62151  39.059  15.261   6.133
 4919POPC   D2A62152  39.029  15.036   6.543
 4919POPC   C3A62153  39.167  15.244   6.903
 4919POPC   C4A62154  39.017  15.293   7.302
 4919POPC   C1B62155  39.500  14.973   6.134
 4919POPC   C2B62156  39.543  14.988   6.589
 4919POPC   C3B62157  39.580  14.922   7.021
 4919POPC   C4B62158  39.342  14.896   7.370
 4920POPC   NC362159  42.450  19.601   5.306
 4920POPC   PO462160  42.364  18.934   5.413
 4920POPC   GL162161  42.323  19.096   5.823
 4920POPC   GL262162  42.533  19.367   5.763
 4920POPC   C1A62163  42.093  18.975   6.211
 4920POPC   D2A62164  42.085  18.617   6.514
 4920POPC   C3A62165  42.212  18.774   6.897
 4920POPC   C4A62166  41.986  19.051   7.126
 4920POPC   C1B62167  42.307  19.465   6.176
 4920POPC   C2B62168  42.198  19.381   6.597
 4920POPC   C3B62169  42.376  19.362   7.007
 4920POPC   C4B62170  42.470  19.032   7.298
 4921POPC   NC362171   9.549   8.962   5.476
 4921POPC   PO462172  10.131   8.876   5.166
 4921POPC   GL162173  10.109   9.148   5.605
 4921POPC   GL262174   9.915   8.972   5.837
 4921POPC   C1A62175  10.224   9.238   6.122
 4921POPC   D2A62176  10.217   9.041   6.550
 4921POPC   C3A62177   9.965   9.122   6.914
 4921POPC   C4A62178   9.881   8.861   7.268
 4921POPC   C1B62179   9.776   9.044   6.266
 4921POPC   C2B62180   9.669   8.798   6.639
 4921POPC   C3B62181   9.432   8.678   7.019
 4921POPC   C4B62182   9.343   8.831   7.429
 4922POPC   NC362183  32.491  14.016   5.499
 4922POPC   PO462184  32.570  14.667   5.478
 4922POPC   GL162185  32.267  14.402   5.748
 4922POPC   GL262186  32.338  14.094   5.968
 4922POPC   C1A62187  31.998  14.502   6.102
 4922POPC   D2A62188  31.818  14.492   6.508
 4922POPC   C3A62189  32.147  14.368   6.767
 4922POPC   C4A62190  32.276  14.270   7.186
 4922POPC   C1B62191  32.507  14.434   6.188
 4922POPC   C2B62192  32.596  14.640   6.535
 4922POPC   C3B62193  32.506  14.696   6.928
 4922POPC   C4B62194  32.674  14.611   7.264
 4923POPC   NC362195  42.536  22.473   5.260
 4923POPC   PO462196  42.318  23.075   5.412
 4923POPC   GL162197  42.153  22.952   5.808
 4923POPC   GL262198  42.126  22.608   5.705
 4923POPC   C1A62199  42.248  23.003   6.265
 4923POPC   D2A62200  42.464  23.195   6.636
 4923POPC   C3A62201  42.172  23.112   7.007
 4923POPC   C4A62202  42.171  23.012   7.488
 4923POPC   C1B62203  42.551  22.658   5.967
 4923POPC   C2B62204  42.691  22.745   6.394
 4923POPC   C3B62205  42.429  22.713   6.781
 4923POPC   C4B62206  42.552  22.832   7.201
 4924POPC   NC362207  39.125  40.160   5.525
 4924POPC   PO462208  39.558  39.628   5.694
 4924POPC   GL162209  39.358  39.843   5.949
 4924POPC   GL262210  39.009  39.826   5.923
 4924POPC   C1A62211  39.415  39.797   6.353
 4924POPC   D2A62212  39.469  40.159   6.598
 4924POPC   C3A62213  39.412  39.991   6.980
 4924POPC   C4A62214  39.387  40.198   7.326
 4924POPC   C1B62215  39.086  40.177   6.229
 4924POPC   C2B62216  38.828  40.290   6.580
 4924POPC   C3B62217  38.967  40.264   6.987
 4924POPC   C4B62218  38.933  39.896   7.195
 4925POPC   NC362219  10.986   0.585   5.197
 4925POPC   PO462220  11.514   0.850   5.484
 4925POPC   GL162221  11.416   0.595   5.828
 4925POPC   GL262222  11.069   0.480   5.786
 4925POPC   C1A62223  11.600   0.475   6.242
 4925POPC   D2A62224  11.711   0.268   6.654
 4925POPC   C3A62225  11.440   0.331   7.014
 4925POPC   C4A62226  11.118   0.061   7.140
 4925POPC   C1B62227  11.081   0.717   6.205
 4925POPC   C2B62228  11.277   0.681   6.606
 4925POPC   C3B62229  11.045   0.690   6.962
 4925POPC   C4B62230  11.088   0.529   7.358
 4926POPC   NC362231   4.684  36.875   5.489
 4926POPC   PO462232   5.230  37.266   5.396
 4926POPC   GL162233   5.085  37.136   5.825
 4926POPC   GL262234   4.918  36.797   5.942
 4926POPC   C1A62235   5.163  37.102   6.280
 4926POPC   D2A62236   5.002  36.918   6.649
 4926POPC   C3A62237   5.062  37.176   6.992
 4926POPC   C4A62238   4.700  37.055   7.141
 4926POPC   C1B62239   5.199  36.588   6.261
 4926POPC   C2B62240   5.359  36.573   6.704
 4926POPC   C3B62241   5.196  36.714   7.145
 4926POPC   C4B62242   5.351  36.874   7.573
 4927POPC   NC362243  36.602  35.290   5.323
 4927POPC   PO462244  37.204  35.673   5.425
 4927POPC   GL162245  36.870  35.547   5.743
 4927POPC   GL262246  36.826  35.163   5.773
 4927POPC   C1A62247  36.794  35.505   6.203
 4927POPC   D2A62248  36.651  35.425   6.629
 4927POPC   C3A62249  36.831  35.483   7.029
 4927POPC   C4A62250  37.219  35.573   7.238
 4927POPC   C1B62251  36.917  34.981   6.178
 4927POPC   C2B62252  36.916  34.943   6.625
 4927POPC   C3B62253  36.600  34.938   6.945
 4927POPC   C4B62254  36.487  35.201   7.285
 4928POPC   NC362255  24.838   4.189   5.492
 4928POPC   PO462256  24.277   4.565   5.417
 4928POPC   GL162257  24.520   4.468   5.770
 4928POPC   GL262258  24.460   4.113   5.869
 4928POPC   C1A62259  24.732   4.451   6.163
 4928POPC   D2A62260  24.660   4.283   6.595
 4928POPC   C3A62261  24.647   4.571   6.978
 4928POPC   C4A62262  24.600   4.262   7.368
 4928POPC   C1B62263  24.254   4.342   6.235
 4928POPC   C2B62264  24.234   4.545   6.634
 4928POPC   C3B62265  24.215   4.325   7.038
 4928POPC   C4B62266  24.101   4.400   7.469
 4929POPC   NC362267   9.374   9.889   5.120
 4929POPC   PO462268   9.766   9.555   5.547
 4929POPC   GL162269   9.778   9.505   5.949
 4929POPC   GL262270   9.805   9.879   5.967
 4929POPC   C1A62271   9.523   9.608   6.295
 4929POPC   D2A62272   9.583   9.877   6.624
 4929POPC   C3A62273   9.768   9.661   6.972
 4929POPC   C4A62274   9.623   9.714   7.387
 4929POPC   C1B62275  10.081   9.857   6.278
 4929POPC   C2B62276  10.076   9.985   6.673
 4929POPC   C3B62277  10.046  10.100   7.070
 4929POPC   C4B62278  10.136   9.801   7.334
 4930POPC   NC362279   2.872  33.517   5.542
 4930POPC   PO462280   2.708  34.165   5.534
 4930POPC   GL162281   2.519  34.040   5.905
 4930POPC   GL262282   2.553  33.689   5.905
 4930POPC   C1A62283   2.692  34.073   6.278
 4930POPC   D2A62284   2.757  33.886   6.663
 4930POPC   C3A62285   2.519  33.958   7.029
 4930POPC   C4A62286   2.617  33.580   7.284
 4930POPC   C1B62287   2.787  33.557   6.242
 4930POPC   C2B62288   3.035  33.425   6.586
 4930POPC   C3B62289   2.985  33.384   7.007
 4930POPC   C4B62290   3.067  33.450   7.459
 4931POPC   NC362291  35.092  40.863   5.036
 4931POPC   PO462292  35.583  40.625   5.375
 4931POPC   GL162293  35.428  40.749   5.769
 4931POPC   GL262294  35.245  40.481   5.975
 4931POPC   C1A62295  35.607  40.743   6.179
 4931POPC   D2A62296  35.601  40.908   6.572
 4931POPC   C3A62297  35.385  40.697   6.876
 4931POPC   C4A62298  35.468  40.929   7.213
 4931POPC   C1B62299  35.110  40.751   6.350
 4931POPC   C2B62300  35.050  41.044   6.690
 4931POPC   C3B62301  34.967  40.911   7.096
 4931POPC   C4B62302  35.079  40.550   7.399
 4932POPC   NC362303  23.691   6.429   5.072
 4932POPC   PO462304  23.863   7.027   5.192
 4932POPC   GL162305  23.643   6.641   5.614
 4932POPC   GL262306  23.932   6.534   5.901
 4932POPC   C1A62307  23.505   6.332   6.011
 4932POPC   D2A62308  23.776   6.254   6.386
 4932POPC   C3A62309  23.609   6.362   6.812
 4932POPC   C4A62310  23.303   6.495   7.097
 4932POPC   C1B62311  23.818   6.746   6.279
 4932POPC   C2B62312  23.867   6.796   6.706
 4932POPC   C3B62313  23.704   6.997   7.049
 4932POPC   C4B62314  23.945   7.293   7.331
 4933POPC   NC362315  43.600   7.648   5.123
 4933POPC   PO462316  44.144   7.389   5.505
 4933POPC   GL162317  44.055   7.354   5.918
 4933POPC   GL262318  43.736   7.285   5.957
 4933POPC   C1A62319  43.987   7.571   6.302
 4933POPC   D2A62320  43.842   7.275   6.613
 4933POPC   C3A62321  43.864   7.437   7.001
 4933POPC   C4A62322  44.105   7.761   7.196
 4933POPC   C1B62323  43.483   7.557   6.263
 4933POPC   C2B62324  43.429   7.524   6.719
 4933POPC   C3B62325  43.393   7.603   7.132
 4933POPC   C4B62326  43.686   7.528   7.462
 4934POPC   NC362327  26.744  30.482   5.446
 4934POPC   PO462328  26.720  31.018   5.111
 4934POPC   GL162329  26.738  30.952   5.662
 4934POPC   GL262330  26.673  30.650   5.902
 4934POPC   C1A62331  26.942  31.019   6.114
 4934POPC   D2A62332  27.009  30.782   6.523
 4934POPC   C3A62333  27.084  30.983   6.912
 4934POPC   C4A62334  26.861  30.882   7.250
 4934POPC   C1B62335  26.536  30.617   6.310
 4934POPC   C2B62336  26.598  30.561   6.722
 4934POPC   C3B62337  26.413  30.612   7.085
 4934POPC   C4B62338  26.456  30.640   7.512
 4935POPC   NC362339   9.865  40.114   5.418
 4935POPC   PO462340   9.447  39.647   5.352
 4935POPC   GL162341   9.677  39.742   5.766
 4935POPC   GL262342   9.667  40.064   5.891
 4935POPC   C1A62343   9.873  39.684   6.165
 4935POPC   D2A62344   9.694  39.904   6.505
 4935POPC   C3A62345   9.749  39.835   6.940
 4935POPC   C4A62346   9.370  39.966   7.136
 4935POPC   C1B62347   9.993  40.183   6.198
 4935POPC   C2B62348  10.041  40.242   6.639
 4935POPC   C3B62349  10.218  40.070   7.025
 4935POPC   C4B62350  10.152  39.986   7.467
 4936POPC   NC362351   9.232   4.699   5.356
 4936POPC   PO462352   9.092   5.342   5.179
 4936POPC   GL162353   9.149   5.018   5.703
 4936POPC   GL262354   8.856   4.941   5.885
 4936POPC   C1A62355   9.259   5.071   6.174
 4936POPC   D2A62356   9.054   5.283   6.577
 4936POPC   C3A62357   9.063   5.072   6.990
 4936POPC   C4A62358   9.075   5.095   7.442
 4936POPC   C1B62359   8.791   4.906   6.328
 4936POPC   C2B62360   8.631   4.979   6.743
 4936POPC   C3B62361   8.602   4.965   7.192
 4936POPC   C4B62362   8.630   4.682   7.534
 4937POPC   NC362363  24.918  36.376   5.320
 4937POPC   PO462364  24.346  36.827   5.409
 4937POPC   GL162365  24.363  36.873   5.848
 4937POPC   GL262366  24.579  36.626   5.941
 4937POPC   C1A62367  24.367  36.957   6.306
 4937POPC   D2A62368  24.642  37.184   6.601
 4937POPC   C3A62369  24.542  37.018   7.000
 4937POPC   C4A62370  24.210  37.132   7.288
 4937POPC   C1B62371  24.537  36.403   6.283
 4937POPC   C2B62372  24.622  36.588   6.684
 4937POPC   C3B62373  24.606  36.514   7.117
 4937POPC   C4B62374  24.779  36.388   7.513
 4938POPC   NC362375  21.173   0.975   5.298
 4938POPC   PO462376  21.618   1.469   5.416
 4938POPC   GL162377  21.283   1.311   5.721
 4938POPC   GL262378  21.300   0.923   5.779
 4938POPC   C1A62379  21.097   1.489   6.117
 4938POPC   D2A62380  21.272   1.414   6.527
 4938POPC   C3A62381  21.163   1.529   6.927
 4938POPC   C4A62382  21.297   1.439   7.319
 4938POPC   C1B62383  21.424   1.083   6.171
 4938POPC   C2B62384  21.623   1.059   6.572
 4938POPC   C3B62385  21.479   1.069   6.982
 4938POPC   C4B62386  21.700   1.129   7.390
 4939POPC   NC362387   0.593  16.514   5.631
 4939POPC   PO462388   0.682  17.131   5.525
 4939POPC   GL162389   0.500  16.961   5.910
 4939POPC   GL262390   0.767  16.872   6.030
 4939POPC   C1A62391   0.382  16.772   6.326
 4939POPC   D2A62392   0.170  16.883   6.702
 4939POPC   C3A62393   0.157  16.508   6.944
 4939POPC   C4A62394   0.459  16.481   7.216
 4939POPC   C1B62395   0.919  16.893   6.423
 4939POPC   C2B62396   0.690  16.751   6.771
 4939POPC   C3B62397   0.886  16.755   7.137
 4939POPC   C4B62398   0.751  16.918   7.544
 4940POPC   NC362399  14.494  22.534   5.523
 4940POPC   PO462400  14.041  22.847   5.156
 4940POPC   GL162401  14.173  22.896   5.669
 4940POPC   GL262402  14.136  22.651   5.919
 4940POPC   C1A62403  14.140  23.146   6.116
 4940POPC   D2A62404  14.379  23.218   6.524
 4940POPC   C3A62405  14.197  23.321   6.900
 4940POPC   C4A62406  14.088  23.180   7.293
 4940POPC   C1B62407  14.473  22.777   6.144
 4940POPC   C2B62408  14.541  22.720   6.552
 4940POPC   C3B62409  14.370  22.801   6.927
 4940POPC   C4B62410  14.585  22.596   7.280
 4941POPC   NC362411  37.121   9.721   5.414
 4941POPC   PO462412  36.521   9.624   5.336
 4941POPC   GL162413  36.700   9.818   5.722
 4941POPC   GL262414  36.792   9.505   5.843
 4941POPC   C1A62415  36.751   9.872   6.198
 4941POPC   D2A62416  36.875   9.721   6.620
 4941POPC   C3A62417  36.802  10.073   6.870
 4941POPC   C4A62418  36.611  10.179   7.241
 4941POPC   C1B62419  36.932   9.346   6.258
 4941POPC   C2B62420  37.089   9.185   6.647
 4941POPC   C3B62421  37.173   9.393   7.039
 4941POPC   C4B62422  36.916   9.719   7.216
 4942POPC   NC362423  27.134  32.042   5.415
 4942POPC   PO462424  26.562  32.396   5.539
 4942POPC   GL162425  26.886  32.300   5.840
 4942POPC   GL262426  26.909  31.957   5.861
 4942POPC   C1A62427  26.885  32.490   6.261
 4942POPC   D2A62428  26.622  32.400   6.631
 4942POPC   C3A62429  26.930  32.424   6.947
 4942POPC   C4A62430  27.109  32.385   7.377
 4942POPC   C1B62431  26.731  32.014   6.259
 4942POPC   C2B62432  26.894  31.904   6.655
 4942POPC   C3B62433  26.864  31.961   7.103
 4942POPC   C4B62434  26.534  32.238   7.257
 4943POPC   NC362435   1.434   7.055   5.640
 4943POPC   PO462436   1.157   6.407   5.417
 4943POPC   GL162437   0.991   6.460   5.817
 4943POPC   GL262438   1.041   6.798   5.887
 4943POPC   C1A62439   1.188   6.414   6.235
 4943POPC   D2A62440   1.548   6.396   6.565
 4943POPC   C3A62441   1.463   6.223   6.991
 4943POPC   C4A62442   1.164   6.470   7.234
 4943POPC   C1B62443   0.888   6.860   6.302
 4943POPC   C2B62444   1.032   6.877   6.734
 4943POPC   C3B62445   0.832   6.894   7.135
 4943POPC   C4B62446   0.915   6.927   7.610
 4944POPC   NC362447   2.312   3.831   5.406
 4944POPC   PO462448   2.969   3.525   5.408
 4944POPC   GL162449   2.815   3.574   5.813
 4944POPC   GL262450   2.503   3.657   5.837
 4944POPC   C1A62451   2.868   3.367   6.185
 4944POPC   D2A62452   3.020   3.275   6.591
 4944POPC   C3A62453   2.878   3.588   6.873
 4944POPC   C4A62454   2.769   3.564   7.291
 4944POPC   C1B62455   2.580   3.875   6.184
 4944POPC   C2B62456   2.688   3.989   6.567
 4944POPC   C3B62457   2.504   3.935   6.939
 4944POPC   C4B62458   2.727   4.068   7.250
 4945POPC   NC362459  17.044  36.459   5.396
 4945POPC   PO462460  16.643  35.899   5.307
 4945POPC   GL162461  16.702  36.164   5.671
 4945POPC   GL262462  17.044  36.126   5.791
 4945POPC   C1A62463  16.722  36.420   6.055
 4945POPC   D2A62464  16.900  36.390   6.470
 4945POPC   C3A62465  16.625  36.371   6.794
 4945POPC   C4A62466  16.697  36.385   7.197
 4945POPC   C1B62467  16.967  35.986   6.168
 4945POPC   C2B62468  16.972  35.878   6.559
 4945POPC   C3B62469  16.907  35.969   6.948
 4945POPC   C4B62470  16.773  35.736   7.243
 4946POPC   NC362471  22.497   0.072   5.737
 4946POPC   PO462472  23.061   0.288   5.392
 4946POPC   GL162473  22.876   0.569   5.786
 4946POPC   GL262474  22.570   0.750   5.687
 4946POPC   C1A62475  22.915   0.749   6.261
 4946POPC   D2A62476  22.922   0.745   6.765
 4946POPC   C3A62477  23.042   0.402   7.082
 4946POPC   C4A62478  23.402   0.292   7.402
 4946POPC   C1B62479  22.418   0.742   6.143
 4946POPC   C2B62480  22.458   0.558   6.558
 4946POPC   C3B62481  22.442   0.747   6.951
 4946POPC   C4B62482  22.687   0.744   7.302
 4947POPC   NC362483  17.436  34.980   5.368
 4947POPC   PO462484  17.539  34.350   5.441
 4947POPC   GL162485  17.632  34.547   5.833
 4947POPC   GL262486  17.326  34.700   5.849
 4947POPC   C1A62487  17.783  34.413   6.260
 4947POPC   D2A62488  17.506  34.248   6.624
 4947POPC   C3A62489  17.478  34.407   7.067
 4947POPC   C4A62490  17.620  34.652   7.442
 4947POPC   C1B62491  17.273  34.857   6.281
 4947POPC   C2B62492  17.437  34.819   6.723
 4947POPC   C3B62493  17.286  34.903   7.147
 4947POPC   C4B62494  17.201  34.878   7.653
 4948POPC   NC362495  24.245   5.653   5.374
 4948POPC   PO462496  24.492   6.257   5.297
 4948POPC   GL162497  24.628   5.955   5.659
 4948POPC   GL262498  24.326   5.792   5.856
 4948POPC   C1A62499  24.703   5.963   6.123
 4948POPC   D2A62500  24.722   6.043   6.561
 4948POPC   C3A62501  24.500   6.106   6.930
 4948POPC   C4A62502  24.644   5.854   7.235
 4948POPC   C1B62503  24.433   5.535   6.255
 4948POPC   C2B62504  24.482   5.517   6.711
 4948POPC   C3B62505  24.142   5.518   6.985
 4948POPC   C4B62506  23.902   5.568   7.348
 4949POPC   NC362507  35.416  25.483   5.352
 4949POPC   PO462508  35.225  24.892   5.511
 4949POPC   GL162509  35.205  25.126   5.875
 4949POPC   GL262510  35.420  25.421   5.860
 4949POPC   C1A62511  35.186  25.160   6.312
 4949POPC   D2A62512  35.375  25.219   6.692
 4949POPC   C3A62513  35.100  25.142   7.056
 4949POPC   C4A62514  35.183  25.257   7.518
 4949POPC   C1B62515  35.683  25.373   6.238
 4949POPC   C2B62516  35.849  25.649   6.558
 4949POPC   C3B62517  35.718  25.713   6.962
 4949POPC   C4B62518  35.528  25.370   7.155
 4950POPC   NC362519  15.940  30.286   5.405
 4950POPC   PO462520  15.823  29.628   5.357
 4950POPC   GL162521  15.768  29.873   5.746
 4950POPC   GL262522  16.104  30.031   5.826
 4950POPC   C1A62523  15.885  29.759   6.188
 4950POPC   D2A62524  15.947  29.936   6.606
 4950POPC   C3A62525  15.912  29.671   6.945
 4950POPC   C4A62526  15.819  29.876   7.296
 4950POPC   C1B62527  16.088  30.262   6.230
 4950POPC   C2B62528  16.206  30.387   6.649
 4950POPC   C3B62529  16.236  30.160   7.040
 4950POPC   C4B62530  16.093  30.288   7.439
 4951POPC   NC362531  25.070   7.250   5.343
 4951POPC   PO462532  25.522   7.768   5.233
 4951POPC   GL162533  25.349   7.675   5.651
 4951POPC   GL262534  25.239   7.328   5.815
 4951POPC   C1A62535  25.226   7.774   6.081
 4951POPC   D2A62536  25.454   7.769   6.487
 4951POPC   C3A62537  25.206   7.713   6.862
 4951POPC   C4A62538  25.435   7.638   7.217
 4951POPC   C1B62539  24.858   7.130   6.067
 4951POPC   C2B62540  24.851   7.015   6.541
 4951POPC   C3B62541  25.088   7.195   6.914
 4951POPC   C4B62542  25.490   7.143   7.145
 4952POPC   NC362543   4.004  23.868   5.531
 4952POPC   PO462544   3.340  23.644   5.450
 4952POPC   GL162545   3.549  23.798   5.797
 4952POPC   GL262546   3.817  23.546   5.861
 4952POPC   C1A62547   3.383  23.815   6.210
 4952POPC   D2A62548   3.551  23.955   6.601
 4952POPC   C3A62549   3.352  23.857   6.990
 4952POPC   C4A62550   3.330  23.583   7.318
 4952POPC   C1B62551   3.894  23.839   6.202
 4952POPC   C2B62552   4.045  23.851   6.621
 4952POPC   C3B62553   3.890  24.087   6.967
 4952POPC   C4B62554   3.786  23.850   7.307
 4953POPC   NC362555  39.840  44.332   5.453
 4953POPC   PO462556  39.723  43.583   5.365
 4953POPC   GL162557  39.793  43.848   5.740
 4953POPC   GL262558  40.167  43.844   5.770
 4953POPC   C1A62559  39.899  43.986   6.187
 4953POPC   D2A62560  40.120  44.064   6.591
 4953POPC   C3A62561  39.898  43.896   6.954
 4953POPC   C4A62562  39.994  43.895   7.380
 4953POPC   C1B62563  40.255  43.596   6.163
 4953POPC   C2B62564  40.407  43.614   6.606
 4953POPC   C3B62565  40.315  43.611   7.051
 4953POPC   C4B62566  40.427  43.688   7.511
 4954POPC   NC362567  26.873  27.380   5.277
 4954POPC   PO462568  26.543  27.908   5.597
 4954POPC   GL162569  26.741  27.679   5.926
 4954POPC   GL262570  26.776  27.361   5.769
 4954POPC   C1A62571  26.974  27.591   6.322
 4954POPC   D2A62572  27.215  27.515   6.704
 4954POPC   C3A62573  27.041  27.699   7.092
 4954POPC   C4A62574  26.608  27.896   7.215
 4954POPC   C1B62575  26.667  27.216   6.148
 4954POPC   C2B62576  26.473  27.400   6.496
 4954POPC   C3B62577  26.666  27.488   6.850
 4954POPC   C4B62578  26.633  27.398   7.279
 4955POPC   NC362579  39.762  12.488   5.315
 4955POPC   PO462580  40.093  11.912   5.270
 4955POPC   GL162581  39.940  11.960   5.672
 4955POPC   GL262582  39.804  12.267   5.790
 4955POPC   C1A62583  39.956  11.853   6.105
 4955POPC   D2A62584  40.038  11.974   6.547
 4955POPC   C3A62585  40.104  11.771   6.933
 4955POPC   C4A62586  40.159  11.915   7.324
 4955POPC   C1B62587  39.910  12.354   6.222
 4955POPC   C2B62588  39.725  12.383   6.642
 4955POPC   C3B62589  39.891  12.403   7.052
 4955POPC   C4B62590  39.889  12.400   7.508
 4956POPC   NC362591  22.608  30.099   5.561
 4956POPC   PO462592  21.894  29.971   5.561
 4956POPC   GL162593  22.197  29.925   5.885
 4956POPC   GL262594  22.527  29.726   5.880
 4956POPC   C1A62595  22.067  30.106   6.269
 4956POPC   D2A62596  21.953  29.936   6.665
 4956POPC   C3A62597  22.162  30.038   7.039
 4956POPC   C4A62598  22.406  29.845   7.381
 4956POPC   C1B62599  22.585  29.989   6.235
 4956POPC   C2B62600  22.450  30.194   6.607
 4956POPC   C3B62601  22.647  30.153   6.996
 4956POPC   C4B62602  22.458  30.337   7.355
 4957POPC   NC362603  44.347  38.729   5.369
 4957POPC   PO462604  44.896  38.294   5.430
 4957POPC   GL162605  44.683  38.172   5.872
 4957POPC   GL262606  44.976  38.311   6.023
 4957POPC   C1A62607  44.520  38.386   6.270
 4957POPC   D2A62608  44.691  38.702   6.586
 4957POPC   C3A62609  44.569  38.637   7.006
 4957POPC   C4A62610  44.266  38.836   7.235
 4957POPC   C1B62611   0.116  38.670   6.263
 4957POPC   C2B62612   0.234  38.652   6.690
 4957POPC   C3B62613   0.063  38.607   7.107
 4957POPC   C4B62614  44.796  38.628   7.504
 4958POPC   NC362615  41.483   1.975   5.443
 4958POPC   PO462616  41.928   1.572   5.687
 4958POPC   GL162617  41.633   1.820   5.956
 4958POPC   GL262618  41.272   1.747   5.975
 4958POPC   C1A62619  41.626   2.208   6.230
 4958POPC   D2A62620  41.823   2.483   6.574
 4958POPC   C3A62621  41.788   2.363   7.028
 4958POPC   C4A62622  41.416   2.287   7.226
 4958POPC   C1B62623  41.141   2.023   6.340
 4958POPC   C2B62624  41.409   2.128   6.704
 4958POPC   C3B62625  41.596   1.865   6.977
 4958POPC   C4B62626  41.271   1.739   7.278
 4959POPC   NC362627  10.126   3.080   5.674
 4959POPC   PO462628  10.282   2.519   5.351
 4959POPC   GL162629  10.572   2.678   5.774
 4959POPC   GL262630  10.544   3.028   5.944
 4959POPC   C1A62631  10.848   2.748   6.212
 4959POPC   D2A62632  11.048   3.057   6.543
 4959POPC   C3A62633  10.777   3.181   6.904
 4959POPC   C4A62634  10.585   2.876   7.161
 4959POPC   C1B62635  10.308   2.814   6.297
 4959POPC   C2B62636  10.237   2.731   6.761
 4959POPC   C3B62637  10.122   2.691   7.213
 4959POPC   C4B62638  10.030   2.763   7.657
 4960POPC   NC362639  11.799  27.721   5.059
 4960POPC   PO462640  12.052  27.679   5.698
 4960POPC   GL162641  11.745  27.821   5.932
 4960POPC   GL262642  11.638  27.556   6.005
 4960POPC   C1A62643  11.782  28.020   6.283
 4960POPC   D2A62644  12.025  27.826   6.537
 4960POPC   C3A62645  11.915  27.794   6.952
 4960POPC   C4A62646  12.072  27.654   7.343
 4960POPC   C1B62647  11.929  27.373   6.295
 4960POPC   C2B62648  11.988  27.346   6.730
 4960POPC   C3B62649  12.208  27.248   7.075
 4960POPC   C4B62650  11.931  27.124   7.422
 4961POPC   NC362651  39.605  30.838   5.385
 4961POPC   PO462652  38.838  30.621   5.392
 4961POPC   GL162653  39.111  30.818   5.760
 4961POPC   GL262654  39.464  30.744   5.867
 4961POPC   C1A62655  39.083  30.753   6.250
 4961POPC   D2A62656  39.034  31.012   6.617
 4961POPC   C3A62657  39.076  30.774   7.013
 4961POPC   C4A62658  39.128  30.808   7.487
 4961POPC   C1B62659  39.572  30.831   6.303
 4961POPC   C2B62660  39.493  30.839   6.728
 4961POPC   C3B62661  39.557  30.852   7.187
 4961POPC   C4B62662  39.608  30.946   7.625
 4962POPC   NC362663  37.591  37.120   5.427
 4962POPC   PO462664  38.035  36.723   5.684
 4962POPC   GL162665  37.802  36.959   5.922
 4962POPC   GL262666  37.494  36.794   5.858
 4962POPC   C1A62667  37.674  36.857   6.335
 4962POPC   D2A62668  37.733  36.624   6.683
 4962POPC   C3A62669  37.552  36.824   7.019
 4962POPC   C4A62670  37.717  36.946   7.415
 4962POPC   C1B62671  37.354  37.175   6.120
 4962POPC   C2B62672  37.438  37.267   6.600
 4962POPC   C3B62673  37.347  37.311   7.057
 4962POPC   C4B62674  37.229  37.006   7.389
 4963POPC   NC362675  10.983   5.144   5.453
 4963POPC   PO462676  10.431   4.860   5.392
 4963POPC   GL162677  10.484   5.097   5.809
 4963POPC   GL262678  10.788   5.292   5.884
 4963POPC   C1A62679  10.365   4.923   6.228
 4963POPC   D2A62680  10.480   4.591   6.543
 4963POPC   C3A62681  10.553   4.735   6.983
 4963POPC   C4A62682  10.321   5.081   7.166
 4963POPC   C1B62683  10.852   5.062   6.246
 4963POPC   C2B62684  10.642   5.128   6.633
 4963POPC   C3B62685  10.698   5.380   6.995
 4963POPC   C4B62686  10.824   5.106   7.328
 4964POPC   NC362687   0.684  44.612   5.439
 4964POPC   PO462688   0.161  44.204   5.574
 4964POPC   GL162689   0.309  44.572   5.759
 4964POPC   GL262690   0.572  44.403   5.889
 4964POPC   C1A62691   0.382  44.848   6.105
 4964POPC   D2A62692   0.197  44.778   6.512
 4964POPC   C3A62693   0.374  44.944   6.871
 4964POPC   C4A62694   0.121  44.875   7.203
 4964POPC   C1B62695   0.290  44.332   6.223
 4964POPC   C2B62696   0.468  44.293   6.601
 4964POPC   C3B62697   0.433  44.150   6.987
 4964POPC   C4B62698   0.495  44.534   7.180
 4965POPC   NC362699  37.173  10.720   5.401
 4965POPC   PO462700  37.860  10.612   5.251
 4965POPC   GL162701  37.588  10.477   5.636
 4965POPC   GL262702  37.583  10.121   5.676
 4965POPC   C1A62703  37.557  10.564   6.126
 4965POPC   D2A62704  37.757  10.576   6.565
 4965POPC   C3A62705  37.512  10.700   6.940
 4965POPC   C4A62706  37.312  10.790   7.322
 4965POPC   C1B62707  37.756  10.105   6.121
 4965POPC   C2B62708  37.693  10.057   6.543
 4965POPC   C3B62709  37.778  10.234   6.943
 4965POPC   C4B62710  37.589  10.320   7.295
 4966POPC   NC362711   4.760  10.862   5.453
 4966POPC   PO462712   4.105  10.564   5.239
 4966POPC   GL162713   4.154  10.681   5.768
 4966POPC   GL262714   4.466  10.796   5.961
 4966POPC   C1A62715   4.173  10.458   6.203
 4966POPC   D2A62716   4.313  10.714   6.575
 4966POPC   C3A62717   4.262  10.517   6.969
 4966POPC   C4A62718   3.991  10.279   7.235
 4966POPC   C1B62719   4.693  10.537   6.254
 4966POPC   C2B62720   4.701  10.205   6.472
 4966POPC   C3B62721   4.879  10.171   6.843
 4966POPC   C4B62722   4.707  10.269   7.176
 4967POPC   NC362723   1.009  18.306   5.498
 4967POPC   PO462724   1.345  17.787   5.347
 4967POPC   GL162725   1.367  17.999   5.728
 4967POPC   GL262726   1.540  18.283   5.841
 4967POPC   C1A62727   1.224  18.013   6.153
 4967POPC   D2A62728   0.977  18.220   6.438
 4967POPC   C3A62729   0.983  18.183   6.902
 4967POPC   C4A62730   0.961  18.390   7.338
 4967POPC   C1B62731   1.414  18.521   6.193
 4967POPC   C2B62732   1.518  18.488   6.596
 4967POPC   C3B62733   1.420  18.422   7.006
 4967POPC   C4B62734   1.367  18.048   7.222
 4968POPC   NC362735  18.865  16.641   5.478
 4968POPC   PO462736  19.334  17.126   5.347
 4968POPC   GL162737  19.239  16.920   5.745
 4968POPC   GL262738  19.537  16.935   5.942
 4968POPC   C1A62739  19.236  16.542   6.056
 4968POPC   D2A62740  19.366  16.484   6.498
 4968POPC   C3A62741  19.270  16.810   6.801
 4968POPC   C4A62742  19.106  16.669   7.186
 4968POPC   C1B62743  19.159  17.005   6.276
 4968POPC   C2B62744  18.800  16.877   6.574
 4968POPC   C3B62745  18.746  17.008   6.994
 4968POPC   C4B62746  19.131  17.168   7.169
 4969POPC   NC362747  13.831  13.340   5.379
 4969POPC   PO462748  13.391  13.875   5.424
 4969POPC   GL162749  13.616  13.641   5.762
 4969POPC   GL262750  13.873  13.861   5.806
 4969POPC   C1A62751  13.610  13.725   6.230
 4969POPC   D2A62752  13.557  13.949   6.653
 4969POPC   C3A62753  13.547  13.665   7.034
 4969POPC   C4A62754  13.426  13.213   7.185
 4969POPC   C1B62755  14.096  13.761   6.173
 4969POPC   C2B62756  14.005  13.684   6.572
 4969POPC   C3B62757  14.034  13.578   6.974
 4969POPC   C4B62758  13.979  13.731   7.357
 4970POPC   NC362759  24.742  23.127   5.483
 4970POPC   PO462760  24.265  22.718   5.328
 4970POPC   GL162761  24.426  22.843   5.779
 4970POPC   GL262762  24.795  22.777   5.843
 4970POPC   C1A62763  24.456  22.649   6.225
 4970POPC   D2A62764  24.262  22.667   6.634
 4970POPC   C3A62765  24.453  22.703   7.021
 4970POPC   C4A62766  24.253  23.065   7.187
 4970POPC   C1B62767  24.887  22.912   6.253
 4970POPC   C2B62768  24.779  22.885   6.654
 4970POPC   C3B62769  24.826  23.072   7.037
 4970POPC   C4B62770  24.677  22.956   7.463
 4971POPC   NC362771  29.700  29.225   5.473
 4971POPC   PO462772  30.277  29.334   5.779
 4971POPC   GL162773  30.037  28.953   5.921
 4971POPC   GL262774  29.662  28.904   5.886
 4971POPC   C1A62775  30.135  28.900   6.333
 4971POPC   D2A62776  30.105  29.275   6.562
 4971POPC   C3A62777  30.055  29.069   6.919
 4971POPC   C4A62778  30.091  29.280   7.241
 4971POPC   C1B62779  29.679  29.135   6.261
 4971POPC   C2B62780  29.609  29.185   6.684
 4971POPC   C3B62781  29.610  29.312   7.075
 4971POPC   C4B62782  29.509  29.686   7.149
 4972POPC   NC362783  27.799  22.192   5.396
 4972POPC   PO462784  27.176  21.939   5.456
 4972POPC   GL162785  27.481  21.916   5.745
 4972POPC   GL262786  27.478  22.284   5.801
 4972POPC   C1A62787  27.550  21.948   6.187
 4972POPC   D2A62788  27.406  22.114   6.580
 4972POPC   C3A62789  27.626  21.931   6.938
 4972POPC   C4A62790  27.951  22.193   7.089
 4972POPC   C1B62791  27.625  22.469   6.203
 4972POPC   C2B62792  27.556  22.673   6.589
 4972POPC   C3B62793  27.597  22.591   7.011
 4972POPC   C4B62794  27.355  22.280   7.163
 4973POPC   NC362795  31.062  31.090   5.406
 4973POPC   PO462796  31.435  30.414   5.431
 4973POPC   GL162797  31.310  30.675   5.809
 4973POPC   GL262798  31.541  30.943   5.836
 4973POPC   C1A62799  31.357  30.743   6.276
 4973POPC   D2A62800  31.505  30.498   6.629
 4973POPC   C3A62801  31.540  30.673   7.042
 4973POPC   C4A62802  31.205  30.737   7.338
 4973POPC   C1B62803  31.839  30.976   6.206
 4973POPC   C2B62804  31.771  30.946   6.663
 4973POPC   C3B62805  32.011  30.954   7.067
 4973POPC   C4B62806  31.896  30.766   7.494
 4974POPC   NC362807  19.474  26.210   5.433
 4974POPC   PO462808  20.058  25.964   5.158
 4974POPC   GL162809  19.908  26.029   5.629
 4974POPC   GL262810  19.622  25.815   5.779
 4974POPC   C1A62811  19.798  26.232   6.072
 4974POPC   D2A62812  19.844  26.154   6.530
 4974POPC   C3A62813  19.656  26.231   6.942
 4974POPC   C4A62814  19.616  25.913   7.217
 4974POPC   C1B62815  19.765  25.735   6.222
 4974POPC   C2B62816  19.821  25.596   6.705
 4974POPC   C3B62817  20.056  25.573   7.142
 4974POPC   C4B62818  20.385  25.658   7.475
 4975POPC   NC362819  39.256  19.312   5.497
 4975POPC   PO462820  38.904  18.693   5.406
 4975POPC   GL162821  39.079  18.896   5.774
 4975POPC   GL262822  39.376  18.735   5.862
 4975POPC   C1A62823  39.217  19.156   6.157
 4975POPC   D2A62824  39.140  19.223   6.607
 4975POPC   C3A62825  38.881  19.258   6.947
 4975POPC   C4A62826  38.972  19.174   7.369
 4975POPC   C1B62827  39.223  18.628   6.257
 4975POPC   C2B62828  39.367  18.766   6.656
 4975POPC   C3B62829  39.344  18.952   7.076
 4975POPC   C4B62830  39.215  18.744   7.473
 4976POPC   NC362831  28.324  32.528   5.500
 4976POPC   PO462832  28.370  31.814   5.455
 4976POPC   GL162833  28.181  32.085   5.750
 4976POPC   GL262834  27.901  31.877   5.748
 4976POPC   C1A62835  28.332  32.232   6.189
 4976POPC   D2A62836  28.590  32.187   6.574
 4976POPC   C3A62837  28.501  32.438   6.925
 4976POPC   C4A62838  28.230  32.407   7.256
 4976POPC   C1B62839  27.897  31.957   6.154
 4976POPC   C2B62840  28.069  31.876   6.550
 4976POPC   C3B62841  28.223  31.990   6.934
 4976POPC   C4B62842  28.518  31.964   7.254
 4977POPC   NC362843  38.720  16.406   5.564
 4977POPC   PO462844  38.354  16.969   5.452
 4977POPC   GL162845  38.369  16.697   5.814
 4977POPC   GL262846  38.241  16.335   5.796
 4977POPC   C1A62847  38.495  16.687   6.232
 4977POPC   D2A62848  38.509  16.842   6.623
 4977POPC   C3A62849  38.690  16.546   6.894
 4977POPC   C4A62850  38.559  16.748   7.242
 4977POPC   C1B62851  38.078  16.399   6.225
 4977POPC   C2B62852  38.286  16.364   6.623
 4977POPC   C3B62853  38.197  16.432   7.053
 4977POPC   C4B62854  37.846  16.432   7.265
 4978POPC   NC362855  21.486  30.227   5.536
 4978POPC   PO462856  20.915  29.820   5.546
 4978POPC   GL162857  21.164  29.841   5.928
 4978POPC   GL262858  21.519  29.713   5.846
 4978POPC   C1A62859  21.075  30.038   6.359
 4978POPC   D2A62860  20.979  30.190   6.792
 4978POPC   C3A62861  21.139  29.972   7.171
 4978POPC   C4A62862  21.394  30.162   7.526
 4978POPC   C1B62863  21.575  29.868   6.285
 4978POPC   C2B62864  21.465  30.079   6.689
 4978POPC   C3B62865  21.637  30.060   7.072
 4978POPC   C4B62866  21.834  29.656   7.130
 4979POPC   NC362867  31.595  10.392   5.293
 4979POPC   PO462868  31.117  10.773   5.365
 4979POPC   GL162869  31.368  10.572   5.741
 4979POPC   GL262870  31.600  10.273   5.812
 4979POPC   C1A62871  31.335  10.483   6.205
 4979POPC   D2A62872  31.663  10.501   6.537
 4979POPC   C3A62873  31.485  10.445   6.945
 4979POPC   C4A62874  31.418  10.799   7.191
 4979POPC   C1B62875  31.913  10.173   6.172
 4979POPC   C2B62876  32.170  10.315   6.565
 4979POPC   C3B62877  32.020  10.390   6.989
 4979POPC   C4B62878  31.761  10.148   7.282
 4980POPC   NC362879  32.512   4.498   5.518
 4980POPC   PO462880  32.442   4.010   5.089
 4980POPC   GL162881  32.197   4.122   5.594
 4980POPC   GL262882  31.891   4.304   5.666
 4980POPC   C1A62883  32.226   4.363   6.071
 4980POPC   D2A62884  32.230   4.481   6.533
 4980POPC   C3A62885  32.517   4.295   6.860
 4980POPC   C4A62886  32.707   3.990   7.124
 4980POPC   C1B62887  31.938   3.958   6.012
 4980POPC   C2B62888  31.896   4.074   6.460
 4980POPC   C3B62889  31.967   4.211   6.896
 4980POPC   C4B62890  32.152   4.591   7.089
 4981POPC   NC362891  30.718   4.160   5.359
 4981POPC   PO462892  31.018   4.733   5.550
 4981POPC   GL162893  30.853   4.379   5.808
 4981POPC   GL262894  31.012   4.014   5.773
 4981POPC   C1A62895  30.628   4.421   6.199
 4981POPC   D2A62896  30.446   4.603   6.545
 4981POPC   C3A62897  30.595   4.425   6.945
 4981POPC   C4A62898  30.773   4.399   7.350
 4981POPC   C1B62899  30.783   3.950   6.147
 4981POPC   C2B62900  30.861   4.117   6.580
 4981POPC   C3B62901  30.922   3.960   7.010
 4981POPC   C4B62902  30.913   3.931   7.454
 4982POPC   NC362903   6.013  22.731   5.479
 4982POPC   PO462904   5.809  23.357   5.581
 4982POPC   GL162905   5.618  23.258   5.924
 4982POPC   GL262906   5.665  22.925   5.829
 4982POPC   C1A62907   5.768  23.257   6.307
 4982POPC   D2A62908   6.081  23.281   6.578
 4982POPC   C3A62909   5.840  23.305   6.878
 4982POPC   C4A62910   5.999  23.222   7.224
 4982POPC   C1B62911   5.930  22.805   6.143
 4982POPC   C2B62912   5.820  22.792   6.555
 4982POPC   C3B62913   5.903  22.798   6.942
 4982POPC   C4B62914   5.898  22.722   7.349
 4983POPC   NC362915   4.376   8.457   5.131
 4983POPC   PO462916   4.044   7.922   5.426
 4983POPC   GL162917   4.294   8.049   5.756
 4983POPC   GL262918   4.330   8.378   5.648
 4983POPC   C1A62919   4.208   8.059   6.208
 4983POPC   D2A62920   4.459   8.231   6.516
 4983POPC   C3A62921   4.332   8.066   6.910
 4983POPC   C4A62922   4.501   7.950   7.292
 4983POPC   C1B62923   4.316   8.527   6.079
 4983POPC   C2B62924   4.196   8.650   6.502
 4983POPC   C3B62925   4.377   8.568   6.900
 4983POPC   C4B62926   4.193   8.446   7.267
 4984POPC   NC362927  34.896  41.208   5.448
 4984POPC   PO462928  34.697  41.851   5.468
 4984POPC   GL162929  34.655  41.730   5.871
 4984POPC   GL262930  34.657  41.363   5.862
 4984POPC   C1A62931  34.832  41.754   6.284
 4984POPC   D2A62932  34.989  41.589   6.688
 4984POPC   C3A62933  34.908  41.834   7.073
 4984POPC   C4A62934  34.666  41.812   7.483
 4984POPC   C1B62935  34.803  41.224   6.260
 4984POPC   C2B62936  34.577  41.261   6.636
 4984POPC   C3B62937  34.588  41.452   7.033
 4984POPC   C4B62938  34.873  41.363   7.358
 4985POPC   NC362939  38.289  33.154   5.444
 4985POPC   PO462940  38.797  32.728   5.480
 4985POPC   GL162941  38.479  32.880   5.812
 4985POPC   GL262942  38.546  33.185   5.955
 4985POPC   C1A62943  38.277  32.849   6.258
 4985POPC   D2A62944  38.553  33.090   6.581
 4985POPC   C3A62945  38.371  33.314   6.941
 4985POPC   C4A62946  38.127  32.998   7.169
 4985POPC   C1B62947  38.771  32.800   6.199
 4985POPC   C2B62948  38.788  32.561   6.587
 4985POPC   C3B62949  38.809  32.786   6.950
 4985POPC   C4B62950  38.622  33.015   7.262
 4986POPC   NC362951   6.693  43.265   5.434
 4986POPC   PO462952   6.542  42.655   5.238
 4986POPC   GL162953   6.443  42.834   5.694
 4986POPC   GL262954   6.611  43.129   5.903
 4986POPC   C1A62955   6.338  42.784   6.140
 4986POPC   D2A62956   6.315  42.855   6.601
 4986POPC   C3A62957   6.565  42.920   6.985
 4986POPC   C4A62958   6.371  42.767   7.375
 4986POPC   C1B62959   6.485  43.435   6.215
 4986POPC   C2B62960   6.263  43.616   6.587
 4986POPC   C3B62961   6.180  43.527   7.006
 4986POPC   C4B62962   6.417  43.290   7.307
 4987POPC   NC362963  28.031   5.388   5.149
 4987POPC   PO462964  27.402   5.162   5.132
 4987POPC   GL162965  27.406   5.190   5.646
 4987POPC   GL262966  27.669   4.995   5.773
 4987POPC   C1A62967  27.365   5.249   6.112
 4987POPC   D2A62968  27.467   5.119   6.537
 4987POPC   C3A62969  27.459   5.423   6.897
 4987POPC   C4A62970  27.496   5.303   7.344
 4987POPC   C1B62971  27.864   5.043   6.202
 4987POPC   C2B62972  27.948   5.205   6.617
 4987POPC   C3B62973  27.732   4.956   6.967
 4987POPC   C4B62974  27.845   4.587   7.207
 4988POPC   NC362975   3.660  22.327   5.503
 4988POPC   PO462976   3.041  22.112   5.555
 4988POPC   GL162977   3.339  22.103   5.847
 4988POPC   GL262978   3.321  22.465   5.882
 4988POPC   C1A62979   3.436  22.061   6.281
 4988POPC   D2A62980   3.252  21.849   6.633
 4988POPC   C3A62981   3.417  21.881   7.028
 4988POPC   C4A62982   3.434  22.286   7.115
 4988POPC   C1B62983   3.634  22.537   6.202
 4988POPC   C2B62984   3.737  22.391   6.631
 4988POPC   C3B62985   3.853  22.577   7.022
 4988POPC   C4B62986   3.791  22.411   7.439
 4989POPC   NC362987  38.772  32.285   5.339
 4989POPC   PO462988  39.483  32.211   5.467
 4989POPC   GL162989  39.348  32.429   5.801
 4989POPC   GL262990  39.389  32.136   5.987
 4989POPC   C1A62991  39.209  32.527   6.240
 4989POPC   D2A62992  39.332  32.226   6.540
 4989POPC   C3A62993  39.083  32.279   6.906
 4989POPC   C4A62994  39.107  32.554   7.272
 4989POPC   C1B62995  39.708  32.433   6.177
 4989POPC   C2B62996  39.651  32.635   6.579
 4989POPC   C3B62997  39.586  32.442   6.973
 4989POPC   C4B62998  39.868  32.482   7.294
 4990POPC   NC362999  24.207  17.271   5.500
 4990POPC   PO463000  24.708  17.752   5.468
 4990POPC   GL163001  24.627  17.628   5.901
 4990POPC   GL263002  24.294  17.633   5.865
 4990POPC   C1A63003  24.522  17.394   6.313
 4990POPC   D2A63004  24.557  17.236   6.744
 4990POPC   C3A63005  24.477  17.539   7.083
 4990POPC   C4A63006  24.381  17.500   7.574
 4990POPC   C1B63007  24.030  17.416   6.170
 4990POPC   C2B63008  24.081  17.449   6.613
 4990POPC   C3B63009  23.970  17.302   7.005
 4990POPC   C4B63010  23.958  17.270   7.452
 4991POPC   NC363011  40.301  11.469   5.312
 4991POPC   PO463012  39.900  11.004   5.508
 4991POPC   GL163013  40.049  11.227   5.844
 4991POPC   GL263014  39.801  11.469   5.777
 4991POPC   C1A63015  40.216  11.087   6.248
 4991POPC   D2A63016  40.086  10.946   6.655
 4991POPC   C3A63017  40.180  11.250   6.953
 4991POPC   C4A63018  40.182  11.407   7.356
 4991POPC   C1B63019  39.648  11.458   6.213
 4991POPC   C2B63020  39.821  11.469   6.636
 4991POPC   C3B63021  39.713  11.479   7.106
 4991POPC   C4B63022  39.754  11.627   7.584
 4992POPC   NC363023  21.570   4.731   5.418
 4992POPC   PO463024  21.122   5.207   5.467
 4992POPC   GL163025  21.228   4.902   5.786
 4992POPC   GL263026  21.282   5.201   5.979
 4992POPC   C1A63027  21.465   4.781   6.182
 4992POPC   D2A63028  21.497   5.085   6.537
 4992POPC   C3A63029  21.580   4.903   6.950
 4992POPC   C4A63030  21.567   5.002   7.377
 4992POPC   C1B63031  21.482   5.521   6.233
 4992POPC   C2B63032  21.272   5.582   6.602
 4992POPC   C3B63033  21.240   5.313   6.944
 4992POPC   C4B63034  21.198   5.347   7.365
 4993POPC   NC363035  44.090   6.159   4.994
 4993POPC   PO463036  43.809   5.548   5.338
 4993POPC   GL163037  43.830   5.799   5.720
 4993POPC   GL263038  44.097   5.672   5.903
 4993POPC   C1A63039  43.721   5.956   6.149
 4993POPC   D2A63040  43.828   6.083   6.576
 4993POPC   C3A63041  43.687   5.943   6.960
 4993POPC   C4A63042  43.882   6.080   7.313
 4993POPC   C1B63043  44.249   5.814   6.320
 4993POPC   C2B63044  44.263   5.878   6.771
 4993POPC   C3B63045  44.106   5.653   7.107
 4993POPC   C4B63046  44.108   5.714   7.565
 4994POPC   NC363047  44.817   9.934   5.387
 4994POPC   PO463048  44.382   9.350   5.388
 4994POPC   GL163049  44.627   9.533   5.794
 4994POPC   GL263050  44.786   9.899   5.888
 4994POPC   C1A63051  44.671   9.512   6.235
 4994POPC   D2A63052  44.728   9.694   6.630
 4994POPC   C3A63053  44.585   9.525   7.013
 4994POPC   C4A63054  44.684   9.682   7.424
 4994POPC   C1B63055  44.512   9.993   6.211
 4994POPC   C2B63056  44.314   9.976   6.590
 4994POPC   C3B63057  44.541  10.042   6.964
 4994POPC   C4B63058  44.456  10.246   7.309
 4995POPC   NC363059  15.877   0.362   5.422
 4995POPC   PO463060  15.630   1.035   5.416
 4995POPC   GL163061  15.836   0.736   5.757
 4995POPC   GL263062  15.671   0.396   5.878
 4995POPC   C1A63063  16.066   0.543   6.145
 4995POPC   D2A63064  16.045   0.194   6.455
 4995POPC   C3A63065  16.006   0.273   6.901
 4995POPC   C4A63066  16.171   0.506   7.244
 4995POPC   C1B63067  15.449   0.453   6.264
 4995POPC   C2B63068  15.548   0.434   6.699
 4995POPC   C3B63069  15.489   0.302   7.123
 4995POPC   C4B63070  15.468   0.204   7.603
 4996POPC   NC363071  11.115  26.612   5.444
 4996POPC   PO463072  11.794  26.539   5.417
 4996POPC   GL163073  11.537  26.674   5.778
 4996POPC   GL263074  11.432  27.032   5.786
 4996POPC   C1A63075  11.383  26.695   6.223
 4996POPC   D2A63076  11.136  26.693   6.596
 4996POPC   C3A63077  11.264  26.718   7.014
 4996POPC   C4A63078  11.037  26.684   7.404
 4996POPC   C1B63079  11.440  27.180   6.222
 4996POPC   C2B63080  11.586  27.038   6.613
 4996POPC   C3B63081  11.597  27.110   7.052
 4996POPC   C4B63082  11.510  26.845   7.455
 4997POPC   NC363083  24.287  18.012   5.442
 4997POPC   PO463084  24.907  18.288   5.426
 4997POPC   GL163085  24.598  18.410   5.729
 4997POPC   GL263086  24.482  18.122   5.887
 4997POPC   C1A63087  24.599  18.499   6.197
 4997POPC   D2A63088  24.379  18.379   6.582
 4997POPC   C3A63089  24.372  18.596   6.975
 4997POPC   C4A63090  24.348  18.491   7.370
 4997POPC   C1B63091  24.456  17.928   6.296
 4997POPC   C2B63092  24.237  17.912   6.709
 4997POPC   C3B63093  24.404  18.079   7.077
 4997POPC   C4B63094  24.808  18.063   7.257
 4998POPC   NC363095  11.560  31.267   5.172
 4998POPC   PO463096  11.045  31.668   5.005
 4998POPC   GL163097  11.070  31.501   5.562
 4998POPC   GL263098  11.393  31.362   5.675
 4998POPC   C1A63099  11.057  31.501   6.051
 4998POPC   D2A63100  10.902  31.606   6.477
 4998POPC   C3A63101  11.152  31.722   6.842
 4998POPC   C4A63102  11.267  31.714   7.247
 4998POPC   C1B63103  11.528  31.277   6.114
 4998POPC   C2B63104  11.463  31.440   6.532
 4998POPC   C3B63105  11.512  31.364   6.960
 4998POPC   C4B63106  11.756  31.129   7.216
 4999POPC   NC363107   0.173  18.843   5.611
 4999POPC   PO463108   0.596  19.370   5.526
 4999POPC   GL163109   0.486  19.186   5.851
 4999POPC   GL263110   0.646  18.857   5.791
 4999POPC   C1A63111   0.177  19.293   6.165
 4999POPC   D2A63112   0.023  19.037   6.501
 4999POPC   C3A63113   0.243  19.159   6.834
 4999POPC   C4A63114   0.213  19.093   7.248
 4999POPC   C1B63115   0.430  18.839   6.212
 4999POPC   C2B63116   0.490  18.727   6.623
 4999POPC   C3B63117   0.414  18.676   7.021
 4999POPC   C4B63118   0.585  18.740   7.435
 5000POPC   NC363119  19.384  22.828   5.368
 5000POPC   PO463120  18.776  23.003   5.393
 5000POPC   GL163121  18.927  22.831   5.796
 5000POPC   GL263122  19.286  22.752   5.857
 5000POPC   C1A63123  18.943  22.730   6.235
 5000POPC   D2A63124  18.641  22.706   6.579
 5000POPC   C3A63125  18.874  22.902   6.930
 5000POPC   C4A63126  19.021  22.951   7.365
 5000POPC   C1B63127  19.432  23.077   6.170
 5000POPC   C2B63128  19.426  23.330   6.578
 5000POPC   C3B63129  19.356  23.179   7.012
 5000POPC   C4B63130  19.415  22.729   7.128
 5001POPC   NC363131  13.804  29.734   5.071
 5001POPC   PO463132  13.373  30.163   5.342
 5001POPC   GL163133  13.721  30.185   5.698
 5001POPC   GL263134  13.850  29.833   5.840
 5001POPC   C1A63135  13.688  30.163   6.179
 5001POPC   D2A63136  13.526  30.031   6.590
 5001POPC   C3A63137  13.810  30.045   6.933
 5001POPC   C4A63138  13.627  30.134   7.350
 5001POPC   C1B63139  13.816  29.632   6.282
 5001POPC   C2B63140  13.691  29.576   6.758
 5001POPC   C3B63141  13.485  29.693   7.146
 5001POPC   C4B63142  13.559  29.614   7.629
 5002POPC   NC363143  29.996   5.328   5.258
 5002POPC   PO463144  29.938   6.013   5.346
 5002POPC   GL163145  29.955   5.970   5.809
 5002POPC   GL263146  29.984   5.636   5.973
 5002POPC   C1A63147  29.706   6.011   6.199
 5002POPC   D2A63148  29.792   5.847   6.607
 5002POPC   C3A63149  30.058   6.123   6.845
 5002POPC   C4A63150  30.178   6.144   7.260
 5002POPC   C1B63151  30.196   5.542   6.362
 5002POPC   C2B63152  30.196   5.548   6.809
 5002POPC   C3B63153  29.948   5.706   7.101
 5002POPC   C4B63154  29.571   5.919   7.084
 5003POPC   NC363155  11.847  42.168   5.595
 5003POPC   PO463156  12.251  42.650   5.622
 5003POPC   GL163157  12.277  42.305   5.884
 5003POPC   GL263158  12.266  41.930   5.786
 5003POPC   C1A63159  12.313  42.489   6.272
 5003POPC   D2A63160  12.336  42.759   6.613
 5003POPC   C3A63161  12.368  42.512   6.955
 5003POPC   C4A63162  12.227  42.397   7.346
 5003POPC   C1B63163  12.056  41.997   6.212
 5003POPC   C2B63164  12.143  42.157   6.613
 5003POPC   C3B63165  12.313  41.997   6.970
 5003POPC   C4B63166  11.938  42.023   7.193
 5004POPC   NC363167  18.429  10.519   5.345
 5004POPC   PO463168  17.733  10.668   5.473
 5004POPC   GL163169  18.060  10.569   5.839
 5004POPC   GL263170  18.455  10.596   5.845
 5004POPC   C1A63171  18.259  10.309   6.211
 5004POPC   D2A63172  18.506  10.308   6.614
 5004POPC   C3A63173  18.245  10.558   6.900
 5004POPC   C4A63174  18.218  10.731   7.304
 5004POPC   C1B63175  18.654  10.695   6.261
 5004POPC   C2B63176  18.627  10.854   6.693
 5004POPC   C3B63177  18.722  10.684   7.104
 5004POPC   C4B63178  18.646  10.600   7.542
 5005POPC   NC363179  18.166  40.760   5.363
 5005POPC   PO463180  18.795  41.070   5.530
 5005POPC   GL163181  18.413  40.965   5.760
 5005POPC   GL263182  18.359  40.600   5.804
 5005POPC   C1A63183  18.189  40.968   6.158
 5005POPC   D2A63184  18.266  41.160   6.565
 5005POPC   C3A63185  18.190  40.951   6.929
 5005POPC   C4A63186  18.562  40.746   7.084
 5005POPC   C1B63187  18.508  40.523   6.218
 5005POPC   C2B63188  18.352  40.606   6.604
 5005POPC   C3B63189  18.198  40.413   6.987
 5005POPC   C4B63190  17.852  40.291   7.258
 5006POPC   NC363191  42.379  41.076   5.342
 5006POPC   PO463192  42.327  40.503   5.719
 5006POPC   GL163193  42.265  40.901   5.894
 5006POPC   GL263194  42.019  41.118   5.749
 5006POPC   C1A63195  42.243  40.796   6.329
 5006POPC   D2A63196  42.588  40.735   6.628
 5006POPC   C3A63197  42.555  40.578   7.062
 5006POPC   C4A63198  42.578  40.602   7.522
 5006POPC   C1B63199  42.066  41.271   6.208
 5006POPC   C2B63200  42.274  41.210   6.605
 5006POPC   C3B63201  42.064  41.110   6.977
 5006POPC   C4B63202  42.185  40.848   7.301
 5007POPC   NC363203  38.260  41.021   5.159
 5007POPC   PO463204  38.348  40.424   5.369
 5007POPC   GL163205  38.577  40.648   5.689
 5007POPC   GL263206  38.385  40.953   5.694
 5007POPC   C1A63207  38.500  40.657   6.153
 5007POPC   D2A63208  38.318  40.542   6.553
 5007POPC   C3A63209  38.529  40.516   6.936
 5007POPC   C4A63210  38.395  40.699   7.307
 5007POPC   C1B63211  38.525  41.154   6.097
 5007POPC   C2B63212  38.375  41.067   6.498
 5007POPC   C3B63213  38.554  41.016   6.876
 5007POPC   C4B63214  38.548  41.172   7.239
 5008POPC   NC363215  19.856  44.748   5.345
 5008POPC   PO463216  19.390   0.188   5.632
 5008POPC   GL163217  19.704  44.858   5.828
 5008POPC   GL263218  19.632  44.486   5.730
 5008POPC   C1A63219  20.038  44.863   6.170
 5008POPC   D2A63220  19.875  44.852   6.606
 5008POPC   C3A63221  19.992  44.964   7.037
 5008POPC   C4A63222  19.757  44.758   7.383
 5008POPC   C1B63223  19.826  44.405   6.130
 5008POPC   C2B63224  19.778  44.343   6.552
 5008POPC   C3B63225  19.920  44.438   6.966
 5008POPC   C4B63226  19.883  44.240   7.377
 5009POPC   NC363227  38.094   8.427   5.547
 5009POPC   PO463228  38.058   7.848   5.144
 5009POPC   GL163229  37.839   7.979   5.630
 5009POPC   GL263230  37.473   8.104   5.606
 5009POPC   C1A63231  37.917   8.078   6.151
 5009POPC   D2A63232  37.929   8.366   6.568
 5009POPC   C3A63233  37.771   8.283   7.028
 5009POPC   C4A63234  37.684   7.888   7.274
 5009POPC   C1B63235  37.436   8.020   6.034
 5009POPC   C2B63236  37.458   8.070   6.487
 5009POPC   C3B63237  37.336   7.972   6.910
 5009POPC   C4B63238  37.248   8.140   7.304
 5010POPC   NC363239   8.029   0.190   5.369
 5010POPC   PO463240   8.112   0.836   5.429
 5010POPC   GL163241   8.131   0.576   5.768
 5010POPC   GL263242   7.904   0.786   5.914
 5010POPC   C1A63243   8.289   0.576   6.205
 5010POPC   D2A63244   8.438   0.653   6.644
 5010POPC   C3A63245   8.168   0.479   6.953
 5010POPC   C4A63246   8.250   0.298   7.327
 5010POPC   C1B63247   7.701   0.914   6.279
 5010POPC   C2B63248   7.856   0.835   6.684
 5010POPC   C3B63249   7.789   0.801   7.110
 5010POPC   C4B63250   7.903   0.640   7.516
 5011POPC   NC363251  18.157  14.010   5.695
 5011POPC   PO463252  18.370  14.668   5.408
 5011POPC   GL163253  18.314  14.484   5.773
 5011POPC   GL263254  18.565  14.348   5.896
 5011POPC   C1A63255  18.117  14.460   6.156
 5011POPC   D2A63256  17.950  14.499   6.526
 5011POPC   C3A63257  18.230  14.378   6.847
 5011POPC   C4A63258  18.140  14.179   7.218
 5011POPC   C1B63259  18.503  14.098   6.248
 5011POPC   C2B63260  18.491  13.911   6.629
 5011POPC   C3B63261  18.690  14.086   6.989
 5011POPC   C4B63262  18.644  14.134   7.414
 5012POPC   NC363263  42.660  15.882   5.631
 5012POPC   PO463264  42.343  16.426   5.367
 5012POPC   GL163265  42.257  16.197   5.780
 5012POPC   GL263266  42.175  15.819   5.771
 5012POPC   C1A63267  42.367  16.055   6.240
 5012POPC   D2A63268  42.279  16.078   6.697
 5012POPC   C3A63269  42.564  15.909   7.043
 5012POPC   C4A63270  42.591  16.154   7.437
 5012POPC   C1B63271  42.130  15.604   6.118
 5012POPC   C2B63272  42.046  15.645   6.545
 5012POPC   C3B63273  41.819  15.678   6.905
 5012POPC   C4B63274  42.071  15.591   7.213
 5013POPC   NC363275  15.577  14.027   5.380
 5013POPC   PO463276  16.120  14.416   5.244
 5013POPC   GL163277  15.974  14.245   5.675
 5013POPC   GL263278  16.229  14.007   5.782
 5013POPC   C1A63279  15.756  14.219   6.131
 5013POPC   D2A63280  15.706  14.492   6.509
 5013POPC   C3A63281  15.746  14.290   6.918
 5013POPC   C4A63282  15.870  14.501   7.261
 5013POPC   C1B63283  16.259  14.246   6.180
 5013POPC   C2B63284  16.101  14.136   6.591
 5013POPC   C3B63285  16.259  14.222   7.025
 5013POPC   C4B63286  16.221  14.254   7.506
 5014POPC   NC363287  23.990  20.680   5.382
 5014POPC   PO463288  23.574  20.148   5.589
 5014POPC   GL163289  23.681  20.548   5.782
 5014POPC   GL263290  23.386  20.771   5.741
 5014POPC   C1A63291  23.976  20.821   6.085
 5014POPC   D2A63292  24.007  21.052   6.533
 5014POPC   C3A63293  23.919  20.833   6.897
 5014POPC   C4A63294  23.973  20.757   7.325
 5014POPC   C1B63295  23.495  20.773   6.207
 5014POPC   C2B63296  23.491  20.943   6.630
 5014POPC   C3B63297  23.395  20.761   7.054
 5014POPC   C4B63298  23.478  20.828   7.514
 5015POPC   NC363299  27.249  39.201   5.630
 5015POPC   PO463300  26.635  39.258   5.501
 5015POPC   GL163301  26.760  39.116   5.870
 5015POPC   GL263302  26.820  39.450   5.952
 5015POPC   C1A63303  26.868  39.044   6.299
 5015POPC   D2A63304  26.803  39.261   6.689
 5015POPC   C3A63305  26.878  38.972   7.061
 5015POPC   C4A63306  26.724  38.820   7.477
 5015POPC   C1B63307  27.154  39.494   6.246
 5015POPC   C2B63308  27.254  39.594   6.663
 5015POPC   C3B63309  27.109  39.440   7.061
 5015POPC   C4B63310  27.053  39.242   7.466
 5016POPC   NC363311  33.704  27.754   5.094
 5016POPC   PO463312  34.191  27.787   5.567
 5016POPC   GL163313  33.850  27.663   5.811
 5016POPC   GL263314  34.047  27.427   5.926
 5016POPC   C1A63315  33.679  27.648   6.238
 5016POPC   D2A63316  33.617  27.439   6.630
 5016POPC   C3A63317  33.654  27.647   7.043
 5016POPC   C4A63318  33.502  27.668   7.494
 5016POPC   C1B63319  34.200  27.602   6.260
 5016POPC   C2B63320  34.124  27.434   6.630
 5016POPC   C3B63321  34.009  27.243   6.970
 5016POPC   C4B63322  34.028  27.441   7.341
 5017POPC   NC363323   4.230  18.616   5.310
 5017POPC   PO463324   4.811  18.672   5.657
 5017POPC   GL163325   4.429  18.401   5.742
 5017POPC   GL263326   4.377  18.033   5.633
 5017POPC   C1A63327   4.216  18.291   6.102
 5017POPC   D2A63328   4.163  18.406   6.537
 5017POPC   C3A63329   4.522  18.527   6.788
 5017POPC   C4A63330   4.505  18.388   7.228
 5017POPC   C1B63331   4.494  17.875   6.041
 5017POPC   C2B63332   4.320  17.879   6.481
 5017POPC   C3B63333   4.277  18.056   6.896
 5017POPC   C4B63334   4.167  17.964   7.305
 5018POPC   NC363335  10.766  19.932   5.395
 5018POPC   PO463336  10.453  19.463   5.611
 5018POPC   GL163337  10.589  19.773   5.895
 5018POPC   GL263338  10.410  20.077   5.797
 5018POPC   C1A63339  10.529  19.729   6.336
 5018POPC   D2A63340  10.304  19.610   6.685
 5018POPC   C3A63341  10.641  19.694   6.952
 5018POPC   C4A63342  10.683  19.869   7.347
 5018POPC   C1B63343  10.513  20.218   6.225
 5018POPC   C2B63344  10.365  20.129   6.656
 5018POPC   C3B63345  10.290  20.245   7.084
 5018POPC   C4B63346  10.247  20.104   7.529
 5019POPC   NC363347  40.957   5.322   5.545
 5019POPC   PO463348  40.394   5.243   5.290
 5019POPC   GL163349  40.593   5.004   5.785
 5019POPC   GL263350  40.908   5.138   6.006
 5019POPC   C1A63351  40.515   5.019   6.286
 5019POPC   D2A63352  40.577   5.232   6.704
 5019POPC   C3A63353  40.768   5.053   7.047
 5019POPC   C4A63354  41.041   4.846   7.315
 5019POPC   C1B63355  40.825   5.474   6.328
 5019POPC   C2B63356  40.847   5.764   6.661
 5019POPC   C3B63357  40.882   5.567   7.041
 5019POPC   C4B63358  40.540   5.459   7.304
 5020POPC   NC363359  25.498   8.236   5.349
 5020POPC   PO463360  25.903   7.884   5.756
 5020POPC   GL163361  25.538   8.142   5.857
 5020POPC   GL263362  25.182   8.247   5.758
 5020POPC   C1A63363  25.396   8.224   6.245
 5020POPC   D2A63364  25.082   8.112   6.507
 5020POPC   C3A63365  25.366   8.204   6.830
 5020POPC   C4A63366  25.221   8.094   7.212
 5020POPC   C1B63367  25.006   8.490   6.116
 5020POPC   C2B63368  25.095   8.608   6.567
 5020POPC   C3B63369  25.075   8.558   7.046
 5020POPC   C4B63370  25.427   8.528   7.373
 5021POPC   NC363371  22.294  22.805   5.265
 5021POPC   PO463372  21.878  22.924   5.853
 5021POPC   GL163373  22.242  23.002   6.044
 5021POPC   GL263374  22.352  22.699   5.844
 5021POPC   C1A63375  22.346  23.094   6.480
 5021POPC   D2A63376  22.284  23.441   6.784
 5021POPC   C3A63377  21.988  23.273   7.052
 5021POPC   C4A63378  22.066  22.892   7.177
 5021POPC   C1B63379  22.247  22.555   6.255
 5021POPC   C2B63380  22.051  22.679   6.635
 5021POPC   C3B63381  22.145  22.416   6.931
 5021POPC   C4B63382  22.236  22.447   7.317
 5022POPC   NC363383  41.277  26.163   5.509
 5022POPC   PO463384  41.727  25.657   5.493
 5022POPC   GL163385  41.537  25.865   5.818
 5022POPC   GL263386  41.696  26.222   5.783
 5022POPC   C1A63387  41.441  25.936   6.222
 5022POPC   D2A63388  41.625  25.810   6.574
 5022POPC   C3A63389  41.451  25.940   6.914
 5022POPC   C4A63390  41.552  25.782   7.245
 5022POPC   C1B63391  41.602  26.431   6.175
 5022POPC   C2B63392  41.558  26.316   6.564
 5022POPC   C3B63393  41.702  26.390   6.925
 5022POPC   C4B63394  41.783  26.235   7.320
 5023POPC   NC363395  37.111  29.236   5.421
 5023POPC   PO463396  37.304  28.699   5.785
 5023POPC   GL163397  37.070  29.060   5.921
 5023POPC   GL263398  36.869  29.372   5.847
 5023POPC   C1A63399  36.939  29.154   6.308
 5023POPC   D2A63400  36.827  28.831   6.536
 5023POPC   C3A63401  36.976  28.881   6.902
 5023POPC   C4A63402  36.790  28.932   7.277
 5023POPC   C1B63403  37.253  29.520   6.095
 5023POPC   C2B63404  37.222  29.490   6.573
 5023POPC   C3B63405  36.878  29.388   6.915
 5023POPC   C4B63406  36.857  29.446   7.378
 5024POPC   NC363407  32.821  39.123   5.239
 5024POPC   PO463408  33.226  39.597   5.415
 5024POPC   GL163409  33.143  39.264   5.711
 5024POPC   GL263410  32.805  39.150   5.763
 5024POPC   C1A63411  33.290  39.103   6.093
 5024POPC   D2A63412  33.118  38.987   6.485
 5024POPC   C3A63413  33.161  39.256   6.838
 5024POPC   C4A63414  33.222  39.086   7.259
 5024POPC   C1B63415  32.823  39.315   6.191
 5024POPC   C2B63416  32.682  39.206   6.636
 5024POPC   C3B63417  32.755  39.102   7.104
 5024POPC   C4B63418  32.707  39.298   7.533
 5025POPC   NC363419   0.068   6.478   5.063
 5025POPC   PO463420  44.485   6.468   5.429
 5025POPC   GL163421  44.615   6.685   5.793
 5025POPC   GL263422  44.374   6.952   5.814
 5025POPC   C1A63423  44.848   6.691   6.188
 5025POPC   D2A63424  44.695   6.639   6.607
 5025POPC   C3A63425  44.899   6.818   6.937
 5025POPC   C4A63426  44.745   7.049   7.248
 5025POPC   C1B63427  44.343   6.781   6.233
 5025POPC   C2B63428  44.259   6.943   6.652
 5025POPC   C3B63429  44.377   6.759   7.024
 5025POPC   C4B63430  44.466   6.339   7.128
 5026POPC   NC363431  43.792   7.677   5.629
 5026POPC   PO463432  43.664   8.210   5.198
 5026POPC   GL163433  43.825   8.225   5.687
 5026POPC   GL263434  44.092   8.016   5.892
 5026POPC   C1A63435  43.904   8.479   6.097
 5026POPC   D2A63436  43.990   8.298   6.523
 5026POPC   C3A63437  43.835   8.439   6.929
 5026POPC   C4A63438  44.038   8.274   7.298
 5026POPC   C1B63439  43.705   8.019   6.165
 5026POPC   C2B63440  43.524   7.999   6.562
 5026POPC   C3B63441  43.705   7.946   6.931
 5026POPC   C4B63442  43.592   8.033   7.334
 5027POPC   NC363443  10.421   3.746   5.300
 5027POPC   PO463444  10.552   3.087   5.404
 5027POPC   GL163445  10.625   3.478   5.705
 5027POPC   GL263446  10.382   3.757   5.820
 5027POPC   C1A63447  10.804   3.697   6.109
 5027POPC   D2A63448  10.823   3.570   6.554
 5027POPC   C3A63449  10.491   3.694   6.842
 5027POPC   C4A63450  10.495   3.537   7.238
 5027POPC   C1B63451  10.343   3.468   6.190
 5027POPC   C2B63452  10.388   3.240   6.589
 5027POPC   C3B63453  10.201   3.192   7.015
 5027POPC   C4B63454  10.244   3.187   7.493
 5028POPC   NC363455   4.443  32.879   5.477
 5028POPC   PO463456   5.013  33.375   5.425
 5028POPC   GL163457   4.847  33.100   5.708
 5028POPC   GL263458   4.826  33.370   5.929
 5028POPC   C1A63459   4.914  32.884   6.112
 5028POPC   D2A63460   5.226  32.983   6.441
 5028POPC   C3A63461   5.146  32.879   6.866
 5028POPC   C4A63462   5.251  33.073   7.221
 5028POPC   C1B63463   5.006  33.439   6.313
 5028POPC   C2B63464   4.935  33.341   6.729
 5028POPC   C3B63465   4.882  33.443   7.136
 5028POPC   C4B63466   4.775  33.320   7.561
 5029POPC   NC363467   0.468   7.677   5.225
 5029POPC   PO463468   0.691   8.209   5.576
 5029POPC   GL163469   0.358   8.101   5.848
 5029POPC   GL263470   0.155   8.367   5.983
 5029POPC   C1A63471   0.208   7.919   6.232
 5029POPC   D2A63472   0.225   8.179   6.596
 5029POPC   C3A63473   0.530   7.992   6.854
 5029POPC   C4A63474   0.519   8.020   7.261
 5029POPC   C1B63475   0.533   8.469   6.248
 5029POPC   C2B63476   0.746   8.430   6.677
 5029POPC   C3B63477   0.668   8.550   7.121
 5029POPC   C4B63478   0.753   8.563   7.624
 5030POPC   NC363479   2.469  31.014   5.629
 5030POPC   PO463480   1.977  30.767   5.264
 5030POPC   GL163481   2.095  30.667   5.717
 5030POPC   GL263482   2.324  30.406   5.733
 5030POPC   C1A63483   1.948  30.743   6.178
 5030POPC   D2A63484   2.040  30.799   6.652
 5030POPC   C3A63485   1.690  30.943   6.923
 5030POPC   C4A63486   1.560  30.994   7.339
 5030POPC   C1B63487   2.425  30.576   6.162
 5030POPC   C2B63488   2.484  30.395   6.576
 5030POPC   C3B63489   2.248  30.412   6.961
 5030POPC   C4B63490   2.094  30.771   7.222
 5031POPC   NC363491  41.204  38.460   5.374
 5031POPC   PO463492  40.642  38.799   5.587
 5031POPC   GL163493  40.825  38.566   5.871
 5031POPC   GL263494  40.948  38.236   5.766
 5031POPC   C1A63495  40.781  38.634   6.309
 5031POPC   D2A63496  40.807  38.858   6.671
 5031POPC   C3A63497  40.551  38.680   6.988
 5031POPC   C4A63498  40.684  38.587   7.389
 5031POPC   C1B63499  41.126  38.291   6.179
 5031POPC   C2B63500  41.004  38.224   6.610
 5031POPC   C3B63501  41.005  38.374   7.032
 5031POPC   C4B63502  40.990  38.156   7.435
 5032POPC   NC363503  41.001  29.655   5.586
 5032POPC   PO463504  40.645  30.150   5.633
 5032POPC   GL163505  40.575  29.953   5.993
 5032POPC   GL263506  40.609  29.618   5.902
 5032POPC   C1A63507  40.700  29.918   6.398
 5032POPC   D2A63508  41.082  30.033   6.597
 5032POPC   C3A63509  41.053  29.795   6.954
 5032POPC   C4A63510  40.632  29.870   7.107
 5032POPC   C1B63511  40.786  29.424   6.275
 5032POPC   C2B63512  40.661  29.493   6.707
 5032POPC   C3B63513  40.330  29.446   7.019
 5032POPC   C4B63514  40.414  29.568   7.446
 5033POPC   NC363515  26.902  24.685   5.118
 5033POPC   PO463516  26.925  24.155   5.577
 5033POPC   GL163517  26.968  24.241   6.001
 5033POPC   GL263518  26.695  24.452   6.103
 5033POPC   C1A63519  27.062  24.331   6.435
 5033POPC   D2A63520  26.924  24.665   6.670
 5033POPC   C3A63521  26.650  24.433   6.906
 5033POPC   C4A63522  26.732  24.308   7.289
 5033POPC   C1B63523  26.396  24.595   6.396
 5033POPC   C2B63524  26.437  24.856   6.720
 5033POPC   C3B63525  26.647  24.920   7.095
 5033POPC   C4B63526  26.690  24.758   7.531
 5034POPC   NC363527   2.406   4.702   5.593
 5034POPC   PO463528   2.892   5.165   5.540
 5034POPC   GL163529   2.598   5.114   5.842
 5034POPC   GL263530   2.829   4.895   6.022
 5034POPC   C1A63531   2.370   4.930   6.208
 5034POPC   D2A63532   2.601   4.808   6.570
 5034POPC   C3A63533   2.686   5.033   6.947
 5034POPC   C4A63534   2.907   5.063   7.373
 5034POPC   C1B63535   2.754   5.265   6.299
 5034POPC   C2B63536   2.797   5.503   6.703
 5034POPC   C3B63537   2.757   5.507   7.157
 5034POPC   C4B63538   3.077   5.558   7.519
 5035POPC   NC363539  12.443  32.934   5.536
 5035POPC   PO463540  13.044  33.095   5.676
 5035POPC   GL163541  12.738  33.041   5.938
 5035POPC   GL263542  12.594  33.377   5.819
 5035POPC   C1A63543  12.900  32.911   6.321
 5035POPC   D2A63544  13.191  33.097   6.590
 5035POPC   C3A63545  12.980  32.994   6.937
 5035POPC   C4A63546  12.840  33.000   7.305
 5035POPC   C1B63547  12.856  33.454   6.210
 5035POPC   C2B63548  12.740  33.315   6.621
 5035POPC   C3B63549  12.684  33.420   7.043
 5035POPC   C4B63550  12.637  33.415   7.498
 5036POPC   NC363551  18.569  11.539   5.097
 5036POPC   PO463552  18.572  10.971   5.382
 5036POPC   GL163553  18.262  11.054   5.725
 5036POPC   GL263554  18.529  11.097   5.980
 5036POPC   C1A63555  18.063  11.206   6.132
 5036POPC   D2A63556  18.089  11.568   6.414
 5036POPC   C3A63557  18.055  11.427   6.813
 5036POPC   C4A63558  18.271  11.106   6.988
 5036POPC   C1B63559  18.557  11.476   6.252
 5036POPC   C2B63560  18.574  11.453   6.706
 5036POPC   C3B63561  18.434  11.597   7.106
 5036POPC   C4B63562  18.102  11.492   7.334
 5037POPC   NC363563  25.430  33.300   5.543
 5037POPC   PO463564  24.994  32.779   5.369
 5037POPC   GL163565  25.179  32.765   5.760
 5037POPC   GL263566  25.536  32.876   5.838
 5037POPC   C1A63567  25.092  32.941   6.139
 5037POPC   D2A63568  25.274  32.930   6.533
 5037POPC   C3A63569  25.112  32.722   6.897
 5037POPC   C4A63570  25.167  32.881   7.301
 5037POPC   C1B63571  25.653  32.681   6.270
 5037POPC   C2B63572  25.713  32.736   6.752
 5037POPC   C3B63573  25.567  32.552   7.164
 5037POPC   C4B63574  25.497  32.652   7.643
 5038POPC   NC363575  12.698   9.372   5.550
 5038POPC   PO463576  13.005   8.742   5.620
 5038POPC   GL163577  12.661   8.875   5.839
 5038POPC   GL263578  12.860   9.138   5.990
 5038POPC   C1A63579  12.572   8.832   6.269
 5038POPC   D2A63580  12.764   9.013   6.595
 5038POPC   C3A63581  12.527   8.905   6.914
 5038POPC   C4A63582  12.590   8.869   7.340
 5038POPC   C1B63583  13.054   9.359   6.346
 5038POPC   C2B63584  13.289   9.265   6.731
 5038POPC   C3B63585  13.031   9.074   7.061
 5038POPC   C4B63586  12.990   9.189   7.512
 5039POPC   NC363587   1.238  32.675   5.544
 5039POPC   PO463588   1.567  32.002   5.508
 5039POPC   GL163589   1.274  32.210   5.866
 5039POPC   GL263590   1.013  32.514   5.965
 5039POPC   C1A63591   1.236  32.215   6.321
 5039POPC   D2A63592   1.059  32.477   6.619
 5039POPC   C3A63593   1.048  32.352   7.053
 5039POPC   C4A63594   0.827  32.080   7.337
 5039POPC   C1B63595   1.354  32.687   6.191
 5039POPC   C2B63596   1.579  32.590   6.555
 5039POPC   C3B63597   1.542  32.714   6.993
 5039POPC   C4B63598   1.288  32.714   7.378
 5040POPC   NC363599  18.791  36.324   5.183
 5040POPC   PO463600  19.198  35.832   5.421
 5040POPC   GL163601  18.965  36.017   5.779
 5040POPC   GL263602  18.859  36.379   5.738
 5040POPC   C1A63603  18.945  35.898   6.229
 5040POPC   D2A63604  18.852  35.643   6.588
 5040POPC   C3A63605  18.921  35.866   6.906
 5040POPC   C4A63606  18.762  35.954   7.273
 5040POPC   C1B63607  19.090  36.496   6.126
 5040POPC   C2B63608  19.079  36.300   6.553
 5040POPC   C3B63609  18.906  36.366   6.991
 5040POPC   C4B63610  18.965  36.389   7.436
 5041POPC   NC363611  27.741  34.056   5.498
 5041POPC   PO463612  27.413  33.464   5.448
 5041POPC   GL163613  27.574  33.631   5.843
 5041POPC   GL263614  27.947  33.514   5.825
 5041POPC   C1A63615  27.392  33.762   6.286
 5041POPC   D2A63616  27.435  33.534   6.704
 5041POPC   C3A63617  27.370  33.850   7.013
 5041POPC   C4A63618  27.744  34.114   7.093
 5041POPC   C1B63619  27.849  33.539   6.282
 5041POPC   C2B63620  27.928  33.715   6.699
 5041POPC   C3B63621  27.785  33.575   7.098
 5041POPC   C4B63622  27.615  33.498   7.487
 5042POPC   NC363623  16.406  17.431   5.476
 5042POPC   PO463624  15.850  17.220   5.164
 5042POPC   GL163625  15.890  17.410   5.646
 5042POPC   GL263626  16.077  17.225   5.868
 5042POPC   C1A63627  16.002  17.698   6.047
 5042POPC   D2A63628  15.921  17.972   6.430
 5042POPC   C3A63629  15.872  17.773   6.859
 5042POPC   C4A63630  15.747  17.637   7.270
 5042POPC   C1B63631  15.669  17.330   6.110
 5042POPC   C2B63632  15.671  17.490   6.495
 5042POPC   C3B63633  15.760  17.274   6.890
 5042POPC   C4B63634  15.436  17.194   7.174
 5043POPC   NC363635  36.486  24.181   5.510
 5043POPC   PO463636  35.896  24.349   5.332
 5043POPC   GL163637  36.054  24.439   5.749
 5043POPC   GL263638  36.381  24.592   5.863
 5043POPC   C1A63639  35.886  24.538   6.149
 5043POPC   D2A63640  35.991  24.378   6.554
 5043POPC   C3A63641  35.865  24.320   6.972
 5043POPC   C4A63642  36.142  24.238   7.374
 5043POPC   C1B63643  36.364  24.661   6.326
 5043POPC   C2B63644  36.197  24.809   6.745
 5043POPC   C3B63645  36.136  24.714   7.180
 5043POPC   C4B63646  36.505  24.594   7.474
 5044POPC   NC363647  43.289   0.289   5.337
 5044POPC   PO463648  42.770   0.200   5.729
 5044POPC   GL163649  43.021   0.563   5.826
 5044POPC   GL263650  43.368   0.464   5.832
 5044POPC   C1A63651  43.059   0.704   6.270
 5044POPC   D2A63652  42.898   0.558   6.655
 5044POPC   C3A63653  43.092   0.468   7.021
 5044POPC   C4A63654  42.969   0.559   7.418
 5044POPC   C1B63655  43.571   0.640   6.218
 5044POPC   C2B63656  43.422   0.721   6.667
 5044POPC   C3B63657  43.583   0.641   7.104
 5044POPC   C4B63658  43.441   0.325   7.407
 5045POPC   NC363659  35.469  38.794   5.333
 5045POPC   PO463660  35.349  38.122   5.387
 5045POPC   GL163661  35.436  38.305   5.811
 5045POPC   GL263662  35.238  38.625   5.883
 5045POPC   C1A63663  35.418  38.235   6.266
 5045POPC   D2A63664  35.484  38.415   6.680
 5045POPC   C3A63665  35.358  38.210   7.056
 5045POPC   C4A63666  35.497  38.452   7.449
 5045POPC   C1B63667  35.055  38.671   6.283
 5045POPC   C2B63668  35.144  38.801   6.721
 5045POPC   C3B63669  35.121  38.638   7.135
 5045POPC   C4B63670  35.058  38.758   7.576
 5046POPC   NC363671  15.040  24.950   5.405
 5046POPC   PO463672  15.421  25.467   5.466
 5046POPC   GL163673  15.330  25.176   5.767
 5046POPC   GL263674  14.967  25.132   5.865
 5046POPC   C1A63675  15.422  25.070   6.174
 5046POPC   D2A63676  15.375  25.305   6.543
 5046POPC   C3A63677  15.300  25.050   6.871
 5046POPC   C4A63678  15.505  25.027   7.245
 5046POPC   C1B63679  14.959  25.369   6.239
 5046POPC   C2B63680  14.877  25.378   6.685
 5046POPC   C3B63681  14.999  25.405   7.113
 5046POPC   C4B63682  14.939  25.583   7.532
 5047POPC   NC363683   0.142  42.055   5.415
 5047POPC   PO463684  44.406  41.929   5.395
 5047POPC   GL163685  44.459  42.196   5.755
 5047POPC   GL263686  44.768  42.375   5.689
 5047POPC   C1A63687  44.305  42.403   6.132
 5047POPC   D2A63688  44.500  42.475   6.522
 5047POPC   C3A63689  44.272  42.424   6.882
 5047POPC   C4A63690  44.443  42.312   7.256
 5047POPC   C1B63691  44.856  42.478   6.125
 5047POPC   C2B63692  44.988  42.305   6.532
 5047POPC   C3B63693  44.825  42.404   6.941
 5047POPC   C4B63694  44.827  42.593   7.368
 5048POPC   NC363695  34.005  14.003   5.597
 5048POPC   PO463696  33.529  14.344   5.294
 5048POPC   GL163697  33.651  14.349   5.746
 5048POPC   GL263698  33.376  14.543   5.813
 5048POPC   C1A63699  33.813  14.167   6.187
 5048POPC   D2A63700  34.034  14.068   6.581
 5048POPC   C3A63701  33.852  14.322   6.914
 5048POPC   C4A63702  33.622  14.178   7.273
 5048POPC   C1B63703  33.516  14.580   6.233
 5048POPC   C2B63704  33.538  14.623   6.660
 5048POPC   C3B63705  33.602  14.840   7.029
 5048POPC   C4B63706  33.852  14.651   7.329
 5049POPC   NC363707  36.895  40.864   5.422
 5049POPC   PO463708  36.390  41.207   5.707
 5049POPC   GL163709  36.825  41.118   5.869
 5049POPC   GL263710  36.936  40.748   5.925
 5049POPC   C1A63711  37.091  41.099   6.234
 5049POPC   D2A63712  36.957  40.845   6.545
 5049POPC   C3A63713  37.091  40.890   6.955
 5049POPC   C4A63714  36.757  40.717   7.183
 5049POPC   C1B63715  36.901  40.387   6.215
 5049POPC   C2B63716  36.944  40.319   6.642
 5049POPC   C3B63717  37.097  40.352   7.051
 5049POPC   C4B63718  37.242  40.615   7.365
 5050POPC   NC363719  35.340   3.502   5.351
 5050POPC   PO463720  35.346   2.845   5.430
 5050POPC   GL163721  35.502   3.177   5.778
 5050POPC   GL263722  35.595   3.580   5.788
 5050POPC   C1A63723  35.398   3.359   6.209
 5050POPC   D2A63724  35.321   3.683   6.527
 5050POPC   C3A63725  35.317   3.459   6.926
 5050POPC   C4A63726  35.071   3.440   7.299
 5050POPC   C1B63727  35.747   3.749   6.182
 5050POPC   C2B63728  35.834   3.651   6.607
 5050POPC   C3B63729  35.691   3.828   6.980
 5050POPC   C4B63730  35.559   3.581   7.372
 5051POPC   NC363731  38.008  10.173   5.337
 5051POPC   PO463732  37.672   9.636   5.493
 5051POPC   GL163733  37.605   9.650   5.906
 5051POPC   GL263734  37.284   9.565   5.909
 5051POPC   C1A63735  37.843   9.602   6.280
 5051POPC   D2A63736  38.075   9.696   6.605
 5051POPC   C3A63737  37.843   9.724   6.944
 5051POPC   C4A63738  37.903   9.876   7.319
 5051POPC   C1B63739  37.334   9.665   6.351
 5051POPC   C2B63740  37.358   9.772   6.778
 5051POPC   C3B63741  37.409   9.845   7.194
 5051POPC   C4B63742  37.421   9.531   7.486
 5052POPC   NC363743  35.755  18.586   5.536
 5052POPC   PO463744  35.524  19.188   5.380
 5052POPC   GL163745  35.341  18.900   5.688
 5052POPC   GL263746  34.992  18.983   5.751
 5052POPC   C1A63747  35.476  18.835   6.114
 5052POPC   D2A63748  35.461  19.046   6.499
 5052POPC   C3A63749  35.281  18.840   6.813
 5052POPC   C4A63750  35.343  18.848   7.203
 5052POPC   C1B63751  34.990  18.989   6.218
 5052POPC   C2B63752  34.940  19.175   6.650
 5052POPC   C3B63753  35.288  19.335   6.932
 5052POPC   C4B63754  35.661  19.275   7.209
 5053POPC   NC363755  35.271  26.783   5.418
 5053POPC   PO463756  35.754  27.227   5.347
 5053POPC   GL163757  35.729  26.925   5.713
 5053POPC   GL263758  35.659  26.589   5.759
 5053POPC   C1A63759  35.531  26.925   6.138
 5053POPC   D2A63760  35.413  27.113   6.545
 5053POPC   C3A63761  35.519  26.980   6.952
 5053POPC   C4A63762  35.184  27.104   7.224
 5053POPC   C1B63763  35.542  26.411   6.136
 5053POPC   C2B63764  35.399  26.585   6.537
 5053POPC   C3B63765  35.141  26.630   6.903
 5053POPC   C4B63766  35.400  26.591   7.255
 5054POPC   NC363767  15.234  16.238   5.457
 5054POPC   PO463768  15.673  15.708   5.604
 5054POPC   GL163769  15.237  15.807   5.772
 5054POPC   GL263770  15.189  16.155   5.967
 5054POPC   C1A63771  14.973  15.740   6.156
 5054POPC   D2A63772  15.082  15.981   6.527
 5054POPC   C3A63773  15.086  15.758   6.886
 5054POPC   C4A63774  15.064  15.927   7.281
 5054POPC   C1B63775  15.479  15.861   6.221
 5054POPC   C2B63776  15.554  15.799   6.650
 5054POPC   C3B63777  15.538  15.899   7.082
 5054POPC   C4B63778  15.474  15.762   7.518
 5055POPC   NC363779  12.596  10.362   5.642
 5055POPC   PO463780  13.204  10.770   5.504
 5055POPC   GL163781  13.086  10.509   5.838
 5055POPC   GL263782  13.136  10.140   5.805
 5055POPC   C1A63783  13.061  10.637   6.267
 5055POPC   D2A63784  13.126  10.732   6.715
 5055POPC   C3A63785  12.756  10.625   6.971
 5055POPC   C4A63786  12.732  10.504   7.370
 5055POPC   C1B63787  12.906  10.157   6.197
 5055POPC   C2B63788  13.152  10.223   6.557
 5055POPC   C3B63789  13.090  10.236   6.978
 5055POPC   C4B63790  13.141  10.185   7.420
 5056POPC   NC363791  16.586  11.561   5.201
 5056POPC   PO463792  16.721  12.239   5.445
 5056POPC   GL163793  16.621  12.090   5.847
 5056POPC   GL263794  16.602  11.731   5.854
 5056POPC   C1A63795  16.736  12.251   6.242
 5056POPC   D2A63796  16.893  12.522   6.554
 5056POPC   C3A63797  16.699  12.395   6.926
 5056POPC   C4A63798  16.752  12.213   7.315
 5056POPC   C1B63799  16.827  11.749   6.246
 5056POPC   C2B63800  16.731  11.900   6.644
 5056POPC   C3B63801  16.595  11.797   7.021
 5056POPC   C4B63802  16.793  11.692   7.378
 5057POPC   NC363803   3.683  23.322   5.409
 5057POPC   PO463804   3.373  22.736   5.416
 5057POPC   GL163805   3.469  22.971   5.805
 5057POPC   GL263806   3.358  23.321   5.872
 5057POPC   C1A63807   3.337  22.979   6.242
 5057POPC   D2A63808   3.573  22.991   6.619
 5057POPC   C3A63809   3.372  22.765   6.905
 5057POPC   C4A63810   3.440  22.778   7.311
 5057POPC   C1B63811   3.643  23.392   6.302
 5057POPC   C2B63812   3.657  23.482   6.789
 5057POPC   C3B63813   3.676  23.224   7.189
 5057POPC   C4B63814   3.870  23.098   7.600
 5058POPC   NC363815  30.331  31.972   5.558
 5058POPC   PO463816  30.699  31.426   5.381
 5058POPC   GL163817  30.680  31.426   5.821
 5058POPC   GL263818  30.950  31.212   5.897
 5058POPC   C1A63819  30.498  31.259   6.221
 5058POPC   D2A63820  30.589  31.090   6.632
 5058POPC   C3A63821  30.422  31.298   7.007
 5058POPC   C4A63822  30.555  31.525   7.379
 5058POPC   C1B63823  31.007  31.127   6.299
 5058POPC   C2B63824  31.009  31.363   6.648
 5058POPC   C3B63825  30.952  31.428   7.083
 5058POPC   C4B63826  31.134  31.246   7.466
 5059POPC   NC363827  21.748  19.956   5.294
 5059POPC   PO463828  21.356  19.980   5.709
 5059POPC   GL163829  21.288  19.785   6.051
 5059POPC   GL263830  21.474  19.499   5.930
 5059POPC   C1A63831  21.503  19.789   6.443
 5059POPC   D2A63832  21.836  19.643   6.732
 5059POPC   C3A63833  21.641  19.738   7.110
 5059POPC   C4A63834  21.225  19.959   7.168
 5059POPC   C1B63835  21.182  19.334   6.243
 5059POPC   C2B63836  21.179  19.453   6.662
 5059POPC   C3B63837  21.075  19.285   7.020
 5059POPC   C4B63838  21.263  19.468   7.336
 5060POPC   NC363839   9.737  11.575   5.356
 5060POPC   PO463840   9.981  10.919   5.509
 5060POPC   GL163841   9.823  11.258   5.794
 5060POPC   GL263842   9.463  11.354   5.740
 5060POPC   C1A63843   9.679  11.200   6.238
 5060POPC   D2A63844   9.648  11.279   6.685
 5060POPC   C3A63845   9.565  11.068   7.046
 5060POPC   C4A63846   9.843  11.109   7.335
 5060POPC   C1B63847   9.396  11.601   6.086
 5060POPC   C2B63848   9.250  11.538   6.480
 5060POPC   C3B63849   9.350  11.643   6.868
 5060POPC   C4B63850   9.555  11.556   7.211
 5061POPC   NC363851   2.362   9.233   5.488
 5061POPC   PO463852   1.844   8.835   5.461
 5061POPC   GL163853   1.980   9.089   5.787
 5061POPC   GL263854   2.182   8.821   5.945
 5061POPC   C1A63855   2.156   9.285   6.162
 5061POPC   D2A63856   2.074   9.005   6.468
 5061POPC   C3A63857   2.064   9.127   6.879
 5061POPC   C4A63858   1.967   9.118   7.293
 5061POPC   C1B63859   2.246   8.519   6.309
 5061POPC   C2B63860   2.282   8.622   6.743
 5061POPC   C3B63861   2.197   8.685   7.152
 5061POPC   C4B63862   2.202   8.753   7.602
 5062POPC   NC363863  25.286  10.211   5.333
 5062POPC   PO463864  25.163   9.541   5.227
 5062POPC   GL163865  25.301   9.588   5.696
 5062POPC   GL263866  25.078   9.826   5.901
 5062POPC   C1A63867  25.350   9.484   6.176
 5062POPC   D2A63868  25.020   9.508   6.535
 5062POPC   C3A63869  25.156   9.513   6.971
 5062POPC   C4A63870  25.438   9.638   7.279
 5062POPC   C1B63871  25.190   9.955   6.308
 5062POPC   C2B63872  25.378   9.890   6.703
 5062POPC   C3B63873  25.166  10.029   7.060
 5062POPC   C4B63874  24.917  10.204   7.328
 5063POPC   NC363875  34.181  44.739   5.380
 5063POPC   PO463876  34.777  44.655   5.282
 5063POPC   GL163877  34.601  44.748   5.686
 5063POPC   GL263878  34.737  44.451   5.794
 5063POPC   C1A63879  34.640   0.022   6.041
 5063POPC   D2A63880  34.593   0.168   6.471
 5063POPC   C3A63881  34.528  44.901   6.829
 5063POPC   C4A63882  34.543  44.600   7.159
 5063POPC   C1B63883  34.521  44.537   6.207
 5063POPC   C2B63884  34.686  44.453   6.626
 5063POPC   C3B63885  34.694  44.162   6.986
 5063POPC   C4B63886  34.810  44.223   7.429
 5064POPC   NC363887   8.417  32.215   5.545
 5064POPC   PO463888   7.839  32.353   5.274
 5064POPC   GL163889   7.924  32.282   5.732
 5064POPC   GL263890   8.200  32.451   5.932
 5064POPC   C1A63891   7.980  32.057   6.139
 5064POPC   D2A63892   8.299  32.148   6.454
 5064POPC   C3A63893   8.299  32.042   6.875
 5064POPC   C4A63894   8.223  32.217   7.266
 5064POPC   C1B63895   7.995  32.551   6.340
 5064POPC   C2B63896   7.992  32.456   6.792
 5064POPC   C3B63897   8.025  32.674   7.186
 5064POPC   C4B63898   7.934  32.503   7.609
 5065POPC   NC363899  43.751  40.195   5.453
 5065POPC   PO463900  43.738  39.589   5.427
 5065POPC   GL163901  43.954  39.826   5.807
 5065POPC   GL263902  43.826  40.142   5.941
 5065POPC   C1A63903  44.136  39.910   6.256
 5065POPC   D2A63904  43.929  40.038   6.689
 5065POPC   C3A63905  44.121  39.833   7.100
 5065POPC   C4A63906  43.997  39.828   7.565
 5065POPC   C1B63907  43.561  40.147   6.315
 5065POPC   C2B63908  43.460  40.272   6.756
 5065POPC   C3B63909  43.656  40.068   7.146
 5065POPC   C4B63910  43.502  40.016   7.571
 5066POPC   NC363911  41.853  32.893   5.143
 5066POPC   PO463912  42.447  32.711   5.415
 5066POPC   GL163913  42.301  32.911   5.786
 5066POPC   GL263914  42.089  32.751   5.943
 5066POPC   C1A63915  42.501  33.131   6.122
 5066POPC   D2A63916  42.541  33.301   6.557
 5066POPC   C3A63917  42.430  33.147   6.967
 5066POPC   C4A63918  42.009  33.190   7.082
 5066POPC   C1B63919  42.351  32.685   6.259
 5066POPC   C2B63920  42.231  32.844   6.625
 5066POPC   C3B63921  41.966  32.684   6.942
 5066POPC   C4B63922  41.865  32.745   7.344
 5067POPC   NC363923   1.095  28.544   5.417
 5067POPC   PO463924   1.624  28.129   5.494
 5067POPC   GL163925   1.462  28.433   5.768
 5067POPC   GL263926   1.122  28.291   5.859
 5067POPC   C1A63927   1.392  28.557   6.187
 5067POPC   D2A63928   1.195  28.428   6.558
 5067POPC   C3A63929   1.117  28.685   6.921
 5067POPC   C4A63930   0.933  28.566   7.295
 5067POPC   C1B63931   1.321  28.022   6.201
 5067POPC   C2B63932   1.236  27.918   6.661
 5067POPC   C3B63933   1.112  28.174   7.011
 5067POPC   C4B63934   1.380  28.318   7.351
 5068POPC   NC363935  10.685   1.579   5.442
 5068POPC   PO463936  10.687   0.908   5.362
 5068POPC   GL163937  10.573   1.169   5.716
 5068POPC   GL263938  10.343   1.428   5.804
 5068POPC   C1A63939  10.662   1.161   6.160
 5068POPC   D2A63940  10.623   1.383   6.571
 5068POPC   C3A63941  10.642   1.082   6.921
 5068POPC   C4A63942  10.765   0.926   7.315
 5068POPC   C1B63943  10.194   1.310   6.251
 5068POPC   C2B63944  10.180   1.142   6.680
 5068POPC   C3B63945  10.264   1.376   7.091
 5068POPC   C4B63946  10.283   1.495   7.573
 5069POPC   NC363947  29.553  39.251   5.130
 5069POPC   PO463948  30.198  39.278   5.334
 5069POPC   GL163949  29.879  39.155   5.657
 5069POPC   GL263950  30.065  39.011   5.911
 5069POPC   C1A63951  29.727  39.329   6.072
 5069POPC   D2A63952  29.710  39.135   6.453
 5069POPC   C3A63953  29.710  39.334   6.863
 5069POPC   C4A63954  29.833  39.100   7.226
 5069POPC   C1B63955  30.231  39.050   6.308
 5069POPC   C2B63956  30.115  39.028   6.736
 5069POPC   C3B63957  30.312  39.175   7.103
 5069POPC   C4B63958  30.178  39.402   7.466
 5070POPC   NC363959  25.237  21.086   5.489
 5070POPC   PO463960  25.280  20.469   5.367
 5070POPC   GL163961  25.321  20.691   5.795
 5070POPC   GL263962  25.667  20.793   5.830
 5070POPC   C1A63963  25.189  20.629   6.228
 5070POPC   D2A63964  24.843  20.565   6.557
 5070POPC   C3A63965  24.907  20.446   7.014
 5070POPC   C4A63966  24.971  20.459   7.480
 5070POPC   C1B63967  25.625  20.942   6.281
 5070POPC   C2B63968  25.476  20.710   6.659
 5070POPC   C3B63969  25.359  20.707   7.087
 5070POPC   C4B63970  25.633  20.867   7.391
 5071POPC   NC363971  38.501  28.807   5.685
 5071POPC   PO463972  38.568  29.503   5.581
 5071POPC   GL163973  38.685  29.240   5.891
 5071POPC   GL263974  38.311  29.194   5.967
 5071POPC   C1A63975  38.644  29.053   6.303
 5071POPC   D2A63976  38.382  29.210   6.604
 5071POPC   C3A63977  38.594  29.296   6.965
 5071POPC   C4A63978  38.436  29.347   7.361
 5071POPC   C1B63979  38.097  28.879   6.280
 5071POPC   C2B63980  38.130  28.751   6.715
 5071POPC   C3B63981  38.320  28.896   7.096
 5071POPC   C4B63982  38.339  28.905   7.578
 5072POPC   NC363983   2.306  35.966   5.484
 5072POPC   PO463984   1.741  36.299   5.355
 5072POPC   GL163985   1.846  36.165   5.824
 5072POPC   GL263986   2.149  35.980   5.965
 5072POPC   C1A63987   1.718  35.969   6.236
 5072POPC   D2A63988   1.707  35.834   6.677
 5072POPC   C3A63989   1.840  36.153   6.962
 5072POPC   C4A63990   1.795  36.180   7.413
 5072POPC   C1B63991   2.256  36.353   6.243
 5072POPC   C2B63992   2.228  36.392   6.716
 5072POPC   C3B63993   2.314  36.297   7.167
 5072POPC   C4B63994   2.294  36.006   7.553
 5073POPC   NC363995  26.269  35.328   5.425
 5073POPC   PO463996  25.611  35.395   5.455
 5073POPC   GL163997  25.876  35.349   5.812
 5073POPC   GL263998  26.198  35.557   5.867
 5073POPC   C1A63999  25.710  35.215   6.206
 5073POPC   D2A64000  25.878  35.018   6.552
 5073POPC   C3A64001  25.900  35.199   6.969
 5073POPC   C4A64002  26.242  35.230   7.262
 5073POPC   C1B64003  26.343  35.744   6.248
 5073POPC   C2B64004  26.528  35.661   6.667
 5073POPC   C3B64005  26.340  35.719   7.056
 5073POPC   C4B64006  26.128  35.693   7.440
 5074POPC   NC364007  15.038  32.992   5.542
 5074POPC   PO464008  15.686  32.900   5.234
 5074POPC   GL164009  15.458  32.722   5.692
 5074POPC   GL264010  15.341  33.048   6.015
 5074POPC   C1A64011  15.381  32.587   6.125
 5074POPC   D2A64012  15.549  32.909   6.460
 5074POPC   C3A64013  15.278  33.032   6.823
 5074POPC   C4A64014  15.253  33.337   7.171
 5074POPC   C1B64015  14.950  32.878   6.158
 5074POPC   C2B64016  14.659  32.795   6.431
 5074POPC   C3B64017  14.709  32.967   6.839
 5074POPC   C4B64018  14.947  32.934   7.210
 5075POPC   NC364019  35.241  42.787   5.037
 5075POPC   PO464020  35.393  42.186   5.306
 5075POPC   GL164021  35.445  42.325   5.733
 5075POPC   GL264022  35.439  42.020   5.901
 5075POPC   C1A64023  35.630  42.450   6.152
 5075POPC   D2A64024  35.523  42.623   6.570
 5075POPC   C3A64025  35.660  42.463   6.972
 5075POPC   C4A64026  35.363  42.570   7.282
 5075POPC   C1B64027  35.182  42.167   6.242
 5075POPC   C2B64028  34.984  42.119   6.621
 5075POPC   C3B64029  35.133  42.280   6.949
 5075POPC   C4B64030  35.008  42.233   7.390
 5076POPC   NC364031  23.378  23.972   5.429
 5076POPC   PO464032  23.530  23.336   5.244
 5076POPC   GL164033  23.700  23.474   5.707
 5076POPC   GL264034  24.012  23.666   5.764
 5076POPC   C1A64035  23.642  23.739   6.124
 5076POPC   D2A64036  23.618  23.908   6.577
 5076POPC   C3A64037  23.484  23.634   6.931
 5076POPC   C4A64038  23.509  23.872   7.273
 5076POPC   C1B64039  24.169  23.776   6.174
 5076POPC   C2B64040  24.044  23.618   6.565
 5076POPC   C3B64041  23.968  23.746   6.983
 5076POPC   C4B64042  23.884  23.431   7.291
 5077POPC   NC364043  13.976   6.157   5.465
 5077POPC   PO464044  13.453   5.721   5.408
 5077POPC   GL164045  13.598   5.896   5.781
 5077POPC   GL264046  13.438   6.202   5.725
 5077POPC   C1A64047  13.459   5.792   6.193
 5077POPC   D2A64048  13.339   5.976   6.549
 5077POPC   C3A64049  13.546   5.931   6.900
 5077POPC   C4A64050  13.661   5.906   7.281
 5077POPC   C1B64051  13.174   6.208   6.105
 5077POPC   C2B64052  13.000   6.335   6.490
 5077POPC   C3B64053  13.234   6.458   6.828
 5077POPC   C4B64054  13.420   6.333   7.196
 5078POPC   NC364055  43.296   1.288   5.292
 5078POPC   PO464056  42.698   1.019   5.370
 5078POPC   GL164057  42.986   1.079   5.712
 5078POPC   GL264058  43.054   1.423   5.719
 5078POPC   C1A64059  43.289   1.094   6.047
 5078POPC   D2A64060  43.286   1.214   6.485
 5078POPC   C3A64061  43.050   1.021   6.827
 5078POPC   C4A64062  43.223   0.982   7.231
 5078POPC   C1B64063  42.988   1.544   6.146
 5078POPC   C2B64064  42.812   1.472   6.564
 5078POPC   C3B64065  42.935   1.482   7.001
 5078POPC   C4B64066  42.775   1.211   7.290
 5079POPC   NC364067   7.088  14.216   5.376
 5079POPC   PO464068   7.699  14.142   5.385
 5079POPC   GL164069   7.750  14.453   5.728
 5079POPC   GL264070   7.486  14.734   5.804
 5079POPC   C1A64071   7.683  14.467   6.185
 5079POPC   D2A64072   7.389  14.309   6.516
 5079POPC   C3A64073   7.489  14.309   6.978
 5079POPC   C4A64074   7.397  14.294   7.448
 5079POPC   C1B64075   7.341  14.819   6.277
 5079POPC   C2B64076   7.281  14.746   6.746
 5079POPC   C3B64077   7.096  14.599   7.149
 5079POPC   C4B64078   7.239  14.781   7.523
 5080POPC   NC364079  10.196   9.656   5.640
 5080POPC   PO464080  10.720   9.545   5.249
 5080POPC   GL164081  10.736   9.623   5.726
 5080POPC   GL264082  10.945   9.416   5.967
 5080POPC   C1A64083  10.622   9.840   6.140
 5080POPC   D2A64084  10.758   9.890   6.569
 5080POPC   C3A64085  10.512   9.947   6.928
 5080POPC   C4A64086  10.618   9.991   7.344
 5080POPC   C1B64087  10.694   9.358   6.320
 5080POPC   C2B64088  10.370   9.538   6.595
 5080POPC   C3B64089  10.334   9.454   7.042
 5080POPC   C4B64090  10.541   9.489   7.466
 5081POPC   NC364091  22.008  16.325   5.450
 5081POPC   PO464092  22.458  15.834   5.514
 5081POPC   GL164093  22.033  15.898   5.740
 5081POPC   GL264094  21.891  16.220   5.926
 5081POPC   C1A64095  21.923  15.790   6.176
 5081POPC   D2A64096  22.149  15.875   6.557
 5081POPC   C3A64097  21.938  15.941   6.940
 5081POPC   C4A64098  22.148  15.833   7.309
 5081POPC   C1B64099  22.297  16.162   6.145
 5081POPC   C2B64100  22.434  16.304   6.554
 5081POPC   C3B64101  22.424  16.093   6.944
 5081POPC   C4B64102  22.509  16.205   7.330
 5082POPC   NC364103  28.437  44.694   5.332
 5082POPC   PO464104  27.874  44.326   5.411
 5082POPC   GL164105  28.222  44.493   5.750
 5082POPC   GL264106  28.247  44.869   5.872
 5082POPC   C1A64107  28.472  44.501   6.164
 5082POPC   D2A64108  28.355  44.529   6.606
 5082POPC   C3A64109  28.572  44.641   6.979
 5082POPC   C4A64110  28.485   0.036   7.188
 5082POPC   C1B64111  28.265   0.003   6.331
 5082POPC   C2B64112  28.190  44.987   6.789
 5082POPC   C3B64113  28.096  44.710   7.178
 5082POPC   C4B64114  27.878  44.613   7.592
 5083POPC   NC364115   1.702  10.175   5.458
 5083POPC   PO464116   1.808   9.486   5.457
 5083POPC   GL164117   1.995   9.628   5.812
 5083POPC   GL264118   2.386   9.619   5.817
 5083POPC   C1A64119   1.772   9.658   6.193
 5083POPC   D2A64120   1.525   9.584   6.555
 5083POPC   C3A64121   1.701   9.798   6.906
 5083POPC   C4A64122   1.997   9.606   7.142
 5083POPC   C1B64123   2.268   9.830   6.202
 5083POPC   C2B64124   2.132   9.688   6.596
 5083POPC   C3B64125   2.397   9.824   6.912
 5083POPC   C4B64126   2.244  10.136   7.140
 5084POPC   NC364127   6.169  10.051   5.329
 5084POPC   PO464128   5.653  10.390   5.356
 5084POPC   GL164129   5.911  10.546   5.711
 5084POPC   GL264130   6.066  10.226   5.793
 5084POPC   C1A64131   5.947  10.601   6.199
 5084POPC   D2A64132   5.661  10.648   6.583
 5084POPC   C3A64133   5.739  10.601   7.043
 5084POPC   C4A64134   5.733  10.209   7.253
 5084POPC   C1B64135   6.247  10.169   6.195
 5084POPC   C2B64136   6.045  10.235   6.580
 5084POPC   C3B64137   6.203  10.526   6.829
 5084POPC   C4B64138   6.235  10.565   7.242
 5085POPC   NC364139  11.080   0.962   5.613
 5085POPC   PO464140  11.134   1.648   5.437
 5085POPC   GL164141  11.332   1.400   5.717
 5085POPC   GL264142  10.995   1.414   5.867
 5085POPC   C1A64143  11.603   1.305   6.074
 5085POPC   D2A64144  11.568   1.511   6.485
 5085POPC   C3A64145  11.573   1.236   6.840
 5085POPC   C4A64146  11.574   1.409   7.262
 5085POPC   C1B64147  11.143   1.255   6.258
 5085POPC   C2B64148  11.077   1.149   6.666
 5085POPC   C3B64149  11.135   1.194   7.085
 5085POPC   C4B64150  11.449   0.893   7.241
 5086POPC   NC364151  42.089  25.345   5.634
 5086POPC   PO464152  42.527  25.473   5.152
 5086POPC   GL164153  42.567  25.167   5.626
 5086POPC   GL264154  42.279  24.918   5.809
 5086POPC   C1A64155  42.575  25.148   6.135
 5086POPC   D2A64156  42.371  25.069   6.567
 5086POPC   C3A64157  42.604  25.062   6.981
 5086POPC   C4A64158  42.526  25.419   7.239
 5086POPC   C1B64159  41.990  24.990   6.197
 5086POPC   C2B64160  41.877  24.901   6.642
 5086POPC   C3B64161  42.066  25.081   7.024
 5086POPC   C4B64162  42.154  24.955   7.444
 5087POPC   NC364163  18.656  41.482   5.707
 5087POPC   PO464164  18.863  41.709   5.131
 5087POPC   GL164165  19.087  41.725   5.616
 5087POPC   GL264166  19.155  41.365   5.782
 5087POPC   C1A64167  19.142  41.825   6.063
 5087POPC   D2A64168  18.887  41.694   6.414
 5087POPC   C3A64169  18.984  41.865   6.802
 5087POPC   C4A64170  19.109  41.892   7.205
 5087POPC   C1B64171  19.201  41.307   6.238
 5087POPC   C2B64172  19.291  41.457   6.677
 5087POPC   C3B64173  19.056  41.399   7.096
 5087POPC   C4B64174  19.148  41.349   7.591
 5088POPC   NC364175  22.836  24.811   5.475
 5088POPC   PO464176  22.920  24.171   5.382
 5088POPC   GL164177  23.111  24.256   5.797
 5088POPC   GL264178  23.123  24.626   5.876
 5088POPC   C1A64179  22.964  24.221   6.228
 5088POPC   D2A64180  22.710  24.365   6.588
 5088POPC   C3A64181  22.882  24.414   6.993
 5088POPC   C4A64182  23.258  24.296   7.164
 5088POPC   C1B64183  22.953  24.734   6.305
 5088POPC   C2B64184  22.878  24.859   6.728
 5088POPC   C3B64185  22.984  24.894   7.147
 5088POPC   C4B64186  23.110  25.100   7.511
 5089POPC   NC364187  27.705  17.939   5.417
 5089POPC   PO464188  27.158  18.393   5.311
 5089POPC   GL164189  27.368  18.300   5.705
 5089POPC   GL264190  27.721  18.327   5.758
 5089POPC   C1A64191  27.399  18.330   6.165
 5089POPC   D2A64192  27.562  18.180   6.550
 5089POPC   C3A64193  27.448  18.285   6.937
 5089POPC   C4A64194  27.440  18.060   7.327
 5089POPC   C1B64195  27.941  18.307   6.159
 5089POPC   C2B64196  28.089  18.218   6.545
 5089POPC   C3B64197  27.968  18.304   6.953
 5089POPC   C4B64198  27.949  18.098   7.320
 5090POPC   NC364199   5.860  10.754   5.189
 5090POPC   PO464200   6.003  11.321   5.461
 5090POPC   GL164201   5.918  11.095   5.791
 5090POPC   GL264202   5.615  10.955   5.602
 5090POPC   C1A64203   6.194  11.074   6.168
 5090POPC   D2A64204   6.174  10.965   6.614
 5090POPC   C3A64205   6.193  11.230   7.001
 5090POPC   C4A64206   5.932  11.309   7.370
 5090POPC   C1B64207   5.547  10.855   6.044
 5090POPC   C2B64208   5.735  11.106   6.379
 5090POPC   C3B64209   5.700  11.098   6.858
 5090POPC   C4B64210   5.475  11.001   7.264
 5091POPC   NC364211  27.764  11.665   5.500
 5091POPC   PO464212  27.526  12.357   5.403
 5091POPC   GL164213  27.585  12.234   5.828
 5091POPC   GL264214  27.735  11.917   5.973
 5091POPC   C1A64215  27.500  12.294   6.263
 5091POPC   D2A64216  27.712  12.102   6.611
 5091POPC   C3A64217  27.575  12.220   7.019
 5091POPC   C4A64218  27.229  12.504   7.124
 5091POPC   C1B64219  27.390  11.787   6.313
 5091POPC   C2B64220  27.330  11.732   6.784
 5091POPC   C3B64221  27.536  11.603   7.163
 5091POPC   C4B64222  27.983  11.601   7.297
 5092POPC   NC364223  25.680  20.236   5.206
 5092POPC   PO464224  26.045  20.732   5.469
 5092POPC   GL164225  26.219  20.634   5.868
 5092POPC   GL264226  26.023  20.353   5.820
 5092POPC   C1A64227  26.288  20.640   6.336
 5092POPC   D2A64228  25.987  20.777   6.634
 5092POPC   C3A64229  25.998  20.622   7.047
 5092POPC   C4A64230  26.081  20.681   7.506
 5092POPC   C1B64231  25.828  20.472   6.212
 5092POPC   C2B64232  25.835  20.274   6.592
 5092POPC   C3B64233  25.612  20.269   6.950
 5092POPC   C4B64234  25.704  20.353   7.373
 5093POPC   NC364235  12.063  22.828   5.204
 5093POPC   PO464236  12.337  23.324   5.486
 5093POPC   GL164237  12.358  23.202   5.921
 5093POPC   GL264238  12.066  22.986   5.941
 5093POPC   C1A64239  12.274  23.232   6.379
 5093POPC   D2A64240  11.909  23.059   6.598
 5093POPC   C3A64241  11.949  22.777   6.943
 5093POPC   C4A64242  12.186  22.926   7.244
 5093POPC   C1B64243  12.189  22.738   6.307
 5093POPC   C2B64244  12.394  22.831   6.693
 5093POPC   C3B64245  12.430  22.501   6.981
 5093POPC   C4B64246  12.159  22.371   7.242
 5094POPC   NC364247  35.400   0.576   5.539
 5094POPC   PO464248  35.959   0.523   5.253
 5094POPC   GL164249  36.041   0.633   5.697
 5094POPC   GL264250  35.802   0.407   5.800
 5094POPC   C1A64251  36.202   0.476   6.140
 5094POPC   D2A64252  36.019   0.536   6.595
 5094POPC   C3A64253  36.273   0.427   6.988
 5094POPC   C4A64254  36.417   0.374   7.419
 5094POPC   C1B64255  35.793   0.174   6.154
 5094POPC   C2B64256  35.626   0.163   6.543
 5094POPC   C3B64257  35.858   0.135   6.932
 5094POPC   C4B64258  35.771   0.161   7.338
 5095POPC   NC364259  30.974   5.126   5.309
 5095POPC   PO464260  30.383   5.156   5.088
 5095POPC   GL164261  30.553   5.042   5.563
 5095POPC   GL264262  30.737   5.300   5.759
 5095POPC   C1A64263  30.572   4.894   6.009
 5095POPC   D2A64264  30.874   4.860   6.354
 5095POPC   C3A64265  30.737   4.968   6.757
 5095POPC   C4A64266  30.759   4.874   7.176
 5095POPC   C1B64267  30.665   5.351   6.242
 5095POPC   C2B64268  30.688   5.488   6.684
 5095POPC   C3B64269  30.945   5.350   7.030
 5095POPC   C4B64270  30.955   5.244   7.463
 5096POPC   NC364271   6.978   7.741   5.527
 5096POPC   PO464272   7.401   7.274   5.486
 5096POPC   GL164273   7.680   7.517   5.798
 5096POPC   GL264274   7.575   7.862   5.848
 5096POPC   C1A64275   7.769   7.530   6.246
 5096POPC   D2A64276   7.538   7.639   6.621
 5096POPC   C3A64277   7.721   7.444   6.978
 5096POPC   C4A64278   7.808   7.094   7.271
 5096POPC   C1B64279   7.273   7.803   6.197
 5096POPC   C2B64280   7.120   7.947   6.639
 5096POPC   C3B64281   7.203   7.697   7.003
 5096POPC   C4B64282   7.306   7.326   7.246
 5097POPC   NC364283  27.025  22.379   5.496
 5097POPC   PO464284  26.383  22.475   5.537
 5097POPC   GL164285  26.649  22.227   5.838
 5097POPC   GL264286  26.759  21.856   5.770
 5097POPC   C1A64287  26.776  22.123   6.276
 5097POPC   D2A64288  26.651  22.004   6.712
 5097POPC   C3A64289  26.739  22.287   7.070
 5097POPC   C4A64290  26.939  22.655   7.160
 5097POPC   C1B64291  27.080  21.704   6.082
 5097POPC   C2B64292  27.007  21.692   6.520
 5097POPC   C3B64293  27.104  21.873   6.916
 5097POPC   C4B64294  26.879  21.839   7.256
 5098POPC   NC364295  10.197  40.931   5.669
 5098POPC   PO464296   9.585  40.542   5.464
 5098POPC   GL164297   9.605  40.561   5.933
 5098POPC   GL264298   9.968  40.643   6.013
 5098POPC   C1A64299   9.662  40.547   6.406
 5098POPC   D2A64300  10.029  40.768   6.606
 5098POPC   C3A64301  10.141  40.576   6.999
 5098POPC   C4A64302   9.761  40.326   7.102
 5098POPC   C1B64303   9.713  41.006   6.158
 5098POPC   C2B64304   9.459  41.074   6.515
 5098POPC   C3B64305   9.575  40.821   6.865
 5098POPC   C4B64306   9.803  40.868   7.237
 5099POPC   NC364307  16.652  28.520   5.318
 5099POPC   PO464308  16.595  27.876   5.528
 5099POPC   GL164309  16.645  28.263   5.759
 5099POPC   GL264310  16.978  28.370   5.793
 5099POPC   C1A64311  16.595  28.601   6.082
 5099POPC   D2A64312  16.549  28.427   6.500
 5099POPC   C3A64313  16.810  28.493   6.875
 5099POPC   C4A64314  16.630  28.345   7.261
 5099POPC   C1B64315  16.978  28.291   6.247
 5099POPC   C2B64316  17.005  28.049   6.634
 5099POPC   C3B64317  16.894  27.945   7.073
 5099POPC   C4B64318  17.063  28.135   7.466
 5100POPC   NC364319  38.499  37.380   5.500
 5100POPC   PO464320  37.946  37.857   5.421
 5100POPC   GL164321  38.302  37.845   5.735
 5100POPC   GL264322  38.265  37.563   5.905
 5100POPC   C1A64323  38.618  37.821   6.133
 5100POPC   D2A64324  38.617  37.527   6.512
 5100POPC   C3A64325  38.695  37.670   6.977
 5100POPC   C4A64326  38.591  37.413   7.351
 5100POPC   C1B64327  38.146  37.767   6.271
 5100POPC   C2B64328  38.141  37.625   6.646
 5100POPC   C3B64329  38.235  37.434   6.993
 5100POPC   C4B64330  38.180  37.743   7.280
 5101POPC   NC364331  37.000  16.460   5.339
 5101POPC   PO464332  36.634  17.025   5.415
 5101POPC   GL164333  36.896  16.782   5.720
 5101POPC   GL264334  36.731  16.460   5.796
 5101POPC   C1A64335  37.099  16.794   6.102
 5101POPC   D2A64336  36.933  16.683   6.504
 5101POPC   C3A64337  37.074  16.867   6.855
 5101POPC   C4A64338  36.957  16.851   7.250
 5101POPC   C1B64339  36.541  16.352   6.203
 5101POPC   C2B64340  36.321  16.226   6.569
 5101POPC   C3B64341  36.488  16.358   6.957
 5101POPC   C4B64342  36.687  16.225   7.321
 5102POPC   NC364343  35.857  42.102   5.424
 5102POPC   PO464344  36.306  42.588   5.237
 5102POPC   GL164345  36.266  42.408   5.671
 5102POPC   GL264346  36.452  42.093   5.739
 5102POPC   C1A64347  36.272  42.415   6.146
 5102POPC   D2A64348  36.012  42.485   6.524
 5102POPC   C3A64349  36.235  42.517   6.885
 5102POPC   C4A64350  36.233  42.375   7.272
 5102POPC   C1B64351  36.387  41.891   6.153
 5102POPC   C2B64352  36.249  42.020   6.552
 5102POPC   C3B64353  36.422  42.039   6.937
 5102POPC   C4B64354  36.433  41.917   7.348
 5103POPC   NC364355   9.502   0.473   5.128
 5103POPC   PO464356   8.899   0.421   5.460
 5103POPC   GL164357   8.650   0.455   5.829
 5103POPC   GL264358   8.538   0.114   5.763
 5103POPC   C1A64359   8.816   0.592   6.267
 5103POPC   D2A64360   9.234   0.669   6.530
 5103POPC   C3A64361   9.152   0.572   7.006
 5103POPC   C4A64362   8.679   0.573   7.159
 5103POPC   C1B64363   8.881   0.072   6.066
 5103POPC   C2B64364   9.093   0.199   6.426
 5103POPC   C3B64365   8.832   0.271   6.770
 5103POPC   C4B64366   8.724   0.024   7.140
 5104POPC   NC364367  21.388  36.001   5.486
 5104POPC   PO464368  20.974  36.464   5.691
 5104POPC   GL164369  21.280  36.180   5.957
 5104POPC   GL264370  21.654  36.129   5.906
 5104POPC   C1A64371  21.443  35.948   6.335
 5104POPC   D2A64372  21.352  36.218   6.682
 5104POPC   C3A64373  21.182  35.991   7.008
 5104POPC   C4A64374  21.534  35.923   7.227
 5104POPC   C1B64375  21.666  36.422   6.248
 5104POPC   C2B64376  21.731  36.579   6.663
 5104POPC   C3B64377  21.784  36.438   7.058
 5104POPC   C4B64378  21.625  36.375   7.435
 5105POPC   NC364379  35.915  37.679   5.449
 5105POPC   PO464380  36.565  37.301   5.527
 5105POPC   GL164381  36.289  37.578   5.833
 5105POPC   GL264382  36.071  37.896   5.879
 5105POPC   C1A64383  36.122  37.543   6.252
 5105POPC   D2A64384  36.386  37.491   6.599
 5105POPC   C3A64385  36.110  37.518   6.932
 5105POPC   C4A64386  36.041  37.855   7.174
 5105POPC   C1B64387  35.920  38.034   6.291
 5105POPC   C2B64388  35.791  38.007   6.737
 5105POPC   C3B64389  35.847  38.297   7.099
 5105POPC   C4B64390  35.891  38.150   7.574
 5106POPC   NC364391  28.861  42.808   5.173
 5106POPC   PO464392  29.258  42.300   5.480
 5106POPC   GL164393  29.040  42.282   5.912
 5106POPC   GL264394  29.031  41.942   6.091
 5106POPC   C1A64395  28.822  42.475   6.268
 5106POPC   D2A64396  29.017  42.663   6.640
 5106POPC   C3A64397  29.019  42.426   6.997
 5106POPC   C4A64398  29.350  42.269   7.286
 5106POPC   C1B64399  29.158  42.167   6.502
 5106POPC   C2B64400  29.484  42.381   6.793
 5106POPC   C3B64401  29.788  42.482   7.153
 5106POPC   C4B64402  29.648  42.586   7.598
 5107POPC   NC364403  17.714  24.846   5.543
 5107POPC   PO464404  17.640  24.258   5.201
 5107POPC   GL164405  17.387  24.355   5.641
 5107POPC   GL264406  17.239  24.637   5.797
 5107POPC   C1A64407  17.418  24.321   6.130
 5107POPC   D2A64408  17.677  24.457   6.481
 5107POPC   C3A64409  17.588  24.203   6.833
 5107POPC   C4A64410  17.797  24.262   7.184
 5107POPC   C1B64411  17.382  24.840   6.185
 5107POPC   C2B64412  17.370  24.919   6.628
 5107POPC   C3B64413  17.596  24.753   6.956
 5107POPC   C4B64414  17.378  24.531   7.241
 5108POPC   NC364415  17.000  12.646   5.417
 5108POPC   PO464416  16.442  13.016   5.422
 5108POPC   GL164417  16.635  12.949   5.813
 5108POPC   GL264418  16.676  12.607   5.834
 5108POPC   C1A64419  16.718  12.919   6.257
 5108POPC   D2A64420  16.526  12.897   6.644
 5108POPC   C3A64421  16.740  12.994   6.984
 5108POPC   C4A64422  16.899  12.721   7.287
 5108POPC   C1B64423  16.347  12.563   6.144
 5108POPC   C2B64424  16.118  12.638   6.498
 5108POPC   C3B64425  16.207  12.556   6.920
 5108POPC   C4B64426  16.394  12.745   7.257
 5109POPC   NC364427  40.679  15.578   5.501
 5109POPC   PO464428  40.982  16.149   5.418
 5109POPC   GL164429  40.835  15.974   5.801
 5109POPC   GL264430  41.015  15.690   5.876
 5109POPC   C1A64431  40.713  15.947   6.235
 5109POPC   D2A64432  40.765  15.778   6.670
 5109POPC   C3A64433  40.435  16.010   6.862
 5109POPC   C4A64434  40.383  16.176   7.231
 5109POPC   C1B64435  41.153  15.698   6.320
 5109POPC   C2B64436  41.346  15.837   6.716
 5109POPC   C3B64437  41.180  16.096   7.012
 5109POPC   C4B64438  40.837  15.944   7.203
 5110POPC   NC364439   6.671  19.519   5.559
 5110POPC   PO464440   6.406  20.053   5.435
 5110POPC   GL164441   6.613  19.951   5.838
 5110POPC   GL264442   6.943  19.835   5.902
 5110POPC   C1A64443   6.573  19.689   6.213
 5110POPC   D2A64444   6.650  19.870   6.608
 5110POPC   C3A64445   6.726  19.643   6.986
 5110POPC   C4A64446   6.396  19.814   7.207
 5110POPC   C1B64447   6.973  20.193   6.148
 5110POPC   C2B64448   6.905  20.331   6.562
 5110POPC   C3B64449   6.914  20.148   6.955
 5110POPC   C4B64450   6.848  20.193   7.364
 5111POPC   NC364451   8.592   9.606   5.153
 5111POPC   PO464452   8.075   9.949   5.324
 5111POPC   GL164453   8.139   9.722   5.689
 5111POPC   GL264454   7.961   9.391   5.781
 5111POPC   C1A64455   8.094   9.832   6.091
 5111POPC   D2A64456   8.046   9.642   6.511
 5111POPC   C3A64457   8.308   9.750   6.845
 5111POPC   C4A64458   8.272   9.660   7.282
 5111POPC   C1B64459   8.271   9.377   6.134
 5111POPC   C2B64460   8.447   9.314   6.542
 5111POPC   C3B64461   8.671   9.379   6.920
 5111POPC   C4B64462   8.595   9.278   7.353
 5112POPC   NC364463  28.909  39.391   5.531
 5112POPC   PO464464  29.316  38.954   5.387
 5112POPC   GL164465  29.339  39.209   5.759
 5112POPC   GL264466  29.050  39.008   5.872
 5112POPC   C1A64467  29.273  39.566   6.093
 5112POPC   D2A64468  29.395  39.666   6.536
 5112POPC   C3A64469  29.079  39.624   6.899
 5112POPC   C4A64470  29.165  39.447   7.299
 5112POPC   C1B64471  29.234  39.088   6.256
 5112POPC   C2B64472  29.245  39.180   6.678
 5112POPC   C3B64473  29.082  39.026   7.035
 5112POPC   C4B64474  28.953  38.898   7.452
 5113POPC   NC364475  37.131  36.127   5.466
 5113POPC   PO464476  36.499  36.401   5.542
 5113POPC   GL164477  36.694  36.057   5.816
 5113POPC   GL264478  37.030  36.029   5.945
 5113POPC   C1A64479  36.644  35.992   6.275
 5113POPC   D2A64480  36.480  36.271   6.598
 5113POPC   C3A64481  36.548  36.068   6.986
 5113POPC   C4A64482  36.615  36.298   7.349
 5113POPC   C1B64483  37.207  35.835   6.283
 5113POPC   C2B64484  37.091  35.777   6.705
 5113POPC   C3B64485  37.110  36.031   7.083
 5113POPC   C4B64486  37.444  35.994   7.422
 5114POPC   NC364487  33.217   5.176   5.373
 5114POPC   PO464488  32.657   4.928   5.423
 5114POPC   GL164489  32.916   4.950   5.809
 5114POPC   GL264490  33.283   4.913   5.811
 5114POPC   C1A64491  32.931   5.109   6.236
 5114POPC   D2A64492  32.770   5.250   6.637
 5114POPC   C3A64493  33.047   5.247   6.989
 5114POPC   C4A64494  33.010   5.568   7.322
 5114POPC   C1B64495  33.402   4.921   6.230
 5114POPC   C2B64496  33.459   5.133   6.662
 5114POPC   C3B64497  33.520   5.063   7.122
 5114POPC   C4B64498  33.329   5.199   7.519
 5115POPC   NC364499  28.357   9.510   5.480
 5115POPC   PO464500  28.233  10.239   5.435
 5115POPC   GL164501  28.377  10.054   5.802
 5115POPC   GL264502  28.094   9.835   5.811
 5115POPC   C1A64503  28.478   9.788   6.178
 5115POPC   D2A64504  28.429   9.473   6.512
 5115POPC   C3A64505  28.458   9.643   6.936
 5115POPC   C4A64506  28.325  10.017   7.102
 5115POPC   C1B64507  27.971   9.656   6.214
 5115POPC   C2B64508  28.048   9.805   6.622
 5115POPC   C3B64509  27.928   9.607   6.989
 5115POPC   C4B64510  28.123   9.578   7.336
 5116POPC   NC364511   0.610   9.568   5.477
 5116POPC   PO464512   0.246  10.125   5.466
 5116POPC   GL164513   0.323   9.839   5.815
 5116POPC   GL264514   0.140   9.541   5.895
 5116POPC   C1A64515   0.597   9.641   6.157
 5116POPC   D2A64516   0.659   9.378   6.518
 5116POPC   C3A64517   0.690   9.596   6.892
 5116POPC   C4A64518   0.505   9.904   7.129
 5116POPC   C1B64519   0.115   9.796   6.279
 5116POPC   C2B64520   0.214   9.860   6.702
 5116POPC   C3B64521   0.014   9.849   7.101
 5116POPC   C4B64522   0.168   9.750   7.537
 5117POPC   NC364523  16.235  22.831   5.593
 5117POPC   PO464524  15.667  23.072   5.394
 5117POPC   GL164525  15.802  23.100   5.799
 5117POPC   GL264526  15.731  22.743   5.814
 5117POPC   C1A64527  16.055  23.064   6.194
 5117POPC   D2A64528  16.280  23.020   6.596
 5117POPC   C3A64529  16.085  23.093   6.986
 5117POPC   C4A64530  16.024  23.277   7.409
 5117POPC   C1B64531  15.775  22.619   6.240
 5117POPC   C2B64532  15.876  22.713   6.647
 5117POPC   C3B64533  16.052  22.578   7.004
 5117POPC   C4B64534  15.811  22.805   7.297
 5118POPC   NC364535  18.052  18.508   5.293
 5118POPC   PO464536  18.533  18.092   5.524
 5118POPC   GL164537  18.178  18.296   5.739
 5118POPC   GL264538  18.415  18.543   5.809
 5118POPC   C1A64539  18.042  18.394   6.146
 5118POPC   D2A64540  18.175  18.156   6.512
 5118POPC   C3A64541  17.990  18.229   6.903
 5118POPC   C4A64542  18.034  18.557   7.181
 5118POPC   C1B64543  18.556  18.288   6.177
 5118POPC   C2B64544  18.644  18.359   6.631
 5118POPC   C3B64545  18.460  18.173   7.026
 5118POPC   C4B64546  18.426  17.947   7.409
 5119POPC   NC364547  11.650  43.132   5.420
 5119POPC   PO464548  11.010  43.009   5.466
 5119POPC   GL164549  11.301  43.054   5.796
 5119POPC   GL264550  11.286  43.382   5.730
 5119POPC   C1A64551  11.630  43.037   6.120
 5119POPC   D2A64552  11.466  43.132   6.530
 5119POPC   C3A64553  11.464  42.911   6.901
 5119POPC   C4A64554  11.110  42.957   7.181
 5119POPC   C1B64555  11.309  43.453   6.173
 5119POPC   C2B64556  11.140  43.545   6.605
 5119POPC   C3B64557  11.255  43.448   7.053
 5119POPC   C4B64558  11.189  43.722   7.449
 5120POPC   NC364559  40.580  31.058   5.407
 5120POPC   PO464560  40.875  31.745   5.341
 5120POPC   GL164561  40.889  31.456   5.711
 5120POPC   GL264562  40.534  31.415   5.790
 5120POPC   C1A64563  40.923  31.540   6.180
 5120POPC   D2A64564  40.748  31.656   6.600
 5120POPC   C3A64565  40.950  31.688   7.011
 5120POPC   C4A64566  40.696  31.656   7.369
 5120POPC   C1B64567  40.484  31.283   6.217
 5120POPC   C2B64568  40.770  31.137   6.526
 5120POPC   C3B64569  40.648  31.263   6.924
 5120POPC   C4B64570  40.891  31.207   7.246
 5121POPC   NC364571  35.668  31.418   5.507
 5121POPC   PO464572  35.156  31.811   5.473
 5121POPC   GL164573  35.332  31.646   5.846
 5121POPC   GL264574  35.649  31.826   5.855
 5121POPC   C1A64575  35.209  31.320   6.161
 5121POPC   D2A64576  34.996  31.330   6.553
 5121POPC   C3A64577  35.145  31.174   6.926
 5121POPC   C4A64578  35.171  31.379   7.274
 5121POPC   C1B64579  35.730  31.469   6.169
 5121POPC   C2B64580  35.561  31.291   6.560
 5121POPC   C3B64581  35.489  31.557   6.899
 5121POPC   C4B64582  35.778  31.753   7.199
 5122POPC   NC364583  44.253  26.556   5.389
 5122POPC   PO464584  43.674  26.951   5.366
 5122POPC   GL164585  43.979  26.863   5.700
 5122POPC   GL264586  43.927  26.601   5.890
 5122POPC   C1A64587  44.035  27.047   6.132
 5122POPC   D2A64588  43.850  26.863   6.506
 5122POPC   C3A64589  44.028  26.970   6.895
 5122POPC   C4A64590  43.819  26.967   7.258
 5122POPC   C1B64591  44.241  26.604   6.267
 5122POPC   C2B64592  44.145  26.443   6.679
 5122POPC   C3B64593  43.976  26.487   7.089
 5122POPC   C4B64594  44.113  26.622   7.498
 5123POPC   NC364595   4.558   3.810   5.527
 5123POPC   PO464596   3.968   3.444   5.609
 5123POPC   GL164597   4.242   3.585   5.868
 5123POPC   GL264598   4.351   3.269   5.926
 5123POPC   C1A64599   4.143   3.690   6.284
 5123POPC   D2A64600   4.063   3.449   6.659
 5123POPC   C3A64601   4.204   3.584   7.041
 5123POPC   C4A64602   4.113   3.540   7.466
 5123POPC   C1B64603   4.522   3.187   6.353
 5123POPC   C2B64604   4.684   3.232   6.786
 5123POPC   C3B64605   4.641   3.395   7.223
 5123POPC   C4B64606   4.582   3.664   7.617
 5124POPC   NC364607   3.795  37.170   5.488
 5124POPC   PO464608   3.450  36.607   5.262
 5124POPC   GL164609   3.609  36.732   5.756
 5124POPC   GL264610   3.299  36.839   5.967
 5124POPC   C1A64611   3.705  36.872   6.230
 5124POPC   D2A64612   3.901  36.945   6.624
 5124POPC   C3A64613   3.723  37.051   7.034
 5124POPC   C4A64614   3.908  36.898   7.430
 5124POPC   C1B64615   3.236  37.157   6.239
 5124POPC   C2B64616   3.404  37.154   6.628
 5124POPC   C3B64617   3.222  36.956   6.979
 5124POPC   C4B64618   3.346  36.971   7.425
 5125POPC   NC364619  16.436  24.327   5.188
 5125POPC   PO464620  16.040  23.953   5.588
 5125POPC   GL164621  15.984  24.444   5.705
 5125POPC   GL264622  16.110  24.806   5.709
 5125POPC   C1A64623  15.781  24.607   6.086
 5125POPC   D2A64624  15.897  24.320   6.427
 5125POPC   C3A64625  15.686  24.315   6.802
 5125POPC   C4A64626  15.813  24.268   7.240
 5125POPC   C1B64627  16.235  24.854   6.173
 5125POPC   C2B64628  16.067  24.793   6.623
 5125POPC   C3B64629  15.906  24.724   7.085
 5125POPC   C4B64630  16.132  24.586   7.504
 5126POPC   NC364631  35.865  26.373   5.359
 5126POPC   PO464632  36.403  26.065   5.388
 5126POPC   GL164633  36.048  26.027   5.722
 5126POPC   GL264634  35.903  25.679   5.792
 5126POPC   C1A64635  36.027  26.224   6.147
 5126POPC   D2A64636  36.084  26.431   6.584
 5126POPC   C3A64637  35.943  26.192   6.966
 5126POPC   C4A64638  36.145  26.050   7.341
 5126POPC   C1B64639  36.176  25.716   6.154
 5126POPC   C2B64640  36.288  25.949   6.523
 5126POPC   C3B64641  36.236  25.773   6.916
 5126POPC   C4B64642  36.481  25.669   7.272
 5127POPC   NC364643  41.482  34.310   5.480
 5127POPC   PO464644  41.663  34.941   5.466
 5127POPC   GL164645  41.472  34.754   5.796
 5127POPC   GL264646  41.744  34.554   5.866
 5127POPC   C1A64647  41.297  34.614   6.204
 5127POPC   D2A64648  41.228  34.330   6.570
 5127POPC   C3A64649  41.283  34.597   6.939
 5127POPC   C4A64650  41.634  34.866   6.995
 5127POPC   C1B64651  41.710  34.305   6.219
 5127POPC   C2B64652  41.728  34.481   6.622
 5127POPC   C3B64653  41.684  34.271   7.011
 5127POPC   C4B64654  41.678  34.531   7.381
 5128POPC   NC364655  27.050  34.706   5.378
 5128POPC   PO464656  26.652  34.110   5.393
 5128POPC   GL164657  26.860  34.386   5.760
 5128POPC   GL264658  26.839  34.770   5.834
 5128POPC   C1A64659  26.936  34.491   6.233
 5128POPC   D2A64660  26.652  34.537   6.597
 5128POPC   C3A64661  26.875  34.581   6.961
 5128POPC   C4A64662  26.952  34.399   7.377
 5128POPC   C1B64663  26.628  34.919   6.226
 5128POPC   C2B64664  26.764  35.050   6.660
 5128POPC   C3B64665  26.647  34.997   7.103
 5128POPC   C4B64666  26.667  35.035   7.556
 5129POPC   NC364667  32.499  38.383   5.415
 5129POPC   PO464668  31.741  38.656   5.364
 5129POPC   GL164669  32.040  38.659   5.718
 5129POPC   GL264670  32.159  38.323   5.791
 5129POPC   C1A64671  32.144  38.673   6.175
 5129POPC   D2A64672  31.929  38.530   6.576
 5129POPC   C3A64673  32.062  38.682   6.994
 5129POPC   C4A64674  32.414  38.549   7.229
 5129POPC   C1B64675  32.006  38.189   6.186
 5129POPC   C2B64676  31.873  38.023   6.602
 5129POPC   C3B64677  31.791  38.248   6.995
 5129POPC   C4B64678  31.942  38.322   7.426
 5130POPC   NC364679   3.529   0.240   5.379
 5130POPC   PO464680   3.691  44.563   5.430
 5130POPC   GL164681   3.649  44.646   5.869
 5130POPC   GL264682   3.498  44.944   5.824
 5130POPC   C1A64683   3.708  44.682   6.339
 5130POPC   D2A64684   3.397  44.471   6.654
 5130POPC   C3A64685   3.421  44.661   7.068
 5130POPC   C4A64686   3.761  44.950   7.167
 5130POPC   C1B64687   3.275  44.881   6.232
 5130POPC   C2B64688   3.424  44.995   6.676
 5130POPC   C3B64689   3.343   0.235   7.090
 5130POPC   C4B64690   3.366  44.984   7.473
 5131POPC   NC364691  38.526   1.492   5.424
 5131POPC   PO464692  38.118   0.997   5.446
 5131POPC   GL164693  38.442   1.053   5.831
 5131POPC   GL264694  38.594   1.392   5.906
 5131POPC   C1A64695  38.490   1.127   6.322
 5131POPC   D2A64696  38.586   0.865   6.700
 5131POPC   C3A64697  38.499   1.103   7.065
 5131POPC   C4A64698  38.773   1.419   7.199
 5131POPC   C1B64699  38.143   1.411   6.055
 5131POPC   C2B64700  38.115   1.416   6.511
 5131POPC   C3B64701  38.293   1.543   6.899
 5131POPC   C4B64702  38.104   1.451   7.295
 5132POPC   NC364703  16.447  34.873   5.464
 5132POPC   PO464704  15.795  34.633   5.490
 5132POPC   GL164705  15.865  34.472   5.899
 5132POPC   GL264706  15.661  34.170   5.848
 5132POPC   C1A64707  15.989  34.651   6.264
 5132POPC   D2A64708  15.836  34.952   6.494
 5132POPC   C3A64709  15.716  34.838   6.886
 5132POPC   C4A64710  15.952  34.594   7.167
 5132POPC   C1B64711  15.802  34.123   6.293
 5132POPC   C2B64712  15.724  33.945   6.706
 5132POPC   C3B64713  15.921  34.089   7.093
 5132POPC   C4B64714  15.792  34.240   7.510
 5133POPC   NC364715   9.595  42.701   5.616
 5133POPC   PO464716   9.737  43.187   5.137
 5133POPC   GL164717   9.610  43.237   5.577
 5133POPC   GL264718   9.904  43.136   5.748
 5133POPC   C1A64719   9.519  43.230   6.060
 5133POPC   D2A64720   9.506  42.975   6.457
 5133POPC   C3A64721   9.659  43.199   6.836
 5133POPC   C4A64722   9.697  42.995   7.234
 5133POPC   C1B64723   9.936  42.874   6.165
 5133POPC   C2B64724  10.049  42.927   6.599
 5133POPC   C3B64725  10.152  43.080   7.008
 5133POPC   C4B64726  10.160  42.860   7.411
 5134POPC   NC364727   2.904  21.692   5.663
 5134POPC   PO464728   2.573  22.151   5.286
 5134POPC   GL164729   2.631  22.292   5.759
 5134POPC   GL264730   2.537  21.992   5.930
 5134POPC   C1A64731   2.935  22.222   6.161
 5134POPC   D2A64732   2.757  21.984   6.477
 5134POPC   C3A64733   2.893  22.053   6.943
 5134POPC   C4A64734   3.028  22.005   7.372
 5134POPC   C1B64735   2.468  22.364   6.245
 5134POPC   C2B64736   2.626  22.426   6.681
 5134POPC   C3B64737   2.496  22.404   7.101
 5134POPC   C4B64738   2.355  22.112   7.394
 5135POPC   NC364739   5.154  28.648   5.403
 5135POPC   PO464740   4.664  28.170   5.429
 5135POPC   GL164741   4.900  28.410   5.777
 5135POPC   GL264742   5.285  28.442   5.846
 5135POPC   C1A64743   4.968  28.654   6.164
 5135POPC   D2A64744   5.254  28.574   6.492
 5135POPC   C3A64745   5.141  28.345   6.842
 5135POPC   C4A64746   5.083  28.477   7.232
 5135POPC   C1B64747   5.624  28.528   6.132
 5135POPC   C2B64748   5.784  28.555   6.549
 5135POPC   C3B64749   5.581  28.613   6.928
 5135POPC   C4B64750   5.599  28.441   7.303
 5136POPC   NC364751  16.085  16.485   5.425
 5136POPC   PO464752  15.752  16.901   5.661
 5136POPC   GL164753  15.907  16.767   6.014
 5136POPC   GL264754  16.209  16.571   5.929
 5136POPC   C1A64755  15.854  16.953   6.431
 5136POPC   D2A64756  15.681  16.695   6.773
 5136POPC   C3A64757  15.855  16.830   7.122
 5136POPC   C4A64758  16.205  16.962   7.217
 5136POPC   C1B64759  16.170  16.554   6.379
 5136POPC   C2B64760  16.231  16.762   6.746
 5136POPC   C3B64761  16.201  16.451   7.005
 5136POPC   C4B64762  15.830  16.322   7.179
 5137POPC   NC364763  27.936  42.946   5.384
 5137POPC   PO464764  27.350  43.097   5.330
 5137POPC   GL164765  27.556  43.116   5.725
 5137POPC   GL264766  27.642  42.824   5.827
 5137POPC   C1A64767  27.690  43.200   6.167
 5137POPC   D2A64768  27.558  43.174   6.592
 5137POPC   C3A64769  27.857  43.028   6.902
 5137POPC   C4A64770  27.775  43.252   7.265
 5137POPC   C1B64771  27.358  42.802   6.212
 5137POPC   C2B64772  27.432  42.705   6.654
 5137POPC   C3B64773  27.382  42.896   7.047
 5137POPC   C4B64774  27.347  42.646   7.390
 5138POPC   NC364775  13.353  25.564   5.079
 5138POPC   PO464776  13.199  25.119   5.530
 5138POPC   GL164777  12.896  25.244   5.852
 5138POPC   GL264778  12.869  25.589   5.844
 5138POPC   C1A64779  12.871  25.073   6.278
 5138POPC   D2A64780  13.219  25.029   6.601
 5138POPC   C3A64781  12.992  25.081   6.975
 5138POPC   C4A64782  12.602  24.886   7.100
 5138POPC   C1B64783  12.609  25.579   6.177
 5138POPC   C2B64784  12.688  25.478   6.574
 5138POPC   C3B64785  12.577  25.409   6.972
 5138POPC   C4B64786  12.853  25.567   7.242
 5139POPC   NC364787  41.661   1.208   5.670
 5139POPC   PO464788  41.106   1.077   5.509
 5139POPC   GL164789  41.308   0.922   5.909
 5139POPC   GL264790  41.694   0.763   5.860
 5139POPC   C1A64791  41.329   1.226   6.265
 5139POPC   D2A64792  41.499   1.532   6.568
 5139POPC   C3A64793  41.489   1.362   7.009
 5139POPC   C4A64794  41.862   1.275   7.243
 5139POPC   C1B64795  41.718   0.878   6.269
 5139POPC   C2B64796  41.606   1.016   6.653
 5139POPC   C3B64797  41.625   0.841   7.051
 5139POPC   C4B64798  41.479   1.005   7.441
 5140POPC   NC364799   8.581  27.166   5.438
 5140POPC   PO464800   8.748  26.498   5.482
 5140POPC   GL164801   8.908  26.614   5.872
 5140POPC   GL264802   8.817  26.944   5.835
 5140POPC   C1A64803   9.019  26.842   6.279
 5140POPC   D2A64804   9.075  27.094   6.657
 5140POPC   C3A64805   9.108  26.808   6.988
 5140POPC   C4A64806   8.838  26.495   7.131
 5140POPC   C1B64807   8.550  27.064   6.217
 5140POPC   C2B64808   8.550  27.231   6.662
 5140POPC   C3B64809   8.794  27.244   7.071
 5140POPC   C4B64810   8.984  27.025   7.433
 5141POPC   NC364811  36.509  20.793   5.302
 5141POPC   PO464812  37.179  20.711   5.346
 5141POPC   GL164813  36.827  20.716   5.694
 5141POPC   GL264814  36.886  20.427   5.857
 5141POPC   C1A64815  36.710  20.771   6.169
 5141POPC   D2A64816  36.803  20.979   6.569
 5141POPC   C3A64817  36.747  20.837   7.006
 5141POPC   C4A64818  36.670  20.730   7.470
 5141POPC   C1B64819  36.816  20.290   6.273
 5141POPC   C2B64820  36.846  20.450   6.688
 5141POPC   C3B64821  36.682  20.317   7.083
 5141POPC   C4B64822  36.758  20.238   7.490
 5142POPC   NC364823  33.071   0.832   5.133
 5142POPC   PO464824  32.802   1.336   5.613
 5142POPC   GL164825  33.018   1.298   5.977
 5142POPC   GL264826  32.956   0.956   6.057
 5142POPC   C1A64827  33.063   1.467   6.383
 5142POPC   D2A64828  32.881   1.490   6.783
 5142POPC   C3A64829  33.166   1.328   7.110
 5142POPC   C4A64830  33.363   1.361   7.553
 5142POPC   C1B64831  33.361   1.026   6.248
 5142POPC   C2B64832  33.283   1.081   6.656
 5142POPC   C3B64833  33.355   0.839   6.958
 5142POPC   C4B64834  33.525   0.954   7.274
 5143POPC   NC364835  27.224  41.844   5.462
 5143POPC   PO464836  27.695  41.225   5.492
 5143POPC   GL164837  27.698  41.490   5.848
 5143POPC   GL264838  27.730  41.856   5.840
 5143POPC   C1A64839  27.485  41.532   6.242
 5143POPC   D2A64840  27.204  41.450   6.581
 5143POPC   C3A64841  27.494  41.528   6.896
 5143POPC   C4A64842  27.605  41.364   7.239
 5143POPC   C1B64843  27.938  41.977   6.221
 5143POPC   C2B64844  27.861  41.760   6.594
 5143POPC   C3B64845  27.831  41.923   6.999
 5143POPC   C4B64846  27.923  41.751   7.376
 5144POPC   NC364847  21.244  18.829   5.322
 5144POPC   PO464848  21.503  19.497   5.361
 5144POPC   GL164849  21.566  19.076   5.667
 5144POPC   GL264850  21.256  18.865   5.815
 5144POPC   C1A64851  21.583  18.995   6.155
 5144POPC   D2A64852  21.378  19.007   6.604
 5144POPC   C3A64853  21.577  19.219   6.958
 5144POPC   C4A64854  21.751  18.947   7.238
 5144POPC   C1B64855  21.084  18.811   6.230
 5144POPC   C2B64856  21.098  18.590   6.629
 5144POPC   C3B64857  21.043  18.773   7.013
 5144POPC   C4B64858  21.254  18.951   7.346
 5145POPC   NC364859  32.204  27.275   5.391
 5145POPC   PO464860  32.381  27.868   5.134
 5145POPC   GL164861  32.085  27.703   5.628
 5145POPC   GL264862  32.060  27.948   5.911
 5145POPC   C1A64863  31.983  27.477   6.060
 5145POPC   D2A64864  31.956  27.453   6.528
 5145POPC   C3A64865  31.950  27.747   6.873
 5145POPC   C4A64866  32.057  27.555   7.255
 5145POPC   C1B64867  32.385  27.742   6.235
 5145POPC   C2B64868  32.470  27.456   6.612
 5145POPC   C3B64869  32.527  27.509   7.054
 5145POPC   C4B64870  32.679  27.802   7.349
 5146POPC   NC364871  36.013  28.054   5.317
 5146POPC   PO464872  36.389  28.665   5.367
 5146POPC   GL164873  36.338  28.281   5.673
 5146POPC   GL264874  35.978  28.217   5.808
 5146POPC   C1A64875  36.393  28.135   6.097
 5146POPC   D2A64876  36.177  28.350   6.449
 5146POPC   C3A64877  36.183  28.147   6.822
 5146POPC   C4A64878  36.259  28.130   7.227
 5146POPC   C1B64879  36.085  28.634   6.030
 5146POPC   C2B64880  36.122  28.884   6.447
 5146POPC   C3B64881  36.087  28.686   6.872
 5146POPC   C4B64882  35.941  28.515   7.276
 5147POPC   NC364883  26.545  26.610   5.500
 5147POPC   PO464884  27.123  27.081   5.506
 5147POPC   GL164885  26.893  26.845   5.858
 5147POPC   GL264886  26.835  26.472   5.897
 5147POPC   C1A64887  26.830  26.757   6.316
 5147POPC   D2A64888  26.566  26.758   6.676
 5147POPC   C3A64889  26.682  26.972   7.011
 5147POPC   C4A64890  27.066  27.186   7.069
 5147POPC   C1B64891  27.125  26.342   6.185
 5147POPC   C2B64892  27.260  26.512   6.595
 5147POPC   C3B64893  27.022  26.571   6.961
 5147POPC   C4B64894  27.031  26.293   7.299
 5148POPC   NC364895   2.306  14.036   5.514
 5148POPC   PO464896   1.945  14.624   5.417
 5148POPC   GL164897   1.904  14.405   5.793
 5148POPC   GL264898   1.585  14.607   5.841
 5148POPC   C1A64899   2.198  14.339   6.178
 5148POPC   D2A64900   2.186  14.111   6.574
 5148POPC   C3A64901   2.253  14.329   6.972
 5148POPC   C4A64902   2.262  14.155   7.397
 5148POPC   C1B64903   1.818  14.655   6.224
 5148POPC   C2B64904   2.027  14.648   6.582
 5148POPC   C3B64905   1.911  14.739   6.971
 5148POPC   C4B64906   2.068  14.629   7.363
 5149POPC   NC364907  42.294  12.286   5.312
 5149POPC   PO464908  42.346  11.566   5.408
 5149POPC   GL164909  42.316  11.921   5.711
 5149POPC   GL264910  42.157  12.243   5.781
 5149POPC   C1A64911  42.284  11.943   6.178
 5149POPC   D2A64912  42.575  12.048   6.499
 5149POPC   C3A64913  42.428  11.914   6.851
 5149POPC   C4A64914  42.630  12.012   7.201
 5149POPC   C1B64915  42.149  12.442   6.152
 5149POPC   C2B64916  42.177  12.349   6.579
 5149POPC   C3B64917  42.335  12.396   6.981
 5149POPC   C4B64918  42.102  12.472   7.327
 5150POPC   NC364919   2.724  15.469   5.374
 5150POPC   PO464920   2.672  16.131   5.425
 5150POPC   GL164921   2.588  15.890   5.775
 5150POPC   GL264922   2.899  15.750   5.780
 5150POPC   C1A64923   2.472  15.916   6.206
 5150POPC   D2A64924   2.747  15.971   6.567
 5150POPC   C3A64925   2.641  16.006   7.001
 5150POPC   C4A64926   2.934  16.293   7.178
 5150POPC   C1B64927   2.865  15.593   6.204
 5150POPC   C2B64928   3.018  15.513   6.631
 5150POPC   C3B64929   3.095  15.590   7.090
 5150POPC   C4B64930   2.798  15.667   7.397
 5151POPC   NC364931   3.919  38.852   5.401
 5151POPC   PO464932   4.305  38.366   5.225
 5151POPC   GL164933   4.266  38.339   5.698
 5151POPC   GL264934   4.246  38.661   5.759
 5151POPC   C1A64935   4.275  38.395   6.201
 5151POPC   D2A64936   4.585  38.612   6.530
 5151POPC   C3A64937   4.624  38.545   7.003
 5151POPC   C4A64938   4.493  38.372   7.441
 5151POPC   C1B64939   3.988  38.822   6.100
 5151POPC   C2B64940   3.883  38.630   6.486
 5151POPC   C3B64941   4.147  38.586   6.815
 5151POPC   C4B64942   4.203  38.777   7.205
 5152POPC   NC364943  24.462   8.024   5.448
 5152POPC   PO464944  24.769   8.631   5.359
 5152POPC   GL164945  24.622   8.409   5.764
 5152POPC   GL264946  24.248   8.344   5.809
 5152POPC   C1A64947  24.613   8.202   6.188
 5152POPC   D2A64948  24.637   8.387   6.596
 5152POPC   C3A64949  24.760   8.116   6.945
 5152POPC   C4A64950  24.744   7.975   7.378
 5152POPC   C1B64951  24.195   7.958   6.075
 5152POPC   C2B64952  24.259   8.002   6.530
 5152POPC   C3B64953  24.221   8.291   6.878
 5152POPC   C4B64954  24.272   8.167   7.269
 5153POPC   NC364955  25.017  24.572   5.497
 5153POPC   PO464956  25.677  24.424   5.684
 5153POPC   GL164957  25.442  24.217   5.992
 5153POPC   GL264958  25.129  24.128   5.850
 5153POPC   C1A64959  25.485  24.318   6.398
 5153POPC   D2A64960  25.611  24.549   6.728
 5153POPC   C3A64961  25.445  24.460   7.081
 5153POPC   C4A64962  25.611  24.134   7.319
 5153POPC   C1B64963  25.068  24.513   6.134
 5153POPC   C2B64964  25.106  24.636   6.553
 5153POPC   C3B64965  24.877  24.674   6.925
 5153POPC   C4B64966  25.003  24.570   7.308
 5154POPC   NC364967  16.992   4.898   5.160
 5154POPC   PO464968  16.599   5.324   5.465
 5154POPC   GL164969  16.720   5.119   5.842
 5154POPC   GL264970  16.637   4.837   5.727
 5154POPC   C1A64971  16.811   5.010   6.274
 5154POPC   D2A64972  16.623   4.965   6.692
 5154POPC   C3A64973  16.825   5.099   7.078
 5154POPC   C4A64974  16.924   5.488   7.317
 5154POPC   C1B64975  16.408   4.712   6.100
 5154POPC   C2B64976  16.426   4.516   6.498
 5154POPC   C3B64977  16.281   4.662   6.894
 5154POPC   C4B64978  16.502   4.743   7.269
 5155POPC   NC364979  42.006  44.916   5.029
 5155POPC   PO464980  42.269  44.414   5.480
 5155POPC   GL164981  42.132  44.550   5.821
 5155POPC   GL264982  41.953  44.837   5.636
 5155POPC   C1A64983  42.269  44.388   6.230
 5155POPC   D2A64984  42.501  44.578   6.555
 5155POPC   C3A64985  42.514  44.504   6.982
 5155POPC   C4A64986  42.517  44.886   7.272
 5155POPC   C1B64987  41.852  44.877   6.071
 5155POPC   C2B64988  42.018  44.775   6.468
 5155POPC   C3B64989  42.194  44.885   6.865
 5155POPC   C4B64990  42.062  44.644   7.203
 5156POPC   NC364991  41.678  42.615   5.309
 5156POPC   PO464992  41.401  42.070   5.375
 5156POPC   GL164993  41.672  42.280   5.731
 5156POPC   GL264994  41.801  42.666   5.806
 5156POPC   C1A64995  41.588  42.372   6.175
 5156POPC   D2A64996  41.337  42.492   6.542
 5156POPC   C3A64997  41.458  42.319   6.914
 5156POPC   C4A64998  41.335  42.370   7.320
 5156POPC   C1B64999  41.965  42.724   6.244
 5156POPC   C2B65000  41.862  42.571   6.667
 5156POPC   C3B65001  41.844  42.657   7.117
 5156POPC   C4B65002  41.698  42.640   7.551
 5157POPC   NC365003  33.302  21.735   5.344
 5157POPC   PO465004  33.001  21.275   5.677
 5157POPC   GL165005  33.031  21.428   5.997
 5157POPC   GL265006  32.808  21.706   5.941
 5157POPC   C1A65007  33.064  21.159   6.355
 5157POPC   D2A65008  33.385  21.069   6.647
 5157POPC   C3A65009  33.153  21.100   6.997
 5157POPC   C4A65010  33.128  21.091   7.419
 5157POPC   C1B65011  32.725  21.550   6.372
 5157POPC   C2B65012  32.736  21.308   6.746
 5157POPC   C3B65013  32.862  21.538   7.053
 5157POPC   C4B65014  32.758  21.952   7.200
 5158POPC   NC365015   7.506  43.924   5.437
 5158POPC   PO465016   6.946  44.150   5.739
 5158POPC   GL165017   7.297  43.982   5.906
 5158POPC   GL265018   7.399  43.629   5.858
 5158POPC   C1A65019   7.556  44.112   6.237
 5158POPC   D2A65020   7.590  43.984   6.654
 5158POPC   C3A65021   7.304  44.115   6.943
 5158POPC   C4A65022   7.542  44.073   7.291
 5158POPC   C1B65023   7.445  43.615   6.324
 5158POPC   C2B65024   7.240  43.577   6.752
 5158POPC   C3B65025   7.277  43.642   7.214
 5158POPC   C4B65026   7.446  43.713   7.652
 5159POPC   NC365027  42.466   8.915   5.427
 5159POPC   PO465028  41.983   9.399   5.367
 5159POPC   GL165029  42.224   9.238   5.760
 5159POPC   GL265030  42.546   9.150   5.890
 5159POPC   C1A65031  42.209   8.854   6.106
 5159POPC   D2A65032  42.448   8.720   6.501
 5159POPC   C3A65033  42.250   8.731   6.914
 5159POPC   C4A65034  42.257   8.918   7.338
 5159POPC   C1B65035  42.785   9.323   6.241
 5159POPC   C2B65036  42.787   9.114   6.620
 5159POPC   C3B65037  42.608   9.114   7.016
 5159POPC   C4B65038  42.672   9.193   7.437
 5160POPC   NC365039  41.148  10.937   5.325
 5160POPC   PO465040  41.037  10.252   5.294
 5160POPC   GL165041  40.899  10.277   5.742
 5160POPC   GL265042  40.583  10.396   5.784
 5160POPC   C1A65043  41.050  10.396   6.191
 5160POPC   D2A65044  40.962  10.675   6.562
 5160POPC   C3A65045  41.044  10.553   6.993
 5160POPC   C4A65046  40.936  10.671   7.407
 5160POPC   C1B65047  40.569  10.616   6.189
 5160POPC   C2B65048  40.409  10.553   6.600
 5160POPC   C3B65049  40.520  10.655   6.996
 5160POPC   C4B65050  40.622  10.317   7.194
 5161POPC   NC365051   8.412  26.214   5.692
 5161POPC   PO465052   8.123  26.834   5.405
 5161POPC   GL165053   8.230  26.982   5.798
 5161POPC   GL265054   8.382  26.678   5.889
 5161POPC   C1A65055   8.049  26.910   6.212
 5161POPC   D2A65056   8.199  26.829   6.605
 5161POPC   C3A65057   7.911  26.650   6.911
 5161POPC   C4A65058   7.833  26.591   7.350
 5161POPC   C1B65059   8.545  26.551   6.293
 5161POPC   C2B65060   8.693  26.737   6.678
 5161POPC   C3B65061   8.473  26.833   7.052
 5161POPC   C4B65062   8.309  26.462   7.222
 5162POPC   NC365063   5.455   8.775   5.563
 5162POPC   PO465064   5.912   9.201   5.396
 5162POPC   GL165065   5.864   9.169   5.829
 5162POPC   GL265066   5.828   8.812   5.914
 5162POPC   C1A65067   5.676   9.137   6.269
 5162POPC   D2A65068   5.816   8.997   6.685
 5162POPC   C3A65069   5.783   9.248   7.083
 5162POPC   C4A65070   5.777   9.342   7.535
 5162POPC   C1B65071   5.536   8.616   6.246
 5162POPC   C2B65072   5.656   8.477   6.701
 5162POPC   C3B65073   5.763   8.698   7.112
 5162POPC   C4B65074   5.653   8.739   7.554
 5163POPC   NC365075  25.514  41.364   5.595
 5163POPC   PO465076  24.942  41.264   5.580
 5163POPC   GL165077  25.109  41.409   5.929
 5163POPC   GL265078  25.204  41.722   5.830
 5163POPC   C1A65079  25.262  41.510   6.328
 5163POPC   D2A65080  25.522  41.300   6.603
 5163POPC   C3A65081  25.292  41.173   6.896
 5163POPC   C4A65082  25.378  41.288   7.264
 5163POPC   C1B65083  25.593  41.795   6.069
 5163POPC   C2B65084  25.652  41.807   6.522
 5163POPC   C3B65085  25.360  41.704   6.867
 5163POPC   C4B65086  25.406  41.801   7.281
 5164POPC   NC365087  23.302  35.218   5.239
 5164POPC   PO465088  22.740  35.467   5.565
 5164POPC   GL165089  22.807  35.389   5.985
 5164POPC   GL265090  23.163  35.379   5.864
 5164POPC   C1A65091  22.733  35.422   6.436
 5164POPC   D2A65092  22.456  35.679   6.710
 5164POPC   C3A65093  22.461  35.426   7.079
 5164POPC   C4A65094  22.735  35.106   7.203
 5164POPC   C1B65095  23.178  35.622   6.230
 5164POPC   C2B65096  23.217  35.487   6.619
 5164POPC   C3B65097  22.970  35.521   6.950
 5164POPC   C4B65098  23.238  35.655   7.255
 5165POPC   NC365099  21.532  41.333   5.458
 5165POPC   PO465100  21.207  41.949   5.209
 5165POPC   GL165101  21.265  41.744   5.683
 5165POPC   GL265102  20.951  41.759   5.895
 5165POPC   C1A65103  21.463  41.651   6.087
 5165POPC   D2A65104  21.537  41.843   6.500
 5165POPC   C3A65105  21.539  41.654   6.914
 5165POPC   C4A65106  21.690  41.450   7.271
 5165POPC   C1B65107  21.033  41.706   6.345
 5165POPC   C2B65108  20.868  41.679   6.733
 5165POPC   C3B65109  21.041  41.418   7.005
 5165POPC   C4B65110  21.202  41.575   7.346
 5166POPC   NC365111   8.286  38.696   5.299
 5166POPC   PO465112   8.409  38.068   5.587
 5166POPC   GL165113   8.218  38.287   5.900
 5166POPC   GL265114   8.253  38.599   5.806
 5166POPC   C1A65115   8.189  38.481   6.295
 5166POPC   D2A65116   8.393  38.689   6.609
 5166POPC   C3A65117   8.407  38.335   6.912
 5166POPC   C4A65118   8.281  38.311   7.359
 5166POPC   C1B65119   7.873  38.803   6.034
 5166POPC   C2B65120   7.927  38.899   6.468
 5166POPC   C3B65121   7.956  38.642   6.852
 5166POPC   C4B65122   8.279  38.776   7.151
 5167POPC   NC365123  16.362   9.136   5.095
 5167POPC   PO465124  15.759   8.998   5.396
 5167POPC   GL165125  15.741   9.077   5.830
 5167POPC   GL265126  15.975   9.301   5.921
 5167POPC   C1A65127  15.757   8.967   6.272
 5167POPC   D2A65128  15.863   8.717   6.643
 5167POPC   C3A65129  15.970   8.939   7.027
 5167POPC   C4A65130  15.894   8.840   7.477
 5167POPC   C1B65131  16.000   9.421   6.377
 5167POPC   C2B65132  16.207   9.423   6.783
 5167POPC   C3B65133  16.128   9.366   7.229
 5167POPC   C4B65134  16.247   9.171   7.618
 5168POPC   NC365135  21.306   3.944   5.463
 5168POPC   PO465136  21.018   4.646   5.385
 5168POPC   GL165137  21.137   4.367   5.737
 5168POPC   GL265138  21.437   4.409   5.832
 5168POPC   C1A65139  21.144   4.353   6.250
 5168POPC   D2A65140  21.275   4.612   6.639
 5168POPC   C3A65141  21.136   4.544   7.081
 5168POPC   C4A65142  20.848   4.394   7.360
 5168POPC   C1B65143  21.611   4.145   6.205
 5168POPC   C2B65144  21.609   4.223   6.656
 5168POPC   C3B65145  21.608   4.399   7.076
 5168POPC   C4B65146  21.456   4.398   7.542
 5169POPC   NC365147   1.287  36.318   5.297
 5169POPC   PO465148   1.390  37.139   5.350
 5169POPC   GL165149   1.476  37.158   5.800
 5169POPC   GL265150   1.188  37.076   5.925
 5169POPC   C1A65151   1.550  37.007   6.257
 5169POPC   D2A65152   1.374  36.773   6.604
 5169POPC   C3A65153   1.405  36.982   6.997
 5169POPC   C4A65154   1.167  37.013   7.354
 5169POPC   C1B65155   1.042  36.766   6.206
 5169POPC   C2B65156   0.900  36.601   6.591
 5169POPC   C3B65157   0.997  36.683   6.997
 5169POPC   C4B65158   0.788  36.682   7.360
 5170POPC   NC365159   7.591  26.482   5.481
 5170POPC   PO465160   7.342  27.069   5.426
 5170POPC   GL165161   7.284  26.969   5.851
 5170POPC   GL265162   7.170  26.627   5.891
 5170POPC   C1A65163   7.477  26.875   6.277
 5170POPC   D2A65164   7.617  27.055   6.695
 5170POPC   C3A65165   7.417  26.840   7.055
 5170POPC   C4A65166   7.397  26.852   7.523
 5170POPC   C1B65167   6.846  26.510   6.180
 5170POPC   C2B65168   6.900  26.294   6.560
 5170POPC   C3B65169   7.024  26.514   6.897
 5170POPC   C4B65170   7.010  26.638   7.296
 5171POPC   NC365171  22.309  17.019   5.303
 5171POPC   PO465172  22.444  16.449   5.579
 5171POPC   GL165173  22.164  16.654   5.845
 5171POPC   GL265174  22.045  16.973   5.766
 5171POPC   C1A65175  22.059  16.591   6.274
 5171POPC   D2A65176  21.898  16.362   6.647
 5171POPC   C3A65177  22.112  16.471   7.056
 5171POPC   C4A65178  22.525  16.691   7.183
 5171POPC   C1B65179  22.143  17.120   6.176
 5171POPC   C2B65180  22.053  16.980   6.590
 5171POPC   C3B65181  22.143  16.978   7.009
 5171POPC   C4B65182  21.872  16.928   7.343
 5172POPC   NC365183  26.049   8.820   5.427
 5172POPC   PO465184  26.323   9.531   5.639
 5172POPC   GL165185  26.276   9.107   5.892
 5172POPC   GL265186  25.937   8.901   5.920
 5172POPC   C1A65187  26.220   8.981   6.353
 5172POPC   D2A65188  25.985   8.951   6.736
 5172POPC   C3A65189  26.235   9.089   7.118
 5172POPC   C4A65190  26.313   8.799   7.479
 5172POPC   C1B65191  25.723   9.105   6.269
 5172POPC   C2B65192  25.678   9.407   6.617
 5172POPC   C3B65193  25.723   9.282   7.042
 5172POPC   C4B65194  25.658   9.229   7.498
 5173POPC   NC365195  13.869  27.149   5.528
 5173POPC   PO465196  13.509  26.608   5.343
 5173POPC   GL165197  13.506  26.591   5.821
 5173POPC   GL265198  13.823  26.769   5.886
 5173POPC   C1A65199  13.468  26.792   6.257
 5173POPC   D2A65200  13.791  26.811   6.604
 5173POPC   C3A65201  13.595  26.880   6.993
 5173POPC   C4A65202  13.165  26.870   7.067
 5173POPC   C1B65203  13.834  27.162   6.178
 5173POPC   C2B65204  13.877  27.316   6.589
 5173POPC   C3B65205  13.987  27.202   6.996
 5173POPC   C4B65206  14.007  26.916   7.355
 5174POPC   NC365207  42.113  28.572   5.094
 5174POPC   PO465208  42.357  28.054   5.463
 5174POPC   GL165209  42.437  28.250   5.866
 5174POPC   GL265210  42.692  28.455   5.881
 5174POPC   C1A65211  42.441  28.435   6.312
 5174POPC   D2A65212  42.262  28.697   6.625
 5174POPC   C3A65213  42.226  28.488   7.012
 5174POPC   C4A65214  42.013  28.080   7.044
 5174POPC   C1B65215  42.807  28.073   6.165
 5174POPC   C2B65216  42.604  27.844   6.523
 5174POPC   C3B65217  42.521  27.959   6.963
 5174POPC   C4B65218  42.683  28.263   7.231
 5175POPC   NC365219  26.148  40.179   5.394
 5175POPC   PO465220  25.733  39.780   5.495
 5175POPC   GL165221  25.994  39.854   5.842
 5175POPC   GL265222  26.070  40.219   5.897
 5175POPC   C1A65223  26.183  39.837   6.258
 5175POPC   D2A65224  25.991  39.998   6.630
 5175POPC   C3A65225  25.947  39.789   6.996
 5175POPC   C4A65226  25.876  39.765   7.442
 5175POPC   C1B65227  26.120  40.382   6.307
 5175POPC   C2B65228  26.427  40.273   6.626
 5175POPC   C3B65229  26.441  40.199   7.028
 5175POPC   C4B65230  26.109  40.200   7.276
 5176POPC   NC365231   2.838  24.732   5.322
 5176POPC   PO465232   2.964  25.353   5.391
 5176POPC   GL165233   2.611  25.377   5.713
 5176POPC   GL265234   2.437  25.061   5.732
 5176POPC   C1A65235   2.550  25.490   6.161
 5176POPC   D2A65236   2.763  25.540   6.563
 5176POPC   C3A65237   2.603  25.362   6.938
 5176POPC   C4A65238   2.561  25.412   7.366
 5176POPC   C1B65239   2.345  25.022   6.170
 5176POPC   C2B65240   2.625  24.997   6.565
 5176POPC   C3B65241   2.867  24.941   6.986
 5176POPC   C4B65242   2.476  24.932   7.226
 5177POPC   NC365243   3.286  41.020   5.656
 5177POPC   PO465244   3.592  40.494   5.353
 5177POPC   GL165245   3.708  40.743   5.737
 5177POPC   GL265246   3.439  40.537   5.858
 5177POPC   C1A65247   3.606  40.897   6.202
 5177POPC   D2A65248   3.478  40.723   6.611
 5177POPC   C3A65249   3.579  40.891   6.992
 5177POPC   C4A65250   3.571  41.116   7.359
 5177POPC   C1B65251   3.419  40.374   6.251
 5177POPC   C2B65252   3.102  40.363   6.571
 5177POPC   C3B65253   3.123  40.568   6.948
 5177POPC   C4B65254   3.299  40.570   7.313
 5178POPC   NC365255   8.534  30.661   5.394
 5178POPC   PO465256   8.088  30.246   5.313
 5178POPC   GL165257   8.116  30.499   5.701
 5178POPC   GL265258   8.410  30.300   5.769
 5178POPC   C1A65259   8.118  30.798   6.084
 5178POPC   D2A65260   8.070  30.705   6.558
 5178POPC   C3A65261   8.140  30.872   6.983
 5178POPC   C4A65262   7.997  30.574   7.311
 5178POPC   C1B65263   8.402  30.385   6.201
 5178POPC   C2B65264   8.525  30.477   6.628
 5178POPC   C3B65265   8.348  30.378   7.021
 5178POPC   C4B65266   8.370  30.284   7.490
 5179POPC   NC365267   6.240  24.643   5.136
 5179POPC   PO465268   5.752  24.403   5.536
 5179POPC   GL165269   5.750  24.386   5.970
 5179POPC   GL265270   6.029  24.166   5.986
 5179POPC   C1A65271   5.660  24.667   6.345
 5179POPC   D2A65272   5.567  24.798   6.785
 5179POPC   C3A65273   5.612  24.543   7.104
 5179POPC   C4A65274   5.896  24.194   7.081
 5179POPC   C1B65275   6.149  24.455   6.314
 5179POPC   C2B65276   6.009  24.524   6.718
 5179POPC   C3B65277   6.107  24.688   7.115
 5179POPC   C4B65278   5.914  24.918   7.431
 5180POPC   NC365279  12.051  32.019   5.431
 5180POPC   PO465280  12.342  32.536   5.296
 5180POPC   GL165281  12.271  32.510   5.765
 5180POPC   GL265282  12.213  32.162   5.888
 5180POPC   C1A65283  12.163  32.532   6.215
 5180POPC   D2A65284  11.873  32.263   6.451
 5180POPC   C3A65285  11.861  32.364   6.885
 5180POPC   C4A65286  12.102  32.256   7.238
 5180POPC   C1B65287  12.296  31.969   6.294
 5180POPC   C2B65288  12.262  31.966   6.767
 5180POPC   C3B65289  12.557  32.083   7.116
 5180POPC   C4B65290  12.412  32.082   7.599
 5181POPC   NC365291   7.872  32.803   5.352
 5181POPC   PO465292   8.514  32.689   5.518
 5181POPC   GL165293   8.128  32.929   5.808
 5181POPC   GL265294   7.764  32.769   5.868
 5181POPC   C1A65295   8.088  33.080   6.292
 5181POPC   D2A65296   8.250  32.903   6.719
 5181POPC   C3A65297   8.496  33.036   7.093
 5181POPC   C4A65298   8.769  33.001   7.464
 5181POPC   C1B65299   7.618  32.896   6.295
 5181POPC   C2B65300   7.750  32.938   6.750
 5181POPC   C3B65301   7.970  33.181   7.103
 5181POPC   C4B65302   8.244  33.499   7.372
 5182POPC   NC365303  36.587  26.540   5.433
 5182POPC   PO465304  36.984  25.996   5.351
 5182POPC   GL165305  36.788  26.032   5.761
 5182POPC   GL265306  36.496  26.235   5.860
 5182POPC   C1A65307  36.698  25.859   6.169
 5182POPC   D2A65308  36.950  25.888   6.536
 5182POPC   C3A65309  36.733  25.928   6.894
 5182POPC   C4A65310  36.929  25.894   7.265
 5182POPC   C1B65311  36.482  26.496   6.217
 5182POPC   C2B65312  36.612  26.365   6.623
 5182POPC   C3B65313  36.447  26.349   7.040
 5182POPC   C4B65314  36.608  26.241   7.449
 5183POPC   NC365315  13.012  19.547   5.545
 5183POPC   PO465316  13.031  18.859   5.445
 5183POPC   GL165317  13.032  19.084   5.864
 5183POPC   GL265318  12.828  19.413   5.997
 5183POPC   C1A65319  12.987  19.050   6.312
 5183POPC   D2A65320  12.805  19.338   6.554
 5183POPC   C3A65321  12.568  19.130   6.843
 5183POPC   C4A65322  12.661  18.813   7.172
 5183POPC   C1B65323  13.218  19.499   6.255
 5183POPC   C2B65324  13.301  19.281   6.663
 5183POPC   C3B65325  13.048  19.103   7.006
 5183POPC   C4B65326  12.884  19.174   7.457
 5184POPC   NC365327  37.412  44.228   5.528
 5184POPC   PO465328  37.843  43.748   5.353
 5184POPC   GL165329  37.833  43.994   5.750
 5184POPC   GL265330  37.554  43.806   5.860
 5184POPC   C1A65331  37.961  43.942   6.193
 5184POPC   D2A65332  37.772  43.794   6.587
 5184POPC   C3A65333  37.878  43.963   7.006
 5184POPC   C4A65334  37.797  43.698   7.378
 5184POPC   C1B65335  37.380  44.089   6.173
 5184POPC   C2B65336  37.163  43.997   6.551
 5184POPC   C3B65337  37.355  43.902   6.919
 5184POPC   C4B65338  37.438  44.072   7.281
 5185POPC   NC365339  15.715  18.391   5.463
 5185POPC   PO465340  16.100  17.783   5.351
 5185POPC   GL165341  16.047  18.094   5.736
 5185POPC   GL265342  15.760  18.156   5.925
 5185POPC   C1A65343  16.227  18.287   6.134
 5185POPC   D2A65344  16.105  18.515   6.552
 5185POPC   C3A65345  16.244  18.354   6.965
 5185POPC   C4A65346  16.022  18.094   7.211
 5185POPC   C1B65347  15.792  18.588   6.142
 5185POPC   C2B65348  15.623  18.769   6.518
 5185POPC   C3B65349  15.478  18.569   6.878
 5185POPC   C4B65350  15.766  18.527   7.210
 5186POPC   NC365351  23.484  17.424   5.050
 5186POPC   PO465352  23.964  17.684   5.404
 5186POPC   GL165353  23.798  17.706   5.800
 5186POPC   GL265354  23.937  18.021   5.831
 5186POPC   C1A65355  23.521  17.599   6.147
 5186POPC   D2A65356  23.602  17.305   6.502
 5186POPC   C3A65357  23.478  17.440   6.915
 5186POPC   C4A65358  23.579  17.605   7.326
 5186POPC   C1B65359  23.958  17.911   6.247
 5186POPC   C2B65360  23.702  17.825   6.566
 5186POPC   C3B65361  23.783  17.841   6.943
 5186POPC   C4B65362  24.061  17.745   7.232
 5187POPC   NC365363  32.451  28.653   5.306
 5187POPC   PO465364  32.466  28.025   5.626
 5187POPC   GL165365  32.410  28.341   5.893
 5187POPC   GL265366  32.102  28.498   5.753
 5187POPC   C1A65367  32.428  28.259   6.351
 5187POPC   D2A65368  32.397  27.946   6.715
 5187POPC   C3A65369  32.322  28.103   7.123
 5187POPC   C4A65370  32.403  28.569   7.157
 5187POPC   C1B65371  31.952  28.361   6.167
 5187POPC   C2B65372  31.959  28.207   6.592
 5187POPC   C3B65373  31.934  28.387   6.984
 5187POPC   C4B65374  31.700  28.589   7.262
 5188POPC   NC365375   6.630  44.398   5.523
 5188POPC   PO465376   6.641   0.054   5.459
 5188POPC   GL165377   6.514  44.807   5.802
 5188POPC   GL265378   6.867  44.650   5.889
 5188POPC   C1A65379   6.436  44.556   6.173
 5188POPC   D2A65380   6.653  44.606   6.555
 5188POPC   C3A65381   6.392  44.618   6.901
 5188POPC   C4A65382   6.358  44.869   7.295
 5188POPC   C1B65383   7.104  44.508   6.265
 5188POPC   C2B65384   7.155  44.579   6.707
 5188POPC   C3B65385   6.866  44.644   7.035
 5188POPC   C4B65386   6.648  44.328   7.293
 5189POPC   NC365387  13.260  44.878   5.583
 5189POPC   PO465388  13.119   0.546   5.437
 5189POPC   GL165389  13.006   0.562   5.840
 5189POPC   GL265390  13.029   0.229   5.857
 5189POPC   C1A65391  12.914   0.640   6.268
 5189POPC   D2A65392  12.681   0.442   6.576
 5189POPC   C3A65393  12.698   0.662   6.907
 5189POPC   C4A65394  12.789   0.552   7.285
 5189POPC   C1B65395  12.846   0.131   6.203
 5189POPC   C2B65396  12.907  44.984   6.595
 5189POPC   C3B65397  12.958   0.195   6.969
 5189POPC   C4B65398  13.130  44.985   7.273
 5190POPC   NC365399  31.896   2.937   5.572
 5190POPC   PO465400  32.482   2.584   5.465
 5190POPC   GL165401  32.294   2.698   5.868
 5190POPC   GL265402  32.460   2.986   6.049
 5190POPC   C1A65403  32.183   2.641   6.317
 5190POPC   D2A65404  32.379   2.839   6.674
 5190POPC   C3A65405  32.240   2.712   7.079
 5190POPC   C4A65406  32.260   2.650   7.518
 5190POPC   C1B65407  32.005   3.089   6.204
 5190POPC   C2B65408  31.909   3.143   6.616
 5190POPC   C3B65409  32.081   3.213   6.995
 5190POPC   C4B65410  31.961   3.039   7.353
 5191POPC   NC365411   0.101  43.806   5.348
 5191POPC   PO465412   0.750  44.137   5.365
 5191POPC   GL165413   0.518  43.908   5.755
 5191POPC   GL265414   0.692  43.649   5.905
 5191POPC   C1A65415   0.256  43.801   6.150
 5191POPC   D2A65416   0.406  43.787   6.589
 5191POPC   C3A65417   0.272  43.612   6.982
 5191POPC   C4A65418   0.070  43.690   7.363
 5191POPC   C1B65419   0.711  44.004   6.227
 5191POPC   C2B65420   0.907  43.999   6.608
 5191POPC   C3B65421   0.773  43.755   6.936
 5191POPC   C4B65422   0.616  43.773   7.330
 5192POPC   NC365423  24.785  41.707   5.529
 5192POPC   PO465424  24.125  41.820   5.729
 5192POPC   GL165425  24.242  41.402   5.908
 5192POPC   GL265426  24.579  41.343   5.913
 5192POPC   C1A65427  24.304  41.438   6.337
 5192POPC   D2A65428  24.148  41.759   6.587
 5192POPC   C3A65429  24.261  41.498   6.901
 5192POPC   C4A65430  24.425  41.450   7.292
 5192POPC   C1B65431  24.752  41.707   6.168
 5192POPC   C2B65432  24.895  41.782   6.574
 5192POPC   C3B65433  24.860  41.475   6.868
 5192POPC   C4B65434  24.889  41.693   7.205
 5193POPC   NC365435  44.957  21.945   5.340
 5193POPC   PO465436  44.282  22.094   5.252
 5193POPC   GL165437  44.441  22.345   5.662
 5193POPC   GL265438  44.818  22.492   5.711
 5193POPC   C1A65439  44.563  22.227   6.125
 5193POPC   D2A65440  44.770  21.881   6.415
 5193POPC   C3A65441  44.783  21.910   6.878
 5193POPC   C4A65442  44.749  22.104   7.274
 5193POPC   C1B65443  44.885  22.616   6.183
 5193POPC   C2B65444  44.778  22.383   6.577
 5193POPC   C3B65445  44.674  22.505   6.993
 5193POPC   C4B65446  44.852  22.607   7.412
 5194POPC   NC365447  11.905   9.709   5.549
 5194POPC   PO465448  12.151  10.308   5.490
 5194POPC   GL165449  12.074  10.078   5.879
 5194POPC   GL265450  12.255   9.720   5.932
 5194POPC   C1A65451  11.941   9.924   6.292
 5194POPC   D2A65452  12.196   9.691   6.569
 5194POPC   C3A65453  12.258   9.841   6.990
 5194POPC   C4A65454  11.947   9.990   7.261
 5194POPC   C1B65455  11.949   9.418   6.170
 5194POPC   C2B65456  11.714   9.439   6.558
 5194POPC   C3B65457  11.863   9.554   6.945
 5194POPC   C4B65458  11.972   9.498   7.383
 5195POPC   NC365459  23.427  17.897   5.522
 5195POPC   PO465460  23.921  18.336   5.265
 5195POPC   GL165461  24.049  18.495   5.675
 5195POPC   GL265462  23.688  18.477   5.824
 5195POPC   C1A65463  24.097  18.416   6.135
 5195POPC   D2A65464  23.914  18.558   6.536
 5195POPC   C3A65465  23.950  18.313   6.948
 5195POPC   C4A65466  23.929  18.185   7.426
 5195POPC   C1B65467  23.604  18.276   6.252
 5195POPC   C2B65468  23.464  18.260   6.734
 5195POPC   C3B65469  23.474  18.154   7.206
 5195POPC   C4B65470  23.504  18.023   7.664
 5196POPC   NC365471  17.310  29.761   5.134
 5196POPC   PO465472  17.619  30.343   5.148
 5196POPC   GL165473  17.532  30.106   5.578
 5196POPC   GL265474  17.275  29.836   5.642
 5196POPC   C1A65475  17.609  29.992   6.064
 5196POPC   D2A65476  17.801  30.149   6.503
 5196POPC   C3A65477  17.697  30.019   6.944
 5196POPC   C4A65478  17.751  30.126   7.408
 5196POPC   C1B65479  17.096  30.057   6.013
 5196POPC   C2B65480  17.002  30.022   6.460
 5196POPC   C3B65481  17.184  30.126   6.874
 5196POPC   C4B65482  17.274  29.974   7.268
 5197POPC   NC365483   8.823  13.527   5.460
 5197POPC   PO465484   9.369  13.963   5.655
 5197POPC   GL165485   9.052  13.731   5.895
 5197POPC   GL265486   9.061  13.335   5.854
 5197POPC   C1A65487   8.801  13.790   6.289
 5197POPC   D2A65488   8.653  13.797   6.727
 5197POPC   C3A65489   8.934  13.939   7.018
 5197POPC   C4A65490   8.791  13.726   7.343
 5197POPC   C1B65491   9.180  13.354   6.271
 5197POPC   C2B65492   8.982  13.426   6.652
 5197POPC   C3B65493   9.161  13.482   7.027
 5197POPC   C4B65494   9.559  13.417   7.189
 5198POPC   NC365495  29.665  12.554   5.399
 5198POPC   PO465496  30.047  11.897   5.438
 5198POPC   GL165497  29.908  12.222   5.701
 5198POPC   GL265498  29.883  11.938   5.930
 5198POPC   C1A65499  29.881  12.393   6.136
 5198POPC   D2A65500  29.865  12.132   6.539
 5198POPC   C3A65501  29.896  12.383   6.905
 5198POPC   C4A65502  29.924  12.325   7.329
 5198POPC   C1B65503  29.683  11.613   6.154
 5198POPC   C2B65504  29.734  11.452   6.544
 5198POPC   C3B65505  29.771  11.669   6.930
 5198POPC   C4B65506  29.794  11.833   7.328
 5199POPC   NC365507  18.034  15.482   5.507
 5199POPC   PO465508  18.240  16.104   5.399
 5199POPC   GL165509  18.018  15.983   5.760
 5199POPC   GL265510  18.310  15.797   5.821
 5199POPC   C1A65511  17.945  15.918   6.211
 5199POPC   D2A65512  18.138  15.887   6.622
 5199POPC   C3A65513  18.045  15.948   7.059
 5199POPC   C4A65514  18.248  16.273   7.238
 5199POPC   C1B65515  18.518  15.956   6.180
 5199POPC   C2B65516  18.640  15.779   6.577
 5199POPC   C3B65517  18.560  15.955   6.987
 5199POPC   C4B65518  18.432  15.798   7.392
 5200POPC   NC365519  34.170  37.746   5.306
 5200POPC   PO465520  34.674  37.993   5.646
 5200POPC   GL165521  34.553  37.725   5.895
 5200POPC   GL265522  34.776  37.473   5.896
 5200POPC   C1A65523  34.587  37.785   6.325
 5200POPC   D2A65524  34.804  37.728   6.683
 5200POPC   C3A65525  34.604  37.684   7.070
 5200POPC   C4A65526  34.377  37.999   7.221
 5200POPC   C1B65527  34.508  37.288   6.166
 5200POPC   C2B65528  34.690  37.265   6.514
 5200POPC   C3B65529  34.625  37.192   6.929
 5200POPC   C4B65530  34.824  37.261   7.321
 5201POPC   NC365531  38.806  20.765   5.340
 5201POPC   PO465532  39.323  20.352   5.278
 5201POPC   GL165533  39.217  20.624   5.596
 5201POPC   GL265534  39.518  20.660   5.732
 5201POPC   C1A65535  39.058  20.556   6.004
 5201POPC   D2A65536  39.152  20.665   6.409
 5201POPC   C3A65537  39.100  20.384   6.770
 5201POPC   C4A65538  38.952  20.509   7.183
 5201POPC   C1B65539  39.612  20.632   6.178
 5201POPC   C2B65540  39.577  20.510   6.612
 5201POPC   C3B65541  39.467  20.640   7.013
 5201POPC   C4B65542  39.550  20.787   7.368
 5202POPC   NC365543  32.179   8.648   5.423
 5202POPC   PO465544  32.089   8.001   5.432
 5202POPC   GL165545  32.275   8.048   5.791
 5202POPC   GL265546  32.288   8.365   5.835
 5202POPC   C1A65547  32.125   7.960   6.177
 5202POPC   D2A65548  32.052   8.130   6.559
 5202POPC   C3A65549  32.151   7.841   6.881
 5202POPC   C4A65550  32.274   8.064   7.226
 5202POPC   C1B65551  32.399   8.535   6.248
 5202POPC   C2B65552  32.440   8.739   6.643
 5202POPC   C3B65553  32.222   8.528   6.962
 5202POPC   C4B65554  32.195   8.535   7.386
 5203POPC   NC365555  18.652   4.835   5.425
 5203POPC   PO465556  19.220   5.133   5.390
 5203POPC   GL165557  19.160   5.151   5.845
 5203POPC   GL265558  19.103   5.507   5.824
 5203POPC   C1A65559  19.304   5.022   6.285
 5203POPC   D2A65560  19.568   4.990   6.689
 5203POPC   C3A65561  19.431   5.240   7.061
 5203POPC   C4A65562  19.193   5.026   7.413
 5203POPC   C1B65563  18.869   5.404   6.215
 5203POPC   C2B65564  18.941   5.185   6.602
 5203POPC   C3B65565  18.929   5.235   7.016
 5203POPC   C4B65566  18.661   5.194   7.333
 5204POPC   NC365567  17.938   4.846   5.480
 5204POPC   PO465568  17.301   5.219   5.338
 5204POPC   GL165569  17.242   5.083   5.785
 5204POPC   GL265570  17.137   4.746   5.790
 5204POPC   C1A65571  17.281   5.264   6.225
 5204POPC   D2A65572  17.551   5.217   6.588
 5204POPC   C3A65573  17.319   5.207   6.995
 5204POPC   C4A65574  17.241   5.122   7.445
 5204POPC   C1B65575  17.545   4.805   6.065
 5204POPC   C2B65576  17.777   4.764   6.450
 5204POPC   C3B65577  17.583   4.776   6.839
 5204POPC   C4B65578  17.667   4.916   7.237
 5205POPC   NC365579  44.596  20.133   5.615
 5205POPC   PO465580  44.624  20.631   5.225
 5205POPC   GL165581  44.600  20.693   5.706
 5205POPC   GL265582  44.822  20.477   5.908
 5205POPC   C1A65583  44.659  20.895   6.153
 5205POPC   D2A65584  44.484  20.933   6.579
 5205POPC   C3A65585  44.673  20.767   6.959
 5205POPC   C4A65586  44.481  20.793   7.365
 5205POPC   C1B65587  44.495  20.408   6.202
 5205POPC   C2B65588  44.368  20.295   6.584
 5205POPC   C3B65589  44.237  20.489   6.939
 5205POPC   C4B65590  44.291  20.324   7.354
 5206POPC   NC365591  38.381  35.095   5.149
 5206POPC   PO465592  38.419  34.506   5.482
 5206POPC   GL165593  38.494  34.464   5.911
 5206POPC   GL265594  38.755  34.259   5.872
 5206POPC   C1A65595  38.655  34.612   6.338
 5206POPC   D2A65596  38.706  34.902   6.733
 5206POPC   C3A65597  38.326  35.027   6.974
 5206POPC   C4A65598  38.041  34.742   7.184
 5206POPC   C1B65599  38.629  34.072   6.261
 5206POPC   C2B65600  38.388  34.234   6.610
 5206POPC   C3B65601  38.328  34.287   7.028
 5206POPC   C4B65602  38.644  34.115   7.293
 5207POPC   NC365603  33.055  14.525   5.405
 5207POPC   PO465604  32.815  13.830   5.218
 5207POPC   GL165605  33.109  14.042   5.565
 5207POPC   GL265606  32.862  14.253   5.803
 5207POPC   C1A65607  33.304  14.086   6.015
 5207POPC   D2A65608  33.149  14.118   6.441
 5207POPC   C3A65609  33.291  14.211   6.863
 5207POPC   C4A65610  32.965  14.209   7.153
 5207POPC   C1B65611  33.002  14.533   6.169
 5207POPC   C2B65612  33.086  14.813   6.561
 5207POPC   C3B65613  33.087  14.721   6.993
 5207POPC   C4B65614  33.318  14.564   7.343
 5208POPC   NC365615  25.479  32.602   5.347
 5208POPC   PO465616  25.163  32.002   5.323
 5208POPC   GL165617  25.205  32.244   5.746
 5208POPC   GL265618  25.549  32.368   5.812
 5208POPC   C1A65619  25.191  32.436   6.195
 5208POPC   D2A65620  25.385  32.377   6.622
 5208POPC   C3A65621  25.243  32.166   7.018
 5208POPC   C4A65622  25.215  32.263   7.460
 5208POPC   C1B65623  25.603  32.138   6.212
 5208POPC   C2B65624  25.646  31.933   6.636
 5208POPC   C3B65625  25.600  31.779   7.062
 5208POPC   C4B65626  25.510  31.757   7.527
 5209POPC   NC365627  21.504  33.462   5.555
 5209POPC   PO465628  21.085  34.001   5.414
 5209POPC   GL165629  21.190  34.128   5.814
 5209POPC   GL265630  21.499  33.972   5.751
 5209POPC   C1A65631  21.225  33.939   6.237
 5209POPC   D2A65632  21.363  33.554   6.465
 5209POPC   C3A65633  21.391  33.562   6.909
 5209POPC   C4A65634  21.305  33.850   7.249
 5209POPC   C1B65635  21.716  34.069   6.110
 5209POPC   C2B65636  21.656  33.994   6.552
 5209POPC   C3B65637  21.591  34.159   6.954
 5209POPC   C4B65638  21.794  34.095   7.317
 5210POPC   NC365639  41.123  14.181   5.393
 5210POPC   PO465640  40.722  14.724   5.283
 5210POPC   GL165641  40.625  14.552   5.724
 5210POPC   GL265642  40.516  14.186   5.815
 5210POPC   C1A65643  40.813  14.486   6.147
 5210POPC   D2A65644  41.092  14.503   6.518
 5210POPC   C3A65645  40.875  14.636   6.890
 5210POPC   C4A65646  40.720  14.622   7.310
 5210POPC   C1B65647  40.463  14.095   6.275
 5210POPC   C2B65648  40.678  14.163   6.671
 5210POPC   C3B65649  40.928  14.053   7.025
 5210POPC   C4B65650  40.814  14.141   7.455
 5211POPC   NC365651  34.175   9.562   5.463
 5211POPC   PO465652  33.721  10.077   5.464
 5211POPC   GL165653  33.932   9.875   5.776
 5211POPC   GL265654  33.748   9.564   5.830
 5211POPC   C1A65655  34.023   9.872   6.189
 5211POPC   D2A65656  34.123   9.645   6.556
 5211POPC   C3A65657  33.939   9.697   6.953
 5211POPC   C4A65658  34.041   9.830   7.328
 5211POPC   C1B65659  33.825   9.373   6.235
 5211POPC   C2B65660  33.920   9.156   6.594
 5211POPC   C3B65661  33.746   9.233   6.960
 5211POPC   C4B65662  33.699   9.404   7.318
 5212POPC   NC365663  41.989  16.744   5.384
 5212POPC   PO465664  42.525  17.038   5.755
 5212POPC   GL165665  42.179  16.781   5.882
 5212POPC   GL265666  41.941  17.055   5.786
 5212POPC   C1A65667  42.176  16.542   6.294
 5212POPC   D2A65668  42.542  16.519   6.609
 5212POPC   C3A65669  42.479  16.501   7.076
 5212POPC   C4A65670  42.350  16.900   7.244
 5212POPC   C1B65671  41.843  17.036   6.222
 5212POPC   C2B65672  42.088  16.952   6.598
 5212POPC   C3B65673  42.068  16.570   6.819
 5212POPC   C4B65674  41.957  16.582   7.233
 5213POPC   NC365675  30.057  19.324   5.520
 5213POPC   PO465676  29.685  18.795   5.382
 5213POPC   GL165677  29.776  18.955   5.793
 5213POPC   GL265678  30.136  18.953   5.877
 5213POPC   C1A65679  29.768  19.066   6.234
 5213POPC   D2A65680  29.711  19.260   6.639
 5213POPC   C3A65681  29.678  19.028   7.000
 5213POPC   C4A65682  29.450  18.925   7.374
 5213POPC   C1B65683  30.269  19.131   6.293
 5213POPC   C2B65684  30.175  19.091   6.734
 5213POPC   C3B65685  30.337  19.156   7.124
 5213POPC   C4B65686  30.229  19.402   7.494
 5214POPC   NC365687  20.516  30.024   5.398
 5214POPC   PO465688  20.098  30.511   5.597
 5214POPC   GL165689  20.330  30.217   5.877
 5214POPC   GL265690  20.505  29.869   5.883
 5214POPC   C1A65691  20.472  30.157   6.306
 5214POPC   D2A65692  20.319  29.922   6.600
 5214POPC   C3A65693  20.444  30.055   6.964
 5214POPC   C4A65694  20.636  29.879   7.273
 5214POPC   C1B65695  20.698  29.694   6.264
 5214POPC   C2B65696  20.784  29.722   6.733
 5214POPC   C3B65697  20.886  29.480   7.121
 5214POPC   C4B65698  20.938  29.591   7.587
 5215POPC   NC365699  11.705  26.079   5.378
 5215POPC   PO465700  11.124  26.120   5.328
 5215POPC   GL165701  11.316  25.961   5.715
 5215POPC   GL265702  11.686  25.913   5.848
 5215POPC   C1A65703  11.293  26.238   6.055
 5215POPC   D2A65704  11.384  26.246   6.507
 5215POPC   C3A65705  11.200  26.208   6.925
 5215POPC   C4A65706  11.262  25.856   7.191
 5215POPC   C1B65707  11.498  25.812   6.238
 5215POPC   C2B65708  11.312  25.753   6.639
 5215POPC   C3B65709  11.633  25.643   6.922
 5215POPC   C4B65710  11.768  25.908   7.235
 5216POPC   NC365711   2.270  16.850   5.399
 5216POPC   PO465712   1.822  16.359   5.524
 5216POPC   GL165713   1.962  16.625   5.890
 5216POPC   GL265714   1.917  16.990   5.829
 5216POPC   C1A65715   2.033  16.567   6.361
 5216POPC   D2A65716   1.805  16.393   6.715
 5216POPC   C3A65717   1.954  16.543   7.088
 5216POPC   C4A65718   1.919  16.654   7.485
 5216POPC   C1B65719   1.997  17.059   6.281
 5216POPC   C2B65720   1.855  16.918   6.732
 5216POPC   C3B65721   1.777  17.100   7.159
 5216POPC   C4B65722   2.094  17.286   7.435
 5217POPC   NC365723  41.894  43.331   5.492
 5217POPC   PO465724  41.216  43.091   5.380
 5217POPC   GL165725  41.335  43.066   5.814
 5217POPC   GL265726  41.637  43.232   5.905
 5217POPC   C1A65727  41.468  42.878   6.221
 5217POPC   D2A65728  41.672  43.054   6.604
 5217POPC   C3A65729  41.418  42.874   6.945
 5217POPC   C4A65730  41.083  42.828   7.257
 5217POPC   C1B65731  41.358  43.374   6.243
 5217POPC   C2B65732  41.465  43.559   6.633
 5217POPC   C3B65733  41.522  43.434   7.036
 5217POPC   C4B65734  41.937  43.285   7.111
 5218POPC   NC365735  12.987  22.494   5.124
 5218POPC   PO465736  12.477  22.206   5.522
 5218POPC   GL165737  12.862  22.198   5.758
 5218POPC   GL265738  13.110  21.907   5.802
 5218POPC   C1A65739  12.771  22.321   6.156
 5218POPC   D2A65740  12.596  22.405   6.513
 5218POPC   C3A65741  12.882  22.297   6.850
 5218POPC   C4A65742  13.070  22.468   7.232
 5218POPC   C1B65743  12.968  21.831   6.251
 5218POPC   C2B65744  12.863  21.778   6.720
 5218POPC   C3B65745  12.901  21.904   7.194
 5218POPC   C4B65746  12.770  21.830   7.640
 5219POPC   NC365747   8.533  42.648   5.494
 5219POPC   PO465748   7.992  43.150   5.347
 5219POPC   GL165749   8.037  43.114   5.763
 5219POPC   GL265750   7.693  43.153   5.907
 5219POPC   C1A65751   8.119  43.283   6.180
 5219POPC   D2A65752   8.134  43.090   6.576
 5219POPC   C3A65753   8.055  43.298   6.969
 5219POPC   C4A65754   8.039  43.094   7.397
 5219POPC   C1B65755   7.919  42.809   6.157
 5219POPC   C2B65756   7.955  42.617   6.554
 5219POPC   C3B65757   7.952  42.787   6.961
 5219POPC   C4B65758   7.910  42.612   7.371
 5220POPC   NC365759  18.175  13.959   5.191
 5220POPC   PO465760  18.508  13.530   5.636
 5220POPC   GL165761  18.323  13.653   6.018
 5220POPC   GL265762  18.004  13.553   5.915
 5220POPC   C1A65763  18.044  13.863   6.346
 5220POPC   D2A65764  17.984  13.929   6.792
 5220POPC   C3A65765  18.325  13.744   7.076
 5220POPC   C4A65766  18.286  13.772   7.513
 5220POPC   C1B65767  18.031  13.335   6.311
 5220POPC   C2B65768  18.024  13.428   6.721
 5220POPC   C3B65769  18.193  13.271   7.065
 5220POPC   C4B65770  18.096  13.305   7.440
 5221POPC   NC365771  25.116  17.984   5.141
 5221POPC   PO465772  25.417  17.385   5.306
 5221POPC   GL165773  25.343  17.421   5.739
 5221POPC   GL265774  24.989  17.352   5.671
 5221POPC   C1A65775  25.428  17.544   6.196
 5221POPC   D2A65776  25.674  17.765   6.549
 5221POPC   C3A65777  25.540  17.819   7.007
 5221POPC   C4A65778  25.220  17.743   7.345
 5221POPC   C1B65779  24.982  17.269   6.118
 5221POPC   C2B65780  25.021  17.458   6.542
 5221POPC   C3B65781  24.977  17.463   6.996
 5221POPC   C4B65782  24.802  17.305   7.391
 5222POPC   NC365783  22.391  34.045   5.321
 5222POPC   PO465784  21.864  33.621   5.327
 5222POPC   GL165785  21.936  33.710   5.761
 5222POPC   GL265786  22.293  33.769   5.729
 5222POPC   C1A65787  21.825  33.583   6.216
 5222POPC   D2A65788  22.071  33.702   6.599
 5222POPC   C3A65789  21.882  33.690   6.999
 5222POPC   C4A65790  22.032  33.380   7.267
 5222POPC   C1B65791  22.206  33.903   6.149
 5222POPC   C2B65792  22.114  34.222   6.425
 5222POPC   C3B65793  22.105  34.156   6.836
 5222POPC   C4B65794  22.386  33.827   7.036
 5223POPC   NC365795  10.870  15.398   5.280
 5223POPC   PO465796  10.367  15.025   5.222
 5223POPC   GL165797  10.470  15.241   5.633
 5223POPC   GL265798  10.340  14.983   5.830
 5223POPC   C1A65799  10.559  15.413   6.071
 5223POPC   D2A65800  10.307  15.397   6.487
 5223POPC   C3A65801  10.520  15.460   6.867
 5223POPC   C4A65802  10.657  15.324   7.277
 5223POPC   C1B65803  10.574  14.936   6.227
 5223POPC   C2B65804  10.458  14.939   6.665
 5223POPC   C3B65805  10.626  14.839   7.061
 5223POPC   C4B65806  10.715  14.522   7.352
 5224POPC   NC365807  31.129   2.213   5.500
 5224POPC   PO465808  30.727   1.704   5.299
 5224POPC   GL165809  30.683   2.034   5.664
 5224POPC   GL265810  30.436   2.267   5.561
 5224POPC   C1A65811  30.839   2.029   6.151
 5224POPC   D2A65812  30.757   1.848   6.590
 5224POPC   C3A65813  31.050   1.738   6.925
 5224POPC   C4A65814  31.092   2.090   7.185
 5224POPC   C1B65815  30.398   2.261   6.049
 5224POPC   C2B65816  30.368   2.175   6.531
 5224POPC   C3B65817  30.470   2.036   6.993
 5224POPC   C4B65818  30.464   2.213   7.420
 5225POPC   NC365819  20.110  24.632   5.282
 5225POPC   PO465820  19.614  24.156   5.321
 5225POPC   GL165821  19.674  24.513   5.658
 5225POPC   GL265822  20.022  24.592   5.785
 5225POPC   C1A65823  19.698  24.536   6.154
 5225POPC   D2A65824  19.937  24.619   6.509
 5225POPC   C3A65825  19.802  24.517   6.869
 5225POPC   C4A65826  19.756  24.440   7.259
 5225POPC   C1B65827  20.116  24.269   6.137
 5225POPC   C2B65828  20.095  24.151   6.587
 5225POPC   C3B65829  20.031  24.066   7.024
 5225POPC   C4B65830  20.184  24.138   7.448
 5226POPC   NC365831  44.887  39.550   5.550
 5226POPC   PO465832  44.370  40.000   5.573
 5226POPC   GL165833  44.672  39.968   5.898
 5226POPC   GL265834  44.802  40.321   5.912
 5226POPC   C1A65835  44.668  39.884   6.342
 5226POPC   D2A65836  44.849  40.031   6.740
 5226POPC   C3A65837  44.735  39.978   7.177
 5226POPC   C4A65838  44.986  39.829   7.515
 5226POPC   C1B65839  44.410  40.337   6.178
 5226POPC   C2B65840  44.385  40.217   6.612
 5226POPC   C3B65841  44.328  40.281   7.037
 5226POPC   C4B65842  44.348  40.168   7.462
 5227POPC   NC365843  35.410  19.624   5.455
 5227POPC   PO465844  35.704  20.159   5.746
 5227POPC   GL165845  35.408  19.830   5.941
 5227POPC   GL265846  35.297  19.416   5.888
 5227POPC   C1A65847  35.472  19.921   6.379
 5227POPC   D2A65848  35.587  19.651   6.691
 5227POPC   C3A65849  35.623  19.835   7.099
 5227POPC   C4A65850  35.386  20.152   7.305
 5227POPC   C1B65851  35.242  19.455   6.302
 5227POPC   C2B65852  35.065  19.688   6.593
 5227POPC   C3B65853  35.111  19.905   6.940
 5227POPC   C4B65854  35.176  19.677   7.291
 5228POPC   NC365855  36.444  17.450   5.387
 5228POPC   PO465856  35.828  17.265   5.572
 5228POPC   GL165857  36.192  17.355   5.836
 5228POPC   GL265858  36.312  17.707   5.822
 5228POPC   C1A65859  36.370  17.319   6.254
 5228POPC   D2A65860  36.208  17.158   6.645
 5228POPC   C3A65861  36.278  17.343   7.038
 5228POPC   C4A65862  36.072  17.317   7.456
 5228POPC   C1B65863  36.093  17.749   6.232
 5228POPC   C2B65864  36.155  17.709   6.681
 5228POPC   C3B65865  35.942  17.725   7.092
 5228POPC   C4B65866  35.872  17.765   7.570
 5229POPC   NC365867  16.115   1.061   5.435
 5229POPC   PO465868  15.894   1.698   5.394
 5229POPC   GL165869  16.059   1.431   5.778
 5229POPC   GL265870  15.753   1.241   5.860
 5229POPC   C1A65871  16.081   1.305   6.232
 5229POPC   D2A65872  15.735   1.301   6.559
 5229POPC   C3A65873  15.905   1.248   6.961
 5229POPC   C4A65874  16.269   1.463   7.198
 5229POPC   C1B65875  15.720   0.921   6.208
 5229POPC   C2B65876  15.920   0.788   6.611
 5229POPC   C3B65877  15.772   0.759   7.053
 5229POPC   C4B65878  15.847   1.009   7.447
 5230POPC   NC365879  27.156  29.769   5.633
 5230POPC   PO465880  27.670  29.901   5.227
 5230POPC   GL165881  27.656  29.835   5.730
 5230POPC   GL265882  27.397  29.948   6.024
 5230POPC   C1A65883  27.876  29.831   6.136
 5230POPC   D2A65884  27.817  29.775   6.590
 5230POPC   C3A65885  27.651  30.096   6.831
 5230POPC   C4A65886  27.614  30.239   7.192
 5230POPC   C1B65887  27.120  29.797   6.345
 5230POPC   C2B65888  27.277  29.772   6.778
 5230POPC   C3B65889  27.361  29.793   7.241
 5230POPC   C4B65890  27.165  29.820   7.726
 5231POPC   NC365891   9.290   8.309   5.576
 5231POPC   PO465892   8.643   8.451   5.284
 5231POPC   GL165893   8.753   8.252   5.675
 5231POPC   GL265894   8.721   7.892   5.717
 5231POPC   C1A65895   8.898   8.283   6.103
 5231POPC   D2A65896   8.774   8.226   6.521
 5231POPC   C3A65897   8.910   8.501   6.850
 5231POPC   C4A65898   8.785   8.352   7.239
 5231POPC   C1B65899   8.788   7.800   6.183
 5231POPC   C2B65900   8.990   7.741   6.593
 5231POPC   C3B65901   8.977   7.916   7.011
 5231POPC   C4B65902   9.208   7.814   7.399
 5232POPC   NC365903  43.191  28.830   5.102
 5232POPC   PO465904  42.827  29.243   5.514
 5232POPC   GL165905  43.124  29.081   5.809
 5232POPC   GL265906  42.821  28.947   5.992
 5232POPC   C1A65907  43.244  29.048   6.248
 5232POPC   D2A65908  43.196  29.396   6.538
 5232POPC   C3A65909  43.341  29.260   6.929
 5232POPC   C4A65910  43.383  28.847   6.995
 5232POPC   C1B65911  42.667  28.938   6.410
 5232POPC   C2B65912  42.926  29.003   6.760
 5232POPC   C3B65913  42.857  29.217   7.152
 5232POPC   C4B65914  42.638  29.096   7.540
 5233POPC   NC365915  35.989   5.681   5.033
 5233POPC   PO465916  35.651   5.962   5.536
 5233POPC   GL165917  36.037   5.948   5.776
 5233POPC   GL265918  36.081   5.609   5.885
 5233POPC   C1A65919  36.236   6.092   6.170
 5233POPC   D2A65920  36.082   6.069   6.588
 5233POPC   C3A65921  36.271   6.046   6.998
 5233POPC   C4A65922  36.044   6.115   7.399
 5233POPC   C1B65923  36.182   5.595   6.329
 5233POPC   C2B65924  36.101   5.584   6.772
 5233POPC   C3B65925  36.202   5.567   7.212
 5233POPC   C4B65926  36.051   5.667   7.621
 5234POPC   NC365927  32.550  11.913   5.530
 5234POPC   PO465928  33.211  12.047   5.426
 5234POPC   GL165929  33.132  12.221   5.824
 5234POPC   GL265930  32.771  12.260   5.835
 5234POPC   C1A65931  33.153  12.158   6.262
 5234POPC   D2A65932  33.224  11.976   6.694
 5234POPC   C3A65933  33.297  12.244   7.088
 5234POPC   C4A65934  32.972  12.228   7.505
 5234POPC   C1B65935  32.669  12.017   6.199
 5234POPC   C2B65936  32.777  12.196   6.601
 5234POPC   C3B65937  32.812  12.249   7.011
 5234POPC   C4B65938  32.539  12.036   7.273
 5235POPC   NC365939   1.776   5.460   5.477
 5235POPC   PO465940   1.960   4.803   5.575
 5235POPC   GL165941   2.086   5.158   5.784
 5235POPC   GL265942   1.812   5.262   5.938
 5235POPC   C1A65943   2.274   5.427   6.100
 5235POPC   D2A65944   2.340   5.354   6.542
 5235POPC   C3A65945   2.150   5.303   6.895
 5235POPC   C4A65946   1.994   5.433   7.226
 5235POPC   C1B65947   1.910   5.111   6.318
 5235POPC   C2B65948   2.080   4.871   6.624
 5235POPC   C3B65949   2.203   4.812   7.014
 5235POPC   C4B65950   1.977   4.915   7.399
 5236POPC   NC365951  33.300  36.692   5.696
 5236POPC   PO465952  32.998  37.223   5.370
 5236POPC   GL165953  32.864  37.011   5.769
 5236POPC   GL265954  32.771  36.671   5.692
 5236POPC   C1A65955  32.918  37.065   6.241
 5236POPC   D2A65956  32.861  37.283   6.648
 5236POPC   C3A65957  32.943  36.985   6.982
 5236POPC   C4A65958  32.800  36.906   7.393
 5236POPC   C1B65959  32.720  36.570   6.153
 5236POPC   C2B65960  32.688  36.684   6.611
 5236POPC   C3B65961  32.747  36.510   7.070
 5236POPC   C4B65962  32.667  36.464   7.565
 5237POPC   NC365963  42.321   1.429   5.462
 5237POPC   PO465964  42.306   2.010   5.183
 5237POPC   GL165965  42.357   1.934   5.648
 5237POPC   GL265966  42.673   1.765   5.755
 5237POPC   C1A65967  42.399   2.055   6.095
 5237POPC   D2A65968  42.460   2.240   6.510
 5237POPC   C3A65969  42.158   2.107   6.787
 5237POPC   C4A65970  42.114   1.945   7.194
 5237POPC   C1B65971  42.469   1.539   6.108
 5237POPC   C2B65972  42.325   1.682   6.505
 5237POPC   C3B65973  42.493   1.731   6.908
 5237POPC   C4B65974  42.490   1.632   7.340
 5238POPC   NC365975  38.157  44.884   5.652
 5238POPC   PO465976  38.780  44.744   5.423
 5238POPC   GL165977  38.589  44.589   5.802
 5238POPC   GL265978  38.298  44.334   5.800
 5238POPC   C1A65979  38.521  44.654   6.237
 5238POPC   D2A65980  38.474  44.404   6.613
 5238POPC   C3A65981  38.701  44.551   7.000
 5238POPC   C4A65982  38.878  44.695   7.418
 5238POPC   C1B65983  38.007  44.459   6.152
 5238POPC   C2B65984  37.948  44.683   6.549
 5238POPC   C3B65985  38.184  44.697   6.945
 5238POPC   C4B65986  38.376  44.753   7.353
 5239POPC   NC365987   9.522  10.776   5.558
 5239POPC   PO465988   9.783  10.142   5.479
 5239POPC   GL165989   9.639  10.355   5.839
 5239POPC   GL265990   9.343  10.225   6.001
 5239POPC   C1A65991   9.824  10.397   6.246
 5239POPC   D2A65992   9.759  10.398   6.689
 5239POPC   C3A65993   9.958  10.692   6.984
 5239POPC   C4A65994   9.933  10.497   7.356
 5239POPC   C1B65995   9.334  10.622   6.250
 5239POPC   C2B65996   9.357  10.780   6.679
 5239POPC   C3B65997   9.454  10.560   7.076
 5239POPC   C4B65998   9.543  10.123   7.099
 5240POPC   NC365999  13.461  24.073   5.469
 5240POPC   PO466000  13.580  23.353   5.372
 5240POPC   GL166001  13.746  23.660   5.679
 5240POPC   GL266002  13.425  23.689   5.814
 5240POPC   C1A66003  13.835  23.813   6.139
 5240POPC   D2A66004  13.957  23.643   6.566
 5240POPC   C3A66005  13.736  23.559   6.987
 5240POPC   C4A66006  13.747  23.538   7.461
 5240POPC   C1B66007  13.348  23.966   6.152
 5240POPC   C2B66008  13.459  23.832   6.569
 5240POPC   C3B66009  13.363  23.943   6.984
 5240POPC   C4B66010  13.105  24.136   7.304
 5241POPC   NC366011  29.456  30.842   5.405
 5241POPC   PO466012  28.896  30.504   5.211
 5241POPC   GL166013  29.095  30.419   5.640
 5241POPC   GL266014  29.459  30.475   5.755
 5241POPC   C1A66015  28.974  30.503   6.091
 5241POPC   D2A66016  28.726  30.722   6.428
 5241POPC   C3A66017  28.884  30.724   6.857
 5241POPC   C4A66018  28.920  30.470   7.203
 5241POPC   C1B66019  29.401  30.807   6.067
 5241POPC   C2B66020  29.255  30.736   6.469
 5241POPC   C3B66021  29.386  30.521   6.818
 5241POPC   C4B66022  29.388  30.786   7.157
 5242POPC   NC366023   3.966   9.315   5.043
 5242POPC   PO466024   4.364   8.866   5.347
 5242POPC   GL166025   4.275   8.908   5.754
 5242POPC   GL266026   3.967   8.747   5.738
 5242POPC   C1A66027   4.434   9.009   6.180
 5242POPC   D2A66028   4.590   8.976   6.600
 5242POPC   C3A66029   4.331   9.054   6.955
 5242POPC   C4A66030   4.552   9.243   7.248
 5242POPC   C1B66031   3.916   8.913   6.160
 5242POPC   C2B66032   3.900   9.044   6.596
 5242POPC   C3B66033   3.890   8.798   6.972
 5242POPC   C4B66034   3.987   8.915   7.381
 5243POPC   NC366035   4.744  38.295   5.373
 5243POPC   PO466036   5.416  38.197   5.361
 5243POPC   GL166037   5.091  38.287   5.748
 5243POPC   GL266038   4.753  38.453   5.901
 5243POPC   C1A66039   5.171  38.343   6.203
 5243POPC   D2A66040   5.129  38.637   6.539
 5243POPC   C3A66041   5.186  38.525   6.960
 5243POPC   C4A66042   5.011  38.736   7.288
 5243POPC   C1B66043   4.716  38.161   6.313
 5243POPC   C2B66044   4.905  38.172   6.703
 5243POPC   C3B66045   4.818  38.096   7.117
 5243POPC   C4B66046   5.055  38.233   7.395
 5244POPC   NC366047   0.149   5.481   5.050
 5244POPC   PO466048  44.707   5.126   5.462
 5244POPC   GL166049  44.629   5.036   5.868
 5244POPC   GL266050  44.925   5.200   5.934
 5244POPC   C1A66051  44.455   5.268   6.227
 5244POPC   D2A66052  44.180   5.336   6.586
 5244POPC   C3A66053  44.392   5.219   6.951
 5244POPC   C4A66054  44.513   5.231   7.353
 5244POPC   C1B66055  44.977   5.249   6.340
 5244POPC   C2B66056  44.808   5.075   6.676
 5244POPC   C3B66057  44.872   4.958   7.087
 5244POPC   C4B66058   0.064   5.148   7.433
 5245POPC   NC366059  34.856  26.075   5.370
 5245POPC   PO466060  35.412  26.324   5.399
 5245POPC   GL166061  35.450  25.955   5.700
 5245POPC   GL266062  35.100  25.840   5.789
 5245POPC   C1A66063  35.589  25.882   6.146
 5245POPC   D2A66064  35.677  26.120   6.532
 5245POPC   C3A66065  35.411  26.172   6.888
 5245POPC   C4A66066  35.530  26.061   7.290
 5245POPC   C1B66067  35.127  25.650   6.206
 5245POPC   C2B66068  35.309  25.722   6.624
 5245POPC   C3B66069  35.181  25.736   7.082
 5245POPC   C4B66070  35.206  25.783   7.560
 5246POPC   NC366071  34.877  13.240   5.435
 5246POPC   PO466072  34.360  13.795   5.400
 5246POPC   GL166073  34.548  13.801   5.799
 5246POPC   GL266074  34.903  13.708   5.752
 5246POPC   C1A66075  34.624  13.739   6.205
 5246POPC   D2A66076  34.563  13.986   6.503
 5246POPC   C3A66077  34.527  13.854   6.861
 5246POPC   C4A66078  34.589  13.800   7.238
 5246POPC   C1B66079  35.073  13.528   6.153
 5246POPC   C2B66080  35.011  13.709   6.561
 5246POPC   C3B66081  34.999  13.660   6.984
 5246POPC   C4B66082  34.849  13.363   7.322
 5247POPC   NC366083  14.570  43.545   5.062
 5247POPC   PO466084  14.251  44.094   5.316
 5247POPC   GL166085  14.242  43.990   5.721
 5247POPC   GL266086  14.535  43.826   5.714
 5247POPC   C1A66087  14.144  44.195   6.111
 5247POPC   D2A66088  14.247  44.195   6.569
 5247POPC   C3A66089  14.049  43.847   6.799
 5247POPC   C4A66090  14.079  43.718   7.217
 5247POPC   C1B66091  14.616  43.947   6.124
 5247POPC   C2B66092  14.704  43.959   6.557
 5247POPC   C3B66093  14.538  43.875   6.947
 5247POPC   C4B66094  14.804  43.646   7.168
 5248POPC   NC366095  35.022  33.310   5.405
 5248POPC   PO466096  35.350  32.748   5.467
 5248POPC   GL166097  35.365  32.838   5.888
 5248POPC   GL266098  35.227  33.146   5.839
 5248POPC   C1A66099  35.396  33.050   6.307
 5248POPC   D2A66100  35.555  33.333   6.629
 5248POPC   C3A66101  35.486  33.065   6.976
 5248POPC   C4A66102  35.317  33.086   7.396
 5248POPC   C1B66103  34.974  33.300   6.140
 5248POPC   C2B66104  35.059  33.413   6.545
 5248POPC   C3B66105  35.021  33.273   6.955
 5248POPC   C4B66106  34.803  33.211   7.327
 5249POPC   NC366107   4.157  25.583   5.384
 5249POPC   PO466108   4.542  26.108   5.204
 5249POPC   GL166109   4.529  26.158   5.680
 5249POPC   GL266110   4.471  25.817   5.751
 5249POPC   C1A66111   4.698  26.112   6.124
 5249POPC   D2A66112   4.634  25.977   6.566
 5249POPC   C3A66113   4.316  26.186   6.837
 5249POPC   C4A66114   4.338  26.483   7.189
 5249POPC   C1B66115   4.180  25.815   6.089
 5249POPC   C2B66116   4.171  25.732   6.515
 5249POPC   C3B66117   4.083  25.702   6.914
 5249POPC   C4B66118   4.139  25.938   7.270
 5250POPC   NC366119  21.471  11.147   5.276
 5250POPC   PO466120  21.102  11.649   5.442
 5250POPC   GL166121  21.162  11.225   5.713
 5250POPC   GL266122  21.500  11.066   5.806
 5250POPC   C1A66123  21.199  11.163   6.197
 5250POPC   D2A66124  21.373  11.102   6.625
 5250POPC   C3A66125  21.192  11.224   7.020
 5250POPC   C4A66126  20.883  11.489   7.222
 5250POPC   C1B66127  21.732  11.143   6.225
 5250POPC   C2B66128  21.857  10.978   6.656
 5250POPC   C3B66129  21.762  11.185   7.078
 5250POPC   C4B66130  21.769  11.202   7.559
 5251POPC   NC366131  32.933  36.802   5.175
 5251POPC   PO466132  32.247  36.862   5.305
 5251POPC   GL166133  32.334  36.949   5.730
 5251POPC   GL266134  32.028  36.918   5.865
 5251POPC   C1A66135  32.397  36.960   6.199
 5251POPC   D2A66136  32.161  36.810   6.564
 5251POPC   C3A66137  32.379  36.877   6.956
 5251POPC   C4A66138  32.323  37.073   7.310
 5251POPC   C1B66139  31.931  37.188   6.207
 5251POPC   C2B66140  31.746  37.127   6.580
 5251POPC   C3B66141  31.944  37.138   6.948
 5251POPC   C4B66142  31.836  37.298   7.300
 5252POPC   NC366143  19.207   4.075   5.331
 5252POPC   PO466144  18.601   4.365   5.242
 5252POPC   GL166145  18.751   4.380   5.725
 5252POPC   GL266146  19.034   4.169   5.882
 5252POPC   C1A66147  18.688   4.336   6.199
 5252POPC   D2A66148  19.005   4.153   6.488
 5252POPC   C3A66149  18.949   4.170   6.928
 5252POPC   C4A66150  18.925   4.071   7.367
 5252POPC   C1B66151  19.140   4.543   6.140
 5252POPC   C2B66152  18.966   4.676   6.540
 5252POPC   C3B66153  19.122   4.779   6.936
 5252POPC   C4B66154  19.178   4.520   7.290
 5253POPC   NC366155  44.389  19.443   5.438
 5253POPC   PO466156  44.774  18.874   5.385
 5253POPC   GL166157  44.682  19.009   5.792
 5253POPC   GL266158  44.342  19.124   5.828
 5253POPC   C1A66159  44.594  18.948   6.238
 5253POPC   D2A66160  44.591  18.722   6.636
 5253POPC   C3A66161  44.887  18.781   6.955
 5253POPC   C4A66162  44.585  18.678   7.249
 5253POPC   C1B66163  44.244  19.350   6.228
 5253POPC   C2B66164  44.267  19.134   6.612
 5253POPC   C3B66165  44.581  19.181   6.917
 5253POPC   C4B66166  44.484  19.440   7.247
 5254POPC   NC366167  16.475  14.127   5.332
 5254POPC   PO466168  16.918  14.621   5.343
 5254POPC   GL166169  16.965  14.429   5.778
 5254POPC   GL266170  16.723  14.175   5.783
 5254POPC   C1A66171  16.800  14.388   6.240
 5254POPC   D2A66172  16.498  14.501   6.597
 5254POPC   C3A66173  16.688  14.514   7.006
 5254POPC   C4A66174  17.068  14.346   7.242
 5254POPC   C1B66175  16.625  13.911   6.118
 5254POPC   C2B66176  16.574  13.961   6.544
 5254POPC   C3B66177  16.778  14.019   6.918
 5254POPC   C4B66178  16.614  13.987   7.316
 5255POPC   NC366179  32.000   5.222   5.311
 5255POPC   PO466180  31.373   5.019   5.120
 5255POPC   GL166181  31.344   5.132   5.651
 5255POPC   GL266182  31.487   4.868   5.916
 5255POPC   C1A66183  31.140   5.223   6.071
 5255POPC   D2A66184  31.121   5.273   6.540
 5255POPC   C3A66185  31.237   4.950   6.868
 5255POPC   C4A66186  31.399   5.172   7.221
 5255POPC   C1B66187  31.421   4.898   6.359
 5255POPC   C2B66188  31.631   5.180   6.659
 5255POPC   C3B66189  31.835   5.023   7.015
 5255POPC   C4B66190  31.751   4.862   7.439
 5256POPC   NC366191  19.162  27.725   5.338
 5256POPC   PO466192  18.668  27.705   5.718
 5256POPC   GL166193  19.072  27.646   5.854
 5256POPC   GL266194  19.158  27.959   5.874
 5256POPC   C1A66195  19.086  27.605   6.292
 5256POPC   D2A66196  18.713  27.448   6.526
 5256POPC   C3A66197  18.714  27.526   6.957
 5256POPC   C4A66198  19.018  27.426   7.273
 5256POPC   C1B66199  19.349  28.066   6.285
 5256POPC   C2B66200  19.420  27.814   6.650
 5256POPC   C3B66201  19.324  27.814   7.117
 5256POPC   C4B66202  19.367  27.647   7.577
 5257POPC   NC366203   4.707  11.861   5.466
 5257POPC   PO466204   4.127  12.176   5.426
 5257POPC   GL166205   4.241  12.048   5.869
 5257POPC   GL266206   4.452  11.742   5.893
 5257POPC   C1A66207   4.417  12.206   6.280
 5257POPC   D2A66208   4.342  12.248   6.731
 5257POPC   C3A66209   4.648  12.155   7.074
 5257POPC   C4A66210   4.333  12.339   7.291
 5257POPC   C1B66211   4.312  11.707   6.322
 5257POPC   C2B66212   4.328  11.734   6.754
 5257POPC   C3B66213   4.223  11.872   7.149
 5257POPC   C4B66214   4.469  11.860   7.530
 5258POPC   NC366215  12.672  15.624   5.212
 5258POPC   PO466216  12.825  14.989   5.519
 5258POPC   GL166217  12.823  15.308   5.835
 5258POPC   GL266218  13.153  15.370   6.000
 5258POPC   C1A66219  12.724  15.196   6.257
 5258POPC   D2A66220  12.868  15.160   6.673
 5258POPC   C3A66221  12.536  15.106   6.963
 5258POPC   C4A66222  12.706  15.484   7.137
 5258POPC   C1B66223  13.163  14.945   6.239
 5258POPC   C2B66224  13.240  14.787   6.646
 5258POPC   C3B66225  13.218  15.018   7.014
 5258POPC   C4B66226  12.900  15.009   7.294
 5259POPC   NC366227   0.294  32.025   5.486
 5259POPC   PO466228   0.876  32.377   5.483
 5259POPC   GL166229   0.685  32.148   5.828
 5259POPC   GL266230   0.328  32.312   5.906
 5259POPC   C1A66231   0.702  32.241   6.287
 5259POPC   D2A66232   0.302  32.398   6.457
 5259POPC   C3A66233   0.194  32.418   6.896
 5259POPC   C4A66234   0.417  32.404   7.293
 5259POPC   C1B66235   0.340  31.920   6.140
 5259POPC   C2B66236   0.466  31.840   6.538
 5259POPC   C3B66237   0.528  32.023   6.921
 5259POPC   C4B66238   0.218  31.945   7.230
 5260POPC   NC366239  23.131  30.096   5.040
 5260POPC   PO466240  22.850  29.695   5.455
 5260POPC   GL166241  23.028  29.896   5.801
 5260POPC   GL266242  23.295  29.691   5.823
 5260POPC   C1A66243  23.102  30.111   6.191
 5260POPC   D2A66244  22.939  29.944   6.602
 5260POPC   C3A66245  23.154  30.068   6.976
 5260POPC   C4A66246  22.944  29.873   7.310
 5260POPC   C1B66247  23.180  29.626   6.265
 5260POPC   C2B66248  23.412  29.783   6.653
 5260POPC   C3B66249  23.297  29.546   7.041
 5260POPC   C4B66250  22.879  29.376   7.219
 5261POPC   NC366251   5.827   1.189   5.409
 5261POPC   PO466252   6.279   0.794   5.630
 5261POPC   GL166253   5.947   1.054   5.890
 5261POPC   GL266254   5.723   1.391   5.859
 5261POPC   C1A66255   5.950   1.277   6.285
 5261POPC   D2A66256   6.144   1.194   6.660
 5261POPC   C3A66257   5.873   1.172   6.975
 5261POPC   C4A66258   5.914   1.147   7.387
 5261POPC   C1B66259   5.546   1.597   6.188
 5261POPC   C2B66260   5.588   1.465   6.611
 5261POPC   C3B66261   5.792   1.661   6.911
 5261POPC   C4B66262   5.651   1.574   7.288
 5262POPC   NC366263  18.877   5.888   5.465
 5262POPC   PO466264  19.531   5.765   5.577
 5262POPC   GL166265  19.205   6.026   5.857
 5262POPC   GL266266  18.848   5.922   5.972
 5262POPC   C1A66267  19.067   6.323   6.185
 5262POPC   D2A66268  19.199   6.320   6.615
 5262POPC   C3A66269  18.909   6.145   6.939
 5262POPC   C4A66270  19.081   6.012   7.316
 5262POPC   C1B66271  19.115   5.837   6.343
 5262POPC   C2B66272  18.910   5.681   6.717
 5262POPC   C3B66273  18.748   5.677   7.130
 5262POPC   C4B66274  19.051   5.530   7.455
 5263POPC   NC366275   1.581   0.043   5.540
 5263POPC   PO466276   1.210   0.623   5.512
 5263POPC   GL166277   1.107   0.469   5.909
 5263POPC   GL266278   1.235   0.124   5.928
 5263POPC   C1A66279   1.020   0.625   6.311
 5263POPC   D2A66280   1.251   0.574   6.699
 5263POPC   C3A66281   1.064   0.569   7.110
 5263POPC   C4A66282   0.829   0.906   7.247
 5263POPC   C1B66283   1.589   0.126   6.247
 5263POPC   C2B66284   1.643   0.261   6.691
 5263POPC   C3B66285   1.391   0.170   7.064
 5263POPC   C4B66286   1.371   0.348   7.501
 5264POPC   NC366287   7.894   3.464   5.528
 5264POPC   PO466288   8.518   3.718   5.389
 5264POPC   GL166289   8.394   3.478   5.752
 5264POPC   GL266290   8.310   3.151   5.593
 5264POPC   C1A66291   8.154   3.626   6.146
 5264POPC   D2A66292   7.995   3.681   6.604
 5264POPC   C3A66293   8.239   3.532   6.967
 5264POPC   C4A66294   8.609   3.680   7.200
 5264POPC   C1B66295   8.129   3.119   6.041
 5264POPC   C2B66296   8.214   3.244   6.469
 5264POPC   C3B66297   7.893   3.179   6.782
 5264POPC   C4B66298   8.104   3.043   7.115
 5265POPC   NC366299  33.037  24.589   5.398
 5265POPC   PO466300  32.577  24.827   5.583
 5265POPC   GL166301  32.864  24.570   5.886
 5265POPC   GL266302  33.166  24.352   5.841
 5265POPC   C1A66303  32.818  24.300   6.265
 5265POPC   D2A66304  32.503  24.365   6.604
 5265POPC   C3A66305  32.698  24.613   6.906
 5265POPC   C4A66306  32.826  24.705   7.300
 5265POPC   C1B66307  33.340  24.512   6.227
 5265POPC   C2B66308  33.228  24.466   6.667
 5265POPC   C3B66309  33.295  24.459   7.119
 5265POPC   C4B66310  33.308  24.811   7.391
 5266POPC   NC366311  15.559  44.727   5.494
 5266POPC   PO466312  16.164  44.517   5.416
 5266POPC   GL166313  16.107  44.314   5.802
 5266POPC   GL266314  15.789  44.412   5.817
 5266POPC   C1A66315  16.059  44.367   6.249
 5266POPC   D2A66316  16.238  44.692   6.461
 5266POPC   C3A66317  16.044  44.753   6.816
 5266POPC   C4A66318  16.042  44.532   7.215
 5266POPC   C1B66319  15.805  44.794   6.139
 5266POPC   C2B66320  15.618  44.926   6.551
 5266POPC   C3B66321  15.592  44.809   6.987
 5266POPC   C4B66322  15.848  44.998   7.325
 5267POPC   NC366323  10.718  25.925   5.323
 5267POPC   PO466324  10.422  26.376   5.433
 5267POPC   GL166325  10.497  26.119   5.769
 5267POPC   GL266326  10.840  26.144   5.777
 5267POPC   C1A66327  10.459  26.043   6.220
 5267POPC   D2A66328  10.405  25.817   6.604
 5267POPC   C3A66329  10.384  26.012   6.987
 5267POPC   C4A66330  10.186  25.793   7.330
 5267POPC   C1B66331  10.942  25.898   6.139
 5267POPC   C2B66332  10.879  26.058   6.547
 5267POPC   C3B66333  10.846  25.828   6.912
 5267POPC   C4B66334  10.700  25.701   7.303
 5268POPC   NC366335  12.945  38.848   5.424
 5268POPC   PO466336  12.383  38.530   5.512
 5268POPC   GL166337  12.555  38.353   5.883
 5268POPC   GL266338  12.760  38.086   5.721
 5268POPC   C1A66339  12.548  38.518   6.330
 5268POPC   D2A66340  12.888  38.625   6.646
 5268POPC   C3A66341  12.858  38.656   7.095
 5268POPC   C4A66342  13.250  38.566   7.318
 5268POPC   C1B66343  12.858  37.984   6.152
 5268POPC   C2B66344  12.828  38.128   6.566
 5268POPC   C3B66345  12.768  38.131   7.008
 5268POPC   C4B66346  13.052  38.079   7.360
 5269POPC   NC366347  43.767  41.100   5.133
 5269POPC   PO466348  44.010  40.544   5.307
 5269POPC   GL166349  43.945  40.641   5.738
 5269POPC   GL266350  43.852  40.969   5.661
 5269POPC   C1A66351  43.947  40.563   6.183
 5269POPC   D2A66352  44.150  40.663   6.552
 5269POPC   C3A66353  43.907  40.511   6.883
 5269POPC   C4A66354  44.018  40.639   7.254
 5269POPC   C1B66355  43.822  41.049   6.110
 5269POPC   C2B66356  44.035  41.168   6.500
 5269POPC   C3B66357  43.953  41.029   6.897
 5269POPC   C4B66358  43.791  41.102   7.271
 5270POPC   NC366359  24.846  19.705   5.353
 5270POPC   PO466360  25.587  19.843   5.457
 5270POPC   GL166361  25.230  19.797   5.740
 5270POPC   GL266362  24.999  19.543   5.793
 5270POPC   C1A66363  25.192  19.885   6.172
 5270POPC   D2A66364  25.463  19.898   6.539
 5270POPC   C3A66365  25.241  19.890   6.932
 5270POPC   C4A66366  25.510  19.886   7.277
 5270POPC   C1B66367  25.081  19.387   6.162
 5270POPC   C2B66368  25.085  19.541   6.536
 5270POPC   C3B66369  24.926  19.464   6.899
 5270POPC   C4B66370  25.074  19.504   7.251
 5271POPC   NC366371  34.714  36.747   5.385
 5271POPC   PO466372  34.419  37.374   5.439
 5271POPC   GL166373  34.423  37.024   5.737
 5271POPC   GL266374  34.723  36.960   5.840
 5271POPC   C1A66375  34.333  36.799   6.110
 5271POPC   D2A66376  34.287  36.960   6.528
 5271POPC   C3A66377  34.409  36.723   6.873
 5271POPC   C4A66378  34.427  36.849   7.275
 5271POPC   C1B66379  34.891  36.846   6.233
 5271POPC   C2B66380  34.964  36.878   6.678
 5271POPC   C3B66381  34.890  36.735   7.105
 5271POPC   C4B66382  34.815  36.666   7.570
 5272POPC   NC366383  19.332  32.869   5.428
 5272POPC   PO466384  18.857  33.298   5.339
 5272POPC   GL166385  18.994  33.136   5.753
 5272POPC   GL266386  19.032  32.768   5.855
 5272POPC   C1A66387  18.873  33.092   6.202
 5272POPC   D2A66388  19.085  32.896   6.549
 5272POPC   C3A66389  18.765  32.798   6.838
 5272POPC   C4A66390  18.625  32.975   7.189
 5272POPC   C1B66391  19.278  32.538   6.179
 5272POPC   C2B66392  19.482  32.501   6.596
 5272POPC   C3B66393  19.298  32.657   6.955
 5272POPC   C4B66394  19.121  33.081   7.089
 5273POPC   NC366395  41.209  43.467   5.077
 5273POPC   PO466396  40.694  43.349   5.414
 5273POPC   GL166397  40.824  43.190   5.816
 5273POPC   GL266398  40.488  43.211   5.901
 5273POPC   C1A66399  40.918  43.065   6.221
 5273POPC   D2A66400  40.561  43.131   6.495
 5273POPC   C3A66401  40.720  43.115   6.907
 5273POPC   C4A66402  40.588  43.233   7.311
 5273POPC   C1B66403  40.497  42.795   6.074
 5273POPC   C2B66404  40.316  42.671   6.458
 5273POPC   C3B66405  40.367  42.572   6.880
 5273POPC   C4B66406  40.598  42.706   7.183
 5274POPC   NC366407   4.415  29.321   5.415
 5274POPC   PO466408   4.008  28.807   5.588
 5274POPC   GL166409   4.252  29.099   5.826
 5274POPC   GL266410   4.617  29.278   5.865
 5274POPC   C1A66411   4.107  29.237   6.167
 5274POPC   D2A66412   4.196  29.004   6.533
 5274POPC   C3A66413   4.254  29.215   6.923
 5274POPC   C4A66414   4.023  29.237   7.285
 5274POPC   C1B66415   4.606  29.018   6.209
 5274POPC   C2B66416   4.720  29.065   6.633
 5274POPC   C3B66417   4.658  28.892   7.019
 5274POPC   C4B66418   4.721  28.764   7.447
 5275POPC   NC366419  25.155  17.002   5.330
 5275POPC   PO466420  25.557  16.394   5.300
 5275POPC   GL166421  25.407  16.456   5.744
 5275POPC   GL266422  25.050  16.566   5.751
 5275POPC   C1A66423  25.560  16.454   6.187
 5275POPC   D2A66424  25.505  16.698   6.580
 5275POPC   C3A66425  25.293  16.534   6.961
 5275POPC   C4A66426  25.501  16.582   7.320
 5275POPC   C1B66427  25.191  16.796   6.132
 5275POPC   C2B66428  25.059  16.947   6.552
 5275POPC   C3B66429  25.238  17.033   6.953
 5275POPC   C4B66430  25.136  16.941   7.345
 5276POPC   NC366431  29.404  15.155   5.465
 5276POPC   PO466432  28.706  15.027   5.547
 5276POPC   GL166433  29.044  15.098   5.818
 5276POPC   GL266434  28.885  15.388   5.896
 5276POPC   C1A66435  29.308  15.227   6.167
 5276POPC   D2A66436  29.394  15.043   6.541
 5276POPC   C3A66437  29.397  15.279   6.885
 5276POPC   C4A66438  29.175  15.123   7.224
 5276POPC   C1B66439  28.832  15.106   6.285
 5276POPC   C2B66440  28.916  15.120   6.720
 5276POPC   C3B66441  28.694  15.266   7.025
 5276POPC   C4B66442  28.717  15.495   7.364
 5277POPC   NC366443  44.255  10.745   5.550
 5277POPC   PO466444  44.593  10.311   5.210
 5277POPC   GL166445  44.566  10.369   5.714
 5277POPC   GL266446  44.770  10.552   5.919
 5277POPC   C1A66447  44.366  10.471   6.172
 5277POPC   D2A66448  44.641  10.397   6.548
 5277POPC   C3A66449  44.722  10.752   6.807
 5277POPC   C4A66450  44.436  10.738   7.134
 5277POPC   C1B66451  44.983  10.287   6.171
 5277POPC   C2B66452   0.218  10.386   6.538
 5277POPC   C3B66453   0.065  10.324   6.919
 5277POPC   C4B66454  44.881  10.499   7.239
 5278POPC   NC366455  39.786  38.263   5.400
 5278POPC   PO466456  40.303  38.595   5.195
 5278POPC   GL166457  40.139  38.666   5.679
 5278POPC   GL266458  39.859  38.511   5.845
 5278POPC   C1A66459  40.305  38.531   6.138
 5278POPC   D2A66460  40.345  38.233   6.505
 5278POPC   C3A66461  40.168  38.357   6.928
 5278POPC   C4A66462  40.223  38.408   7.361
 5278POPC   C1B66463  39.815  38.377   6.269
 5278POPC   C2B66464  39.443  38.254   6.523
 5278POPC   C3B66465  39.484  38.166   6.962
 5278POPC   C4B66466  39.727  38.421   7.231
 5279POPC   NC366467   4.953  44.539   5.468
 5279POPC   PO466468   5.523  44.917   5.582
 5279POPC   GL166469   5.306  44.688   5.832
 5279POPC   GL266470   5.393  44.365   5.753
 5279POPC   C1A66471   5.123  44.807   6.202
 5279POPC   D2A66472   5.176  44.608   6.576
 5279POPC   C3A66473   5.360  44.775   6.953
 5279POPC   C4A66474   5.024  44.802   7.205
 5279POPC   C1B66475   5.101  44.291   6.110
 5279POPC   C2B66476   4.895  44.182   6.486
 5279POPC   C3B66477   4.874  44.373   6.901
 5279POPC   C4B66478   5.083  44.307   7.260
 5280POPC   NC366479  15.000  28.047   5.342
 5280POPC   PO466480  15.319  28.545   5.061
 5280POPC   GL166481  15.238  28.444   5.583
 5280POPC   GL266482  14.892  28.427   5.699
 5280POPC   C1A66483  15.282  28.289   6.062
 5280POPC   D2A66484  15.496  28.446   6.470
 5280POPC   C3A66485  15.346  28.445   6.914
 5280POPC   C4A66486  15.303  28.212   7.303
 5280POPC   C1B66487  14.812  28.548   6.132
 5280POPC   C2B66488  14.976  28.496   6.542
 5280POPC   C3B66489  14.938  28.773   6.903
 5280POPC   C4B66490  14.936  28.621   7.324
 5281POPC   NC366491  40.650   3.177   5.411
 5281POPC   PO466492  40.684   3.862   5.252
 5281POPC   GL166493  40.805   3.662   5.643
 5281POPC   GL266494  40.533   3.842   5.794
 5281POPC   C1A66495  40.961   3.524   6.082
 5281POPC   D2A66496  41.038   3.631   6.551
 5281POPC   C3A66497  40.854   3.349   6.890
 5281POPC   C4A66498  40.963   3.187   7.326
 5281POPC   C1B66499  40.450   3.580   6.147
 5281POPC   C2B66500  40.400   3.411   6.554
 5281POPC   C3B66501  40.335   3.668   6.918
 5281POPC   C4B66502  40.594   3.631   7.258
 5282POPC   NC366503  32.333  37.373   5.435
 5282POPC   PO466504  32.238  38.002   5.343
 5282POPC   GL166505  32.121  37.784   5.777
 5282POPC   GL266506  32.275  37.423   5.917
 5282POPC   C1A66507  32.027  37.701   6.227
 5282POPC   D2A66508  32.081  37.504   6.598
 5282POPC   C3A66509  32.397  37.398   6.857
 5282POPC   C4A66510  32.281  37.570   7.242
 5282POPC   C1B66511  32.538  37.457   6.277
 5282POPC   C2B66512  32.612  37.786   6.559
 5282POPC   C3B66513  32.301  37.917   6.850
 5282POPC   C4B66514  32.340  38.064   7.233
 5283POPC   NC366515  43.427  12.073   5.419
 5283POPC   PO466516  44.026  12.462   5.239
 5283POPC   GL166517  44.050  12.289   5.718
 5283POPC   GL266518  43.877  11.979   5.771
 5283POPC   C1A66519  43.848  12.299   6.170
 5283POPC   D2A66520  43.751  12.026   6.506
 5283POPC   C3A66521  43.784  12.253   6.874
 5283POPC   C4A66522  43.607  12.354   7.239
 5283POPC   C1B66523  44.114  11.826   6.159
 5283POPC   C2B66524  44.194  11.680   6.610
 5283POPC   C3B66525  43.881  11.760   6.934
 5283POPC   C4B66526  43.930  11.971   7.321
 5284POPC   NC366527  27.767  30.528   5.407
 5284POPC   PO466528  27.144  30.694   5.535
 5284POPC   GL166529  27.468  30.718   5.793
 5284POPC   GL266530  27.576  30.375   5.839
 5284POPC   C1A66531  27.365  30.673   6.190
 5284POPC   D2A66532  27.404  30.396   6.509
 5284POPC   C3A66533  27.462  30.623   6.884
 5284POPC   C4A66534  27.338  30.708   7.312
 5284POPC   C1B66535  27.863  30.540   6.145
 5284POPC   C2B66536  27.941  30.355   6.508
 5284POPC   C3B66537  27.975  30.505   6.886
 5284POPC   C4B66538  27.845  30.674   7.232
 5285POPC   NC366539  18.624  20.816   5.492
 5285POPC   PO466540  19.214  20.563   5.439
 5285POPC   GL166541  18.943  20.541   5.777
 5285POPC   GL266542  19.189  20.730   5.952
 5285POPC   C1A66543  18.806  20.519   6.208
 5285POPC   D2A66544  19.095  20.595   6.551
 5285POPC   C3A66545  18.946  20.480   6.963
 5285POPC   C4A66546  18.956  20.597   7.406
 5285POPC   C1B66547  19.473  20.889   6.287
 5285POPC   C2B66548  19.515  20.816   6.732
 5285POPC   C3B66549  19.231  20.905   7.069
 5285POPC   C4B66550  19.297  20.967   7.519
 5286POPC   NC366551  14.200  40.959   5.333
 5286POPC   PO466552  14.518  40.435   5.420
 5286POPC   GL166553  14.372  40.675   5.774
 5286POPC   GL266554  14.469  41.000   5.753
 5286POPC   C1A66555  14.229  40.747   6.203
 5286POPC   D2A66556  14.129  40.913   6.614
 5286POPC   C3A66557  14.403  40.781   6.960
 5286POPC   C4A66558  14.469  40.982   7.363
 5286POPC   C1B66559  14.680  40.966   6.151
 5286POPC   C2B66560  14.655  41.043   6.604
 5286POPC   C3B66561  14.849  41.028   7.037
 5286POPC   C4B66562  14.970  40.978   7.522
 5287POPC   NC366563  36.842   0.570   5.431
 5287POPC   PO466564  37.541   0.749   5.525
 5287POPC   GL166565  37.135   0.778   5.781
 5287POPC   GL266566  37.047   0.400   5.861
 5287POPC   C1A66567  36.804   0.796   6.113
 5287POPC   D2A66568  36.799   0.926   6.551
 5287POPC   C3A66569  36.745   0.643   6.897
 5287POPC   C4A66570  36.917   0.674   7.302
 5287POPC   C1B66571  36.854   0.277   6.283
 5287POPC   C2B66572  36.836   0.126   6.736
 5287POPC   C3B66573  36.832   0.201   7.188
 5287POPC   C4B66574  36.764   0.111   7.657
 5288POPC   NC366575  37.191  42.630   5.380
 5288POPC   PO466576  37.012  41.943   5.441
 5288POPC   GL166577  36.944  42.291   5.750
 5288POPC   GL266578  36.757  42.577   5.669
 5288POPC   C1A66579  36.757  42.211   6.165
 5288POPC   D2A66580  36.809  41.975   6.556
 5288POPC   C3A66581  36.892  42.201   6.936
 5288POPC   C4A66582  36.730  42.323   7.351
 5288POPC   C1B66583  36.723  42.715   6.117
 5288POPC   C2B66584  36.810  42.542   6.542
 5288POPC   C3B66585  36.731  42.685   6.939
 5288POPC   C4B66586  36.511  42.802   7.272
 5289POPC   NC366587  26.868  17.774   5.687
 5289POPC   PO466588  27.066  17.056   5.572
 5289POPC   GL166589  27.058  17.331   5.898
 5289POPC   GL266590  26.715  17.340   5.925
 5289POPC   C1A66591  27.231  17.552   6.265
 5289POPC   D2A66592  27.100  17.872   6.555
 5289POPC   C3A66593  26.953  17.685   6.934
 5289POPC   C4A66594  26.884  17.598   7.369
 5289POPC   C1B66595  26.701  17.604   6.303
 5289POPC   C2B66596  26.495  17.594   6.690
 5289POPC   C3B66597  26.474  17.776   7.105
 5289POPC   C4B66598  26.436  17.737   7.564
 5290POPC   NC366599  42.414  23.534   5.406
 5290POPC   PO466600  42.442  24.186   5.269
 5290POPC   GL166601  42.302  23.954   5.673
 5290POPC   GL266602  42.636  23.892   5.760
 5290POPC   C1A66603  42.277  23.694   6.094
 5290POPC   D2A66604  42.230  23.810   6.549
 5290POPC   C3A66605  42.381  23.615   6.926
 5290POPC   C4A66606  42.215  23.491   7.332
 5290POPC   C1B66607  42.559  24.109   6.156
 5290POPC   C2B66608  42.662  24.113   6.580
 5290POPC   C3B66609  42.471  24.139   6.971
 5290POPC   C4B66610  42.453  23.926   7.341
 5291POPC   NC366611   9.239  42.252   5.403
 5291POPC   PO466612   8.581  42.127   5.380
 5291POPC   GL166613   8.711  42.265   5.797
 5291POPC   GL266614   9.071  42.260   5.893
 5291POPC   C1A66615   8.692  42.083   6.209
 5291POPC   D2A66616   8.865  41.814   6.516
 5291POPC   C3A66617   8.909  42.074   6.864
 5291POPC   C4A66618   8.704  42.083   7.206
 5291POPC   C1B66619   8.898  42.587   6.188
 5291POPC   C2B66620   9.024  42.769   6.588
 5291POPC   C3B66621   9.340  42.773   6.909
 5291POPC   C4B66622   9.374  42.591   7.289
 5292POPC   NC366623  35.901  16.131   5.403
 5292POPC   PO466624  35.210  15.877   5.381
 5292POPC   GL166625  35.529  15.835   5.691
 5292POPC   GL266626  35.570  16.192   5.802
 5292POPC   C1A66627  35.675  15.775   6.122
 5292POPC   D2A66628  35.623  15.620   6.531
 5292POPC   C3A66629  35.545  15.886   6.891
 5292POPC   C4A66630  35.404  16.087   7.272
 5292POPC   C1B66631  35.215  16.052   6.081
 5292POPC   C2B66632  34.927  16.103   6.454
 5292POPC   C3B66633  35.054  16.180   6.871
 5292POPC   C4B66634  34.918  16.172   7.274
 5293POPC   NC366635  39.478  20.686   5.003
 5293POPC   PO466636  39.960  20.616   5.456
 5293POPC   GL166637  40.006  20.776   5.861
 5293POPC   GL266638  40.236  21.024   5.898
 5293POPC   C1A66639  40.125  20.583   6.251
 5293POPC   D2A66640  40.277  20.491   6.657
 5293POPC   C3A66641  39.960  20.438   6.970
 5293POPC   C4A66642  40.217  20.466   7.334
 5293POPC   C1B66643  40.488  20.933   6.235
 5293POPC   C2B66644  40.401  21.008   6.654
 5293POPC   C3B66645  40.484  20.826   7.048
 5293POPC   C4B66646  40.389  20.968   7.453
 5294POPC   NC366647   3.774  11.798   5.330
 5294POPC   PO466648   3.382  12.347   5.505
 5294POPC   GL166649   3.403  12.114   5.886
 5294POPC   GL266650   3.731  11.897   5.895
 5294POPC   C1A66651   3.415  11.980   6.325
 5294POPC   D2A66652   3.508  11.874   6.745
 5294POPC   C3A66653   3.344  12.125   7.045
 5294POPC   C4A66654   3.516  12.374   7.381
 5294POPC   C1B66655   3.911  12.089   6.292
 5294POPC   C2B66656   3.747  12.309   6.655
 5294POPC   C3B66657   3.868  12.232   7.051
 5294POPC   C4B66658   3.711  11.855   7.240
 5295POPC   NC366659  29.776   0.324   5.354
 5295POPC   PO466660  30.318   0.422   5.552
 5295POPC   GL166661  29.957   0.446   5.839
 5295POPC   GL266662  29.915   0.809   5.787
 5295POPC   C1A66663  29.775   0.350   6.255
 5295POPC   D2A66664  29.624   0.442   6.654
 5295POPC   C3A66665  29.856   0.309   7.024
 5295POPC   C4A66666  29.735   0.061   7.383
 5295POPC   C1B66667  29.873   0.837   6.268
 5295POPC   C2B66668  29.889   0.857   6.741
 5295POPC   C3B66669  30.042   0.782   7.173
 5295POPC   C4B66670  29.983   0.919   7.631
 5296POPC   NC366671  39.547   1.680   5.637
 5296POPC   PO466672  40.150   1.813   5.383
 5296POPC   GL166673  40.241   2.031   5.755
 5296POPC   GL266674  39.900   2.073   5.815
 5296POPC   C1A66675  40.306   2.184   6.166
 5296POPC   D2A66676  40.148   2.272   6.552
 5296POPC   C3A66677  40.259   2.097   6.946
 5296POPC   C4A66678  40.121   2.135   7.402
 5296POPC   C1B66679  39.924   1.862   6.221
 5296POPC   C2B66680  39.978   1.759   6.646
 5296POPC   C3B66681  39.829   1.866   7.054
 5296POPC   C4B66682  39.827   1.705   7.471
 5297POPC   NC366683   4.326  21.934   5.574
 5297POPC   PO466684   4.189  21.380   5.259
 5297POPC   GL166685   4.173  21.388   5.748
 5297POPC   GL266686   4.115  21.700   5.949
 5297POPC   C1A66687   4.485  21.417   6.137
 5297POPC   D2A66688   4.483  21.245   6.569
 5297POPC   C3A66689   4.623  21.425   6.965
 5297POPC   C4A66690   4.630  21.286   7.405
 5297POPC   C1B66691   4.006  21.472   6.304
 5297POPC   C2B66692   4.004  21.369   6.726
 5297POPC   C3B66693   4.099  21.592   7.090
 5297POPC   C4B66694   4.039  21.864   7.488
 5298POPC   NC366695  38.419   8.191   5.148
 5298POPC   PO466696  38.342   7.895   5.681
 5298POPC   GL166697  38.454   8.136   5.938
 5298POPC   GL266698  38.579   8.376   5.741
 5298POPC   C1A66699  38.302   8.418   6.196
 5298POPC   D2A66700  38.468   8.534   6.547
 5298POPC   C3A66701  38.330   8.230   6.868
 5298POPC   C4A66702  38.534   8.161   7.239
 5298POPC   C1B66703  38.841   8.439   6.092
 5298POPC   C2B66704  39.023   8.452   6.498
 5298POPC   C3B66705  38.821   8.417   6.895
 5298POPC   C4B66706  38.709   8.646   7.227
 5299POPC   NC366707  28.485  25.351   5.193
 5299POPC   PO466708  28.402  24.786   5.409
 5299POPC   GL166709  28.159  25.074   5.762
 5299POPC   GL266710  28.174  25.488   5.801
 5299POPC   C1A66711  28.167  25.130   6.254
 5299POPC   D2A66712  28.338  25.241   6.691
 5299POPC   C3A66713  28.348  24.992   7.078
 5299POPC   C4A66714  28.707  24.908   7.352
 5299POPC   C1B66715  28.168  25.672   6.229
 5299POPC   C2B66716  28.042  25.641   6.659
 5299POPC   C3B66717  28.215  25.614   7.074
 5299POPC   C4B66718  28.166  25.771   7.493
 5300POPC   NC366719  44.104  15.527   5.443
 5300POPC   PO466720  43.745  14.926   5.564
 5300POPC   GL166721  43.842  15.128   5.960
 5300POPC   GL266722  43.824  15.474   5.880
 5300POPC   C1A66723  43.791  15.285   6.391
 5300POPC   D2A66724  43.850  15.390   6.837
 5300POPC   C3A66725  43.681  15.109   7.132
 5300POPC   C4A66726  43.780  14.910   7.518
 5300POPC   C1B66727  44.130  15.616   6.205
 5300POPC   C2B66728  44.276  15.727   6.627
 5300POPC   C3B66729  44.290  15.538   7.053
 5300POPC   C4B66730  44.075  15.324   7.421
 5301POPC   NC366731  40.544   1.657   5.574
 5301POPC   PO466732  41.062   2.069   5.628
 5301POPC   GL166733  40.757   2.251   5.879
 5301POPC   GL266734  40.706   1.919   6.006
 5301POPC   C1A66735  40.741   2.406   6.309
 5301POPC   D2A66736  40.644   2.090   6.602
 5301POPC   C3A66737  40.923   2.092   6.939
 5301POPC   C4A66738  40.961   2.144   7.343
 5301POPC   C1B66739  40.425   1.702   6.291
 5301POPC   C2B66740  40.466   1.567   6.711
 5301POPC   C3B66741  40.274   1.590   7.111
 5301POPC   C4B66742  40.550   1.857   7.280
 5302POPC   NC366743  42.569  38.650   5.110
 5302POPC   PO466744  43.121  38.349   5.435
 5302POPC   GL166745  43.111  38.488   5.819
 5302POPC   GL266746  43.220  38.825   5.773
 5302POPC   C1A66747  43.391  38.519   6.168
 5302POPC   D2A66748  43.234  38.594   6.551
 5302POPC   C3A66749  43.067  38.302   6.789
 5302POPC   C4A66750  43.073  38.338   7.183
 5302POPC   C1B66751  42.964  38.818   6.188
 5302POPC   C2B66752  42.749  38.699   6.585
 5302POPC   C3B66753  42.847  38.770   7.031
 5302POPC   C4B66754  42.677  38.564   7.463
 5303POPC   NC366755  23.862  41.436   5.583
 5303POPC   PO466756  23.459  42.027   5.468
 5303POPC   GL166757  23.569  41.784   5.846
 5303POPC   GL266758  23.339  41.531   5.909
 5303POPC   C1A66759  23.666  41.593   6.275
 5303POPC   D2A66760  23.748  41.447   6.692
 5303POPC   C3A66761  23.551  41.536   7.074
 5303POPC   C4A66762  23.918  41.533   7.265
 5303POPC   C1B66763  23.390  41.147   6.184
 5303POPC   C2B66764  23.516  40.994   6.567
 5303POPC   C3B66765  23.543  41.044   6.983
 5303POPC   C4B66766  23.601  41.146   7.413
 5304POPC   NC366767  42.304   7.965   5.375
 5304POPC   PO466768  42.077   8.611   5.474
 5304POPC   GL166769  42.254   8.387   5.800
 5304POPC   GL266770  42.043   8.118   5.879
 5304POPC   C1A66771  42.452   8.288   6.203
 5304POPC   D2A66772  42.295   8.216   6.626
 5304POPC   C3A66773  42.607   8.140   6.927
 5304POPC   C4A66774  42.492   8.406   7.242
 5304POPC   C1B66775  41.948   8.390   6.253
 5304POPC   C2B66776  41.837   8.470   6.696
 5304POPC   C3B66777  41.975   8.310   7.110
 5304POPC   C4B66778  42.085   8.448   7.556
 5305POPC   NC366779   2.207  22.381   5.464
 5305POPC   PO466780   2.127  21.708   5.579
 5305POPC   GL166781   2.031  22.069   5.855
 5305POPC   GL266782   1.745  21.882   5.909
 5305POPC   C1A66783   1.968  22.354   6.236
 5305POPC   D2A66784   2.106  22.504   6.674
 5305POPC   C3A66785   1.974  22.322   7.094
 5305POPC   C4A66786   1.674  22.453   7.431
 5305POPC   C1B66787   1.933  21.795   6.306
 5305POPC   C2B66788   2.241  22.004   6.528
 5305POPC   C3B66789   2.397  21.933   6.898
 5305POPC   C4B66790   2.096  21.758   7.155
 5306POPC   NC366791  12.294  23.785   5.378
 5306POPC   PO466792  11.763  24.136   5.596
 5306POPC   GL166793  12.035  23.801   5.846
 5306POPC   GL266794  12.408  23.722   5.863
 5306POPC   C1A66795  12.026  23.667   6.286
 5306POPC   D2A66796  11.871  23.559   6.714
 5306POPC   C3A66797  11.984  23.774   7.099
 5306POPC   C4A66798  11.847  23.763   7.575
 5306POPC   C1B66799  12.522  23.750   6.280
 5306POPC   C2B66800  12.408  23.647   6.677
 5306POPC   C3B66801  12.278  23.310   6.910
 5306POPC   C4B66802  12.314  23.445   7.303
 5307POPC   NC366803  37.498   6.772   5.290
 5307POPC   PO466804  38.072   6.386   5.218
 5307POPC   GL166805  37.837   6.602   5.594
 5307POPC   GL266806  37.636   6.335   5.707
 5307POPC   C1A66807  37.661   6.777   6.009
 5307POPC   D2A66808  37.575   6.686   6.489
 5307POPC   C3A66809  37.767   6.869   6.868
 5307POPC   C4A66810  37.923   7.084   7.214
 5307POPC   C1B66811  37.662   6.281   6.170
 5307POPC   C2B66812  37.504   6.176   6.572
 5307POPC   C3B66813  37.650   6.220   6.977
 5307POPC   C4B66814  37.505   6.547   7.161
 5308POPC   NC366815   3.733  32.922   5.379
 5308POPC   PO466816   3.044  33.085   5.431
 5308POPC   GL166817   3.402  32.932   5.780
 5308POPC   GL266818   3.738  32.667   5.807
 5308POPC   C1A66819   3.551  33.031   6.171
 5308POPC   D2A66820   3.628  32.882   6.590
 5308POPC   C3A66821   3.676  33.166   6.961
 5308POPC   C4A66822   3.461  33.162   7.359
 5308POPC   C1B66823   3.959  32.470   6.156
 5308POPC   C2B66824   4.054  32.615   6.583
 5308POPC   C3B66825   3.875  32.702   7.014
 5308POPC   C4B66826   3.485  32.654   7.228
 5309POPC   NC366827   3.683  10.137   5.248
 5309POPC   PO466828   3.587   9.489   5.258
 5309POPC   GL166829   3.531   9.607   5.733
 5309POPC   GL266830   3.536   9.989   5.804
 5309POPC   C1A66831   3.661   9.685   6.200
 5309POPC   D2A66832   3.820   9.554   6.638
 5309POPC   C3A66833   3.887   9.818   7.010
 5309POPC   C4A66834   3.720   9.793   7.439
 5309POPC   C1B66835   3.716  10.168   6.231
 5309POPC   C2B66836   3.591  10.038   6.657
 5309POPC   C3B66837   3.507  10.128   7.105
 5309POPC   C4B66838   3.226   9.937   7.430
 5310POPC   NC366839  25.477  39.633   5.138
 5310POPC   PO466840  25.069  39.227   5.478
 5310POPC   GL166841  25.213  39.082   5.883
 5310POPC   GL266842  24.935  38.871   5.846
 5310POPC   C1A66843  25.404  39.280   6.292
 5310POPC   D2A66844  25.308  39.404   6.741
 5310POPC   C3A66845  25.488  39.566   7.116
 5310POPC   C4A66846  25.661  39.306   7.449
 5310POPC   C1B66847  25.013  38.781   6.239
 5310POPC   C2B66848  24.785  38.808   6.580
 5310POPC   C3B66849  24.915  38.981   6.896
 5310POPC   C4B66850  24.978  38.826   7.269
 5311POPC   NC366851   7.016  35.711   5.252
 5311POPC   PO466852   7.416  36.192   5.445
 5311POPC   GL166853   7.109  36.038   5.738
 5311POPC   GL266854   6.875  36.277   5.746
 5311POPC   C1A66855   7.119  36.038   6.207
 5311POPC   D2A66856   7.088  35.926   6.655
 5311POPC   C3A66857   7.442  36.056   6.926
 5311POPC   C4A66858   7.427  36.250   7.337
 5311POPC   C1B66859   6.910  36.494   6.136
 5311POPC   C2B66860   7.163  36.445   6.539
 5311POPC   C3B66861   7.024  36.345   6.954
 5311POPC   C4B66862   6.983  36.505   7.348
 5312POPC   NC366863  28.692   2.280   5.475
 5312POPC   PO466864  28.137   1.779   5.334
 5312POPC   GL166865  28.005   1.821   5.751
 5312POPC   GL266866  28.265   2.016   5.822
 5312POPC   C1A66867  28.073   1.739   6.208
 5312POPC   D2A66868  28.258   1.915   6.603
 5312POPC   C3A66869  28.392   1.701   6.986
 5312POPC   C4A66870  28.045   1.686   7.257
 5312POPC   C1B66871  28.523   2.090   6.190
 5312POPC   C2B66872  28.674   2.204   6.603
 5312POPC   C3B66873  28.552   2.192   7.034
 5312POPC   C4B66874  28.719   2.055   7.466
 5313POPC   NC366875  44.390  35.939   5.539
 5313POPC   PO466876   0.015  36.028   5.601
 5313POPC   GL166877  44.693  36.149   5.913
 5313POPC   GL266878  44.413  35.943   6.031
 5313POPC   C1A66879  44.527  36.389   6.256
 5313POPC   D2A66880  44.359  36.232   6.620
 5313POPC   C3A66881  44.714  36.123   6.849
 5313POPC   C4A66882  44.817  36.136   7.284
 5313POPC   C1B66883  44.614  35.864   6.358
 5313POPC   C2B66884  44.443  35.702   6.692
 5313POPC   C3B66885  44.410  35.808   7.093
 5313POPC   C4B66886  44.612  35.736   7.514
 5314POPC   NC366887  31.013  35.209   5.110
 5314POPC   PO466888  31.624  35.217   5.456
 5314POPC   GL166889  31.482  35.233   5.866
 5314POPC   GL266890  31.310  35.539   5.890
 5314POPC   C1A66891  31.306  35.211   6.292
 5314POPC   D2A66892  31.365  35.349   6.732
 5314POPC   C3A66893  31.314  34.958   6.982
 5314POPC   C4A66894  31.565  34.824   7.278
 5314POPC   C1B66895  31.687  35.558   6.200
 5314POPC   C2B66896  31.842  35.574   6.629
 5314POPC   C3B66897  31.716  35.642   7.053
 5314POPC   C4B66898  31.474  35.365   7.255
 5315POPC   NC366899  20.443  16.454   5.525
 5315POPC   PO466900  20.877  16.863   5.417
 5315POPC   GL166901  20.604  16.889   5.771
 5315POPC   GL266902  20.796  16.611   5.910
 5315POPC   C1A66903  20.434  16.824   6.194
 5315POPC   D2A66904  20.664  16.845   6.568
 5315POPC   C3A66905  20.422  16.799   6.922
 5315POPC   C4A66906  20.451  17.017   7.316
 5315POPC   C1B66907  21.066  16.638   6.299
 5315POPC   C2B66908  21.089  16.600   6.759
 5315POPC   C3B66909  20.867  16.710   7.145
 5315POPC   C4B66910  20.873  16.639   7.582
 5316POPC   NC366911  40.881   0.385   5.564
 5316POPC   PO466912  40.267   0.541   5.419
 5316POPC   GL166913  40.429   0.651   5.888
 5316POPC   GL266914  40.824   0.569   6.019
 5316POPC   C1A66915  40.495   0.716   6.357
 5316POPC   D2A66916  40.935   0.667   6.531
 5316POPC   C3A66917  40.940   0.382   6.858
 5316POPC   C4A66918  40.764   0.444   7.234
 5316POPC   C1B66919  40.555   0.214   6.214
 5316POPC   C2B66920  40.316   0.058   6.607
 5316POPC   C3B66921  40.427   0.111   7.053
 5316POPC   C4B66922  40.627   0.033   7.483
 5317POPC   NC366923  21.495  44.666   5.485
 5317POPC   PO466924  20.922  44.396   5.463
 5317POPC   GL166925  21.018  44.592   5.862
 5317POPC   GL266926  21.223  44.882   5.859
 5317POPC   C1A66927  21.056  44.719   6.301
 5317POPC   D2A66928  21.311   0.000   6.585
 5317POPC   C3A66929  21.312  44.865   7.015
 5317POPC   C4A66930  21.238  44.524   7.277
 5317POPC   C1B66931  21.565  44.781   6.175
 5317POPC   C2B66932  21.785  44.728   6.569
 5317POPC   C3B66933  21.840  44.880   6.997
 5317POPC   C4B66934  21.707  44.791   7.370
 5318POPC   NC366935  13.694  16.880   5.225
 5318POPC   PO466936  13.179  16.513   5.364
 5318POPC   GL166937  13.509  16.618   5.659
 5318POPC   GL266938  13.537  16.310   5.820
 5318POPC   C1A66939  13.658  16.917   5.998
 5318POPC   D2A66940  13.469  16.997   6.432
 5318POPC   C3A66941  13.639  16.809   6.822
 5318POPC   C4A66942  13.739  16.584   7.193
 5318POPC   C1B66943  13.391  16.536   6.188
 5318POPC   C2B66944  13.296  16.500   6.586
 5318POPC   C3B66945  13.282  16.482   7.007
 5318POPC   C4B66946  13.292  16.879   7.228
 5319POPC   NC366947  29.423  38.521   5.501
 5319POPC   PO466948  28.999  38.132   5.153
 5319POPC   GL166949  29.058  38.154   5.638
 5319POPC   GL266950  28.980  38.491   5.819
 5319POPC   C1A66951  29.002  38.053   6.097
 5319POPC   D2A66952  28.763  38.201   6.453
 5319POPC   C3A66953  28.971  38.486   6.783
 5319POPC   C4A66954  28.906  38.467   7.229
 5319POPC   C1B66955  29.078  38.593   6.266
 5319POPC   C2B66956  29.446  38.694   6.510
 5319POPC   C3B66957  29.584  38.809   6.892
 5319POPC   C4B66958  29.369  38.667   7.238
 5320POPC   NC366959  41.799   0.703   5.326
 5320POPC   PO466960  41.256   0.450   5.301
 5320POPC   GL166961  41.343   0.411   5.765
 5320POPC   GL266962  41.670   0.267   5.814
 5320POPC   C1A66963  41.352   0.491   6.216
 5320POPC   D2A66964  41.573   0.512   6.622
 5320POPC   C3A66965  41.434   0.339   7.007
 5320POPC   C4A66966  41.239   0.598   7.287
 5320POPC   C1B66967  41.877   0.398   6.183
 5320POPC   C2B66968  42.003   0.269   6.581
 5320POPC   C3B66969  41.948   0.353   6.997
 5320POPC   C4B66970  41.974   0.110   7.360
 5321POPC   NC366971  37.657   4.440   5.401
 5321POPC   PO466972  37.489   3.799   5.524
 5321POPC   GL166973  37.793   3.964   5.805
 5321POPC   GL266974  37.855   4.325   5.844
 5321POPC   C1A66975  37.816   3.989   6.236
 5321POPC   D2A66976  37.686   3.771   6.618
 5321POPC   C3A66977  37.436   4.078   6.821
 5321POPC   C4A66978  37.566   4.295   7.161
 5321POPC   C1B66979  37.945   4.502   6.242
 5321POPC   C2B66980  37.991   4.459   6.691
 5321POPC   C3B66981  37.966   4.590   7.118
 5321POPC   C4B66982  37.537   4.801   7.230
 5322POPC   NC366983  42.828  31.597   5.478
 5322POPC   PO466984  43.204  30.989   5.459
 5322POPC   GL166985  43.127  31.294   5.766
 5322POPC   GL266986  42.785  31.286   5.897
 5322POPC   C1A66987  43.217  31.544   6.151
 5322POPC   D2A66988  43.100  31.617   6.589
 5322POPC   C3A66989  43.203  31.786   6.994
 5322POPC   C4A66990  43.041  31.511   7.291
 5322POPC   C1B66991  42.683  31.687   6.136
 5322POPC   C2B66992  42.634  31.829   6.559
 5322POPC   C3B66993  42.692  31.633   6.939
 5322POPC   C4B66994  42.398  31.666   7.268
 5323POPC   NC366995  11.660  21.138   5.521
 5323POPC   PO466996  12.230  21.524   5.415
 5323POPC   GL166997  11.988  21.464   5.786
 5323POPC   GL266998  12.197  21.214   5.845
 5323POPC   C1A66999  11.962  21.413   6.258
 5323POPC   D2A67000  11.883  21.259   6.700
 5323POPC   C3A67001  11.946  21.554   7.092
 5323POPC   C4A67002  12.072  21.391   7.517
 5323POPC   C1B67003  12.457  21.423   6.169
 5323POPC   C2B67004  12.349  21.474   6.621
 5323POPC   C3B67005  12.344  21.266   7.027
 5323POPC   C4B67006  12.529  21.486   7.368
 5324POPC   NC367007  27.362  23.247   5.720
 5324POPC   PO467008  26.926  22.884   5.370
 5324POPC   GL167009  26.764  22.775   5.785
 5324POPC   GL267010  26.865  23.113   5.873
 5324POPC   C1A67011  26.687  22.668   6.197
 5324POPC   D2A67012  26.829  22.612   6.630
 5324POPC   C3A67013  26.490  22.713   6.923
 5324POPC   C4A67014  26.514  22.954   7.286
 5324POPC   C1B67015  26.795  23.168   6.313
 5324POPC   C2B67016  26.775  23.126   6.756
 5324POPC   C3B67017  26.657  23.387   7.093
 5324POPC   C4B67018  26.561  23.368   7.584
 5325POPC   NC367019   8.634   8.921   5.346
 5325POPC   PO467020   9.183   8.750   5.661
 5325POPC   GL167021   8.960   9.138   5.758
 5325POPC   GL267022   9.277   9.335   5.850
 5325POPC   C1A67023   8.786   9.256   6.155
 5325POPC   D2A67024   8.861   9.020   6.542
 5325POPC   C3A67025   9.072   9.050   6.912
 5325POPC   C4A67026   8.886   8.866   7.240
 5325POPC   C1B67027   9.281   9.163   6.289
 5325POPC   C2B67028   9.479   9.289   6.710
 5325POPC   C3B67029   9.526   9.238   7.174
 5325POPC   C4B67030   9.380   9.336   7.612
 5326POPC   NC367031  11.086   5.822   5.426
 5326POPC   PO467032  11.426   5.186   5.394
 5326POPC   GL167033  11.318   4.837   5.688
 5326POPC   GL267034  11.301   5.115   5.912
 5326POPC   C1A67035  11.224   4.688   6.129
 5326POPC   D2A67036  11.313   5.011   6.465
 5326POPC   C3A67037  11.109   5.005   6.888
 5326POPC   C4A67038  11.333   5.069   7.303
 5326POPC   C1B67039  11.648   5.379   6.127
 5326POPC   C2B67040  11.693   5.559   6.550
 5326POPC   C3B67041  11.828   5.476   6.985
 5326POPC   C4B67042  11.606   5.488   7.357
 5327POPC   NC367043  21.817  17.292   5.278
 5327POPC   PO467044  21.201  17.595   5.258
 5327POPC   GL167045  21.385  17.536   5.683
 5327POPC   GL267046  21.595  17.234   5.757
 5327POPC   C1A67047  21.234  17.523   6.134
 5327POPC   D2A67048  21.227  17.752   6.519
 5327POPC   C3A67049  21.205  17.532   6.901
 5327POPC   C4A67050  21.005  17.748   7.231
 5327POPC   C1B67051  21.747  17.449   6.136
 5327POPC   C2B67052  21.621  17.312   6.537
 5327POPC   C3B67053  21.706  17.217   6.930
 5327POPC   C4B67054  21.513  17.326   7.287
 5328POPC   NC367055  19.385   2.288   5.718
 5328POPC   PO467056  18.966   1.758   5.517
 5328POPC   GL167057  19.178   1.855   5.901
 5328POPC   GL267058  19.393   1.609   6.073
 5328POPC   C1A67059  18.978   2.045   6.273
 5328POPC   D2A67060  18.682   2.036   6.616
 5328POPC   C3A67061  18.891   2.188   6.976
 5328POPC   C4A67062  19.098   2.074   7.352
 5328POPC   C1B67063  19.530   2.006   6.281
 5328POPC   C2B67064  19.361   2.287   6.578
 5328POPC   C3B67065  19.395   2.058   6.936
 5328POPC   C4B67066  19.598   2.156   7.304
 5329POPC   NC367067  41.229  20.654   5.476
 5329POPC   PO467068  41.886  20.527   5.507
 5329POPC   GL167069  41.686  20.741   5.815
 5329POPC   GL267070  41.483  20.424   5.850
 5329POPC   C1A67071  41.468  20.761   6.226
 5329POPC   D2A67072  41.298  20.535   6.589
 5329POPC   C3A67073  41.464  20.527   7.016
 5329POPC   C4A67074  41.701  20.821   7.206
 5329POPC   C1B67075  41.821  20.362   6.126
 5329POPC   C2B67076  41.866  20.372   6.522
 5329POPC   C3B67077  41.949  20.533   6.874
 5329POPC   C4B67078  42.160  20.378   7.198
 5330POPC   NC367079  21.479  31.264   5.343
 5330POPC   PO467080  21.265  31.946   5.341
 5330POPC   GL167081  21.286  31.720   5.755
 5330POPC   GL267082  21.537  31.439   5.801
 5330POPC   C1A67083  21.262  31.530   6.189
 5330POPC   D2A67084  21.369  31.334   6.575
 5330POPC   C3A67085  21.399  31.577   6.953
 5330POPC   C4A67086  21.177  31.640   7.335
 5330POPC   C1B67087  21.563  31.090   6.110
 5330POPC   C2B67088  21.747  30.991   6.524
 5330POPC   C3B67089  21.618  31.082   6.977
 5330POPC   C4B67090  21.608  31.370   7.374
 5331POPC   NC367091  43.696  17.082   5.341
 5331POPC   PO467092  44.162  16.588   5.361
 5331POPC   GL167093  43.919  16.490   5.763
 5331POPC   GL267094  43.678  16.732   5.736
 5331POPC   C1A67095  43.955  16.601   6.229
 5331POPC   D2A67096  44.006  16.636   6.694
 5331POPC   C3A67097  43.872  16.407   7.048
 5331POPC   C4A67098  43.976  16.766   7.231
 5331POPC   C1B67099  43.486  16.782   6.114
 5331POPC   C2B67100  43.530  16.615   6.518
 5331POPC   C3B67101  43.538  16.775   6.900
 5331POPC   C4B67102  43.326  16.661   7.209
 5332POPC   NC367103   0.008   3.003   5.127
 5332POPC   PO467104  44.611   2.500   5.365
 5332POPC   GL167105  44.554   2.707   5.791
 5332POPC   GL267106  44.622   3.032   5.938
 5332POPC   C1A67107  44.718   2.642   6.239
 5332POPC   D2A67108  44.618   2.918   6.580
 5332POPC   C3A67109  44.737   2.771   6.981
 5332POPC   C4A67110  44.493   2.770   7.358
 5332POPC   C1B67111  44.827   3.314   6.209
 5332POPC   C2B67112  44.963   3.294   6.583
 5332POPC   C3B67113  44.798   3.280   6.943
 5332POPC   C4B67114  44.860   3.127   7.358
 5333POPC   NC367115   2.174  15.013   5.345
 5333POPC   PO467116   2.860  15.036   5.420
 5333POPC   GL167117   2.579  15.053   5.774
 5333POPC   GL267118   2.543  15.380   5.836
 5333POPC   C1A67119   2.785  15.085   6.197
 5333POPC   D2A67120   2.823  14.999   6.627
 5333POPC   C3A67121   2.712  15.271   6.960
 5333POPC   C4A67122   2.778  15.127   7.364
 5333POPC   C1B67123   2.389  15.376   6.196
 5333POPC   C2B67124   2.493  15.537   6.575
 5333POPC   C3B67125   2.308  15.615   6.941
 5333POPC   C4B67126   2.356  15.406   7.320
 5334POPC   NC367127  25.232  35.672   5.382
 5334POPC   PO467128  24.728  35.226   5.234
 5334POPC   GL167129  24.975  35.339   5.661
 5334POPC   GL267130  24.949  35.055   5.883
 5334POPC   C1A67131  25.286  35.573   6.036
 5334POPC   D2A67132  25.461  35.569   6.487
 5334POPC   C3A67133  25.299  35.640   6.904
 5334POPC   C4A67134  25.426  35.510   7.353
 5334POPC   C1B67135  25.198  35.112   6.270
 5334POPC   C2B67136  25.253  35.145   6.721
 5334POPC   C3B67137  25.044  35.253   7.100
 5334POPC   C4B67138  24.964  35.012   7.417
 5335POPC   NC367139  30.763   0.324   5.553
 5335POPC   PO467140  30.992   0.969   5.506
 5335POPC   GL167141  30.841   0.718   5.886
 5335POPC   GL267142  30.917   0.395   6.025
 5335POPC   C1A67143  30.456   0.636   6.167
 5335POPC   D2A67144  30.230   0.535   6.544
 5335POPC   C3A67145  30.491   0.352   6.878
 5335POPC   C4A67146  30.492   0.316   7.313
 5335POPC   C1B67147  31.146   0.099   6.262
 5335POPC   C2B67148  31.031  44.922   6.677
 5335POPC   C3B67149  30.796  44.923   7.061
 5335POPC   C4B67150  30.979   0.106   7.396
 5336POPC   NC367151   0.017  14.951   5.598
 5336POPC   PO467152   0.479  15.329   5.309
 5336POPC   GL167153   0.498  15.300   5.763
 5336POPC   GL267154   0.149  15.389   5.838
 5336POPC   C1A67155   0.727  15.102   6.128
 5336POPC   D2A67156   0.742  14.832   6.494
 5336POPC   C3A67157   0.714  15.034   6.891
 5336POPC   C4A67158   0.559  15.079   7.289
 5336POPC   C1B67159   0.262  15.273   6.254
 5336POPC   C2B67160   0.249  15.174   6.667
 5336POPC   C3B67161   0.291  15.408   7.024
 5336POPC   C4B67162   0.060  15.177   7.322
 5337POPC   NC367163  24.751  33.224   5.353
 5337POPC   PO467164  24.075  33.174   5.370
 5337POPC   GL167165  24.254  32.909   5.709
 5337POPC   GL267166  24.624  32.830   5.737
 5337POPC   C1A67167  24.296  32.767   6.145
 5337POPC   D2A67168  24.415  32.969   6.551
 5337POPC   C3A67169  24.518  32.781   6.942
 5337POPC   C4A67170  24.371  32.806   7.399
 5337POPC   C1B67171  24.622  33.159   6.087
 5337POPC   C2B67172  24.853  33.254   6.487
 5337POPC   C3B67173  24.927  33.211   6.924
 5337POPC   C4B67174  24.630  33.184   7.219
 5338POPC   NC367175  13.266  15.157   5.537
 5338POPC   PO467176  13.909  15.324   5.436
 5338POPC   GL167177  13.780  14.957   5.738
 5338POPC   GL267178  13.487  14.814   5.868
 5338POPC   C1A67179  13.956  14.794   6.127
 5338POPC   D2A67180  13.957  15.022   6.546
 5338POPC   C3A67181  13.724  14.916   6.926
 5338POPC   C4A67182  13.628  15.224   7.234
 5338POPC   C1B67183  13.606  15.176   6.172
 5338POPC   C2B67184  13.338  15.352   6.531
 5338POPC   C3B67185  13.286  15.520   6.949
 5338POPC   C4B67186  13.148  15.431   7.369
 5339POPC   NC367187  17.565  21.713   5.309
 5339POPC   PO467188  17.619  21.150   5.418
 5339POPC   GL167189  17.538  21.332   5.810
 5339POPC   GL267190  17.721  21.629   5.794
 5339POPC   C1A67191  17.336  21.159   6.201
 5339POPC   D2A67192  17.517  21.126   6.625
 5339POPC   C3A67193  17.303  21.006   6.992
 5339POPC   C4A67194  17.163  21.206   7.347
 5339POPC   C1B67195  17.719  21.488   6.254
 5339POPC   C2B67196  17.624  21.644   6.672
 5339POPC   C3B67197  17.540  21.491   7.100
 5339POPC   C4B67198  17.650  21.669   7.508
 5340POPC   NC367199  22.955   3.345   5.481
 5340POPC   PO467200  23.481   3.857   5.486
 5340POPC   GL167201  23.211   3.653   5.771
 5340POPC   GL267202  22.920   3.854   5.795
 5340POPC   C1A67203  23.301   3.337   6.115
 5340POPC   D2A67204  23.260   3.513   6.526
 5340POPC   C3A67205  23.303   3.387   6.913
 5340POPC   C4A67206  23.230   3.496   7.294
 5340POPC   C1B67207  22.873   3.612   6.179
 5340POPC   C2B67208  22.752   3.443   6.589
 5340POPC   C3B67209  22.822   3.624   6.996
 5340POPC   C4B67210  22.752   3.566   7.424
 5341POPC   NC367211  11.893  21.865   5.413
 5341POPC   PO467212  11.856  22.539   5.491
 5341POPC   GL167213  12.002  22.226   5.807
 5341POPC   GL267214  12.187  21.922   5.844
 5341POPC   C1A67215  12.061  22.233   6.245
 5341POPC   D2A67216  12.078  22.369   6.651
 5341POPC   C3A67217  11.942  22.050   6.915
 5341POPC   C4A67218  11.687  22.200   7.218
 5341POPC   C1B67219  12.455  21.925   6.223
 5341POPC   C2B67220  12.393  21.974   6.658
 5341POPC   C3B67221  12.412  21.919   7.080
 5341POPC   C4B67222  12.233  21.894   7.474
 5342POPC   NC367223  38.892  27.360   5.080
 5342POPC   PO467224  38.716  26.868   5.527
 5342POPC   GL167225  38.545  26.959   5.905
 5342POPC   GL267226  38.339  27.259   5.987
 5342POPC   C1A67227  38.470  26.607   6.147
 5342POPC   D2A67228  38.695  26.525   6.492
 5342POPC   C3A67229  38.427  26.395   6.841
 5342POPC   C4A67230  38.497  26.640   7.221
 5342POPC   C1B67231  38.215  26.977   6.364
 5342POPC   C2B67232  38.462  26.901   6.747
 5342POPC   C3B67233  38.747  27.058   7.058
 5342POPC   C4B67234  38.592  27.270   7.411
 5343POPC   NC367235  32.354  10.171   5.488
 5343POPC   PO467236  31.972  10.641   5.373
 5343POPC   GL167237  32.072  10.493   5.799
 5343POPC   GL267238  32.409  10.390   5.953
 5343POPC   C1A67239  32.047  10.675   6.214
 5343POPC   D2A67240  32.253  10.866   6.552
 5343POPC   C3A67241  32.450  10.662   6.853
 5343POPC   C4A67242  32.365  10.683   7.288
 5343POPC   C1B67243  32.630  10.493   6.358
 5343POPC   C2B67244  32.693  10.240   6.723
 5343POPC   C3B67245  32.496  10.214   7.131
 5343POPC   C4B67246  32.674  10.344   7.559
 5344POPC   NC367247  27.920  39.534   5.418
 5344POPC   PO467248  27.590  38.966   5.444
 5344POPC   GL167249  27.720  39.278   5.785
 5344POPC   GL267250  27.639  39.059   5.961
 5344POPC   C1A67251  27.685  39.491   6.212
 5344POPC   D2A67252  27.725  39.327   6.643
 5344POPC   C3A67253  27.630  39.572   7.027
 5344POPC   C4A67254  27.830  39.405   7.398
 5344POPC   C1B67255  27.382  39.036   6.292
 5344POPC   C2B67256  27.292  39.078   6.726
 5344POPC   C3B67257  27.444  39.083   7.144
 5344POPC   C4B67258  27.235  38.769   7.385
 5345POPC   NC367259  19.213  37.213   5.274
 5345POPC   PO467260  18.803  36.749   5.370
 5345POPC   GL167261  18.880  36.930   5.776
 5345POPC   GL267262  19.235  36.939   5.705
 5345POPC   C1A67263  18.830  37.060   6.231
 5345POPC   D2A67264  18.541  37.191   6.578
 5345POPC   C3A67265  18.682  37.091   7.002
 5345POPC   C4A67266  18.732  37.267   7.405
 5345POPC   C1B67267  19.336  36.989   6.125
 5345POPC   C2B67268  19.274  36.802   6.517
 5345POPC   C3B67269  19.361  36.932   6.924
 5345POPC   C4B67270  19.103  36.871   7.279
 5346POPC   NC367271  10.316   6.057   5.398
 5346POPC   PO467272  10.670   5.477   5.413
 5346POPC   GL167273  10.505   5.719   5.762
 5346POPC   GL267274  10.841   5.812   5.880
 5346POPC   C1A67275  10.305   5.957   6.140
 5346POPC   D2A67276  10.145   5.975   6.571
 5346POPC   C3A67277  10.315   5.801   6.972
 5346POPC   C4A67278  10.235   6.013   7.346
 5346POPC   C1B67279  10.669   5.618   6.254
 5346POPC   C2B67280  10.654   5.816   6.600
 5346POPC   C3B67281  10.893   5.861   6.942
 5346POPC   C4B67282  10.720   5.866   7.338
 5347POPC   NC367283   5.045  21.588   5.320
 5347POPC   PO467284   5.613  21.684   5.570
 5347POPC   GL167285   5.311  21.495   5.839
 5347POPC   GL267286   4.937  21.443   5.804
 5347POPC   C1A67287   5.225  21.268   6.218
 5347POPC   D2A67288   4.982  21.364   6.589
 5347POPC   C3A67289   5.193  21.264   6.973
 5347POPC   C4A67290   5.481  21.547   7.169
 5347POPC   C1B67291   4.917  21.705   6.158
 5347POPC   C2B67292   4.849  21.877   6.547
 5347POPC   C3B67293   5.077  21.795   6.910
 5347POPC   C4B67294   4.997  21.626   7.288
 5348POPC   NC367295  10.987  38.615   5.337
 5348POPC   PO467296  10.336  38.691   5.214
 5348POPC   GL167297  10.517  38.649   5.703
 5348POPC   GL267298  10.495  38.965   5.936
 5348POPC   C1A67299  10.595  38.532   6.171
 5348POPC   D2A67300  10.723  38.212   6.493
 5348POPC   C3A67301  10.560  38.239   6.904
 5348POPC   C4A67302  10.823  38.262   7.260
 5348POPC   C1B67303  10.195  38.848   6.309
 5348POPC   C2B67304  10.308  38.760   6.753
 5348POPC   C3B67305  10.465  38.656   7.173
 5348POPC   C4B67306  10.173  38.564   7.518
 5349POPC   NC367307  21.948  33.160   5.176
 5349POPC   PO467308  22.584  32.955   5.377
 5349POPC   GL167309  22.289  33.009   5.723
 5349POPC   GL267310  22.182  33.291   5.611
 5349POPC   C1A67311  22.166  32.881   6.174
 5349POPC   D2A67312  22.318  32.748   6.601
 5349POPC   C3A67313  22.021  32.795   6.936
 5349POPC   C4A67314  21.922  32.732   7.390
 5349POPC   C1B67315  22.277  33.396   6.059
 5349POPC   C2B67316  22.459  33.397   6.479
 5349POPC   C3B67317  22.272  33.242   6.856
 5349POPC   C4B67318  22.346  32.983   7.281
 5350POPC   NC367319  10.150  17.826   5.014
 5350POPC   PO467320   9.800  17.444   5.379
 5350POPC   GL167321   9.597  17.526   5.771
 5350POPC   GL267322   9.451  17.841   5.841
 5350POPC   C1A67323   9.704  17.388   6.169
 5350POPC   D2A67324   9.639  17.543   6.573
 5350POPC   C3A67325   9.732  17.303   6.881
 5350POPC   C4A67326   9.735  17.388   7.282
 5350POPC   C1B67327   9.700  17.920   6.217
 5350POPC   C2B67328   9.852  18.016   6.652
 5350POPC   C3B67329   9.700  17.838   7.047
 5350POPC   C4B67330   9.783  17.828   7.527
 5351POPC   NC367331  21.407   9.999   5.351
 5351POPC   PO467332  21.646   9.370   5.339
 5351POPC   GL167333  21.486   9.636   5.745
 5351POPC   GL267334  21.702   9.959   5.807
 5351POPC   C1A67335  21.216   9.724   6.148
 5351POPC   D2A67336  21.071   9.523   6.540
 5351POPC   C3A67337  21.073   9.714   6.964
 5351POPC   C4A67338  21.009   9.954   7.347
 5351POPC   C1B67339  21.680   9.862   6.268
 5351POPC   C2B67340  21.513   9.820   6.711
 5351POPC   C3B67341  21.508   9.848   7.203
 5351POPC   C4B67342  21.705   9.859   7.635
 5352POPC   NC367343   1.631  26.889   5.095
 5352POPC   PO467344   2.084  26.711   5.619
 5352POPC   GL167345   1.964  26.980   5.983
 5352POPC   GL267346   2.247  27.059   6.168
 5352POPC   C1A67347   1.775  27.010   6.403
 5352POPC   D2A67348   2.099  26.983   6.686
 5352POPC   C3A67349   2.036  26.979   7.089
 5352POPC   C4A67350   1.912  26.530   7.225
 5352POPC   C1B67351   2.131  26.599   6.292
 5352POPC   C2B67352   2.271  26.375   6.676
 5352POPC   C3B67353   2.386  26.635   7.038
 5352POPC   C4B67354   2.222  26.830   7.522
 5353POPC   NC367355  12.401  12.046   5.610
 5353POPC   PO467356  11.746  11.852   5.449
 5353POPC   GL167357  11.928  12.123   5.787
 5353POPC   GL267358  11.739  12.348   5.942
 5353POPC   C1A67359  12.176  12.193   6.218
 5353POPC   D2A67360  12.091  12.303   6.662
 5353POPC   C3A67361  12.293  12.046   7.001
 5353POPC   C4A67362  12.217  12.159   7.399
 5353POPC   C1B67363  11.738  11.928   6.214
 5353POPC   C2B67364  11.642  11.966   6.668
 5353POPC   C3B67365  11.795  12.128   7.079
 5353POPC   C4B67366  11.788  11.910   7.457
 5354POPC   NC367367  18.451  27.378   5.479
 5354POPC   PO467368  18.325  28.067   5.370
 5354POPC   GL167369  18.174  27.753   5.686
 5354POPC   GL267370  18.287  27.968   5.909
 5354POPC   C1A67371  18.132  27.475   6.071
 5354POPC   D2A67372  18.192  27.307   6.501
 5354POPC   C3A67373  18.183  27.450   6.929
 5354POPC   C4A67374  18.320  27.468   7.327
 5354POPC   C1B67375  18.216  27.929   6.313
 5354POPC   C2B67376  18.398  27.831   6.661
 5354POPC   C3B67377  18.350  27.932   7.067
 5354POPC   C4B67378  18.653  27.836   7.350
 5355POPC   NC367379  11.948  10.710   5.476
 5355POPC   PO467380  12.532  10.837   5.729
 5355POPC   GL167381  12.178  10.640   5.928
 5355POPC   GL267382  11.954  10.926   5.926
 5355POPC   C1A67383  11.987  10.450   6.306
 5355POPC   D2A67384  11.990  10.215   6.732
 5355POPC   C3A67385  12.222  10.386   7.115
 5355POPC   C4A67386  11.979  10.449   7.529
 5355POPC   C1B67387  11.796  10.953   6.336
 5355POPC   C2B67388  11.729  10.704   6.703
 5355POPC   C3B67389  11.831  10.746   7.136
 5355POPC   C4B67390  11.851  10.926   7.567
 5356POPC   NC367391  33.359  11.577   5.417
 5356POPC   PO467392  33.083  11.056   5.470
 5356POPC   GL167393  33.182  11.328   5.844
 5356POPC   GL267394  33.014  11.699   5.787
 5356POPC   C1A67395  33.117  11.139   6.288
 5356POPC   D2A67396  32.731  11.081   6.577
 5356POPC   C3A67397  32.863  11.207   6.982
 5356POPC   C4A67398  33.240  11.401   7.130
 5356POPC   C1B67399  32.808  11.527   6.151
 5356POPC   C2B67400  32.964  11.548   6.571
 5356POPC   C3B67401  32.813  11.730   6.930
 5356POPC   C4B67402  32.983  11.792   7.296
 5357POPC   NC367403  23.870  11.205   5.603
 5357POPC   PO467404  24.113  10.716   5.264
 5357POPC   GL167405  23.926  10.574   5.686
 5357POPC   GL267406  23.655  10.790   5.833
 5357POPC   C1A67407  23.874  10.395   6.129
 5357POPC   D2A67408  23.849  10.525   6.522
 5357POPC   C3A67409  23.819  10.320   6.899
 5357POPC   C4A67410  23.809  10.513   7.289
 5357POPC   C1B67411  24.016  10.873   6.128
 5357POPC   C2B67412  24.105  10.961   6.538
 5357POPC   C3B67413  24.163  10.708   6.899
 5357POPC   C4B67414  24.157  10.865   7.294
 5358POPC   NC367415  30.124   2.660   5.241
 5358POPC   PO467416  30.837   2.694   5.387
 5358POPC   GL167417  30.714   2.642   5.802
 5358POPC   GL267418  30.888   2.979   5.888
 5358POPC   C1A67419  30.768   2.578   6.213
 5358POPC   D2A67420  30.639   2.647   6.594
 5358POPC   C3A67421  30.824   2.374   6.836
 5358POPC   C4A67422  30.752   2.558   7.189
 5358POPC   C1B67423  30.609   3.075   6.230
 5358POPC   C2B67424  30.390   3.088   6.630
 5358POPC   C3B67425  30.554   3.004   7.062
 5358POPC   C4B67426  30.597   3.269   7.446
 5359POPC   NC367427  21.117  38.712   5.424
 5359POPC   PO467428  21.824  38.583   5.127
 5359POPC   GL167429  21.630  38.674   5.607
 5359POPC   GL267430  21.348  38.446   5.787
 5359POPC   C1A67431  21.611  38.727   6.104
 5359POPC   D2A67432  21.529  38.396   6.428
 5359POPC   C3A67433  21.531  38.502   6.867
 5359POPC   C4A67434  21.572  38.420   7.268
 5359POPC   C1B67435  21.075  38.409   6.175
 5359POPC   C2B67436  21.060  38.395   6.652
 5359POPC   C3B67437  21.086  38.428   7.139
 5359POPC   C4B67438  20.982  38.551   7.566
 5360POPC   NC367439  25.973  16.461   5.136
 5360POPC   PO467440  26.081  17.041   5.401
 5360POPC   GL167441  26.211  16.839   5.756
 5360POPC   GL267442  25.913  16.670   5.871
 5360POPC   C1A67443  26.211  16.963   6.180
 5360POPC   D2A67444  26.014  16.838   6.553
 5360POPC   C3A67445  26.334  16.932   6.850
 5360POPC   C4A67446  26.337  16.948   7.295
 5360POPC   C1B67447  26.074  16.413   6.240
 5360POPC   C2B67448  26.246  16.406   6.692
 5360POPC   C3B67449  26.064  16.553   7.109
 5360POPC   C4B67450  26.325  16.428   7.517
 5361POPC   NC367451  28.849  19.990   5.526
 5361POPC   PO467452  28.332  19.570   5.419
 5361POPC   GL167453  28.273  19.643   5.847
 5361POPC   GL267454  28.620  19.547   5.863
 5361POPC   C1A67455  28.080  19.970   6.148
 5361POPC   D2A67456  27.852  20.106   6.518
 5361POPC   C3A67457  28.038  20.088   6.901
 5361POPC   C4A67458  27.993  19.741   7.135
 5361POPC   C1B67459  28.597  19.942   6.120
 5361POPC   C2B67460  28.471  19.886   6.509
 5361POPC   C3B67461  28.540  19.586   6.784
 5361POPC   C4B67462  28.501  19.682   7.196
 5362POPC   NC367463  43.201  36.971   5.033
 5362POPC   PO467464  43.354  36.760   5.614
 5362POPC   GL167465  43.271  36.824   5.957
 5362POPC   GL267466  43.109  37.109   5.934
 5362POPC   C1A67467  43.005  36.683   6.244
 5362POPC   D2A67468  43.085  36.469   6.605
 5362POPC   C3A67469  43.078  36.712   6.974
 5362POPC   C4A67470  42.924  36.854   7.407
 5362POPC   C1B67471  43.371  37.222   6.255
 5362POPC   C2B67472  43.346  36.983   6.608
 5362POPC   C3B67473  43.425  37.230   6.946
 5362POPC   C4B67474  43.370  36.999   7.246
 5363POPC   NC367475  37.597   3.819   5.065
 5363POPC   PO467476  37.944   3.293   5.360
 5363POPC   GL167477  37.687   3.384   5.721
 5363POPC   GL267478  37.925   3.430   5.893
 5363POPC   C1A67479  37.526   3.560   6.169
 5363POPC   D2A67480  37.405   3.329   6.576
 5363POPC   C3A67481  37.294   3.516   7.005
 5363POPC   C4A67482  37.397   3.536   7.494
 5363POPC   C1B67483  37.819   3.155   6.231
 5363POPC   C2B67484  37.922   3.260   6.628
 5363POPC   C3B67485  37.802   3.414   6.992
 5363POPC   C4B67486  37.696   3.803   7.165
 5364POPC   NC367487  36.142  36.177   5.329
 5364POPC   PO467488  35.650  35.855   5.690
 5364POPC   GL167489  36.087  35.876   5.779
 5364POPC   GL267490  36.216  36.189   5.946
 5364POPC   C1A67491  36.258  35.684   6.148
 5364POPC   D2A67492  36.293  35.793   6.604
 5364POPC   C3A67493  35.985  35.961   6.899
 5364POPC   C4A67494  36.150  36.023   7.311
 5364POPC   C1B67495  36.021  36.199   6.378
 5364POPC   C2B67496  36.014  36.475   6.764
 5364POPC   C3B67497  36.116  36.514   7.226
 5364POPC   C4B67498  36.009  36.394   7.692
 5365POPC   NC367499  34.647  27.134   5.141
 5365POPC   PO467500  34.450  26.532   5.225
 5365POPC   GL167501  34.502  26.753   5.649
 5365POPC   GL267502  34.258  26.991   5.771
 5365POPC   C1A67503  34.519  26.702   6.125
 5365POPC   D2A67504  34.765  26.661   6.524
 5365POPC   C3A67505  34.592  26.670   6.953
 5365POPC   C4A67506  34.828  26.746   7.299
 5365POPC   C1B67507  34.208  27.080   6.247
 5365POPC   C2B67508  34.517  27.112   6.569
 5365POPC   C3B67509  34.753  27.152   6.929
 5365POPC   C4B67510  34.451  27.118   7.252
 5366POPC   NC367511  35.850  15.413   5.563
 5366POPC   PO467512  36.406  15.162   5.185
 5366POPC   GL167513  36.261  15.135   5.646
 5366POPC   GL267514  36.000  14.948   5.813
 5366POPC   C1A67515  36.385  15.183   6.125
 5366POPC   D2A67516  36.466  15.361   6.590
 5366POPC   C3A67517  36.315  15.193   6.982
 5366POPC   C4A67518  36.215  15.177   7.418
 5366POPC   C1B67519  35.864  15.215   6.208
 5366POPC   C2B67520  35.917  15.219   6.664
 5366POPC   C3B67521  35.837  15.010   7.074
 5366POPC   C4B67522  35.679  15.111   7.495
 5367POPC   NC367523  22.774   5.769   5.193
 5367POPC   PO467524  23.308   6.223   5.249
 5367POPC   GL167525  23.226   6.051   5.682
 5367POPC   GL267526  23.010   5.739   5.690
 5367POPC   C1A67527  23.064   6.063   6.133
 5367POPC   D2A67528  23.098   5.788   6.536
 5367POPC   C3A67529  23.140   6.033   6.881
 5367POPC   C4A67530  22.968   6.144   7.247
 5367POPC   C1B67531  22.760   5.647   6.083
 5367POPC   C2B67532  22.617   5.620   6.517
 5367POPC   C3B67533  22.771   5.638   6.937
 5367POPC   C4B67534  22.697   5.741   7.377
 5368POPC   NC367535   6.382  41.485   5.568
 5368POPC   PO467536   7.069  41.575   5.330
 5368POPC   GL167537   6.885  41.570   5.732
 5368POPC   GL267538   6.832  41.220   5.717
 5368POPC   C1A67539   6.765  41.717   6.172
 5368POPC   D2A67540   6.926  41.926   6.506
 5368POPC   C3A67541   6.777  41.807   6.934
 5368POPC   C4A67542   7.008  41.786   7.323
 5368POPC   C1B67543   6.997  41.263   6.143
 5368POPC   C2B67544   6.913  41.411   6.572
 5368POPC   C3B67545   6.964  41.281   7.002
 5368POPC   C4B67546   6.536  41.220   7.104
 5369POPC   NC367547   7.268  41.924   5.629
 5369POPC   PO467548   7.180  42.567   5.377
 5369POPC   GL167549   7.346  42.404   5.775
 5369POPC   GL267550   7.665  42.546   5.810
 5369POPC   C1A67551   7.141  42.264   6.152
 5369POPC   D2A67552   7.111  42.410   6.522
 5369POPC   C3A67553   7.182  42.154   6.884
 5369POPC   C4A67554   7.279  42.264   7.257
 5369POPC   C1B67555   7.708  42.321   6.199
 5369POPC   C2B67556   7.581  42.216   6.563
 5369POPC   C3B67557   7.719  42.306   6.955
 5369POPC   C4B67558   7.773  42.144   7.360
 5370POPC   NC367559  13.993   0.551   5.519
 5370POPC   PO467560  14.726   0.616   5.502
 5370POPC   GL167561  14.472   0.341   5.812
 5370POPC   GL267562  14.133   0.121   5.764
 5370POPC   C1A67563  14.498   0.483   6.261
 5370POPC   D2A67564  14.411   0.657   6.684
 5370POPC   C3A67565  14.613   0.572   7.058
 5370POPC   C4A67566  14.568   0.705   7.480
 5370POPC   C1B67567  14.017   0.303   6.171
 5370POPC   C2B67568  14.194   0.215   6.595
 5370POPC   C3B67569  14.169   0.295   7.046
 5370POPC   C4B67570  14.101   0.437   7.473
 5371POPC   NC367571  41.130  32.150   5.260
 5371POPC   PO467572  41.767  32.112   5.414
 5371POPC   GL167573  41.673  32.055   5.919
 5371POPC   GL267574  41.380  32.256   6.119
 5371POPC   C1A67575  41.700  32.048   6.427
 5371POPC   D2A67576  41.635  32.317   6.778
 5371POPC   C3A67577  41.674  32.211   7.208
 5371POPC   C4A67578  41.768  32.341   7.634
 5371POPC   C1B67579  41.134  31.974   6.358
 5371POPC   C2B67580  40.966  32.114   6.717
 5371POPC   C3B67581  41.169  32.237   7.079
 5371POPC   C4B67582  41.245  32.216   7.516
 5372POPC   NC367583  15.046  10.298   5.446
 5372POPC   PO467584  15.527  10.816   5.365
 5372POPC   GL167585  15.358  10.637   5.748
 5372POPC   GL267586  15.002  10.632   5.851
 5372POPC   C1A67587  15.374  10.676   6.207
 5372POPC   D2A67588  15.476  10.352   6.498
 5372POPC   C3A67589  15.352  10.453   6.897
 5372POPC   C4A67590  15.319  10.362   7.301
 5372POPC   C1B67591  15.020  10.321   6.156
 5372POPC   C2B67592  14.958  10.281   6.600
 5372POPC   C3B67593  14.849  10.417   7.015
 5372POPC   C4B67594  14.978  10.719   7.299
 5373POPC   NC367595  23.857  37.798   5.107
 5373POPC   PO467596  23.797  38.398   5.384
 5373POPC   GL167597  23.490  38.344   5.757
 5373POPC   GL267598  23.741  38.494   5.887
 5373POPC   C1A67599  23.505  38.165   6.228
 5373POPC   D2A67600  23.298  38.127   6.665
 5373POPC   C3A67601  23.443  38.347   7.036
 5373POPC   C4A67602  23.687  38.262   7.398
 5373POPC   C1B67603  23.630  38.671   6.241
 5373POPC   C2B67604  23.782  38.456   6.611
 5373POPC   C3B67605  23.929  38.526   7.030
 5373POPC   C4B67606  23.763  38.760   7.418
 5374POPC   NC367607   1.509   3.539   5.600
 5374POPC   PO467608   2.273   3.368   5.487
 5374POPC   GL167609   2.018   3.444   5.813
 5374POPC   GL267610   1.865   3.749   5.866
 5374POPC   C1A67611   2.196   3.526   6.210
 5374POPC   D2A67612   2.502   3.478   6.523
 5374POPC   C3A67613   2.328   3.446   6.900
 5374POPC   C4A67614   2.146   3.678   7.222
 5374POPC   C1B67615   1.691   3.581   6.241
 5374POPC   C2B67616   1.858   3.473   6.624
 5374POPC   C3B67617   1.707   3.562   6.992
 5374POPC   C4B67618   1.677   3.876   7.274
 5375POPC   NC367619  31.496  18.195   5.383
 5375POPC   PO467620  31.329  18.817   5.390
 5375POPC   GL167621  31.390  18.511   5.778
 5375POPC   GL267622  31.713  18.333   5.818
 5375POPC   C1A67623  31.406  18.298   6.231
 5375POPC   D2A67624  31.471  18.015   6.611
 5375POPC   C3A67625  31.349  18.275   6.959
 5375POPC   C4A67626  31.068  18.584   7.006
 5375POPC   C1B67627  31.880  18.090   6.179
 5375POPC   C2B67628  31.966  18.285   6.591
 5375POPC   C3B67629  31.829  18.131   6.994
 5375POPC   C4B67630  31.722  18.256   7.438
 5376POPC   NC367631  41.657   8.391   5.524
 5376POPC   PO467632  41.891   7.810   5.502
 5376POPC   GL167633  41.538   7.899   5.804
 5376POPC   GL267634  41.555   8.227   5.978
 5376POPC   C1A67635  41.309   7.900   6.242
 5376POPC   D2A67636  41.365   8.151   6.650
 5376POPC   C3A67637  41.447   7.955   7.058
 5376POPC   C4A67638  41.685   8.029   7.458
 5376POPC   C1B67639  41.356   8.488   6.259
 5376POPC   C2B67640  41.361   8.687   6.675
 5376POPC   C3B67641  41.451   8.469   7.055
 5376POPC   C4B67642  41.241   8.292   7.391
 5377POPC   NC367643   7.173  31.088   5.387
 5377POPC   PO467644   7.718  31.441   5.365
 5377POPC   GL167645   7.567  31.253   5.731
 5377POPC   GL267646   7.425  31.568   5.803
 5377POPC   C1A67647   7.474  31.144   6.177
 5377POPC   D2A67648   7.195  31.179   6.530
 5377POPC   C3A67649   7.407  31.113   6.934
 5377POPC   C4A67650   7.556  31.249   7.351
 5377POPC   C1B67651   7.219  31.591   6.191
 5377POPC   C2B67652   7.431  31.618   6.611
 5377POPC   C3B67653   7.359  31.615   7.044
 5377POPC   C4B67654   7.229  31.935   7.303
 5378POPC   NC367655  40.303   4.116   5.358
 5378POPC   PO467656  39.847   4.616   5.536
 5378POPC   GL167657  40.112   4.412   5.800
 5378POPC   GL267658  39.789   4.355   5.990
 5378POPC   C1A67659  40.243   4.151   6.145
 5378POPC   D2A67660  40.281   4.238   6.592
 5378POPC   C3A67661  39.971   4.165   6.919
 5378POPC   C4A67662  40.112   3.969   7.304
 5378POPC   C1B67663  39.747   4.369   6.434
 5378POPC   C2B67664  39.442   4.394   6.755
 5378POPC   C3B67665  39.619   4.481   7.148
 5378POPC   C4B67666  39.784   4.446   7.557
 5379POPC   NC367667  38.715  11.290   5.510
 5379POPC   PO467668  39.337  11.317   5.308
 5379POPC   GL167669  39.263  11.408   5.747
 5379POPC   GL267670  38.996  11.692   5.739
 5379POPC   C1A67671  39.216  11.183   6.152
 5379POPC   D2A67672  39.060  11.104   6.561
 5379POPC   C3A67673  39.280  11.189   6.935
 5379POPC   C4A67674  39.039  11.204   7.242
 5379POPC   C1B67675  39.112  11.697   6.179
 5379POPC   C2B67676  39.257  11.569   6.565
 5379POPC   C3B67677  39.057  11.658   6.955
 5379POPC   C4B67678  39.274  11.690   7.308
 5380POPC   NC367679  44.054  10.083   5.331
 5380POPC   PO467680  43.752  10.675   5.469
 5380POPC   GL167681  43.744  10.424   5.823
 5380POPC   GL267682  44.067  10.309   5.795
 5380POPC   C1A67683  43.842  10.575   6.252
 5380POPC   D2A67684  44.150  10.619   6.616
 5380POPC   C3A67685  43.957  10.736   7.007
 5380POPC   C4A67686  43.665  10.473   7.200
 5380POPC   C1B67687  43.993  10.097   6.194
 5380POPC   C2B67688  43.853  10.188   6.598
 5380POPC   C3B67689  44.058  10.236   6.979
 5380POPC   C4B67690  43.993  10.092   7.393
 5381POPC   NC367691   5.909  26.389   5.449
 5381POPC   PO467692   6.239  25.797   5.430
 5381POPC   GL167693   5.883  25.922   5.711
 5381POPC   GL267694   5.639  25.649   5.827
 5381POPC   C1A67695   5.766  26.120   6.100
 5381POPC   D2A67696   5.948  26.068   6.505
 5381POPC   C3A67697   5.728  26.125   6.886
 5381POPC   C4A67698   5.873  25.963   7.277
 5381POPC   C1B67699   5.742  25.605   6.218
 5381POPC   C2B67700   5.607  25.692   6.607
 5381POPC   C3B67701   5.580  25.628   7.021
 5381POPC   C4B67702   5.443  25.622   7.445
 5382POPC   NC367703   1.506  30.768   5.301
 5382POPC   PO467704   0.839  30.449   5.497
 5382POPC   GL167705   1.247  30.596   5.715
 5382POPC   GL267706   1.614  30.513   5.744
 5382POPC   C1A67707   1.302  30.836   6.087
 5382POPC   D2A67708   1.006  30.806   6.437
 5382POPC   C3A67709   1.168  30.962   6.809
 5382POPC   C4A67710   1.099  30.839   7.222
 5382POPC   C1B67711   1.576  30.405   6.167
 5382POPC   C2B67712   1.472  30.591   6.559
 5382POPC   C3B67713   1.245  30.454   6.930
 5382POPC   C4B67714   1.392  30.458   7.369
 5383POPC   NC367715  24.820   9.741   5.485
 5383POPC   PO467716  24.156   9.754   5.346
 5383POPC   GL167717  24.402   9.689   5.780
 5383POPC   GL267718  24.536  10.036   5.838
 5383POPC   C1A67719  24.655   9.738   6.226
 5383POPC   D2A67720  24.791   9.983   6.631
 5383POPC   C3A67721  24.661   9.751   6.992
 5383POPC   C4A67722  24.319   9.614   7.253
 5383POPC   C1B67723  24.183   9.969   6.142
 5383POPC   C2B67724  23.871   9.931   6.485
 5383POPC   C3B67725  24.059   9.865   6.897
 5383POPC   C4B67726  24.086  10.097   7.300
 5384POPC   NC367727   5.016   3.006   5.493
 5384POPC   PO467728   4.813   3.626   5.196
 5384POPC   GL167729   4.815   3.421   5.719
 5384POPC   GL267730   4.805   3.060   5.928
 5384POPC   C1A67731   4.820   3.569   6.187
 5384POPC   D2A67732   5.070   3.585   6.613
 5384POPC   C3A67733   4.940   3.742   7.038
 5384POPC   C4A67734   5.074   3.613   7.446
 5384POPC   C1B67735   5.058   3.115   6.270
 5384POPC   C2B67736   5.162   3.057   6.679
 5384POPC   C3B67737   5.155   3.269   7.050
 5384POPC   C4B67738   5.334   3.164   7.438
 5385POPC   NC367739   0.871  13.553   5.471
 5385POPC   PO467740   1.568  13.810   5.418
 5385POPC   GL167741   1.363  13.535   5.732
 5385POPC   GL267742   1.096  13.706   5.896
 5385POPC   C1A67743   1.323  13.339   6.163
 5385POPC   D2A67744   1.355  13.439   6.598
 5385POPC   C3A67745   1.206  13.367   7.010
 5385POPC   C4A67746   1.422  13.693   7.226
 5385POPC   C1B67747   1.110  13.947   6.256
 5385POPC   C2B67748   1.332  13.973   6.612
 5385POPC   C3B67749   1.232  14.115   7.008
 5385POPC   C4B67750   0.957  13.914   7.330
 5386POPC   NC367751  37.051  39.003   5.503
 5386POPC   PO467752  36.846  39.662   5.422
 5386POPC   GL167753  36.993  39.438   5.816
 5386POPC   GL267754  36.753  39.168   5.880
 5386POPC   C1A67755  36.885  39.433   6.269
 5386POPC   D2A67756  36.689  39.321   6.611
 5386POPC   C3A67757  36.886  39.322   7.007
 5386POPC   C4A67758  36.805  39.446   7.426
 5386POPC   C1B67759  36.855  38.929   6.290
 5386POPC   C2B67760  37.126  39.039   6.641
 5386POPC   C3B67761  37.217  38.915   7.074
 5386POPC   C4B67762  37.014  38.973   7.469
 5387POPC   NC367763  15.246  28.981   5.211
 5387POPC   PO467764  14.849  29.523   5.375
 5387POPC   GL167765  15.095  29.311   5.708
 5387POPC   GL267766  15.195  28.953   5.723
 5387POPC   C1A67767  15.086  29.236   6.150
 5387POPC   D2A67768  15.071  29.446   6.540
 5387POPC   C3A67769  14.913  29.308   6.945
 5387POPC   C4A67770  15.015  29.499   7.357
 5387POPC   C1B67771  15.347  28.787   6.104
 5387POPC   C2B67772  15.265  28.920   6.517
 5387POPC   C3B67773  15.418  29.139   6.839
 5387POPC   C4B67774  15.233  29.047   7.222
 5388POPC   NC367775  37.357  20.454   5.681
 5388POPC   PO467776  37.759  21.011   5.569
 5388POPC   GL167777  37.561  20.885   5.896
 5388POPC   GL267778  37.242  20.943   5.851
 5388POPC   C1A67779  37.717  20.750   6.274
 5388POPC   D2A67780  37.783  20.918   6.660
 5388POPC   C3A67781  37.891  20.579   6.865
 5388POPC   C4A67782  37.924  20.549   7.252
 5388POPC   C1B67783  37.200  20.699   6.275
 5388POPC   C2B67784  37.402  20.557   6.664
 5388POPC   C3B67785  37.444  20.709   7.080
 5388POPC   C4B67786  37.102  20.553   7.251
 5389POPC   NC367787  27.842   3.812   5.601
 5389POPC   PO467788  27.352   4.181   5.318
 5389POPC   GL167789  27.478   4.252   5.741
 5389POPC   GL267790  27.332   4.575   5.803
 5389POPC   C1A67791  27.642   4.248   6.173
 5389POPC   D2A67792  27.707   3.954   6.507
 5389POPC   C3A67793  27.661   4.120   6.897
 5389POPC   C4A67794  27.832   4.084   7.280
 5389POPC   C1B67795  27.341   4.722   6.216
 5389POPC   C2B67796  27.537   4.578   6.606
 5389POPC   C3B67797  27.378   4.522   7.019
 5389POPC   C4B67798  27.421   4.795   7.411
 5390POPC   NC367799   9.924  18.701   5.443
 5390POPC   PO467800   9.551  19.240   5.674
 5390POPC   GL167801   9.760  19.130   5.990
 5390POPC   GL267802   9.733  18.797   5.928
 5390POPC   C1A67803  10.036  19.295   6.301
 5390POPC   D2A67804   9.919  19.269   6.730
 5390POPC   C3A67805   9.884  18.994   7.106
 5390POPC   C4A67806  10.021  19.180   7.494
 5390POPC   C1B67807   9.743  18.856   6.413
 5390POPC   C2B67808   9.493  18.998   6.764
 5390POPC   C3B67809   9.387  18.860   7.175
 5390POPC   C4B67810   9.505  18.538   7.422
 5391POPC   NC367811  13.268  35.125   5.142
 5391POPC   PO467812  12.909  35.522   5.599
 5391POPC   GL167813  12.721  35.563   5.921
 5391POPC   GL267814  12.628  35.230   5.925
 5391POPC   C1A67815  12.809  35.772   6.284
 5391POPC   D2A67816  12.548  35.705   6.593
 5391POPC   C3A67817  12.640  35.426   6.893
 5391POPC   C4A67818  12.727  35.548   7.293
 5391POPC   C1B67819  12.727  35.248   6.360
 5391POPC   C2B67820  13.053  35.198   6.649
 5391POPC   C3B67821  13.041  35.118   7.075
 5391POPC   C4B67822  12.957  35.147   7.547
 5392POPC   NC367823  25.645  23.321   5.477
 5392POPC   PO467824  25.200  23.793   5.451
 5392POPC   GL167825  25.334  23.625   5.850
 5392POPC   GL267826  25.045  23.628   6.005
 5392POPC   C1A67827  25.427  23.461   6.292
 5392POPC   D2A67828  25.059  23.345   6.570
 5392POPC   C3A67829  25.076  23.547   6.964
 5392POPC   C4A67830  25.422  23.677   7.199
 5392POPC   C1B67831  25.162  23.918   6.333
 5392POPC   C2B67832  25.138  24.155   6.747
 5392POPC   C3B67833  25.098  24.084   7.161
 5392POPC   C4B67834  24.922  23.799   7.431
 5393POPC   NC367835  39.840  26.763   5.006
 5393POPC   PO467836  40.398  26.668   5.411
 5393POPC   GL167837  40.175  26.590   5.825
 5393POPC   GL267838  39.914  26.833   5.751
 5393POPC   C1A67839  39.892  26.682   6.241
 5393POPC   D2A67840  39.694  26.754   6.644
 5393POPC   C3A67841  39.918  26.766   7.034
 5393POPC   C4A67842  40.254  26.654   7.318
 5393POPC   C1B67843  40.173  27.065   6.087
 5393POPC   C2B67844  40.191  26.997   6.572
 5393POPC   C3B67845  40.284  27.117   7.014
 5393POPC   C4B67846  40.220  27.200   7.488
 5394POPC   NC367847  41.292  37.564   5.488
 5394POPC   PO467848  41.720  38.037   5.477
 5394POPC   GL167849  41.715  37.748   5.870
 5394POPC   GL267850  41.366  37.724   5.972
 5394POPC   C1A67851  41.711  37.665   6.355
 5394POPC   D2A67852  41.337  37.819   6.608
 5394POPC   C3A67853  41.417  37.988   7.022
 5394POPC   C4A67854  41.634  37.736   7.320
 5394POPC   C1B67855  41.256  37.415   6.299
 5394POPC   C2B67856  41.463  37.284   6.675
 5394POPC   C3B67857  41.457  37.252   7.120
 5394POPC   C4B67858  41.497  37.306   7.581
 5395POPC   NC367859   3.602  19.512   5.448
 5395POPC   PO467860   3.896  18.950   5.365
 5395POPC   GL167861   3.683  19.066   5.769
 5395POPC   GL267862   3.362  18.922   5.889
 5395POPC   C1A67863   3.688  19.164   6.232
 5395POPC   D2A67864   3.872  19.321   6.639
 5395POPC   C3A67865   3.633  19.216   6.987
 5395POPC   C4A67866   3.546  19.254   7.400
 5395POPC   C1B67867   3.373  18.744   6.258
 5395POPC   C2B67868   3.362  18.954   6.628
 5395POPC   C3B67869   3.400  18.766   7.006
 5395POPC   C4B67870   3.240  18.815   7.386
 5396POPC   NC367871  33.477  22.402   5.534
 5396POPC   PO467872  32.886  22.012   5.418
 5396POPC   GL167873  33.061  22.127   5.779
 5396POPC   GL267874  33.293  21.916   5.833
 5396POPC   C1A67875  32.990  22.111   6.235
 5396POPC   D2A67876  32.883  21.974   6.667
 5396POPC   C3A67877  33.074  22.279   6.958
 5396POPC   C4A67878  32.868  22.531   7.256
 5396POPC   C1B67879  33.331  21.732   6.246
 5396POPC   C2B67880  33.204  21.582   6.675
 5396POPC   C3B67881  33.263  21.821   7.109
 5396POPC   C4B67882  33.370  21.944   7.569
 5397POPC   NC367883   2.768  18.203   4.898
 5397POPC   PO467884   2.992  18.528   5.463
 5397POPC   GL167885   2.930  18.413   5.872
 5397POPC   GL267886   2.609  18.331   5.914
 5397POPC   C1A67887   2.849  18.577   6.284
 5397POPC   D2A67888   2.575  18.427   6.615
 5397POPC   C3A67889   2.717  18.525   7.043
 5397POPC   C4A67890   2.637  18.486   7.489
 5397POPC   C1B67891   2.748  18.062   6.231
 5397POPC   C2B67892   2.539  17.870   6.574
 5397POPC   C3B67893   2.550  18.037   6.967
 5397POPC   C4B67894   2.814  18.004   7.320
 5398POPC   NC367895  41.498  29.385   5.213
 5398POPC   PO467896  41.923  28.823   5.430
 5398POPC   GL167897  41.695  29.124   5.726
 5398POPC   GL267898  41.421  29.386   5.737
 5398POPC   C1A67899  41.669  29.099   6.171
 5398POPC   D2A67900  41.522  29.000   6.581
 5398POPC   C3A67901  41.871  28.965   6.851
 5398POPC   C4A67902  41.716  28.911   7.245
 5398POPC   C1B67903  41.415  29.553   6.175
 5398POPC   C2B67904  41.687  29.485   6.573
 5398POPC   C3B67905  41.611  29.384   7.005
 5398POPC   C4B67906  41.792  29.380   7.431
 5399POPC   NC367907  29.384  40.234   5.279
 5399POPC   PO467908  29.390  39.593   5.395
 5399POPC   GL167909  29.328  39.949   5.729
 5399POPC   GL267910  28.985  40.125   5.775
 5399POPC   C1A67911  29.329  40.092   6.186
 5399POPC   D2A67912  29.593  40.145   6.555
 5399POPC   C3A67913  29.392  40.035   6.915
 5399POPC   C4A67914  29.260  39.931   7.302
 5399POPC   C1B67915  28.843  40.263   6.196
 5399POPC   C2B67916  28.869  40.050   6.600
 5399POPC   C3B67917  28.906  40.172   7.022
 5399POPC   C4B67918  28.925  40.234   7.505
 5400POPC   NC367919  34.073  27.364   5.428
 5400POPC   PO467920  33.911  26.736   5.406
 5400POPC   GL167921  33.794  26.802   5.815
 5400POPC   GL267922  33.650  27.148   5.734
 5400POPC   C1A67923  33.971  26.641   6.207
 5400POPC   D2A67924  34.228  26.683   6.598
 5400POPC   C3A67925  34.065  26.741   7.045
 5400POPC   C4A67926  33.977  26.498   7.427
 5400POPC   C1B67927  33.708  27.141   6.191
 5400POPC   C2B67928  33.787  26.953   6.575
 5400POPC   C3B67929  33.553  26.965   6.917
 5400POPC   C4B67930  33.594  27.189   7.270
 5401POPC   NC367931   6.360  36.444   5.428
 5401POPC   PO467932   6.580  35.836   5.147
 5401POPC   GL167933   6.497  35.975   5.602
 5401POPC   GL267934   6.288  35.767   5.805
 5401POPC   C1A67935   6.472  36.193   6.050
 5401POPC   D2A67936   6.663  36.169   6.475
 5401POPC   C3A67937   6.521  36.290   6.902
 5401POPC   C4A67938   6.646  36.143   7.294
 5401POPC   C1B67939   6.235  35.774   6.248
 5401POPC   C2B67940   6.228  35.913   6.690
 5401POPC   C3B67941   6.291  35.828   7.134
 5401POPC   C4B67942   6.610  35.669   7.467
 5402POPC   NC367943  37.015  32.674   5.609
 5402POPC   PO467944  36.948  33.233   5.245
 5402POPC   GL167945  36.701  33.070   5.714
 5402POPC   GL267946  36.508  32.738   5.791
 5402POPC   C1A67947  36.744  33.008   6.211
 5402POPC   D2A67948  36.742  33.122   6.677
 5402POPC   C3A67949  37.129  33.143   6.941
 5402POPC   C4A67950  37.267  33.082   7.375
 5402POPC   C1B67951  36.300  32.768   6.229
 5402POPC   C2B67952  36.389  32.751   6.702
 5402POPC   C3B67953  36.684  32.751   7.050
 5402POPC   C4B67954  36.747  33.104   7.293
 5403POPC   NC367955  31.585  33.432   5.573
 5403POPC   PO467956  31.338  34.065   5.460
 5403POPC   GL167957  31.377  33.795   5.840
 5403POPC   GL267958  31.133  33.520   5.828
 5403POPC   C1A67959  31.547  33.856   6.239
 5403POPC   D2A67960  31.398  34.114   6.564
 5403POPC   C3A67961  31.508  33.935   6.981
 5403POPC   C4A67962  31.559  34.054   7.406
 5403POPC   C1B67963  31.162  33.516   6.251
 5403POPC   C2B67964  31.229  33.644   6.646
 5403POPC   C3B67965  31.103  33.506   7.019
 5403POPC   C4B67966  31.394  33.471   7.327
 5404POPC   NC367967  13.452   8.715   5.546
 5404POPC   PO467968  13.185   9.307   5.320
 5404POPC   GL167969  13.326   9.166   5.766
 5404POPC   GL267970  13.669   9.095   5.843
 5404POPC   C1A67971  13.338   8.964   6.217
 5404POPC   D2A67972  13.219   8.783   6.637
 5404POPC   C3A67973  13.488   8.674   6.965
 5404POPC   C4A67974  13.920   8.521   7.042
 5404POPC   C1B67975  13.952   9.044   6.182
 5404POPC   C2B67976  13.949   8.823   6.587
 5404POPC   C3B67977  13.848   9.032   6.959
 5404POPC   C4B67978  13.514   9.167   7.234
 5405POPC   NC367979   1.800  17.693   5.402
 5405POPC   PO467980   2.300  17.250   5.608
 5405POPC   GL167981   2.115  17.633   5.821
 5405POPC   GL267982   1.820  17.849   5.901
 5405POPC   C1A67983   2.021  17.581   6.258
 5405POPC   D2A67984   1.830  17.408   6.611
 5405POPC   C3A67985   2.143  17.421   6.928
 5405POPC   C4A67986   2.323  17.690   7.239
 5405POPC   C1B67987   1.702  18.076   6.294
 5405POPC   C2B67988   1.426  17.971   6.648
 5405POPC   C3B67989   1.568  17.674   6.937
 5405POPC   C4B67990   1.812  17.689   7.252
 5406POPC   NC367991  27.320  37.682   5.237
 5406POPC   PO467992  27.968  37.427   5.471
 5406POPC   GL167993  27.663  37.434   5.798
 5406POPC   GL267994  27.509  37.750   5.724
 5406POPC   C1A67995  27.587  37.614   6.214
 5406POPC   D2A67996  27.789  37.778   6.551
 5406POPC   C3A67997  27.619  37.650   6.906
 5406POPC   C4A67998  27.589  37.744   7.309
 5406POPC   C1B67999  27.223  37.940   6.056
 5406POPC   C2B68000  27.282  37.945   6.522
 5406POPC   C3B68001  27.161  37.863   6.960
 5406POPC   C4B68002  27.080  37.877   7.371
 5407POPC   NC368003  13.052   5.907   5.302
 5407POPC   PO468004  12.403   5.582   5.444
 5407POPC   GL168005  12.693   5.879   5.686
 5407POPC   GL268006  13.059   5.811   5.799
 5407POPC   C1A68007  12.674   6.041   6.093
 5407POPC   D2A68008  12.823   5.845   6.442
 5407POPC   C3A68009  12.710   6.003   6.837
 5407POPC   C4A68010  12.971   6.107   7.172
 5407POPC   C1B68011  13.085   5.478   6.093
 5407POPC   C2B68012  13.141   5.460   6.512
 5407POPC   C3B68013  13.116   5.668   6.887
 5407POPC   C4B68014  13.221   5.614   7.280
 5408POPC   NC368015   3.087  41.615   5.503
 5408POPC   PO468016   2.603  41.183   5.277
 5408POPC   GL168017   2.431  41.317   5.740
 5408POPC   GL268018   2.696  41.554   5.849
 5408POPC   C1A68019   2.511  41.247   6.223
 5408POPC   D2A68020   2.601  41.513   6.538
 5408POPC   C3A68021   2.655  41.384   6.943
 5408POPC   C4A68022   2.669  41.763   7.207
 5408POPC   C1B68023   2.996  41.493   6.202
 5408POPC   C2B68024   3.176  41.738   6.527
 5408POPC   C3B68025   3.193  41.844   6.958
 5408POPC   C4B68026   3.079  41.490   7.197
 5409POPC   NC368027   3.019  35.056   5.533
 5409POPC   PO468028   2.571  35.576   5.405
 5409POPC   GL168029   2.736  35.401   5.777
 5409POPC   GL268030   3.069  35.505   5.789
 5409POPC   C1A68031   2.798  35.292   6.206
 5409POPC   D2A68032   2.564  35.459   6.542
 5409POPC   C3A68033   2.494  35.139   6.826
 5409POPC   C4A68034   2.682  35.128   7.230
 5409POPC   C1B68035   3.186  35.615   6.189
 5409POPC   C2B68036   3.251  35.375   6.532
 5409POPC   C3B68037   2.971  35.398   6.857
 5409POPC   C4B68038   3.040  35.653   7.201
 5410POPC   NC368039   2.330  43.040   5.470
 5410POPC   PO468040   1.764  43.368   5.289
 5410POPC   GL168041   1.818  43.430   5.786
 5410POPC   GL268042   2.156  43.292   5.858
 5410POPC   C1A68043   1.912  43.335   6.288
 5410POPC   D2A68044   2.075  43.048   6.625
 5410POPC   C3A68045   1.860  43.056   7.004
 5410POPC   C4A68046   1.922  42.846   7.416
 5410POPC   C1B68047   2.370  43.114   6.209
 5410POPC   C2B68048   2.539  43.318   6.575
 5410POPC   C3B68049   2.258  43.457   6.899
 5410POPC   C4B68050   2.182  43.274   7.319
 5411POPC   NC368051   3.905  42.889   5.436
 5411POPC   PO468052   4.488  43.181   5.586
 5411POPC   GL168053   4.366  43.142   5.994
 5411POPC   GL268054   4.039  43.052   5.896
 5411POPC   C1A68055   4.201  43.224   6.398
 5411POPC   D2A68056   4.076  43.168   6.796
 5411POPC   C3A68057   4.359  43.156   7.111
 5411POPC   C4A68058   4.295  43.296   7.546
 5411POPC   C1B68059   3.999  42.766   6.212
 5411POPC   C2B68060   3.815  42.772   6.626
 5411POPC   C3B68061   3.884  42.755   7.081
 5411POPC   C4B68062   4.179  42.794   7.439
 5412POPC   NC368063  25.162   2.457   5.138
 5412POPC   PO468064  25.663   2.118   5.439
 5412POPC   GL168065  25.322   2.288   5.748
 5412POPC   GL268066  24.950   2.383   5.651
 5412POPC   C1A68067  25.284   2.283   6.230
 5412POPC   D2A68068  25.283   2.030   6.598
 5412POPC   C3A68069  25.479   2.077   7.003
 5412POPC   C4A68070  25.541   1.769   7.349
 5412POPC   C1B68071  24.771   2.331   6.075
 5412POPC   C2B68072  24.844   2.368   6.541
 5412POPC   C3B68073  24.925   2.117   6.959
 5412POPC   C4B68074  24.873   2.033   7.440
 5413POPC   NC368075  34.905   2.780   5.378
 5413POPC   PO468076  35.707   2.408   5.479
 5413POPC   GL168077  35.519   2.612   5.837
 5413POPC   GL268078  35.143   2.678   5.869
 5413POPC   C1A68079  35.520   2.829   6.202
 5413POPC   D2A68080  35.289   2.862   6.569
 5413POPC   C3A68081  35.521   2.936   6.924
 5413POPC   C4A68082  35.420   3.063   7.333
 5413POPC   C1B68083  35.008   3.022   6.163
 5413POPC   C2B68084  34.976   3.261   6.583
 5413POPC   C3B68085  35.019   3.026   7.007
 5413POPC   C4B68086  34.904   2.994   7.478
 5414POPC   NC368087  11.917  16.130   5.081
 5414POPC   PO468088  11.262  16.079   5.282
 5414POPC   GL168089  11.179  15.937   5.737
 5414POPC   GL268090  11.199  16.219   5.886
 5414POPC   C1A68091  11.336  15.868   6.217
 5414POPC   D2A68092  11.279  15.592   6.611
 5414POPC   C3A68093  11.586  15.630   6.942
 5414POPC   C4A68094  11.622  15.953   7.242
 5414POPC   C1B68095  10.958  16.375   6.214
 5414POPC   C2B68096  11.137  16.245   6.562
 5414POPC   C3B68097  11.320  16.090   6.876
 5414POPC   C4B68098  11.118  15.995   7.256
 5415POPC   NC368099   2.189  15.968   5.481
 5415POPC   PO468100   1.663  15.581   5.488
 5415POPC   GL168101   1.801  15.835   5.849
 5415POPC   GL268102   2.112  15.719   5.927
 5415POPC   C1A68103   1.905  16.101   6.232
 5415POPC   D2A68104   2.236  16.112   6.609
 5415POPC   C3A68105   2.076  16.066   7.022
 5415POPC   C4A68106   1.612  16.142   7.148
 5415POPC   C1B68107   2.034  15.649   6.382
 5415POPC   C2B68108   1.835  15.792   6.676
 5415POPC   C3B68109   1.619  15.680   6.955
 5415POPC   C4B68110   1.906  15.660   7.269
 5416POPC   NC368111  43.103  18.183   5.214
 5416POPC   PO468112  42.431  18.123   5.116
 5416POPC   GL168113  42.724  18.273   5.597
 5416POPC   GL268114  43.096  18.156   5.723
 5416POPC   C1A68115  42.886  18.424   6.088
 5416POPC   D2A68116  42.962  18.315   6.544
 5416POPC   C3A68117  43.134  18.369   6.977
 5416POPC   C4A68118  42.853  18.150   7.287
 5416POPC   C1B68119  43.184  18.012   6.172
 5416POPC   C2B68120  43.313  17.936   6.595
 5416POPC   C3B68121  43.442  17.940   7.011
 5416POPC   C4B68122  43.409  18.177   7.382
 5417POPC   NC368123   3.606  43.789   5.195
 5417POPC   PO468124   3.508  43.137   5.389
 5417POPC   GL168125   3.468  43.119   5.792
 5417POPC   GL268126   3.208  42.867   5.757
 5417POPC   C1A68127   3.602  43.081   6.201
 5417POPC   D2A68128   3.634  43.311   6.546
 5417POPC   C3A68129   3.587  43.180   6.952
 5417POPC   C4A68130   3.880  43.249   7.280
 5417POPC   C1B68131   3.233  42.707   6.171
 5417POPC   C2B68132   3.326  42.861   6.580
 5417POPC   C3B68133   3.352  42.726   7.016
 5417POPC   C4B68134   3.049  42.882   7.296
 5418POPC   NC368135  28.045  22.939   5.544
 5418POPC   PO468136  28.616  22.639   5.449
 5418POPC   GL168137  28.462  22.704   5.827
 5418POPC   GL268138  28.332  23.059   5.952
 5418POPC   C1A68139  28.643  22.746   6.209
 5418POPC   D2A68140  28.428  22.850   6.572
 5418POPC   C3A68141  28.578  22.821   6.975
 5418POPC   C4A68142  28.349  23.138   7.234
 5418POPC   C1B68143  28.096  22.712   6.182
 5418POPC   C2B68144  28.031  22.493   6.590
 5418POPC   C3B68145  28.087  22.699   6.997
 5418POPC   C4B68146  28.216  22.619   7.409
 5419POPC   NC368147  20.751  34.756   5.317
 5419POPC   PO468148  20.189  34.445   5.403
 5419POPC   GL168149  20.430  34.693   5.720
 5419POPC   GL268150  20.735  34.475   5.780
 5419POPC   C1A68151  20.601  34.827   6.141
 5419POPC   D2A68152  20.786  34.580   6.475
 5419POPC   C3A68153  20.808  34.723   6.893
 5419POPC   C4A68154  20.556  34.952   7.118
 5419POPC   C1B68155  20.395  34.351   6.091
 5419POPC   C2B68156  20.319  34.347   6.528
 5419POPC   C3B68157  20.319  34.500   6.955
 5419POPC   C4B68158  20.181  34.236   7.287
 5420POPC   NC368159  44.902   6.306   5.559
 5420POPC   PO468160   0.341   5.838   5.314
 5420POPC   GL168161   0.320   5.952   5.748
 5420POPC   GL268162   0.648   6.084   5.892
 5420POPC   C1A68163   0.318   5.812   6.182
 5420POPC   D2A68164   0.106   5.800   6.566
 5420POPC   C3A68165   0.293   5.728   6.944
 5420POPC   C4A68166   0.121   5.910   7.297
 5420POPC   C1B68167   0.652   6.335   6.258
 5420POPC   C2B68168   0.534   6.111   6.646
 5420POPC   C3B68169   0.509   6.177   7.095
 5420POPC   C4B68170   0.673   5.975   7.510
 5421POPC   NC368171  20.485  44.215   5.428
 5421POPC   PO468172  20.315  44.857   5.363
 5421POPC   GL168173  20.491  44.657   5.696
 5421POPC   GL268174  20.169  44.518   5.756
 5421POPC   C1A68175  20.578  44.770   6.109
 5421POPC   D2A68176  20.625  44.981   6.493
 5421POPC   C3A68177  20.867  44.740   6.772
 5421POPC   C4A68178  20.781  44.733   7.199
 5421POPC   C1B68179  20.346  44.309   6.108
 5421POPC   C2B68180  20.289  44.526   6.490
 5421POPC   C3B68181  20.441  44.475   6.888
 5421POPC   C4B68182  20.330  44.451   7.282
 5422POPC   NC368183  37.769  38.539   5.390
 5422POPC   PO468184  37.183  38.087   5.498
 5422POPC   GL168185  37.563  38.286   5.772
 5422POPC   GL268186  37.985  38.273   5.758
 5422POPC   C1A68187  37.634  38.602   6.118
 5422POPC   D2A68188  37.580  38.467   6.560
 5422POPC   C3A68189  37.700  38.675   6.995
 5422POPC   C4A68190  37.835  38.598   7.432
 5422POPC   C1B68191  37.917  38.207   6.195
 5422POPC   C2B68192  38.004  38.147   6.616
 5422POPC   C3B68193  37.731  38.155   6.932
 5422POPC   C4B68194  37.844  38.117   7.298
 5423POPC   NC368195  13.952  33.664   5.453
 5423POPC   PO468196  13.382  34.000   5.477
 5423POPC   GL168197  13.643  33.913   5.823
 5423POPC   GL268198  13.579  33.588   5.791
 5423POPC   C1A68199  13.741  33.765   6.232
 5423POPC   D2A68200  13.752  33.978   6.613
 5423POPC   C3A68201  13.508  33.898   6.959
 5423POPC   C4A68202  13.660  34.006   7.345
 5423POPC   C1B68203  13.378  33.398   6.161
 5423POPC   C2B68204  13.510  33.478   6.599
 5423POPC   C3B68205  13.463  33.388   7.043
 5423POPC   C4B68206  13.872  33.535   7.227
 5424POPC   NC368207  29.569  16.050   5.381
 5424POPC   PO468208  28.961  15.723   5.493
 5424POPC   GL168209  29.247  15.958   5.780
 5424POPC   GL268210  29.382  15.600   5.820
 5424POPC   C1A68211  29.236  16.209   6.204
 5424POPC   D2A68212  29.143  16.042   6.632
 5424POPC   C3A68213  29.290  16.238   7.029
 5424POPC   C4A68214  29.526  16.086   7.394
 5424POPC   C1B68215  29.105  15.714   6.195
 5424POPC   C2B68216  28.857  15.600   6.532
 5424POPC   C3B68217  29.027  15.633   6.938
 5424POPC   C4B68218  28.939  15.936   7.245
 5425POPC   NC368219   8.476  40.990   5.351
 5425POPC   PO468220   7.811  40.745   5.330
 5425POPC   GL168221   8.135  40.727   5.656
 5425POPC   GL268222   8.225  41.066   5.791
 5425POPC   C1A68223   8.246  40.631   6.083
 5425POPC   D2A68224   8.148  40.835   6.474
 5425POPC   C3A68225   8.289  40.666   6.859
 5425POPC   C4A68226   8.231  40.658   7.267
 5425POPC   C1B68227   8.511  41.083   6.170
 5425POPC   C2B68228   8.463  41.201   6.643
 5425POPC   C3B68229   8.377  41.105   7.094
 5425POPC   C4B68230   8.459  41.015   7.578
 5426POPC   NC368231  38.852  20.002   5.375
 5426POPC   PO468232  39.472  19.737   5.516
 5426POPC   GL168233  39.122  19.777   5.729
 5426POPC   GL268234  39.193  20.125   5.777
 5426POPC   C1A68235  38.966  19.687   6.103
 5426POPC   D2A68236  39.215  19.680   6.423
 5426POPC   C3A68237  39.105  19.720   6.845
 5426POPC   C4A68238  39.336  19.473   7.146
 5426POPC   C1B68239  39.312  20.166   6.241
 5426POPC   C2B68240  39.478  20.031   6.655
 5426POPC   C3B68241  39.509  20.133   7.055
 5426POPC   C4B68242  39.142  20.022   7.251
 5427POPC   NC368243  40.681  33.042   5.314
 5427POPC   PO468244  40.807  32.419   5.439
 5427POPC   GL168245  40.669  32.755   5.794
 5427POPC   GL268246  40.523  33.144   5.780
 5427POPC   C1A68247  40.905  32.991   6.124
 5427POPC   D2A68248  41.198  33.127   6.439
 5427POPC   C3A68249  40.995  33.013   6.830
 5427POPC   C4A68250  41.085  33.120   7.234
 5427POPC   C1B68251  40.393  33.023   6.180
 5427POPC   C2B68252  40.413  33.110   6.598
 5427POPC   C3B68253  40.452  32.951   6.987
 5427POPC   C4B68254  40.621  33.035   7.396
 5428POPC   NC368255  19.013  44.933   5.435
 5428POPC   PO468256  19.210  44.257   5.470
 5428POPC   GL168257  18.995  44.527   5.836
 5428POPC   GL268258  18.789  44.851   5.888
 5428POPC   C1A68259  18.998  44.598   6.321
 5428POPC   D2A68260  19.317  44.537   6.688
 5428POPC   C3A68261  19.217  44.473   7.138
 5428POPC   C4A68262  19.195  44.773   7.479
 5428POPC   C1B68263  18.997   0.131   6.202
 5428POPC   C2B68264  19.150   0.063   6.633
 5428POPC   C3B68265  18.944   0.015   7.046
 5428POPC   C4B68266  18.893   0.171   7.471
 5429POPC   NC368267   8.718  10.876   5.481
 5429POPC   PO468268   8.960  10.142   5.470
 5429POPC   GL168269   8.828  10.361   5.829
 5429POPC   GL268270   9.061  10.645   5.811
 5429POPC   C1A68271   8.905  10.225   6.265
 5429POPC   D2A68272   9.234  10.254   6.610
 5429POPC   C3A68273   9.059  10.224   7.014
 5429POPC   C4A68274   8.741  10.357   7.276
 5429POPC   C1B68275   8.831  10.734   6.191
 5429POPC   C2B68276   8.832  10.583   6.627
 5429POPC   C3B68277   8.956  10.723   7.008
 5429POPC   C4B68278   9.160  10.908   7.323
 5430POPC   NC368279  22.361  21.088   5.593
 5430POPC   PO468280  22.169  21.789   5.447
 5430POPC   GL168281  22.074  21.568   5.805
 5430POPC   GL268282  22.372  21.682   5.920
 5430POPC   C1A68283  21.909  21.385   6.220
 5430POPC   D2A68284  22.012  21.480   6.672
 5430POPC   C3A68285  21.941  21.214   7.029
 5430POPC   C4A68286  21.828  21.348   7.449
 5430POPC   C1B68287  22.374  21.595   6.331
 5430POPC   C2B68288  22.528  21.436   6.707
 5430POPC   C3B68289  22.336  21.549   7.104
 5430POPC   C4B68290  22.329  21.461   7.550
 5431POPC   NC368291  37.460  29.841   5.134
 5431POPC   PO468292  37.913  30.251   5.479
 5431POPC   GL168293  37.691  29.978   5.822
 5431POPC   GL268294  37.767  29.647   5.926
 5431POPC   C1A68295  37.546  29.967   6.281
 5431POPC   D2A68296  37.837  30.119   6.639
 5431POPC   C3A68297  37.730  30.000   7.061
 5431POPC   C4A68298  37.303  29.996   7.203
 5431POPC   C1B68299  38.044  29.844   6.236
 5431POPC   C2B68300  38.231  29.725   6.640
 5431POPC   C3B68301  38.099  29.596   7.055
 5431POPC   C4B68302  37.814  29.618   7.417
 5432POPC   NC368303  36.446  42.960   5.525
 5432POPC   PO468304  37.109  43.151   5.391
 5432POPC   GL168305  36.893  43.099   5.756
 5432POPC   GL268306  37.142  42.879   5.858
 5432POPC   C1A68307  36.962  43.184   6.210
 5432POPC   D2A68308  37.025  43.005   6.607
 5432POPC   C3A68309  36.695  43.189   6.821
 5432POPC   C4A68310  36.569  43.308   7.243
 5432POPC   C1B68311  37.449  42.863   6.224
 5432POPC   C2B68312  37.475  42.723   6.668
 5432POPC   C3B68313  37.375  42.996   7.005
 5432POPC   C4B68314  36.996  43.054   7.206
 5433POPC   NC368315   2.088   7.800   5.508
 5433POPC   PO468316   1.685   7.279   5.320
 5433POPC   GL168317   1.922   7.238   5.723
 5433POPC   GL268318   2.063   7.514   5.933
 5433POPC   C1A68319   1.801   7.134   6.183
 5433POPC   D2A68320   1.627   7.095   6.627
 5433POPC   C3A68321   1.850   7.194   7.015
 5433POPC   C4A68322   2.148   7.312   7.354
 5433POPC   C1B68323   1.755   7.619   6.292
 5433POPC   C2B68324   1.891   7.620   6.714
 5433POPC   C3B68325   1.927   7.756   7.138
 5433POPC   C4B68326   2.131   7.778   7.556
 5434POPC   NC368327  23.904  32.740   5.319
 5434POPC   PO468328  23.427  33.196   5.464
 5434POPC   GL168329  23.747  33.083   5.806
 5434POPC   GL268330  24.023  33.353   5.846
 5434POPC   C1A68331  23.702  32.845   6.241
 5434POPC   D2A68332  23.592  32.663   6.680
 5434POPC   C3A68333  23.637  32.983   6.976
 5434POPC   C4A68334  23.819  32.965   7.370
 5434POPC   C1B68335  24.069  33.208   6.211
 5434POPC   C2B68336  23.944  33.154   6.615
 5434POPC   C3B68337  24.147  33.161   7.008
 5434POPC   C4B68338  24.180  33.347   7.422
 5435POPC   NC368339   9.903  32.468   5.423
 5435POPC   PO468340  10.450  32.655   5.330
 5435POPC   GL168341  10.514  32.786   5.811
 5435POPC   GL268342  10.160  32.644   5.853
 5435POPC   C1A68343  10.683  33.019   6.261
 5435POPC   D2A68344  10.891  33.105   6.716
 5435POPC   C3A68345  10.615  33.100   7.078
 5435POPC   C4A68346  10.287  33.229   7.364
 5435POPC   C1B68347  10.366  32.556   6.245
 5435POPC   C2B68348  10.434  32.759   6.642
 5435POPC   C3B68349  10.183  32.861   6.979
 5435POPC   C4B68350  10.221  32.723   7.388
 5436POPC   NC368351   9.303   0.349   5.662
 5436POPC   PO468352   9.894   0.366   5.374
 5436POPC   GL168353   9.812   0.352   5.828
 5436POPC   GL268354  10.091   0.507   5.871
 5436POPC   C1A68355   9.650   0.338   6.290
 5436POPC   D2A68356   9.521   0.298   6.734
 5436POPC   C3A68357   9.673   0.317   7.146
 5436POPC   C4A68358   9.528   0.560   7.478
 5436POPC   C1B68359  10.168   0.299   6.240
 5436POPC   C2B68360  10.024   0.132   6.621
 5436POPC   C3B68361  10.161   0.174   7.059
 5436POPC   C4B68362   9.996   0.000   7.451
 5437POPC   NC368363  24.091   4.229   5.156
 5437POPC   PO468364  23.516   4.578   5.359
 5437POPC   GL168365  23.652   4.386   5.718
 5437POPC   GL268366  23.990   4.316   5.774
 5437POPC   C1A68367  23.528   4.318   6.131
 5437POPC   D2A68368  23.788   4.377   6.475
 5437POPC   C3A68369  23.756   4.500   6.882
 5437POPC   C4A68370  23.663   4.306   7.256
 5437POPC   C1B68371  23.924   3.989   6.130
 5437POPC   C2B68372  24.067   3.945   6.543
 5437POPC   C3B68373  23.871   3.987   6.921
 5437POPC   C4B68374  23.728   3.757   7.243
 5438POPC   NC368375  22.124   9.412   5.320
 5438POPC   PO468376  22.374  10.024   5.245
 5438POPC   GL168377  22.201   9.831   5.658
 5438POPC   GL268378  22.333   9.490   5.797
 5438POPC   C1A68379  22.189   9.865   6.122
 5438POPC   D2A68380  22.317   9.603   6.480
 5438POPC   C3A68381  22.241   9.810   6.874
 5438POPC   C4A68382  22.029   9.777   7.244
 5438POPC   C1B68383  21.905   9.433   6.018
 5438POPC   C2B68384  21.701   9.394   6.446
 5438POPC   C3B68385  21.847   9.462   6.886
 5438POPC   C4B68386  21.700   9.395   7.332
 5439POPC   NC368387  30.390   5.909   5.485
 5439POPC   PO468388  31.089   5.918   5.454
 5439POPC   GL168389  30.896   5.781   5.873
 5439POPC   GL268390  30.508   5.747   5.950
 5439POPC   C1A68391  30.831   6.006   6.261
 5439POPC   D2A68392  30.965   6.162   6.649
 5439POPC   C3A68393  31.068   5.833   6.923
 5439POPC   C4A68394  30.947   5.740   7.354
 5439POPC   C1B68395  30.293   6.027   6.244
 5439POPC   C2B68396  30.486   5.957   6.654
 5439POPC   C3B68397  30.529   5.828   7.096
 5439POPC   C4B68398  30.520   5.920   7.585
 5440POPC   NC368399   3.819  35.834   5.691
 5440POPC   PO468400   4.368  35.720   5.356
 5440POPC   GL168401   4.263  35.518   5.791
 5440POPC   GL268402   4.346  35.140   5.856
 5440POPC   C1A68403   4.171  35.546   6.260
 5440POPC   D2A68404   4.376  35.548   6.679
 5440POPC   C3A68405   4.118  35.401   7.054
 5440POPC   C4A68406   3.892  35.026   7.223
 5440POPC   C1B68407   4.530  35.185   6.274
 5440POPC   C2B68408   4.306  35.033   6.672
 5440POPC   C3B68409   4.400  34.883   7.108
 5440POPC   C4B68410   4.670  34.743   7.475
 5441POPC   NC368411  15.392  13.496   5.636
 5441POPC   PO468412  16.025  13.602   5.418
 5441POPC   GL168413  15.966  13.578   5.851
 5441POPC   GL268414  15.831  13.266   5.838
 5441POPC   C1A68415  16.159  13.688   6.266
 5441POPC   D2A68416  16.002  13.624   6.685
 5441POPC   C3A68417  16.227  13.691   7.049
 5441POPC   C4A68418  15.936  13.894   7.267
 5441POPC   C1B68419  15.729  13.373   6.258
 5441POPC   C2B68420  15.572  13.312   6.653
 5441POPC   C3B68421  15.730  13.374   7.061
 5441POPC   C4B68422  15.470  13.182   7.350
 5442POPC   NC368423   4.975  30.454   5.207
 5442POPC   PO468424   5.442  30.990   5.299
 5442POPC   GL168425   5.179  30.787   5.583
 5442POPC   GL268426   5.322  30.464   5.612
 5442POPC   C1A68427   5.026  30.773   6.018
 5442POPC   D2A68428   5.184  30.667   6.429
 5442POPC   C3A68429   5.015  30.907   6.760
 5442POPC   C4A68430   5.196  30.737   7.117
 5442POPC   C1B68431   5.321  30.301   6.039
 5442POPC   C2B68432   5.475  30.236   6.453
 5442POPC   C3B68433   5.237  30.250   6.834
 5442POPC   C4B68434   5.325  30.205   7.256
 5443POPC   NC368435  32.539  26.361   5.544
 5443POPC   PO468436  32.663  27.063   5.432
 5443POPC   GL168437  32.448  26.924   5.804
 5443POPC   GL268438  32.147  26.734   5.715
 5443POPC   C1A68439  32.447  27.055   6.275
 5443POPC   D2A68440  32.514  26.947   6.744
 5443POPC   C3A68441  32.267  27.074   7.130
 5443POPC   C4A68442  32.328  26.917   7.564
 5443POPC   C1B68443  32.190  26.614   6.181
 5443POPC   C2B68444  32.109  26.612   6.669
 5443POPC   C3B68445  32.186  26.569   7.143
 5443POPC   C4B68446  31.961  26.562   7.555
 5444POPC   NC368447  31.232  27.637   5.336
 5444POPC   PO468448  31.749  27.299   5.453
 5444POPC   GL168449  31.531  27.523   5.816
 5444POPC   GL268450  31.544  27.876   5.857
 5444POPC   C1A68451  31.498  27.504   6.300
 5444POPC   D2A68452  31.475  27.528   6.778
 5444POPC   C3A68453  31.598  27.190   7.058
 5444POPC   C4A68454  31.369  27.038   7.434
 5444POPC   C1B68455  31.165  27.842   6.141
 5444POPC   C2B68456  31.016  27.795   6.584
 5444POPC   C3B68457  31.109  27.787   7.031
 5444POPC   C4B68458  31.448  27.596   7.333
 5445POPC   NC368459  33.545  44.218   5.569
 5445POPC   PO468460  33.710  44.856   5.381
 5445POPC   GL168461  33.858  44.843   5.776
 5445POPC   GL268462  34.026   0.146   5.861
 5445POPC   C1A68463  33.803  44.571   6.140
 5445POPC   D2A68464  33.567  44.621   6.519
 5445POPC   C3A68465  33.631  44.373   6.895
 5445POPC   C4A68466  33.701  44.461   7.326
 5445POPC   C1B68467  34.165  44.937   6.206
 5445POPC   C2B68468  34.081  44.715   6.561
 5445POPC   C3B68469  34.034  44.706   6.983
 5445POPC   C4B68470  34.166   0.067   7.160
 5446POPC   NC368471  43.754  35.516   5.380
 5446POPC   PO468472  44.055  34.924   5.284
 5446POPC   GL168473  43.975  35.220   5.723
 5446POPC   GL268474  44.059  35.601   5.804
 5446POPC   C1A68475  43.699  35.338   6.091
 5446POPC   D2A68476  43.691  35.409   6.548
 5446POPC   C3A68477  43.509  35.578   6.933
 5446POPC   C4A68478  43.750  35.616   7.316
 5446POPC   C1B68479  44.170  35.534   6.244
 5446POPC   C2B68480  44.184  35.250   6.585
 5446POPC   C3B68481  44.058  35.443   6.937
 5446POPC   C4B68482  44.214  35.426   7.335
 5447POPC   NC368483  39.708  13.814   5.379
 5447POPC   PO468484  40.229  13.405   5.563
 5447POPC   GL168485  39.980  13.646   5.835
 5447POPC   GL268486  39.586  13.579   5.825
 5447POPC   C1A68487  40.160  13.661   6.235
 5447POPC   D2A68488  40.088  13.831   6.588
 5447POPC   C3A68489  40.270  13.652   6.929
 5447POPC   C4A68490  40.151  13.613   7.327
 5447POPC   C1B68491  39.658  13.696   6.231
 5447POPC   C2B68492  39.667  13.497   6.594
 5447POPC   C3B68493  39.772  13.668   6.972
 5447POPC   C4B68494  39.589  13.724   7.349
 5448POPC   NC368495   6.290  33.239   5.482
 5448POPC   PO468496   6.837  32.976   5.392
 5448POPC   GL168497   6.679  33.003   5.797
 5448POPC   GL268498   6.533  32.682   5.807
 5448POPC   C1A68499   6.609  33.185   6.203
 5448POPC   D2A68500   6.737  33.080   6.636
 5448POPC   C3A68501   6.545  33.312   6.960
 5448POPC   C4A68502   6.803  33.228   7.292
 5448POPC   C1B68503   6.726  32.669   6.227
 5448POPC   C2B68504   6.510  32.639   6.640
 5448POPC   C3B68505   6.546  32.802   7.064
 5448POPC   C4B68506   6.481  32.909   7.532
 5449POPC   NC368507  20.210  39.129   5.360
 5449POPC   PO468508  19.674  39.516   5.372
 5449POPC   GL168509  19.810  39.238   5.723
 5449POPC   GL268510  20.137  39.370   5.830
 5449POPC   C1A68511  19.709  39.011   6.142
 5449POPC   D2A68512  19.759  38.967   6.609
 5449POPC   C3A68513  19.511  39.080   6.983
 5449POPC   C4A68514  19.656  39.140   7.451
 5449POPC   C1B68515  20.207  38.937   5.999
 5449POPC   C2B68516  20.129  38.659   6.359
 5449POPC   C3B68517  20.214  38.783   6.776
 5449POPC   C4B68518  20.010  38.997   7.116
 5450POPC   NC368519   1.763  13.376   5.383
 5450POPC   PO468520   2.406  13.606   5.329
 5450POPC   GL168521   2.173  13.545   5.725
 5450POPC   GL268522   2.162  13.200   5.720
 5450POPC   C1A68523   2.143  13.658   6.201
 5450POPC   D2A68524   1.803  13.720   6.538
 5450POPC   C3A68525   1.919  13.831   6.965
 5450POPC   C4A68526   2.241  13.667   7.225
 5450POPC   C1B68527   1.828  13.280   6.039
 5450POPC   C2B68528   1.774  13.195   6.483
 5450POPC   C3B68529   1.749  13.336   6.934
 5450POPC   C4B68530   1.811  13.421   7.381
 5451POPC   NC368531  25.011  13.294   5.180
 5451POPC   PO468532  24.605  13.667   5.378
 5451POPC   GL168533  24.704  13.773   5.834
 5451POPC   GL268534  24.473  14.041   5.898
 5451POPC   C1A68535  24.686  13.606   6.298
 5451POPC   D2A68536  24.782  13.321   6.678
 5451POPC   C3A68537  24.764  13.552   7.027
 5451POPC   C4A68538  24.352  13.518   7.220
 5451POPC   C1B68539  24.679  14.147   6.302
 5451POPC   C2B68540  24.611  14.217   6.763
 5451POPC   C3B68541  24.446  14.010   7.117
 5451POPC   C4B68542  24.235  13.984   7.530
 5452POPC   NC368543   6.335   9.344   5.564
 5452POPC   PO468544   6.514   9.964   5.632
 5452POPC   GL168545   6.814   9.863   5.921
 5452POPC   GL268546   6.819   9.536   5.894
 5452POPC   C1A68547   6.971   9.823   6.311
 5452POPC   D2A68548   6.693   9.718   6.625
 5452POPC   C3A68549   6.794   9.867   7.024
 5452POPC   C4A68550   6.631  10.028   7.407
 5452POPC   C1B68551   6.695   9.372   6.244
 5452POPC   C2B68552   6.823   9.209   6.614
 5452POPC   C3B68553   6.690   9.352   6.984
 5452POPC   C4B68554   6.848   9.462   7.374
 5453POPC   NC368555  42.204  27.600   5.438
 5453POPC   PO468556  42.792  27.367   5.148
 5453POPC   GL168557  42.646  27.396   5.626
 5453POPC   GL268558  42.633  27.727   5.806
 5453POPC   C1A68559  42.325  27.376   6.061
 5453POPC   D2A68560  42.081  27.545   6.429
 5453POPC   C3A68561  42.241  27.517   6.855
 5453POPC   C4A68562  42.230  27.673   7.288
 5453POPC   C1B68563  42.824  27.384   6.079
 5453POPC   C2B68564  42.708  27.320   6.496
 5453POPC   C3B68565  42.741  27.485   6.886
 5453POPC   C4B68566  42.641  27.337   7.282
 5454POPC   NC368567   2.892  31.871   5.485
 5454POPC   PO468568   2.796  31.224   5.379
 5454POPC   GL168569   2.740  31.453   5.780
 5454POPC   GL268570   2.525  31.751   5.830
 5454POPC   C1A68571   2.975  31.450   6.168
 5454POPC   D2A68572   2.835  31.370   6.598
 5454POPC   C3A68573   3.064  31.258   6.931
 5454POPC   C4A68574   2.950  31.125   7.350
 5454POPC   C1B68575   2.496  31.607   6.263
 5454POPC   C2B68576   2.569  31.788   6.666
 5454POPC   C3B68577   2.597  31.586   7.074
 5454POPC   C4B68578   2.659  31.571   7.520
 5455POPC   NC368579  31.593  17.651   5.535
 5455POPC   PO468580  31.038  17.875   5.223
 5455POPC   GL168581  31.140  17.487   5.691
 5455POPC   GL268582  31.400  17.221   5.707
 5455POPC   C1A68583  31.378  17.513   6.176
 5455POPC   D2A68584  31.627  17.384   6.585
 5455POPC   C3A68585  31.666  17.656   6.963
 5455POPC   C4A68586  31.413  17.882   7.269
 5455POPC   C1B68587  31.251  17.034   6.085
 5455POPC   C2B68588  31.334  16.953   6.507
 5455POPC   C3B68589  31.347  17.087   6.916
 5455POPC   C4B68590  31.600  17.238   7.244
 5456POPC   NC368591   3.008   3.971   5.273
 5456POPC   PO468592   2.413   4.312   5.335
 5456POPC   GL168593   2.517   4.193   5.768
 5456POPC   GL268594   2.878   4.075   5.796
 5456POPC   C1A68595   2.527   4.400   6.198
 5456POPC   D2A68596   2.319   4.379   6.602
 5456POPC   C3A68597   2.568   4.461   6.966
 5456POPC   C4A68598   2.517   4.670   7.372
 5456POPC   C1B68599   3.094   3.877   6.179
 5456POPC   C2B68600   3.256   4.062   6.583
 5456POPC   C3B68601   3.187   4.156   7.034
 5456POPC   C4B68602   2.997   4.518   7.265
 5457POPC   NC368603  28.839  16.181   5.532
 5457POPC   PO468604  28.229  15.898   5.435
 5457POPC   GL168605  28.364  16.084   5.797
 5457POPC   GL268606  28.647  15.852   5.885
 5457POPC   C1A68607  28.249  15.946   6.196
 5457POPC   D2A68608  28.344  15.769   6.568
 5457POPC   C3A68609  28.552  15.834   6.916
 5457POPC   C4A68610  28.339  15.823   7.288
 5457POPC   C1B68611  28.732  16.122   6.247
 5457POPC   C2B68612  28.712  16.338   6.653
 5457POPC   C3B68613  28.794  16.437   7.088
 5457POPC   C4B68614  28.575  16.333   7.484
 5458POPC   NC368615  30.000   6.447   5.204
 5458POPC   PO468616  29.877   7.058   5.275
 5458POPC   GL168617  29.891   6.633   5.664
 5458POPC   GL268618  29.636   6.398   5.737
 5458POPC   C1A68619  30.194   6.550   6.054
 5458POPC   D2A68620  30.165   6.849   6.408
 5458POPC   C3A68621  30.185   6.806   6.856
 5458POPC   C4A68622  29.843   6.982   7.105
 5458POPC   C1B68623  29.711   6.531   6.183
 5458POPC   C2B68624  29.685   6.397   6.627
 5458POPC   C3B68625  29.735   6.435   7.092
 5458POPC   C4B68626  29.443   6.315   7.405
 5459POPC   NC368627  20.252   1.217   5.531
 5459POPC   PO468628  20.895   1.372   5.276
 5459POPC   GL168629  20.805   1.101   5.668
 5459POPC   GL268630  20.667   1.382   5.835
 5459POPC   C1A68631  20.840   1.018   6.150
 5459POPC   D2A68632  20.761   1.281   6.554
 5459POPC   C3A68633  20.828   1.116   7.003
 5459POPC   C4A68634  20.868   1.224   7.464
 5459POPC   C1B68635  20.367   1.274   6.180
 5459POPC   C2B68636  20.141   1.048   6.510
 5459POPC   C3B68637  20.284   1.110   6.936
 5459POPC   C4B68638  20.396   1.090   7.363
 5460POPC   NC368639  10.214   5.332   5.438
 5460POPC   PO468640   9.635   4.962   5.480
 5460POPC   GL168641   9.925   5.053   5.817
 5460POPC   GL268642   9.865   5.418   5.826
 5460POPC   C1A68643   9.888   5.088   6.297
 5460POPC   D2A68644  10.116   4.948   6.700
 5460POPC   C3A68645   9.830   4.937   7.075
 5460POPC   C4A68646   9.504   5.257   7.153
 5460POPC   C1B68647  10.212   5.441   6.121
 5460POPC   C2B68648  10.250   5.453   6.586
 5460POPC   C3B68649   9.980   5.423   6.983
 5460POPC   C4B68650   9.924   5.298   7.460
 5461POPC   NC368651   7.792  37.347   5.531
 5461POPC   PO468652   7.458  38.015   5.542
 5461POPC   GL168653   7.300  37.751   5.895
 5461POPC   GL268654   7.618  37.702   5.936
 5461POPC   C1A68655   7.301  37.434   6.231
 5461POPC   D2A68656   7.187  37.528   6.636
 5461POPC   C3A68657   7.435  37.370   7.013
 5461POPC   C4A68658   7.781  37.560   7.230
 5461POPC   C1B68659   7.494  37.907   6.346
 5461POPC   C2B68660   7.597  37.808   6.768
 5461POPC   C3B68661   7.513  37.995   7.140
 5461POPC   C4B68662   7.785  38.333   7.293
 5462POPC   NC368663  43.973  36.508   5.308
 5462POPC   PO468664  43.951  35.922   5.349
 5462POPC   GL168665  43.719  35.983   5.722
 5462POPC   GL268666  43.997  36.129   5.828
 5462POPC   C1A68667  43.748  35.867   6.203
 5462POPC   D2A68668  43.958  35.874   6.631
 5462POPC   C3A68669  43.779  36.051   7.030
 5462POPC   C4A68670  43.542  36.071   7.430
 5462POPC   C1B68671  44.000  36.327   6.215
 5462POPC   C2B68672  43.803  36.409   6.599
 5462POPC   C3B68673  44.056  36.476   6.934
 5462POPC   C4B68674  44.355  36.309   7.196
 5463POPC   NC368675  42.693   5.832   5.315
 5463POPC   PO468676  42.086   5.838   5.393
 5463POPC   GL168677  42.375   5.717   5.724
 5463POPC   GL268678  42.525   6.030   5.778
 5463POPC   C1A68679  42.276   5.685   6.165
 5463POPC   D2A68680  41.976   5.560   6.487
 5463POPC   C3A68681  42.232   5.569   6.824
 5463POPC   C4A68682  42.246   5.656   7.257
 5463POPC   C1B68683  42.683   6.024   6.193
 5463POPC   C2B68684  42.452   6.007   6.574
 5463POPC   C3B68685  42.521   5.979   6.996
 5463POPC   C4B68686  42.678   5.948   7.412
 5464POPC   NC368687  18.613   6.492   5.334
 5464POPC   PO468688  18.018   6.650   5.379
 5464POPC   GL168689  18.203   6.814   5.750
 5464POPC   GL268690  18.314   6.478   5.876
 5464POPC   C1A68691  18.175   6.849   6.203
 5464POPC   D2A68692  18.440   6.538   6.459
 5464POPC   C3A68693  18.377   6.535   6.903
 5464POPC   C4A68694  18.046   6.798   7.120
 5464POPC   C1B68695  17.977   6.391   6.222
 5464POPC   C2B68696  17.927   6.594   6.615
 5464POPC   C3B68697  17.907   6.337   6.950
 5464POPC   C4B68698  17.886   6.338   7.351
 5465POPC   NC368699  37.033  34.322   5.347
 5465POPC   PO468700  36.618  34.812   5.365
 5465POPC   GL168701  36.774  34.622   5.768
 5465POPC   GL268702  37.037  34.370   5.844
 5465POPC   C1A68703  36.646  34.422   6.164
 5465POPC   D2A68704  36.501  34.582   6.544
 5465POPC   C3A68705  36.505  34.390   6.924
 5465POPC   C4A68706  36.725  34.551   7.259
 5465POPC   C1B68707  37.159  34.529   6.238
 5465POPC   C2B68708  37.358  34.610   6.622
 5465POPC   C3B68709  37.196  34.549   7.025
 5465POPC   C4B68710  37.228  34.306   7.383
 5466POPC   NC368711  40.259  14.683   5.347
 5466POPC   PO468712  39.848  14.238   5.277
 5466POPC   GL168713  39.947  14.339   5.718
 5466POPC   GL268714  39.686  14.088   5.813
 5466POPC   C1A68715  40.231  14.517   6.082
 5466POPC   D2A68716  40.470  14.611   6.507
 5466POPC   C3A68717  40.364  14.521   6.942
 5466POPC   C4A68718  39.993  14.610   7.194
 5466POPC   C1B68719  39.926  14.128   6.190
 5466POPC   C2B68720  40.018  14.344   6.573
 5466POPC   C3B68721  40.023  14.138   6.983
 5466POPC   C4B68722  40.409  14.057   7.176
 5467POPC   NC368723   0.310  28.539   5.543
 5467POPC   PO468724   0.816  28.085   5.405
 5467POPC   GL168725   0.613  28.205   5.774
 5467POPC   GL268726   0.264  28.093   5.820
 5467POPC   C1A68727   0.578  28.471   6.150
 5467POPC   D2A68728   0.752  28.729   6.495
 5467POPC   C3A68729   0.632  28.513   6.869
 5467POPC   C4A68730   0.427  28.617   7.248
 5467POPC   C1B68731   0.072  28.052   6.211
 5467POPC   C2B68732  44.990  28.217   6.621
 5467POPC   C3B68733   0.155  28.233   7.035
 5467POPC   C4B68734   0.198  28.243   7.491
 5468POPC   NC368735  29.356  34.135   5.389
 5468POPC   PO468736  28.879  33.729   5.198
 5468POPC   GL168737  28.954  33.892   5.679
 5468POPC   GL268738  29.311  33.929   5.832
 5468POPC   C1A68739  29.009  33.781   6.170
 5468POPC   D2A68740  29.325  33.903   6.518
 5468POPC   C3A68741  29.116  33.841   6.948
 5468POPC   C4A68742  28.797  33.509   7.100
 5468POPC   C1B68743  29.600  34.164   6.130
 5468POPC   C2B68744  29.664  34.349   6.551
 5468POPC   C3B68745  29.511  34.212   6.954
 5468POPC   C4B68746  29.427  33.996   7.345
 5469POPC   NC368747  24.815  32.334   5.392
 5469POPC   PO468748  24.463  31.836   5.546
 5469POPC   GL168749  24.538  32.153   5.794
 5469POPC   GL268750  24.289  32.394   5.745
 5469POPC   C1A68751  24.692  32.432   6.089
 5469POPC   D2A68752  24.571  32.482   6.516
 5469POPC   C3A68753  24.764  32.308   6.892
 5469POPC   C4A68754  24.808  32.520   7.293
 5469POPC   C1B68755  24.182  32.278   6.186
 5469POPC   C2B68756  24.060  32.558   6.553
 5469POPC   C3B68757  24.024  32.622   6.996
 5469POPC   C4B68758  24.332  32.360   7.163
 5470POPC   NC368759   0.489  20.481   5.329
 5470POPC   PO468760   0.101  20.834   5.665
 5470POPC   GL168761   0.328  20.512   5.832
 5470POPC   GL268762   0.618  20.696   5.827
 5470POPC   C1A68763   0.196  20.384   6.242
 5470POPC   D2A68764  44.933  20.622   6.516
 5470POPC   C3A68765   0.083  20.467   6.900
 5470POPC   C4A68766   0.285  20.456   7.274
 5470POPC   C1B68767   0.420  20.852   6.221
 5470POPC   C2B68768   0.447  20.728   6.625
 5470POPC   C3B68769   0.684  20.560   6.960
 5470POPC   C4B68770   0.681  20.789   7.325
 5471POPC   NC368771  34.186  38.578   5.009
 5471POPC   PO468772  33.780  38.128   5.440
 5471POPC   GL168773  33.678  38.324   5.820
 5471POPC   GL268774  33.674  38.659   5.665
 5471POPC   C1A68775  33.620  38.276   6.253
 5471POPC   D2A68776  33.982  38.456   6.463
 5471POPC   C3A68777  33.884  38.452   6.882
 5471POPC   C4A68778  33.897  38.110   7.158
 5471POPC   C1B68779  33.669  38.759   6.104
 5471POPC   C2B68780  33.550  38.717   6.541
 5471POPC   C3B68781  33.510  38.766   7.006
 5471POPC   C4B68782  33.706  38.524   7.376
 5472POPC   NC368783  42.665  26.721   5.321
 5472POPC   PO468784  42.241  27.145   5.474
 5472POPC   GL168785  42.451  26.912   5.757
 5472POPC   GL268786  42.233  26.649   5.700
 5472POPC   C1A68787  42.542  26.921   6.184
 5472POPC   D2A68788  42.282  27.064   6.521
 5472POPC   C3A68789  42.423  27.039   6.916
 5472POPC   C4A68790  42.164  27.151   7.260
 5472POPC   C1B68791  42.304  26.474   6.113
 5472POPC   C2B68792  42.468  26.428   6.523
 5472POPC   C3B68793  42.261  26.460   6.903
 5472POPC   C4B68794  42.394  26.658   7.252
 5473POPC   NC368795  36.106  44.141   5.369
 5473POPC   PO468796  36.176  43.488   5.265
 5473POPC   GL168797  36.095  43.765   5.695
 5473POPC   GL268798  36.031  44.130   5.859
 5473POPC   C1A68799  35.949  43.721   6.140
 5473POPC   D2A68800  36.154  43.862   6.515
 5473POPC   C3A68801  35.940  43.819   6.920
 5473POPC   C4A68802  36.054  43.996   7.330
 5473POPC   C1B68803  36.327  44.307   6.148
 5473POPC   C2B68804  36.181  44.374   6.539
 5473POPC   C3B68805  36.301  44.188   6.912
 5473POPC   C4B68806  36.444  44.323   7.275
 5474POPC   NC368807  33.866   0.287   5.415
 5474POPC   PO468808  33.680   0.874   5.488
 5474POPC   GL168809  33.618   0.518   5.785
 5474POPC   GL268810  33.450   0.175   5.708
 5474POPC   C1A68811  33.767   0.478   6.197
 5474POPC   D2A68812  33.629   0.657   6.566
 5474POPC   C3A68813  33.729   0.428   6.955
 5474POPC   C4A68814  33.851   0.474   7.363
 5474POPC   C1B68815  33.533   0.025   6.126
 5474POPC   C2B68816  33.616   0.126   6.554
 5474POPC   C3B68817  33.542  44.911   6.946
 5474POPC   C4B68818  33.696  44.979   7.324
 5475POPC   NC368819  19.716  38.077   5.289
 5475POPC   PO468820  19.910  38.718   5.444
 5475POPC   GL168821  19.851  38.373   5.718
 5475POPC   GL268822  20.142  38.426   5.902
 5475POPC   C1A68823  19.737  38.277   6.161
 5475POPC   D2A68824  19.652  38.459   6.563
 5475POPC   C3A68825  19.732  38.369   6.986
 5475POPC   C4A68826  19.649  38.664   7.274
 5475POPC   C1B68827  20.235  38.132   6.196
 5475POPC   C2B68828  20.109  38.180   6.594
 5475POPC   C3B68829  20.254  38.302   6.954
 5475POPC   C4B68830  20.107  38.315   7.343
 5476POPC   NC368831  16.960  23.052   5.568
 5476POPC   PO468832  16.528  22.565   5.355
 5476POPC   GL168833  16.693  22.675   5.794
 5476POPC   GL268834  17.015  22.777   5.991
 5476POPC   C1A68835  16.576  22.886   6.205
 5476POPC   D2A68836  16.799  23.066   6.569
 5476POPC   C3A68837  16.600  23.110   6.993
 5476POPC   C4A68838  16.551  23.233   7.420
 5476POPC   C1B68839  17.130  22.516   6.319
 5476POPC   C2B68840  16.992  22.477   6.708
 5476POPC   C3B68841  17.021  22.820   6.972
 5476POPC   C4B68842  17.054  23.134   7.292
 5477POPC   NC368843   3.981   1.974   5.478
 5477POPC   PO468844   4.619   2.045   5.238
 5477POPC   GL168845   4.449   1.997   5.687
 5477POPC   GL268846   4.563   2.273   5.799
 5477POPC   C1A68847   4.203   1.928   6.118
 5477POPC   D2A68848   4.363   1.668   6.501
 5477POPC   C3A68849   4.447   1.872   6.925
 5477POPC   C4A68850   4.387   2.286   7.106
 5477POPC   C1B68851   4.689   2.058   6.191
 5477POPC   C2B68852   4.648   2.244   6.598
 5477POPC   C3B68853   4.893   2.206   6.958
 5477POPC   C4B68854   4.850   2.404   7.302
 5478POPC   NC368855  41.107  43.524   5.573
 5478POPC   PO468856  40.619  43.962   5.407
 5478POPC   GL168857  40.649  44.050   5.824
 5478POPC   GL268858  40.668  43.692   5.843
 5478POPC   C1A68859  40.535  44.022   6.238
 5478POPC   D2A68860  40.791  43.984   6.569
 5478POPC   C3A68861  40.564  44.029   6.897
 5478POPC   C4A68862  40.667  44.110   7.303
 5478POPC   C1B68863  40.779  43.553   6.226
 5478POPC   C2B68864  40.950  43.493   6.623
 5478POPC   C3B68865  40.821  43.607   7.037
 5478POPC   C4B68866  40.928  43.696   7.456
 5479POPC   NC368867  29.512   1.197   5.146
 5479POPC   PO468868  30.197   1.358   5.222
 5479POPC   GL168869  29.992   1.323   5.621
 5479POPC   GL268870  30.244   1.456   5.802
 5479POPC   C1A68871  29.805   1.362   6.062
 5479POPC   D2A68872  29.593   1.226   6.448
 5479POPC   C3A68873  29.776   1.339   6.830
 5479POPC   C4A68874  29.721   1.191   7.245
 5479POPC   C1B68875  30.255   1.108   6.063
 5479POPC   C2B68876  30.283   1.086   6.485
 5479POPC   C3B68877  30.270   1.170   6.907
 5479POPC   C4B68878  30.223   1.260   7.324
 5480POPC   NC368879   8.724  14.802   5.253
 5480POPC   PO468880   8.505  15.388   5.639
 5480POPC   GL168881   8.828  15.115   5.806
 5480POPC   GL268882   8.790  14.751   5.788
 5480POPC   C1A68883   8.996  15.116   6.238
 5480POPC   D2A68884   8.874  15.302   6.627
 5480POPC   C3A68885   9.068  15.125   6.975
 5480POPC   C4A68886   9.256  15.192   7.382
 5480POPC   C1B68887   8.884  14.622   6.224
 5480POPC   C2B68888   8.782  14.789   6.623
 5480POPC   C3B68889   8.725  14.750   7.061
 5480POPC   C4B68890   9.053  14.737   7.338
 5481POPC   NC368891  26.340  38.885   5.572
 5481POPC   PO468892  25.680  39.056   5.370
 5481POPC   GL168893  25.969  39.304   5.705
 5481POPC   GL268894  26.287  39.402   5.829
 5481POPC   C1A68895  25.898  39.414   6.151
 5481POPC   D2A68896  25.798  39.510   6.561
 5481POPC   C3A68897  25.828  39.248   6.895
 5481POPC   C4A68898  26.100  39.360   7.209
 5481POPC   C1B68899  26.414  39.329   6.247
 5481POPC   C2B68900  26.276  39.186   6.639
 5481POPC   C3B68901  26.360  38.937   7.002
 5481POPC   C4B68902  26.163  38.904   7.378
 5482POPC   NC368903  39.151  31.915   5.573
 5482POPC   PO468904  39.340  31.283   5.298
 5482POPC   GL168905  39.260  31.378   5.723
 5482POPC   GL268906  39.517  31.624   5.846
 5482POPC   C1A68907  39.281  31.215   6.142
 5482POPC   D2A68908  39.483  31.314   6.540
 5482POPC   C3A68909  39.313  31.278   6.969
 5482POPC   C4A68910  39.151  31.616   7.192
 5482POPC   C1B68911  39.267  31.707   6.230
 5482POPC   C2B68912  39.185  31.738   6.664
 5482POPC   C3B68913  39.470  31.908   6.933
 5482POPC   C4B68914  39.359  32.100   7.303
 5483POPC   NC368915  11.335  22.430   5.519
 5483POPC   PO468916  11.124  21.847   5.321
 5483POPC   GL168917  11.212  21.973   5.734
 5483POPC   GL268918  11.535  22.028   5.793
 5483POPC   C1A68919  11.152  22.044   6.198
 5483POPC   D2A68920  11.096  21.746   6.591
 5483POPC   C3A68921  10.992  21.932   7.015
 5483POPC   C4A68922  11.195  22.317   7.170
 5483POPC   C1B68923  11.715  21.840   6.144
 5483POPC   C2B68924  11.690  21.718   6.584
 5483POPC   C3B68925  11.490  21.778   6.974
 5483POPC   C4B68926  11.261  21.607   7.292
 5484POPC   NC368927  14.293  25.615   5.407
 5484POPC   PO468928  14.698  26.158   5.446
 5484POPC   GL168929  14.537  25.943   5.775
 5484POPC   GL268930  14.178  25.910   5.804
 5484POPC   C1A68931  14.478  26.051   6.210
 5484POPC   D2A68932  14.729  26.078   6.583
 5484POPC   C3A68933  14.516  26.036   6.959
 5484POPC   C4A68934  14.420  26.347   7.295
 5484POPC   C1B68935  14.055  25.758   6.219
 5484POPC   C2B68936  14.114  26.007   6.582
 5484POPC   C3B68937  14.031  26.183   6.964
 5484POPC   C4B68938  14.130  25.923   7.331
 5485POPC   NC368939   6.365  38.721   5.569
 5485POPC   PO468940   6.867  38.237   5.464
 5485POPC   GL168941   6.728  38.294   5.847
 5485POPC   GL268942   6.867  38.612   5.835
 5485POPC   C1A68943   6.464  38.332   6.200
 5485POPC   D2A68944   6.644  38.339   6.579
 5485POPC   C3A68945   6.455  38.496   6.938
 5485POPC   C4A68946   6.615  38.412   7.303
 5485POPC   C1B68947   6.979  38.593   6.271
 5485POPC   C2B68948   7.065  38.606   6.726
 5485POPC   C3B68949   6.909  38.800   7.124
 5485POPC   C4B68950   6.978  38.618   7.564
 5486POPC   NC368951  43.940   6.980   5.544
 5486POPC   PO468952  43.747   6.328   5.488
 5486POPC   GL168953  43.914   6.555   5.833
 5486POPC   GL268954  43.670   6.774   5.911
 5486POPC   C1A68955  43.986   6.418   6.239
 5486POPC   D2A68956  44.240   6.400   6.610
 5486POPC   C3A68957  43.985   6.422   6.968
 5486POPC   C4A68958  44.024   6.573   7.407
 5486POPC   C1B68959  43.853   6.907   6.271
 5486POPC   C2B68960  43.766   6.771   6.675
 5486POPC   C3B68961  43.874   6.928   7.065
 5486POPC   C4B68962  43.742   7.005   7.499
 5487POPC   NC368963  13.182   3.632   5.228
 5487POPC   PO468964  12.622   3.290   5.160
 5487POPC   GL168965  12.822   3.357   5.605
 5487POPC   GL268966  13.093   3.602   5.723
 5487POPC   C1A68967  12.923   3.253   6.087
 5487POPC   D2A68968  12.766   3.345   6.507
 5487POPC   C3A68969  12.876   3.204   6.935
 5487POPC   C4A68970  12.889   3.461   7.341
 5487POPC   C1B68971  13.109   3.733   6.166
 5487POPC   C2B68972  13.171   3.635   6.611
 5487POPC   C3B68973  12.843   3.746   6.913
 5487POPC   C4B68974  12.731   3.986   7.290
 5488POPC   NC368975  16.251   8.109   5.547
 5488POPC   PO468976  15.604   8.282   5.625
 5488POPC   GL168977  15.947   8.250   5.946
 5488POPC   GL268978  16.276   8.457   5.943
 5488POPC   C1A68979  15.941   8.111   6.373
 5488POPC   D2A68980  15.812   7.824   6.675
 5488POPC   C3A68981  15.792   8.062   7.049
 5488POPC   C4A68982  16.013   8.443   7.139
 5488POPC   C1B68983  16.432   8.122   6.227
 5488POPC   C2B68984  16.582   8.091   6.648
 5488POPC   C3B68985  16.315   8.044   7.009
 5488POPC   C4B68986  16.110   7.884   7.400
 5489POPC   NC368987  16.221  20.680   5.533
 5489POPC   PO468988  15.697  21.130   5.597
 5489POPC   GL168989  15.806  20.692   5.835
 5489POPC   GL268990  15.558  20.388   5.806
 5489POPC   C1A68991  16.136  20.530   6.161
 5489POPC   D2A68992  16.263  20.318   6.551
 5489POPC   C3A68993  16.175  20.485   6.939
 5489POPC   C4A68994  16.007  20.606   7.295
 5489POPC   C1B68995  15.707  20.270   6.207
 5489POPC   C2B68996  15.744  20.425   6.626
 5489POPC   C3B68997  15.696  20.248   7.029
 5489POPC   C4B68998  15.440  20.436   7.336
 5490POPC   NC368999  34.277  39.761   5.079
 5490POPC   PO469000  34.801  40.060   5.470
 5490POPC   GL169001  34.638  40.028   5.873
 5490POPC   GL269002  34.407  39.780   5.772
 5490POPC   C1A69003  34.449  40.013   6.284
 5490POPC   D2A69004  34.231  39.918   6.673
 5490POPC   C3A69005  34.370  40.106   7.060
 5490POPC   C4A69006  34.747  40.031   7.295
 5490POPC   C1B69007  34.718  39.597   6.094
 5490POPC   C2B69008  34.563  39.553   6.514
 5490POPC   C3B69009  34.574  39.648   6.944
 5490POPC   C4B69010  34.757  39.528   7.303
 5491POPC   NC369011  34.352  19.867   5.501
 5491POPC   PO469012  34.950  19.553   5.493
 5491POPC   GL169013  34.868  19.745   5.920
 5491POPC   GL269014  34.509  19.765   5.958
 5491POPC   C1A69015  34.728  19.989   6.339
 5491POPC   D2A69016  34.410  20.087   6.684
 5491POPC   C3A69017  34.600  19.958   7.085
 5491POPC   C4A69018  34.861  20.096   7.396
 5491POPC   C1B69019  34.229  19.584   6.259
 5491POPC   C2B69020  34.061  19.665   6.640
 5491POPC   C3B69021  34.187  19.668   7.035
 5491POPC   C4B69022  34.389  19.411   7.333
 5492POPC   NC369023  18.728  38.182   5.405
 5492POPC   PO469024  18.956  37.550   5.424
 5492POPC   GL169025  18.898  37.739   5.780
 5492POPC   GL269026  19.079  37.419   5.911
 5492POPC   C1A69027  19.031  37.959   6.126
 5492POPC   D2A69028  19.364  37.932   6.415
 5492POPC   C3A69029  19.236  37.855   6.847
 5492POPC   C4A69030  18.914  37.981   7.115
 5492POPC   C1B69031  19.174  37.454   6.332
 5492POPC   C2B69032  19.064  37.266   6.689
 5492POPC   C3B69033  19.080  37.434   7.093
 5492POPC   C4B69034  19.247  37.330   7.494
 5493POPC   NC369035  39.003  23.364   5.509
 5493POPC   PO469036  38.777  22.755   5.458
 5493POPC   GL169037  39.168  22.862   5.737
 5493POPC   GL269038  39.400  23.197   5.769
 5493POPC   C1A69039  39.365  22.851   6.156
 5493POPC   D2A69040  39.248  22.761   6.582
 5493POPC   C3A69041  39.480  22.562   6.893
 5493POPC   C4A69042  39.397  22.743   7.272
 5493POPC   C1B69043  39.483  23.346   6.189
 5493POPC   C2B69044  39.589  23.133   6.590
 5493POPC   C3B69045  39.366  23.147   6.984
 5493POPC   C4B69046  39.434  23.242   7.451
 5494POPC   NC369047  29.563  43.495   5.360
 5494POPC   PO469048  29.885  42.984   5.522
 5494POPC   GL169049  29.558  43.079   5.852
 5494POPC   GL269050  29.439  43.402   5.839
 5494POPC   C1A69051  29.493  43.072   6.329
 5494POPC   D2A69052  29.759  43.241   6.681
 5494POPC   C3A69053  29.842  43.028   7.068
 5494POPC   C4A69054  30.098  42.818   7.393
 5494POPC   C1B69055  29.681  43.547   6.217
 5494POPC   C2B69056  29.766  43.756   6.651
 5494POPC   C3B69057  29.807  43.587   7.088
 5494POPC   C4B69058  30.027  43.458   7.450
 5495POPC   NC369059  19.435   1.533   5.569
 5495POPC   PO469060  19.501   0.982   5.185
 5495POPC   GL169061  19.341   1.032   5.722
 5495POPC   GL269062  19.039   1.295   5.785
 5495POPC   C1A69063  19.246   1.123   6.218
 5495POPC   D2A69064  19.217   1.104   6.690
 5495POPC   C3A69065  19.204   1.245   7.119
 5495POPC   C4A69066  19.134   0.940   7.462
 5495POPC   C1B69067  18.888   1.513   6.173
 5495POPC   C2B69068  18.992   1.584   6.607
 5495POPC   C3B69069  18.925   1.670   7.042
 5495POPC   C4B69070  18.662   1.445   7.322
 5496POPC   NC369071  39.907  15.549   5.701
 5496POPC   PO469072  39.761  14.966   5.414
 5496POPC   GL169073  39.979  15.022   5.858
 5496POPC   GL269074  40.165  15.315   6.055
 5496POPC   C1A69075  39.998  14.902   6.313
 5496POPC   D2A69076  40.017  14.838   6.743
 5496POPC   C3A69077  40.019  15.164   7.072
 5496POPC   C4A69078  39.823  15.059   7.476
 5496POPC   C1B69079  39.788  15.370   6.332
 5496POPC   C2B69080  39.644  15.470   6.756
 5496POPC   C3B69081  39.586  15.436   7.196
 5496POPC   C4B69082  39.810  15.561   7.585
 5497POPC   NC369083  40.541  37.607   5.399
 5497POPC   PO469084  40.624  36.958   5.423
 5497POPC   GL169085  40.697  37.050   5.819
 5497POPC   GL269086  40.465  37.345   5.852
 5497POPC   C1A69087  40.811  36.845   6.209
 5497POPC   D2A69088  40.671  36.709   6.609
 5497POPC   C3A69089  40.711  36.873   6.985
 5497POPC   C4A69090  40.694  36.695   7.364
 5497POPC   C1B69091  40.746  37.358   6.202
 5497POPC   C2B69092  40.792  37.209   6.587
 5497POPC   C3B69093  40.958  37.307   6.969
 5497POPC   C4B69094  40.696  37.251   7.340
 5498POPC   NC369095  33.865  30.446   5.531
 5498POPC   PO469096  33.543  30.971   5.205
 5498POPC   GL169097  33.827  30.954   5.624
 5498POPC   GL269098  33.613  31.110   5.848
 5498POPC   C1A69099  33.946  30.845   6.088
 5498POPC   D2A69100  34.004  31.044   6.511
 5498POPC   C3A69101  33.875  30.846   6.934
 5498POPC   C4A69102  33.859  30.487   7.225
 5498POPC   C1B69103  33.457  30.995   6.245
 5498POPC   C2B69104  33.308  30.702   6.553
 5498POPC   C3B69105  33.389  30.549   6.972
 5498POPC   C4B69106  33.448  30.764   7.345
 5499POPC   NC369107   9.678  41.699   5.293
 5499POPC   PO469108  10.237  41.296   5.386
 5499POPC   GL169109   9.975  41.564   5.732
 5499POPC   GL269110   9.627  41.459   5.894
 5499POPC   C1A69111   9.831  41.884   6.075
 5499POPC   D2A69112   9.667  41.986   6.508
 5499POPC   C3A69113   9.758  41.757   6.904
 5499POPC   C4A69114  10.046  41.842   7.265
 5499POPC   C1B69115   9.806  41.466   6.365
 5499POPC   C2B69116   9.855  41.255   6.772
 5499POPC   C3B69117   9.547  41.314   7.088
 5499POPC   C4B69118   9.584  41.644   7.418
 5500POPC   NC369119   1.375  22.818   5.499
 5500POPC   PO469120   0.691  22.813   5.611
 5500POPC   GL169121   1.020  22.814   5.927
 5500POPC   GL269122   1.405  22.846   6.000
 5500POPC   C1A69123   1.038  23.018   6.316
 5500POPC   D2A69124   1.294  23.075   6.666
 5500POPC   C3A69125   1.088  22.819   6.952
 5500POPC   C4A69126   0.884  23.029   7.258
 5500POPC   C1B69127   1.487  23.260   6.190
 5500POPC   C2B69128   1.655  23.469   6.548
 5500POPC   C3B69129   1.631  23.345   6.947
 5500POPC   C4B69130   1.437  23.072   7.220
 5501POPC   NC369131   9.204  21.229   5.474
 5501POPC   PO469132   8.630  21.652   5.351
 5501POPC   GL169133   8.766  21.388   5.715
 5501POPC   GL269134   9.071  21.502   5.889
 5501POPC   C1A69135   8.773  21.166   6.142
 5501POPC   D2A69136   8.924  21.347   6.540
 5501POPC   C3A69137   8.803  21.201   6.952
 5501POPC   C4A69138   9.026  21.301   7.277
 5501POPC   C1B69139   8.755  21.698   6.199
 5501POPC   C2B69140   8.696  21.790   6.668
 5501POPC   C3B69141   8.820  21.812   7.115
 5501POPC   C4B69142   8.846  22.036   7.529
 5502POPC   NC369143  18.857  17.302   5.324
 5502POPC   PO469144  19.236  17.835   5.452
 5502POPC   GL169145  19.056  17.686   5.853
 5502POPC   GL269146  18.937  17.335   5.854
 5502POPC   C1A69147  19.024  17.585   6.314
 5502POPC   D2A69148  19.182  17.418   6.726
 5502POPC   C3A69149  19.157  17.656   7.161
 5502POPC   C4A69150  18.916  17.862   7.474
 5502POPC   C1B69151  18.657  17.232   6.227
 5502POPC   C2B69152  18.656  17.382   6.658
 5502POPC   C3B69153  18.651  17.632   7.044
 5502POPC   C4B69154  18.588  17.476   7.469
 5503POPC   NC369155  27.268  23.143   5.169
 5503POPC   PO469156  27.671  22.663   5.464
 5503POPC   GL169157  27.605  22.817   5.841
 5503POPC   GL269158  27.263  22.751   5.783
 5503POPC   C1A69159  27.692  23.028   6.228
 5503POPC   D2A69160  27.948  23.002   6.574
 5503POPC   C3A69161  27.771  23.088   6.915
 5503POPC   C4A69162  27.586  23.147   7.238
 5503POPC   C1B69163  27.191  22.811   6.205
 5503POPC   C2B69164  27.268  23.092   6.520
 5503POPC   C3B69165  27.259  22.962   6.892
 5503POPC   C4B69166  27.086  23.143   7.181
 5504POPC   NC369167  11.349  39.019   5.413
 5504POPC   PO469168  11.264  38.250   5.350
 5504POPC   GL169169  11.367  38.566   5.715
 5504POPC   GL269170  11.052  38.640   5.912
 5504POPC   C1A69171  11.513  38.398   6.137
 5504POPC   D2A69172  11.362  38.029   6.427
 5504POPC   C3A69173  11.121  38.077   6.823
 5504POPC   C4A69174  11.377  38.186   7.176
 5504POPC   C1B69175  11.092  38.548   6.357
 5504POPC   C2B69176  11.430  38.494   6.677
 5504POPC   C3B69177  11.401  38.682   7.080
 5504POPC   C4B69178  10.986  38.780   7.223
 5505POPC   NC369179  12.165   2.364   5.500
 5505POPC   PO469180  11.860   1.711   5.353
 5505POPC   GL169181  11.869   1.963   5.711
 5505POPC   GL269182  12.211   1.985   5.855
 5505POPC   C1A69183  11.816   1.804   6.132
 5505POPC   D2A69184  12.085   1.770   6.486
 5505POPC   C3A69185  11.869   1.917   6.841
 5505POPC   C4A69186  12.015   1.969   7.272
 5505POPC   C1B69187  12.508   2.052   6.202
 5505POPC   C2B69188  12.546   2.319   6.576
 5505POPC   C3B69189  12.305   2.197   6.915
 5505POPC   C4B69190  12.432   1.768   7.056
 5506POPC   NC369191  24.362  36.392   5.557
 5506POPC   PO469192  24.824  35.951   5.468
 5506POPC   GL169193  24.563  35.964   5.859
 5506POPC   GL269194  24.257  36.105   5.945
 5506POPC   C1A69195  24.502  35.878   6.319
 5506POPC   D2A69196  24.432  36.103   6.683
 5506POPC   C3A69197  24.318  35.888   7.002
 5506POPC   C4A69198  24.539  36.020   7.294
 5506POPC   C1B69199  24.009  36.135   6.293
 5506POPC   C2B69200  23.950  36.295   6.692
 5506POPC   C3B69201  24.105  36.341   7.095
 5506POPC   C4B69202  24.035  36.054   7.401
 5507POPC   NC369203  30.049   8.633   5.627
 5507POPC   PO469204  29.780   9.303   5.570
 5507POPC   GL169205  29.989   9.085   5.859
 5507POPC   GL269206  29.641   8.849   5.827
 5507POPC   C1A69207  30.146   9.270   6.254
 5507POPC   D2A69208  30.008   9.354   6.679
 5507POPC   C3A69209  30.155   9.037   6.972
 5507POPC   C4A69210  30.322   9.037   7.406
 5507POPC   C1B69211  29.675   8.982   6.242
 5507POPC   C2B69212  29.750   8.901   6.640
 5507POPC   C3B69213  29.637   9.109   6.976
 5507POPC   C4B69214  29.780   8.915   7.308
 5508POPC   NC369215   9.853  30.952   5.382
 5508POPC   PO469216   9.337  30.561   5.452
 5508POPC   GL169217   9.608  30.691   5.785
 5508POPC   GL269218   9.932  30.583   5.694
 5508POPC   C1A69219   9.480  30.561   6.211
 5508POPC   D2A69220   9.510  30.321   6.591
 5508POPC   C3A69221   9.700  30.553   6.931
 5508POPC   C4A69222   9.703  30.757   7.316
 5508POPC   C1B69223   9.991  30.615   6.126
 5508POPC   C2B69224  10.019  30.413   6.508
 5508POPC   C3B69225  10.186  30.399   6.894
 5508POPC   C4B69226  10.095  30.440   7.301
 5509POPC   NC369227  23.311  20.428   5.329
 5509POPC   PO469228  22.689  20.759   5.521
 5509POPC   GL169229  22.903  20.559   5.821
 5509POPC   GL269230  23.143  20.329   5.804
 5509POPC   C1A69231  22.995  20.737   6.230
 5509POPC   D2A69232  23.090  20.606   6.641
 5509POPC   C3A69233  22.790  20.742   6.954
 5509POPC   C4A69234  22.984  20.853   7.391
 5509POPC   C1B69235  23.263  20.306   6.216
 5509POPC   C2B69236  23.189  20.104   6.585
 5509POPC   C3B69237  23.332  20.229   6.953
 5509POPC   C4B69238  23.041  20.390   7.183
 5510POPC   NC369239  44.809  32.823   5.408
 5510POPC   PO469240  44.918  33.391   5.554
 5510POPC   GL169241  44.775  33.094   5.845
 5510POPC   GL269242  44.539  33.230   6.020
 5510POPC   C1A69243  44.843  32.849   6.233
 5510POPC   D2A69244  44.656  32.810   6.660
 5510POPC   C3A69245  44.865  33.036   6.997
 5510POPC   C4A69246   0.030  32.738   7.283
 5510POPC   C1B69247  44.315  32.953   6.295
 5510POPC   C2B69248  44.086  32.966   6.690
 5510POPC   C3B69249  44.290  32.915   7.057
 5510POPC   C4B69250  44.468  33.264   7.242
 5511POPC   NC369251  25.177  40.361   5.554
 5511POPC   PO469252  25.367  40.971   5.370
 5511POPC   GL169253  25.317  40.936   5.789
 5511POPC   GL269254  25.188  40.651   5.959
 5511POPC   C1A69255  25.465  41.028   6.182
 5511POPC   D2A69256  25.274  40.775   6.496
 5511POPC   C3A69257  25.460  40.679   6.867
 5511POPC   C4A69258  25.371  40.795   7.270
 5511POPC   C1B69259  25.216  40.291   6.243
 5511POPC   C2B69260  25.195  40.289   6.689
 5511POPC   C3B69261  25.109  40.388   7.106
 5511POPC   C4B69262  25.211  40.413   7.555
 5512POPC   NC369263  40.386   8.192   5.412
 5512POPC   PO469264  39.648   8.402   5.479
 5512POPC   GL169265  39.846   8.494   5.852
 5512POPC   GL269266  40.173   8.386   5.835
 5512POPC   C1A69267  39.877   8.270   6.251
 5512POPC   D2A69268  40.034   8.020   6.617
 5512POPC   C3A69269  39.883   8.171   7.009
 5512POPC   C4A69270  39.561   8.010   7.266
 5512POPC   C1B69271  40.396   8.407   6.226
 5512POPC   C2B69272  40.486   8.253   6.622
 5512POPC   C3B69273  40.366   8.349   7.030
 5512POPC   C4B69274  40.281   8.048   7.335
 5513POPC   NC369275  35.191  34.826   5.314
 5513POPC   PO469276  35.497  34.304   5.641
 5513POPC   GL169277  35.458  34.695   5.779
 5513POPC   GL269278  35.117  34.655   5.858
 5513POPC   C1A69279  35.513  34.687   6.208
 5513POPC   D2A69280  35.160  34.731   6.526
 5513POPC   C3A69281  35.212  34.570   6.954
 5513POPC   C4A69282  35.541  34.621   7.243
 5513POPC   C1B69283  35.169  34.316   6.222
 5513POPC   C2B69284  35.011  34.219   6.645
 5513POPC   C3B69285  34.827  34.230   7.082
 5513POPC   C4B69286  35.012  34.363   7.524
 5514POPC   NC369287  19.263  43.146   5.286
 5514POPC   PO469288  19.040  42.584   5.306
 5514POPC   GL169289  18.885  42.911   5.598
 5514POPC   GL269290  19.204  42.992   5.750
 5514POPC   C1A69291  18.795  43.192   5.971
 5514POPC   D2A69292  18.953  43.244   6.385
 5514POPC   C3A69293  18.851  43.000   6.752
 5514POPC   C4A69294  18.816  43.211   7.142
 5514POPC   C1B69295  19.348  43.266   6.062
 5514POPC   C2B69296  19.449  43.351   6.493
 5514POPC   C3B69297  19.274  43.319   6.902
 5514POPC   C4B69298  19.524  43.529   7.199
 5515POPC   NC369299   3.075  11.321   5.293
 5515POPC   PO469300   2.373  11.183   5.307
 5515POPC   GL169301   2.489  11.335   5.733
 5515POPC   GL269302   2.383  11.671   5.848
 5515POPC   C1A69303   2.670  11.292   6.154
 5515POPC   D2A69304   2.634  11.435   6.583
 5515POPC   C3A69305   2.877  11.219   6.894
 5515POPC   C4A69306   2.789  11.011   7.266
 5515POPC   C1B69307   2.566  11.812   6.233
 5515POPC   C2B69308   2.461  11.928   6.649
 5515POPC   C3B69309   2.413  11.650   6.993
 5515POPC   C4B69310   2.713  11.529   7.271
 5516POPC   NC369311  35.743  36.292   5.791
 5516POPC   PO469312  35.405  36.284   5.279
 5516POPC   GL169313  35.263  36.305   5.879
 5516POPC   GL269314  35.488  36.042   6.123
 5516POPC   C1A69315  35.069  36.194   6.305
 5516POPC   D2A69316  35.335  35.911   6.591
 5516POPC   C3A69317  35.454  35.932   7.010
 5516POPC   C4A69318  35.225  35.985   7.380
 5516POPC   C1B69319  35.529  36.395   6.440
 5516POPC   C2B69320  35.254  36.480   6.792
 5516POPC   C3B69321  35.303  36.457   7.237
 5516POPC   C4B69322  35.688  36.229   7.340
 5517POPC   NC369323  13.583   9.253   5.099
 5517POPC   PO469324  13.731   9.924   5.423
 5517POPC   GL169325  13.602   9.941   5.833
 5517POPC   GL269326  13.614   9.613   5.874
 5517POPC   C1A69327  13.755   9.957   6.249
 5517POPC   D2A69328  13.590   9.877   6.643
 5517POPC   C3A69329  13.468   9.913   7.095
 5517POPC   C4A69330  13.603   9.967   7.524
 5517POPC   C1B69331  13.571   9.421   6.233
 5517POPC   C2B69332  13.777   9.396   6.587
 5517POPC   C3B69333  13.804   9.546   6.992
 5517POPC   C4B69334  14.072   9.383   7.264
 5518POPC   NC369335  35.602  14.551   5.462
 5518POPC   PO469336  35.180  14.049   5.438
 5518POPC   GL169337  35.267  14.232   5.811
 5518POPC   GL269338  35.600  14.180   5.818
 5518POPC   C1A69339  35.185  14.574   6.120
 5518POPC   D2A69340  35.378  14.619   6.535
 5518POPC   C3A69341  35.155  14.630   6.922
 5518POPC   C4A69342  35.333  14.641   7.333
 5518POPC   C1B69343  35.700  14.429   6.150
 5518POPC   C2B69344  35.826  14.345   6.563
 5518POPC   C3B69345  35.682  14.401   6.983
 5518POPC   C4B69346  35.795  14.208   7.359
 5519POPC   NC369347  35.296   6.244   5.600
 5519POPC   PO469348  34.900   5.785   5.434
 5519POPC   GL169349  35.090   5.690   5.862
 5519POPC   GL269350  35.406   5.878   5.951
 5519POPC   C1A69351  35.115   5.819   6.332
 5519POPC   D2A69352  35.096   6.191   6.584
 5519POPC   C3A69353  35.267   6.055   6.987
 5519POPC   C4A69354  35.273   5.616   7.096
 5519POPC   C1B69355  35.703   5.804   6.272
 5519POPC   C2B69356  35.604   5.692   6.686
 5519POPC   C3B69357  35.751   5.844   7.073
 5519POPC   C4B69358  35.582   5.821   7.488
 5520POPC   NC369359   3.910  36.616   5.324
 5520POPC   PO469360   4.258  37.088   5.550
 5520POPC   GL169361   4.116  36.844   5.851
 5520POPC   GL269362   4.405  36.632   5.871
 5520POPC   C1A69363   4.263  36.940   6.267
 5520POPC   D2A69364   4.450  36.843   6.677
 5520POPC   C3A69365   4.224  37.034   6.999
 5520POPC   C4A69366   4.127  37.330   7.285
 5520POPC   C1B69367   4.452  36.465   6.291
 5520POPC   C2B69368   4.481  36.305   6.695
 5520POPC   C3B69369   4.707  36.541   7.019
 5520POPC   C4B69370   4.396  36.688   7.321
 5521POPC   NC369371  31.877  30.556   5.180
 5521POPC   PO469372  32.246  30.987   5.547
 5521POPC   GL169373  32.253  30.703   5.794
 5521POPC   GL269374  31.896  30.597   5.699
 5521POPC   C1A69375  32.432  30.797   6.195
 5521POPC   D2A69376  32.263  30.847   6.594
 5521POPC   C3A69377  32.429  30.666   6.960
 5521POPC   C4A69378  32.399  30.724   7.374
 5521POPC   C1B69379  31.967  30.450   6.123
 5521POPC   C2B69380  31.945  30.238   6.494
 5521POPC   C3B69381  31.975  30.469   6.843
 5521POPC   C4B69382  32.051  30.365   7.237
 5522POPC   NC369383  15.112  11.035   5.432
 5522POPC   PO469384  15.533  11.510   5.630
 5522POPC   GL169385  15.132  11.423   5.813
 5522POPC   GL269386  15.211  11.108   5.928
 5522POPC   C1A69387  14.864  11.438   6.198
 5522POPC   D2A69388  14.820  11.410   6.653
 5522POPC   C3A69389  15.209  11.346   6.852
 5522POPC   C4A69390  15.405  11.521   7.207
 5522POPC   C1B69391  15.325  11.175   6.353
 5522POPC   C2B69392  15.473  10.905   6.671
 5522POPC   C3B69393  15.381  10.937   7.100
 5522POPC   C4B69394  15.221  11.145   7.464
 5523POPC   NC369395  34.490  27.969   5.278
 5523POPC   PO469396  34.632  28.616   5.281
 5523POPC   GL169397  34.646  28.343   5.658
 5523POPC   GL269398  34.315  28.235   5.819
 5523POPC   C1A69399  34.707  28.468   6.101
 5523POPC   D2A69400  34.587  28.697   6.502
 5523POPC   C3A69401  34.614  28.522   6.946
 5523POPC   C4A69402  34.662  28.090   7.114
 5523POPC   C1B69403  34.188  28.508   6.195
 5523POPC   C2B69404  34.204  28.361   6.637
 5523POPC   C3B69405  34.154  28.363   7.082
 5523POPC   C4B69406  34.253  28.218   7.468
 5524POPC   NC369407  35.819   6.634   5.432
 5524POPC   PO469408  36.443   6.444   5.560
 5524POPC   GL169409  36.257   6.586   5.919
 5524POPC   GL269410  36.005   6.827   5.868
 5524POPC   C1A69411  36.365   6.695   6.342
 5524POPC   D2A69412  36.154   6.570   6.726
 5524POPC   C3A69413  36.244   6.526   7.164
 5524POPC   C4A69414  36.522   6.737   7.377
 5524POPC   C1B69415  35.858   6.686   6.279
 5524POPC   C2B69416  35.682   6.748   6.691
 5524POPC   C3B69417  35.816   6.786   7.145
 5524POPC   C4B69418  35.918   6.587   7.581
 5525POPC   NC369419  25.471  25.426   5.354
 5525POPC   PO469420  25.020  25.023   5.400
 5525POPC   GL169421  25.191  25.194   5.787
 5525POPC   GL269422  25.190  25.559   5.792
 5525POPC   C1A69423  25.230  25.053   6.210
 5525POPC   D2A69424  25.489  24.995   6.533
 5525POPC   C3A69425  25.318  24.959   6.943
 5525POPC   C4A69426  24.968  25.141   7.150
 5525POPC   C1B69427  25.385  25.553   6.222
 5525POPC   C2B69428  25.263  25.426   6.644
 5525POPC   C3B69429  25.233  25.585   7.040
 5525POPC   C4B69430  25.129  25.816   7.430
 5526POPC   NC369431  33.159   0.992   5.588
 5526POPC   PO469432  33.006   0.291   5.347
 5526POPC   GL169433  33.074   0.511   5.709
 5526POPC   GL269434  32.796   0.507   5.852
 5526POPC   C1A69435  33.261   0.546   6.135
 5526POPC   D2A69436  33.124   0.563   6.564
 5526POPC   C3A69437  33.246   0.336   6.904
 5526POPC   C4A69438  33.337   0.466   7.315
 5526POPC   C1B69439  32.715   0.544   6.270
 5526POPC   C2B69440  32.705   0.852   6.615
 5526POPC   C3B69441  32.850   0.875   7.042
 5526POPC   C4B69442  32.805   0.675   7.448
 5527POPC   NC369443  27.392  11.172   5.388
 5527POPC   PO469444  27.351  11.788   5.636
 5527POPC   GL169445  27.485  11.417   5.846
 5527POPC   GL269446  27.605  11.028   5.848
 5527POPC   C1A69447  27.748  11.426   6.181
 5527POPC   D2A69448  27.934  11.157   6.454
 5527POPC   C3A69449  27.892  11.227   6.921
 5527POPC   C4A69450  27.733  11.158   7.364
 5527POPC   C1B69451  27.364  11.085   6.209
 5527POPC   C2B69452  27.434  11.251   6.606
 5527POPC   C3B69453  27.389  11.099   7.007
 5527POPC   C4B69454  27.316  10.869   7.375
 5528POPC   NC369455   8.975  32.642   5.425
 5528POPC   PO469456   8.792  31.966   5.433
 5528POPC   GL169457   8.903  32.209   5.766
 5528POPC   GL269458   9.263  32.196   5.739
 5528POPC   C1A69459   8.685  32.325   6.158
 5528POPC   D2A69460   8.787  32.467   6.581
 5528POPC   C3A69461   8.534  32.493   6.949
 5528POPC   C4A69462   8.738  32.187   7.209
 5528POPC   C1B69463   9.385  31.979   6.123
 5528POPC   C2B69464   9.252  31.867   6.543
 5528POPC   C3B69465   9.145  32.125   6.881
 5528POPC   C4B69466   9.264  32.154   7.299
 5529POPC   NC369467  20.053  20.015   5.089
 5529POPC   PO469468  19.706  19.583   5.483
 5529POPC   GL169469  19.770  19.926   5.760
 5529POPC   GL269470  20.116  19.917   5.855
 5529POPC   C1A69471  19.782  20.005   6.208
 5529POPC   D2A69472  19.621  19.735   6.510
 5529POPC   C3A69473  19.783  19.768   6.920
 5529POPC   C4A69474  19.687  19.992   7.319
 5529POPC   C1B69475  20.128  19.646   6.236
 5529POPC   C2B69476  20.230  19.513   6.656
 5529POPC   C3B69477  20.297  19.734   7.049
 5529POPC   C4B69478  20.051  19.649   7.371
 5530POPC   NC369479   6.226  33.953   5.470
 5530POPC   PO469480   5.558  34.213   5.405
 5530POPC   GL169481   5.543  34.108   5.847
 5530POPC   GL269482   5.894  34.014   5.868
 5530POPC   C1A69483   5.562  33.866   6.270
 5530POPC   D2A69484   5.912  33.555   6.436
 5530POPC   C3A69485   5.944  33.488   6.896
 5530POPC   C4A69486   5.853  33.665   7.335
 5530POPC   C1B69487   6.041  34.043   6.279
 5530POPC   C2B69488   6.110  33.967   6.688
 5530POPC   C3B69489   5.780  33.964   6.943
 5530POPC   C4B69490   5.805  34.158   7.304
 5531POPC   NC369491   4.032   0.976   5.472
 5531POPC   PO469492   4.513   1.477   5.733
 5531POPC   GL169493   4.324   1.123   5.915
 5531POPC   GL269494   3.940   1.051   5.951
 5531POPC   C1A69495   4.308   1.020   6.343
 5531POPC   D2A69496   4.274   1.179   6.764
 5531POPC   C3A69497   4.283   1.080   7.176
 5531POPC   C4A69498   4.504   1.459   7.288
 5531POPC   C1B69499   3.953   1.441   6.121
 5531POPC   C2B69500   3.901   1.403   6.514
 5531POPC   C3B69501   3.990   1.614   6.872
 5531POPC   C4B69502   3.946   1.530   7.264
 5532POPC   NC369503  26.923  37.011   5.667
 5532POPC   PO469504  26.855  37.705   5.478
 5532POPC   GL169505  26.764  37.509   5.845
 5532POPC   GL269506  27.129  37.439   5.868
 5532POPC   C1A69507  26.579  37.670   6.228
 5532POPC   D2A69508  26.775  37.771   6.632
 5532POPC   C3A69509  26.655  37.702   7.079
 5532POPC   C4A69510  26.598  38.022   7.416
 5532POPC   C1B69511  27.068  37.496   6.292
 5532POPC   C2B69512  27.197  37.422   6.692
 5532POPC   C3B69513  27.258  37.365   7.124
 5532POPC   C4B69514  26.946  37.383   7.395
 5533POPC   NC369515  13.719  21.082   5.122
 5533POPC   PO469516  13.345  20.579   5.420
 5533POPC   GL169517  13.397  20.535   5.846
 5533POPC   GL269518  13.535  20.826   5.879
 5533POPC   C1A69519  13.539  20.538   6.299
 5533POPC   D2A69520  13.917  20.585   6.598
 5533POPC   C3A69521  13.832  20.451   7.038
 5533POPC   C4A69522  13.459  20.458   7.345
 5533POPC   C1B69523  13.466  21.061   6.229
 5533POPC   C2B69524  13.558  20.930   6.645
 5533POPC   C3B69525  13.357  20.623   6.872
 5533POPC   C4B69526  13.200  20.980   7.075
 5534POPC   NC369527  11.601  15.742   5.492
 5534POPC   PO469528  11.360  15.119   5.288
 5534POPC   GL169529  11.298  15.122   5.734
 5534POPC   GL269530  11.360  15.459   5.837
 5534POPC   C1A69531  11.094  15.098   6.153
 5534POPC   D2A69532  10.843  15.306   6.478
 5534POPC   C3A69533  10.949  15.198   6.865
 5534POPC   C4A69534  11.109  15.508   7.133
 5534POPC   C1B69535  11.553  15.386   6.211
 5534POPC   C2B69536  11.447  15.104   6.549
 5534POPC   C3B69537  11.423  15.105   6.980
 5534POPC   C4B69538  11.551  15.321   7.355
 5535POPC   NC369539  16.808  32.788   5.530
 5535POPC   PO469540  16.410  33.363   5.427
 5535POPC   GL169541  16.632  33.195   5.811
 5535POPC   GL269542  16.479  32.852   5.940
 5535POPC   C1A69543  16.838  33.375   6.185
 5535POPC   D2A69544  16.663  33.504   6.604
 5535POPC   C3A69545  16.751  33.180   6.919
 5535POPC   C4A69546  16.544  33.158   7.323
 5535POPC   C1B69547  16.610  32.957   6.383
 5535POPC   C2B69548  16.958  32.788   6.619
 5535POPC   C3B69549  17.002  32.602   7.007
 5535POPC   C4B69550  16.943  32.868   7.332
 5536POPC   NC369551  37.069  32.177   5.074
 5536POPC   PO469552  36.853  32.199   5.663
 5536POPC   GL169553  36.800  32.390   5.998
 5536POPC   GL269554  37.083  32.252   6.122
 5536POPC   C1A69555  36.674  32.460   6.392
 5536POPC   D2A69556  36.855  32.191   6.634
 5536POPC   C3A69557  36.950  32.299   7.047
 5536POPC   C4A69558  36.667  32.287   7.393
 5536POPC   C1B69559  37.145  32.658   6.281
 5536POPC   C2B69560  37.053  32.709   6.691
 5536POPC   C3B69561  37.326  32.660   7.043
 5536POPC   C4B69562  37.422  32.307   7.279
 5537POPC   NC369563  19.804  31.538   5.354
 5537POPC   PO469564  20.435  31.417   5.515
 5537POPC   GL169565  20.052  31.353   5.817
 5537POPC   GL269566  19.660  31.425   5.822
 5537POPC   C1A69567  19.921  31.284   6.240
 5537POPC   D2A69568  19.711  31.444   6.614
 5537POPC   C3A69569  19.824  31.381   7.040
 5537POPC   C4A69570  19.950  31.281   7.463
 5537POPC   C1B69571  19.455  31.527   6.186
 5537POPC   C2B69572  19.266  31.232   6.470
 5537POPC   C3B69573  19.476  31.007   6.792
 5537POPC   C4B69574  19.434  31.108   7.216
 5538POPC   NC369575  32.498  18.224   5.299
 5538POPC   PO469576  31.908  17.978   5.433
 5538POPC   GL169577  32.203  18.225   5.732
 5538POPC   GL269578  32.435  17.978   5.848
 5538POPC   C1A69579  32.182  18.491   6.131
 5538POPC   D2A69580  32.435  18.582   6.502
 5538POPC   C3A69581  32.263  18.651   6.877
 5538POPC   C4A69582  32.136  18.455   7.219
 5538POPC   C1B69583  32.534  18.134   6.278
 5538POPC   C2B69584  32.694  18.159   6.718
 5538POPC   C3B69585  32.558  18.175   7.171
 5538POPC   C4B69586  32.504  17.813   7.479
 5539POPC   NC369587  17.788  41.635   5.434
 5539POPC   PO469588  17.312  41.237   5.369
 5539POPC   GL169589  17.424  41.509   5.787
 5539POPC   GL269590  17.715  41.676   5.930
 5539POPC   C1A69591  17.309  41.581   6.240
 5539POPC   D2A69592  17.450  41.749   6.647
 5539POPC   C3A69593  17.481  41.446   6.948
 5539POPC   C4A69594  17.099  41.367   7.138
 5539POPC   C1B69595  17.877  41.950   6.250
 5539POPC   C2B69596  17.881  42.078   6.686
 5539POPC   C3B69597  17.800  41.816   7.056
 5539POPC   C4B69598  17.782  41.797   7.542
 5540POPC   NC369599  43.625  22.577   5.413
 5540POPC   PO469600  43.987  23.040   5.115
 5540POPC   GL169601  43.959  23.094   5.639
 5540POPC   GL269602  43.941  22.763   5.768
 5540POPC   C1A69603  44.063  23.111   6.150
 5540POPC   D2A69604  43.830  23.178   6.572
 5540POPC   C3A69605  43.958  23.101   6.982
 5540POPC   C4A69606  43.976  23.223   7.405
 5540POPC   C1B69607  43.931  22.607   6.199
 5540POPC   C2B69608  43.974  22.702   6.635
 5540POPC   C3B69609  43.662  22.675   6.967
 5540POPC   C4B69610  43.897  22.690   7.311
 5541POPC   NC369611  13.934  22.365   5.088
 5541POPC   PO469612  14.306  21.903   5.373
 5541POPC   GL169613  14.316  22.086   5.770
 5541POPC   GL269614  14.677  22.164   5.828
 5541POPC   C1A69615  14.303  22.249   6.187
 5541POPC   D2A69616  14.534  22.192   6.555
 5541POPC   C3A69617  14.316  22.288   6.919
 5541POPC   C4A69618  14.376  22.126   7.306
 5541POPC   C1B69619  14.812  22.404   6.178
 5541POPC   C2B69620  14.985  22.475   6.602
 5541POPC   C3B69621  14.827  22.289   6.966
 5541POPC   C4B69622  14.873  22.113   7.387
 5542POPC   NC369623  27.179  35.485   5.380
 5542POPC   PO469624  26.653  35.047   5.457
 5542POPC   GL169625  26.722  35.315   5.814
 5542POPC   GL269626  27.074  35.415   5.874
 5542POPC   C1A69627  26.751  35.427   6.260
 5542POPC   D2A69628  27.039  35.506   6.600
 5542POPC   C3A69629  26.927  35.414   7.041
 5542POPC   C4A69630  26.663  35.524   7.400
 5542POPC   C1B69631  27.123  35.062   6.153
 5542POPC   C2B69632  27.295  35.052   6.562
 5542POPC   C3B69633  27.350  34.883   6.933
 5542POPC   C4B69634  27.126  34.892   7.282
 5543POPC   NC369635  19.824   4.647   5.251
 5543POPC   PO469636  19.495   4.211   5.662
 5543POPC   GL169637  19.868   4.093   5.923
 5543POPC   GL269638  20.160   4.360   5.888
 5543POPC   C1A69639  20.169   3.928   6.231
 5543POPC   D2A69640  20.226   3.953   6.673
 5543POPC   C3A69641  19.963   4.276   6.824
 5543POPC   C4A69642  19.820   4.337   7.180
 5543POPC   C1B69643  19.973   4.418   6.313
 5543POPC   C2B69644  19.568   4.500   6.478
 5543POPC   C3B69645  19.415   4.369   6.848
 5543POPC   C4B69646  19.399   4.077   7.179
 5544POPC   NC369647  27.387  14.774   5.557
 5544POPC   PO469648  27.857  14.306   5.393
 5544POPC   GL169649  27.520  14.324   5.779
 5544POPC   GL269650  27.388  14.607   6.035
 5544POPC   C1A69651  27.432  14.139   6.199
 5544POPC   D2A69652  27.689  14.105   6.584
 5544POPC   C3A69653  27.525  14.339   6.949
 5544POPC   C4A69654  27.738  14.485   7.324
 5544POPC   C1B69655  27.573  14.613   6.440
 5544POPC   C2B69656  27.398  14.818   6.781
 5544POPC   C3B69657  27.326  14.764   7.209
 5544POPC   C4B69658  27.360  14.723   7.656
 5545POPC   NC369659  33.229  32.162   5.622
 5545POPC   PO469660  32.715  32.534   5.462
 5545POPC   GL169661  32.860  32.400   5.911
 5545POPC   GL269662  33.218  32.470   6.009
 5545POPC   C1A69663  32.941  32.017   6.222
 5545POPC   D2A69664  32.712  31.884   6.638
 5545POPC   C3A69665  32.895  32.118   6.954
 5545POPC   C4A69666  33.192  32.016   7.244
 5545POPC   C1B69667  32.971  32.475   6.416
 5545POPC   C2B69668  33.267  32.288   6.670
 5545POPC   C3B69669  33.357  32.460   7.055
 5545POPC   C4B69670  33.016  32.481   7.296
 5546POPC   NC369671  19.407   0.531   5.315
 5546POPC   PO469672  18.771   0.301   5.235
 5546POPC   GL169673  18.924   0.439   5.661
 5546POPC   GL269674  18.889   0.800   5.642
 5546POPC   C1A69675  19.160   0.624   6.048
 5546POPC   D2A69676  19.228   0.612   6.491
 5546POPC   C3A69677  18.958   0.504   6.829
 5546POPC   C4A69678  19.197   0.484   7.220
 5546POPC   C1B69679  18.755   0.958   6.071
 5546POPC   C2B69680  18.730   1.081   6.525
 5546POPC   C3B69681  18.800   0.974   6.999
 5546POPC   C4B69682  18.702   0.610   7.270
 5547POPC   NC369683   7.982  13.796   5.529
 5547POPC   PO469684   8.582  13.861   5.667
 5547POPC   GL169685   8.357  13.750   5.948
 5547POPC   GL269686   8.309  13.441   5.799
 5547POPC   C1A69687   8.287  13.736   6.375
 5547POPC   D2A69688   8.104  13.777   6.769
 5547POPC   C3A69689   8.307  13.814   7.133
 5547POPC   C4A69690   8.342  13.452   7.380
 5547POPC   C1B69691   7.961  13.437   6.114
 5547POPC   C2B69692   7.931  13.315   6.554
 5547POPC   C3B69693   7.946  13.352   7.009
 5547POPC   C4B69694   7.876  13.260   7.425
 5548POPC   NC369695  35.773  13.045   5.170
 5548POPC   PO469696  35.148  12.763   5.474
 5548POPC   GL169697  35.173  13.004   5.851
 5548POPC   GL269698  35.314  12.666   5.976
 5548POPC   C1A69699  35.329  13.098   6.258
 5548POPC   D2A69700  35.024  13.194   6.564
 5548POPC   C3A69701  35.175  13.184   6.939
 5548POPC   C4A69702  35.246  13.007   7.314
 5548POPC   C1B69703  35.603  12.645   6.292
 5548POPC   C2B69704  35.420  12.751   6.703
 5548POPC   C3B69705  35.422  12.581   7.115
 5548POPC   C4B69706  35.613  12.738   7.523
 5549POPC   NC369707   3.158   9.770   5.192
 5549POPC   PO469708   2.802   9.373   5.473
 5549POPC   GL169709   2.999   9.626   5.772
 5549POPC   GL269710   3.095   9.352   5.950
 5549POPC   C1A69711   3.053   9.789   6.207
 5549POPC   D2A69712   2.811   9.718   6.599
 5549POPC   C3A69713   2.901   9.702   7.046
 5549POPC   C4A69714   2.706   9.989   7.322
 5549POPC   C1B69715   2.675   9.418   6.203
 5549POPC   C2B69716   2.484   9.319   6.647
 5549POPC   C3B69717   2.474   9.377   7.149
 5549POPC   C4B69718   2.347   9.263   7.596
 5550POPC   NC369719   1.380   9.361   5.586
 5550POPC   PO469720   1.218  10.041   5.465
 5550POPC   GL169721   1.400   9.836   5.811
 5550POPC   GL269722   1.086   9.612   5.920
 5550POPC   C1A69723   1.334   9.944   6.228
 5550POPC   D2A69724   1.032   9.769   6.499
 5550POPC   C3A69725   1.184   9.783   6.905
 5550POPC   C4A69726   0.989   9.863   7.253
 5550POPC   C1B69727   1.136   9.318   6.279
 5550POPC   C2B69728   1.116   9.318   6.743
 5550POPC   C3B69729   1.053   9.351   7.206
 5550POPC   C4B69730   0.952   9.541   7.641
 5551POPC   NC369731  42.689  32.324   5.419
 5551POPC   PO469732  43.174  31.982   5.434
 5551POPC   GL169733  43.188  32.226   5.799
 5551POPC   GL269734  42.855  32.091   5.857
 5551POPC   C1A69735  43.486  32.269   6.177
 5551POPC   D2A69736  43.522  32.005   6.562
 5551POPC   C3A69737  43.470  32.247   6.934
 5551POPC   C4A69738  43.233  32.211   7.319
 5551POPC   C1B69739  43.046  32.025   6.261
 5551POPC   C2B69740  43.028  32.137   6.664
 5551POPC   C3B69741  42.738  32.134   6.981
 5551POPC   C4B69742  42.808  31.956   7.327
 5552POPC   NC369743   0.187  29.370   5.382
 5552POPC   PO469744   0.697  28.819   5.521
 5552POPC   GL169745   0.385  29.027   5.789
 5552POPC   GL269746   0.390  29.397   5.880
 5552POPC   C1A69747   0.333  28.962   6.231
 5552POPC   D2A69748   0.404  29.190   6.602
 5552POPC   C3A69749   0.678  29.040   6.931
 5552POPC   C4A69750   0.462  29.105   7.306
 5552POPC   C1B69751   0.092  29.460   6.256
 5552POPC   C2B69752   0.009  29.516   6.722
 5552POPC   C3B69753   0.330  29.534   7.031
 5552POPC   C4B69754   0.270  29.549   7.450
 5553POPC   NC369755   6.364  11.015   5.509
 5553POPC   PO469756   6.748  11.508   5.320
 5553POPC   GL169757   6.663  11.404   5.751
 5553POPC   GL269758   6.835  11.077   5.760
 5553POPC   C1A69759   6.642  11.382   6.216
 5553POPC   D2A69760   6.596  11.250   6.651
 5553POPC   C3A69761   6.719  11.458   7.040
 5553POPC   C4A69762   6.419  11.497   7.382
 5553POPC   C1B69763   6.899  10.927   6.189
 5553POPC   C2B69764   7.067  11.082   6.550
 5553POPC   C3B69765   7.046  11.064   6.975
 5553POPC   C4B69766   7.143  11.286   7.324
 5554POPC   NC369767  19.945  42.789   5.245
 5554POPC   PO469768  19.662  43.413   5.330
 5554POPC   GL169769  19.721  43.095   5.714
 5554POPC   GL269770  19.989  42.816   5.763
 5554POPC   C1A69771  19.813  43.088   6.192
 5554POPC   D2A69772  20.092  43.075   6.554
 5554POPC   C3A69773  19.894  43.376   6.868
 5554POPC   C4A69774  20.013  43.309   7.265
 5554POPC   C1B69775  20.042  42.636   6.199
 5554POPC   C2B69776  19.723  42.642   6.511
 5554POPC   C3B69777  19.648  42.967   6.770
 5554POPC   C4B69778  19.586  43.022   7.196
 5555POPC   NC369779  10.663  32.256   5.398
 5555POPC   PO469780   9.937  32.008   5.493
 5555POPC   GL169781  10.284  32.149   5.785
 5555POPC   GL269782  10.650  32.289   5.882
 5555POPC   C1A69783  10.400  32.038   6.210
 5555POPC   D2A69784  10.504  32.219   6.606
 5555POPC   C3A69785  10.256  32.095   6.968
 5555POPC   C4A69786  10.351  32.225   7.358
 5555POPC   C1B69787  10.921  32.074   6.201
 5555POPC   C2B69788  11.017  32.144   6.609
 5555POPC   C3B69789  10.834  32.254   7.005
 5555POPC   C4B69790  10.779  31.897   7.210
 5556POPC   NC369791  11.489  12.352   5.441
 5556POPC   PO469792  11.038  11.829   5.603
 5556POPC   GL169793  11.333  12.032   5.894
 5556POPC   GL269794  11.216  12.367   5.877
 5556POPC   C1A69795  11.410  12.292   6.319
 5556POPC   D2A69796  11.577  12.485   6.679
 5556POPC   C3A69797  11.333  12.253   6.970
 5556POPC   C4A69798  11.324  12.162   7.413
 5556POPC   C1B69799  10.910  12.159   6.215
 5556POPC   C2B69800  10.797  12.008   6.650
 5556POPC   C3B69801  10.908  12.031   7.119
 5556POPC   C4B69802  10.956  11.825   7.554
 5557POPC   NC369803  10.157   0.754   5.335
 5557POPC   PO469804  10.675   0.328   5.415
 5557POPC   GL169805  10.581   0.368   5.867
 5557POPC   GL269806  10.581   0.703   5.883
 5557POPC   C1A69807  10.665   0.404   6.315
 5557POPC   D2A69808  10.534   0.163   6.676
 5557POPC   C3A69809  10.673   0.327   7.086
 5557POPC   C4A69810  10.559   0.504   7.490
 5557POPC   C1B69811  10.325   0.792   6.256
 5557POPC   C2B69812  10.261   0.608   6.663
 5557POPC   C3B69813  10.317   0.707   7.086
 5557POPC   C4B69814  10.261   0.984   7.438
 5558POPC   NC369815  16.980   1.590   5.599
 5558POPC   PO469816  16.581   2.123   5.544
 5558POPC   GL169817  16.721   1.980   5.853
 5558POPC   GL269818  16.535   1.686   5.954
 5558POPC   C1A69819  16.662   2.170   6.243
 5558POPC   D2A69820  16.564   1.923   6.578
 5558POPC   C3A69821  16.803   2.069   6.889
 5558POPC   C4A69822  16.684   2.175   7.285
 5558POPC   C1B69823  16.919   1.724   6.232
 5558POPC   C2B69824  17.014   1.610   6.616
 5558POPC   C3B69825  16.749   1.538   6.936
 5558POPC   C4B69826  16.958   1.736   7.246
 5559POPC   NC369827  11.001  21.502   5.054
 5559POPC   PO469828  11.541  21.591   5.541
 5559POPC   GL169829  11.496  21.405   5.933
 5559POPC   GL269830  11.237  21.580   6.067
 5559POPC   C1A69831  11.495  21.252   6.344
 5559POPC   D2A69832  11.326  21.310   6.722
 5559POPC   C3A69833  11.537  21.259   7.079
 5559POPC   C4A69834  11.591  21.297   7.522
 5559POPC   C1B69835  10.982  21.242   6.213
 5559POPC   C2B69836  10.823  21.133   6.604
 5559POPC   C3B69837  10.892  21.401   6.954
 5559POPC   C4B69838  11.045  21.131   7.234
 5560POPC   NC369839  26.996  10.430   5.389
 5560POPC   PO469840  26.386  10.469   5.480
 5560POPC   GL169841  26.695  10.584   5.783
 5560POPC   GL269842  26.837  10.280   5.862
 5560POPC   C1A69843  26.938  10.715   6.176
 5560POPC   D2A69844  27.196  10.746   6.550
 5560POPC   C3A69845  26.956  10.841   6.908
 5560POPC   C4A69846  26.824  10.720   7.305
 5560POPC   C1B69847  26.719  10.238   6.263
 5560POPC   C2B69848  26.788  10.443   6.636
 5560POPC   C3B69849  26.922  10.301   7.041
 5560POPC   C4B69850  26.670  10.249   7.420
 5561POPC   NC369851  11.165   8.307   5.335
 5561POPC   PO469852  11.565   7.729   5.204
 5561POPC   GL169853  11.360   7.981   5.634
 5561POPC   GL269854  11.472   8.308   5.754
 5561POPC   C1A69855  11.317   7.987   6.123
 5561POPC   D2A69856  11.241   8.051   6.559
 5561POPC   C3A69857  11.494   7.909   6.904
 5561POPC   C4A69858  11.335   7.904   7.258
 5561POPC   C1B69859  11.413   8.542   6.141
 5561POPC   C2B69860  11.271   8.596   6.561
 5561POPC   C3B69861  11.391   8.398   6.923
 5561POPC   C4B69862  11.277   8.386   7.359
 5562POPC   NC369863  14.899  14.621   5.324
 5562POPC   PO469864  15.481  14.426   5.580
 5562POPC   GL169865  15.078  14.424   5.778
 5562POPC   GL269866  14.993  14.694   6.007
 5562POPC   C1A69867  14.809  14.188   6.084
 5562POPC   D2A69868  14.899  13.948   6.496
 5562POPC   C3A69869  14.854  14.106   6.936
 5562POPC   C4A69870  15.079  14.140   7.303
 5562POPC   C1B69871  15.233  14.394   6.287
 5562POPC   C2B69872  15.267  14.304   6.721
 5562POPC   C3B69873  15.332  14.530   7.107
 5562POPC   C4B69874  15.413  14.631   7.513
 5563POPC   NC369875  41.596  19.685   5.442
 5563POPC   PO469876  42.087  19.864   5.173
 5563POPC   GL169877  41.845  20.014   5.708
 5563POPC   GL269878  41.419  19.917   5.833
 5563POPC   C1A69879  41.747  19.881   6.187
 5563POPC   D2A69880  41.490  20.037   6.547
 5563POPC   C3A69881  41.706  20.069   6.946
 5563POPC   C4A69882  41.879  19.997   7.353
 5563POPC   C1B69883  41.302  19.646   6.232
 5563POPC   C2B69884  41.163  19.687   6.704
 5563POPC   C3B69885  41.391  19.674   7.134
 5563POPC   C4B69886  41.212  19.587   7.595
 5564POPC   NC369887  14.494  27.542   5.405
 5564POPC   PO469888  13.864  27.580   5.371
 5564POPC   GL169889  14.141  27.495   5.778
 5564POPC   GL269890  14.413  27.737   5.893
 5564POPC   C1A69891  14.324  27.347   6.199
 5564POPC   D2A69892  14.376  27.579   6.597
 5564POPC   C3A69893  14.484  27.368   7.002
 5564POPC   C4A69894  14.235  27.374   7.397
 5564POPC   C1B69895  14.623  28.029   6.216
 5564POPC   C2B69896  14.785  27.974   6.650
 5564POPC   C3B69897  14.582  27.872   7.050
 5564POPC   C4B69898  14.628  27.674   7.474
 5565POPC   NC369899  28.717  29.268   5.297
 5565POPC   PO469900  29.277  29.043   5.584
 5565POPC   GL169901  29.026  29.136   5.887
 5565POPC   GL269902  28.676  29.124   5.799
 5565POPC   C1A69903  29.162  29.126   6.293
 5565POPC   D2A69904  29.247  28.849   6.610
 5565POPC   C3A69905  29.162  29.086   6.956
 5565POPC   C4A69906  29.184  29.204   7.370
 5565POPC   C1B69907  28.730  28.778   6.101
 5565POPC   C2B69908  28.662  28.716   6.526
 5565POPC   C3B69909  28.860  28.670   6.896
 5565POPC   C4B69910  28.837  28.834   7.266
 5566POPC   NC369911  20.607   7.748   5.475
 5566POPC   PO469912  20.905   7.059   5.472
 5566POPC   GL169913  20.792   7.355   5.746
 5566POPC   GL269914  20.436   7.299   5.710
 5566POPC   C1A69915  20.904   7.499   6.169
 5566POPC   D2A69916  20.876   7.721   6.583
 5566POPC   C3A69917  20.730   7.461   6.906
 5566POPC   C4A69918  20.519   7.491   7.295
 5566POPC   C1B69919  20.582   7.096   6.126
 5566POPC   C2B69920  20.826   7.097   6.532
 5566POPC   C3B69921  20.944   7.000   6.959
 5566POPC   C4B69922  20.839   7.110   7.428
 5567POPC   NC369923  30.360  31.108   5.577
 5567POPC   PO469924  29.867  30.617   5.424
 5567POPC   GL169925  29.974  30.509   5.847
 5567POPC   GL269926  30.252  30.723   5.889
 5567POPC   C1A69927  29.757  30.447   6.236
 5567POPC   D2A69928  29.946  30.362   6.629
 5567POPC   C3A69929  29.872  30.548   7.031
 5567POPC   C4A69930  30.141  30.424   7.380
 5567POPC   C1B69931  30.287  30.597   6.302
 5567POPC   C2B69932  30.198  30.798   6.700
 5567POPC   C3B69933  30.364  30.792   7.117
 5567POPC   C4B69934  30.230  30.886   7.554
 5568POPC   NC369935  37.691  32.877   5.405
 5568POPC   PO469936  37.207  33.130   5.750
 5568POPC   GL169937  37.665  33.198   5.858
 5568POPC   GL269938  37.964  32.986   5.832
 5568POPC   C1A69939  37.938  33.239   6.264
 5568POPC   D2A69940  37.993  33.063   6.683
 5568POPC   C3A69941  37.651  33.053   7.032
 5568POPC   C4A69942  37.762  33.140   7.510
 5568POPC   C1B69943  37.697  32.794   6.162
 5568POPC   C2B69944  37.596  32.743   6.597
 5568POPC   C3B69945  37.843  32.586   6.940
 5568POPC   C4B69946  37.849  32.640   7.387
 5569POPC   NC369947  35.605  13.848   5.398
 5569POPC   PO469948  35.378  13.232   5.369
 5569POPC   GL169949  35.565  13.393   5.763
 5569POPC   GL269950  35.415  13.709   5.843
 5569POPC   C1A69951  35.716  13.483   6.199
 5569POPC   D2A69952  35.493  13.483   6.604
 5569POPC   C3A69953  35.662  13.321   7.012
 5569POPC   C4A69954  35.364  13.524   7.301
 5569POPC   C1B69955  35.420  13.924   6.256
 5569POPC   C2B69956  35.428  14.013   6.713
 5569POPC   C3B69957  35.327  14.043   7.161
 5569POPC   C4B69958  35.021  13.912   7.471
 5570POPC   NC369959  28.145   0.685   5.592
 5570POPC   PO469960  28.469   0.126   5.475
 5570POPC   GL169961  28.471   0.385   5.888
 5570POPC   GL269962  28.355   0.739   6.039
 5570POPC   C1A69963  28.719   0.476   6.258
 5570POPC   D2A69964  28.464   0.425   6.600
 5570POPC   C3A69965  28.542   0.506   6.979
 5570POPC   C4A69966  28.840   0.385   7.245
 5570POPC   C1B69967  28.076   0.495   6.280
 5570POPC   C2B69968  27.980   0.473   6.742
 5570POPC   C3B69969  28.058   0.339   7.170
 5570POPC   C4B69970  28.113   0.115   7.577
 5571POPC   NC369971  38.225  39.922   5.392
 5571POPC   PO469972  38.877  40.068   5.119
 5571POPC   GL169973  38.629  40.089   5.651
 5571POPC   GL269974  38.252  39.944   5.878
 5571POPC   C1A69975  38.592  40.157   6.142
 5571POPC   D2A69976  38.322  40.030   6.512
 5571POPC   C3A69977  38.505  39.973   6.915
 5571POPC   C4A69978  38.451  39.731   7.298
 5571POPC   C1B69979  37.944  40.178   6.186
 5571POPC   C2B69980  37.859  40.324   6.636
 5571POPC   C3B69981  38.062  40.372   7.074
 5571POPC   C4B69982  38.086  40.395   7.571
 5572POPC   NC369983  39.335  36.711   5.617
 5572POPC   PO469984  39.196  36.146   5.297
 5572POPC   GL169985  39.137  36.164   5.745
 5572POPC   GL269986  38.898  35.922   5.886
 5572POPC   C1A69987  39.357  36.104   6.149
 5572POPC   D2A69988  39.466  36.240   6.562
 5572POPC   C3A69989  39.537  36.036   6.953
 5572POPC   C4A69990  39.364  36.313   7.272
 5572POPC   C1B69991  38.749  35.828   6.272
 5572POPC   C2B69992  38.995  36.005   6.565
 5572POPC   C3B69993  39.006  36.120   6.967
 5572POPC   C4B69994  39.015  35.830   7.323
 5573POPC   NC369995  31.836  38.192   5.414
 5573POPC   PO469996  31.202  38.059   5.404
 5573POPC   GL169997  31.439  38.377   5.723
 5573POPC   GL269998  31.169  38.520   5.946
 5573POPC   C1A69999  31.654  38.558   6.108
 5573POPC   D2A70000  31.546  38.839   6.480
 5573POPC   C3A70001  31.461  38.633   6.843
 5573POPC   C4A70002  31.600  38.679   7.244
 5573POPC   C1B70003  31.245  38.414   6.382
 5573POPC   C2B70004  31.382  38.136   6.670
 5573POPC   C3B70005  31.363  37.952   7.052
 5573POPC   C4B70006  31.434  38.195   7.412
 5574POPC   NC370007  40.123  19.255   5.466
 5574POPC   PO470008  39.582  18.958   5.463
 5574POPC   GL170009  39.835  19.012   5.871
 5574POPC   GL270010  40.178  19.152   5.939
 5574POPC   C1A70011  39.798  19.201   6.291
 5574POPC   D2A70012  39.636  19.218   6.714
 5574POPC   C3A70013  39.941  19.145   7.026
 5574POPC   C4A70014  40.021  19.061   7.480
 5574POPC   C1B70015  40.210  18.866   6.249
 5574POPC   C2B70016  40.392  18.910   6.637
 5574POPC   C3B70017  40.446  19.087   7.014
 5574POPC   C4B70018  40.292  18.737   7.181
 5575POPC   NC370019  17.758   2.079   5.398
 5575POPC   PO470020  17.061   1.958   5.278
 5575POPC   GL170021  17.312   1.991   5.712
 5575POPC   GL270022  17.586   2.256   5.851
 5575POPC   C1A70023  17.392   1.916   6.180
 5575POPC   D2A70024  17.189   2.089   6.542
 5575POPC   C3A70025  17.315   1.981   6.941
 5575POPC   C4A70026  17.551   2.197   7.270
 5575POPC   C1B70027  17.884   1.922   6.056
 5575POPC   C2B70028  17.923   1.632   6.455
 5575POPC   C3B70029  17.780   1.705   6.912
 5575POPC   C4B70030  17.936   1.869   7.333
 5576POPC   NC370031   6.686  40.352   5.429
 5576POPC   PO470032   6.995  39.762   5.343
 5576POPC   GL170033   6.631  39.865   5.672
 5576POPC   GL270034   6.659  40.164   5.889
 5576POPC   C1A70035   6.387  39.782   6.086
 5576POPC   D2A70036   6.403  39.643   6.528
 5576POPC   C3A70037   6.592  39.780   6.918
 5576POPC   C4A70038   6.528  39.642   7.347
 5576POPC   C1B70039   6.922  40.330   6.245
 5576POPC   C2B70040   6.964  40.433   6.661
 5576POPC   C3B70041   6.970  40.367   7.078
 5576POPC   C4B70042   6.996  40.390   7.491
 5577POPC   NC370043  26.855  24.609   5.641
 5577POPC   PO470044  26.862  25.164   5.194
 5577POPC   GL170045  26.935  25.116   5.700
 5577POPC   GL270046  26.830  25.393   5.882
 5577POPC   C1A70047  26.844  24.978   6.204
 5577POPC   D2A70048  26.814  25.180   6.639
 5577POPC   C3A70049  27.050  25.208   7.045
 5577POPC   C4A70050  26.807  25.255   7.457
 5577POPC   C1B70051  26.656  25.513   6.254
 5577POPC   C2B70052  26.821  25.686   6.620
 5577POPC   C3B70053  26.695  25.576   7.005
 5577POPC   C4B70054  26.430  25.551   7.301
 5578POPC   NC370055  34.936  31.447   5.312
 5578POPC   PO470056  34.272  31.504   5.356
 5578POPC   GL170057  34.532  31.304   5.705
 5578POPC   GL270058  34.843  31.472   5.811
 5578POPC   C1A70059  34.615  31.145   6.141
 5578POPC   D2A70060  34.475  31.281   6.527
 5578POPC   C3A70061  34.657  31.270   6.930
 5578POPC   C4A70062  34.657  31.390   7.334
 5578POPC   C1B70063  34.759  31.641   6.228
 5578POPC   C2B70064  34.646  31.751   6.660
 5578POPC   C3B70065  34.873  31.752   7.067
 5578POPC   C4B70066  34.990  31.745   7.549
 5579POPC   NC370067  41.243  30.552   5.215
 5579POPC   PO470068  41.881  30.467   5.319
 5579POPC   GL170069  41.658  30.409   5.751
 5579POPC   GL270070  41.274  30.462   5.738
 5579POPC   C1A70071  41.668  30.578   6.199
 5579POPC   D2A70072  41.856  30.862   6.562
 5579POPC   C3A70073  41.638  30.773   6.996
 5579POPC   C4A70074  41.435  30.383   7.155
 5579POPC   C1B70075  41.189  30.704   6.120
 5579POPC   C2B70076  41.347  30.795   6.543
 5579POPC   C3B70077  41.135  30.934   6.884
 5579POPC   C4B70078  41.106  30.754   7.271
 5580POPC   NC370079  20.656   3.546   5.537
 5580POPC   PO470080  20.023   3.524   5.634
 5580POPC   GL170081  20.340   3.334   5.907
 5580POPC   GL270082  20.732   3.216   5.917
 5580POPC   C1A70083  20.505   3.529   6.276
 5580POPC   D2A70084  20.709   3.741   6.605
 5580POPC   C3A70085  20.534   3.616   6.983
 5580POPC   C4A70086  20.241   3.695   7.276
 5580POPC   C1B70087  20.987   3.319   6.313
 5580POPC   C2B70088  21.105   3.453   6.748
 5580POPC   C3B70089  20.975   3.479   7.196
 5580POPC   C4B70090  21.042   3.173   7.572
 5581POPC   NC370091   9.252  43.247   5.143
 5581POPC   PO470092   9.110  42.669   5.542
 5581POPC   GL170093   8.934  43.016   5.780
 5581POPC   GL270094   8.590  43.123   5.676
 5581POPC   C1A70095   9.033  43.149   6.219
 5581POPC   D2A70096   9.277  43.435   6.496
 5581POPC   C3A70097   9.148  43.241   6.846
 5581POPC   C4A70098   8.856  43.248   7.151
 5581POPC   C1B70099   8.542  42.989   6.146
 5581POPC   C2B70100   8.638  43.114   6.602
 5581POPC   C3B70101   8.447  42.962   7.000
 5581POPC   C4B70102   8.545  42.934   7.433
 5582POPC   NC370103  39.702  16.242   5.472
 5582POPC   PO470104  40.284  15.823   5.606
 5582POPC   GL170105  40.003  16.028   5.864
 5582POPC   GL270106  40.059  16.386   5.805
 5582POPC   C1A70107  39.932  15.864   6.294
 5582POPC   D2A70108  40.150  15.611   6.641
 5582POPC   C3A70109  40.037  15.713   7.087
 5582POPC   C4A70110  39.732  15.965   7.322
 5582POPC   C1B70111  39.824  16.359   6.196
 5582POPC   C2B70112  39.959  16.259   6.636
 5582POPC   C3B70113  39.839  16.390   7.050
 5582POPC   C4B70114  39.884  16.410   7.510
 5583POPC   NC370115  29.571  36.339   5.397
 5583POPC   PO470116  28.958  35.948   5.451
 5583POPC   GL170117  29.160  36.030   5.810
 5583POPC   GL270118  29.282  36.345   5.811
 5583POPC   C1A70119  29.025  36.166   6.237
 5583POPC   D2A70120  29.152  36.352   6.641
 5583POPC   C3A70121  29.096  36.120   7.011
 5583POPC   C4A70122  28.994  36.062   7.421
 5583POPC   C1B70123  29.532  36.123   6.135
 5583POPC   C2B70124  29.599  36.043   6.538
 5583POPC   C3B70125  29.591  36.191   6.961
 5583POPC   C4B70126  29.487  35.962   7.339
 5584POPC   NC370127  42.600  33.156   5.461
 5584POPC   PO470128  43.263  33.285   5.522
 5584POPC   GL170129  42.964  33.089   5.860
 5584POPC   GL270130  42.788  32.756   5.824
 5584POPC   C1A70131  42.960  33.051   6.321
 5584POPC   D2A70132  42.850  32.938   6.736
 5584POPC   C3A70133  43.197  33.019   7.013
 5584POPC   C4A70134  43.166  33.214   7.398
 5584POPC   C1B70135  42.976  32.538   6.188
 5584POPC   C2B70136  43.216  32.599   6.580
 5584POPC   C3B70137  43.040  32.540   6.995
 5584POPC   C4B70138  43.057  32.709   7.403
 5585POPC   NC370139  22.095  38.920   5.407
 5585POPC   PO470140  22.097  39.597   5.432
 5585POPC   GL170141  22.190  39.333   5.794
 5585POPC   GL270142  22.399  39.066   5.808
 5585POPC   C1A70143  22.073  39.261   6.221
 5585POPC   D2A70144  22.140  39.540   6.563
 5585POPC   C3A70145  22.038  39.519   7.002
 5585POPC   C4A70146  22.034  39.246   7.374
 5585POPC   C1B70147  22.547  39.039   6.220
 5585POPC   C2B70148  22.324  39.008   6.597
 5585POPC   C3B70149  22.333  39.095   7.009
 5585POPC   C4B70150  22.391  38.897   7.415
 5586POPC   NC370151  12.243  29.943   5.552
 5586POPC   PO470152  11.731  29.501   5.481
 5586POPC   GL170153  11.896  29.676   5.884
 5586POPC   GL270154  11.815  30.048   5.954
 5586POPC   C1A70155  11.886  29.756   6.356
 5586POPC   D2A70156  11.778  30.189   6.497
 5586POPC   C3A70157  11.726  30.194   6.937
 5586POPC   C4A70158  11.836  29.900   7.246
 5586POPC   C1B70159  12.222  30.093   6.191
 5586POPC   C2B70160  12.480  29.928   6.537
 5586POPC   C3B70161  12.251  29.925   6.925
 5586POPC   C4B70162  12.184  30.287   7.199
 5587POPC   NC370163   8.272  21.918   5.408
 5587POPC   PO470164   8.055  22.504   5.559
 5587POPC   GL170165   8.087  22.139   5.837
 5587POPC   GL270166   8.435  21.987   5.900
 5587POPC   C1A70167   8.033  21.898   6.207
 5587POPC   D2A70168   8.173  21.849   6.629
 5587POPC   C3A70169   8.087  22.162   6.953
 5587POPC   C4A70170   8.006  22.295   7.392
 5587POPC   C1B70171   8.495  22.155   6.349
 5587POPC   C2B70172   8.592  22.271   6.802
 5587POPC   C3B70173   8.510  22.273   7.222
 5587POPC   C4B70174   8.483  22.399   7.669
 5588POPC   NC370175  15.753  31.710   5.376
 5588POPC   PO470176  16.258  31.424   5.427
 5588POPC   GL170177  16.023  31.479   5.808
 5588POPC   GL270178  15.751  31.687   5.880
 5588POPC   C1A70179  15.916  31.297   6.209
 5588POPC   D2A70180  15.925  31.485   6.609
 5588POPC   C3A70181  16.013  31.172   6.940
 5588POPC   C4A70182  16.349  31.138   7.226
 5588POPC   C1B70183  15.557  31.658   6.266
 5588POPC   C2B70184  15.386  31.603   6.664
 5588POPC   C3B70185  15.661  31.533   7.040
 5588POPC   C4B70186  16.107  31.603   7.183
 5589POPC   NC370187   7.962  19.164   5.492
 5589POPC   PO470188   8.550  19.160   5.203
 5589POPC   GL170189   8.423  19.110   5.681
 5589POPC   GL270190   8.295  19.451   5.776
 5589POPC   C1A70191   8.220  19.100   6.143
 5589POPC   D2A70192   8.271  18.910   6.567
 5589POPC   C3A70193   8.093  19.054   6.932
 5589POPC   C4A70194   8.350  18.969   7.270
 5589POPC   C1B70195   8.248  19.641   6.185
 5589POPC   C2B70196   8.161  19.480   6.596
 5589POPC   C3B70197   8.393  19.477   6.971
 5589POPC   C4B70198   8.280  19.447   7.379
 5590POPC   NC370199  36.110  38.659   5.498
 5590POPC   PO470200  36.340  37.997   5.446
 5590POPC   GL170201  36.385  38.296   5.771
 5590POPC   GL270202  36.672  38.154   5.850
 5590POPC   C1A70203  36.179  38.467   6.158
 5590POPC   D2A70204  36.015  38.444   6.591
 5590POPC   C3A70205  36.075  38.743   6.928
 5590POPC   C4A70206  35.643  38.794   7.070
 5590POPC   C1B70207  36.444  37.956   6.213
 5590POPC   C2B70208  36.299  37.995   6.643
 5590POPC   C3B70209  36.354  38.291   6.944
 5590POPC   C4B70210  36.328  38.273   7.341
 5591POPC   NC370211   6.958  26.790   5.466
 5591POPC   PO470212   6.269  26.686   5.464
 5591POPC   GL170213   6.489  26.691   5.833
 5591POPC   GL270214   6.714  26.922   5.884
 5591POPC   C1A70215   6.394  26.794   6.257
 5591POPC   D2A70216   6.623  26.753   6.595
 5591POPC   C3A70217   6.366  26.694   6.952
 5591POPC   C4A70218   6.528  26.466   7.287
 5591POPC   C1B70219   6.961  27.032   6.242
 5591POPC   C2B70220   7.095  26.959   6.652
 5591POPC   C3B70221   6.794  26.992   7.000
 5591POPC   C4B70222   6.514  27.005   7.358
 5592POPC   NC370223   1.195  38.906   5.496
 5592POPC   PO470224   0.828  39.429   5.430
 5592POPC   GL170225   1.097  39.305   5.794
 5592POPC   GL270226   1.057  38.967   5.976
 5592POPC   C1A70227   1.340  39.343   6.179
 5592POPC   D2A70228   1.208  39.179   6.560
 5592POPC   C3A70229   1.307  39.426   6.904
 5592POPC   C4A70230   1.223  39.332   7.325
 5592POPC   C1B70231   1.393  38.802   6.217
 5592POPC   C2B70232   1.565  38.795   6.620
 5592POPC   C3B70233   1.430  38.795   7.018
 5592POPC   C4B70234   1.517  38.929   7.464
 5593POPC   NC370235  35.134  44.373   5.353
 5593POPC   PO470236  35.370   0.116   5.401
 5593POPC   GL170237  35.416   0.027   5.816
 5593POPC   GL270238  35.099  44.843   5.802
 5593POPC   C1A70239  35.474  44.788   6.200
 5593POPC   D2A70240  35.610  44.491   6.482
 5593POPC   C3A70241  35.624  44.693   6.829
 5593POPC   C4A70242  35.467  44.762   7.193
 5593POPC   C1B70243  35.001  44.648   6.203
 5593POPC   C2B70244  35.144  44.714   6.623
 5593POPC   C3B70245  35.061  44.516   7.006
 5593POPC   C4B70246  34.994  44.705   7.416
 5594POPC   NC370247   5.048  11.465   5.129
 5594POPC   PO470248   5.156  10.844   5.227
 5594POPC   GL170249   5.152  11.193   5.611
 5594POPC   GL270250   4.969  11.486   5.718
 5594POPC   C1A70251   5.339  11.302   6.061
 5594POPC   D2A70252   5.259  11.041   6.489
 5594POPC   C3A70253   5.069  11.130   6.907
 5594POPC   C4A70254   5.198  11.437   7.198
 5594POPC   C1B70255   4.864  11.401   6.154
 5594POPC   C2B70256   4.769  11.478   6.603
 5594POPC   C3B70257   4.727  11.625   7.048
 5594POPC   C4B70258   4.765  11.439   7.474
 5595POPC   NC370259  10.195   8.107   5.201
 5595POPC   PO470260   9.783   8.555   5.550
 5595POPC   GL170261   9.860   8.204   5.792
 5595POPC   GL270262   9.552   8.197   5.983
 5595POPC   C1A70263   9.983   8.191   6.229
 5595POPC   D2A70264   9.815   8.137   6.623
 5595POPC   C3A70265   9.889   8.430   6.927
 5595POPC   C4A70266   9.798   8.368   7.303
 5595POPC   C1B70267   9.285   7.972   6.242
 5595POPC   C2B70268   9.277   8.162   6.637
 5595POPC   C3B70269   9.429   8.151   7.030
 5595POPC   C4B70270   9.276   8.324   7.414
 5596POPC   NC370271   9.880  29.124   5.463
 5596POPC   PO470272   9.257  28.992   5.307
 5596POPC   GL170273   9.451  29.222   5.721
 5596POPC   GL270274   9.754  29.491   5.794
 5596POPC   C1A70275   9.677  29.111   6.125
 5596POPC   D2A70276   9.637  29.035   6.572
 5596POPC   C3A70277   9.650  28.752   6.906
 5596POPC   C4A70278   9.699  29.024   7.277
 5596POPC   C1B70279  10.054  29.480   6.154
 5596POPC   C2B70280  10.154  29.132   6.445
 5596POPC   C3B70281  10.094  29.003   6.877
 5596POPC   C4B70282  10.165  29.260   7.238
 5597POPC   NC370283  28.837  31.693   5.457
 5597POPC   PO470284  29.409  31.307   5.421
 5597POPC   GL170285  29.276  31.535   5.750
 5597POPC   GL270286  28.977  31.326   5.777
 5597POPC   C1A70287  29.197  31.517   6.195
 5597POPC   D2A70288  29.052  31.653   6.582
 5597POPC   C3A70289  29.311  31.670   6.931
 5597POPC   C4A70290  29.121  31.616   7.306
 5597POPC   C1B70291  28.871  31.102   6.139
 5597POPC   C2B70292  28.818  31.198   6.593
 5597POPC   C3B70293  29.067  31.192   6.994
 5597POPC   C4B70294  29.069  31.134   7.463
 5598POPC   NC370295  27.909  19.397   5.434
 5598POPC   PO470296  27.351  19.752   5.472
 5598POPC   GL170297  27.416  19.772   5.877
 5598POPC   GL270298  27.747  19.664   5.859
 5598POPC   C1A70299  27.473  19.825   6.313
 5598POPC   D2A70300  27.324  20.091   6.648
 5598POPC   C3A70301  27.516  19.943   7.039
 5598POPC   C4A70302  27.771  20.145   7.385
 5598POPC   C1B70303  27.909  19.487   6.228
 5598POPC   C2B70304  27.863  19.580   6.656
 5598POPC   C3B70305  27.831  19.271   6.992
 5598POPC   C4B70306  27.585  19.410   7.313
 5599POPC   NC370307   2.641  28.450   5.364
 5599POPC   PO470308   3.012  27.977   5.596
 5599POPC   GL170309   2.793  28.288   5.855
 5599POPC   GL270310   2.766  28.668   5.813
 5599POPC   C1A70311   2.820  28.319   6.309
 5599POPC   D2A70312   2.911  28.164   6.706
 5599POPC   C3A70313   2.891  28.446   7.037
 5599POPC   C4A70314   2.473  28.293   7.106
 5599POPC   C1B70315   2.436  28.585   6.118
 5599POPC   C2B70316   2.454  28.551   6.596
 5599POPC   C3B70317   2.510  28.786   6.988
 5599POPC   C4B70318   2.585  28.635   7.439
 5600POPC   NC370319  13.443  29.756   5.558
 5600POPC   PO470320  12.820  30.078   5.395
 5600POPC   GL170321  12.959  29.953   5.765
 5600POPC   GL270322  13.249  30.108   5.867
 5600POPC   C1A70323  12.859  29.777   6.168
 5600POPC   D2A70324  13.084  29.686   6.556
 5600POPC   C3A70325  12.789  29.650   6.905
 5600POPC   C4A70326  12.642  29.907   7.244
 5600POPC   C1B70327  13.165  30.172   6.253
 5600POPC   C2B70328  12.953  30.184   6.604
 5600POPC   C3B70329  13.099  30.052   6.984
 5600POPC   C4B70330  13.144  30.257   7.343
 5601POPC   NC370331  13.171  27.045   5.248
 5601POPC   PO470332  12.658  26.591   5.325
 5601POPC   GL170333  12.732  26.838   5.689
 5601POPC   GL270334  12.679  26.543   5.862
 5601POPC   C1A70335  12.960  26.931   6.103
 5601POPC   D2A70336  13.019  26.822   6.563
 5601POPC   C3A70337  12.666  26.824   6.878
 5601POPC   C4A70338  12.701  27.083   7.238
 5601POPC   C1B70339  12.925  26.430   6.212
 5601POPC   C2B70340  12.760  26.371   6.611
 5601POPC   C3B70341  12.969  26.395   6.990
 5601POPC   C4B70342  12.831  26.597   7.341
 5602POPC   NC370343   0.879   6.037   5.446
 5602POPC   PO470344   1.381   5.704   5.499
 5602POPC   GL170345   1.248   5.991   5.861
 5602POPC   GL270346   1.057   5.734   5.966
 5602POPC   C1A70347   1.434   5.946   6.322
 5602POPC   D2A70348   1.272   5.670   6.685
 5602POPC   C3A70349   1.297   5.576   7.147
 5602POPC   C4A70350   1.215   5.849   7.490
 5602POPC   C1B70351   0.931   5.934   6.341
 5602POPC   C2B70352   1.037   6.221   6.688
 5602POPC   C3B70353   0.989   6.008   7.064
 5602POPC   C4B70354   0.767   5.616   7.109
 5603POPC   NC370355   3.089  43.350   5.485
 5603POPC   PO470356   2.746  42.831   5.492
 5603POPC   GL170357   2.714  42.907   5.914
 5603POPC   GL270358   2.719  43.243   5.860
 5603POPC   C1A70359   2.808  42.910   6.378
 5603POPC   D2A70360   2.888  42.931   6.813
 5603POPC   C3A70361   2.629  43.139   7.076
 5603POPC   C4A70362   2.612  43.028   7.501
 5603POPC   C1B70363   3.099  43.245   6.135
 5603POPC   C2B70364   3.108  43.345   6.570
 5603POPC   C3B70365   3.113  43.381   7.012
 5603POPC   C4B70366   2.937  43.399   7.412
 5604POPC   NC370367  25.995  10.639   5.329
 5604POPC   PO470368  25.944  11.340   5.265
 5604POPC   GL170369  26.129  11.348   5.712
 5604POPC   GL270370  26.328  11.006   5.716
 5604POPC   C1A70371  26.098  11.538   6.142
 5604POPC   D2A70372  25.784  11.497   6.472
 5604POPC   C3A70373  25.981  11.492   6.873
 5604POPC   C4A70374  25.896  11.542   7.298
 5604POPC   C1B70375  26.047  10.998   6.081
 5604POPC   C2B70376  26.070  11.073   6.509
 5604POPC   C3B70377  25.922  10.997   6.900
 5604POPC   C4B70378  26.077  11.064   7.296
 5605POPC   NC370379   2.149  41.244   5.313
 5605POPC   PO470380   1.660  41.765   5.399
 5605POPC   GL170381   2.031  41.728   5.668
 5605POPC   GL270382   1.898  41.415   5.749
 5605POPC   C1A70383   2.262  41.674   6.080
 5605POPC   D2A70384   2.091  41.671   6.501
 5605POPC   C3A70385   2.257  41.716   6.881
 5605POPC   C4A70386   2.237  41.453   7.235
 5605POPC   C1B70387   1.762  41.673   6.123
 5605POPC   C2B70388   1.584  41.484   6.485
 5605POPC   C3B70389   1.702  41.605   6.892
 5605POPC   C4B70390   1.611  41.483   7.307
 5606POPC   NC370391  11.448  29.159   5.625
 5606POPC   PO470392  10.769  29.233   5.527
 5606POPC   GL170393  10.967  29.003   5.838
 5606POPC   GL270394  11.226  28.723   5.775
 5606POPC   C1A70395  11.110  29.201   6.195
 5606POPC   D2A70396  11.326  29.260   6.538
 5606POPC   C3A70397  11.080  29.163   6.890
 5606POPC   C4A70398  11.192  29.270   7.275
 5606POPC   C1B70399  11.490  28.833   6.170
 5606POPC   C2B70400  11.654  28.878   6.606
 5606POPC   C3B70401  11.555  28.973   7.013
 5606POPC   C4B70402  11.505  28.641   7.307
 5607POPC   NC370403  12.291  16.454   5.619
 5607POPC   PO470404  12.270  15.888   5.246
 5607POPC   GL170405  11.975  16.064   5.663
 5607POPC   GL270406  11.883  16.346   5.888
 5607POPC   C1A70407  11.872  15.907   6.135
 5607POPC   D2A70408  12.152  15.865   6.495
 5607POPC   C3A70409  11.996  15.974   6.871
 5607POPC   C4A70410  12.110  16.004   7.289
 5607POPC   C1B70411  12.179  16.324   6.243
 5607POPC   C2B70412  12.392  16.367   6.626
 5607POPC   C3B70413  12.303  16.373   7.034
 5607POPC   C4B70414  12.418  16.406   7.480
 5608POPC   NC370415  38.974  21.609   5.471
 5608POPC   PO470416  38.349  21.375   5.477
 5608POPC   GL170417  38.445  21.345   5.874
 5608POPC   GL270418  38.636  21.639   5.848
 5608POPC   C1A70419  38.768  21.269   6.179
 5608POPC   D2A70420  38.785  21.433   6.582
 5608POPC   C3A70421  38.476  21.292   6.864
 5608POPC   C4A70422  38.443  21.336   7.281
 5608POPC   C1B70423  38.541  21.754   6.258
 5608POPC   C2B70424  38.301  21.765   6.652
 5608POPC   C3B70425  38.489  21.812   7.054
 5608POPC   C4B70426  38.499  21.773   7.526
 5609POPC   NC370427  32.364  12.763   5.244
 5609POPC   PO470428  31.898  13.164   5.480
 5609POPC   GL170429  32.165  12.911   5.782
 5609POPC   GL270430  32.516  12.847   5.720
 5609POPC   C1A70431  32.079  12.832   6.224
 5609POPC   D2A70432  32.018  12.590   6.591
 5609POPC   C3A70433  32.121  12.826   6.941
 5609POPC   C4A70434  31.881  12.887   7.314
 5609POPC   C1B70435  32.700  12.710   6.101
 5609POPC   C2B70436  32.571  12.673   6.540
 5609POPC   C3B70437  32.635  12.762   6.969
 5609POPC   C4B70438  32.553  12.544   7.359
 5610POPC   NC370439  42.733  26.109   5.599
 5610POPC   PO470440  43.357  25.986   5.322
 5610POPC   GL170441  43.232  25.996   5.785
 5610POPC   GL270442  42.930  25.976   6.031
 5610POPC   C1A70443  43.375  26.057   6.234
 5610POPC   D2A70444  43.224  25.863   6.603
 5610POPC   C3A70445  43.216  26.048   7.017
 5610POPC   C4A70446  43.291  25.858   7.384
 5610POPC   C1B70447  42.937  26.360   6.280
 5610POPC   C2B70448  42.957  26.360   6.721
 5610POPC   C3B70449  42.754  26.326   7.111
 5610POPC   C4B70450  42.630  26.344   7.581
 5611POPC   NC370451   1.622   2.363   5.391
 5611POPC   PO470452   1.946   1.765   5.309
 5611POPC   GL170453   1.947   2.021   5.692
 5611POPC   GL270454   1.914   1.760   5.880
 5611POPC   C1A70455   1.843   2.174   6.113
 5611POPC   D2A70456   1.761   1.928   6.504
 5611POPC   C3A70457   1.840   2.175   6.876
 5611POPC   C4A70458   1.947   2.098   7.294
 5611POPC   C1B70459   2.157   1.552   6.132
 5611POPC   C2B70460   2.110   1.509   6.527
 5611POPC   C3B70461   2.053   1.710   6.931
 5611POPC   C4B70462   2.346   1.765   7.262
 5612POPC   NC370463  44.989  37.873   5.606
 5612POPC   PO470464  44.626  37.367   5.455
 5612POPC   GL170465  44.690  37.285   5.847
 5612POPC   GL270466  44.571  37.643   5.915
 5612POPC   C1A70467  44.924  37.406   6.191
 5612POPC   D2A70468  44.679  37.683   6.481
 5612POPC   C3A70469  44.517  37.531   6.885
 5612POPC   C4A70470  44.776  37.621   7.200
 5612POPC   C1B70471  44.272  37.874   6.167
 5612POPC   C2B70472  44.279  38.008   6.592
 5612POPC   C3B70473  44.492  38.057   6.968
 5612POPC   C4B70474  44.303  37.825   7.286
 5613POPC   NC370475  41.231  16.551   5.404
 5613POPC   PO470476  41.591  17.120   5.409
 5613POPC   GL170477  41.433  16.876   5.760
 5613POPC   GL270478  41.680  16.594   5.802
 5613POPC   C1A70479  41.369  16.776   6.211
 5613POPC   D2A70480  41.681  16.609   6.500
 5613POPC   C3A70481  41.661  16.871   6.889
 5613POPC   C4A70482  41.266  17.004   7.026
 5613POPC   C1B70483  41.379  16.313   6.012
 5613POPC   C2B70484  41.289  16.257   6.432
 5613POPC   C3B70485  41.245  16.544   6.774
 5613POPC   C4B70486  41.406  16.525   7.190
 5614POPC   NC370487  17.282  17.872   5.283
 5614POPC   PO470488  17.745  17.492   5.587
 5614POPC   GL170489  17.370  17.559   5.894
 5614POPC   GL270490  17.151  17.885   5.831
 5614POPC   C1A70491  17.371  17.373   6.332
 5614POPC   D2A70492  17.703  17.409   6.684
 5614POPC   C3A70493  17.506  17.469   7.085
 5614POPC   C4A70494  17.661  17.701   7.430
 5614POPC   C1B70495  17.300  17.945   6.273
 5614POPC   C2B70496  17.357  17.807   6.692
 5614POPC   C3B70497  17.267  17.928   7.122
 5614POPC   C4B70498  17.148  17.668   7.463
 5615POPC   NC370499  44.502  11.499   5.544
 5615POPC   PO470500  44.731  10.863   5.545
 5615POPC   GL170501  44.667  11.090   5.886
 5615POPC   GL270502  44.916  11.370   5.833
 5615POPC   C1A70503  44.562  10.958   6.321
 5615POPC   D2A70504  44.309  11.092   6.682
 5615POPC   C3A70505  44.473  11.274   7.037
 5615POPC   C4A70506  44.316  11.665   7.189
 5615POPC   C1B70507   0.049  11.173   6.237
 5615POPC   C2B70508  44.883  11.265   6.653
 5615POPC   C3B70509  44.728  11.675   6.821
 5615POPC   C4B70510  44.809  11.743   7.253
 5616POPC   NC370511  32.123   2.314   5.547
 5616POPC   PO470512  32.373   1.752   5.353
 5616POPC   GL170513  32.380   1.831   5.795
 5616POPC   GL270514  32.520   2.166   5.839
 5616POPC   C1A70515  32.131   1.877   6.194
 5616POPC   D2A70516  31.934   1.925   6.642
 5616POPC   C3A70517  32.221   1.843   7.021
 5616POPC   C4A70518  32.303   1.769   7.466
 5616POPC   C1B70519  32.467   2.234   6.280
 5616POPC   C2B70520  32.261   2.321   6.729
 5616POPC   C3B70521  31.973   2.278   7.119
 5616POPC   C4B70522  32.023   2.178   7.572
 5617POPC   NC370523  27.265   9.502   5.647
 5617POPC   PO470524  26.883   9.988   5.450
 5617POPC   GL170525  26.847   9.769   5.817
 5617POPC   GL270526  26.555   9.824   5.967
 5617POPC   C1A70527  26.947   9.768   6.271
 5617POPC   D2A70528  27.085   9.565   6.644
 5617POPC   C3A70529  26.953   9.762   7.014
 5617POPC   C4A70530  26.556   9.810   7.216
 5617POPC   C1B70531  26.408   9.815   6.361
 5617POPC   C2B70532  26.603   9.974   6.708
 5617POPC   C3B70533  26.409  10.274   6.958
 5617POPC   C4B70534  26.159  10.138   7.266
 5618POPC   NC370535  28.159  42.192   5.529
 5618POPC   PO470536  28.415  42.824   5.355
 5618POPC   GL170537  28.351  42.618   5.817
 5618POPC   GL270538  28.522  42.257   5.887
 5618POPC   C1A70539  28.298  42.456   6.281
 5618POPC   D2A70540  28.192  42.172   6.645
 5618POPC   C3A70541  28.255  42.381   7.047
 5618POPC   C4A70542  28.373  42.584   7.416
 5618POPC   C1B70543  28.566  42.004   6.294
 5618POPC   C2B70544  28.667  42.014   6.764
 5618POPC   C3B70545  28.351  41.890   7.095
 5618POPC   C4B70546  28.272  42.074   7.505
 5619POPC   NC370547  17.763  30.737   5.327
 5619POPC   PO470548  17.181  30.571   5.536
 5619POPC   GL170549  17.515  30.596   5.749
 5619POPC   GL270550  17.568  30.925   5.798
 5619POPC   C1A70551  17.692  30.495   6.110
 5619POPC   D2A70552  17.806  30.674   6.490
 5619POPC   C3A70553  17.547  30.511   6.808
 5619POPC   C4A70554  17.429  30.495   7.241
 5619POPC   C1B70555  17.362  30.863   6.217
 5619POPC   C2B70556  17.471  31.039   6.611
 5619POPC   C3B70557  17.660  30.985   7.017
 5619POPC   C4B70558  17.305  31.213   7.167
 5620POPC   NC370559  35.666  10.810   5.268
 5620POPC   PO470560  35.331  10.318   5.447
 5620POPC   GL170561  35.289  10.552   5.809
 5620POPC   GL270562  35.472  10.816   5.791
 5620POPC   C1A70563  35.600  10.549   6.208
 5620POPC   D2A70564  35.748  10.356   6.620
 5620POPC   C3A70565  35.412  10.312   6.952
 5620POPC   C4A70566  35.375  10.480   7.390
 5620POPC   C1B70567  35.183  10.841   6.214
 5620POPC   C2B70568  35.336  10.690   6.622
 5620POPC   C3B70569  35.442  10.853   7.028
 5620POPC   C4B70570  35.153  10.960   7.379
 5621POPC   NC370571  43.578   3.538   5.420
 5621POPC   PO470572  42.909   3.468   5.433
 5621POPC   GL170573  42.915   3.655   5.842
 5621POPC   GL270574  43.263   3.602   5.823
 5621POPC   C1A70575  42.952   3.627   6.278
 5621POPC   D2A70576  43.214   3.461   6.590
 5621POPC   C3A70577  43.084   3.522   7.007
 5621POPC   C4A70578  43.029   3.558   7.475
 5621POPC   C1B70579  43.454   3.767   6.169
 5621POPC   C2B70580  43.495   3.921   6.543
 5621POPC   C3B70581  43.561   3.764   6.915
 5621POPC   C4B70582  43.522   3.551   7.248
 5622POPC   NC370583  37.279  24.643   5.377
 5622POPC   PO470584  36.937  24.133   5.443
 5622POPC   GL170585  36.864  24.365   5.815
 5622POPC   GL270586  36.888  24.726   5.740
 5622POPC   C1A70587  36.804  24.384   6.255
 5622POPC   D2A70588  36.922  24.608   6.623
 5622POPC   C3A70589  36.611  24.555   6.948
 5622POPC   C4A70590  36.657  24.193   7.198
 5622POPC   C1B70591  36.820  24.894   6.162
 5622POPC   C2B70592  36.637  25.017   6.553
 5622POPC   C3B70593  36.862  25.005   6.941
 5622POPC   C4B70594  37.062  24.697   7.180
 5623POPC   NC370595  30.646  10.713   5.384
 5623POPC   PO470596  30.483  10.004   5.454
 5623POPC   GL170597  30.526  10.366   5.753
 5623POPC   GL270598  30.866  10.508   5.803
 5623POPC   C1A70599  30.523  10.598   6.156
 5623POPC   D2A70600  30.793  10.555   6.496
 5623POPC   C3A70601  30.661  10.708   6.900
 5623POPC   C4A70602  30.486  10.669   7.290
 5623POPC   C1B70603  30.857  10.173   6.140
 5623POPC   C2B70604  31.087  10.159   6.536
 5623POPC   C3B70605  30.976  10.301   6.927
 5623POPC   C4B70606  30.974  10.525   7.317
 5624POPC   NC370607  18.925   3.135   5.526
 5624POPC   PO470608  18.890   3.814   5.557
 5624POPC   GL170609  18.844   3.546   5.891
 5624POPC   GL270610  18.603   3.258   5.928
 5624POPC   C1A70611  19.048   3.651   6.279
 5624POPC   D2A70612  19.365   3.515   6.521
 5624POPC   C3A70613  19.246   3.694   6.896
 5624POPC   C4A70614  19.360   3.567   7.307
 5624POPC   C1B70615  18.644   3.332   6.337
 5624POPC   C2B70616  18.982   3.186   6.577
 5624POPC   C3B70617  19.179   3.189   6.945
 5624POPC   C4B70618  18.925   3.282   7.280
 5625POPC   NC370619   2.726  29.070   5.479
 5625POPC   PO470620   3.022  29.696   5.500
 5625POPC   GL170621   3.006  29.358   5.826
 5625POPC   GL270622   3.179  29.035   5.819
 5625POPC   C1A70623   2.741  29.148   6.178
 5625POPC   D2A70624   2.821  29.001   6.626
 5625POPC   C3A70625   2.665  29.283   6.992
 5625POPC   C4A70626   2.487  29.110   7.388
 5625POPC   C1B70627   3.103  28.775   6.197
 5625POPC   C2B70628   3.183  28.586   6.607
 5625POPC   C3B70629   3.262  28.829   6.977
 5625POPC   C4B70630   2.948  28.959   7.239
 5626POPC   NC370631  13.102  36.876   5.298
 5626POPC   PO470632  12.497  37.202   5.471
 5626POPC   GL170633  12.795  36.960   5.710
 5626POPC   GL270634  13.092  37.154   5.721
 5626POPC   C1A70635  12.785  36.944   6.145
 5626POPC   D2A70636  12.533  37.210   6.420
 5626POPC   C3A70637  12.574  37.199   6.894
 5626POPC   C4A70638  12.605  36.864   7.189
 5626POPC   C1B70639  13.281  37.070   6.114
 5626POPC   C2B70640  13.180  36.867   6.467
 5626POPC   C3B70641  13.032  36.933   6.838
 5626POPC   C4B70642  13.170  36.729   7.202
 5627POPC   NC370643  44.238  34.119   5.287
 5627POPC   PO470644  43.970  33.523   5.435
 5627POPC   GL170645  43.833  33.825   5.702
 5627POPC   GL270646  44.162  33.896   5.755
 5627POPC   C1A70647  43.783  33.797   6.145
 5627POPC   D2A70648  43.825  33.579   6.548
 5627POPC   C3A70649  43.796  33.874   6.894
 5627POPC   C4A70650  43.862  34.104   7.259
 5627POPC   C1B70651  44.192  34.121   6.118
 5627POPC   C2B70652  44.043  34.117   6.520
 5627POPC   C3B70653  44.258  34.115   6.920
 5627POPC   C4B70654  44.361  33.769   7.186
 5628POPC   NC370655  18.510  28.483   5.314
 5628POPC   PO470656  19.154  28.209   5.406
 5628POPC   GL170657  19.131  28.460   5.793
 5628POPC   GL270658  18.831  28.497   5.958
 5628POPC   C1A70659  19.226  28.558   6.231
 5628POPC   D2A70660  19.371  28.614   6.610
 5628POPC   C3A70661  19.356  28.277   6.835
 5628POPC   C4A70662  19.379  28.314   7.244
 5628POPC   C1B70663  18.844  28.107   6.259
 5628POPC   C2B70664  18.920  27.930   6.666
 5628POPC   C3B70665  18.902  28.136   7.041
 5628POPC   C4B70666  18.900  28.475   7.306
 5629POPC   NC370667  29.827  41.394   5.319
 5629POPC   PO470668  30.327  41.673   5.511
 5629POPC   GL170669  30.048  41.383   5.805
 5629POPC   GL270670  29.716  41.187   5.809
 5629POPC   C1A70671  30.011  41.194   6.246
 5629POPC   D2A70672  30.006  41.343   6.694
 5629POPC   C3A70673  30.226  41.333   7.112
 5629POPC   C4A70674  30.571  41.556   7.325
 5629POPC   C1B70675  29.488  41.077   6.224
 5629POPC   C2B70676  29.534  41.138   6.704
 5629POPC   C3B70677  29.679  41.375   7.085
 5629POPC   C4B70678  29.877  41.569   7.483
 5630POPC   NC370679  28.532  28.570   5.372
 5630POPC   PO470680  28.256  29.213   5.482
 5630POPC   GL170681  28.163  29.146   5.890
 5630POPC   GL270682  27.921  29.383   5.900
 5630POPC   C1A70683  28.378  29.086   6.260
 5630POPC   D2A70684  28.701  29.244   6.462
 5630POPC   C3A70685  28.640  29.135   6.866
 5630POPC   C4A70686  28.315  28.948   7.081
 5630POPC   C1B70687  27.969  29.341   6.348
 5630POPC   C2B70688  28.280  29.500   6.619
 5630POPC   C3B70689  28.387  29.572   7.013
 5630POPC   C4B70690  28.180  29.383   7.330
 5631POPC   NC370691  38.781  24.204   5.425
 5631POPC   PO470692  39.396  23.710   5.509
 5631POPC   GL170693  39.228  23.868   5.849
 5631POPC   GL270694  39.046  23.590   5.957
 5631POPC   C1A70695  39.369  23.843   6.289
 5631POPC   D2A70696  39.284  23.537   6.641
 5631POPC   C3A70697  39.395  23.649   7.061
 5631POPC   C4A70698  39.233  23.978   7.253
 5631POPC   C1B70699  38.956  23.303   6.280
 5631POPC   C2B70700  38.926  23.139   6.701
 5631POPC   C3B70701  38.913  23.457   7.030
 5631POPC   C4B70702  39.017  23.558   7.456
 5632POPC   NC370703  14.306  15.610   5.497
 5632POPC   PO470704  14.781  16.110   5.403
 5632POPC   GL170705  14.541  16.097   5.778
 5632POPC   GL270706  14.717  16.434   5.846
 5632POPC   C1A70707  14.248  16.067   6.153
 5632POPC   D2A70708  14.265  16.313   6.557
 5632POPC   C3A70709  14.195  16.081   6.949
 5632POPC   C4A70710  14.349  15.712   7.199
 5632POPC   C1B70711  14.723  16.206   6.243
 5632POPC   C2B70712  14.579  15.909   6.558
 5632POPC   C3B70713  14.708  16.095   6.935
 5632POPC   C4B70714  14.580  16.133   7.350
 5633POPC   NC370715  15.967  33.281   5.310
 5633POPC   PO470716  15.433  33.207   5.576
 5633POPC   GL170717  15.826  33.091   5.795
 5633POPC   GL270718  15.855  32.763   6.021
 5633POPC   C1A70719  16.137  33.175   6.123
 5633POPC   D2A70720  16.023  33.267   6.529
 5633POPC   C3A70721  16.238  33.097   6.871
 5633POPC   C4A70722  16.156  32.867   7.268
 5633POPC   C1B70723  15.776  32.442   6.379
 5633POPC   C2B70724  15.601  32.498   6.751
 5633POPC   C3B70725  15.747  32.879   6.947
 5633POPC   C4B70726  15.457  32.848   7.263
 5634POPC   NC370727  42.101  40.168   5.491
 5634POPC   PO470728  42.717  39.908   5.621
 5634POPC   GL170729  42.328  39.867   5.844
 5634POPC   GL270730  42.193  39.547   5.949
 5634POPC   C1A70731  42.179  40.006   6.245
 5634POPC   D2A70732  42.484  40.190   6.575
 5634POPC   C3A70733  42.403  40.092   7.009
 5634POPC   C4A70734  42.183  40.333   7.327
 5634POPC   C1B70735  42.531  39.602   6.265
 5634POPC   C2B70736  42.642  39.699   6.702
 5634POPC   C3B70737  42.789  39.770   7.111
 5634POPC   C4B70738  42.676  39.544   7.433
 5635POPC   NC370739  39.528  17.848   5.492
 5635POPC   PO470740  39.211  17.271   5.252
 5635POPC   GL170741  39.202  17.432   5.676
 5635POPC   GL270742  39.531  17.392   5.812
 5635POPC   C1A70743  39.145  17.240   6.101
 5635POPC   D2A70744  38.969  17.305   6.495
 5635POPC   C3A70745  39.261  17.388   6.868
 5635POPC   C4A70746  39.143  17.582   7.270
 5635POPC   C1B70747  39.274  17.723   6.108
 5635POPC   C2B70748  39.195  17.786   6.548
 5635POPC   C3B70749  39.428  17.884   6.932
 5635POPC   C4B70750  39.628  17.729   7.324
 5636POPC   NC370751  17.263  13.524   5.394
 5636POPC   PO470752  17.769  13.922   5.439
 5636POPC   GL170753  17.533  13.726   5.794
 5636POPC   GL270754  17.549  13.339   5.778
 5636POPC   C1A70755  17.569  13.639   6.246
 5636POPC   D2A70756  17.283  13.662   6.605
 5636POPC   C3A70757  17.517  13.681   6.965
 5636POPC   C4A70758  17.848  13.705   7.245
 5636POPC   C1B70759  17.551  13.122   6.157
 5636POPC   C2B70760  17.563  13.198   6.611
 5636POPC   C3B70761  17.681  13.215   7.056
 5636POPC   C4B70762  17.476  13.401   7.419
 5637POPC   NC370763  31.941  33.016   5.430
 5637POPC   PO470764  31.215  33.165   5.446
 5637POPC   GL170765  31.413  33.055   5.849
 5637POPC   GL270766  31.626  33.314   6.059
 5637POPC   C1A70767  31.239  32.997   6.226
 5637POPC   D2A70768  31.113  33.134   6.628
 5637POPC   C3A70769  31.408  33.103   6.916
 5637POPC   C4A70770  31.366  32.961   7.316
 5637POPC   C1B70771  31.897  33.496   6.400
 5637POPC   C2B70772  31.762  33.497   6.838
 5637POPC   C3B70773  31.852  33.173   7.172
 5637POPC   C4B70774  31.747  33.195   7.605
 5638POPC   NC370775   1.377   7.608   5.248
 5638POPC   PO470776   0.913   7.206   5.606
 5638POPC   GL170777   1.156   7.424   5.874
 5638POPC   GL270778   1.505   7.536   5.845
 5638POPC   C1A70779   1.314   7.321   6.279
 5638POPC   D2A70780   1.352   7.554   6.663
 5638POPC   C3A70781   1.175   7.333   7.002
 5638POPC   C4A70782   1.323   6.972   7.172
 5638POPC   C1B70783   1.277   7.824   6.174
 5638POPC   C2B70784   1.015   7.940   6.564
 5638POPC   C3B70785   1.004   7.818   6.991
 5638POPC   C4B70786   1.382   7.801   7.210
 5639POPC   NC370787  14.312  43.388   5.581
 5639POPC   PO470788  14.127  42.747   5.515
 5639POPC   GL170789  14.395  42.935   5.801
 5639POPC   GL270790  14.630  42.727   5.912
 5639POPC   C1A70791  14.523  43.171   6.167
 5639POPC   D2A70792  14.486  43.502   6.508
 5639POPC   C3A70793  14.336  43.384   6.931
 5639POPC   C4A70794  14.449  43.348   7.381
 5639POPC   C1B70795  14.532  42.669   6.344
 5639POPC   C2B70796  14.567  42.999   6.640
 5639POPC   C3B70797  14.674  43.025   7.043
 5639POPC   C4B70798  14.342  42.849   7.269
 5640POPC   NC370799  38.573  43.444   5.453
 5640POPC   PO470800  38.186  42.880   5.477
 5640POPC   GL170801  38.387  43.041   5.859
 5640POPC   GL270802  38.695  43.222   5.885
 5640POPC   C1A70803  38.483  43.050   6.300
 5640POPC   D2A70804  38.690  42.877   6.623
 5640POPC   C3A70805  38.540  43.082   6.941
 5640POPC   C4A70806  38.282  43.086   7.273
 5640POPC   C1B70807  38.747  43.481   6.219
 5640POPC   C2B70808  38.646  43.472   6.635
 5640POPC   C3B70809  38.754  43.512   7.071
 5640POPC   C4B70810  38.605  43.408   7.514
 5641POPC   NC370811  13.725  34.323   5.526
 5641POPC   PO470812  13.394  34.798   5.444
 5641POPC   GL170813  13.441  34.678   5.855
 5641POPC   GL270814  13.309  34.340   5.853
 5641POPC   C1A70815  13.779  34.656   6.156
 5641POPC   D2A70816  13.884  34.518   6.575
 5641POPC   C3A70817  13.755  34.726   6.967
 5641POPC   C4A70818  13.550  35.092   7.140
 5641POPC   C1B70819  13.478  34.262   6.267
 5641POPC   C2B70820  13.400  34.344   6.720
 5641POPC   C3B70821  13.380  34.402   7.192
 5641POPC   C4B70822  13.362  34.318   7.682
 5642POPC   NC370823   2.957  22.522   5.371
 5642POPC   PO470824   2.547  23.041   5.471
 5642POPC   GL170825   2.754  22.803   5.781
 5642POPC   GL270826   2.809  23.119   5.925
 5642POPC   C1A70827   2.864  22.726   6.227
 5642POPC   D2A70828   2.926  23.027   6.556
 5642POPC   C3A70829   2.855  22.832   6.944
 5642POPC   C4A70830   2.991  22.508   7.183
 5642POPC   C1B70831   2.471  23.377   6.095
 5642POPC   C2B70832   2.435  23.374   6.521
 5642POPC   C3B70833   2.628  23.285   6.912
 5642POPC   C4B70834   2.431  23.353   7.304
 5643POPC   NC370835  23.710   9.598   5.457
 5643POPC   PO470836  23.834   8.957   5.498
 5643POPC   GL170837  23.673   8.916   5.890
 5643POPC   GL270838  23.853   8.655   5.946
 5643POPC   C1A70839  23.522   8.794   6.317
 5643POPC   D2A70840  23.652   8.972   6.715
 5643POPC   C3A70841  23.543   8.928   7.150
 5643POPC   C4A70842  23.638   9.209   7.490
 5643POPC   C1B70843  24.087   8.754   6.250
 5643POPC   C2B70844  24.171   8.942   6.613
 5643POPC   C3B70845  24.062   8.782   6.982
 5643POPC   C4B70846  24.018   8.896   7.346
 5644POPC   NC370847  42.632  43.411   5.448
 5644POPC   PO470848  42.119  42.860   5.306
 5644POPC   GL170849  42.193  43.015   5.750
 5644POPC   GL270850  42.552  43.061   5.850
 5644POPC   C1A70851  42.101  43.212   6.164
 5644POPC   D2A70852  42.360  43.141   6.543
 5644POPC   C3A70853  42.259  42.920   6.931
 5644POPC   C4A70854  42.456  42.647   7.227
 5644POPC   C1B70855  42.558  43.451   6.130
 5644POPC   C2B70856  42.625  43.574   6.574
 5644POPC   C3B70857  42.567  43.350   6.982
 5644POPC   C4B70858  42.567  43.121   7.379
 5645POPC   NC370859  30.758  17.520   5.371
 5645POPC   PO470860  30.318  18.077   5.383
 5645POPC   GL170861  30.393  17.820   5.770
 5645POPC   GL270862  30.753  17.820   5.826
 5645POPC   C1A70863  30.399  17.678   6.230
 5645POPC   D2A70864  30.380  17.764   6.684
 5645POPC   C3A70865  30.646  17.560   7.003
 5645POPC   C4A70866  30.625  17.750   7.409
 5645POPC   C1B70867  30.863  17.467   6.129
 5645POPC   C2B70868  31.037  17.383   6.555
 5645POPC   C3B70869  31.164  17.551   6.949
 5645POPC   C4B70870  31.102  17.374   7.350
 5646POPC   NC370871  11.342  31.826   5.334
 5646POPC   PO470872  11.419  32.440   5.454
 5646POPC   GL170873  11.193  32.285   5.797
 5646POPC   GL270874  11.082  31.979   5.738
 5646POPC   C1A70875  11.386  32.356   6.198
 5646POPC   D2A70876  11.419  32.466   6.614
 5646POPC   C3A70877  11.364  32.228   7.002
 5646POPC   C4A70878  11.614  32.431   7.342
 5646POPC   C1B70879  11.422  31.856   6.030
 5646POPC   C2B70880  11.462  31.938   6.467
 5646POPC   C3B70881  11.698  31.858   6.810
 5646POPC   C4B70882  11.712  31.934   7.254
 5647POPC   NC370883  25.542  37.840   5.383
 5647POPC   PO470884  25.124  37.371   5.548
 5647POPC   GL170885  25.376  37.566   5.814
 5647POPC   GL270886  25.167  37.866   5.769
 5647POPC   C1A70887  25.482  37.474   6.252
 5647POPC   D2A70888  25.189  37.406   6.620
 5647POPC   C3A70889  25.344  37.614   7.002
 5647POPC   C4A70890  25.608  37.522   7.375
 5647POPC   C1B70891  25.035  37.747   6.188
 5647POPC   C2B70892  25.202  37.924   6.594
 5647POPC   C3B70893  25.144  38.101   7.010
 5647POPC   C4B70894  25.162  38.084   7.467
 5648POPC   NC370895  38.331  37.908   5.191
 5648POPC   PO470896  38.270  38.559   5.321
 5648POPC   GL170897  38.510  38.579   5.740
 5648POPC   GL270898  38.547  38.270   5.870
 5648POPC   C1A70899  38.661  38.690   6.183
 5648POPC   D2A70900  38.567  38.556   6.647
 5648POPC   C3A70901  38.612  38.764   7.057
 5648POPC   C4A70902  38.667  38.529   7.437
 5648POPC   C1B70903  38.403  38.249   6.279
 5648POPC   C2B70904  38.510  38.014   6.635
 5648POPC   C3B70905  38.435  38.135   7.050
 5648POPC   C4B70906  38.169  38.475   7.064
 5649POPC   NC370907  22.515  32.535   5.131
 5649POPC   PO470908  22.051  32.161   5.535
 5649POPC   GL170909  22.115  32.167   5.911
 5649POPC   GL270910  22.441  32.081   5.861
 5649POPC   C1A70911  22.223  32.350   6.267
 5649POPC   D2A70912  22.386  32.202   6.600
 5649POPC   C3A70913  22.181  32.312   6.942
 5649POPC   C4A70914  22.273  32.290   7.346
 5649POPC   C1B70915  22.344  31.786   6.168
 5649POPC   C2B70916  22.518  31.723   6.558
 5649POPC   C3B70917  22.280  31.799   6.920
 5649POPC   C4B70918  22.394  31.763   7.324
 5650POPC   NC370919  41.277  11.889   5.048
 5650POPC   PO470920  41.860  12.061   5.379
 5650POPC   GL170921  41.672  12.143   5.822
 5650POPC   GL270922  41.353  12.103   5.708
 5650POPC   C1A70923  41.777  12.134   6.283
 5650POPC   D2A70924  41.952  11.865   6.612
 5650POPC   C3A70925  41.952  12.065   7.012
 5650POPC   C4A70926  41.707  12.148   7.384
 5650POPC   C1B70927  41.316  11.949   6.139
 5650POPC   C2B70928  41.311  12.065   6.551
 5650POPC   C3B70929  41.189  12.353   6.846
 5650POPC   C4B70930  41.233  12.184   7.216
 5651POPC   NC370931   8.803   3.359   5.399
 5651POPC   PO470932   9.216   3.791   5.469
 5651POPC   GL170933   8.965   3.667   5.799
 5651POPC   GL270934   9.114   3.347   5.835
 5651POPC   C1A70935   8.711   3.579   6.183
 5651POPC   D2A70936   8.664   3.644   6.648
 5651POPC   C3A70937   9.033   3.542   6.919
 5651POPC   C4A70938   8.977   3.351   7.344
 5651POPC   C1B70939   8.967   3.133   6.212
 5651POPC   C2B70940   8.725   3.138   6.578
 5651POPC   C3B70941   8.643   3.212   6.978
 5651POPC   C4B70942   8.504   3.190   7.374
 5652POPC   NC370943  40.928  36.629   5.552
 5652POPC   PO470944  40.656  36.063   5.371
 5652POPC   GL170945  40.718  36.110   5.826
 5652POPC   GL270946  40.531  36.449   5.841
 5652POPC   C1A70947  40.791  35.896   6.283
 5652POPC   D2A70948  40.568  36.008   6.714
 5652POPC   C3A70949  40.754  35.876   7.151
 5652POPC   C4A70950  41.120  35.797   7.453
 5652POPC   C1B70951  40.647  36.362   6.259
 5652POPC   C2B70952  40.994  36.315   6.574
 5652POPC   C3B70953  40.839  36.376   6.975
 5652POPC   C4B70954  40.433  36.311   7.146
 5653POPC   NC370955   5.310  17.683   5.338
 5653POPC   PO470956   5.996  17.527   5.441
 5653POPC   GL170957   5.796  17.709   5.792
 5653POPC   GL270958   6.091  17.861   5.915
 5653POPC   C1A70959   5.807  17.606   6.249
 5653POPC   D2A70960   5.666  17.790   6.612
 5653POPC   C3A70961   5.526  17.581   6.959
 5653POPC   C4A70962   5.725  17.684   7.318
 5653POPC   C1B70963   6.351  17.691   6.231
 5653POPC   C2B70964   6.270  17.473   6.597
 5653POPC   C3B70965   6.109  17.575   6.994
 5653POPC   C4B70966   6.250  17.622   7.422
 5654POPC   NC370967  30.324  15.039   5.396
 5654POPC   PO470968  29.734  15.525   5.417
 5654POPC   GL170969  29.977  15.411   5.742
 5654POPC   GL270970  30.214  15.582   5.969
 5654POPC   C1A70971  29.779  15.403   6.137
 5654POPC   D2A70972  29.861  15.233   6.517
 5654POPC   C3A70973  29.907  15.429   6.873
 5654POPC   C4A70974  29.786  15.290   7.238
 5654POPC   C1B70975  30.199  15.111   6.084
 5654POPC   C2B70976  30.186  14.861   6.418
 5654POPC   C3B70977  30.117  14.936   6.853
 5654POPC   C4B70978  30.291  15.195   7.162
 5655POPC   NC370979  28.673  37.048   5.582
 5655POPC   PO470980  29.303  36.745   5.363
 5655POPC   GL170981  29.130  36.845   5.758
 5655POPC   GL270982  28.845  36.621   5.842
 5655POPC   C1A70983  29.178  37.024   6.162
 5655POPC   D2A70984  29.212  36.849   6.568
 5655POPC   C3A70985  29.049  37.028   6.902
 5655POPC   C4A70986  29.184  37.084   7.291
 5655POPC   C1B70987  28.836  36.659   6.292
 5655POPC   C2B70988  28.706  36.697   6.732
 5655POPC   C3B70989  28.946  36.589   7.118
 5655POPC   C4B70990  28.897  36.524   7.581
 5656POPC   NC370991  25.036  26.249   5.299
 5656POPC   PO470992  25.590  25.848   5.266
 5656POPC   GL170993  25.396  26.027   5.637
 5656POPC   GL270994  25.614  25.869   5.861
 5656POPC   C1A70995  25.122  26.022   6.032
 5656POPC   D2A70996  25.080  25.891   6.494
 5656POPC   C3A70997  25.169  26.080   6.940
 5656POPC   C4A70998  24.931  26.263   7.318
 5656POPC   C1B70999  25.567  26.059   6.263
 5656POPC   C2B71000  25.564  25.864   6.644
 5656POPC   C3B71001  25.703  25.826   7.032
 5656POPC   C4B71002  25.616  25.885   7.432
 5657POPC   NC371003  10.402   9.235   5.056
 5657POPC   PO471004  10.625   9.043   5.624
 5657POPC   GL171005  10.629   8.937   6.012
 5657POPC   GL271006  10.615   8.628   5.943
 5657POPC   C1A71007  10.670   8.812   6.463
 5657POPC   D2A71008  10.668   9.147   6.779
 5657POPC   C3A71009  10.668   9.072   7.174
 5657POPC   C4A71010  10.346   9.000   7.471
 5657POPC   C1B71011  10.230   8.664   6.190
 5657POPC   C2B71012  10.245   8.513   6.571
 5657POPC   C3B71013  10.343   8.708   6.959
 5657POPC   C4B71014  10.283   8.501   7.333
 5658POPC   NC371015   0.893  35.356   5.341
 5658POPC   PO471016   0.322  35.714   5.131
 5658POPC   GL171017   0.572  35.662   5.600
 5658POPC   GL271018   0.358  35.752   5.817
 5658POPC   C1A71019   0.563  35.399   6.091
 5658POPC   D2A71020   0.249  35.218   6.431
 5658POPC   C3A71021   0.317  35.271   6.875
 5658POPC   C4A71022   0.643  35.431   7.166
 5658POPC   C1B71023   0.492  35.894   6.200
 5658POPC   C2B71024   0.480  35.660   6.560
 5658POPC   C3B71025   0.376  35.818   6.938
 5658POPC   C4B71026   0.489  35.885   7.309
 5659POPC   NC371027  12.231  13.989   5.236
 5659POPC   PO471028  11.914  14.633   5.311
 5659POPC   GL171029  11.986  14.396   5.701
 5659POPC   GL271030  11.990  14.673   5.882
 5659POPC   C1A71031  11.846  14.287   6.181
 5659POPC   D2A71032  12.022  14.291   6.625
 5659POPC   C3A71033  11.745  14.210   6.974
 5659POPC   C4A71034  11.816  14.357   7.390
 5659POPC   C1B71035  12.235  14.637   6.264
 5659POPC   C2B71036  12.180  14.787   6.690
 5659POPC   C3B71037  12.303  14.524   7.027
 5659POPC   C4B71038  12.533  14.687   7.375
 5660POPC   NC371039  14.298  18.696   5.245
 5660POPC   PO471040  14.623  19.335   5.411
 5660POPC   GL171041  14.618  19.180   5.806
 5660POPC   GL271042  14.283  19.261   5.838
 5660POPC   C1A71043  14.423  18.883   6.129
 5660POPC   D2A71044  14.287  18.973   6.546
 5660POPC   C3A71045  14.516  18.947   6.925
 5660POPC   C4A71046  14.501  18.977   7.336
 5660POPC   C1B71047  14.237  19.440   6.232
 5660POPC   C2B71048  14.186  19.478   6.659
 5660POPC   C3B71049  14.575  19.460   6.854
 5660POPC   C4B71050  14.685  19.473   7.259
 5661POPC   NC371051  22.786  16.152   5.441
 5661POPC   PO471052  23.298  15.685   5.391
 5661POPC   GL171053  23.000  15.788   5.742
 5661POPC   GL271054  23.093  16.122   5.842
 5661POPC   C1A71055  22.752  15.883   6.158
 5661POPC   D2A71056  22.692  15.827   6.617
 5661POPC   C3A71057  22.892  15.887   7.052
 5661POPC   C4A71058  22.961  15.532   7.344
 5661POPC   C1B71059  23.243  15.974   6.233
 5661POPC   C2B71060  23.222  15.821   6.632
 5661POPC   C3B71061  23.370  15.731   7.039
 5661POPC   C4B71062  23.341  16.025   7.346
 5662POPC   NC371063  15.415  32.527   5.182
 5662POPC   PO471064  14.915  32.357   5.485
 5662POPC   GL171065  15.069  32.260   5.896
 5662POPC   GL271066  15.395  32.062   5.899
 5662POPC   C1A71067  14.923  32.358   6.310
 5662POPC   D2A71068  15.115  32.624   6.577
 5662POPC   C3A71069  15.103  32.535   6.969
 5662POPC   C4A71070  15.371  32.331   7.180
 5662POPC   C1B71071  15.379  32.123   6.326
 5662POPC   C2B71072  15.243  32.109   6.718
 5662POPC   C3B71073  15.257  31.853   7.082
 5662POPC   C4B71074  15.316  31.963   7.517
 5663POPC   NC371075  40.381  20.877   5.454
 5663POPC   PO471076  40.906  20.329   5.480
 5663POPC   GL171077  40.798  20.680   5.776
 5663POPC   GL271078  40.477  20.557   5.879
 5663POPC   C1A71079  40.941  20.708   6.218
 5663POPC   D2A71080  40.778  20.624   6.650
 5663POPC   C3A71081  41.000  20.731   7.043
 5663POPC   C4A71082  40.816  20.718   7.460
 5663POPC   C1B71083  40.587  20.296   6.258
 5663POPC   C2B71084  40.957  20.136   6.501
 5663POPC   C3B71085  41.064  20.216   6.916
 5663POPC   C4B71086  40.683  20.333   7.143
 5664POPC   NC371087  35.464  27.764   5.379
 5664POPC   PO471088  35.007  27.225   5.429
 5664POPC   GL171089  35.436  27.360   5.744
 5664POPC   GL271090  35.472  27.733   5.876
 5664POPC   C1A71091  35.635  27.423   6.204
 5664POPC   D2A71092  35.435  27.653   6.532
 5664POPC   C3A71093  35.470  27.481   6.927
 5664POPC   C4A71094  35.353  27.605   7.304
 5664POPC   C1B71095  35.672  28.008   6.182
 5664POPC   C2B71096  35.706  28.081   6.630
 5664POPC   C3B71097  35.448  27.999   6.977
 5664POPC   C4B71098  35.523  28.098   7.406
 5665POPC   NC371099  37.423   5.973   5.390
 5665POPC   PO471100  36.825   5.595   5.432
 5665POPC   GL171101  36.988   5.766   5.799
 5665POPC   GL271102  37.057   6.106   5.742
 5665POPC   C1A71103  36.767   5.796   6.201
 5665POPC   D2A71104  36.545   5.826   6.610
 5665POPC   C3A71105  36.774   5.819   7.001
 5665POPC   C4A71106  36.745   5.476   7.298
 5665POPC   C1B71107  37.171   6.161   6.157
 5665POPC   C2B71108  37.021   6.049   6.570
 5665POPC   C3B71109  37.110   6.278   6.942
 5665POPC   C4B71110  37.230   6.147   7.353
 5666POPC   NC371111  26.821  18.733   5.410
 5666POPC   PO471112  26.472  19.381   5.398
 5666POPC   GL171113  26.746  19.236   5.744
 5666POPC   GL271114  26.982  19.479   5.858
 5666POPC   C1A71115  26.843  18.956   6.088
 5666POPC   D2A71116  26.699  19.004   6.523
 5666POPC   C3A71117  26.812  18.720   6.867
 5666POPC   C4A71118  26.652  18.657   7.269
 5666POPC   C1B71119  26.923  19.429   6.264
 5666POPC   C2B71120  27.132  19.508   6.594
 5666POPC   C3B71121  26.801  19.372   6.861
 5666POPC   C4B71122  26.843  19.121   7.187
 5667POPC   NC371123  23.924  23.135   5.394
 5667POPC   PO471124  23.416  22.607   5.561
 5667POPC   GL171125  23.624  22.939   5.792
 5667POPC   GL271126  23.966  23.036   5.898
 5667POPC   C1A71127  23.528  23.217   6.112
 5667POPC   D2A71128  23.577  23.395   6.499
 5667POPC   C3A71129  23.824  23.199   6.823
 5667POPC   C4A71130  23.596  23.005   7.149
 5667POPC   C1B71131  23.878  22.933   6.357
 5667POPC   C2B71132  23.764  22.656   6.717
 5667POPC   C3B71133  23.946  22.655   7.139
 5667POPC   C4B71134  24.061  22.807   7.574
 5668POPC   NC371135  28.054   6.200   5.434
 5668POPC   PO471136  27.681   5.553   5.453
 5668POPC   GL171137  27.768   5.885   5.728
 5668POPC   GL271138  27.443   6.079   5.711
 5668POPC   C1A71139  27.932   5.856   6.137
 5668POPC   D2A71140  27.713   5.638   6.465
 5668POPC   C3A71141  27.804   5.827   6.850
 5668POPC   C4A71142  27.657   5.802   7.253
 5668POPC   C1B71143  27.375   5.768   6.067
 5668POPC   C2B71144  27.198   5.679   6.497
 5668POPC   C3B71145  27.162   5.881   6.911
 5668POPC   C4B71146  27.178   5.701   7.312
 5669POPC   NC371147  13.789  44.041   5.441
 5669POPC   PO471148  13.351  43.634   5.186
 5669POPC   GL171149  13.413  43.743   5.700
 5669POPC   GL271150  13.368  44.112   5.789
 5669POPC   C1A71151  13.591  43.782   6.178
 5669POPC   D2A71152  13.552  43.945   6.662
 5669POPC   C3A71153  13.573  43.690   7.078
 5669POPC   C4A71154  13.454  43.615   7.536
 5669POPC   C1B71155  13.224  44.139   6.231
 5669POPC   C2B71156  13.103  44.193   6.672
 5669POPC   C3B71157  13.304  44.132   7.104
 5669POPC   C4B71158  13.778  44.169   7.146
 5670POPC   NC371159  13.810   1.475   5.482
 5670POPC   PO471160  13.802   0.876   5.782
 5670POPC   GL171161  13.684   1.263   5.965
 5670POPC   GL271162  13.393   1.445   5.816
 5670POPC   C1A71163  13.639   1.212   6.416
 5670POPC   D2A71164  13.419   0.876   6.649
 5670POPC   C3A71165  13.404   0.961   7.093
 5670POPC   C4A71166  13.779   1.164   7.278
 5670POPC   C1B71167  13.477   1.680   6.198
 5670POPC   C2B71168  13.297   1.554   6.585
 5670POPC   C3B71169  13.468   1.473   6.961
 5670POPC   C4B71170  13.306   1.393   7.334
 5671POPC   NC371171  17.715  23.181   5.386
 5671POPC   PO471172  17.303  22.664   5.595
 5671POPC   GL171173  17.424  23.076   5.792
 5671POPC   GL271174  17.785  23.111   5.872
 5671POPC   C1A71175  17.316  23.245   6.175
 5671POPC   D2A71176  17.314  22.972   6.543
 5671POPC   C3A71177  17.464  23.108   6.938
 5671POPC   C4A71178  17.449  22.790   7.240
 5671POPC   C1B71179  17.777  23.039   6.286
 5671POPC   C2B71180  17.900  22.985   6.686
 5671POPC   C3B71181  17.917  22.917   7.117
 5671POPC   C4B71182  17.697  23.215   7.420
 5672POPC   NC371183   7.218  11.525   5.402
 5672POPC   PO471184   7.652  11.105   5.175
 5672POPC   GL171185   7.427  11.149   5.666
 5672POPC   GL271186   7.653  11.252   5.954
 5672POPC   C1A71187   7.176  11.347   6.057
 5672POPC   D2A71188   7.442  11.408   6.430
 5672POPC   C3A71189   7.336  11.472   6.846
 5672POPC   C4A71190   7.618  11.666   7.189
 5672POPC   C1B71191   7.487  10.939   6.251
 5672POPC   C2B71192   7.533  10.960   6.715
 5672POPC   C3B71193   7.615  11.148   7.115
 5672POPC   C4B71194   7.574  11.161   7.576
 5673POPC   NC371195  40.135   1.434   5.110
 5673POPC   PO471196  39.599   1.225   5.429
 5673POPC   GL171197  39.875   1.294   5.816
 5673POPC   GL271198  40.134   1.541   5.884
 5673POPC   C1A71199  39.810   1.350   6.259
 5673POPC   D2A71200  39.758   1.158   6.641
 5673POPC   C3A71201  39.750   1.391   6.953
 5673POPC   C4A71202  39.593   1.185   7.267
 5673POPC   C1B71203  40.311   1.203   6.191
 5673POPC   C2B71204  40.285   1.090   6.657
 5673POPC   C3B71205  40.132   1.094   7.100
 5673POPC   C4B71206  40.047   1.262   7.543
 5674POPC   NC371207  17.166  21.093   5.540
 5674POPC   PO471208  17.450  20.428   5.461
 5674POPC   GL171209  17.257  20.630   5.787
 5674POPC   GL271210  17.523  20.825   5.837
 5674POPC   C1A71211  17.141  20.661   6.213
 5674POPC   D2A71212  17.354  20.622   6.604
 5674POPC   C3A71213  17.232  20.514   7.050
 5674POPC   C4A71214  17.405  20.763   7.436
 5674POPC   C1B71215  17.831  20.927   6.143
 5674POPC   C2B71216  17.875  20.760   6.552
 5674POPC   C3B71217  17.717  20.706   6.937
 5674POPC   C4B71218  17.779  21.025   7.172
 5675POPC   NC371219  23.880  11.077   5.081
 5675POPC   PO471220  23.791  11.658   5.522
 5675POPC   GL171221  23.796  11.559   5.963
 5675POPC   GL271222  23.444  11.609   5.986
 5675POPC   C1A71223  23.712  11.244   6.312
 5675POPC   D2A71224  23.531  10.919   6.604
 5675POPC   C3A71225  23.701  10.964   7.028
 5675POPC   C4A71226  23.878  11.279   7.302
 5675POPC   C1B71227  23.607  11.734   6.414
 5675POPC   C2B71228  23.780  11.524   6.800
 5675POPC   C3B71229  23.601  11.686   7.215
 5675POPC   C4B71230  23.583  11.778   7.682
 5676POPC   NC371231  44.394  25.796   5.643
 5676POPC   PO471232  43.998  26.167   5.222
 5676POPC   GL171233  43.867  25.903   5.634
 5676POPC   GL271234  43.721  26.133   5.850
 5676POPC   C1A71235  43.913  25.764   6.116
 5676POPC   D2A71236  43.722  25.742   6.532
 5676POPC   C3A71237  43.984  25.594   6.876
 5676POPC   C4A71238  44.167  25.827   7.224
 5676POPC   C1B71239  43.837  26.266   6.278
 5676POPC   C2B71240  43.629  26.241   6.671
 5676POPC   C3B71241  43.720  26.012   7.029
 5676POPC   C4B71242  43.662  26.220   7.388
 5677POPC   NC371243   9.453   1.361   5.417
 5677POPC   PO471244   8.734   1.400   5.338
 5677POPC   GL171245   9.006   1.335   5.676
 5677POPC   GL271246   8.758   1.311   5.889
 5677POPC   C1A71247   9.224   1.443   6.093
 5677POPC   D2A71248   9.425   1.165   6.446
 5677POPC   C3A71249   9.355   1.019   6.879
 5677POPC   C4A71250   9.404   1.051   7.323
 5677POPC   C1B71251   8.873   1.120   6.304
 5677POPC   C2B71252   8.863   0.947   6.730
 5677POPC   C3B71253   8.926   1.016   7.154
 5677POPC   C4B71254   8.676   1.006   7.507
 5678POPC   NC371255  12.578  26.138   5.342
 5678POPC   PO471256  12.066  25.786   5.375
 5678POPC   GL171257  12.207  25.937   5.746
 5678POPC   GL271258  12.080  26.268   5.752
 5678POPC   C1A71259  12.077  25.978   6.191
 5678POPC   D2A71260  11.863  26.019   6.591
 5678POPC   C3A71261  12.156  25.981   6.930
 5678POPC   C4A71262  12.304  25.920   7.353
 5678POPC   C1B71263  11.783  26.374   6.111
 5678POPC   C2B71264  11.771  26.553   6.528
 5678POPC   C3B71265  11.686  26.390   6.932
 5678POPC   C4B71266  11.983  26.374   7.228
 5679POPC   NC371267  29.878  39.637   5.490
 5679POPC   PO471268  29.794  40.380   5.426
 5679POPC   GL171269  29.828  40.111   5.787
 5679POPC   GL271270  30.182  39.950   5.798
 5679POPC   C1A71271  29.766  39.842   6.156
 5679POPC   D2A71272  29.986  39.821   6.549
 5679POPC   C3A71273  29.853  39.825   6.954
 5679POPC   C4A71274  29.744  40.069   7.300
 5679POPC   C1B71275  30.159  40.173   6.192
 5679POPC   C2B71276  30.075  40.343   6.595
 5679POPC   C3B71277  30.164  40.236   7.007
 5679POPC   C4B71278  30.311  40.385   7.377
 5680POPC   NC371279   9.801  27.437   5.387
 5680POPC   PO471280   9.582  28.059   5.462
 5680POPC   GL171281   9.788  27.803   5.786
 5680POPC   GL271282   9.622  27.461   5.859
 5680POPC   C1A71283   9.823  27.773   6.226
 5680POPC   D2A71284   9.943  27.841   6.620
 5680POPC   C3A71285   9.651  27.729   6.890
 5680POPC   C4A71286   9.693  27.604   7.258
 5680POPC   C1B71287  10.016  27.332   6.075
 5680POPC   C2B71288  10.090  27.308   6.549
 5680POPC   C3B71289   9.966  27.278   6.993
 5680POPC   C4B71290   9.846  27.171   7.456
 5681POPC   NC371291   5.628  31.302   5.610
 5681POPC   PO471292   4.997  31.649   5.486
 5681POPC   GL171293   4.948  31.499   5.923
 5681POPC   GL271294   5.305  31.433   5.995
 5681POPC   C1A71295   4.804  31.335   6.332
 5681POPC   D2A71296   4.539  31.273   6.713
 5681POPC   C3A71297   4.756  31.358   7.101
 5681POPC   C4A71298   5.148  31.265   7.115
 5681POPC   C1B71299   5.359  31.157   6.366
 5681POPC   C2B71300   5.537  31.115   6.798
 5681POPC   C3B71301   5.576  31.052   7.261
 5681POPC   C4B71302   5.338  31.082   7.676
 5682POPC   NC371303   0.174  12.994   5.483
 5682POPC   PO471304   0.394  13.582   5.435
 5682POPC   GL171305   0.433  13.523   5.868
 5682POPC   GL271306   0.062  13.505   5.925
 5682POPC   C1A71307   0.704  13.626   6.233
 5682POPC   D2A71308   0.906  13.664   6.659
 5682POPC   C3A71309   0.697  13.548   7.033
 5682POPC   C4A71310   0.441  13.800   7.280
 5682POPC   C1B71311   0.184  13.733   6.308
 5682POPC   C2B71312   0.247  13.858   6.755
 5682POPC   C3B71313  44.981  13.805   7.079
 5682POPC   C4B71314   0.021  13.416   7.257
 5683POPC   NC371315  38.217  20.952   5.577
 5683POPC   PO471316  38.525  20.395   5.382
 5683POPC   GL171317  38.565  20.584   5.783
 5683POPC   GL271318  38.729  20.905   5.827
 5683POPC   C1A71319  38.263  20.516   6.107
 5683POPC   D2A71320  38.252  20.416   6.538
 5683POPC   C3A71321  38.393  20.699   6.873
 5683POPC   C4A71322  38.434  20.558   7.288
 5683POPC   C1B71323  38.670  20.775   6.298
 5683POPC   C2B71324  38.853  20.916   6.734
 5683POPC   C3B71325  38.861  21.039   7.179
 5683POPC   C4B71326  38.614  20.968   7.568
 5684POPC   NC371327  25.722  13.849   5.613
 5684POPC   PO471328  25.528  13.390   5.114
 5684POPC   GL171329  25.401  13.432   5.588
 5684POPC   GL271330  25.228  13.764   5.733
 5684POPC   C1A71331  25.447  13.421   6.082
 5684POPC   D2A71332  25.186  13.452   6.435
 5684POPC   C3A71333  25.278  13.559   6.864
 5684POPC   C4A71334  25.314  13.375   7.233
 5684POPC   C1B71335  25.099  13.865   6.163
 5684POPC   C2B71336  24.988  13.902   6.628
 5684POPC   C3B71337  25.050  13.989   7.088
 5684POPC   C4B71338  25.472  13.936   7.301
 5685POPC   NC371339  24.683  37.198   5.529
 5685POPC   PO471340  24.245  37.821   5.399
 5685POPC   GL171341  24.634  37.705   5.708
 5685POPC   GL271342  24.685  38.040   5.875
 5685POPC   C1A71343  24.570  37.470   6.137
 5685POPC   D2A71344  24.254  37.583   6.484
 5685POPC   C3A71345  24.359  37.501   6.902
 5685POPC   C4A71346  24.214  37.642   7.263
 5685POPC   C1B71347  24.549  37.954   6.275
 5685POPC   C2B71348  24.732  37.712   6.603
 5685POPC   C3B71349  24.836  37.695   7.009
 5685POPC   C4B71350  24.692  37.884   7.396
 5686POPC   NC371351  17.881  28.104   5.495
 5686POPC   PO471352  17.263  28.430   5.367
 5686POPC   GL171353  17.506  28.389   5.735
 5686POPC   GL271354  17.396  28.065   5.802
 5686POPC   C1A71355  17.454  28.458   6.173
 5686POPC   D2A71356  17.286  28.579   6.585
 5686POPC   C3A71357  17.601  28.635   6.931
 5686POPC   C4A71358  17.577  28.656   7.387
 5686POPC   C1B71359  17.373  27.959   6.247
 5686POPC   C2B71360  17.534  28.124   6.614
 5686POPC   C3B71361  17.348  28.197   7.002
 5686POPC   C4B71362  17.564  28.157   7.360
 5687POPC   NC371363  34.933  11.340   5.414
 5687POPC   PO471364  34.322  11.295   5.361
 5687POPC   GL171365  34.530  11.303   5.743
 5687POPC   GL271366  34.697  10.978   5.734
 5687POPC   C1A71367  34.642  11.374   6.163
 5687POPC   D2A71368  34.746  11.133   6.535
 5687POPC   C3A71369  34.657  11.264   6.970
 5687POPC   C4A71370  34.464  11.551   7.264
 5687POPC   C1B71371  34.406  10.915   6.069
 5687POPC   C2B71372  34.352  10.817   6.472
 5687POPC   C3B71373  34.397  10.830   6.893
 5687POPC   C4B71374  34.237  11.107   7.231
 5688POPC   NC371375  33.613  17.054   5.524
 5688POPC   PO471376  34.260  17.057   5.466
 5688POPC   GL171377  34.016  16.980   5.825
 5688POPC   GL271378  34.086  16.633   5.821
 5688POPC   C1A71379  33.669  16.836   6.124
 5688POPC   D2A71380  33.624  16.920   6.553
 5688POPC   C3A71381  33.471  16.664   6.877
 5688POPC   C4A71382  33.370  16.945   7.219
 5688POPC   C1B71383  34.143  16.757   6.275
 5688POPC   C2B71384  34.028  16.636   6.681
 5688POPC   C3B71385  33.921  16.831   7.053
 5688POPC   C4B71386  34.108  16.697   7.399
 5689POPC   NC371387  27.145  36.464   5.181
 5689POPC   PO471388  26.588  36.743   5.453
 5689POPC   GL171389  26.893  36.507   5.775
 5689POPC   GL271390  26.617  36.612   5.950
 5689POPC   C1A71391  27.014  36.546   6.241
 5689POPC   D2A71392  26.710  36.802   6.494
 5689POPC   C3A71393  26.803  37.032   6.861
 5689POPC   C4A71394  27.034  36.904   7.194
 5689POPC   C1B71395  26.303  36.593   6.232
 5689POPC   C2B71396  26.189  36.851   6.535
 5689POPC   C3B71397  26.359  36.660   6.870
 5689POPC   C4B71398  26.567  36.704   7.219
 5690POPC   NC371399  38.733   7.658   5.568
 5690POPC   PO471400  39.431   7.439   5.528
 5690POPC   GL171401  39.229   7.267   5.905
 5690POPC   GL271402  38.906   7.330   5.947
 5690POPC   C1A71403  39.146   7.096   6.331
 5690POPC   D2A71404  39.067   7.225   6.774
 5690POPC   C3A71405  39.199   6.979   7.131
 5690POPC   C4A71406  39.273   7.082   7.584
 5690POPC   C1B71407  38.811   7.474   6.390
 5690POPC   C2B71408  39.122   7.714   6.566
 5690POPC   C3B71409  39.289   7.697   6.961
 5690POPC   C4B71410  39.095   7.457   7.259
 5691POPC   NC371411  12.463  32.885   5.017
 5691POPC   PO471412  12.065  33.203   5.429
 5691POPC   GL171413  11.948  32.943   5.787
 5691POPC   GL271414  12.222  33.009   5.994
 5691POPC   C1A71415  11.724  32.835   6.194
 5691POPC   D2A71416  11.938  32.823   6.587
 5691POPC   C3A71417  11.875  33.011   6.976
 5691POPC   C4A71418  12.025  32.759   7.278
 5691POPC   C1B71419  12.339  33.349   6.266
 5691POPC   C2B71420  12.245  33.253   6.679
 5691POPC   C3B71421  12.419  32.963   6.952
 5691POPC   C4B71422  12.275  33.196   7.257
 5692POPC   NC371423  21.899   1.564   5.047
 5692POPC   PO471424  21.711   0.943   5.265
 5692POPC   GL171425  22.036   1.188   5.531
 5692POPC   GL271426  21.772   1.158   5.788
 5692POPC   C1A71427  22.222   1.197   5.988
 5692POPC   D2A71428  22.114   1.146   6.429
 5692POPC   C3A71429  22.200   1.317   6.835
 5692POPC   C4A71430  22.344   1.171   7.237
 5692POPC   C1B71431  21.791   1.417   6.155
 5692POPC   C2B71432  21.806   1.555   6.570
 5692POPC   C3B71433  21.696   1.544   6.981
 5692POPC   C4B71434  22.014   1.564   7.280
 5693POPC   NC371435  36.266  12.201   5.380
 5693POPC   PO471436  35.648  12.401   5.622
 5693POPC   GL171437  35.842  12.077   5.888
 5693POPC   GL271438  36.207  11.993   5.851
 5693POPC   C1A71439  35.950  12.001   6.326
 5693POPC   D2A71440  35.983  11.746   6.701
 5693POPC   C3A71441  36.299  11.884   6.933
 5693POPC   C4A71442  36.201  12.136   7.231
 5693POPC   C1B71443  36.441  12.219   6.135
 5693POPC   C2B71444  36.502  12.168   6.548
 5693POPC   C3B71445  36.387  12.446   6.876
 5693POPC   C4B71446  36.538  12.566   7.252
 5694POPC   NC371447   0.870  37.644   5.192
 5694POPC   PO471448   1.250  38.180   5.319
 5694POPC   GL171449   1.209  37.952   5.712
 5694POPC   GL271450   1.115  37.561   5.719
 5694POPC   C1A71451   1.268  37.858   6.148
 5694POPC   D2A71452   1.205  37.614   6.537
 5694POPC   C3A71453   1.192  37.895   6.898
 5694POPC   C4A71454   1.152  38.011   7.326
 5694POPC   C1B71455   0.893  37.428   6.143
 5694POPC   C2B71456   0.866  37.170   6.543
 5694POPC   C3B71457   1.000  37.321   6.955
 5694POPC   C4B71458   1.350  37.496   7.236
 5695POPC   NC371459  12.972  41.157   4.980
 5695POPC   PO471460  12.937  40.644   5.406
 5695POPC   GL171461  12.850  40.842   5.826
 5695POPC   GL271462  12.498  40.863   5.855
 5695POPC   C1A71463  12.901  40.885   6.302
 5695POPC   D2A71464  12.769  40.712   6.713
 5695POPC   C3A71465  12.699  40.945   7.030
 5695POPC   C4A71466  12.971  41.061   7.297
 5695POPC   C1B71467  12.418  40.681   6.301
 5695POPC   C2B71468  12.353  40.413   6.710
 5695POPC   C3B71469  12.446  40.492   7.144
 5695POPC   C4B71470  12.855  40.533   7.312
 5696POPC   NC371471  20.821  17.330   5.360
 5696POPC   PO471472  20.826  17.916   5.695
 5696POPC   GL171473  20.761  17.477   5.852
 5696POPC   GL271474  21.032  17.193   5.791
 5696POPC   C1A71475  20.424  17.359   6.165
 5696POPC   D2A71476  20.329  17.549   6.586
 5696POPC   C3A71477  20.611  17.701   6.879
 5696POPC   C4A71478  20.508  17.550   7.274
 5696POPC   C1B71479  20.876  17.106   6.172
 5696POPC   C2B71480  20.801  17.380   6.517
 5696POPC   C3B71481  20.759  17.213   6.929
 5696POPC   C4B71482  20.940  17.243   7.323
 5697POPC   NC371483  16.129  19.810   5.330
 5697POPC   PO471484  15.857  20.422   5.397
 5697POPC   GL171485  16.059  20.144   5.739
 5697POPC   GL271486  15.930  19.769   5.786
 5697POPC   C1A71487  16.143  20.002   6.173
 5697POPC   D2A71488  15.908  19.922   6.565
 5697POPC   C3A71489  16.172  19.930   6.902
 5697POPC   C4A71490  16.235  20.105   7.277
 5697POPC   C1B71491  15.675  19.690   6.155
 5697POPC   C2B71492  15.529  19.554   6.559
 5697POPC   C3B71493  15.572  19.715   6.956
 5697POPC   C4B71494  15.826  19.789   7.280
 5698POPC   NC371495  15.452  26.469   5.006
 5698POPC   PO471496  15.330  26.933   5.462
 5698POPC   GL171497  15.387  26.963   5.882
 5698POPC   GL271498  15.081  26.774   5.923
 5698POPC   C1A71499  15.192  27.158   6.248
 5698POPC   D2A71500  15.238  26.985   6.662
 5698POPC   C3A71501  15.012  26.989   7.028
 5698POPC   C4A71502  15.323  26.927   7.363
 5698POPC   C1B71503  15.244  26.648   6.287
 5698POPC   C2B71504  15.154  26.467   6.649
 5698POPC   C3B71505  15.371  26.574   6.994
 5698POPC   C4B71506  15.242  26.397   7.337
 5699POPC   NC371507  42.163  25.743   5.309
 5699POPC   PO471508  42.423  26.341   5.347
 5699POPC   GL171509  42.248  26.122   5.759
 5699POPC   GL271510  42.047  25.829   5.838
 5699POPC   C1A71511  42.438  25.995   6.204
 5699POPC   D2A71512  42.721  25.917   6.547
 5699POPC   C3A71513  42.486  25.891   6.931
 5699POPC   C4A71514  42.284  26.118   7.275
 5699POPC   C1B71515  41.932  26.032   6.187
 5699POPC   C2B71516  42.042  26.141   6.566
 5699POPC   C3B71517  41.963  25.949   6.928
 5699POPC   C4B71518  42.074  25.613   7.148
 5700POPC   NC371519  27.885  35.488   5.463
 5700POPC   PO471520  27.402  35.043   5.292
 5700POPC   GL171521  27.528  35.137   5.765
 5700POPC   GL271522  27.909  35.128   5.816
 5700POPC   C1A71523  27.517  35.374   6.230
 5700POPC   D2A71524  27.607  35.680   6.562
 5700POPC   C3A71525  27.389  35.631   6.941
 5700POPC   C4A71526  27.416  35.318   7.228
 5700POPC   C1B71527  28.007  35.229   6.246
 5700POPC   C2B71528  27.791  35.200   6.658
 5700POPC   C3B71529  27.860  35.447   7.014
 5700POPC   C4B71530  28.117  35.415   7.356
 5701POPC   NC371531   0.970  26.169   5.425
 5701POPC   PO471532   1.396  25.724   5.591
 5701POPC   GL171533   1.283  26.078   5.832
 5701POPC   GL271534   0.984  25.920   5.880
 5701POPC   C1A71535   1.090  26.277   6.235
 5701POPC   D2A71536   0.820  26.183   6.585
 5701POPC   C3A71537   0.980  26.282   6.973
 5701POPC   C4A71538   1.439  26.335   7.083
 5701POPC   C1B71539   1.264  25.806   6.261
 5701POPC   C2B71540   1.323  26.012   6.665
 5701POPC   C3B71541   1.277  25.821   7.077
 5701POPC   C4B71542   1.374  25.776   7.514
 5702POPC   NC371543  12.305  22.612   5.679
 5702POPC   PO471544  12.796  22.870   5.320
 5702POPC   GL171545  12.749  22.901   5.774
 5702POPC   GL271546  13.015  23.141   5.913
 5702POPC   C1A71547  12.680  22.823   6.210
 5702POPC   D2A71548  12.980  22.761   6.522
 5702POPC   C3A71549  12.844  22.811   6.930
 5702POPC   C4A71550  12.650  22.779   7.320
 5702POPC   C1B71551  12.753  23.309   6.235
 5702POPC   C2B71552  12.730  23.238   6.668
 5702POPC   C3B71553  12.763  23.268   7.132
 5702POPC   C4B71554  13.084  23.018   7.363
 5703POPC   NC371555  36.695   4.195   5.516
 5703POPC   PO471556  37.173   4.033   5.069
 5703POPC   GL171557  37.211   4.202   5.624
 5703POPC   GL271558  36.981   4.427   5.884
 5703POPC   C1A71559  37.285   4.142   6.155
 5703POPC   D2A71560  36.961   4.253   6.548
 5703POPC   C3A71561  37.045   4.407   7.027
 5703POPC   C4A71562  37.219   4.435   7.494
 5703POPC   C1B71563  36.761   4.760   6.178
 5703POPC   C2B71564  36.858   4.782   6.602
 5703POPC   C3B71565  36.799   4.875   6.997
 5703POPC   C4B71566  36.882   4.787   7.413
 5704POPC   NC371567  28.089  14.710   5.511
 5704POPC   PO471568  28.535  14.184   5.358
 5704POPC   GL171569  28.283  14.223   5.719
 5704POPC   GL271570  28.625  14.211   5.864
 5704POPC   C1A71571  27.972  14.263   6.080
 5704POPC   D2A71572  28.087  14.558   6.399
 5704POPC   C3A71573  28.016  14.498   6.845
 5704POPC   C4A71574  28.238  14.471   7.249
 5704POPC   C1B71575  28.623  14.475   6.194
 5704POPC   C2B71576  28.679  14.293   6.586
 5704POPC   C3B71577  28.687  14.482   6.970
 5704POPC   C4B71578  28.692  14.226   7.307
 5705POPC   NC371579  36.591   9.059   5.504
 5705POPC   PO471580  35.983   8.938   5.187
 5705POPC   GL171581  36.010   8.990   5.666
 5705POPC   GL271582  36.277   8.799   5.824
 5705POPC   C1A71583  36.005   9.151   6.128
 5705POPC   D2A71584  36.054   8.952   6.543
 5705POPC   C3A71585  36.132   9.111   6.960
 5705POPC   C4A71586  36.345   8.950   7.338
 5705POPC   C1B71587  35.965   8.620   6.143
 5705POPC   C2B71588  35.890   8.471   6.589
 5705POPC   C3B71589  35.893   8.643   7.048
 5705POPC   C4B71590  35.946   8.669   7.539
 5706POPC   NC371591  18.411   0.587   5.250
 5706POPC   PO471592  17.844   0.193   5.350
 5706POPC   GL171593  18.121   0.377   5.748
 5706POPC   GL271594  18.407   0.640   5.749
 5706POPC   C1A71595  18.420   0.256   6.136
 5706POPC   D2A71596  18.597   0.060   6.550
 5706POPC   C3A71597  18.476   0.274   6.947
 5706POPC   C4A71598  18.379   0.230   7.392
 5706POPC   C1B71599  18.269   0.775   6.133
 5706POPC   C2B71600  18.436   0.643   6.534
 5706POPC   C3B71601  18.340   0.785   6.932
 5706POPC   C4B71602  18.003   0.763   7.181
 5707POPC   NC371603  30.263   6.901   5.496
 5707POPC   PO471604  30.539   7.521   5.397
 5707POPC   GL171605  30.454   7.617   5.808
 5707POPC   GL271606  30.834   7.589   5.867
 5707POPC   C1A71607  30.529   7.794   6.209
 5707POPC   D2A71608  30.821   7.609   6.499
 5707POPC   C3A71609  30.662   7.657   6.915
 5707POPC   C4A71610  30.655   7.424   7.286
 5707POPC   C1B71611  31.009   7.194   6.081
 5707POPC   C2B71612  30.984   7.092   6.493
 5707POPC   C3B71613  31.073   7.320   6.879
 5707POPC   C4B71614  31.027   7.079   7.281
 5708POPC   NC371615  35.019   4.364   5.290
 5708POPC   PO471616  34.324   4.267   5.342
 5708POPC   GL171617  34.420   4.118   5.794
 5708POPC   GL271618  34.112   3.977   5.886
 5708POPC   C1A71619  34.693   4.128   6.184
 5708POPC   D2A71620  34.632   4.341   6.592
 5708POPC   C3A71621  34.687   4.122   6.975
 5708POPC   C4A71622  34.934   4.217   7.369
 5708POPC   C1B71623  34.188   4.215   6.282
 5708POPC   C2B71624  34.149   4.501   6.661
 5708POPC   C3B71625  34.384   4.529   7.075
 5708POPC   C4B71626  34.417   4.212   7.428
 5709POPC   NC371627  36.934  19.114   5.403
 5709POPC   PO471628  36.935  19.751   5.476
 5709POPC   GL171629  36.859  19.449   5.852
 5709POPC   GL271630  37.097  19.139   5.910
 5709POPC   C1A71631  36.794  19.263   6.290
 5709POPC   D2A71632  36.596  18.971   6.583
 5709POPC   C3A71633  36.772  19.092   6.994
 5709POPC   C4A71634  37.179  18.994   7.181
 5709POPC   C1B71635  36.912  18.762   6.185
 5709POPC   C2B71636  36.854  18.518   6.597
 5709POPC   C3B71637  36.821  18.590   7.064
 5709POPC   C4B71638  36.620  18.814   7.411
 5710POPC   NC371639  22.863   1.421   5.271
 5710POPC   PO471640  23.045   1.982   5.529
 5710POPC   GL171641  22.711   1.811   5.739
 5710POPC   GL271642  22.962   1.608   5.900
 5710POPC   C1A71643  22.680   1.940   6.183
 5710POPC   D2A71644  22.995   2.073   6.507
 5710POPC   C3A71645  22.830   2.083   6.925
 5710POPC   C4A71646  22.776   2.020   7.366
 5710POPC   C1B71647  23.238   1.660   6.278
 5710POPC   C2B71648  23.240   1.654   6.742
 5710POPC   C3B71649  23.156   1.758   7.166
 5710POPC   C4B71650  22.999   1.612   7.574
 5711POPC   NC371651  33.888   4.451   5.334
 5711POPC   PO471652  33.272   4.167   5.215
 5711POPC   GL171653  33.544   4.164   5.620
 5711POPC   GL271654  33.623   4.515   5.770
 5711POPC   C1A71655  33.659   4.079   6.071
 5711POPC   D2A71656  33.732   4.191   6.502
 5711POPC   C3A71657  33.879   4.115   6.912
 5711POPC   C4A71658  33.612   3.903   7.160
 5711POPC   C1B71659  33.801   4.602   6.206
 5711POPC   C2B71660  33.642   4.667   6.652
 5711POPC   C3B71661  33.605   4.551   7.099
 5711POPC   C4B71662  33.950   4.454   7.357
 5712POPC   NC371663   6.023  40.583   5.329
 5712POPC   PO471664   5.889  41.226   5.485
 5712POPC   GL171665   5.775  40.906   5.829
 5712POPC   GL271666   5.782  40.547   5.783
 5712POPC   C1A71667   5.466  40.773   6.173
 5712POPC   D2A71668   5.530  40.590   6.612
 5712POPC   C3A71669   5.727  40.835   6.988
 5712POPC   C4A71670   5.785  40.681   7.453
 5712POPC   C1B71671   5.929  40.572   6.220
 5712POPC   C2B71672   6.061  40.470   6.638
 5712POPC   C3B71673   6.045  40.455   7.067
 5712POPC   C4B71674   6.226  40.828   7.257
 5713POPC   NC371675  25.698  42.067   5.328
 5713POPC   PO471676  25.074  42.113   5.486
 5713POPC   GL171677  25.347  42.207   5.854
 5713POPC   GL271678  25.554  42.501   5.872
 5713POPC   C1A71679  25.189  42.058   6.249
 5713POPC   D2A71680  25.277  42.162   6.655
 5713POPC   C3A71681  25.093  42.143   7.023
 5713POPC   C4A71682  25.243  42.448   7.312
 5713POPC   C1B71683  25.387  42.543   6.326
 5713POPC   C2B71684  25.447  42.712   6.774
 5713POPC   C3B71685  25.656  42.718   7.174
 5713POPC   C4B71686  25.507  42.744   7.630
 5714POPC   NC371687   5.768  34.698   5.274
 5714POPC   PO471688   6.380  34.410   5.468
 5714POPC   GL171689   5.918  34.512   5.704
 5714POPC   GL271690   5.696  34.849   5.760
 5714POPC   C1A71691   5.780  34.475   6.124
 5714POPC   D2A71692   6.017  34.508   6.484
 5714POPC   C3A71693   5.872  34.464   6.882
 5714POPC   C4A71694   5.875  34.654   7.275
 5714POPC   C1B71695   5.536  34.937   6.202
 5714POPC   C2B71696   5.496  34.770   6.645
 5714POPC   C3B71697   5.541  34.981   7.063
 5714POPC   C4B71698   5.724  35.108   7.485
 5715POPC   NC371699  25.779  13.009   5.054
 5715POPC   PO471700  25.190  12.859   5.310
 5715POPC   GL171701  25.097  12.780   5.722
 5715POPC   GL271702  25.291  12.530   5.881
 5715POPC   C1A71703  25.183  12.957   6.144
 5715POPC   D2A71704  25.191  12.741   6.529
 5715POPC   C3A71705  25.182  13.014   6.882
 5715POPC   C4A71706  25.117  12.915   7.308
 5715POPC   C1B71707  25.457  12.350   6.254
 5715POPC   C2B71708  25.573  12.442   6.685
 5715POPC   C3B71709  25.291  12.497   7.049
 5715POPC   C4B71710  25.328  12.509   7.510
 5716POPC   NC371711  17.332   9.442   5.472
 5716POPC   PO471712  17.521   8.810   5.501
 5716POPC   GL171713  17.474   8.988   5.857
 5716POPC   GL271714  17.214   8.847   5.978
 5716POPC   C1A71715  17.776   9.100   6.186
 5716POPC   D2A71716  17.938   8.899   6.571
 5716POPC   C3A71717  17.663   8.949   6.932
 5716POPC   C4A71718  17.364   8.702   7.143
 5716POPC   C1B71719  17.285   9.239   6.249
 5716POPC   C2B71720  17.306   9.299   6.686
 5716POPC   C3B71721  17.177   9.180   7.104
 5716POPC   C4B71722  17.104   9.398   7.489
 5717POPC   NC371723  15.403  44.019   5.370
 5717POPC   PO471724  14.836  43.820   5.300
 5717POPC   GL171725  15.018  43.993   5.758
 5717POPC   GL271726  15.347  44.140   5.860
 5717POPC   C1A71727  15.176  43.763   6.192
 5717POPC   D2A71728  15.453  43.763   6.595
 5717POPC   C3A71729  15.303  43.799   7.059
 5717POPC   C4A71730  15.336  43.608   7.502
 5717POPC   C1B71731  15.499  44.381   6.212
 5717POPC   C2B71732  15.637  44.418   6.620
 5717POPC   C3B71733  15.561  44.273   7.040
 5717POPC   C4B71734  15.495  44.078   7.469
 5718POPC   NC371735  36.868   2.500   5.503
 5718POPC   PO471736  37.045   3.139   5.410
 5718POPC   GL171737  36.872   2.971   5.809
 5718POPC   GL271738  37.175   2.802   5.901
 5718POPC   C1A71739  36.883   2.914   6.305
 5718POPC   D2A71740  37.013   2.980   6.774
 5718POPC   C3A71741  36.779   2.750   7.102
 5718POPC   C4A71742  36.414   2.496   7.078
 5718POPC   C1B71743  37.149   2.442   6.168
 5718POPC   C2B71744  37.181   2.310   6.589
 5718POPC   C3B71745  37.199   2.486   6.999
 5718POPC   C4B71746  37.040   2.258   7.342
 5719POPC   NC371747  38.773  14.036   5.514
 5719POPC   PO471748  38.366  13.418   5.474
 5719POPC   GL171749  38.419  13.747   5.802
 5719POPC   GL271750  38.739  13.677   5.906
 5719POPC   C1A71751  38.219  13.696   6.195
 5719POPC   D2A71752  38.185  13.386   6.531
 5719POPC   C3A71753  38.115  13.594   6.894
 5719POPC   C4A71754  38.366  13.654   7.237
 5719POPC   C1B71755  38.670  13.510   6.337
 5719POPC   C2B71756  38.648  13.669   6.785
 5719POPC   C3B71757  38.787  13.917   7.163
 5719POPC   C4B71758  38.739  13.743   7.619
 5720POPC   NC371759  41.714   6.084   5.273
 5720POPC   PO471760  41.319   5.573   5.419
 5720POPC   GL171761  41.382   5.787   5.806
 5720POPC   GL271762  41.087   5.640   5.928
 5720POPC   C1A71763  41.710   5.890   6.151
 5720POPC   D2A71764  41.784   6.058   6.603
 5720POPC   C3A71765  41.817   5.804   6.980
 5720POPC   C4A71766  41.711   5.407   7.205
 5720POPC   C1B71767  41.250   5.773   6.330
 5720POPC   C2B71768  41.357   5.626   6.742
 5720POPC   C3B71769  41.344   5.766   7.154
 5720POPC   C4B71770  41.505   6.168   7.189
 5721POPC   NC371771  22.412  11.391   5.511
 5721POPC   PO471772  21.903  11.173   5.080
 5721POPC   GL171773  21.948  11.239   5.609
 5721POPC   GL271774  22.024  10.967   5.798
 5721POPC   C1A71775  22.183  11.342   6.105
 5721POPC   D2A71776  22.065  11.468   6.562
 5721POPC   C3A71777  22.364  11.479   6.930
 5721POPC   C4A71778  22.198  11.451   7.349
 5721POPC   C1B71779  22.168  10.837   6.223
 5721POPC   C2B71780  22.348  11.051   6.604
 5721POPC   C3B71781  22.255  11.009   7.028
 5721POPC   C4B71782  22.452  10.707   7.238
 5722POPC   NC371783  27.555  15.403   5.454
 5722POPC   PO471784  27.758  14.843   5.809
 5722POPC   GL171785  27.762  15.270   5.917
 5722POPC   GL271786  27.459  15.428   5.950
 5722POPC   C1A71787  27.985  15.308   6.305
 5722POPC   D2A71788  27.974  14.999   6.627
 5722POPC   C3A71789  27.798  15.041   7.036
 5722POPC   C4A71790  27.900  14.945   7.437
 5722POPC   C1B71791  27.496  15.135   6.328
 5722POPC   C2B71792  27.529  15.300   6.675
 5722POPC   C3B71793  27.595  15.532   6.990
 5722POPC   C4B71794  27.464  15.565   7.363
 5723POPC   NC371795   8.490  17.388   5.472
 5723POPC   PO471796   8.060  17.906   5.530
 5723POPC   GL171797   8.110  17.527   5.810
 5723POPC   GL271798   7.923  17.229   5.678
 5723POPC   C1A71799   8.264  17.499   6.244
 5723POPC   D2A71800   8.334  17.761   6.642
 5723POPC   C3A71801   8.258  17.607   7.085
 5723POPC   C4A71802   8.516  17.312   7.327
 5723POPC   C1B71803   7.792  17.206   6.121
 5723POPC   C2B71804   8.042  17.096   6.488
 5723POPC   C3B71805   8.024  17.186   6.906
 5723POPC   C4B71806   8.023  17.106   7.324
 5724POPC   NC371807  36.460  39.355   5.306
 5724POPC   PO471808  35.886  38.943   5.195
 5724POPC   GL171809  35.977  39.178   5.594
 5724POPC   GL271810  36.268  39.115   5.736
 5724POPC   C1A71811  35.903  39.295   6.056
 5724POPC   D2A71812  35.834  39.453   6.473
 5724POPC   C3A71813  35.863  39.274   6.872
 5724POPC   C4A71814  36.044  39.581   7.132
 5724POPC   C1B71815  36.354  38.968   6.147
 5724POPC   C2B71816  36.228  39.106   6.550
 5724POPC   C3B71817  36.360  39.203   6.966
 5724POPC   C4B71818  36.526  39.022   7.310
 5725POPC   NC371819  28.036  21.470   5.330
 5725POPC   PO471820  28.500  20.970   5.382
 5725POPC   GL171821  28.521  21.188   5.774
 5725POPC   GL271822  28.373  21.541   5.766
 5725POPC   C1A71823  28.364  21.213   6.191
 5725POPC   D2A71824  28.220  21.402   6.573
 5725POPC   C3A71825  28.411  21.293   6.992
 5725POPC   C4A71826  28.322  21.084   7.409
 5725POPC   C1B71827  28.050  21.642   6.101
 5725POPC   C2B71828  27.930  21.828   6.519
 5725POPC   C3B71829  28.087  21.721   6.949
 5725POPC   C4B71830  28.258  21.617   7.356
 5726POPC   NC371831  37.380   1.985   5.552
 5726POPC   PO471832  36.671   2.053   5.495
 5726POPC   GL171833  36.936   2.086   5.821
 5726POPC   GL271834  36.992   1.756   5.806
 5726POPC   C1A71835  36.814   2.055   6.236
 5726POPC   D2A71836  36.854   1.882   6.614
 5726POPC   C3A71837  36.774   2.150   6.926
 5726POPC   C4A71838  36.620   1.992   7.290
 5726POPC   C1B71839  37.171   1.681   6.197
 5726POPC   C2B71840  37.354   1.804   6.583
 5726POPC   C3B71841  37.237   1.916   6.979
 5726POPC   C4B71842  37.078   1.621   7.247
 5727POPC   NC371843  14.449  36.290   5.420
 5727POPC   PO471844  14.434  35.657   5.626
 5727POPC   GL171845  14.346  36.026   5.885
 5727POPC   GL271846  14.249  36.385   5.914
 5727POPC   C1A71847  14.335  36.084   6.326
 5727POPC   D2A71848  14.189  36.216   6.684
 5727POPC   C3A71849  14.222  35.901   6.988
 5727POPC   C4A71850  14.611  35.869   7.188
 5727POPC   C1B71851  14.630  36.436   6.105
 5727POPC   C2B71852  14.690  36.419   6.553
 5727POPC   C3B71853  14.586  36.345   6.992
 5727POPC   C4B71854  14.202  36.386   7.183
 5728POPC   NC371855   6.848  20.192   5.416
 5728POPC   PO471856   6.356  20.661   5.585
 5728POPC   GL171857   6.625  20.461   5.830
 5728POPC   GL271858   6.965  20.565   5.757
 5728POPC   C1A71859   6.522  20.458   6.253
 5728POPC   D2A71860   6.602  20.744   6.621
 5728POPC   C3A71861   6.529  20.479   7.023
 5728POPC   C4A71862   6.604  20.612   7.466
 5728POPC   C1B71863   6.965  20.716   6.180
 5728POPC   C2B71864   7.119  20.813   6.578
 5728POPC   C3B71865   6.978  20.686   6.957
 5728POPC   C4B71866   7.010  20.832   7.288
 5729POPC   NC371867  13.475  40.305   5.121
 5729POPC   PO471868  13.621  39.772   5.259
 5729POPC   GL171869  13.607  39.813   5.731
 5729POPC   GL271870  13.555  40.145   5.872
 5729POPC   C1A71871  13.634  39.773   6.226
 5729POPC   D2A71872  13.864  39.891   6.651
 5729POPC   C3A71873  13.681  39.878   7.105
 5729POPC   C4A71874  13.831  39.872   7.582
 5729POPC   C1B71875  13.306  40.164   6.241
 5729POPC   C2B71876  13.395  40.107   6.668
 5729POPC   C3B71877  13.289  40.228   7.078
 5729POPC   C4B71878  13.369  40.036   7.485
 5730POPC   NC371879   1.693  11.066   5.481
 5730POPC   PO471880   2.102  10.434   5.334
 5730POPC   GL171881   2.016  10.447   5.804
 5730POPC   GL271882   1.849  10.128   5.946
 5730POPC   C1A71883   2.168  10.457   6.231
 5730POPC   D2A71884   2.154  10.243   6.628
 5730POPC   C3A71885   2.228  10.584   6.902
 5730POPC   C4A71886   2.321  10.830   7.262
 5730POPC   C1B71887   1.652  10.388   6.253
 5730POPC   C2B71888   1.644  10.500   6.690
 5730POPC   C3B71889   1.779  10.310   7.055
 5730POPC   C4B71890   1.952  10.479   7.428
 5731POPC   NC371891   7.074   0.776   5.300
 5731POPC   PO471892   7.602   0.335   5.294
 5731POPC   GL171893   7.654   0.356   5.749
 5731POPC   GL271894   7.435   0.568   5.909
 5731POPC   C1A71895   7.787   0.387   6.213
 5731POPC   D2A71896   7.494   0.500   6.555
 5731POPC   C3A71897   7.633   0.343   6.959
 5731POPC   C4A71898   7.462   0.447   7.368
 5731POPC   C1B71899   7.116   0.484   6.202
 5731POPC   C2B71900   6.954   0.572   6.585
 5731POPC   C3B71901   7.114   0.477   6.969
 5731POPC   C4B71902   6.941   0.563   7.363
 5732POPC   NC371903  42.062  10.535   5.389
 5732POPC   PO471904  42.607  10.101   5.491
 5732POPC   GL171905  42.450  10.437   5.797
 5732POPC   GL271906  42.231  10.764   5.825
 5732POPC   C1A71907  42.531  10.552   6.219
 5732POPC   D2A71908  42.350  10.491   6.615
 5732POPC   C3A71909  42.483  10.721   6.923
 5732POPC   C4A71910  42.413  10.872   7.284
 5732POPC   C1B71911  42.037  10.691   6.238
 5732POPC   C2B71912  41.908  10.746   6.665
 5732POPC   C3B71913  42.011  10.611   7.105
 5732POPC   C4B71914  41.842  10.610   7.539
 5733POPC   NC371915   1.572   6.180   5.503
 5733POPC   PO471916   2.137   5.782   5.470
 5733POPC   GL171917   1.990   5.966   5.863
 5733POPC   GL271918   1.700   5.773   5.893
 5733POPC   C1A71919   1.951   6.134   6.314
 5733POPC   D2A71920   1.959   6.185   6.796
 5733POPC   C3A71921   2.216   5.874   7.071
 5733POPC   C4A71922   2.235   5.847   7.520
 5733POPC   C1B71923   1.844   5.629   6.273
 5733POPC   C2B71924   1.969   5.708   6.640
 5733POPC   C3B71925   1.720   5.779   6.986
 5733POPC   C4B71926   1.719   5.786   7.443
 5734POPC   NC371927  31.172  36.197   5.683
 5734POPC   PO471928  31.640  36.488   5.340
 5734POPC   GL171929  31.742  36.312   5.791
 5734POPC   GL271930  31.615  35.952   5.854
 5734POPC   C1A71931  31.634  36.251   6.257
 5734POPC   D2A71932  31.245  36.336   6.519
 5734POPC   C3A71933  31.373  36.295   6.945
 5734POPC   C4A71934  31.416  36.523   7.307
 5734POPC   C1B71935  31.290  35.882   6.246
 5734POPC   C2B71936  31.376  35.851   6.674
 5734POPC   C3B71937  31.223  35.789   7.081
 5734POPC   C4B71938  31.378  35.999   7.447
 5735POPC   NC371939  28.550  15.481   5.475
 5735POPC   PO471940  27.927  15.144   5.353
 5735POPC   GL171941  28.226  15.179   5.751
 5735POPC   GL271942  28.195  15.554   5.844
 5735POPC   C1A71943  28.344  14.957   6.173
 5735POPC   D2A71944  28.507  14.788   6.595
 5735POPC   C3A71945  28.323  14.909   6.997
 5735POPC   C4A71946  28.340  15.166   7.370
 5735POPC   C1B71947  28.471  15.462   6.180
 5735POPC   C2B71948  28.425  15.281   6.592
 5735POPC   C3B71949  28.167  15.415   6.938
 5735POPC   C4B71950  27.955  15.469   7.339
 5736POPC   NC371951  33.571   6.305   5.391
 5736POPC   PO471952  33.678   6.956   5.401
 5736POPC   GL171953  33.799   6.677   5.742
 5736POPC   GL271954  34.074   6.445   5.684
 5736POPC   C1A71955  33.596   6.472   6.092
 5736POPC   D2A71956  33.298   6.385   6.379
 5736POPC   C3A71957  33.396   6.367   6.796
 5736POPC   C4A71958  33.456   6.312   7.230
 5736POPC   C1B71959  34.093   6.457   6.162
 5736POPC   C2B71960  33.881   6.558   6.566
 5736POPC   C3B71961  33.797   6.666   6.986
 5736POPC   C4B71962  34.060   6.637   7.321
 5737POPC   NC371963   1.487  42.122   5.142
 5737POPC   PO471964   1.219  42.662   5.350
 5737POPC   GL171965   1.271  42.538   5.798
 5737POPC   GL271966   1.336  42.812   6.012
 5737POPC   C1A71967   1.301  42.282   6.211
 5737POPC   D2A71968   1.358  42.429   6.633
 5737POPC   C3A71969   1.214  42.247   7.006
 5737POPC   C4A71970   1.479  41.956   7.221
 5737POPC   C1B71971   0.922  42.646   6.158
 5737POPC   C2B71972   0.861  42.534   6.574
 5737POPC   C3B71973   0.818  42.595   7.006
 5737POPC   C4B71974   1.160  42.625   7.338
 5738POPC   NC371975  39.264  43.727   5.388
 5738POPC   PO471976  39.432  44.281   5.653
 5738POPC   GL171977  39.175  43.958   5.848
 5738POPC   GL271978  39.331  43.609   5.876
 5738POPC   C1A71979  39.086  43.852   6.275
 5738POPC   D2A71980  39.340  43.662   6.610
 5738POPC   C3A71981  39.369  43.955   6.909
 5738POPC   C4A71982  39.509  44.110   7.266
 5738POPC   C1B71983  39.239  43.344   6.229
 5738POPC   C2B71984  39.112  43.179   6.619
 5738POPC   C3B71985  39.259  43.321   7.006
 5738POPC   C4B71986  39.181  43.674   7.298
 5739POPC   NC371987  32.588  13.460   5.427
 5739POPC   PO471988  32.042  13.896   5.464
 5739POPC   GL171989  32.042  13.688   5.856
 5739POPC   GL271990  32.254  13.416   5.798
 5739POPC   C1A71991  32.326  13.662   6.252
 5739POPC   D2A71992  32.614  13.604   6.615
 5739POPC   C3A71993  32.416  13.802   6.980
 5739POPC   C4A71994  32.019  13.762   7.165
 5739POPC   C1B71995  32.445  13.177   6.139
 5739POPC   C2B71996  32.372  13.137   6.572
 5739POPC   C3B71997  32.408  13.267   6.990
 5739POPC   C4B71998  32.356  13.022   7.360
 5740POPC   NC371999  29.529   4.465   5.424
 5740POPC   PO472000  30.243   4.222   5.339
 5740POPC   GL172001  29.975   4.309   5.695
 5740POPC   GL272002  29.850   4.645   5.789
 5740POPC   C1A72003  30.138   4.257   6.117
 5740POPC   D2A72004  30.332   4.093   6.499
 5740POPC   C3A72005  30.115   4.325   6.825
 5740POPC   C4A72006  30.125   4.239   7.255
 5740POPC   C1B72007  29.636   4.388   6.113
 5740POPC   C2B72008  29.604   4.325   6.580
 5740POPC   C3B72009  29.695   4.081   6.956
 5740POPC   C4B72010  29.587   4.120   7.388
 5741POPC   NC372011  16.329   5.695   5.377
 5741POPC   PO472012  15.823   6.096   5.530
 5741POPC   GL172013  16.170   6.021   5.778
 5741POPC   GL272014  15.930   6.140   6.023
 5741POPC   C1A72015  16.279   5.857   6.218
 5741POPC   D2A72016  15.983   6.006   6.581
 5741POPC   C3A72017  15.886   5.692   6.907
 5741POPC   C4A72018  16.102   5.612   7.279
 5741POPC   C1B72019  15.582   6.225   6.267
 5741POPC   C2B72020  15.623   6.398   6.653
 5741POPC   C3B72021  15.709   6.169   7.019
 5741POPC   C4B72022  16.116   6.116   7.153
 5742POPC   NC372023  30.947  20.856   5.397
 5742POPC   PO472024  31.578  20.699   5.226
 5742POPC   GL172025  31.581  20.585   5.686
 5742POPC   GL272026  31.295  20.768   5.775
 5742POPC   C1A72027  31.567  20.364   6.111
 5742POPC   D2A72028  31.350  20.379   6.520
 5742POPC   C3A72029  31.685  20.423   6.853
 5742POPC   C4A72030  31.648  20.427   7.319
 5742POPC   C1B72031  31.574  20.882   6.136
 5742POPC   C2B72032  31.525  20.852   6.579
 5742POPC   C3B72033  31.704  20.919   6.984
 5742POPC   C4B72034  31.427  20.941   7.324
 5743POPC   NC372035  37.894  16.896   5.437
 5743POPC   PO472036  37.450  16.446   5.408
 5743POPC   GL172037  37.535  16.720   5.792
 5743POPC   GL272038  37.875  16.744   5.903
 5743POPC   C1A72039  37.565  16.633   6.259
 5743POPC   D2A72040  37.513  16.868   6.584
 5743POPC   C3A72041  37.545  16.680   6.944
 5743POPC   C4A72042  37.366  16.578   7.321
 5743POPC   C1B72043  38.013  16.934   6.278
 5743POPC   C2B72044  38.005  16.783   6.667
 5743POPC   C3B72045  38.005  16.906   7.052
 5743POPC   C4B72046  37.704  16.958   7.328
 5744POPC   NC372047  25.227  29.595   5.604
 5744POPC   PO472048  25.484  29.085   5.286
 5744POPC   GL172049  25.263  29.067   5.698
 5744POPC   GL272050  25.535  29.231   5.824
 5744POPC   C1A72051  25.139  29.215   6.170
 5744POPC   D2A72052  25.183  29.360   6.628
 5744POPC   C3A72053  25.128  29.088   7.010
 5744POPC   C4A72054  25.330  28.712   7.185
 5744POPC   C1B72055  25.717  29.223   6.210
 5744POPC   C2B72056  25.635  29.088   6.582
 5744POPC   C3B72057  25.650  29.086   6.985
 5744POPC   C4B72058  25.511  29.141   7.408
 5745POPC   NC372059  13.876  26.374   5.479
 5745POPC   PO472060  13.826  25.671   5.488
 5745POPC   GL172061  13.680  25.782   5.895
 5745POPC   GL272062  13.732  26.136   5.954
 5745POPC   C1A72063  13.545  25.799   6.313
 5745POPC   D2A72064  13.611  26.012   6.692
 5745POPC   C3A72065  13.689  25.824   7.066
 5745POPC   C4A72066  13.653  25.994   7.509
 5745POPC   C1B72067  13.420  26.287   6.266
 5745POPC   C2B72068  13.381  26.476   6.680
 5745POPC   C3B72069  13.505  26.362   7.092
 5745POPC   C4B72070  13.250  26.317   7.452
 5746POPC   NC372071  16.206   4.914   5.458
 5746POPC   PO472072  15.842   5.504   5.364
 5746POPC   GL172073  15.887   5.231   5.720
 5746POPC   GL272074  15.687   4.917   5.626
 5746POPC   C1A72075  16.219   5.215   6.080
 5746POPC   D2A72076  16.321   5.361   6.523
 5746POPC   C3A72077  16.158   5.185   6.923
 5746POPC   C4A72078  15.759   5.213   7.164
 5746POPC   C1B72079  15.866   4.829   6.044
 5746POPC   C2B72080  16.047   4.897   6.468
 5746POPC   C3B72081  15.793   4.812   6.833
 5746POPC   C4B72082  15.860   4.613   7.224
 5747POPC   NC372083   6.332  17.205   5.543
 5747POPC   PO472084   6.904  17.580   5.514
 5747POPC   GL172085   6.775  17.528   5.934
 5747POPC   GL272086   6.761  17.186   5.880
 5747POPC   C1A72087   6.850  17.646   6.377
 5747POPC   D2A72088   6.624  17.843   6.725
 5747POPC   C3A72089   6.701  17.699   7.137
 5747POPC   C4A72090   6.893  17.351   7.319
 5747POPC   C1B72091   6.677  17.170   6.324
 5747POPC   C2B72092   6.723  17.305   6.771
 5747POPC   C3B72093   6.449  17.205   7.126
 5747POPC   C4B72094   6.432  17.153   7.572
 5748POPC   NC372095  25.015  30.740   5.462
 5748POPC   PO472096  25.680  30.764   5.416
 5748POPC   GL172097  25.479  30.803   5.836
 5748POPC   GL272098  25.281  30.525   5.838
 5748POPC   C1A72099  25.346  30.713   6.297
 5748POPC   D2A72100  25.337  30.517   6.726
 5748POPC   C3A72101  25.208  30.839   7.031
 5748POPC   C4A72102  25.008  31.112   7.319
 5748POPC   C1B72103  24.908  30.496   6.135
 5748POPC   C2B72104  24.824  30.389   6.582
 5748POPC   C3B72105  24.954  30.286   7.016
 5748POPC   C4B72106  25.266  30.417   7.334
 5749POPC   NC372107  26.576  13.055   5.394
 5749POPC   PO472108  26.918  12.573   5.472
 5749POPC   GL172109  26.726  12.780   5.833
 5749POPC   GL272110  26.797  13.125   5.856
 5749POPC   C1A72111  26.767  12.650   6.258
 5749POPC   D2A72112  26.968  12.658   6.653
 5749POPC   C3A72113  26.689  12.608   7.004
 5749POPC   C4A72114  26.804  12.747   7.392
 5749POPC   C1B72115  26.586  13.245   6.205
 5749POPC   C2B72116  26.612  13.035   6.572
 5749POPC   C3B72117  26.788  13.099   6.938
 5749POPC   C4B72118  26.478  13.131   7.222
 5750POPC   NC372119  29.015  20.677   5.106
 5750POPC   PO472120  29.268  21.242   5.438
 5750POPC   GL172121  29.213  21.392   5.816
 5750POPC   GL272122  28.907  21.589   5.806
 5750POPC   C1A72123  29.408  21.402   6.203
 5750POPC   D2A72124  29.254  21.367   6.610
 5750POPC   C3A72125  29.422  21.544   6.972
 5750POPC   C4A72126  29.376  21.252   7.281
 5750POPC   C1B72127  28.865  21.376   6.212
 5750POPC   C2B72128  28.755  21.486   6.644
 5750POPC   C3B72129  28.903  21.442   7.076
 5750POPC   C4B72130  28.713  21.418   7.496
 5751POPC   NC372131  10.793   6.665   5.467
 5751POPC   PO472132  10.115   6.481   5.430
 5751POPC   GL172133  10.375   6.516   5.777
 5751POPC   GL272134  10.559   6.245   5.808
 5751POPC   C1A72135  10.594   6.697   6.158
 5751POPC   D2A72136  10.753   6.855   6.551
 5751POPC   C3A72137  10.580   6.794   6.936
 5751POPC   C4A72138  10.395   6.948   7.306
 5751POPC   C1B72139  10.765   6.198   6.202
 5751POPC   C2B72140  10.549   6.324   6.532
 5751POPC   C3B72141  10.405   6.292   6.926
 5751POPC   C4B72142  10.485   6.452   7.321
 5752POPC   NC372143  21.920  19.527   5.557
 5752POPC   PO472144  22.350  18.966   5.387
 5752POPC   GL172145  22.147  19.115   5.736
 5752POPC   GL272146  22.449  19.239   5.873
 5752POPC   C1A72147  22.024  19.314   6.159
 5752POPC   D2A72148  21.870  19.152   6.530
 5752POPC   C3A72149  22.081  19.086   6.856
 5752POPC   C4A72150  22.109  19.420   7.136
 5752POPC   C1B72151  22.267  18.848   6.136
 5752POPC   C2B72152  22.264  18.664   6.537
 5752POPC   C3B72153  22.429  18.678   6.964
 5752POPC   C4B72154  22.274  18.941   7.300
 5753POPC   NC372155  20.905  10.368   5.546
 5753POPC   PO472156  21.625  10.392   5.437
 5753POPC   GL172157  21.429  10.552   5.798
 5753POPC   GL272158  21.278  10.249   5.883
 5753POPC   C1A72159  21.544  10.679   6.225
 5753POPC   D2A72160  21.567  10.411   6.588
 5753POPC   C3A72161  21.628  10.632   6.968
 5753POPC   C4A72162  21.917  10.749   7.300
 5753POPC   C1B72163  20.981  10.177   6.189
 5753POPC   C2B72164  21.056  10.051   6.582
 5753POPC   C3B72165  21.240  10.208   6.944
 5753POPC   C4B72166  21.365  10.362   7.325
 5754POPC   NC372167  38.861  34.743   5.554
 5754POPC   PO472168  39.585  34.790   5.565
 5754POPC   GL172169  39.534  34.530   5.875
 5754POPC   GL272170  39.222  34.455   5.846
 5754POPC   C1A72171  39.473  34.674   6.271
 5754POPC   D2A72172  39.162  34.724   6.559
 5754POPC   C3A72173  39.352  34.524   6.881
 5754POPC   C4A72174  39.389  34.596   7.326
 5754POPC   C1B72175  39.097  34.309   6.252
 5754POPC   C2B72176  38.895  34.288   6.661
 5754POPC   C3B72177  38.873  34.493   7.044
 5754POPC   C4B72178  39.171  34.169   7.202
 5755POPC   NC372179  43.708  30.364   5.468
 5755POPC   PO472180  44.091  31.019   5.365
 5755POPC   GL172181  43.954  30.819   5.752
 5755POPC   GL272182  43.610  30.817   5.727
 5755POPC   C1A72183  43.973  30.816   6.241
 5755POPC   D2A72184  44.060  30.881   6.714
 5755POPC   C3A72185  43.910  30.547   6.972
 5755POPC   C4A72186  43.527  30.445   7.152
 5755POPC   C1B72187  43.481  30.658   6.130
 5755POPC   C2B72188  43.555  30.713   6.586
 5755POPC   C3B72189  43.529  30.931   6.975
 5755POPC   C4B72190  43.866  31.012   7.199
 5756POPC   NC372191  31.051  35.204   5.617
 5756POPC   PO472192  30.657  35.507   5.185
 5756POPC   GL172193  30.638  35.476   5.734
 5756POPC   GL272194  30.474  35.192   5.847
 5756POPC   C1A72195  30.784  35.323   6.227
 5756POPC   D2A72196  30.948  35.072   6.633
 5756POPC   C3A72197  30.969  35.309   7.050
 5756POPC   C4A72198  30.696  35.613   7.153
 5756POPC   C1B72199  30.461  34.902   6.158
 5756POPC   C2B72200  30.463  35.023   6.547
 5756POPC   C3B72201  30.501  35.138   6.982
 5756POPC   C4B72202  30.241  35.050   7.353
 5757POPC   NC372203  34.012  26.413   5.091
 5757POPC   PO472204  34.427  26.011   5.516
 5757POPC   GL172205  34.484  26.134   5.900
 5757POPC   GL272206  34.555  25.794   5.977
 5757POPC   C1A72207  34.326  26.263   6.296
 5757POPC   D2A72208  34.501  26.246   6.687
 5757POPC   C3A72209  34.239  26.244   7.025
 5757POPC   C4A72210  34.471  26.368   7.362
 5757POPC   C1B72211  34.764  25.983   6.319
 5757POPC   C2B72212  34.792  25.812   6.720
 5757POPC   C3B72213  34.717  25.988   7.096
 5757POPC   C4B72214  35.025  26.251   7.290
 5758POPC   NC372215  37.856  11.086   5.346
 5758POPC   PO472216  37.508  11.541   5.404
 5758POPC   GL172217  37.712  11.351   5.822
 5758POPC   GL272218  37.690  10.962   5.820
 5758POPC   C1A72219  37.823  11.509   6.290
 5758POPC   D2A72220  37.841  11.553   6.777
 5758POPC   C3A72221  37.433  11.474   6.996
 5758POPC   C4A72222  37.333  11.329   7.424
 5758POPC   C1B72223  37.851  10.995   6.255
 5758POPC   C2B72224  37.732  11.078   6.704
 5758POPC   C3B72225  37.759  11.145   7.201
 5758POPC   C4B72226  37.928  10.992   7.659
 5759POPC   NC372227  33.997  13.158   5.366
 5759POPC   PO472228  33.894  12.530   5.244
 5759POPC   GL172229  33.783  12.646   5.682
 5759POPC   GL272230  33.773  13.016   5.811
 5759POPC   C1A72231  33.711  12.582   6.136
 5759POPC   D2A72232  33.583  12.805   6.498
 5759POPC   C3A72233  33.709  12.718   6.932
 5759POPC   C4A72234  33.513  12.856   7.314
 5759POPC   C1B72235  33.948  13.227   6.199
 5759POPC   C2B72236  33.955  13.153   6.659
 5759POPC   C3B72237  33.791  13.226   7.070
 5759POPC   C4B72238  33.921  13.215   7.503
 5760POPC   NC372239  42.395  13.224   5.642
 5760POPC   PO472240  42.095  12.707   5.327
 5760POPC   GL172241  42.229  12.757   5.772
 5760POPC   GL272242  42.577  12.629   5.828
 5760POPC   C1A72243  42.362  12.910   6.220
 5760POPC   D2A72244  42.428  12.796   6.662
 5760POPC   C3A72245  42.026  12.801   6.912
 5760POPC   C4A72246  41.957  12.971   7.323
 5760POPC   C1B72247  42.640  12.488   6.276
 5760POPC   C2B72248  42.867  12.455   6.686
 5760POPC   C3B72249  42.790  12.538   7.126
 5760POPC   C4B72250  42.462  12.868   7.198
 5761POPC   NC372251  19.656  10.203   5.439
 5761POPC   PO472252  19.786  10.852   5.276
 5761POPC   GL172253  19.772  10.652   5.681
 5761POPC   GL272254  19.421  10.641   5.710
 5761POPC   C1A72255  20.003  10.510   6.062
 5761POPC   D2A72256  20.175  10.569   6.476
 5761POPC   C3A72257  20.024  10.549   6.847
 5761POPC   C4A72258  19.851  10.593   7.229
 5761POPC   C1B72259  19.507  10.357   6.067
 5761POPC   C2B72260  19.693  10.368   6.465
 5761POPC   C3B72261  19.523  10.451   6.845
 5761POPC   C4B72262  19.384  10.373   7.217
 5762POPC   NC372263  40.637  10.008   5.331
 5762POPC   PO472264  41.148   9.800   5.656
 5762POPC   GL172265  40.722   9.795   5.801
 5762POPC   GL272266  40.676   9.436   5.848
 5762POPC   C1A72267  40.650  10.056   6.163
 5762POPC   D2A72268  40.898  10.030   6.521
 5762POPC   C3A72269  40.724   9.827   6.872
 5762POPC   C4A72270  40.864   9.500   7.156
 5762POPC   C1B72271  40.536   9.557   6.259
 5762POPC   C2B72272  40.293   9.865   6.506
 5762POPC   C3B72273  40.244  10.002   6.944
 5762POPC   C4B72274  40.472   9.866   7.345
 5763POPC   NC372275  34.709  29.898   5.509
 5763POPC   PO472276  34.187  30.150   5.669
 5763POPC   GL172277  34.441  29.946   5.939
 5763POPC   GL272278  34.336  29.650   5.822
 5763POPC   C1A72279  34.650  29.967   6.326
 5763POPC   D2A72280  34.804  29.954   6.757
 5763POPC   C3A72281  34.585  30.129   7.082
 5763POPC   C4A72282  34.653  30.487   7.397
 5763POPC   C1B72283  34.246  29.616   6.273
 5763POPC   C2B72284  34.289  29.821   6.661
 5763POPC   C3B72285  34.383  29.567   6.969
 5763POPC   C4B72286  34.545  29.677   7.333
 5764POPC   NC372287  42.007  28.342   5.602
 5764POPC   PO472288  41.369  28.257   5.401
 5764POPC   GL172289  41.469  28.282   5.830
 5764POPC   GL272290  41.597  28.624   5.820
 5764POPC   C1A72291  41.544  28.166   6.284
 5764POPC   D2A72292  41.866  28.365   6.565
 5764POPC   C3A72293  41.690  28.485   6.935
 5764POPC   C4A72294  41.501  28.154   7.150
 5764POPC   C1B72295  41.373  28.642   6.213
 5764POPC   C2B72296  41.274  28.547   6.633
 5764POPC   C3B72297  41.251  28.760   7.029
 5764POPC   C4B72298  41.375  28.583   7.428
 5765POPC   NC372299  28.655  12.012   5.490
 5765POPC   PO472300  29.258  12.248   5.336
 5765POPC   GL172301  29.397  12.102   5.735
 5765POPC   GL272302  29.097  11.895   5.796
 5765POPC   C1A72303  29.450  12.084   6.183
 5765POPC   D2A72304  29.435  11.858   6.568
 5765POPC   C3A72305  29.473  12.083   6.938
 5765POPC   C4A72306  29.074  12.192   7.078
 5765POPC   C1B72307  28.803  11.944   6.188
 5765POPC   C2B72308  28.737  11.812   6.657
 5765POPC   C3B72309  28.816  11.758   7.133
 5765POPC   C4B72310  28.728  11.891   7.594
 5766POPC   NC372311  28.166  13.177   5.474
 5766POPC   PO472312  28.518  12.479   5.441
 5766POPC   GL172313  28.404  12.763   5.767
 5766POPC   GL272314  28.617  13.012   5.645
 5766POPC   C1A72315  28.252  12.885   6.212
 5766POPC   D2A72316  28.237  13.142   6.605
 5766POPC   C3A72317  28.213  12.940   7.012
 5766POPC   C4A72318  28.220  13.096   7.421
 5766POPC   C1B72319  28.673  13.186   6.047
 5766POPC   C2B72320  28.809  13.282   6.480
 5766POPC   C3B72321  28.652  13.289   6.895
 5766POPC   C4B72322  28.765  13.174   7.273
 5767POPC   NC372323  31.166   1.307   5.749
 5767POPC   PO472324  31.813   1.257   5.485
 5767POPC   GL172325  31.643   1.255   5.892
 5767POPC   GL272326  31.594   0.943   5.905
 5767POPC   C1A72327  31.344   1.147   6.308
 5767POPC   D2A72328  31.171   0.860   6.621
 5767POPC   C3A72329  31.122   1.132   6.952
 5767POPC   C4A72330  31.474   1.357   7.131
 5767POPC   C1B72331  31.839   1.060   6.307
 5767POPC   C2B72332  31.638   1.090   6.707
 5767POPC   C3B72333  31.538   0.817   7.012
 5767POPC   C4B72334  31.893   0.828   7.263
 5768POPC   NC372335  22.714   9.686   5.178
 5768POPC   PO472336  23.358   9.848   5.254
 5768POPC   GL172337  23.049   9.783   5.632
 5768POPC   GL272338  23.254   9.690   5.913
 5768POPC   C1A72339  22.752   9.753   6.040
 5768POPC   D2A72340  22.877   9.585   6.476
 5768POPC   C3A72341  22.729   9.671   6.920
 5768POPC   C4A72342  22.490   9.495   7.299
 5768POPC   C1B72343  23.128  10.085   6.156
 5768POPC   C2B72344  22.906  10.218   6.534
 5768POPC   C3B72345  23.050  10.116   6.968
 5768POPC   C4B72346  23.129   9.789   7.215
 5769POPC   NC372347   5.321  19.611   5.543
 5769POPC   PO472348   5.050  20.140   5.203
 5769POPC   GL172349   5.087  20.027   5.743
 5769POPC   GL272350   5.377  19.905   5.973
 5769POPC   C1A72351   4.961  19.742   6.174
 5769POPC   D2A72352   5.150  19.786   6.613
 5769POPC   C3A72353   5.086  19.527   7.006
 5769POPC   C4A72354   5.272  19.461   7.452
 5769POPC   C1B72355   5.128  20.223   6.213
 5769POPC   C2B72356   5.162  20.338   6.631
 5769POPC   C3B72357   5.242  20.166   7.021
 5769POPC   C4B72358   5.428  20.184   7.425
 5770POPC   NC372359  11.756   4.525   5.310
 5770POPC   PO472360  11.126   4.238   5.308
 5770POPC   GL172361  11.123   4.356   5.715
 5770POPC   GL272362  11.478   4.339   5.736
 5770POPC   C1A72363  11.147   4.125   6.093
 5770POPC   D2A72364  11.190   3.924   6.482
 5770POPC   C3A72365  11.274   4.197   6.807
 5770POPC   C4A72366  11.233   4.114   7.229
 5770POPC   C1B72367  11.610   4.364   6.170
 5770POPC   C2B72368  11.608   4.566   6.590
 5770POPC   C3B72369  11.549   4.551   7.055
 5770POPC   C4B72370  11.114   4.616   7.231
 5771POPC   NC372371  30.640  13.953   5.470
 5771POPC   PO472372  30.458  13.332   5.582
 5771POPC   GL172373  30.507  13.639   5.905
 5771POPC   GL272374  30.753  13.927   5.958
 5771POPC   C1A72375  30.572  13.495   6.318
 5771POPC   D2A72376  30.703  13.291   6.677
 5771POPC   C3A72377  30.458  13.419   7.001
 5771POPC   C4A72378  30.643  13.251   7.342
 5771POPC   C1B72379  30.559  14.013   6.363
 5771POPC   C2B72380  30.741  13.819   6.743
 5771POPC   C3B72381  30.843  13.688   7.163
 5771POPC   C4B72382  30.467  13.743   7.459
 5772POPC   NC372383  14.655  41.831   5.150
 5772POPC   PO472384  15.189  41.673   5.550
 5772POPC   GL172385  15.107  41.541   5.921
 5772POPC   GL272386  14.812  41.357   5.851
 5772POPC   C1A72387  15.203  41.705   6.327
 5772POPC   D2A72388  15.234  41.958   6.689
 5772POPC   C3A72389  15.247  41.726   7.064
 5772POPC   C4A72390  15.182  41.338   7.231
 5772POPC   C1B72391  14.759  41.453   6.297
 5772POPC   C2B72392  14.981  41.435   6.708
 5772POPC   C3B72393  14.747  41.549   7.051
 5772POPC   C4B72394  14.721  41.416   7.465
 5773POPC   NC372395  14.786   2.023   5.437
 5773POPC   PO472396  14.208   1.734   5.498
 5773POPC   GL172397  14.310   1.963   5.862
 5773POPC   GL272398  14.637   2.162   5.910
 5773POPC   C1A72399  14.472   1.840   6.251
 5773POPC   D2A72400  14.621   2.073   6.565
 5773POPC   C3A72401  14.399   1.902   6.877
 5773POPC   C4A72402  14.297   1.804   7.263
 5773POPC   C1B72403  14.765   2.471   6.256
 5773POPC   C2B72404  14.857   2.511   6.705
 5773POPC   C3B72405  14.638   2.321   7.054
 5773POPC   C4B72406  14.450   2.229   7.482
 5774POPC   NC372407  13.481   0.845   5.454
 5774POPC   PO472408  13.706   0.158   5.443
 5774POPC   GL172409  13.524   0.402   5.773
 5774POPC   GL272410  13.585   0.091   5.936
 5774POPC   C1A72411  13.492   0.567   6.218
 5774POPC   D2A72412  13.766   0.479   6.594
 5774POPC   C3A72413  13.744   0.597   7.031
 5774POPC   C4A72414  13.660   0.687   7.470
 5774POPC   C1B72415  13.339   0.090   6.268
 5774POPC   C2B72416  13.255   0.355   6.603
 5774POPC   C3B72417  13.475   0.160   6.930
 5774POPC   C4B72418  13.697   0.171   7.300
 5775POPC   NC372419  14.379  29.429   5.431
 5775POPC   PO472420  14.014  28.846   5.325
 5775POPC   GL172421  14.193  29.068   5.741
 5775POPC   GL272422  14.179  29.441   5.880
 5775POPC   C1A72423  14.573  29.110   6.043
 5775POPC   D2A72424  14.749  28.985   6.457
 5775POPC   C3A72425  14.470  29.004   6.816
 5775POPC   C4A72426  14.487  29.064   7.233
 5775POPC   C1B72427  14.387  29.554   6.227
 5775POPC   C2B72428  14.566  29.463   6.607
 5775POPC   C3B72429  14.452  29.546   7.024
 5775POPC   C4B72430  14.082  29.728   7.252
 5776POPC   NC372431  28.117  41.425   5.503
 5776POPC   PO472432  28.545  41.854   5.559
 5776POPC   GL172433  28.529  41.495   5.821
 5776POPC   GL272434  28.201  41.634   5.954
 5776POPC   C1A72435  28.494  41.369   6.253
 5776POPC   D2A72436  28.381  41.615   6.606
 5776POPC   C3A72437  28.643  41.508   6.953
 5776POPC   C4A72438  28.489  41.467   7.368
 5776POPC   C1B72439  27.981  41.327   6.239
 5776POPC   C2B72440  28.052  41.228   6.656
 5776POPC   C3B72441  28.089  41.431   7.024
 5776POPC   C4B72442  28.045  41.266   7.454
 5777POPC   NC372443  25.465  31.602   5.328
 5777POPC   PO472444  25.109  31.157   5.671
 5777POPC   GL172445  25.272  31.539   5.827
 5777POPC   GL272446  25.647  31.521   5.849
 5777POPC   C1A72447  25.337  31.683   6.260
 5777POPC   D2A72448  25.148  31.785   6.663
 5777POPC   C3A72449  24.884  31.526   6.928
 5777POPC   C4A72450  25.073  31.621   7.317
 5777POPC   C1B72451  25.513  31.199   6.168
 5777POPC   C2B72452  25.210  31.213   6.493
 5777POPC   C3B72453  25.357  31.340   6.879
 5777POPC   C4B72454  25.495  31.314   7.251
 5778POPC   NC372455  13.420  19.132   5.439
 5778POPC   PO472456  13.832  18.647   5.360
 5778POPC   GL172457  13.828  19.004   5.738
 5778POPC   GL272458  13.535  19.221   5.909
 5778POPC   C1A72459  13.922  19.028   6.187
 5778POPC   D2A72460  13.785  19.138   6.604
 5778POPC   C3A72461  14.015  19.011   6.982
 5778POPC   C4A72462  13.955  19.048   7.437
 5778POPC   C1B72463  13.435  18.865   6.164
 5778POPC   C2B72464  13.384  18.750   6.597
 5778POPC   C3B72465  13.512  18.930   7.012
 5778POPC   C4B72466  13.390  19.115   7.399
 5779POPC   NC372467   5.956  21.965   5.658
 5779POPC   PO472468   5.596  22.528   5.509
 5779POPC   GL172469   5.783  22.407   5.873
 5779POPC   GL272470   6.144  22.395   5.886
 5779POPC   C1A72471   5.748  22.337   6.306
 5779POPC   D2A72472   5.792  21.989   6.562
 5779POPC   C3A72473   5.567  22.003   6.953
 5779POPC   C4A72474   5.744  21.939   7.380
 5779POPC   C1B72475   6.276  22.239   6.290
 5779POPC   C2B72476   6.198  22.392   6.706
 5779POPC   C3B72477   5.962  22.306   7.071
 5779POPC   C4B72478   6.123  22.275   7.496
 5780POPC   NC372479  11.137  37.773   5.377
 5780POPC   PO472480  11.513  37.273   5.472
 5780POPC   GL172481  11.186  37.248   5.774
 5780POPC   GL272482  11.203  37.603   5.856
 5780POPC   C1A72483  11.012  37.295   6.208
 5780POPC   D2A72484  11.101  37.582   6.587
 5780POPC   C3A72485  11.056  37.443   7.022
 5780POPC   C4A72486  11.037  37.807   7.303
 5780POPC   C1B72487  11.462  37.565   6.219
 5780POPC   C2B72488  11.641  37.555   6.608
 5780POPC   C3B72489  11.474  37.719   6.956
 5780POPC   C4B72490  11.463  37.537   7.341
 5781POPC   NC372491   7.063  33.390   5.381
 5781POPC   PO472492   7.424  32.806   5.443
 5781POPC   GL172493   7.200  32.886   5.798
 5781POPC   GL272494   7.402  33.173   5.849
 5781POPC   C1A72495   7.107  33.015   6.226
 5781POPC   D2A72496   7.261  33.064   6.647
 5781POPC   C3A72497   7.047  32.739   6.887
 5781POPC   C4A72498   6.947  32.737   7.333
 5781POPC   C1B72499   7.500  33.377   6.253
 5781POPC   C2B72500   7.762  33.420   6.637
 5781POPC   C3B72501   7.510  33.399   6.999
 5781POPC   C4B72502   7.332  33.047   7.182
 5782POPC   NC372503  30.763  18.190   5.390
 5782POPC   PO472504  31.280  17.955   5.707
 5782POPC   GL172505  30.931  18.304   5.862
 5782POPC   GL272506  30.530  18.330   5.800
 5782POPC   C1A72507  30.893  18.363   6.300
 5782POPC   D2A72508  30.864  17.932   6.480
 5782POPC   C3A72509  30.914  17.991   6.909
 5782POPC   C4A72510  30.970  18.145   7.317
 5782POPC   C1B72511  30.432  18.190   6.200
 5782POPC   C2B72512  30.506  18.263   6.650
 5782POPC   C3B72513  30.455  18.134   7.085
 5782POPC   C4B72514  30.477  18.232   7.524
 5783POPC   NC372515  27.278   6.542   5.504
 5783POPC   PO472516  27.912   6.720   5.426
 5783POPC   GL172517  27.851   6.809   5.870
 5783POPC   GL272518  27.573   6.567   5.916
 5783POPC   C1A72519  27.714   6.807   6.328
 5783POPC   D2A72520  27.496   6.682   6.708
 5783POPC   C3A72521  27.806   6.681   7.037
 5783POPC   C4A72522  27.739   6.542   7.433
 5783POPC   C1B72523  27.583   6.228   6.180
 5783POPC   C2B72524  27.466   6.112   6.578
 5783POPC   C3B72525  27.525   6.248   7.020
 5783POPC   C4B72526  27.371   6.173   7.452
 5784POPC   NC372527   2.553  26.736   5.448
 5784POPC   PO472528   3.200  27.094   5.363
 5784POPC   GL172529   3.049  26.989   5.786
 5784POPC   GL272530   3.061  26.639   5.785
 5784POPC   C1A72531   2.704  26.831   6.092
 5784POPC   D2A72532   2.543  26.802   6.515
 5784POPC   C3A72533   2.717  27.051   6.842
 5784POPC   C4A72534   2.645  26.987   7.278
 5784POPC   C1B72535   3.179  26.710   6.238
 5784POPC   C2B72536   2.992  26.605   6.624
 5784POPC   C3B72537   3.004  26.672   7.066
 5784POPC   C4B72538   3.064  26.709   7.496
 5785POPC   NC372539  39.097   3.290   5.332
 5785POPC   PO472540  39.489   3.627   5.700
 5785POPC   GL172541  39.162   3.431   5.899
 5785POPC   GL272542  38.845   3.307   5.788
 5785POPC   C1A72543  39.220   3.545   6.314
 5785POPC   D2A72544  39.117   3.723   6.627
 5785POPC   C3A72545  39.324   3.516   6.899
 5785POPC   C4A72546  39.340   3.574   7.300
 5785POPC   C1B72547  38.857   3.194   6.248
 5785POPC   C2B72548  38.882   3.260   6.694
 5785POPC   C3B72549  39.058   3.145   7.133
 5785POPC   C4B72550  39.084   3.258   7.573
 5786POPC   NC372551  37.964  27.616   5.348
 5786POPC   PO472552  37.276  27.847   5.509
 5786POPC   GL172553  37.531  27.549   5.750
 5786POPC   GL272554  37.886  27.439   5.814
 5786POPC   C1A72555  37.628  27.757   6.138
 5786POPC   D2A72556  37.732  27.722   6.552
 5786POPC   C3A72557  37.482  27.488   6.813
 5786POPC   C4A72558  37.296  27.505   7.198
 5786POPC   C1B72559  37.830  27.285   6.251
 5786POPC   C2B72560  37.958  27.269   6.713
 5786POPC   C3B72561  37.936  27.510   7.112
 5786POPC   C4B72562  37.982  27.434   7.577
 5787POPC   NC372563  21.038  24.830   5.599
 5787POPC   PO472564  20.598  24.327   5.356
 5787POPC   GL172565  20.488  24.252   5.794
 5787POPC   GL272566  20.521  24.590   5.932
 5787POPC   C1A72567  20.607  24.187   6.236
 5787POPC   D2A72568  20.437  24.532   6.463
 5787POPC   C3A72569  20.340  24.512   6.886
 5787POPC   C4A72570  20.546  24.192   7.070
 5787POPC   C1B72571  20.616  24.937   6.213
 5787POPC   C2B72572  20.556  24.999   6.649
 5787POPC   C3B72573  20.692  25.059   7.044
 5787POPC   C4B72574  20.696  24.744   7.277
 5788POPC   NC372575   9.237  16.442   5.537
 5788POPC   PO472576   8.891  17.141   5.458
 5788POPC   GL172577   8.987  16.925   5.812
 5788POPC   GL272578   9.047  16.588   5.975
 5788POPC   C1A72579   8.982  17.008   6.250
 5788POPC   D2A72580   9.138  16.653   6.496
 5788POPC   C3A72581   8.923  16.722   6.857
 5788POPC   C4A72582   8.939  16.938   7.219
 5788POPC   C1B72583   9.432  16.871   6.088
 5788POPC   C2B72584   9.438  17.081   6.499
 5788POPC   C3B72585   9.384  16.929   6.940
 5788POPC   C4B72586   9.397  17.032   7.410
 5789POPC   NC372587   1.257  41.469   5.514
 5789POPC   PO472588   1.247  42.110   5.532
 5789POPC   GL172589   1.350  41.803   5.880
 5789POPC   GL272590   1.404  41.380   5.974
 5789POPC   C1A72591   1.186  41.733   6.279
 5789POPC   D2A72592   1.279  41.880   6.670
 5789POPC   C3A72593   1.076  41.741   7.036
 5789POPC   C4A72594   1.141  41.648   7.503
 5789POPC   C1B72595   1.112  41.211   6.271
 5789POPC   C2B72596   0.991  41.266   6.690
 5789POPC   C3B72597   1.237  41.260   7.026
 5789POPC   C4B72598   1.113  41.139   7.409
 5790POPC   NC372599   3.903  20.275   5.457
 5790POPC   PO472600   3.408  19.873   5.262
 5790POPC   GL172601   3.434  19.939   5.712
 5790POPC   GL272602   3.226  20.252   5.721
 5790POPC   C1A72603   3.558  19.712   6.132
 5790POPC   D2A72604   3.398  19.498   6.522
 5790POPC   C3A72605   3.517  19.697   6.903
 5790POPC   C4A72606   3.841  19.668   7.192
 5790POPC   C1B72607   3.236  20.130   6.157
 5790POPC   C2B72608   3.481  20.060   6.542
 5790POPC   C3B72609   3.784  20.133   6.922
 5790POPC   C4B72610   3.505  20.110   7.272
 5791POPC   NC372611  44.876  36.908   5.465
 5791POPC   PO472612  44.345  36.414   5.561
 5791POPC   GL172613  44.629  36.670   5.848
 5791POPC   GL272614  44.994  36.547   5.793
 5791POPC   C1A72615  44.597  36.941   6.227
 5791POPC   D2A72616  44.745  37.164   6.585
 5791POPC   C3A72617  44.943  37.028   6.929
 5791POPC   C4A72618  44.620  37.134   7.216
 5791POPC   C1B72619   0.065  36.776   6.172
 5791POPC   C2B72620  44.880  36.629   6.556
 5791POPC   C3B72621  44.609  36.633   6.890
 5791POPC   C4B72622  44.808  36.654   7.277
 5792POPC   NC372623  34.317  36.074   5.461
 5792POPC   PO472624  34.930  36.365   5.512
 5792POPC   GL172625  34.657  36.357   5.785
 5792POPC   GL272626  34.663  36.016   5.859
 5792POPC   C1A72627  34.604  36.383   6.211
 5792POPC   D2A72628  34.736  36.417   6.615
 5792POPC   C3A72629  34.474  36.201   6.882
 5792POPC   C4A72630  34.488  36.345   7.290
 5792POPC   C1B72631  34.530  35.859   6.256
 5792POPC   C2B72632  34.820  35.845   6.583
 5792POPC   C3B72633  34.968  36.069   6.924
 5792POPC   C4B72634  34.739  35.861   7.193
 5793POPC   NC372635  16.233  12.465   5.440
 5793POPC   PO472636  15.886  11.906   5.315
 5793POPC   GL172637  15.937  11.979   5.772
 5793POPC   GL272638  16.006  12.325   5.861
 5793POPC   C1A72639  16.221  11.970   6.162
 5793POPC   D2A72640  16.296  12.160   6.576
 5793POPC   C3A72641  16.122  12.031   6.990
 5793POPC   C4A72642  16.242  12.255   7.363
 5793POPC   C1B72643  15.811  12.306   6.257
 5793POPC   C2B72644  15.763  12.324   6.705
 5793POPC   C3B72645  15.765  12.404   7.134
 5793POPC   C4B72646  15.773  12.254   7.563
 5794POPC   NC372647  18.336  21.638   5.565
 5794POPC   PO472648  18.233  21.050   5.433
 5794POPC   GL172649  18.169  21.232   5.858
 5794POPC   GL272650  18.515  21.364   5.969
 5794POPC   C1A72651  18.177  21.289   6.332
 5794POPC   D2A72652  18.004  21.243   6.734
 5794POPC   C3A72653  18.257  21.162   7.088
 5794POPC   C4A72654  18.044  21.427   7.344
 5794POPC   C1B72655  18.600  21.723   6.244
 5794POPC   C2B72656  18.275  21.746   6.559
 5794POPC   C3B72657  18.297  21.651   6.949
 5794POPC   C4B72658  18.562  21.778   7.237
 5795POPC   NC372659  10.953  17.323   5.336
 5795POPC   PO472660  11.712  17.468   5.433
 5795POPC   GL172661  11.405  17.449   5.760
 5795POPC   GL272662  11.092  17.692   5.743
 5795POPC   C1A72663  11.537  17.345   6.178
 5795POPC   D2A72664  11.564  17.535   6.577
 5795POPC   C3A72665  11.641  17.828   6.880
 5795POPC   C4A72666  11.576  17.640   7.262
 5795POPC   C1B72667  11.001  17.398   6.090
 5795POPC   C2B72668  11.128  17.261   6.509
 5795POPC   C3B72669  11.335  17.182   6.893
 5795POPC   C4B72670  11.107  17.477   7.116
 5796POPC   NC372671  40.894   8.653   5.338
 5796POPC   PO472672  40.822   8.058   5.268
 5796POPC   GL172673  40.810   8.121   5.717
 5796POPC   GL272674  40.684   8.442   5.779
 5796POPC   C1A72675  40.789   8.068   6.189
 5796POPC   D2A72676  40.923   7.897   6.594
 5796POPC   C3A72677  40.710   7.956   6.980
 5796POPC   C4A72678  40.959   7.884   7.286
 5796POPC   C1B72679  40.867   8.605   6.152
 5796POPC   C2B72680  40.938   8.439   6.546
 5796POPC   C3B72681  40.945   8.392   6.964
 5796POPC   C4B72682  40.749   8.363   7.376
 5797POPC   NC372683  22.845  39.113   5.396
 5797POPC   PO472684  23.247  39.619   5.439
 5797POPC   GL172685  23.120  39.330   5.759
 5797POPC   GL272686  22.757  39.445   5.783
 5797POPC   C1A72687  23.029  39.285   6.181
 5797POPC   D2A72688  23.052  39.654   6.412
 5797POPC   C3A72689  23.069  39.563   6.819
 5797POPC   C4A72690  23.114  39.311   7.165
 5797POPC   C1B72691  22.525  39.552   6.157
 5797POPC   C2B72692  22.628  39.429   6.571
 5797POPC   C3B72693  22.575  39.544   6.982
 5797POPC   C4B72694  22.625  39.346   7.368
 5798POPC   NC372695  35.524  30.419   5.471
 5798POPC   PO472696  35.155  31.044   5.453
 5798POPC   GL172697  35.222  30.725   5.781
 5798POPC   GL272698  35.131  30.380   5.823
 5798POPC   C1A72699  35.394  30.652   6.178
 5798POPC   D2A72700  35.260  30.869   6.530
 5798POPC   C3A72701  35.521  30.854   6.888
 5798POPC   C4A72702  35.422  30.665   7.248
 5798POPC   C1B72703  35.073  30.237   6.245
 5798POPC   C2B72704  35.027  30.413   6.647
 5798POPC   C3B72705  35.068  30.313   7.085
 5798POPC   C4B72706  35.317  30.208   7.440
 5799POPC   NC372707  36.429  30.000   5.384
 5799POPC   PO472708  35.757  30.045   5.595
 5799POPC   GL172709  35.953  29.899   5.910
 5799POPC   GL272710  36.292  29.974   5.867
 5799POPC   C1A72711  36.038  29.925   6.317
 5799POPC   D2A72712  36.298  29.873   6.669
 5799POPC   C3A72713  36.045  29.916   7.048
 5799POPC   C4A72714  36.013  29.537   7.306
 5799POPC   C1B72715  36.500  30.122   6.221
 5799POPC   C2B72716  36.685  30.254   6.600
 5799POPC   C3B72717  36.411  30.273   6.959
 5799POPC   C4B72718  36.378  30.171   7.412
 5800POPC   NC372719   0.925  15.178   5.327
 5800POPC   PO472720   1.379  14.787   5.379
 5800POPC   GL172721   1.248  15.081   5.799
 5800POPC   GL272722   1.538  15.295   5.949
 5800POPC   C1A72723   1.141  15.354   6.237
 5800POPC   D2A72724   1.140  15.146   6.609
 5800POPC   C3A72725   1.175  15.421   6.881
 5800POPC   C4A72726   0.994  15.323   7.236
 5800POPC   C1B72727   1.424  14.941   6.239
 5800POPC   C2B72728   1.505  14.768   6.644
 5800POPC   C3B72729   1.475  15.025   7.026
 5800POPC   C4B72730   1.499  15.353   7.321
 5801POPC   NC372731  35.507   9.898   5.449
 5801POPC   PO472732  34.950   9.829   5.735
 5801POPC   GL172733  35.353   9.871   5.939
 5801POPC   GL272734  35.569  10.145   5.904
 5801POPC   C1A72735  35.503   9.895   6.359
 5801POPC   D2A72736  35.319   9.573   6.601
 5801POPC   C3A72737  35.194   9.695   6.979
 5801POPC   C4A72738  35.411   9.931   7.277
 5801POPC   C1B72739  35.184  10.269   6.211
 5801POPC   C2B72740  34.990  10.144   6.598
 5801POPC   C3B72741  34.882  10.104   7.022
 5801POPC   C4B72742  35.001  10.153   7.451
 5802POPC   NC372743   4.442  39.754   4.993
 5802POPC   PO472744   4.286  40.239   5.381
 5802POPC   GL172745   4.126  40.077   5.752
 5802POPC   GL272746   4.048  40.378   5.874
 5802POPC   C1A72747   4.369  39.924   6.103
 5802POPC   D2A72748   4.704  39.989   6.424
 5802POPC   C3A72749   4.619  39.979   6.874
 5802POPC   C4A72750   4.369  39.796   7.216
 5802POPC   C1B72751   4.431  40.415   6.189
 5802POPC   C2B72752   4.428  40.414   6.646
 5802POPC   C3B72753   4.160  40.198   6.965
 5802POPC   C4B72754   4.124  40.330   7.390
 5803POPC   NC372755  33.736  23.086   5.435
 5803POPC   PO472756  33.912  22.397   5.408
 5803POPC   GL172757  33.931  22.612   5.798
 5803POPC   GL272758  33.709  22.888   5.893
 5803POPC   C1A72759  33.921  22.619   6.257
 5803POPC   D2A72760  33.803  22.924   6.598
 5803POPC   C3A72761  33.833  22.742   7.000
 5803POPC   C4A72762  34.063  22.516   7.286
 5803POPC   C1B72763  34.004  23.152   6.177
 5803POPC   C2B72764  34.230  23.240   6.613
 5803POPC   C3B72765  34.011  23.229   7.031
 5803POPC   C4B72766  33.542  23.210   7.139
 5804POPC   NC372767   3.128   9.023   5.504
 5804POPC   PO472768   2.520   8.787   5.525
 5804POPC   GL172769   2.675   9.020   5.868
 5804POPC   GL272770   2.982   8.844   5.992
 5804POPC   C1A72771   2.565   8.920   6.297
 5804POPC   D2A72772   2.777   8.749   6.650
 5804POPC   C3A72773   2.618   8.926   6.981
 5804POPC   C4A72774   2.626   8.898   7.392
 5804POPC   C1B72775   3.036   9.100   6.381
 5804POPC   C2B72776   2.967   9.249   6.799
 5804POPC   C3B72777   3.056   9.142   7.222
 5804POPC   C4B72778   2.968   9.118   7.684
 5805POPC   NC372779  17.864  20.766   5.425
 5805POPC   PO472780  18.406  20.406   5.488
 5805POPC   GL172781  18.225  20.670   5.795
 5805POPC   GL272782  17.911  20.474   5.848
 5805POPC   C1A72783  18.426  20.882   6.143
 5805POPC   D2A72784  18.375  20.891   6.591
 5805POPC   C3A72785  18.663  20.898   6.951
 5805POPC   C4A72786  18.503  20.823   7.407
 5805POPC   C1B72787  18.144  20.470   6.247
 5805POPC   C2B72788  18.240  20.370   6.663
 5805POPC   C3B72789  18.214  20.631   6.996
 5805POPC   C4B72790  18.021  20.595   7.342
 5806POPC   NC372791  11.937   0.377   5.468
 5806POPC   PO472792  12.638   0.112   5.315
 5806POPC   GL172793  12.518   0.338   5.752
 5806POPC   GL272794  12.241   0.586   5.865
 5806POPC   C1A72795  12.356   0.253   6.204
 5806POPC   D2A72796  12.177   0.456   6.568
 5806POPC   C3A72797  12.294   0.346   7.006
 5806POPC   C4A72798  11.965   0.197   7.298
 5806POPC   C1B72799  12.028   0.827   6.216
 5806POPC   C2B72800  11.780   0.799   6.620
 5806POPC   C3B72801  11.852   0.625   7.035
 5806POPC   C4B72802  11.871   0.655   7.498
 5807POPC   NC372803  20.307  32.647   5.431
 5807POPC   PO472804  20.723  33.189   5.364
 5807POPC   GL172805  20.608  33.115   5.789
 5807POPC   GL272806  20.268  33.306   5.781
 5807POPC   C1A72807  20.747  32.964   6.217
 5807POPC   D2A72808  20.555  32.709   6.590
 5807POPC   C3A72809  20.652  32.860   7.034
 5807POPC   C4A72810  20.475  32.952   7.452
 5807POPC   C1B72811  20.370  33.328   6.225
 5807POPC   C2B72812  20.553  33.228   6.637
 5807POPC   C3B72813  20.485  33.430   7.039
 5807POPC   C4B72814  20.559  33.458   7.516
 5808POPC   NC372815   0.419   4.571   5.362
 5808POPC   PO472816   0.968   4.695   5.631
 5808POPC   GL172817   0.579   4.621   5.852
 5808POPC   GL272818   0.413   4.295   5.831
 5808POPC   C1A72819   0.582   4.500   6.281
 5808POPC   D2A72820   0.660   4.071   6.448
 5808POPC   C3A72821   0.832   4.144   6.827
 5808POPC   C4A72822   0.740   4.373   7.201
 5808POPC   C1B72823   0.210   4.176   6.232
 5808POPC   C2B72824   0.181   4.194   6.695
 5808POPC   C3B72825   0.377   4.036   7.091
 5808POPC   C4B72826   0.798   3.859   7.220
 5809POPC   NC372827  38.762  40.542   5.194
 5809POPC   PO472828  39.326  40.583   5.508
 5809POPC   GL172829  39.109  40.784   5.837
 5809POPC   GL272830  39.432  40.898   5.992
 5809POPC   C1A72831  38.958  40.881   6.237
 5809POPC   D2A72832  39.083  40.729   6.633
 5809POPC   C3A72833  39.034  40.882   7.037
 5809POPC   C4A72834  39.102  40.614   7.344
 5809POPC   C1B72835  39.394  41.175   6.365
 5809POPC   C2B72836  39.414  41.191   6.825
 5809POPC   C3B72837  39.388  41.283   7.263
 5809POPC   C4B72838  39.263  41.024   7.608
 5810POPC   NC372839   1.839  25.844   5.455
 5810POPC   PO472840   1.721  26.453   5.162
 5810POPC   GL172841   1.752  26.318   5.646
 5810POPC   GL272842   2.128  26.197   5.721
 5810POPC   C1A72843   1.758  26.097   6.079
 5810POPC   D2A72844   1.814  25.860   6.482
 5810POPC   C3A72845   1.870  26.075   6.888
 5810POPC   C4A72846   1.805  26.002   7.328
 5810POPC   C1B72847   2.249  25.914   6.071
 5810POPC   C2B72848   2.348  25.849   6.503
 5810POPC   C3B72849   2.354  25.824   6.945
 5810POPC   C4B72850   2.294  26.165   7.205
 5811POPC   NC372851  28.519   1.503   5.367
 5811POPC   PO472852  28.612   0.864   5.591
 5811POPC   GL172853  28.348   1.183   5.782
 5811POPC   GL272854  28.370   1.509   5.851
 5811POPC   C1A72855  28.206   1.213   6.229
 5811POPC   D2A72856  28.249   0.897   6.560
 5811POPC   C3A72857  28.382   0.988   6.989
 5811POPC   C4A72858  28.365   1.274   7.354
 5811POPC   C1B72859  28.563   1.580   6.257
 5811POPC   C2B72860  28.540   1.331   6.636
 5811POPC   C3B72861  28.776   1.336   7.029
 5811POPC   C4B72862  28.835   1.499   7.463
 5812POPC   NC372863  13.884  41.471   5.247
 5812POPC   PO472864  13.477  41.987   5.508
 5812POPC   GL172865  13.824  41.808   5.735
 5812POPC   GL272866  13.816  41.448   5.849
 5812POPC   C1A72867  13.871  41.821   6.195
 5812POPC   D2A72868  13.907  41.909   6.636
 5812POPC   C3A72869  13.550  41.954   6.885
 5812POPC   C4A72870  13.449  41.817   7.294
 5812POPC   C1B72871  13.518  41.439   6.248
 5812POPC   C2B72872  13.526  41.513   6.656
 5812POPC   C3B72873  13.762  41.424   7.012
 5812POPC   C4B72874  13.593  41.180   7.339
 5813POPC   NC372875  20.475  18.762   5.412
 5813POPC   PO472876  20.676  19.383   5.621
 5813POPC   GL172877  20.759  19.213   5.964
 5813POPC   GL272878  20.745  18.888   5.846
 5813POPC   C1A72879  20.666  19.313   6.359
 5813POPC   D2A72880  20.829  19.048   6.636
 5813POPC   C3A72881  20.602  19.048   7.002
 5813POPC   C4A72882  20.443  19.311   7.315
 5813POPC   C1B72883  20.573  18.796   6.256
 5813POPC   C2B72884  20.600  18.556   6.659
 5813POPC   C3B72885  20.612  18.542   7.122
 5813POPC   C4B72886  20.752  18.817   7.451
 5814POPC   NC372887  30.305  12.258   5.309
 5814POPC   PO472888  30.791  11.873   5.469
 5814POPC   GL172889  30.741  12.192   5.787
 5814POPC   GL272890  30.390  12.132   5.828
 5814POPC   C1A72891  30.749  12.213   6.252
 5814POPC   D2A72892  30.673  11.952   6.619
 5814POPC   C3A72893  30.749  12.159   7.002
 5814POPC   C4A72894  30.673  11.873   7.287
 5814POPC   C1B72895  30.277  12.056   6.266
 5814POPC   C2B72896  30.355  12.345   6.655
 5814POPC   C3B72897  30.373  12.468   7.125
 5814POPC   C4B72898  30.323  12.501   7.586
 5815POPC   NC372899  34.583   7.895   5.396
 5815POPC   PO472900  34.571   7.213   5.330
 5815POPC   GL172901  34.567   7.399   5.750
 5815POPC   GL272902  34.262   7.586   5.703
 5815POPC   C1A72903  34.645   7.247   6.207
 5815POPC   D2A72904  34.735   7.111   6.643
 5815POPC   C3A72905  34.507   7.261   7.009
 5815POPC   C4A72906  34.110   7.101   7.134
 5815POPC   C1B72907  34.307   7.640   6.172
 5815POPC   C2B72908  34.523   7.603   6.589
 5815POPC   C3B72909  34.480   7.810   6.994
 5815POPC   C4B72910  34.518   7.806   7.458
 5816POPC   NC372911  40.667  19.919   5.465
 5816POPC   PO472912  41.215  19.427   5.459
 5816POPC   GL172913  40.939  19.629   5.814
 5816POPC   GL272914  40.521  19.575   5.851
 5816POPC   C1A72915  40.800  19.700   6.248
 5816POPC   D2A72916  40.513  19.813   6.539
 5816POPC   C3A72917  40.707  19.830   6.915
 5816POPC   C4A72918  40.954  19.882   7.270
 5816POPC   C1B72919  40.203  19.570   6.208
 5816POPC   C2B72920  40.202  19.390   6.639
 5816POPC   C3B72921  40.283  19.574   7.056
 5816POPC   C4B72922  40.452  19.927   7.353
 5817POPC   NC372923  12.699   7.386   5.230
 5817POPC   PO472924  13.112   6.945   5.438
 5817POPC   GL172925  12.968   7.250   5.714
 5817POPC   GL272926  12.978   7.611   5.640
 5817POPC   C1A72927  12.883   7.403   6.127
 5817POPC   D2A72928  12.699   7.177   6.464
 5817POPC   C3A72929  12.714   7.208   6.888
 5817POPC   C4A72930  12.592   7.554   7.080
 5817POPC   C1B72931  13.339   7.573   5.966
 5817POPC   C2B72932  13.342   7.397   6.400
 5817POPC   C3B72933  13.130   7.551   6.790
 5817POPC   C4B72934  13.087   7.390   7.201
 5818POPC   NC372935  14.448  16.427   5.399
 5818POPC   PO472936  14.117  17.049   5.326
 5818POPC   GL172937  14.138  17.085   5.742
 5818POPC   GL272938  14.422  16.871   5.800
 5818POPC   C1A72939  14.109  17.072   6.181
 5818POPC   D2A72940  13.965  16.736   6.431
 5818POPC   C3A72941  14.136  16.724   6.848
 5818POPC   C4A72942  14.045  16.978   7.218
 5818POPC   C1B72943  14.464  16.693   6.242
 5818POPC   C2B72944  14.677  16.695   6.661
 5818POPC   C3B72945  14.561  16.575   7.075
 5818POPC   C4B72946  14.207  16.476   7.322
 5819POPC   NC372947   2.718  43.954   5.357
 5819POPC   PO472948   3.206  44.198   5.744
 5819POPC   GL172949   2.804  44.040   5.845
 5819POPC   GL272950   2.883  43.716   5.788
 5819POPC   C1A72951   2.568  43.906   6.192
 5819POPC   D2A72952   2.435  44.064   6.584
 5819POPC   C3A72953   2.601  43.871   6.927
 5819POPC   C4A72954   2.641  44.148   7.277
 5819POPC   C1B72955   3.037  43.750   6.221
 5819POPC   C2B72956   2.968  44.035   6.573
 5819POPC   C3B72957   3.098  43.945   6.992
 5819POPC   C4B72958   3.327  44.177   7.242
 5820POPC   NC372959  18.603  15.809   5.358
 5820POPC   PO472960  19.102  16.192   5.430
 5820POPC   GL172961  18.914  15.955   5.829
 5820POPC   GL272962  18.792  15.582   5.770
 5820POPC   C1A72963  19.061  16.013   6.306
 5820POPC   D2A72964  19.418  15.982   6.641
 5820POPC   C3A72965  19.305  16.164   7.050
 5820POPC   C4A72966  18.926  16.178   7.262
 5820POPC   C1B72967  18.888  15.544   6.186
 5820POPC   C2B72968  19.124  15.535   6.557
 5820POPC   C3B72969  19.019  15.740   6.926
 5820POPC   C4B72970  18.796  15.488   7.216
 5821POPC   NC372971   8.149  41.931   5.434
 5821POPC   PO472972   8.078  42.634   5.499
 5821POPC   GL172973   8.166  42.339   5.805
 5821POPC   GL272974   7.888  42.074   5.827
 5821POPC   C1A72975   8.334  42.470   6.201
 5821POPC   D2A72976   8.484  42.612   6.597
 5821POPC   C3A72977   8.302  42.415   6.978
 5821POPC   C4A72978   8.409  42.453   7.397
 5821POPC   C1B72979   8.137  41.989   6.186
 5821POPC   C2B72980   8.096  42.134   6.595
 5821POPC   C3B72981   8.071  41.939   7.000
 5821POPC   C4B72982   8.247  41.952   7.369
 5822POPC   NC372983  41.150  13.283   5.789
 5822POPC   PO472984  40.909  13.734   5.363
 5822POPC   GL172985  40.875  13.792   5.802
 5822POPC   GL272986  40.544  13.651   5.907
 5822POPC   C1A72987  40.896  13.754   6.257
 5822POPC   D2A72988  40.596  13.660   6.547
 5822POPC   C3A72989  40.768  13.518   6.913
 5822POPC   C4A72990  40.688  13.640   7.305
 5822POPC   C1B72991  40.525  13.275   6.225
 5822POPC   C2B72992  40.591  13.074   6.677
 5822POPC   C3B72993  40.403  13.203   7.118
 5822POPC   C4B72994  40.242  13.186   7.598
 5823POPC   NC372995  41.485  40.176   5.523
 5823POPC   PO472996  42.010  39.667   5.473
 5823POPC   GL172997  41.814  39.928   5.851
 5823POPC   GL272998  41.833  40.285   5.898
 5823POPC   C1A72999  41.587  39.982   6.262
 5823POPC   D2A73000  41.261  39.880   6.583
 5823POPC   C3A73001  41.430  39.871   7.005
 5823POPC   C4A73002  41.337  39.809   7.447
 5823POPC   C1B73003  41.481  40.454   6.133
 5823POPC   C2B73004  41.714  40.459   6.524
 5823POPC   C3B73005  41.727  40.318   6.971
 5823POPC   C4B73006  41.399  40.297   7.281
 5824POPC   NC373007  26.217  37.103   5.373
 5824POPC   PO473008  25.725  36.625   5.498
 5824POPC   GL173009  25.805  36.842   5.857
 5824POPC   GL273010  26.172  36.889   5.838
 5824POPC   C1A73011  25.774  36.670   6.281
 5824POPC   D2A73012  25.874  36.490   6.692
 5824POPC   C3A73013  25.894  36.832   6.988
 5824POPC   C4A73014  25.962  37.136   7.278
 5824POPC   C1B73015  26.471  37.085   6.135
 5824POPC   C2B73016  26.477  37.279   6.524
 5824POPC   C3B73017  26.286  37.209   6.889
 5824POPC   C4B73018  26.489  37.209   7.248
 5825POPC   NC373019  13.594  11.068   5.407
 5825POPC   PO473020  14.123  11.460   5.505
 5825POPC   GL173021  13.791  11.298   5.812
 5825POPC   GL273022  13.422  11.138   5.861
 5825POPC   C1A73023  13.714  11.413   6.205
 5825POPC   D2A73024  14.003  11.396   6.502
 5825POPC   C3A73025  13.860  11.500   6.888
 5825POPC   C4A73026  13.857  11.184   7.164
 5825POPC   C1B73027  13.376  11.026   6.269
 5825POPC   C2B73028  13.515  11.170   6.636
 5825POPC   C3B73029  13.401  11.320   7.025
 5825POPC   C4B73030  13.375  11.095   7.431
 5826POPC   NC373031  29.002  30.055   5.172
 5826POPC   PO473032  29.546  30.006   5.569
 5826POPC   GL173033  29.282  30.003   5.912
 5826POPC   GL273034  28.977  29.908   5.736
 5826POPC   C1A73035  29.305  30.190   6.319
 5826POPC   D2A73036  28.982  30.290   6.582
 5826POPC   C3A73037  29.100  30.035   6.887
 5826POPC   C4A73038  29.320  30.165   7.184
 5826POPC   C1B73039  28.941  29.592   6.097
 5826POPC   C2B73040  29.068  29.575   6.548
 5826POPC   C3B73041  28.921  29.551   6.961
 5826POPC   C4B73042  29.055  29.715   7.323
 5827POPC   NC373043   5.263  39.402   5.066
 5827POPC   PO473044   5.085  38.900   5.466
 5827POPC   GL173045   5.289  39.141   5.772
 5827POPC   GL273046   5.090  39.419   5.862
 5827POPC   C1A73047   5.187  39.079   6.232
 5827POPC   D2A73048   4.990  39.137   6.652
 5827POPC   C3A73049   5.251  39.298   6.991
 5827POPC   C4A73050   5.420  39.152   7.391
 5827POPC   C1B73051   4.827  39.486   6.220
 5827POPC   C2B73052   4.641  39.511   6.624
 5827POPC   C3B73053   4.785  39.512   7.033
 5827POPC   C4B73054   4.914  39.226   7.358
 5828POPC   NC373055  39.780  35.122   5.282
 5828POPC   PO473056  40.073  34.508   5.303
 5828POPC   GL173057  40.023  34.393   5.758
 5828POPC   GL273058  40.003  34.736   5.850
 5828POPC   C1A73059  39.904  34.392   6.224
 5828POPC   D2A73060  39.860  34.567   6.671
 5828POPC   C3A73061  39.775  34.284   7.052
 5828POPC   C4A73062  39.786  34.351   7.516
 5828POPC   C1B73063  40.230  34.809   6.204
 5828POPC   C2B73064  40.361  34.503   6.469
 5828POPC   C3B73065  40.319  34.430   6.890
 5828POPC   C4B73066  40.055  34.680   7.187
 5829POPC   NC373067  33.545  34.420   5.294
 5829POPC   PO473068  33.943  34.877   5.406
 5829POPC   GL173069  33.748  34.745   5.791
 5829POPC   GL273070  33.634  34.387   5.794
 5829POPC   C1A73071  33.927  34.860   6.207
 5829POPC   D2A73072  34.062  34.628   6.587
 5829POPC   C3A73073  33.906  34.731   6.971
 5829POPC   C4A73074  33.825  35.063   7.208
 5829POPC   C1B73075  33.736  34.409   6.223
 5829POPC   C2B73076  33.562  34.527   6.641
 5829POPC   C3B73077  33.578  34.343   7.073
 5829POPC   C4B73078  33.589  34.326   7.529
 5830POPC   NC373079  23.027  35.830   5.631
 5830POPC   PO473080  22.570  36.244   5.411
 5830POPC   GL173081  22.679  36.129   5.837
 5830POPC   GL273082  23.048  36.308   5.786
 5830POPC   C1A73083  22.738  35.903   6.252
 5830POPC   D2A73084  23.095  35.995   6.562
 5830POPC   C3A73085  23.039  36.067   6.994
 5830POPC   C4A73086  22.669  35.892   7.142
 5830POPC   C1B73087  22.982  36.357   6.207
 5830POPC   C2B73088  22.906  36.603   6.553
 5830POPC   C3B73089  23.044  36.582   6.944
 5830POPC   C4B73090  23.012  36.555   7.359
 5831POPC   NC373091  27.535  17.198   5.443
 5831POPC   PO473092  27.240  17.867   5.434
 5831POPC   GL173093  27.378  17.799   5.833
 5831POPC   GL273094  27.553  17.497   5.849
 5831POPC   C1A73095  27.671  17.874   6.157
 5831POPC   D2A73096  27.803  17.738   6.564
 5831POPC   C3A73097  27.482  17.737   6.895
 5831POPC   C4A73098  27.318  17.377   7.168
 5831POPC   C1B73099  27.870  17.382   6.155
 5831POPC   C2B73100  27.761  17.198   6.541
 5831POPC   C3B73101  27.871  17.375   6.922
 5831POPC   C4B73102  27.995  17.203   7.265
 5832POPC   NC373103  33.340   9.007   5.409
 5832POPC   PO473104  32.712   8.782   5.420
 5832POPC   GL173105  33.011   8.813   5.777
 5832POPC   GL273106  33.101   9.167   5.848
 5832POPC   C1A73107  33.116   8.826   6.240
 5832POPC   D2A73108  32.922   8.950   6.641
 5832POPC   C3A73109  32.845   8.759   7.027
 5832POPC   C4A73110  33.118   8.694   7.376
 5832POPC   C1B73111  33.311   9.301   6.225
 5832POPC   C2B73112  33.387   9.127   6.633
 5832POPC   C3B73113  33.216   9.129   7.080
 5832POPC   C4B73114  33.336   9.146   7.565
 5833POPC   NC373115  21.674   0.585   5.540
 5833POPC   PO473116  21.092   0.380   5.412
 5833POPC   GL173117  21.317   0.384   5.825
 5833POPC   GL273118  21.655   0.163   5.826
 5833POPC   C1A73119  21.206   0.639   6.194
 5833POPC   D2A73120  21.123   0.902   6.574
 5833POPC   C3A73121  21.112   0.684   6.961
 5833POPC   C4A73122  21.239   0.809   7.352
 5833POPC   C1B73123  21.588   0.298   6.247
 5833POPC   C2B73124  21.491   0.536   6.608
 5833POPC   C3B73125  21.607   0.526   7.019
 5833POPC   C4B73126  21.446   0.268   7.303
 5834POPC   NC373127  11.573  44.461   5.634
 5834POPC   PO473128  10.993  44.145   5.566
 5834POPC   GL173129  11.020  44.549   5.793
 5834POPC   GL273130  11.278  44.855   5.807
 5834POPC   C1A73131  11.042  44.640   6.218
 5834POPC   D2A73132  11.290  44.460   6.503
 5834POPC   C3A73133  11.173  44.591   6.904
 5834POPC   C4A73134  10.974  44.613   7.314
 5834POPC   C1B73135  11.523  44.870   6.220
 5834POPC   C2B73136  11.685  44.729   6.640
 5834POPC   C3B73137  11.796  44.794   7.030
 5834POPC   C4B73138  11.479  44.703   7.297
 5835POPC   NC373139  28.935   2.955   5.169
 5835POPC   PO473140  29.264   2.466   5.430
 5835POPC   GL173141  29.132   2.607   5.834
 5835POPC   GL273142  28.932   2.918   5.804
 5835POPC   C1A73143  29.218   2.770   6.266
 5835POPC   D2A73144  29.324   2.816   6.705
 5835POPC   C3A73145  29.139   2.536   7.003
 5835POPC   C4A73146  29.322   2.675   7.316
 5835POPC   C1B73147  28.872   3.148   6.205
 5835POPC   C2B73148  28.950   3.168   6.659
 5835POPC   C3B73149  28.982   3.068   7.098
 5835POPC   C4B73150  28.708   3.244   7.446
 5836POPC   NC373151  23.621  22.221   5.406
 5836POPC   PO473152  24.064  21.761   5.777
 5836POPC   GL173153  23.840  22.151   5.862
 5836POPC   GL273154  23.999  22.493   5.768
 5836POPC   C1A73155  23.540  22.232   6.213
 5836POPC   D2A73156  23.455  21.978   6.594
 5836POPC   C3A73157  23.633  21.988   7.012
 5836POPC   C4A73158  23.502  22.146   7.404
 5836POPC   C1B73159  24.001  22.437   6.247
 5836POPC   C2B73160  23.939  22.168   6.623
 5836POPC   C3B73161  24.105  22.188   7.065
 5836POPC   C4B73162  23.954  22.317   7.520
 5837POPC   NC373163  13.095  42.247   5.360
 5837POPC   PO473164  12.531  42.430   5.183
 5837POPC   GL173165  12.715  42.405   5.644
 5837POPC   GL273166  12.794  42.071   5.783
 5837POPC   C1A73167  12.806  42.468   6.090
 5837POPC   D2A73168  12.738  42.434   6.531
 5837POPC   C3A73169  12.819  42.745   6.836
 5837POPC   C4A73170  12.938  42.543   7.211
 5837POPC   C1B73171  13.032  41.871   6.152
 5837POPC   C2B73172  13.123  41.841   6.621
 5837POPC   C3B73173  13.000  41.938   7.083
 5837POPC   C4B73174  12.951  41.863   7.535
 5838POPC   NC373175  30.514   3.007   5.526
 5838POPC   PO473176  30.747   3.697   5.445
 5838POPC   GL173177  30.642   3.461   5.781
 5838POPC   GL273178  30.998   3.496   5.881
 5838POPC   C1A73179  30.465   3.553   6.190
 5838POPC   D2A73180  30.735   3.611   6.541
 5838POPC   C3A73181  30.582   3.496   6.926
 5838POPC   C4A73182  30.463   3.741   7.246
 5838POPC   C1B73183  31.073   3.298   6.277
 5838POPC   C2B73184  30.902   3.143   6.672
 5838POPC   C3B73185  31.048   3.318   7.073
 5838POPC   C4B73186  31.064   3.457   7.505
 5839POPC   NC373187   8.672  15.760   5.439
 5839POPC   PO473188   8.797  16.341   5.567
 5839POPC   GL173189   8.967  16.077   5.878
 5839POPC   GL273190   8.987  15.711   5.860
 5839POPC   C1A73191   9.061  16.126   6.305
 5839POPC   D2A73192   9.165  15.945   6.703
 5839POPC   C3A73193   8.950  16.049   7.058
 5839POPC   C4A73194   9.025  16.415   7.234
 5839POPC   C1B73195   9.110  15.612   6.301
 5839POPC   C2B73196   9.388  15.488   6.685
 5839POPC   C3B73197   9.231  15.604   7.072
 5839POPC   C4B73198   8.780  15.564   7.052
 5840POPC   NC373199  21.599  32.255   5.415
 5840POPC   PO473200  20.857  32.313   5.376
 5840POPC   GL173201  21.028  32.201   5.779
 5840POPC   GL273202  21.375  32.230   5.863
 5840POPC   C1A73203  21.072  32.007   6.189
 5840POPC   D2A73204  21.397  31.913   6.503
 5840POPC   C3A73205  21.241  32.051   6.872
 5840POPC   C4A73206  21.384  32.072   7.246
 5840POPC   C1B73207  21.686  32.238   6.198
 5840POPC   C2B73208  21.792  32.427   6.607
 5840POPC   C3B73209  21.651  32.460   7.050
 5840POPC   C4B73210  21.792  32.252   7.464
 5841POPC   NC373211  29.034  11.091   5.396
 5841POPC   PO473212  29.202  10.376   5.517
 5841POPC   GL173213  29.235  10.429   5.905
 5841POPC   GL273214  29.204  10.791   5.899
 5841POPC   C1A73215  29.048  10.452   6.291
 5841POPC   D2A73216  29.127  10.661   6.645
 5841POPC   C3A73217  29.241  10.506   7.042
 5841POPC   C4A73218  29.500  10.716   7.309
 5841POPC   C1B73219  28.907  10.944   6.242
 5841POPC   C2B73220  28.761  11.011   6.691
 5841POPC   C3B73221  28.771  10.745   7.057
 5841POPC   C4B73222  28.943  10.674   7.469
 5842POPC   NC373223   8.423   8.018   5.296
 5842POPC   PO473224   7.974   8.448   5.391
 5842POPC   GL173225   8.211   8.235   5.725
 5842POPC   GL273226   8.123   7.909   5.806
 5842POPC   C1A73227   8.371   8.264   6.152
 5842POPC   D2A73228   8.138   8.334   6.539
 5842POPC   C3A73229   8.386   8.316   6.915
 5842POPC   C4A73230   8.269   8.282   7.362
 5842POPC   C1B73231   7.911   8.017   6.211
 5842POPC   C2B73232   7.984   7.861   6.652
 5842POPC   C3B73233   7.957   7.883   7.111
 5842POPC   C4B73234   7.567   7.773   7.347
 5843POPC   NC373235  41.889  44.148   5.563
 5843POPC   PO473236  42.244  43.645   5.490
 5843POPC   GL173237  42.396  43.944   5.835
 5843POPC   GL273238  42.634  44.241   5.789
 5843POPC   C1A73239  42.271  43.866   6.270
 5843POPC   D2A73240  42.051  43.575   6.560
 5843POPC   C3A73241  42.208  43.713   6.927
 5843POPC   C4A73242  42.214  44.110   7.116
 5843POPC   C1B73243  42.738  44.169   6.236
 5843POPC   C2B73244  42.559  44.076   6.660
 5843POPC   C3B73245  42.702  43.854   7.027
 5843POPC   C4B73246  42.609  43.931   7.441
 5844POPC   NC373247  12.625  40.397   5.636
 5844POPC   PO473248  13.237  40.135   5.477
 5844POPC   GL173249  13.031  40.027   5.803
 5844POPC   GL273250  13.153  39.732   5.926
 5844POPC   C1A73251  12.822  40.035   6.180
 5844POPC   D2A73252  12.885  40.261   6.538
 5844POPC   C3A73253  12.784  40.167   6.949
 5844POPC   C4A73254  12.669  40.038   7.336
 5844POPC   C1B73255  13.115  39.667   6.349
 5844POPC   C2B73256  13.012  39.789   6.717
 5844POPC   C3B73257  13.156  39.737   7.109
 5844POPC   C4B73258  12.982  39.678   7.506
 5845POPC   NC373259  10.766   4.542   5.172
 5845POPC   PO473260  10.185   4.147   5.298
 5845POPC   GL173261  10.479   4.377   5.626
 5845POPC   GL273262  10.287   4.618   5.820
 5845POPC   C1A73263  10.724   4.504   6.052
 5845POPC   D2A73264  10.956   4.425   6.468
 5845POPC   C3A73265  10.773   4.145   6.781
 5845POPC   C4A73266  10.743   4.255   7.222
 5845POPC   C1B73267  10.250   4.236   6.083
 5845POPC   C2B73268  10.323   4.069   6.497
 5845POPC   C3B73269  10.296   4.254   6.919
 5845POPC   C4B73270  10.313   4.008   7.283
 5846POPC   NC373271  13.921  17.517   5.497
 5846POPC   PO473272  13.357  17.164   5.421
 5846POPC   GL173273  13.470  17.450   5.787
 5846POPC   GL273274  13.245  17.749   5.865
 5846POPC   C1A73275  13.738  17.428   6.183
 5846POPC   D2A73276  13.857  17.273   6.623
 5846POPC   C3A73277  13.480  17.260   6.925
 5846POPC   C4A73278  13.504  17.347   7.375
 5846POPC   C1B73279  13.418  17.846   6.247
 5846POPC   C2B73280  13.386  17.714   6.672
 5846POPC   C3B73281  13.726  17.682   6.976
 5846POPC   C4B73282  13.842  17.771   7.383
 5847POPC   NC373283   8.415  36.971   5.418
 5847POPC   PO473284   7.764  36.878   5.497
 5847POPC   GL173285   8.079  36.999   5.818
 5847POPC   GL273286   8.404  36.823   5.909
 5847POPC   C1A73287   8.031  36.849   6.253
 5847POPC   D2A73288   8.197  36.999   6.631
 5847POPC   C3A73289   8.407  36.729   6.923
 5847POPC   C4A73290   8.231  36.792   7.312
 5847POPC   C1B73291   8.389  37.208   6.193
 5847POPC   C2B73292   8.581  37.320   6.641
 5847POPC   C3B73293   8.609  37.148   7.120
 5847POPC   C4B73294   8.556  37.046   7.607
 5848POPC   NC373295  39.012  35.744   5.432
 5848POPC   PO473296  39.610  35.494   5.521
 5848POPC   GL173297  39.254  35.382   5.797
 5848POPC   GL273298  39.234  35.003   5.895
 5848POPC   C1A73299  39.204  35.622   6.166
 5848POPC   D2A73300  39.433  35.726   6.527
 5848POPC   C3A73301  39.205  35.644   6.902
 5848POPC   C4A73302  39.318  35.412   7.286
 5848POPC   C1B73303  39.340  35.169   6.316
 5848POPC   C2B73304  39.099  35.227   6.651
 5848POPC   C3B73305  39.178  34.995   7.017
 5848POPC   C4B73306  39.632  34.937   7.046
 5849POPC   NC373307   2.736  38.781   5.355
 5849POPC   PO473308   2.898  38.159   5.600
 5849POPC   GL173309   2.708  38.476   5.813
 5849POPC   GL273310   2.857  38.816   5.850
 5849POPC   C1A73311   2.930  38.416   6.222
 5849POPC   D2A73312   2.927  38.067   6.507
 5849POPC   C3A73313   2.634  38.229   6.812
 5849POPC   C4A73314   2.562  38.274   7.264
 5849POPC   C1B73315   2.564  38.764   6.201
 5849POPC   C2B73316   2.761  38.747   6.595
 5849POPC   C3B73317   2.789  38.696   7.013
 5849POPC   C4B73318   2.402  38.760   7.185
 5850POPC   NC373319  27.762   9.088   5.341
 5850POPC   PO473320  27.087   9.132   5.439
 5850POPC   GL173321  27.383   9.010   5.807
 5850POPC   GL273322  27.722   8.824   5.771
 5850POPC   C1A73323  27.634   9.120   6.202
 5850POPC   D2A73324  27.664   9.265   6.648
 5850POPC   C3A73325  27.453   9.000   6.984
 5850POPC   C4A73326  27.299   9.074   7.427
 5850POPC   C1B73327  27.961   8.708   6.171
 5850POPC   C2B73328  27.842   8.790   6.604
 5850POPC   C3B73329  27.898   8.741   7.043
 5850POPC   C4B73330  28.010   8.750   7.456
 5851POPC   NC373331  15.390   8.678   5.441
 5851POPC   PO473332  14.763   9.019   5.506
 5851POPC   GL173333  14.889   9.141   5.884
 5851POPC   GL273334  15.231   9.115   5.822
 5851POPC   C1A73335  14.914   9.100   6.300
 5851POPC   D2A73336  14.925   9.302   6.674
 5851POPC   C3A73337  15.023   9.075   7.006
 5851POPC   C4A73338  14.858   9.228   7.341
 5851POPC   C1B73339  15.282   8.782   6.140
 5851POPC   C2B73340  15.223   8.812   6.596
 5851POPC   C3B73341  15.467   8.835   6.967
 5851POPC   C4B73342  15.486   9.107   7.312
 5852POPC   NC373343  10.006  38.469   5.467
 5852POPC   PO473344   9.353  38.388   5.501
 5852POPC   GL173345   9.588  38.523   5.842
 5852POPC   GL273346   9.727  38.200   5.869
 5852POPC   C1A73347   9.688  38.662   6.280
 5852POPC   D2A73348   9.777  38.888   6.675
 5852POPC   C3A73349   9.834  38.677   7.072
 5852POPC   C4A73350  10.076  38.278   7.101
 5852POPC   C1B73351   9.511  38.057   6.257
 5852POPC   C2B73352   9.360  38.118   6.685
 5852POPC   C3B73353   9.383  37.851   7.066
 5852POPC   C4B73354   9.514  37.770   7.517
 5853POPC   NC373355  11.851   5.387   5.371
 5853POPC   PO473356  12.185   4.748   5.408
 5853POPC   GL173357  12.108   5.046   5.744
 5853POPC   GL273358  11.782   5.044   5.735
 5853POPC   C1A73359  12.173   5.186   6.183
 5853POPC   D2A73360  12.354   5.019   6.603
 5853POPC   C3A73361  12.298   5.190   7.039
 5853POPC   C4A73362  12.107   5.384   7.418
 5853POPC   C1B73363  11.717   4.875   6.138
 5853POPC   C2B73364  11.833   5.031   6.526
 5853POPC   C3B73365  11.632   5.027   6.882
 5853POPC   C4B73366  11.834   4.976   7.242
 5854POPC   NC373367  15.634   3.208   5.419
 5854POPC   PO473368  16.239   3.631   5.440
 5854POPC   GL173369  16.066   3.509   5.852
 5854POPC   GL273370  15.777   3.690   6.006
 5854POPC   C1A73371  16.164   3.518   6.303
 5854POPC   D2A73372  15.917   3.631   6.646
 5854POPC   C3A73373  15.942   3.388   7.028
 5854POPC   C4A73374  16.087   3.358   7.464
 5854POPC   C1B73375  15.673   3.360   6.274
 5854POPC   C2B73376  15.429   3.422   6.624
 5854POPC   C3B73377  15.518   3.684   6.973
 5854POPC   C4B73378  15.503   3.366   7.297
 5855POPC   NC373379   6.451   0.386   5.172
 5855POPC   PO473380   7.136   0.386   5.530
 5855POPC   GL173381   6.781   0.461   5.790
 5855POPC   GL273382   6.866   0.160   5.901
 5855POPC   C1A73383   6.602   0.429   6.235
 5855POPC   D2A73384   6.380   0.518   6.611
 5855POPC   C3A73385   6.605   0.594   6.974
 5855POPC   C4A73386   6.404   0.397   7.270
 5855POPC   C1B73387   6.917  44.985   6.269
 5855POPC   C2B73388   6.912   0.062   6.652
 5855POPC   C3B73389   6.605   0.092   6.894
 5855POPC   C4B73390   6.826   0.101   7.249
 5856POPC   NC373391  31.629  44.934   5.545
 5856POPC   PO473392  31.673  44.311   5.574
 5856POPC   GL173393  31.552  44.620   5.961
 5856POPC   GL273394  31.643  44.989   6.072
 5856POPC   C1A73395  31.376  44.662   6.401
 5856POPC   D2A73396  31.544  44.905   6.789
 5856POPC   C3A73397  31.358  44.768   7.185
 5856POPC   C4A73398  31.432  44.355   7.433
 5856POPC   C1B73399  31.864  44.715   6.398
 5856POPC   C2B73400  31.697  44.431   6.741
 5856POPC   C3B73401  31.837  44.529   7.161
 5856POPC   C4B73402  32.152  44.580   7.484
 5857POPC   NC373403   0.529  32.744   5.468
 5857POPC   PO473404   0.513  33.374   5.240
 5857POPC   GL173405   0.364  33.194   5.723
 5857POPC   GL273406   0.204  32.830   5.828
 5857POPC   C1A73407   0.274  33.149   6.208
 5857POPC   D2A73408   0.226  32.905   6.627
 5857POPC   C3A73409   0.392  33.073   7.045
 5857POPC   C4A73410   0.289  33.368   7.350
 5857POPC   C1B73411   0.556  32.728   6.127
 5857POPC   C2B73412   0.738  32.888   6.500
 5857POPC   C3B73413   0.660  32.672   6.879
 5857POPC   C4B73414   0.788  32.742   7.284
 5858POPC   NC373415  38.716  25.761   5.712
 5858POPC   PO473416  38.476  25.201   5.465
 5858POPC   GL173417  38.525  25.206   5.865
 5858POPC   GL273418  38.662  24.891   5.879
 5858POPC   C1A73419  38.441  25.396   6.255
 5858POPC   D2A73420  38.567  25.295   6.666
 5858POPC   C3A73421  38.343  25.353   7.002
 5858POPC   C4A73422  38.428  25.564   7.404
 5858POPC   C1B73423  38.389  24.885   6.251
 5858POPC   C2B73424  38.309  24.864   6.683
 5858POPC   C3B73425  38.230  24.766   7.064
 5858POPC   C4B73426  38.427  24.973   7.343
 5859POPC   NC373427  20.638  11.610   5.485
 5859POPC   PO473428  20.781  10.922   5.355
 5859POPC   GL173429  20.539  11.192   5.776
 5859POPC   GL273430  20.768  11.442   5.948
 5859POPC   C1A73431  20.370  11.436   6.232
 5859POPC   D2A73432  20.580  11.487   6.668
 5859POPC   C3A73433  20.394  11.533   7.103
 5859POPC   C4A73434  20.522  11.703   7.539
 5859POPC   C1B73435  20.708  11.068   6.243
 5859POPC   C2B73436  20.840  11.012   6.649
 5859POPC   C3B73437  20.696  11.039   7.063
 5859POPC   C4B73438  20.941  11.018   7.423
 5860POPC   NC373439  12.346  13.628   5.710
 5860POPC   PO473440  11.818  13.653   5.283
 5860POPC   GL173441  11.727  13.602   5.729
 5860POPC   GL273442  11.913  13.910   5.834
 5860POPC   C1A73443  11.797  13.597   6.200
 5860POPC   D2A73444  11.716  13.886   6.557
 5860POPC   C3A73445  11.758  13.694   6.962
 5860POPC   C4A73446  12.123  13.521   7.136
 5860POPC   C1B73447  12.188  13.926   6.261
 5860POPC   C2B73448  12.217  13.819   6.691
 5860POPC   C3B73449  12.196  14.017   7.085
 5860POPC   C4B73450  11.968  13.886   7.468
 5861POPC   NC373451  44.227   3.416   5.558
 5861POPC   PO473452  43.629   3.234   5.772
 5861POPC   GL173453  43.850   3.591   5.870
 5861POPC   GL273454  43.729   3.943   5.778
 5861POPC   C1A73455  43.963   3.459   6.276
 5861POPC   D2A73456  43.718   3.358   6.607
 5861POPC   C3A73457  43.932   3.398   6.964
 5861POPC   C4A73458  43.847   3.157   7.298
 5861POPC   C1B73459  43.958   3.959   6.200
 5861POPC   C2B73460  44.011   3.803   6.641
 5861POPC   C3B73461  44.016   3.956   7.065
 5861POPC   C4B73462  43.752   3.947   7.445
 5862POPC   NC373463  32.695  30.938   5.478
 5862POPC   PO473464  33.379  30.722   5.632
 5862POPC   GL173465  33.012  30.603   5.809
 5862POPC   GL273466  32.993  30.952   5.873
 5862POPC   C1A73467  32.886  30.556   6.233
 5862POPC   D2A73468  32.800  30.744   6.618
 5862POPC   C3A73469  32.888  30.437   6.950
 5862POPC   C4A73470  32.878  30.530   7.407
 5862POPC   C1B73471  32.935  31.065   6.236
 5862POPC   C2B73472  33.150  31.254   6.554
 5862POPC   C3B73473  33.238  31.061   6.939
 5862POPC   C4B73474  32.865  30.912   7.102
 5863POPC   NC373475  13.409  15.949   5.449
 5863POPC   PO473476  14.080  16.087   5.452
 5863POPC   GL173477  13.839  15.893   5.839
 5863POPC   GL273478  13.592  15.577   5.776
 5863POPC   C1A73479  13.753  16.166   6.264
 5863POPC   D2A73480  13.769  16.334   6.699
 5863POPC   C3A73481  13.689  16.110   7.059
 5863POPC   C4A73482  13.961  16.009   7.415
 5863POPC   C1B73483  13.593  15.687   6.238
 5863POPC   C2B73484  13.832  15.810   6.633
 5863POPC   C3B73485  13.866  15.636   7.037
 5863POPC   C4B73486  13.555  15.717   7.343
 5864POPC   NC373487  28.912  16.949   5.547
 5864POPC   PO473488  29.283  16.417   5.433
 5864POPC   GL173489  29.305  16.661   5.801
 5864POPC   GL273490  28.983  16.526   5.899
 5864POPC   C1A73491  29.290  16.735   6.242
 5864POPC   D2A73492  29.237  16.563   6.627
 5864POPC   C3A73493  29.514  16.703   6.955
 5864POPC   C4A73494  29.239  16.728   7.253
 5864POPC   C1B73495  28.768  16.682   6.261
 5864POPC   C2B73496  28.724  16.962   6.612
 5864POPC   C3B73497  28.829  16.986   7.047
 5864POPC   C4B73498  28.801  16.820   7.454
 5865POPC   NC373499   3.236  39.271   5.550
 5865POPC   PO473500   2.586  39.214   5.456
 5865POPC   GL173501   2.786  39.327   5.843
 5865POPC   GL273502   3.089  39.509   5.958
 5865POPC   C1A73503   2.860  39.190   6.288
 5865POPC   D2A73504   3.030  39.170   6.715
 5865POPC   C3A73505   2.692  39.205   6.999
 5865POPC   C4A73506   2.631  39.446   7.356
 5865POPC   C1B73507   3.287  39.505   6.356
 5865POPC   C2B73508   3.056  39.679   6.703
 5865POPC   C3B73509   3.079  39.577   7.119
 5865POPC   C4B73510   3.398  39.372   7.344
 5866POPC   NC373511  19.713  11.232   5.521
 5866POPC   PO473512  19.911  11.825   5.558
 5866POPC   GL173513  19.936  11.433   5.930
 5866POPC   GL273514  19.774  11.068   5.989
 5866POPC   C1A73515  19.902  11.330   6.405
 5866POPC   D2A73516  19.707  11.579   6.732
 5866POPC   C3A73517  19.880  11.454   7.121
 5866POPC   C4A73518  19.647  11.487   7.489
 5866POPC   C1B73519  20.195  10.975   6.160
 5866POPC   C2B73520  20.324  11.038   6.621
 5866POPC   C3B73521  20.190  10.992   7.078
 5866POPC   C4B73522  19.941  11.067   7.460
 5867POPC   NC373523  24.298  30.826   5.465
 5867POPC   PO473524  24.824  31.069   5.201
 5867POPC   GL173525  24.663  30.983   5.756
 5867POPC   GL273526  24.429  30.730   5.934
 5867POPC   C1A73527  24.723  30.968   6.254
 5867POPC   D2A73528  24.406  30.930   6.627
 5867POPC   C3A73529  24.574  30.966   7.052
 5867POPC   C4A73530  24.748  30.636   7.304
 5867POPC   C1B73531  24.381  30.482   6.309
 5867POPC   C2B73532  24.318  30.376   6.746
 5867POPC   C3B73533  24.179  30.614   7.079
 5867POPC   C4B73534  24.226  30.650   7.501
 5868POPC   NC373535  10.257   8.661   5.558
 5868POPC   PO473536  10.642   8.072   5.383
 5868POPC   GL173537  10.644   8.150   5.773
 5868POPC   GL273538  10.963   8.265   5.809
 5868POPC   C1A73539  10.485   8.190   6.185
 5868POPC   D2A73540  10.338   7.956   6.529
 5868POPC   C3A73541  10.323   8.147   6.920
 5868POPC   C4A73542  10.194   7.957   7.276
 5868POPC   C1B73543  10.950   8.372   6.228
 5868POPC   C2B73544  10.776   8.288   6.619
 5868POPC   C3B73545  10.939   8.155   7.006
 5868POPC   C4B73546  10.659   8.154   7.314
 5869POPC   NC373547  35.197  32.297   5.427
 5869POPC   PO473548  35.870  32.213   5.481
 5869POPC   GL173549  35.543  32.346   5.830
 5869POPC   GL273550  35.206  32.156   5.898
 5869POPC   C1A73551  35.355  32.486   6.256
 5869POPC   D2A73552  35.121  32.439   6.651
 5869POPC   C3A73553  35.426  32.522   6.953
 5869POPC   C4A73554  35.567  32.660   7.301
 5869POPC   C1B73555  34.960  32.119   6.268
 5869POPC   C2B73556  35.148  31.857   6.598
 5869POPC   C3B73557  35.296  32.025   6.985
 5869POPC   C4B73558  34.996  32.204   7.285
 5870POPC   NC373559  32.900  17.313   5.386
 5870POPC   PO473560  33.316  16.733   5.398
 5870POPC   GL173561  33.219  16.810   5.804
 5870POPC   GL273562  33.113  17.138   5.821
 5870POPC   C1A73563  32.971  16.741   6.179
 5870POPC   D2A73564  33.097  16.868   6.577
 5870POPC   C3A73565  32.963  16.681   6.971
 5870POPC   C4A73566  33.144  16.457   7.278
 5870POPC   C1B73567  32.740  17.194   6.099
 5870POPC   C2B73568  32.724  17.260   6.553
 5870POPC   C3B73569  32.974  17.193   6.939
 5870POPC   C4B73570  32.789  16.994   7.339
 5871POPC   NC373571  29.782  26.466   5.447
 5871POPC   PO473572  29.975  27.048   5.456
 5871POPC   GL173573  29.755  26.947   5.849
 5871POPC   GL273574  29.632  26.623   5.921
 5871POPC   C1A73575  29.878  26.895   6.294
 5871POPC   D2A73576  30.051  26.831   6.718
 5871POPC   C3A73577  29.793  26.934   7.044
 5871POPC   C4A73578  29.491  26.705   7.224
 5871POPC   C1B73579  29.606  26.460   6.348
 5871POPC   C2B73580  29.687  26.431   6.813
 5871POPC   C3B73581  29.926  26.457   7.217
 5871POPC   C4B73582  29.806  26.591   7.654
 5872POPC   NC373583   3.735   7.516   5.472
 5872POPC   PO473584   3.244   7.018   5.547
 5872POPC   GL173585   3.361   7.381   5.810
 5872POPC   GL273586   3.050   7.479   5.841
 5872POPC   C1A73587   3.381   7.655   6.211
 5872POPC   D2A73588   3.195   7.858   6.612
 5872POPC   C3A73589   3.409   7.727   7.024
 5872POPC   C4A73590   3.847   7.583   7.211
 5872POPC   C1B73591   3.130   7.204   6.228
 5872POPC   C2B73592   3.238   7.233   6.651
 5872POPC   C3B73593   3.574   7.267   6.886
 5872POPC   C4B73594   3.684   7.084   7.239
 5873POPC   NC373595   3.210   0.623   5.597
 5873POPC   PO473596   3.881   0.529   5.401
 5873POPC   GL173597   3.640   0.448   5.841
 5873POPC   GL273598   3.252   0.348   6.001
 5873POPC   C1A73599   3.661   0.251   6.253
 5873POPC   D2A73600   3.503   0.484   6.592
 5873POPC   C3A73601   3.790   0.399   6.912
 5873POPC   C4A73602   3.956   0.670   7.183
 5873POPC   C1B73603   3.141   0.678   6.268
 5873POPC   C2B73604   3.098   0.803   6.684
 5873POPC   C3B73605   3.422   0.770   7.026
 5873POPC   C4B73606   3.439   0.637   7.444
 5874POPC   NC373607  34.918  37.601   5.437
 5874POPC   PO473608  35.583  37.343   5.447
 5874POPC   GL173609  35.446  37.638   5.791
 5874POPC   GL273610  35.150  37.862   5.811
 5874POPC   C1A73611  35.558  37.689   6.236
 5874POPC   D2A73612  35.695  37.499   6.624
 5874POPC   C3A73613  35.594  37.624   7.056
 5874POPC   C4A73614  35.325  37.449   7.435
 5874POPC   C1B73615  35.080  37.843   6.249
 5874POPC   C2B73616  35.299  37.871   6.665
 5874POPC   C3B73617  35.117  37.743   7.075
 5874POPC   C4B73618  34.940  37.775   7.476
 5875POPC   NC373619  44.805  21.095   5.439
 5875POPC   PO473620  44.119  21.238   5.578
 5875POPC   GL173621  44.520  21.298   5.852
 5875POPC   GL273622  44.901  21.280   5.888
 5875POPC   C1A73623  44.590  21.391   6.303
 5875POPC   D2A73624  44.340  21.464   6.672
 5875POPC   C3A73625  44.581  21.270   6.998
 5875POPC   C4A73626  44.959  21.434   7.141
 5875POPC   C1B73627   0.098  21.248   6.267
 5875POPC   C2B73628  44.990  21.121   6.667
 5875POPC   C3B73629   0.184  20.953   7.009
 5875POPC   C4B73630  44.987  20.848   7.398
 5876POPC   NC373631   6.810   8.575   5.616
 5876POPC   PO473632   6.541   7.908   5.514
 5876POPC   GL173633   6.621   8.149   5.840
 5876POPC   GL273634   6.337   8.390   5.801
 5876POPC   C1A73635   6.796   8.041   6.254
 5876POPC   D2A73636   6.552   8.013   6.679
 5876POPC   C3A73637   6.706   7.823   7.072
 5876POPC   C4A73638   6.500   7.574   7.401
 5876POPC   C1B73639   6.487   8.436   6.249
 5876POPC   C2B73640   6.835   8.431   6.604
 5876POPC   C3B73641   6.710   8.344   7.057
 5876POPC   C4B73642   6.895   8.537   7.437
 5877POPC   NC373643  17.206   9.400   4.988
 5877POPC   PO473644  17.611   9.805   5.455
 5877POPC   GL173645  17.439   9.825   5.847
 5877POPC   GL273646  17.589   9.499   5.910
 5877POPC   C1A73647  17.306   9.767   6.279
 5877POPC   D2A73648  17.133   9.881   6.653
 5877POPC   C3A73649  17.358   9.721   6.979
 5877POPC   C4A73650  17.381   9.837   7.364
 5877POPC   C1B73651  17.815   9.706   6.222
 5877POPC   C2B73652  17.711   9.621   6.629
 5877POPC   C3B73653  17.877   9.764   7.041
 5877POPC   C4B73654  17.854   9.824   7.484
 5878POPC   NC373655  35.528  17.631   5.727
 5878POPC   PO473656  35.574  18.206   5.351
 5878POPC   GL173657  35.317  18.340   5.695
 5878POPC   GL273658  35.156  18.028   5.772
 5878POPC   C1A73659  35.352  18.340   6.160
 5878POPC   D2A73660  35.540  18.485   6.567
 5878POPC   C3A73661  35.304  18.354   6.968
 5878POPC   C4A73662  35.434  18.386   7.402
 5878POPC   C1B73663  34.946  18.022   6.143
 5878POPC   C2B73664  35.160  18.048   6.544
 5878POPC   C3B73665  35.229  17.826   6.911
 5878POPC   C4B73666  35.489  17.893   7.226
 5879POPC   NC373667  25.891  11.801   5.503
 5879POPC   PO473668  25.622  12.467   5.508
 5879POPC   GL173669  25.863  12.433   5.909
 5879POPC   GL273670  26.135  12.147   5.863
 5879POPC   C1A73671  25.952  12.282   6.349
 5879POPC   D2A73672  26.070  11.922   6.611
 5879POPC   C3A73673  25.792  11.971   6.976
 5879POPC   C4A73674  25.778  12.376   7.153
 5879POPC   C1B73675  26.430  12.265   6.197
 5879POPC   C2B73676  26.569  12.282   6.616
 5879POPC   C3B73677  26.298  12.254   6.967
 5879POPC   C4B73678  26.257  11.858   7.122
 5880POPC   NC373679  28.933  26.847   5.082
 5880POPC   PO473680  29.415  26.741   5.446
 5880POPC   GL173681  29.240  26.933   5.771
 5880POPC   GL273682  29.114  26.644   5.871
 5880POPC   C1A73683  29.365  26.968   6.215
 5880POPC   D2A73684  29.480  26.867   6.631
 5880POPC   C3A73685  29.259  27.043   6.933
 5880POPC   C4A73686  29.227  27.157   7.341
 5880POPC   C1B73687  28.862  26.972   6.098
 5880POPC   C2B73688  28.949  27.034   6.524
 5880POPC   C3B73689  28.819  26.758   6.865
 5880POPC   C4B73690  28.997  26.723   7.255
 5881POPC   NC373691   1.484  12.669   5.384
 5881POPC   PO473692   0.960  13.057   5.420
 5881POPC   GL173693   1.151  12.929   5.799
 5881POPC   GL273694   1.493  13.029   5.752
 5881POPC   C1A73695   1.053  12.920   6.242
 5881POPC   D2A73696   0.923  13.136   6.614
 5881POPC   C3A73697   0.979  12.868   6.957
 5881POPC   C4A73698   1.017  12.900   7.413
 5881POPC   C1B73699   1.552  12.842   6.177
 5881POPC   C2B73700   1.413  12.868   6.635
 5881POPC   C3B73701   1.462  12.904   7.083
 5881POPC   C4B73702   1.459  12.625   7.433
 5882POPC   NC373703   1.909  30.218   5.399
 5882POPC   PO473704   1.376  29.606   5.487
 5882POPC   GL173705   1.674  29.713   5.837
 5882POPC   GL273706   1.831  30.030   5.852
 5882POPC   C1A73707   1.871  29.710   6.269
 5882POPC   D2A73708   1.836  29.663   6.721
 5882POPC   C3A73709   1.928  29.949   7.013
 5882POPC   C4A73710   2.325  29.966   7.194
 5882POPC   C1B73711   2.064  30.209   6.163
 5882POPC   C2B73712   1.923  30.294   6.570
 5882POPC   C3B73713   1.747  30.429   6.961
 5882POPC   C4B73714   1.874  30.333   7.357
 5883POPC   NC373715  21.362   7.052   5.556
 5883POPC   PO473716  21.806   6.629   5.424
 5883POPC   GL173717  21.482   6.558   5.753
 5883POPC   GL273718  21.118   6.635   5.738
 5883POPC   C1A73719  21.357   6.466   6.174
 5883POPC   D2A73720  21.477   6.352   6.585
 5883POPC   C3A73721  21.249   6.480   6.910
 5883POPC   C4A73722  21.493   6.533   7.282
 5883POPC   C1B73723  21.067   6.885   6.128
 5883POPC   C2B73724  21.308   6.876   6.520
 5883POPC   C3B73725  21.449   6.940   6.909
 5883POPC   C4B73726  21.336   7.074   7.276
 5884POPC   NC373727  43.548  11.142   5.480
 5884POPC   PO473728  44.057  11.578   5.461
 5884POPC   GL173729  44.141  11.227   5.781
 5884POPC   GL273730  43.893  10.961   5.860
 5884POPC   C1A73731  44.093  11.280   6.239
 5884POPC   D2A73732  43.769  11.403   6.560
 5884POPC   C3A73733  43.902  11.250   6.966
 5884POPC   C4A73734  43.857  11.450   7.338
 5884POPC   C1B73735  43.630  11.041   6.208
 5884POPC   C2B73736  43.679  10.909   6.621
 5884POPC   C3B73737  43.488  10.937   7.036
 5884POPC   C4B73738  43.701  10.936   7.440
 5885POPC   NC373739  29.430  35.653   5.515
 5885POPC   PO473740  28.952  35.148   5.424
 5885POPC   GL173741  29.203  35.240   5.785
 5885POPC   GL273742  28.985  35.532   5.816
 5885POPC   C1A73743  29.459  35.204   6.178
 5885POPC   D2A73744  29.299  35.321   6.594
 5885POPC   C3A73745  29.019  35.231   6.958
 5885POPC   C4A73746  29.308  35.127   7.301
 5885POPC   C1B73747  29.215  35.673   6.183
 5885POPC   C2B73748  29.149  35.809   6.600
 5885POPC   C3B73749  29.306  35.658   6.977
 5885POPC   C4B73750  29.135  35.587   7.382
 5886POPC   NC373751  41.446   0.035   5.434
 5886POPC   PO473752  41.818  44.516   5.225
 5886POPC   GL173753  41.551  44.544   5.686
 5886POPC   GL273754  41.526  44.246   5.898
 5886POPC   C1A73755  41.373  44.688   6.134
 5886POPC   D2A73756  41.535   0.025   6.444
 5886POPC   C3A73757  41.689  44.917   6.864
 5886POPC   C4A73758  41.519  44.775   7.243
 5886POPC   C1B73759  41.765  44.386   6.212
 5886POPC   C2B73760  41.580  44.499   6.589
 5886POPC   C3B73761  41.509  44.348   6.997
 5886POPC   C4B73762  41.787  44.266   7.365
 5887POPC   NC373763  27.111  21.467   5.416
 5887POPC   PO473764  26.421  21.585   5.454
 5887POPC   GL173765  26.520  21.365   5.813
 5887POPC   GL273766  26.886  21.280   5.820
 5887POPC   C1A73767  26.623  21.495   6.216
 5887POPC   D2A73768  26.683  21.299   6.591
 5887POPC   C3A73769  26.605  21.487   6.995
 5887POPC   C4A73770  26.793  21.362   7.407
 5887POPC   C1B73771  27.132  21.131   6.163
 5887POPC   C2B73772  27.189  21.160   6.595
 5887POPC   C3B73773  26.964  21.088   6.972
 5887POPC   C4B73774  27.198  21.064   7.326
 5888POPC   NC373775  39.896   7.235   5.454
 5888POPC   PO473776  40.372   7.724   5.466
 5888POPC   GL173777  40.116   7.501   5.857
 5888POPC   GL273778  39.755   7.341   5.923
 5888POPC   C1A73779  39.984   7.546   6.337
 5888POPC   D2A73780  40.081   7.395   6.760
 5888POPC   C3A73781  39.958   7.671   7.102
 5888POPC   C4A73782  39.978   7.699   7.564
 5888POPC   C1B73783  39.486   7.487   6.277
 5888POPC   C2B73784  39.579   7.389   6.708
 5888POPC   C3B73785  39.612   7.279   7.172
 5888POPC   C4B73786  39.785   7.216   7.605
 5889POPC   NC373787  13.437  27.747   5.379
 5889POPC   PO473788  13.426  27.066   5.627
 5889POPC   GL173789  13.541  27.461   5.839
 5889POPC   GL273790  13.711  27.785   5.818
 5889POPC   C1A73791  13.512  27.595   6.275
 5889POPC   D2A73792  13.378  27.451   6.664
 5889POPC   C3A73793  13.587  27.553   7.014
 5889POPC   C4A73794  13.390  27.815   7.321
 5889POPC   C1B73795  13.988  27.730   6.193
 5889POPC   C2B73796  13.877  27.806   6.606
 5889POPC   C3B73797  14.067  27.723   7.016
 5889POPC   C4B73798  13.858  27.700   7.446
 5890POPC   NC373799  23.130  34.276   5.528
 5890POPC   PO473800  22.795  33.886   5.077
 5890POPC   GL173801  22.788  33.793   5.574
 5890POPC   GL273802  23.107  33.800   5.782
 5890POPC   C1A73803  22.679  33.727   6.065
 5890POPC   D2A73804  22.587  33.890   6.526
 5890POPC   C3A73805  22.949  33.908   6.837
 5890POPC   C4A73806  22.933  33.766   7.270
 5890POPC   C1B73807  23.148  33.643   6.248
 5890POPC   C2B73808  23.013  33.447   6.661
 5890POPC   C3B73809  23.189  33.328   7.113
 5890POPC   C4B73810  23.075  33.338   7.584
 5891POPC   NC373811  28.793   0.454   5.488
 5891POPC   PO473812  29.395   0.789   5.403
 5891POPC   GL173813  29.427   0.460   5.760
 5891POPC   GL273814  29.456   0.709   5.971
 5891POPC   C1A73815  29.259   0.301   6.226
 5891POPC   D2A73816  29.051   0.396   6.661
 5891POPC   C3A73817  29.311   0.323   7.051
 5891POPC   C4A73818  29.231   0.171   7.475
 5891POPC   C1B73819  29.156   0.808   6.260
 5891POPC   C2B73820  29.316   0.842   6.645
 5891POPC   C3B73821  29.482   0.797   7.049
 5891POPC   C4B73822  29.632   0.569   7.401
 5892POPC   NC373823  39.500   4.937   5.424
 5892POPC   PO473824  39.591   5.577   5.637
 5892POPC   GL173825  39.393   5.256   5.913
 5892POPC   GL273826  39.169   4.968   5.870
 5892POPC   C1A73827  39.173   5.194   6.327
 5892POPC   D2A73828  39.045   5.160   6.748
 5892POPC   C3A73829  39.118   5.305   7.156
 5892POPC   C4A73830  39.545   5.361   7.217
 5892POPC   C1B73831  39.358   4.719   6.233
 5892POPC   C2B73832  39.551   4.873   6.596
 5892POPC   C3B73833  39.408   4.913   7.017
 5892POPC   C4B73834  39.329   4.758   7.452
 5893POPC   NC373835  30.152  11.275   5.209
 5893POPC   PO473836  29.470  11.272   5.293
 5893POPC   GL173837  29.766  11.135   5.664
 5893POPC   GL273838  29.977  11.431   5.767
 5893POPC   C1A73839  29.868  11.100   6.135
 5893POPC   D2A73840  30.121  11.105   6.522
 5893POPC   C3A73841  29.991  11.211   6.929
 5893POPC   C4A73842  29.614  11.235   7.187
 5893POPC   C1B73843  30.177  11.531   6.218
 5893POPC   C2B73844  30.224  11.666   6.661
 5893POPC   C3B73845  30.251  11.624   7.129
 5893POPC   C4B73846  30.023  11.375   7.440
 5894POPC   NC373847   0.925  30.905   5.464
 5894POPC   PO473848   0.265  30.825   5.205
 5894POPC   GL173849   0.460  30.757   5.664
 5894POPC   GL273850   0.385  30.450   5.861
 5894POPC   C1A73851   0.517  30.864   6.123
 5894POPC   D2A73852   0.533  30.580   6.481
 5894POPC   C3A73853   0.713  30.719   6.873
 5894POPC   C4A73854   0.778  30.403   7.161
 5894POPC   C1B73855   0.087  30.525   6.181
 5894POPC   C2B73856   0.061  30.736   6.574
 5894POPC   C3B73857   0.225  30.534   6.934
 5894POPC   C4B73858   0.010  30.477   7.273
 5895POPC   NC373859   4.682  20.025   5.451
 5895POPC   PO473860   4.030  19.788   5.453
 5895POPC   GL173861   4.319  19.820   5.777
 5895POPC   GL273862   4.315  20.180   5.797
 5895POPC   C1A73863   4.176  19.855   6.204
 5895POPC   D2A73864   3.917  19.805   6.540
 5895POPC   C3A73865   4.199  19.817   6.856
 5895POPC   C4A73866   4.420  19.605   7.136
 5895POPC   C1B73867   4.605  20.119   6.144
 5895POPC   C2B73868   4.626  19.866   6.534
 5895POPC   C3B73869   4.763  19.951   6.938
 5895POPC   C4B73870   4.461  20.129   7.179
 5896POPC   NC373871  36.352  13.926   5.494
 5896POPC   PO473872  35.983  13.330   5.466
 5896POPC   GL173873  36.134  13.534   5.766
 5896POPC   GL273874  35.933  13.791   5.779
 5896POPC   C1A73875  36.277  13.591   6.158
 5896POPC   D2A73876  36.171  13.384   6.509
 5896POPC   C3A73877  36.229  13.532   6.912
 5896POPC   C4A73878  36.150  13.428   7.310
 5896POPC   C1B73879  35.930  13.967   6.182
 5896POPC   C2B73880  35.905  13.816   6.593
 5896POPC   C3B73881  35.781  13.811   7.025
 5896POPC   C4B73882  35.786  13.724   7.469
 5897POPC   NC373883  41.930  35.384   5.376
 5897POPC   PO473884  42.530  34.956   5.481
 5897POPC   GL173885  42.356  35.189   5.823
 5897POPC   GL273886  42.247  35.510   5.753
 5897POPC   C1A73887  42.320  35.054   6.232
 5897POPC   D2A73888  42.505  34.984   6.625
 5897POPC   C3A73889  42.609  35.309   6.942
 5897POPC   C4A73890  42.473  35.190   7.361
 5897POPC   C1B73891  42.088  35.498   6.164
 5897POPC   C2B73892  42.241  35.445   6.586
 5897POPC   C3B73893  42.073  35.585   6.975
 5897POPC   C4B73894  42.181  35.602   7.390
 5898POPC   NC373895   2.546  42.431   5.457
 5898POPC   PO473896   3.045  42.070   5.408
 5898POPC   GL173897   2.845  42.083   5.812
 5898POPC   GL273898   2.889  42.431   5.868
 5898POPC   C1A73899   2.684  41.938   6.235
 5898POPC   D2A73900   2.746  41.991   6.699
 5898POPC   C3A73901   2.455  42.179   6.999
 5898POPC   C4A73902   2.563  42.192   7.462
 5898POPC   C1B73903   2.614  42.453   6.243
 5898POPC   C2B73904   2.497  42.617   6.697
 5898POPC   C3B73905   2.525  42.644   7.204
 5898POPC   C4B73906   2.344  42.600   7.689
 5899POPC   NC373907   1.645  31.539   5.413
 5899POPC   PO473908   2.306  31.470   5.412
 5899POPC   GL173909   2.036  31.555   5.752
 5899POPC   GL273910   2.220  31.336   5.930
 5899POPC   C1A73911   1.782  31.504   6.157
 5899POPC   D2A73912   1.747  31.344   6.604
 5899POPC   C3A73913   1.723  31.606   6.983
 5899POPC   C4A73914   1.675  31.540   7.438
 5899POPC   C1B73915   2.165  31.194   6.325
 5899POPC   C2B73916   2.273  31.338   6.693
 5899POPC   C3B73917   2.103  31.289   7.082
 5899POPC   C4B73918   2.177  31.573   7.409
 5900POPC   NC373919  43.323  21.066   5.742
 5900POPC   PO473920  43.005  21.555   5.452
 5900POPC   GL173921  42.922  21.357   5.819
 5900POPC   GL273922  43.167  21.543   5.970
 5900POPC   C1A73923  42.952  21.178   6.248
 5900POPC   D2A73924  43.125  21.493   6.523
 5900POPC   C3A73925  43.028  21.414   6.935
 5900POPC   C4A73926  43.288  21.178   7.222
 5900POPC   C1B73927  42.754  21.652   6.172
 5900POPC   C2B73928  42.703  21.802   6.564
 5900POPC   C3B73929  42.915  21.926   6.924
 5900POPC   C4B73930  42.725  21.778   7.275
 5901POPC   NC373931   3.841  41.916   5.290
 5901POPC   PO473932   3.595  41.235   5.396
 5901POPC   GL173933   3.682  41.306   5.863
 5901POPC   GL273934   3.887  41.650   5.941
 5901POPC   C1A73935   3.523  41.440   6.238
 5901POPC   D2A73936   3.393  41.226   6.573
 5901POPC   C3A73937   3.498  41.414   6.941
 5901POPC   C4A73938   3.511  41.646   7.347
 5901POPC   C1B73939   3.788  41.899   6.272
 5901POPC   C2B73940   3.648  41.875   6.664
 5901POPC   C3B73941   3.853  41.769   6.991
 5901POPC   C4B73942   3.905  41.936   7.349
 5902POPC   NC373943  28.547  27.365   5.451
 5902POPC   PO473944  28.312  27.981   5.250
 5902POPC   GL173945  28.335  27.752   5.704
 5902POPC   GL273946  28.133  27.414   5.781
 5902POPC   C1A73947  28.563  27.486   6.086
 5902POPC   D2A73948  28.720  27.539   6.518
 5902POPC   C3A73949  28.458  27.855   6.735
 5902POPC   C4A73950  28.142  28.026   7.059
 5902POPC   C1B73951  28.096  27.304   6.251
 5902POPC   C2B73952  28.188  27.433   6.705
 5902POPC   C3B73953  28.306  27.536   7.148
 5902POPC   C4B73954  28.160  27.305   7.525
 5903POPC   NC373955  13.033   1.797   5.474
 5903POPC   PO473956  12.639   2.332   5.446
 5903POPC   GL173957  12.883   2.248   5.856
 5903POPC   GL273958  13.245   2.070   5.884
 5903POPC   C1A73959  12.985   2.238   6.308
 5903POPC   D2A73960  13.290   2.054   6.578
 5903POPC   C3A73961  13.087   2.010   6.993
 5903POPC   C4A73962  12.729   2.217   7.190
 5903POPC   C1B73963  12.989   1.772   6.140
 5903POPC   C2B73964  12.832   1.789   6.567
 5903POPC   C3B73965  12.908   1.550   6.953
 5903POPC   C4B73966  12.905   1.677   7.383
 5904POPC   NC373967   1.561  16.745   5.531
 5904POPC   PO473968   1.006  16.289   5.547
 5904POPC   GL173969   1.069  16.742   5.662
 5904POPC   GL273970   1.209  16.595   5.944
 5904POPC   C1A73971   1.220  17.090   6.007
 5904POPC   D2A73972   1.475  17.060   6.398
 5904POPC   C3A73973   1.275  16.977   6.818
 5904POPC   C4A73974   1.238  17.131   7.251
 5904POPC   C1B73975   0.898  16.394   6.218
 5904POPC   C2B73976   1.010  16.382   6.614
 5904POPC   C3B73977   1.282  16.452   6.915
 5904POPC   C4B73978   1.483  16.672   7.198
 5905POPC   NC373979  12.453  21.077   5.287
 5905POPC   PO473980  11.941  20.676   5.496
 5905POPC   GL173981  12.165  20.716   5.867
 5905POPC   GL273982  12.099  20.437   5.980
 5905POPC   C1A73983  12.104  20.914   6.297
 5905POPC   D2A73984  12.089  20.781   6.744
 5905POPC   C3A73985  11.943  20.974   7.132
 5905POPC   C4A73986  12.238  20.851   7.399
 5905POPC   C1B73987  11.769  20.512   6.257
 5905POPC   C2B73988  11.806  20.357   6.680
 5905POPC   C3B73989  11.790  20.490   7.127
 5905POPC   C4B73990  11.728  20.480   7.614
 5906POPC   NC373991  39.524  27.610   5.435
 5906POPC   PO473992  40.041  27.951   5.312
 5906POPC   GL173993  39.947  27.712   5.689
 5906POPC   GL273994  39.837  27.359   5.753
 5906POPC   C1A73995  40.166  27.600   6.056
 5906POPC   D2A73996  39.985  27.440   6.406
 5906POPC   C3A73997  40.168  27.561   6.762
 5906POPC   C4A73998  40.056  27.548   7.178
 5906POPC   C1B73999  39.669  27.121   6.111
 5906POPC   C2B74000  39.516  27.199   6.490
 5906POPC   C3B74001  39.755  27.247   6.837
 5906POPC   C4B74002  39.633  27.250   7.224
 5907POPC   NC374003  11.875  24.557   5.465
 5907POPC   PO474004  12.251  24.174   5.122
 5907POPC   GL174005  12.285  24.208   5.659
 5907POPC   GL274006  12.339  24.530   5.791
 5907POPC   C1A74007  12.314  24.201   6.165
 5907POPC   D2A74008  12.364  24.496   6.580
 5907POPC   C3A74009  12.187  24.459   7.033
 5907POPC   C4A74010  11.819  24.247   7.272
 5907POPC   C1B74011  12.102  24.685   6.157
 5907POPC   C2B74012  11.925  24.785   6.591
 5907POPC   C3B74013  11.741  24.762   7.050
 5907POPC   C4B74014  11.711  24.718   7.526
 5908POPC   NC374015   8.210  11.736   5.517
 5908POPC   PO474016   7.959  12.376   5.383
 5908POPC   GL174017   8.095  12.218   5.802
 5908POPC   GL274018   8.426  12.262   5.968
 5908POPC   C1A74019   8.040  12.025   6.224
 5908POPC   D2A74020   8.343  11.802   6.521
 5908POPC   C3A74021   8.185  11.760   6.949
 5908POPC   C4A74022   8.017  12.077   7.211
 5908POPC   C1B74023   8.405  12.331   6.445
 5908POPC   C2B74024   8.594  12.170   6.809
 5908POPC   C3B74025   8.566  12.091   7.237
 5908POPC   C4B74026   8.632  12.371   7.630
 5909POPC   NC374027  33.254   7.560   5.001
 5909POPC   PO474028  32.877   7.305   5.445
 5909POPC   GL174029  33.053   7.433   5.851
 5909POPC   GL274030  33.359   7.665   5.818
 5909POPC   C1A74031  33.258   7.414   6.241
 5909POPC   D2A74032  33.109   7.206   6.517
 5909POPC   C3A74033  33.143   7.258   6.886
 5909POPC   C4A74034  32.854   7.133   7.176
 5909POPC   C1B74035  33.051   7.854   6.110
 5909POPC   C2B74036  33.044   7.905   6.539
 5909POPC   C3B74037  33.174   7.779   6.926
 5909POPC   C4B74038  33.092   7.548   7.285
 5910POPC   NC374039  10.950  16.366   5.045
 5910POPC   PO474040  10.604  15.966   5.464
 5910POPC   GL174041  10.419  15.812   5.796
 5910POPC   GL274042  10.698  15.998   5.966
 5910POPC   C1A74043  10.282  15.815   6.215
 5910POPC   D2A74044  10.396  15.912   6.632
 5910POPC   C3A74045  10.142  15.813   6.967
 5910POPC   C4A74046  10.231  15.579   7.319
 5910POPC   C1B74047  10.832  15.833   6.353
 5910POPC   C2B74048  10.872  15.848   6.797
 5910POPC   C3B74049  10.636  15.857   7.164
 5910POPC   C4B74050  10.769  15.727   7.579
 5911POPC   NC374051  36.074  27.295   5.685
 5911POPC   PO474052  36.144  26.749   5.322
 5911POPC   GL174053  36.172  26.624   5.752
 5911POPC   GL274054  36.422  26.853   5.834
 5911POPC   C1A74055  36.018  26.756   6.177
 5911POPC   D2A74056  35.913  26.941   6.614
 5911POPC   C3A74057  35.948  26.694   7.046
 5911POPC   C4A74058  35.828  26.434   7.466
 5911POPC   C1B74059  36.487  27.035   6.251
 5911POPC   C2B74060  36.340  27.259   6.636
 5911POPC   C3B74061  36.132  27.233   7.042
 5911POPC   C4B74062  36.309  27.133   7.449
 5912POPC   NC374063  22.660   7.940   4.953
 5912POPC   PO474064  22.454   8.354   5.475
 5912POPC   GL174065  22.299   8.095   5.781
 5912POPC   GL274066  21.933   8.167   5.783
 5912POPC   C1A74067  22.306   8.236   6.224
 5912POPC   D2A74068  22.021   8.224   6.563
 5912POPC   C3A74069  22.232   8.175   6.956
 5912POPC   C4A74070  21.963   8.180   7.306
 5912POPC   C1B74071  21.958   7.869   6.122
 5912POPC   C2B74072  21.891   7.700   6.538
 5912POPC   C3B74073  21.811   7.827   6.962
 5912POPC   C4B74074  21.733   7.711   7.413
 5913POPC   NC374075  26.244   5.750   5.402
 5913POPC   PO474076  25.659   5.470   5.087
 5913POPC   GL174077  25.678   5.507   5.618
 5913POPC   GL274078  25.658   5.861   5.778
 5913POPC   C1A74079  25.826   5.504   6.106
 5913POPC   D2A74080  26.026   5.588   6.554
 5913POPC   C3A74081  25.848   5.502   7.018
 5913POPC   C4A74082  26.025   5.575   7.441
 5913POPC   C1B74083  26.020   5.993   6.088
 5913POPC   C2B74084  26.229   6.059   6.502
 5913POPC   C3B74085  26.122   6.278   6.863
 5913POPC   C4B74086  26.088   6.248   7.286
 5914POPC   NC374087  32.300   5.313   5.746
 5914POPC   PO474088  32.015   4.787   5.491
 5914POPC   GL174089  32.042   4.813   5.896
 5914POPC   GL274090  32.407   4.824   5.903
 5914POPC   C1A74091  31.957   4.967   6.304
 5914POPC   D2A74092  32.147   5.270   6.578
 5914POPC   C3A74093  32.331   5.093   6.923
 5914POPC   C4A74094  32.213   5.026   7.361
 5914POPC   C1B74095  32.470   4.893   6.334
 5914POPC   C2B74096  32.673   4.748   6.699
 5914POPC   C3B74097  32.674   4.790   7.126
 5914POPC   C4B74098  32.666   5.210   7.300
 5915POPC   NC374099  17.282  25.712   5.406
 5915POPC   PO474100  17.266  25.057   5.523
 5915POPC   GL174101  17.554  25.299   5.756
 5915POPC   GL274102  17.801  25.544   5.690
 5915POPC   C1A74103  17.683  25.262   6.169
 5915POPC   D2A74104  17.854  25.086   6.550
 5915POPC   C3A74105  17.647  25.282   6.887
 5915POPC   C4A74106  17.650  25.158   7.294
 5915POPC   C1B74107  17.849  25.745   6.080
 5915POPC   C2B74108  17.714  25.654   6.518
 5915POPC   C3B74109  17.630  25.801   6.951
 5915POPC   C4B74110  17.335  25.642   7.263
 5916POPC   NC374111  23.197   4.221   5.487
 5916POPC   PO474112  22.574   3.974   5.416
 5916POPC   GL174113  22.558   4.237   5.795
 5916POPC   GL274114  22.594   4.602   5.674
 5916POPC   C1A74115  22.675   4.092   6.231
 5916POPC   D2A74116  22.954   3.943   6.583
 5916POPC   C3A74117  22.815   4.133   6.981
 5916POPC   C4A74118  22.822   4.105   7.439
 5916POPC   C1B74119  22.764   4.619   6.106
 5916POPC   C2B74120  23.082   4.396   6.361
 5916POPC   C3B74121  23.269   4.390   6.764
 5916POPC   C4B74122  23.178   4.415   7.198
 5917POPC   NC374123   0.214  11.995   5.464
 5917POPC   PO474124   0.880  12.103   5.318
 5917POPC   GL174125   0.743  11.963   5.762
 5917POPC   GL274126   0.484  12.194   5.857
 5917POPC   C1A74127   0.540  11.809   6.186
 5917POPC   D2A74128   0.152  11.739   6.480
 5917POPC   C3A74129   0.205  11.905   6.917
 5917POPC   C4A74130   0.635  11.987   7.107
 5917POPC   C1B74131   0.273  12.234   6.274
 5917POPC   C2B74132   0.508  12.165   6.617
 5917POPC   C3B74133   0.658  12.457   6.895
 5917POPC   C4B74134   0.828  12.456   7.287
 5918POPC   NC374135  15.437  11.864   5.365
 5918POPC   PO474136  14.938  12.272   5.371
 5918POPC   GL174137  15.188  12.167   5.733
 5918POPC   GL274138  15.510  12.312   5.739
 5918POPC   C1A74139  15.223  12.009   6.163
 5918POPC   D2A74140  14.936  11.918   6.520
 5918POPC   C3A74141  15.100  11.843   6.936
 5918POPC   C4A74142  15.574  11.936   6.982
 5918POPC   C1B74143  15.382  12.535   6.119
 5918POPC   C2B74144  15.237  12.411   6.519
 5918POPC   C3B74145  15.229  12.333   6.942
 5918POPC   C4B74146  15.321  12.202   7.339
 5919POPC   NC374147  35.212  12.299   5.474
 5919POPC   PO474148  35.093  11.686   5.669
 5919POPC   GL174149  35.394  11.747   6.011
 5919POPC   GL274150  35.327  12.098   5.929
 5919POPC   C1A74151  35.503  11.728   6.445
 5919POPC   D2A74152  35.149  11.889   6.665
 5919POPC   C3A74153  35.205  12.113   7.028
 5919POPC   C4A74154  35.389  11.755   7.224
 5919POPC   C1B74155  35.218  12.270   6.302
 5919POPC   C2B74156  35.525  12.238   6.612
 5919POPC   C3B74157  35.713  12.119   6.972
 5919POPC   C4B74158  35.584  12.197   7.410
 5920POPC   NC374159  42.549  21.662   5.526
 5920POPC   PO474160  42.175  22.114   5.178
 5920POPC   GL174161  42.092  22.069   5.716
 5920POPC   GL274162  42.337  22.190   5.938
 5920POPC   C1A74163  41.972  22.063   6.234
 5920POPC   D2A74164  42.206  21.940   6.661
 5920POPC   C3A74165  42.074  22.158   7.044
 5920POPC   C4A74166  42.081  22.604   7.162
 5920POPC   C1B74167  42.656  22.205   6.221
 5920POPC   C2B74168  42.682  22.294   6.630
 5920POPC   C3B74169  42.794  22.424   7.004
 5920POPC   C4B74170  42.531  22.279   7.239
 5921POPC   NC374171   0.013   1.073   5.556
 5921POPC   PO474172  44.669   1.519   5.179
 5921POPC   GL174173  44.757   1.492   5.662
 5921POPC   GL274174  44.595   1.194   5.827
 5921POPC   C1A74175  44.725   1.497   6.182
 5921POPC   D2A74176  44.973   1.231   6.438
 5921POPC   C3A74177   0.023   1.268   6.839
 5921POPC   C4A74178  44.732   1.178   7.128
 5921POPC   C1B74179  44.629   0.915   6.193
 5921POPC   C2B74180  44.760   0.715   6.564
 5921POPC   C3B74181  44.556   0.722   6.952
 5921POPC   C4B74182  44.648   0.687   7.346
 5922POPC   NC374183  14.514  20.610   5.502
 5922POPC   PO474184  13.832  20.769   5.455
 5922POPC   GL174185  14.033  20.656   5.850
 5922POPC   GL274186  14.324  20.878   5.910
 5922POPC   C1A74187  14.251  20.456   6.220
 5922POPC   D2A74188  14.486  20.686   6.519
 5922POPC   C3A74189  14.304  20.716   6.933
 5922POPC   C4A74190  14.324  20.410   7.237
 5922POPC   C1B74191  14.748  20.935   6.098
 5922POPC   C2B74192  15.019  20.921   6.460
 5922POPC   C3B74193  14.823  20.856   6.865
 5922POPC   C4B74194  14.625  20.972   7.242
 5923POPC   NC374195  20.330  38.453   5.444
 5923POPC   PO474196  21.014  38.217   5.468
 5923POPC   GL174197  20.771  38.463   5.730
 5923POPC   GL274198  20.581  38.181   5.806
 5923POPC   C1A74199  20.601  38.610   6.115
 5923POPC   D2A74200  20.563  38.413   6.522
 5923POPC   C3A74201  20.664  38.608   6.917
 5923POPC   C4A74202  20.415  38.719   7.264
 5923POPC   C1B74203  20.728  38.008   6.194
 5923POPC   C2B74204  20.552  37.905   6.593
 5923POPC   C3B74205  20.733  38.099   6.937
 5923POPC   C4B74206  20.636  38.266   7.334
 5924POPC   NC374207  40.566  23.583   5.273
 5924POPC   PO474208  41.187  23.565   5.531
 5924POPC   GL174209  40.920  23.713   5.879
 5924POPC   GL274210  40.535  23.662   5.854
 5924POPC   C1A74211  40.834  23.565   6.304
 5924POPC   D2A74212  41.017  23.586   6.704
 5924POPC   C3A74213  40.797  23.489   7.053
 5924POPC   C4A74214  40.740  23.822   7.287
 5924POPC   C1B74215  40.393  23.819   6.289
 5924POPC   C2B74216  40.513  23.804   6.753
 5924POPC   C3B74217  40.295  23.635   7.140
 5924POPC   C4B74218  40.380  23.732   7.639
 5925POPC   NC374219   0.755  11.290   5.403
 5925POPC   PO474220   1.346  11.286   5.246
 5925POPC   GL174221   1.167  11.183   5.721
 5925POPC   GL274222   0.952  11.470   5.830
 5925POPC   C1A74223   1.350  11.180   6.194
 5925POPC   D2A74224   1.595  11.316   6.567
 5925POPC   C3A74225   1.402  11.255   6.989
 5925POPC   C4A74226   1.506  11.073   7.393
 5925POPC   C1B74227   0.986  11.558   6.256
 5925POPC   C2B74228   1.156  11.591   6.666
 5925POPC   C3B74229   1.027  11.661   7.079
 5925POPC   C4B74230   0.992  11.709   7.529
 5926POPC   NC374231  41.407  41.662   5.169
 5926POPC   PO474232  41.937  41.288   5.236
 5926POPC   GL174233  41.642  41.399   5.542
 5926POPC   GL274234  41.694  41.747   5.642
 5926POPC   C1A74235  41.628  41.375   5.990
 5926POPC   D2A74236  41.618  41.453   6.451
 5926POPC   C3A74237  41.572  41.291   6.882
 5926POPC   C4A74238  41.722  41.317   7.315
 5926POPC   C1B74239  41.777  41.866   6.087
 5926POPC   C2B74240  41.638  41.988   6.498
 5926POPC   C3B74241  41.510  41.797   6.838
 5926POPC   C4B74242  41.552  41.867   7.252
 5927POPC   NC374243  43.711  33.150   5.512
 5927POPC   PO474244  44.362  32.876   5.529
 5927POPC   GL174245  44.078  33.025   5.856
 5927POPC   GL274246  44.052  33.385   5.913
 5927POPC   C1A74247  43.818  33.078   6.260
 5927POPC   D2A74248  43.567  33.090   6.661
 5927POPC   C3A74249  43.716  33.067   7.109
 5927POPC   C4A74250  43.967  32.856   7.448
 5927POPC   C1B74251  44.271  33.614   6.238
 5927POPC   C2B74252  44.326  33.575   6.698
 5927POPC   C3B74253  44.042  33.426   7.008
 5927POPC   C4B74254  43.761  33.588   7.332
 5928POPC   NC374255  34.267   8.679   5.593
 5928POPC   PO474256  33.530   8.566   5.451
 5928POPC   GL174257  33.572   8.868   5.829
 5928POPC   GL274258  33.916   9.042   5.856
 5928POPC   C1A74259  33.634   8.883   6.251
 5928POPC   D2A74260  33.745   8.624   6.568
 5928POPC   C3A74261  33.433   8.676   6.889
 5928POPC   C4A74262  33.604   8.856   7.260
 5928POPC   C1B74263  34.157   8.853   6.225
 5928POPC   C2B74264  34.276   8.789   6.670
 5928POPC   C3B74265  34.079   8.879   7.072
 5928POPC   C4B74266  34.174   9.270   7.297
 5929POPC   NC374267  43.360  41.000   5.503
 5929POPC   PO474268  42.725  40.756   5.350
 5929POPC   GL174269  42.798  40.925   5.778
 5929POPC   GL274270  43.097  40.712   5.850
 5929POPC   C1A74271  42.923  40.926   6.255
 5929POPC   D2A74272  43.102  40.639   6.576
 5929POPC   C3A74273  42.988  40.826   6.949
 5929POPC   C4A74274  43.033  40.664   7.323
 5929POPC   C1B74275  43.431  40.669   6.178
 5929POPC   C2B74276  43.626  40.795   6.557
 5929POPC   C3B74277  43.489  40.788   6.996
 5929POPC   C4B74278  43.517  40.503   7.340
 5930POPC   NC374279  19.989  43.757   5.374
 5930POPC   PO474280  20.637  43.740   5.407
 5930POPC   GL174281  20.599  43.883   5.810
 5930POPC   GL274282  20.912  43.753   5.892
 5930POPC   C1A74283  20.550  43.824   6.262
 5930POPC   D2A74284  20.728  43.718   6.658
 5930POPC   C3A74285  20.554  43.974   6.979
 5930POPC   C4A74286  20.375  43.969   7.386
 5930POPC   C1B74287  20.880  44.174   6.126
 5930POPC   C2B74288  20.756  44.294   6.519
 5930POPC   C3B74289  20.963  44.269   6.920
 5930POPC   C4B74290  20.816  44.240   7.319
 5931POPC   NC374291  16.551  21.492   5.445
 5931POPC   PO474292  17.182  21.567   5.520
 5931POPC   GL174293  16.881  21.389   5.852
 5931POPC   GL274294  16.564  21.551   5.951
 5931POPC   C1A74295  16.811  21.073   6.190
 5931POPC   D2A74296  16.995  21.000   6.580
 5931POPC   C3A74297  17.004  21.369   6.836
 5931POPC   C4A74298  16.706  21.291   7.154
 5931POPC   C1B74299  16.363  21.306   6.259
 5931POPC   C2B74300  16.476  21.256   6.661
 5931POPC   C3B74301  16.572  21.633   6.828
 5931POPC   C4B74302  16.479  21.753   7.214
 5932POPC   NC374303   2.478  40.824   5.560
 5932POPC   PO474304   1.774  40.772   5.378
 5932POPC   GL174305   2.015  40.617   5.740
 5932POPC   GL274306   2.095  40.929   5.881
 5932POPC   C1A74307   1.983  40.495   6.180
 5932POPC   D2A74308   1.875  40.681   6.595
 5932POPC   C3A74309   1.963  40.533   7.005
 5932POPC   C4A74310   1.841  40.572   7.469
 5932POPC   C1B74311   2.016  41.226   6.192
 5932POPC   C2B74312   1.987  41.181   6.596
 5932POPC   C3B74313   2.239  41.023   6.879
 5932POPC   C4B74314   2.082  40.965   7.263
 5933POPC   NC374315   7.852  18.540   5.235
 5933POPC   PO474316   7.338  18.125   5.525
 5933POPC   GL174317   7.279  18.320   5.908
 5933POPC   GL274318   7.439  18.628   5.800
 5933POPC   C1A74319   7.376  18.128   6.305
 5933POPC   D2A74320   7.629  18.055   6.669
 5933POPC   C3A74321   7.481  18.062   7.090
 5933POPC   C4A74322   7.767  18.278   7.341
 5933POPC   C1B74323   7.588  18.604   6.233
 5933POPC   C2B74324   7.403  18.550   6.618
 5933POPC   C3B74325   7.349  18.544   7.029
 5933POPC   C4B74326   7.104  18.826   7.252
 5934POPC   NC374327  15.150   0.808   5.368
 5934POPC   PO474328  15.419   0.175   5.467
 5934POPC   GL174329  15.167   0.433   5.780
 5934POPC   GL274330  15.325   0.775   5.841
 5934POPC   C1A74331  14.956   0.264   6.161
 5934POPC   D2A74332  15.145   0.139   6.571
 5934POPC   C3A74333  14.953   0.207   6.956
 5934POPC   C4A74334  15.017   0.392   7.340
 5934POPC   C1B74335  14.967   0.773   6.130
 5934POPC   C2B74336  14.933   0.602   6.566
 5934POPC   C3B74337  15.163   0.690   6.937
 5934POPC   C4B74338  14.964   0.914   7.238
 5935POPC   NC374339   4.943  26.136   5.396
 5935POPC   PO474340   5.485  25.810   5.353
 5935POPC   GL174341   5.310  26.026   5.741
 5935POPC   GL274342   4.996  25.846   5.792
 5935POPC   C1A74343   5.237  26.182   6.193
 5935POPC   D2A74344   5.045  26.379   6.577
 5935POPC   C3A74345   4.982  26.087   6.929
 5935POPC   C4A74346   4.642  26.083   7.235
 5935POPC   C1B74347   5.228  25.682   6.122
 5935POPC   C2B74348   5.090  25.706   6.533
 5935POPC   C3B74349   5.072  25.550   6.938
 5935POPC   C4B74350   4.978  25.718   7.297
 5936POPC   NC374351   1.465   3.635   5.057
 5936POPC   PO474352   1.040   3.650   5.534
 5936POPC   GL174353   1.108   3.685   5.927
 5936POPC   GL274354   1.290   3.383   6.021
 5936POPC   C1A74355   1.139   3.754   6.339
 5936POPC   D2A74356   1.332   3.566   6.643
 5936POPC   C3A74357   1.230   3.764   6.982
 5936POPC   C4A74358   1.238   3.696   7.426
 5936POPC   C1B74359   1.382   3.134   6.358
 5936POPC   C2B74360   1.013   3.179   6.591
 5936POPC   C3B74361   1.019   3.293   7.029
 5936POPC   C4B74362   0.747   3.025   7.288
 5937POPC   NC374363  26.015  19.512   5.428
 5937POPC   PO474364  25.718  18.868   5.497
 5937POPC   GL174365  25.958  19.092   5.768
 5937POPC   GL274366  26.305  18.958   5.695
 5937POPC   C1A74367  25.843  19.039   6.192
 5937POPC   D2A74368  25.686  18.784   6.540
 5937POPC   C3A74369  25.726  18.969   6.977
 5937POPC   C4A74370  25.983  19.125   7.310
 5937POPC   C1B74371  26.349  19.121   6.134
 5937POPC   C2B74372  26.176  19.040   6.576
 5937POPC   C3B74373  26.370  19.025   6.974
 5937POPC   C4B74374  26.411  19.389   7.234
 5938POPC   NC374375  41.416  15.045   5.566
 5938POPC   PO474376  41.807  15.584   5.436
 5938POPC   GL174377  41.727  15.387   5.839
 5938POPC   GL274378  41.381  15.350   5.972
 5938POPC   C1A74379  41.847  15.178   6.231
 5938POPC   D2A74380  42.009  15.147   6.655
 5938POPC   C3A74381  41.768  14.997   6.989
 5938POPC   C4A74382  41.742  15.219   7.326
 5938POPC   C1B74383  41.348  15.000   6.274
 5938POPC   C2B74384  41.325  14.925   6.724
 5938POPC   C3B74385  41.172  14.968   7.162
 5938POPC   C4B74386  41.251  15.257   7.535
 5939POPC   NC374387  38.573  19.051   5.436
 5939POPC   PO474388  38.119  19.511   5.529
 5939POPC   GL174389  38.377  19.288   5.861
 5939POPC   GL274390  38.419  18.905   5.894
 5939POPC   C1A74391  38.702  19.223   6.188
 5939POPC   D2A74392  38.706  18.930   6.537
 5939POPC   C3A74393  38.404  19.075   6.830
 5939POPC   C4A74394  38.491  19.106   7.241
 5939POPC   C1B74395  38.222  18.948   6.304
 5939POPC   C2B74396  38.212  18.648   6.653
 5939POPC   C3B74397  38.312  18.621   7.106
 5939POPC   C4B74398  38.138  18.798   7.447
 5940POPC   NC374399  44.430  33.392   5.540
 5940POPC   PO474400  44.717  33.978   5.258
 5940POPC   GL174401  44.638  34.072   5.684
 5940POPC   GL274402  44.643  33.724   5.844
 5940POPC   C1A74403  44.735  34.102   6.135
 5940POPC   D2A74404  44.538  33.990   6.482
 5940POPC   C3A74405  44.759  33.913   6.825
 5940POPC   C4A74406  44.719  34.112   7.192
 5940POPC   C1B74407  44.948  33.601   6.165
 5940POPC   C2B74408  45.000  33.401   6.555
 5940POPC   C3B74409   0.130  33.560   6.920
 5940POPC   C4B74410  44.843  33.600   7.238
 5941POPC   NC374411  14.860   3.813   5.600
 5941POPC   PO474412  14.353   3.401   5.461
 5941POPC   GL174413  14.468   3.463   5.859
 5941POPC   GL274414  14.450   3.805   5.940
 5941POPC   C1A74415  14.481   3.415   6.293
 5941POPC   D2A74416  14.271   3.689   6.570
 5941POPC   C3A74417  14.179   3.545   6.988
 5941POPC   C4A74418  14.146   3.772   7.386
 5941POPC   C1B74419  14.782   3.843   6.280
 5941POPC   C2B74420  14.689   3.970   6.705
 5941POPC   C3B74421  14.654   3.729   7.088
 5941POPC   C4B74422  14.673   3.790   7.522
 5942POPC   NC374423  43.923   9.487   5.414
 5942POPC   PO474424  44.399   9.920   5.571
 5942POPC   GL174425  44.160   9.769   5.841
 5942POPC   GL274426  43.857   9.848   5.776
 5942POPC   C1A74427  44.159   9.599   6.240
 5942POPC   D2A74428  44.207   9.436   6.646
 5942POPC   C3A74429  44.077   9.720   6.970
 5942POPC   C4A74430  44.202   9.635   7.354
 5942POPC   C1B74431  43.658   9.706   6.147
 5942POPC   C2B74432  43.754   9.683   6.564
 5942POPC   C3B74433  43.618   9.455   6.907
 5942POPC   C4B74434  43.658   9.542   7.330
 5943POPC   NC374435  36.123   7.547   5.160
 5943POPC   PO474436  36.124   6.978   5.397
 5943POPC   GL174437  36.019   7.323   5.664
 5943POPC   GL274438  36.339   7.339   5.798
 5943POPC   C1A74439  35.948   7.600   6.033
 5943POPC   D2A74440  36.179   7.599   6.419
 5943POPC   C3A74441  36.051   7.533   6.844
 5943POPC   C4A74442  36.292   7.496   7.251
 5943POPC   C1B74443  36.198   7.153   6.184
 5943POPC   C2B74444  36.079   7.074   6.607
 5943POPC   C3B74445  36.246   7.028   7.018
 5943POPC   C4B74446  36.142   7.027   7.449
 5944POPC   NC374447  37.645  18.733   5.408
 5944POPC   PO474448  37.495  18.113   5.206
 5944POPC   GL174449  37.694  18.206   5.612
 5944POPC   GL274450  37.498  18.429   5.800
 5944POPC   C1A74451  37.826  18.138   6.061
 5944POPC   D2A74452  37.861  18.296   6.478
 5944POPC   C3A74453  38.041  18.216   6.886
 5944POPC   C4A74454  37.982  18.283   7.334
 5944POPC   C1B74455  37.367  18.485   6.237
 5944POPC   C2B74456  37.366  18.392   6.680
 5944POPC   C3B74457  37.353  18.476   7.107
 5944POPC   C4B74458  37.487  18.334   7.513
 5945POPC   NC374459   1.050  19.315   5.522
 5945POPC   PO474460   1.270  18.679   5.558
 5945POPC   GL174461   1.330  18.998   5.903
 5945POPC   GL274462   1.009  19.163   6.000
 5945POPC   C1A74463   1.315  19.020   6.373
 5945POPC   D2A74464   1.459  18.965   6.774
 5945POPC   C3A74465   1.404  19.307   7.012
 5945POPC   C4A74466   1.105  19.360   7.314
 5945POPC   C1B74467   0.936  18.734   6.187
 5945POPC   C2B74468   1.019  18.676   6.608
 5945POPC   C3B74469   0.925  18.739   6.979
 5945POPC   C4B74470   1.241  18.834   7.230
 5946POPC   NC374471  43.205   8.363   5.225
 5946POPC   PO474472  43.217   7.739   5.365
 5946POPC   GL174473  43.355   8.002   5.750
 5946POPC   GL274474  43.331   8.392   5.719
 5946POPC   C1A74475  43.217   8.177   6.187
 5946POPC   D2A74476  43.038   8.254   6.618
 5946POPC   C3A74477  43.153   8.115   7.045
 5946POPC   C4A74478  42.963   8.330   7.420
 5946POPC   C1B74479  43.400   8.661   6.092
 5946POPC   C2B74480  43.517   8.503   6.507
 5946POPC   C3B74481  43.339   8.595   6.924
 5946POPC   C4B74482  43.436   8.541   7.352
 5947POPC   NC374483   2.989  32.670   5.637
 5947POPC   PO474484   2.585  32.209   5.583
 5947POPC   GL174485   2.784  32.234   5.942
 5947POPC   GL274486   2.572  32.110   6.224
 5947POPC   C1A74487   2.965  32.424   6.296
 5947POPC   D2A74488   3.187  32.364   6.690
 5947POPC   C3A74489   2.927  32.544   7.000
 5947POPC   C4A74490   2.508  32.573   7.205
 5947POPC   C1B74491   2.956  31.918   6.343
 5947POPC   C2B74492   3.103  31.824   6.751
 5947POPC   C3B74493   2.825  32.043   7.055
 5947POPC   C4B74494   2.475  32.031   7.345
 5948POPC   NC374495  43.535  39.176   5.431
 5948POPC   PO474496  42.873  39.087   5.439
 5948POPC   GL174497  42.873  39.205   5.850
 5948POPC   GL274498  43.201  39.351   5.810
 5948POPC   C1A74499  42.981  39.331   6.260
 5948POPC   D2A74500  43.139  39.103   6.598
 5948POPC   C3A74501  43.033  39.374   6.883
 5948POPC   C4A74502  43.009  39.216   7.216
 5948POPC   C1B74503  43.422  39.097   6.161
 5948POPC   C2B74504  43.634  39.173   6.561
 5948POPC   C3B74505  43.485  39.189   7.001
 5948POPC   C4B74506  43.454  39.162   7.455
 5949POPC   NC374507  29.071  22.648   5.526
 5949POPC   PO474508  29.347  23.320   5.483
 5949POPC   GL174509  29.150  23.090   5.804
 5949POPC   GL274510  28.798  23.102   5.719
 5949POPC   C1A74511  29.193  22.862   6.207
 5949POPC   D2A74512  29.380  22.826   6.641
 5949POPC   C3A74513  29.105  22.812   7.003
 5949POPC   C4A74514  29.161  22.861   7.429
 5949POPC   C1B74515  28.790  23.229   6.169
 5949POPC   C2B74516  28.887  23.081   6.615
 5949POPC   C3B74517  28.842  23.249   7.075
 5949POPC   C4B74518  28.821  23.249   7.538
 5950POPC   NC374519  32.844   1.728   5.376
 5950POPC   PO474520  33.255   2.220   5.396
 5950POPC   GL174521  33.026   2.134   5.766
 5950POPC   GL274522  32.916   1.798   5.881
 5950POPC   C1A74523  32.983   2.210   6.211
 5950POPC   D2A74524  33.053   1.960   6.578
 5950POPC   C3A74525  33.195   2.103   6.985
 5950POPC   C4A74526  33.202   1.811   7.334
 5950POPC   C1B74527  32.645   1.744   6.239
 5950POPC   C2B74528  32.559   1.909   6.648
 5950POPC   C3B74529  32.725   1.935   7.048
 5950POPC   C4B74530  32.725   1.560   7.267
 5951POPC   NC374531  10.887  20.534   5.278
 5951POPC   PO474532  10.255  20.717   5.511
 5951POPC   GL174533  10.472  20.602   5.878
 5951POPC   GL274534  10.795  20.445   5.823
 5951POPC   C1A74535  10.711  20.745   6.239
 5951POPC   D2A74536  10.602  20.582   6.637
 5951POPC   C3A74537  10.636  20.735   7.052
 5951POPC   C4A74538  10.612  20.430   7.443
 5951POPC   C1B74539  11.009  20.312   6.213
 5951POPC   C2B74540  10.884  20.101   6.597
 5951POPC   C3B74541  10.809  20.246   7.005
 5951POPC   C4B74542  11.049  20.556   7.254
 5952POPC   NC374543  29.074   1.053   5.619
 5952POPC   PO474544  29.219   1.567   5.221
 5952POPC   GL174545  29.160   1.599   5.696
 5952POPC   GL274546  28.858   1.425   5.873
 5952POPC   C1A74547  29.277   1.497   6.138
 5952POPC   D2A74548  29.064   1.288   6.492
 5952POPC   C3A74549  29.267   1.286   6.881
 5952POPC   C4A74550  29.197   1.154   7.282
 5952POPC   C1B74551  28.705   1.084   6.196
 5952POPC   C2B74552  28.769   0.861   6.602
 5952POPC   C3B74553  28.950   0.819   6.986
 5952POPC   C4B74554  28.744   0.903   7.335
 5953POPC   NC374555  34.183  38.064   5.692
 5953POPC   PO474556  33.780  37.520   5.431
 5953POPC   GL174557  33.761  37.517   5.862
 5953POPC   GL274558  34.116  37.469   5.828
 5953POPC   C1A74559  33.653  37.757   6.258
 5953POPC   D2A74560  33.750  37.956   6.665
 5953POPC   C3A74561  33.564  37.765   7.036
 5953POPC   C4A74562  33.693  37.412   7.303
 5953POPC   C1B74563  34.128  37.615   6.238
 5953POPC   C2B74564  34.270  37.536   6.646
 5953POPC   C3B74565  34.085  37.605   7.016
 5953POPC   C4B74566  34.279  37.337   7.294
 5954POPC   NC374567  41.962  11.198   5.589
 5954POPC   PO474568  41.432  11.517   5.276
 5954POPC   GL174569  41.547  11.450   5.733
 5954POPC   GL274570  41.838  11.676   5.735
 5954POPC   C1A74571  41.505  11.201   6.165
 5954POPC   D2A74572  41.453  11.017   6.607
 5954POPC   C3A74573  41.508  11.244   7.003
 5954POPC   C4A74574  41.142  11.479   7.120
 5954POPC   C1B74575  41.760  11.645   6.170
 5954POPC   C2B74576  41.485  11.590   6.538
 5954POPC   C3B74577  41.522  11.783   6.945
 5954POPC   C4B74578  41.837  11.609   7.225
 5955POPC   NC374579  14.662   5.505   5.522
 5955POPC   PO474580  14.545   4.867   5.406
 5955POPC   GL174581  14.349   5.108   5.785
 5955POPC   GL274582  14.051   5.319   5.764
 5955POPC   C1A74583  14.386   5.021   6.258
 5955POPC   D2A74584  14.340   4.659   6.582
 5955POPC   C3A74585  14.518   4.726   6.994
 5955POPC   C4A74586  14.583   5.154   7.075
 5955POPC   C1B74587  13.906   4.997   6.086
 5955POPC   C2B74588  13.883   5.013   6.539
 5955POPC   C3B74589  14.085   5.221   6.878
 5955POPC   C4B74590  14.133   4.974   7.233
 5956POPC   NC374591  35.944  41.162   5.697
 5956POPC   PO474592  36.170  40.672   5.297
 5956POPC   GL174593  35.976  40.655   5.765
 5956POPC   GL274594  35.751  40.355   5.795
 5956POPC   C1A74595  36.093  40.840   6.254
 5956POPC   D2A74596  36.291  40.803   6.690
 5956POPC   C3A74597  36.191  41.039   7.079
 5956POPC   C4A74598  36.386  40.946   7.471
 5956POPC   C1B74599  35.983  40.338   6.183
 5956POPC   C2B74600  35.841  40.467   6.573
 5956POPC   C3B74601  35.890  40.601   6.973
 5956POPC   C4B74602  36.278  40.547   7.178
 5957POPC   NC374603  17.419  31.741   5.289
 5957POPC   PO474604  17.646  31.187   5.341
 5957POPC   GL174605  17.342  31.380   5.682
 5957POPC   GL274606  17.343  31.761   5.793
 5957POPC   C1A74607  17.397  31.361   6.126
 5957POPC   D2A74608  17.680  31.527   6.426
 5957POPC   C3A74609  17.606  31.479   6.857
 5957POPC   C4A74610  17.719  31.515   7.279
 5957POPC   C1B74611  17.142  31.811   6.190
 5957POPC   C2B74612  17.165  31.536   6.564
 5957POPC   C3B74613  17.092  31.670   6.980
 5957POPC   C4B74614  17.205  31.641   7.407
 5958POPC   NC374615  42.077  24.455   5.210
 5958POPC   PO474616  42.664  24.687   5.482
 5958POPC   GL174617  42.467  24.439   5.775
 5958POPC   GL274618  42.115  24.427   5.717
 5958POPC   C1A74619  42.351  24.596   6.196
 5958POPC   D2A74620  42.581  24.615   6.576
 5958POPC   C3A74621  42.325  24.631   6.925
 5958POPC   C4A74622  42.461  24.557   7.334
 5958POPC   C1B74623  42.032  24.198   6.106
 5958POPC   C2B74624  42.114  24.303   6.550
 5958POPC   C3B74625  41.934  24.098   6.903
 5958POPC   C4B74626  42.040  24.173   7.310
 5959POPC   NC374627  25.507   3.238   5.580
 5959POPC   PO474628  25.043   2.909   5.141
 5959POPC   GL174629  25.271   2.765   5.556
 5959POPC   GL274630  25.624   2.743   5.706
 5959POPC   C1A74631  25.182   2.724   6.024
 5959POPC   D2A74632  25.137   2.826   6.490
 5959POPC   C3A74633  25.255   2.539   6.819
 5959POPC   C4A74634  25.466   2.584   7.193
 5959POPC   C1B74635  25.629   2.954   6.140
 5959POPC   C2B74636  25.707   3.066   6.562
 5959POPC   C3B74637  25.473   3.067   6.938
 5959POPC   C4B74638  25.565   3.047   7.389
 5960POPC   NC374639  24.646  16.315   5.512
 5960POPC   PO474640  24.173  15.850   5.464
 5960POPC   GL174641  24.237  16.163   5.804
 5960POPC   GL274642  24.568  16.023   5.945
 5960POPC   C1A74643  24.290  16.370   6.220
 5960POPC   D2A74644  24.482  16.112   6.560
 5960POPC   C3A74645  24.245  15.856   6.854
 5960POPC   C4A74646  24.211  15.923   7.290
 5960POPC   C1B74647  24.829  16.313   6.214
 5960POPC   C2B74648  24.890  16.391   6.676
 5960POPC   C3B74649  24.708  16.199   7.089
 5960POPC   C4B74650  24.772  16.171   7.552
 5961POPC   NC374651  37.203   5.224   5.460
 5961POPC   PO474652  36.726   4.671   5.537
 5961POPC   GL174653  36.743   5.095   5.705
 5961POPC   GL274654  36.442   5.307   5.641
 5961POPC   C1A74655  36.938   5.309   6.065
 5961POPC   D2A74656  37.176   5.252   6.460
 5961POPC   C3A74657  37.035   5.369   6.868
 5961POPC   C4A74658  37.159   5.156   7.249
 5961POPC   C1B74659  36.421   5.202   6.087
 5961POPC   C2B74660  36.641   5.344   6.473
 5961POPC   C3B74661  36.514   5.305   6.878
 5961POPC   C4B74662  36.434   5.098   7.254
 5962POPC   NC374663  27.217  41.079   5.461
 5962POPC   PO474664  26.869  41.626   5.258
 5962POPC   GL174665  26.920  41.674   5.821
 5962POPC   GL274666  26.578  41.841   5.962
 5962POPC   C1A74667  26.899  41.371   6.177
 5962POPC   D2A74668  26.570  41.177   6.412
 5962POPC   C3A74669  26.735  41.261   6.787
 5962POPC   C4A74670  27.034  41.390   7.093
 5962POPC   C1B74671  26.546  41.688   6.374
 5962POPC   C2B74672  26.798  41.747   6.725
 5962POPC   C3B74673  26.538  41.666   7.066
 5962POPC   C4B74674  26.415  41.963   7.406
 5963POPC   NC374675  14.602  21.575   5.256
 5963POPC   PO474676  15.289  21.510   5.255
 5963POPC   GL174677  15.288  21.414   5.732
 5963POPC   GL274678  15.026  21.244   5.785
 5963POPC   C1A74679  15.422  21.286   6.179
 5963POPC   D2A74680  15.514  21.579   6.533
 5963POPC   C3A74681  15.556  21.370   6.954
 5963POPC   C4A74682  15.446  21.486   7.380
 5963POPC   C1B74683  14.922  21.412   6.212
 5963POPC   C2B74684  15.054  21.404   6.672
 5963POPC   C3B74685  15.046  21.267   7.094
 5963POPC   C4B74686  14.981  21.171   7.542
 5964POPC   NC374687  24.572  29.866   5.398
 5964POPC   PO474688  24.625  30.501   5.514
 5964POPC   GL174689  24.690  30.148   5.841
 5964POPC   GL274690  24.786  29.787   5.852
 5964POPC   C1A74691  24.520  29.973   6.252
 5964POPC   D2A74692  24.296  29.872   6.626
 5964POPC   C3A74693  24.564  29.963   6.972
 5964POPC   C4A74694  24.446  30.226   7.313
 5964POPC   C1B74695  24.961  29.700   6.241
 5964POPC   C2B74696  24.755  29.623   6.630
 5964POPC   C3B74697  24.844  29.529   7.074
 5964POPC   C4B74698  24.658  29.751   7.438
 5965POPC   NC374699   1.450   8.904   5.243
 5965POPC   PO474700   0.934   9.243   5.541
 5965POPC   GL174701   1.129   8.983   5.834
 5965POPC   GL274702   1.466   8.877   5.785
 5965POPC   C1A74703   1.236   8.813   6.228
 5965POPC   D2A74704   0.998   8.865   6.571
 5965POPC   C3A74705   1.184   8.864   6.959
 5965POPC   C4A74706   1.151   8.680   7.321
 5965POPC   C1B74707   1.625   9.144   6.155
 5965POPC   C2B74708   1.549   9.066   6.587
 5965POPC   C3B74709   1.564   9.259   6.985
 5965POPC   C4B74710   1.462   9.085   7.380
 5966POPC   NC374711  44.442  12.618   5.361
 5966POPC   PO474712   0.070  12.671   5.177
 5966POPC   GL174713  44.795  12.737   5.666
 5966POPC   GL274714  44.794  13.058   5.842
 5966POPC   C1A74715  44.738  12.628   6.117
 5966POPC   D2A74716  44.801  12.728   6.540
 5966POPC   C3A74717  44.526  12.597   6.841
 5966POPC   C4A74718  44.647  12.616   7.258
 5966POPC   C1B74719   0.034  13.091   6.231
 5966POPC   C2B74720  44.951  13.215   6.642
 5966POPC   C3B74721  44.809  13.018   6.994
 5966POPC   C4B74722  44.605  13.109   7.384
 5967POPC   NC374723  15.875   2.248   5.276
 5967POPC   PO474724  15.249   2.012   5.393
 5967POPC   GL174725  15.163   2.136   5.807
 5967POPC   GL274726  15.536   2.134   5.869
 5967POPC   C1A74727  15.006   2.011   6.216
 5967POPC   D2A74728  15.175   2.037   6.609
 5967POPC   C3A74729  14.948   1.913   6.926
 5967POPC   C4A74730  14.843   1.944   7.346
 5967POPC   C1B74731  15.388   1.720   6.058
 5967POPC   C2B74732  15.279   1.549   6.475
 5967POPC   C3B74733  15.401   1.622   6.899
 5967POPC   C4B74734  15.340   1.872   7.265
 5968POPC   NC374735  16.198  27.675   5.628
 5968POPC   PO474736  15.570  27.902   5.524
 5968POPC   GL174737  15.743  27.601   5.855
 5968POPC   GL274738  16.030  27.714   6.093
 5968POPC   C1A74739  15.719  27.295   6.208
 5968POPC   D2A74740  15.824  27.192   6.653
 5968POPC   C3A74741  15.910  27.577   6.926
 5968POPC   C4A74742  16.269  27.844   7.135
 5968POPC   C1B74743  15.741  28.027   6.180
 5968POPC   C2B74744  15.573  27.956   6.551
 5968POPC   C3B74745  15.459  27.897   6.928
 5968POPC   C4B74746  15.759  27.977   7.231
 5969POPC   NC374747  25.328  18.805   5.262
 5969POPC   PO474748  24.841  19.222   5.264
 5969POPC   GL174749  25.128  19.080   5.643
 5969POPC   GL274750  25.437  19.289   5.647
 5969POPC   C1A74751  25.343  18.975   6.061
 5969POPC   D2A74752  25.229  19.034   6.511
 5969POPC   C3A74753  25.273  18.755   6.856
 5969POPC   C4A74754  25.162  19.020   7.157
 5969POPC   C1B74755  25.557  19.479   6.032
 5969POPC   C2B74756  25.604  19.396   6.470
 5969POPC   C3B74757  25.445  19.405   6.870
 5969POPC   C4B74758  25.564  19.391   7.260
 5970POPC   NC374759  39.025  26.505   5.507
 5970POPC   PO474760  39.296  27.204   5.324
 5970POPC   GL174761  39.336  27.222   5.767
 5970POPC   GL274762  39.153  26.905   5.838
 5970POPC   C1A74763  39.121  27.276   6.184
 5970POPC   D2A74764  38.971  27.005   6.551
 5970POPC   C3A74765  39.269  26.988   6.879
 5970POPC   C4A74766  39.188  26.989   7.291
 5970POPC   C1B74767  39.328  26.763   6.255
 5970POPC   C2B74768  39.226  26.518   6.629
 5970POPC   C3B74769  38.950  26.592   6.974
 5970POPC   C4B74770  39.008  26.478   7.392
 5971POPC   NC374771  22.764   2.363   5.472
 5971POPC   PO474772  23.176   2.949   5.529
 5971POPC   GL174773  22.795   2.824   5.757
 5971POPC   GL274774  22.565   3.129   5.785
 5971POPC   C1A74775  22.861   2.565   6.151
 5971POPC   D2A74776  23.182   2.563   6.490
 5971POPC   C3A74777  22.973   2.601   6.906
 5971POPC   C4A74778  23.097   2.434   7.303
 5971POPC   C1B74779  22.844   3.095   6.189
 5971POPC   C2B74780  23.042   3.039   6.621
 5971POPC   C3B74781  22.892   3.122   7.058
 5971POPC   C4B74782  22.934   2.895   7.462
 5972POPC   NC374783  40.724  42.891   5.423
 5972POPC   PO474784  40.540  42.207   5.462
 5972POPC   GL174785  40.836  42.334   5.809
 5972POPC   GL274786  41.180  42.151   5.884
 5972POPC   C1A74787  40.940  42.534   6.201
 5972POPC   D2A74788  40.833  42.700   6.600
 5972POPC   C3A74789  40.945  42.445   6.927
 5972POPC   C4A74790  40.640  42.202   7.150
 5972POPC   C1B74791  40.901  42.018   6.224
 5972POPC   C2B74792  41.077  42.023   6.635
 5972POPC   C3B74793  41.089  41.978   7.072
 5972POPC   C4B74794  41.084  41.937   7.510
 5973POPC   NC374795  34.339  25.538   5.447
 5973POPC   PO474796  34.979  25.635   5.321
 5973POPC   GL174797  34.806  25.414   5.718
 5973POPC   GL274798  34.675  25.065   5.741
 5973POPC   C1A74799  34.696  25.331   6.193
 5973POPC   D2A74800  34.772  25.305   6.676
 5973POPC   C3A74801  34.428  25.457   7.019
 5973POPC   C4A74802  34.357  25.356   7.523
 5973POPC   C1B74803  34.343  24.922   6.070
 5973POPC   C2B74804  34.234  24.825   6.491
 5973POPC   C3B74805  34.460  24.936   6.844
 5973POPC   C4B74806  34.640  25.039   7.236
 5974POPC   NC374807  20.857   2.766   5.620
 5974POPC   PO474808  21.416   2.742   5.226
 5974POPC   GL174809  21.428   2.660   5.720
 5974POPC   GL274810  21.155   2.506   5.937
 5974POPC   C1A74811  21.496   2.870   6.145
 5974POPC   D2A74812  21.599   3.012   6.564
 5974POPC   C3A74813  21.259   2.961   6.827
 5974POPC   C4A74814  21.330   2.960   7.226
 5974POPC   C1B74815  21.499   2.334   6.185
 5974POPC   C2B74816  21.570   2.481   6.586
 5974POPC   C3B74817  21.651   2.648   6.985
 5974POPC   C4B74818  21.585   2.453   7.384
 5975POPC   NC374819  18.744  44.165   5.506
 5975POPC   PO474820  18.980  43.519   5.391
 5975POPC   GL174821  19.125  43.663   5.821
 5975POPC   GL274822  19.050  44.015   5.901
 5975POPC   C1A74823  19.120  43.714   6.292
 5975POPC   D2A74824  19.132  44.052   6.590
 5975POPC   C3A74825  19.103  43.831   6.964
 5975POPC   C4A74826  19.019  43.653   7.342
 5975POPC   C1B74827  18.719  44.170   6.210
 5975POPC   C2B74828  18.613  44.324   6.664
 5975POPC   C3B74829  18.711  44.161   7.117
 5975POPC   C4B74830  18.999  44.142   7.505
 5976POPC   NC374831  15.358  29.624   5.379
 5976POPC   PO474832  15.098  30.236   5.234
 5976POPC   GL174833  15.321  30.144   5.631
 5976POPC   GL274834  15.137  29.858   5.768
 5976POPC   C1A74835  15.300  30.205   6.112
 5976POPC   D2A74836  15.210  29.967   6.509
 5976POPC   C3A74837  15.253  30.147   6.927
 5976POPC   C4A74838  15.255  29.960   7.330
 5976POPC   C1B74839  15.375  29.673   6.122
 5976POPC   C2B74840  15.559  29.593   6.547
 5976POPC   C3B74841  15.363  29.649   6.921
 5976POPC   C4B74842  15.502  29.494   7.256
 5977POPC   NC374843  30.804  15.717   5.307
 5977POPC   PO474844  30.395  16.223   5.452
 5977POPC   GL174845  30.540  15.949   5.812
 5977POPC   GL274846  30.824  15.700   5.825
 5977POPC   C1A74847  30.823  16.085   6.173
 5977POPC   D2A74848  30.840  16.258   6.603
 5977POPC   C3A74849  30.583  16.044   6.885
 5977POPC   C4A74850  30.320  16.157   7.217
 5977POPC   C1B74851  31.080  15.634   6.189
 5977POPC   C2B74852  30.964  15.489   6.603
 5977POPC   C3B74853  30.906  15.561   7.023
 5977POPC   C4B74854  30.991  15.950   7.190
 5978POPC   NC374855  14.655  34.667   5.399
 5978POPC   PO474856  14.151  34.133   5.472
 5978POPC   GL174857  14.457  34.302   5.775
 5978POPC   GL274858  14.320  34.643   5.844
 5978POPC   C1A74859  14.517  34.362   6.226
 5978POPC   D2A74860  14.414  34.626   6.561
 5978POPC   C3A74861  14.577  34.403   6.891
 5978POPC   C4A74862  14.527  34.409   7.281
 5978POPC   C1B74863  14.642  34.837   6.127
 5978POPC   C2B74864  14.780  34.994   6.562
 5978POPC   C3B74865  14.631  34.927   7.003
 5978POPC   C4B74866  14.629  34.887   7.467
 5979POPC   NC374867  37.250  14.242   5.189
 5979POPC   PO474868  36.766  14.574   5.440
 5979POPC   GL174869  36.878  14.453   5.859
 5979POPC   GL274870  36.954  14.107   5.762
 5979POPC   C1A74871  36.932  14.459   6.318
 5979POPC   D2A74872  37.133  14.555   6.706
 5979POPC   C3A74873  36.768  14.512   6.931
 5979POPC   C4A74874  36.519  14.324   7.214
 5979POPC   C1B74875  36.922  13.962   6.207
 5979POPC   C2B74876  37.022  13.879   6.658
 5979POPC   C3B74877  37.094  14.127   7.045
 5979POPC   C4B74878  36.882  14.035   7.435
 5980POPC   NC374879  13.454  10.377   5.461
 5980POPC   PO474880  13.983  10.744   5.402
 5980POPC   GL174881  13.783  10.746   5.797
 5980POPC   GL274882  13.841  10.397   5.797
 5980POPC   C1A74883  13.878  10.911   6.234
 5980POPC   D2A74884  13.954  10.908   6.703
 5980POPC   C3A74885  13.568  10.824   6.999
 5980POPC   C4A74886  13.217  10.660   7.236
 5980POPC   C1B74887  13.520  10.403   6.114
 5980POPC   C2B74888  13.554  10.585   6.494
 5980POPC   C3B74889  13.554  10.358   6.845
 5980POPC   C4B74890  13.658  10.375   7.248
 5981POPC   NC374891  42.118  30.154   5.059
 5981POPC   PO474892  42.305  29.703   5.552
 5981POPC   GL174893  42.416  29.872   5.928
 5981POPC   GL274894  42.624  30.147   5.791
 5981POPC   C1A74895  42.363  29.824   6.380
 5981POPC   D2A74896  42.118  29.985   6.696
 5981POPC   C3A74897  41.986  29.734   7.033
 5981POPC   C4A74898  42.068  29.815   7.442
 5981POPC   C1B74899  42.545  30.317   6.171
 5981POPC   C2B74900  42.712  30.271   6.556
 5981POPC   C3B74901  42.592  30.074   6.913
 5981POPC   C4B74902  42.488  30.192   7.317
 5982POPC   NC374903  41.729   3.544   5.461
 5982POPC   PO474904  41.215   3.037   5.444
 5982POPC   GL174905  41.390   3.305   5.783
 5982POPC   GL274906  41.325   3.686   5.764
 5982POPC   C1A74907  41.424   3.312   6.229
 5982POPC   D2A74908  41.554   3.538   6.582
 5982POPC   C3A74909  41.422   3.350   6.943
 5982POPC   C4A74910  41.652   3.590   7.213
 5982POPC   C1B74911  41.394   3.846   6.189
 5982POPC   C2B74912  41.490   4.073   6.588
 5982POPC   C3B74913  41.363   3.974   7.006
 5982POPC   C4B74914  41.125   3.661   7.208
 5983POPC   NC374915   4.913  40.299   5.474
 5983POPC   PO474916   5.106  39.662   5.427
 5983POPC   GL174917   5.253  39.922   5.767
 5983POPC   GL274918   5.389  40.235   5.676
 5983POPC   C1A74919   5.175  39.893   6.209
 5983POPC   D2A74920   5.198  39.624   6.561
 5983POPC   C3A74921   5.151  39.860   6.908
 5983POPC   C4A74922   4.994  40.151   7.186
 5983POPC   C1B74923   5.537  40.248   6.132
 5983POPC   C2B74924   5.545  40.069   6.572
 5983POPC   C3B74925   5.502  40.250   7.010
 5983POPC   C4B74926   5.464  40.297   7.471
 5984POPC   NC374927  12.348  44.478   5.492
 5984POPC   PO474928  11.756  44.882   5.551
 5984POPC   GL174929  12.084  44.765   5.871
 5984POPC   GL274930  12.220  44.430   6.041
 5984POPC   C1A74931  12.029  44.835   6.303
 5984POPC   D2A74932  12.152  44.467   6.577
 5984POPC   C3A74933  12.253  44.515   6.986
 5984POPC   C4A74934  12.201  44.764   7.359
 5984POPC   C1B74935  11.788  44.377   6.243
 5984POPC   C2B74936  11.687  44.160   6.583
 5984POPC   C3B74937  11.608  44.308   6.965
 5984POPC   C4B74938  11.878  44.345   7.304
 5985POPC   NC374939   8.287  12.722   5.369
 5985POPC   PO474940   7.922  13.354   5.430
 5985POPC   GL174941   8.040  13.019   5.803
 5985POPC   GL274942   8.278  12.743   5.858
 5985POPC   C1A74943   8.282  13.062   6.253
 5985POPC   D2A74944   8.429  13.316   6.655
 5985POPC   C3A74945   8.349  13.047   7.007
 5985POPC   C4A74946   8.032  12.816   7.237
 5985POPC   C1B74947   8.055  12.578   6.177
 5985POPC   C2B74948   8.007  12.718   6.597
 5985POPC   C3B74949   8.171  12.465   6.913
 5985POPC   C4B74950   8.521  12.586   7.177
 5986POPC   NC374951  24.814  34.080   5.437
 5986POPC   PO474952  24.260  34.349   5.343
 5986POPC   GL174953  24.292  34.118   5.730
 5986POPC   GL274954  24.275  33.761   5.638
 5986POPC   C1A74955  24.526  34.124   6.127
 5986POPC   D2A74956  24.433  33.962   6.531
 5986POPC   C3A74957  24.488  34.083   6.963
 5986POPC   C4A74958  24.168  33.856   7.219
 5986POPC   C1B74959  24.413  33.628   6.058
 5986POPC   C2B74960  24.394  33.468   6.486
 5986POPC   C3B74961  24.506  33.562   6.899
 5986POPC   C4B74962  24.886  33.762   7.046
 5987POPC   NC374963  39.537  21.143   5.417
 5987POPC   PO474964  40.229  21.382   5.473
 5987POPC   GL174965  39.999  21.473   5.887
 5987POPC   GL274966  39.728  21.225   5.906
 5987POPC   C1A74967  39.868  21.544   6.327
 5987POPC   D2A74968  39.929  21.358   6.737
 5987POPC   C3A74969  39.848  21.627   7.074
 5987POPC   C4A74970  40.168  21.774   7.358
 5987POPC   C1B74971  39.942  21.056   6.290
 5987POPC   C2B74972  39.913  20.860   6.654
 5987POPC   C3B74973  39.985  20.922   7.062
 5987POPC   C4B74974  39.946  21.201   7.321
 5988POPC   NC374975  34.882  10.262   5.562
 5988POPC   PO474976  34.406  10.693   5.390
 5988POPC   GL174977  34.466  10.501   5.789
 5988POPC   GL274978  34.315  10.222   5.882
 5988POPC   C1A74979  34.709  10.483   6.192
 5988POPC   D2A74980  34.837  10.646   6.590
 5988POPC   C3A74981  34.957  10.609   7.021
 5988POPC   C4A74982  34.678  10.765   7.330
 5988POPC   C1B74983  34.229  10.346   6.284
 5988POPC   C2B74984  34.446  10.311   6.679
 5988POPC   C3B74985  34.383  10.360   7.124
 5988POPC   C4B74986  34.075  10.323   7.460
 5989POPC   NC374987  29.779  23.180   5.446
 5989POPC   PO474988  29.843  22.562   5.498
 5989POPC   GL174989  29.691  22.832   5.838
 5989POPC   GL274990  30.026  22.968   5.917
 5989POPC   C1A74991  29.753  22.783   6.307
 5989POPC   D2A74992  29.925  22.774   6.757
 5989POPC   C3A74993  29.627  22.892   7.082
 5989POPC   C4A74994  29.672  22.885   7.485
 5989POPC   C1B74995  30.230  22.988   6.372
 5989POPC   C2B74996  30.316  23.116   6.817
 5989POPC   C3B74997  30.067  23.127   7.221
 5989POPC   C4B74998  30.174  23.079   7.672
 5990POPC   NC374999  44.595   4.666   5.450
 5990POPC   PO475000   0.114   4.214   5.418
 5990POPC   GL175001  44.867   4.274   5.854
 5990POPC   GL275002  44.585   4.525   5.930
 5990POPC   C1A75003  44.721   4.265   6.335
 5990POPC   D2A75004  44.391   4.134   6.624
 5990POPC   C3A75005  44.452   4.260   7.034
 5990POPC   C4A75006  44.869   4.452   7.088
 5990POPC   C1B75007  44.540   4.764   6.335
 5990POPC   C2B75008  44.491   4.703   6.799
 5990POPC   C3B75009  44.365   4.753   7.232
 5990POPC   C4B75010  44.236   4.825   7.679
 5991POPC   NC375011  24.618   2.690   5.314
 5991POPC   PO475012  24.993   3.179   5.575
 5991POPC   GL175013  24.763   2.858   5.782
 5991POPC   GL275014  24.414   2.854   5.792
 5991POPC   C1A75015  24.702   2.813   6.218
 5991POPC   D2A75016  24.638   3.022   6.583
 5991POPC   C3A75017  24.782   2.759   6.891
 5991POPC   C4A75018  24.914   2.511   7.256
 5991POPC   C1B75019  24.274   3.082   6.202
 5991POPC   C2B75020  24.086   3.027   6.605
 5991POPC   C3B75021  24.335   3.022   6.992
 5991POPC   C4B75022  24.446   2.729   7.296
 5992POPC   NC375023  40.804  30.105   5.203
 5992POPC   PO475024  40.915  30.752   5.452
 5992POPC   GL175025  40.759  30.619   5.816
 5992POPC   GL275026  40.785  30.974   5.928
 5992POPC   C1A75027  40.840  30.367   6.217
 5992POPC   D2A75028  40.916  30.550   6.618
 5992POPC   C3A75029  40.955  30.310   7.031
 5992POPC   C4A75030  40.897  30.349   7.498
 5992POPC   C1B75031  40.535  30.780   6.236
 5992POPC   C2B75032  40.423  30.767   6.656
 5992POPC   C3B75033  40.665  30.766   7.021
 5992POPC   C4B75034  40.620  30.793   7.477
 5993POPC   NC375035  16.371  18.149   5.359
 5993POPC   PO475036  16.875  18.553   5.348
 5993POPC   GL175037  16.772  18.233   5.719
 5993POPC   GL275038  16.537  17.940   5.820
 5993POPC   C1A75039  16.821  18.153   6.183
 5993POPC   D2A75040  16.570  18.296   6.547
 5993POPC   C3A75041  16.729  18.178   6.985
 5993POPC   C4A75042  16.886  18.117   7.402
 5993POPC   C1B75043  16.428  17.837   6.304
 5993POPC   C2B75044  16.362  17.876   6.778
 5993POPC   C3B75045  16.462  17.831   7.244
 5993POPC   C4B75046  16.563  17.765   7.701
 5994POPC   NC375047  20.705  31.844   5.599
 5994POPC   PO475048  21.002  31.328   5.318
 5994POPC   GL175049  20.868  31.430   5.849
 5994POPC   GL275050  20.532  31.580   5.982
 5994POPC   C1A75051  20.810  31.402   6.354
 5994POPC   D2A75052  20.812  31.803   6.588
 5994POPC   C3A75053  20.794  31.769   7.017
 5994POPC   C4A75054  20.790  31.356   7.198
 5994POPC   C1B75055  20.333  31.580   6.371
 5994POPC   C2B75056  20.199  31.305   6.682
 5994POPC   C3B75057  20.312  31.222   7.072
 5994POPC   C4B75058  20.352  31.607   7.279
 5995POPC   NC375059  31.438  29.974   5.301
 5995POPC   PO475060  31.883  29.497   5.567
 5995POPC   GL175061  31.532  29.752   5.796
 5995POPC   GL275062  31.201  29.579   5.785
 5995POPC   C1A75063  31.551  30.081   6.129
 5995POPC   D2A75064  31.462  30.003   6.580
 5995POPC   C3A75065  31.678  30.062   6.979
 5995POPC   C4A75066  31.662  29.720   7.285
 5995POPC   C1B75067  31.106  29.541   6.187
 5995POPC   C2B75068  31.001  29.779   6.527
 5995POPC   C3B75069  31.169  29.783   6.956
 5995POPC   C4B75070  31.175  29.709   7.403
 5996POPC   NC375071  22.516  32.571   5.659
 5996POPC   PO475072  22.713  32.025   5.410
 5996POPC   GL175073  22.936  32.165   5.823
 5996POPC   GL275074  23.113  32.463   5.969
 5996POPC   C1A75075  22.770  32.075   6.258
 5996POPC   D2A75076  22.963  31.964   6.653
 5996POPC   C3A75077  22.786  32.017   7.060
 5996POPC   C4A75078  23.107  31.943   7.388
 5996POPC   C1B75079  22.785  32.578   6.262
 5996POPC   C2B75080  22.764  32.502   6.701
 5996POPC   C3B75081  22.644  32.564   7.086
 5996POPC   C4B75082  22.972  32.445   7.369
 5997POPC   NC375083   7.812  33.947   4.994
 5997POPC   PO475084   7.326  33.794   5.326
 5997POPC   GL175085   7.329  33.683   5.767
 5997POPC   GL275086   7.683  33.625   5.846
 5997POPC   C1A75087   7.361  33.872   6.180
 5997POPC   D2A75088   7.361  33.725   6.596
 5997POPC   C3A75089   7.353  33.946   6.941
 5997POPC   C4A75090   7.446  33.891   7.335
 5997POPC   C1B75091   7.864  33.760   6.268
 5997POPC   C2B75092   7.802  33.931   6.702
 5997POPC   C3B75093   7.883  33.727   7.081
 5997POPC   C4B75094   7.729  33.474   7.456
 5998POPC   NC375095  10.860  27.550   5.354
 5998POPC   PO475096  10.187  27.683   5.454
 5998POPC   GL175097  10.318  27.791   5.864
 5998POPC   GL275098  10.585  27.520   5.855
 5998POPC   C1A75099  10.341  27.684   6.305
 5998POPC   D2A75100  10.604  27.442   6.576
 5998POPC   C3A75101  10.469  27.435   7.000
 5998POPC   C4A75102  10.222  27.545   7.349
 5998POPC   C1B75103  10.826  27.719   6.165
 5998POPC   C2B75104  11.023  27.748   6.582
 5998POPC   C3B75105  10.781  27.846   6.928
 5998POPC   C4B75106  10.657  27.805   7.368
 5999POPC   NC375107   6.737  21.851   5.449
 5999POPC   PO475108   6.409  22.496   5.458
 5999POPC   GL175109   6.657  22.306   5.794
 5999POPC   GL275110   6.575  21.964   5.913
 5999POPC   C1A75111   6.794  22.290   6.238
 5999POPC   D2A75112   6.733  22.040   6.614
 5999POPC   C3A75113   6.862  22.083   7.035
 5999POPC   C4A75114   6.754  22.373   7.328
 5999POPC   C1B75115   6.479  21.733   6.281
 5999POPC   C2B75116   6.281  21.813   6.696
 5999POPC   C3B75117   6.363  22.000   7.106
 5999POPC   C4B75118   6.546  21.976   7.527
 6000POPC   NC375119  11.696  41.283   5.409
 6000POPC   PO475120  11.054  41.194   5.632
 6000POPC   GL175121  11.122  41.635   5.790
 6000POPC   GL275122  11.484  41.734   5.807
 6000POPC   C1A75123  11.157  41.956   6.168
 6000POPC   D2A75124  11.567  41.976   6.446
 6000POPC   C3A75125  11.483  41.984   6.907
 6000POPC   C4A75126  11.503  41.765   7.306
 6000POPC   C1B75127  11.406  41.533   6.207
 6000POPC   C2B75128  11.243  41.572   6.602
 6000POPC   C3B75129  11.501  41.443   6.919
 6000POPC   C4B75130  11.629  41.076   7.141
 6001POPC   NC375131  42.447   2.415   5.349
 6001POPC   PO475132  42.028   3.101   5.341
 6001POPC   GL175133  42.289   2.890   5.673
 6001POPC   GL275134  42.232   2.547   5.817
 6001POPC   C1A75135  42.384   2.973   6.111
 6001POPC   D2A75136  42.206   2.842   6.502
 6001POPC   C3A75137  42.310   3.090   6.843
 6001POPC   C4A75138  42.415   2.966   7.258
 6001POPC   C1B75139  42.627   2.521   6.082
 6001POPC   C2B75140  42.720   2.688   6.486
 6001POPC   C3B75141  42.560   2.643   6.877
 6001POPC   C4B75142  42.292   2.440   7.163
 6002POPC   NC375143  40.839   0.935   5.170
 6002POPC   PO475144  40.312   1.264   5.501
 6002POPC   GL175145  40.651   1.135   5.780
 6002POPC   GL275146  40.894   1.413   5.856
 6002POPC   C1A75147  40.844   1.047   6.192
 6002POPC   D2A75148  40.816   1.171   6.636
 6002POPC   C3A75149  40.919   0.926   7.014
 6002POPC   C4A75150  40.662   0.907   7.387
 6002POPC   C1B75151  40.919   1.553   6.297
 6002POPC   C2B75152  41.019   1.641   6.726
 6002POPC   C3B75153  40.866   1.466   7.113
 6002POPC   C4B75154  41.069   1.301   7.494
 6003POPC   NC375155  33.177  10.644   5.324
 6003POPC   PO475156  32.815  10.068   5.387
 6003POPC   GL175157  32.862  10.133   5.831
 6003POPC   GL275158  33.054  10.428   5.847
 6003POPC   C1A75159  33.015  10.058   6.258
 6003POPC   D2A75160  33.250  10.320   6.545
 6003POPC   C3A75161  33.005  10.660   6.739
 6003POPC   C4A75162  32.856  10.584   7.144
 6003POPC   C1B75163  33.393  10.665   6.070
 6003POPC   C2B75164  33.482  10.777   6.494
 6003POPC   C3B75165  33.486  10.636   6.924
 6003POPC   C4B75166  33.255  10.892   7.195
 6004POPC   NC375167   9.115   5.814   5.165
 6004POPC   PO475168   8.968   5.468   5.694
 6004POPC   GL175169   9.124   5.899   5.709
 6004POPC   GL275170   8.824   6.121   5.735
 6004POPC   C1A75171   9.158   6.099   6.118
 6004POPC   D2A75172   8.846   6.234   6.475
 6004POPC   C3A75173   8.944   5.984   6.877
 6004POPC   C4A75174   9.273   6.024   7.205
 6004POPC   C1B75175   8.698   5.874   6.134
 6004POPC   C2B75176   8.647   5.659   6.555
 6004POPC   C3B75177   8.721   5.465   6.963
 6004POPC   C4B75178   9.077   5.550   7.208
 6005POPC   NC375179  13.840  12.591   5.465
 6005POPC   PO475180  13.434  13.046   5.352
 6005POPC   GL175181  13.522  12.880   5.752
 6005POPC   GL275182  13.808  13.040   5.820
 6005POPC   C1A75183  13.589  12.796   6.201
 6005POPC   D2A75184  13.791  12.819   6.605
 6005POPC   C3A75185  13.473  12.770   6.911
 6005POPC   C4A75186  13.240  12.718   7.268
 6005POPC   C1B75187  13.820  13.259   6.238
 6005POPC   C2B75188  13.680  13.300   6.684
 6005POPC   C3B75189  13.894  13.092   7.059
 6005POPC   C4B75190  13.817  13.181   7.508
 6006POPC   NC375191  23.871  34.526   5.504
 6006POPC   PO475192  23.190  34.781   5.423
 6006POPC   GL175193  23.526  34.857   5.826
 6006POPC   GL275194  23.683  34.531   5.965
 6006POPC   C1A75195  23.652  34.861   6.330
 6006POPC   D2A75196  23.653  34.877   6.792
 6006POPC   C3A75197  23.531  34.537   7.067
 6006POPC   C4A75198  23.495  34.495   7.542
 6006POPC   C1B75199  24.020  34.271   6.175
 6006POPC   C2B75200  23.979  34.171   6.621
 6006POPC   C3B75201  24.053  34.321   7.041
 6006POPC   C4B75202  24.107  34.263   7.561
 6007POPC   NC375203  27.043  31.216   5.365
 6007POPC   PO475204  27.556  31.729   5.371
 6007POPC   GL175205  27.410  31.749   5.795
 6007POPC   GL275206  27.620  31.434   5.831
 6007POPC   C1A75207  27.493  31.667   6.269
 6007POPC   D2A75208  27.773  31.459   6.559
 6007POPC   C3A75209  27.715  31.553   7.015
 6007POPC   C4A75210  27.476  31.251   7.229
 6007POPC   C1B75211  27.750  31.053   6.090
 6007POPC   C2B75212  27.702  30.884   6.506
 6007POPC   C3B75213  27.824  31.038   6.881
 6007POPC   C4B75214  28.008  31.133   7.262
 6008POPC   NC375215   7.056  37.791   5.458
 6008POPC   PO475216   6.420  37.604   5.284
 6008POPC   GL175217   6.606  37.696   5.709
 6008POPC   GL275218   6.872  37.438   5.785
 6008POPC   C1A75219   6.552  37.807   6.152
 6008POPC   D2A75220   6.702  37.701   6.594
 6008POPC   C3A75221   6.626  37.982   6.930
 6008POPC   C4A75222   6.291  38.053   7.190
 6008POPC   C1B75223   6.776  37.348   6.203
 6008POPC   C2B75224   6.760  37.181   6.612
 6008POPC   C3B75225   6.927  37.291   6.994
 6008POPC   C4B75226   7.070  37.708   7.111
 6009POPC   NC375227   9.972  19.410   5.573
 6009POPC   PO475228   9.620  20.004   5.492
 6009POPC   GL175229   9.901  19.884   5.811
 6009POPC   GL275230   9.687  19.644   5.975
 6009POPC   C1A75231  10.052  19.956   6.238
 6009POPC   D2A75232   9.845  20.161   6.596
 6009POPC   C3A75233   9.865  19.966   6.996
 6009POPC   C4A75234   9.810  20.261   7.315
 6009POPC   C1B75235   9.537  19.432   6.376
 6009POPC   C2B75236   9.543  19.587   6.806
 6009POPC   C3B75237   9.742  19.472   7.187
 6009POPC   C4B75238   9.553  19.413   7.615
 6010POPC   NC375239  39.915  40.668   5.547
 6010POPC   PO475240  40.410  41.216   5.425
 6010POPC   GL175241  40.304  40.908   5.776
 6010POPC   GL275242  39.969  40.974   5.955
 6010POPC   C1A75243  40.251  40.614   6.164
 6010POPC   D2A75244  40.306  40.823   6.565
 6010POPC   C3A75245  40.105  40.761   6.956
 6010POPC   C4A75246  40.255  40.513   7.305
 6010POPC   C1B75247  39.838  40.924   6.393
 6010POPC   C2B75248  39.587  40.697   6.715
 6010POPC   C3B75249  39.578  40.788   7.159
 6010POPC   C4B75250  39.871  41.131   7.248
 6011POPC   NC375251   9.356  17.233   5.411
 6011POPC   PO475252   8.836  17.710   5.420
 6011POPC   GL175253   9.044  17.521   5.783
 6011POPC   GL275254   8.754  17.371   5.929
 6011POPC   C1A75255   9.196  17.499   6.238
 6011POPC   D2A75256   9.031  17.333   6.656
 6011POPC   C3A75257   9.238  17.408   7.055
 6011POPC   C4A75258   9.017  17.378   7.461
 6011POPC   C1B75259   8.730  17.735   6.179
 6011POPC   C2B75260   8.836  17.805   6.596
 6011POPC   C3B75261   8.761  17.622   7.000
 6011POPC   C4B75262   8.656  17.775   7.413
 6012POPC   NC375263  31.113  22.425   5.057
 6012POPC   PO475264  31.613  21.976   5.066
 6012POPC   GL175265  31.535  22.019   5.532
 6012POPC   GL275266  31.594  21.741   5.735
 6012POPC   C1A75267  31.510  22.194   5.984
 6012POPC   D2A75268  31.640  22.180   6.449
 6012POPC   C3A75269  31.429  22.238   6.881
 6012POPC   C4A75270  31.596  22.278   7.332
 6012POPC   C1B75271  31.407  21.726   6.141
 6012POPC   C2B75272  31.293  21.803   6.562
 6012POPC   C3B75273  31.333  21.750   6.987
 6012POPC   C4B75274  31.152  21.994   7.295
 6013POPC   NC375275   5.683  11.665   5.560
 6013POPC   PO475276   6.039  12.209   5.354
 6013POPC   GL175277   6.038  12.004   5.782
 6013POPC   GL275278   6.205  11.700   5.705
 6013POPC   C1A75279   5.888  12.020   6.263
 6013POPC   D2A75280   5.650  12.029   6.709
 6013POPC   C3A75281   5.791  12.258   7.102
 6013POPC   C4A75282   5.618  12.498   7.448
 6013POPC   C1B75283   6.005  11.538   6.118
 6013POPC   C2B75284   6.031  11.468   6.570
 6013POPC   C3B75285   5.817  11.595   6.948
 6013POPC   C4B75286   5.961  11.820   7.292
 6014POPC   NC375287  11.981  11.457   5.392
 6014POPC   PO475288  12.655  11.650   5.592
 6014POPC   GL175289  12.280  11.356   5.787
 6014POPC   GL275290  12.368  11.196   6.091
 6014POPC   C1A75291  11.827  11.401   6.041
 6014POPC   D2A75292  11.667  11.471   6.471
 6014POPC   C3A75293  11.841  11.208   6.797
 6014POPC   C4A75294  11.680  11.230   7.209
 6014POPC   C1B75295  12.234  11.644   6.201
 6014POPC   C2B75296  12.104  11.802   6.580
 6014POPC   C3B75297  11.955  11.660   6.992
 6014POPC   C4B75298  12.143  11.396   7.302
 6015POPC   NC375299  15.991  11.500   5.539
 6015POPC   PO475300  16.312  11.017   5.147
 6015POPC   GL175301  16.054  11.024   5.682
 6015POPC   GL275302  16.141  11.280   5.968
 6015POPC   C1A75303  15.762  10.983   6.068
 6015POPC   D2A75304  15.934  11.171   6.462
 6015POPC   C3A75305  15.751  11.293   6.865
 6015POPC   C4A75306  15.780  11.188   7.296
 6015POPC   C1B75307  16.360  11.478   6.278
 6015POPC   C2B75308  16.235  11.569   6.701
 6015POPC   C3B75309  16.153  11.514   7.128
 6015POPC   C4B75310  16.289  11.764   7.447
 6016POPC   NC375311  13.845  39.431   5.435
 6016POPC   PO475312  13.297  39.138   5.446
 6016POPC   GL175313  13.470  39.315   5.816
 6016POPC   GL275314  13.758  39.090   5.820
 6016POPC   C1A75315  13.460  39.299   6.298
 6016POPC   D2A75316  13.481  39.564   6.689
 6016POPC   C3A75317  13.548  39.375   7.078
 6016POPC   C4A75318  13.474  39.533   7.462
 6016POPC   C1B75319  13.951  39.232   6.223
 6016POPC   C2B75320  13.849  39.191   6.685
 6016POPC   C3B75321  13.927  39.013   7.126
 6016POPC   C4B75322  13.982  38.898   7.572
 6017POPC   NC375323  23.429  30.966   5.433
 6017POPC   PO475324  23.925  30.567   5.554
 6017POPC   GL175325  23.918  30.898   5.815
 6017POPC   GL275326  23.580  30.949   5.914
 6017POPC   C1A75327  24.048  30.917   6.240
 6017POPC   D2A75328  23.927  30.701   6.609
 6017POPC   C3A75329  23.860  30.985   6.944
 6017POPC   C4A75330  23.739  30.844   7.341
 6017POPC   C1B75331  23.379  30.579   6.131
 6017POPC   C2B75332  23.399  30.381   6.548
 6017POPC   C3B75333  23.496  30.611   6.925
 6017POPC   C4B75334  23.447  30.430   7.323
 6018POPC   NC375335   2.139  11.664   5.370
 6018POPC   PO475336   1.570  11.478   5.684
 6018POPC   GL175337   1.976  11.349   5.826
 6018POPC   GL275338   2.098  10.987   5.793
 6018POPC   C1A75339   2.163  11.329   6.243
 6018POPC   D2A75340   2.076  11.586   6.610
 6018POPC   C3A75341   1.892  11.451   6.990
 6018POPC   C4A75342   2.178  11.313   7.301
 6018POPC   C1B75343   1.842  10.906   6.183
 6018POPC   C2B75344   1.944  10.940   6.638
 6018POPC   C3B75345   1.858  10.900   7.093
 6018POPC   C4B75346   1.969  10.953   7.585
 6019POPC   NC375347  15.033  30.689   5.281
 6019POPC   PO475348  15.691  30.665   5.410
 6019POPC   GL175349  15.319  30.679   5.741
 6019POPC   GL275350  14.966  30.514   5.750
 6019POPC   C1A75351  15.181  30.728   6.179
 6019POPC   D2A75352  15.138  30.872   6.604
 6019POPC   C3A75353  15.322  30.675   6.958
 6019POPC   C4A75354  15.255  30.844   7.382
 6019POPC   C1B75355  14.811  30.396   6.152
 6019POPC   C2B75356  14.949  30.400   6.547
 6019POPC   C3B75357  14.783  30.343   6.923
 6019POPC   C4B75358  15.001  30.408   7.290
 6020POPC   NC375359  32.554   0.367   5.429
 6020POPC   PO475360  31.919   0.266   5.407
 6020POPC   GL175361  32.068   0.181   5.840
 6020POPC   GL275362  32.285   0.452   5.876
 6020POPC   C1A75363  32.103   0.173   6.328
 6020POPC   D2A75364  32.342   0.456   6.614
 6020POPC   C3A75365  32.278   0.476   7.059
 6020POPC   C4A75366  32.221   0.105   7.325
 6020POPC   C1B75367  32.532   0.105   6.079
 6020POPC   C2B75368  32.644   0.051   6.533
 6020POPC   C3B75369  32.741   0.314   6.897
 6020POPC   C4B75370  32.731   0.199   7.335
 6021POPC   NC375371  23.125   0.756   5.365
 6021POPC   PO475372  22.513   1.118   5.271
 6021POPC   GL175373  22.610   1.282   5.689
 6021POPC   GL275374  22.920   1.117   5.727
 6021POPC   C1A75375  22.683   1.294   6.170
 6021POPC   D2A75376  22.591   1.060   6.528
 6021POPC   C3A75377  22.720   1.210   6.889
 6021POPC   C4A75378  22.842   1.230   7.293
 6021POPC   C1B75379  23.186   1.174   6.079
 6021POPC   C2B75380  23.104   1.195   6.514
 6021POPC   C3B75381  23.222   1.134   6.934
 6021POPC   C4B75382  23.329   1.313   7.289
 6022POPC   NC375383  18.409  24.733   5.415
 6022POPC   PO475384  17.889  24.442   5.708
 6022POPC   GL175385  18.250  24.625   5.907
 6022POPC   GL275386  18.575  24.443   5.883
 6022POPC   C1A75387  18.283  24.833   6.311
 6022POPC   D2A75388  18.398  24.808   6.764
 6022POPC   C3A75389  18.108  24.620   7.030
 6022POPC   C4A75390  17.877  24.693   7.434
 6022POPC   C1B75391  18.293  24.175   6.174
 6022POPC   C2B75392  18.135  24.205   6.628
 6022POPC   C3B75393  18.257  24.090   7.045
 6022POPC   C4B75394  18.520  24.224   7.365
 6023POPC   NC375395   0.178  19.537   5.434
 6023POPC   PO475396   0.447  20.070   5.137
 6023POPC   GL175397   0.260  20.004   5.651
 6023POPC   GL275398   0.452  19.730   5.853
 6023POPC   C1A75399   0.069  19.876   6.137
 6023POPC   D2A75400   0.113  19.661   6.577
 6023POPC   C3A75401   0.177  19.959   6.940
 6023POPC   C4A75402   0.582  20.064   7.163
 6023POPC   C1B75403   0.681  19.494   6.207
 6023POPC   C2B75404   0.783  19.137   6.494
 6023POPC   C3B75405   0.750  19.218   6.942
 6023POPC   C4B75406   0.471  19.561   7.105
 6024POPC   NC375407  30.727  39.515   5.445
 6024POPC   PO475408  30.730  38.886   5.520
 6024POPC   GL175409  30.553  39.161   5.837
 6024POPC   GL275410  30.330  39.445   5.782
 6024POPC   C1A75411  30.684  39.281   6.260
 6024POPC   D2A75412  30.620  39.078   6.669
 6024POPC   C3A75413  30.810  39.260   6.992
 6024POPC   C4A75414  30.955  39.206   7.414
 6024POPC   C1B75415  30.210  39.553   6.167
 6024POPC   C2B75416  30.354  39.492   6.584
 6024POPC   C3B75417  30.347  39.646   6.963
 6024POPC   C4B75418  30.610  39.601   7.302
 6025POPC   NC375419   4.473  22.713   5.402
 6025POPC   PO475420   4.147  23.365   5.494
 6025POPC   GL175421   4.276  23.053   5.792
 6025POPC   GL275422   4.038  22.750   5.883
 6025POPC   C1A75423   4.438  22.948   6.204
 6025POPC   D2A75424   4.687  22.927   6.583
 6025POPC   C3A75425   4.519  23.148   6.920
 6025POPC   C4A75426   4.669  23.038   7.321
 6025POPC   C1B75427   4.141  22.518   6.313
 6025POPC   C2B75428   4.281  22.322   6.702
 6025POPC   C3B75429   4.497  22.619   7.000
 6025POPC   C4B75430   4.194  22.863   7.271
 6026POPC   NC375431  30.179   4.807   5.334
 6026POPC   PO475432  30.269   5.473   5.591
 6026POPC   GL175433  30.093   5.108   5.783
 6026POPC   GL275434  29.760   5.173   5.824
 6026POPC   C1A75435  30.101   4.884   6.198
 6026POPC   D2A75436  30.273   5.087   6.589
 6026POPC   C3A75437  30.270   4.849   6.985
 6026POPC   C4A75438  29.879   4.687   7.144
 6026POPC   C1B75439  29.760   5.260   6.284
 6026POPC   C2B75440  29.644   5.352   6.732
 6026POPC   C3B75441  29.904   5.202   7.058
 6026POPC   C4B75442  30.065   5.086   7.445
 6027POPC   NC375443   4.891  42.963   5.581
 6027POPC   PO475444   5.432  43.369   5.405
 6027POPC   GL175445   5.316  43.201   5.842
 6027POPC   GL275446   5.341  42.837   5.824
 6027POPC   C1A75447   5.044  43.217   6.259
 6027POPC   D2A75448   4.689  43.208   6.598
 6027POPC   C3A75449   4.818  43.368   7.025
 6027POPC   C4A75450   5.205  43.391   7.267
 6027POPC   C1B75451   5.016  42.706   6.149
 6027POPC   C2B75452   4.880  42.747   6.546
 6027POPC   C3B75453   5.118  42.989   6.839
 6027POPC   C4B75454   5.112  42.894   7.265
 6028POPC   NC375455  31.914  29.125   5.274
 6028POPC   PO475456  32.575  29.119   5.360
 6028POPC   GL175457  32.317  29.260   5.717
 6028POPC   GL275458  32.062  29.017   5.746
 6028POPC   C1A75459  32.215  29.394   6.169
 6028POPC   D2A75460  32.158  29.221   6.604
 6028POPC   C3A75461  32.127  29.372   7.047
 6028POPC   C4A75462  32.066  29.484   7.482
 6028POPC   C1B75463  32.131  28.858   6.148
 6028POPC   C2B75464  32.027  28.722   6.555
 6028POPC   C3B75465  31.932  28.907   6.952
 6028POPC   C4B75466  32.128  28.960   7.379
 6029POPC   NC375467  14.262  24.163   5.553
 6029POPC   PO475468  13.966  24.586   5.197
 6029POPC   GL175469  14.099  24.709   5.680
 6029POPC   GL275470  14.419  24.587   5.838
 6029POPC   C1A75471  14.047  24.768   6.141
 6029POPC   D2A75472  14.381  24.613   6.449
 6029POPC   C3A75473  14.485  24.571   6.894
 6029POPC   C4A75474  14.241  24.414   7.226
 6029POPC   C1B75475  14.635  24.276   6.108
 6029POPC   C2B75476  14.788  24.285   6.518
 6029POPC   C3B75477  14.715  24.033   6.871
 6029POPC   C4B75478  14.572  24.047   7.291
 6030POPC   NC375479  17.783  19.233   5.430
 6030POPC   PO475480  17.686  18.530   5.574
 6030POPC   GL175481  17.724  18.797   5.924
 6030POPC   GL275482  17.455  19.072   5.883
 6030POPC   C1A75483  17.728  18.793   6.378
 6030POPC   D2A75484  17.372  18.742   6.652
 6030POPC   C3A75485  17.326  18.990   6.990
 6030POPC   C4A75486  17.640  18.898   7.262
 6030POPC   C1B75487  17.318  19.160   6.332
 6030POPC   C2B75488  17.624  19.258   6.665
 6030POPC   C3B75489  17.664  19.373   7.101
 6030POPC   C4B75490  17.360  19.368   7.483
 6031POPC   NC375491   8.948  14.050   5.474
 6031POPC   PO475492   9.152  14.651   5.442
 6031POPC   GL175493   9.120  14.369   5.843
 6031POPC   GL275494   8.806  14.231   5.917
 6031POPC   C1A75495   9.167  14.162   6.253
 6031POPC   D2A75496   8.886  14.243   6.585
 6031POPC   C3A75497   9.085  14.426   6.918
 6031POPC   C4A75498   9.247  14.268   7.301
 6031POPC   C1B75499   8.503  14.257   6.209
 6031POPC   C2B75500   8.379  14.192   6.610
 6031POPC   C3B75501   8.530  14.271   7.002
 6031POPC   C4B75502   8.731  14.261   7.387
 6032POPC   NC375503  39.652  34.284   5.407
 6032POPC   PO475504  39.020  34.348   5.391
 6032POPC   GL175505  39.088  33.934   5.669
 6032POPC   GL275506  39.251  33.565   5.705
 6032POPC   C1A75507  39.058  33.810   6.108
 6032POPC   D2A75508  39.341  33.888   6.447
 6032POPC   C3A75509  39.155  33.833   6.812
 6032POPC   C4A75510  39.242  33.617   7.152
 6032POPC   C1B75511  39.474  33.477   6.140
 6032POPC   C2B75512  39.389  33.389   6.617
 6032POPC   C3B75513  39.622  33.301   6.995
 6032POPC   C4B75514  39.573  33.345   7.426
 6033POPC   NC375515  28.968  12.631   5.336
 6033POPC   PO475516  29.292  13.210   5.151
 6033POPC   GL175517  29.091  13.214   5.624
 6033POPC   GL275518  29.088  12.845   5.786
 6033POPC   C1A75519  29.170  13.207   6.113
 6033POPC   D2A75520  29.245  12.939   6.468
 6033POPC   C3A75521  29.128  13.039   6.904
 6033POPC   C4A75522  29.076  12.772   7.285
 6033POPC   C1B75523  29.392  12.600   6.079
 6033POPC   C2B75524  29.542  12.522   6.520
 6033POPC   C3B75525  29.420  12.592   6.950
 6033POPC   C4B75526  29.431  12.392   7.379
 6034POPC   NC375527  35.646  24.720   5.448
 6034POPC   PO475528  35.092  24.265   5.469
 6034POPC   GL175529  35.360  24.435   5.785
 6034POPC   GL275530  35.616  24.163   5.755
 6034POPC   C1A75531  35.400  24.699   6.189
 6034POPC   D2A75532  35.707  24.849   6.533
 6034POPC   C3A75533  35.558  24.834   6.984
 6034POPC   C4A75534  35.275  24.781   7.383
 6034POPC   C1B75535  35.505  24.165   6.219
 6034POPC   C2B75536  35.438  24.396   6.621
 6034POPC   C3B75537  35.354  24.380   7.059
 6034POPC   C4B75538  35.555  24.027   7.277
 6035POPC   NC375539   5.296  35.331   5.511
 6035POPC   PO475540   5.878  35.155   5.302
 6035POPC   GL175541   6.057  35.251   5.689
 6035POPC   GL275542   6.241  34.942   5.702
 6035POPC   C1A75543   5.904  35.384   6.116
 6035POPC   D2A75544   5.865  35.577   6.523
 6035POPC   C3A75545   5.785  35.383   6.877
 6035POPC   C4A75546   5.899  35.541   7.264
 6035POPC   C1B75547   6.067  34.901   6.101
 6035POPC   C2B75548   5.927  35.016   6.509
 6035POPC   C3B75549   6.145  34.888   6.835
 6035POPC   C4B75550   6.093  35.090   7.162
 6036POPC   NC375551  42.486   6.501   5.588
 6036POPC   PO475552  41.946   6.826   5.330
 6036POPC   GL175553  42.150   6.920   5.767
 6036POPC   GL275554  42.474   6.869   5.938
 6036POPC   C1A75555  42.086   6.712   6.220
 6036POPC   D2A75556  42.276   6.517   6.621
 6036POPC   C3A75557  42.072   6.351   6.976
 6036POPC   C4A75558  41.970   6.587   7.340
 6036POPC   C1B75559  42.583   6.518   6.226
 6036POPC   C2B75560  42.803   6.418   6.623
 6036POPC   C3B75561  42.629   6.476   7.036
 6036POPC   C4B75562  42.506   6.525   7.468
 6037POPC   NC375563   2.311  20.184   5.351
 6037POPC   PO475564   1.883  20.717   5.558
 6037POPC   GL175565   2.066  20.699   5.921
 6037POPC   GL275566   2.155  20.328   5.908
 6037POPC   C1A75567   2.188  20.661   6.347
 6037POPC   D2A75568   2.232  20.930   6.695
 6037POPC   C3A75569   2.065  20.698   7.067
 6037POPC   C4A75570   1.958  20.572   7.488
 6037POPC   C1B75571   1.744  20.418   6.159
 6037POPC   C2B75572   1.651  20.712   6.496
 6037POPC   C3B75573   1.583  20.616   6.918
 6037POPC   C4B75574   1.740  20.273   7.134
 6038POPC   NC375575  11.770   1.255   5.406
 6038POPC   PO475576  12.203   0.764   5.400
 6038POPC   GL175577  12.128   1.074   5.734
 6038POPC   GL275578  12.429   1.262   5.707
 6038POPC   C1A75579  12.105   1.347   6.114
 6038POPC   D2A75580  12.008   1.251   6.532
 6038POPC   C3A75581  12.025   1.437   6.941
 6038POPC   C4A75582  11.943   1.093   7.215
 6038POPC   C1B75583  12.542   0.972   6.051
 6038POPC   C2B75584  12.495   0.935   6.486
 6038POPC   C3B75585  12.240   0.888   6.829
 6038POPC   C4B75586  12.354   0.825   7.245
 6039POPC   NC375587  23.272  44.811   5.315
 6039POPC   PO475588  22.617  44.683   5.530
 6039POPC   GL175589  22.797  44.447   5.842
 6039POPC   GL275590  22.534  44.273   5.957
 6039POPC   C1A75591  23.048  44.470   6.232
 6039POPC   D2A75592  23.243  44.653   6.617
 6039POPC   C3A75593  23.089  44.559   7.045
 6039POPC   C4A75594  23.036  44.924   7.352
 6039POPC   C1B75595  22.525  44.514   6.283
 6039POPC   C2B75596  22.728  44.502   6.638
 6039POPC   C3B75597  22.590  44.409   6.993
 6039POPC   C4B75598  22.661  44.593   7.340
 6040POPC   NC375599  37.588  43.324   5.330
 6040POPC   PO475600  37.659  42.699   5.341
 6040POPC   GL175601  37.655  43.002   5.737
 6040POPC   GL275602  37.930  43.260   5.752
 6040POPC   C1A75603  37.588  43.338   6.122
 6040POPC   D2A75604  37.660  43.205   6.571
 6040POPC   C3A75605  37.615  43.452   6.946
 6040POPC   C4A75606  37.352  43.446   7.311
 6040POPC   C1B75607  37.975  42.995   6.173
 6040POPC   C2B75608  38.117  42.913   6.628
 6040POPC   C3B75609  37.884  42.962   6.977
 6040POPC   C4B75610  37.769  43.151   7.364
 6041POPC   NC375611  26.228  29.625   5.441
 6041POPC   PO475612  25.849  29.970   4.999
 6041POPC   GL175613  25.991  30.040   5.572
 6041POPC   GL275614  26.327  30.205   5.638
 6041POPC   C1A75615  26.030  29.841   6.066
 6041POPC   D2A75616  26.072  29.626   6.514
 6041POPC   C3A75617  26.055  29.834   6.943
 6041POPC   C4A75618  25.809  29.992   7.323
 6041POPC   C1B75619  26.404  30.191   6.079
 6041POPC   C2B75620  26.457  30.009   6.488
 6041POPC   C3B75621  26.509  30.105   6.918
 6041POPC   C4B75622  26.348  30.142   7.300
 6042POPC   NC375623  19.307  19.335   5.418
 6042POPC   PO475624  18.735  19.598   5.719
 6042POPC   GL175625  18.965  19.223   5.809
 6042POPC   GL275626  18.766  18.921   5.746
 6042POPC   C1A75627  19.153  19.152   6.202
 6042POPC   D2A75628  19.232  19.394   6.583
 6042POPC   C3A75629  19.066  19.173   6.947
 6042POPC   C4A75630  19.109  19.262   7.366
 6042POPC   C1B75631  18.808  18.730   6.146
 6042POPC   C2B75632  18.967  18.799   6.559
 6042POPC   C3B75633  18.910  18.672   6.973
 6042POPC   C4B75634  18.518  18.669   7.168
 6043POPC   NC375635  41.620  33.353   5.480
 6043POPC   PO475636  41.423  33.931   5.230
 6043POPC   GL175637  41.498  33.817   5.712
 6043POPC   GL275638  41.860  33.712   5.772
 6043POPC   C1A75639  41.302  33.604   6.127
 6043POPC   D2A75640  41.459  33.557   6.577
 6043POPC   C3A75641  41.363  33.723   7.017
 6043POPC   C4A75642  41.291  33.565   7.454
 6043POPC   C1B75643  41.795  33.720   6.214
 6043POPC   C2B75644  41.974  33.517   6.604
 6043POPC   C3B75645  41.894  33.697   6.969
 6043POPC   C4B75646  41.793  33.593   7.352
 6044POPC   NC375647  26.624   9.265   5.409
 6044POPC   PO475648  26.597   8.580   5.500
 6044POPC   GL175649  26.747   8.905   5.792
 6044POPC   GL275650  26.832   9.261   5.881
 6044POPC   C1A75651  26.732   8.889   6.242
 6044POPC   D2A75652  26.735   8.597   6.580
 6044POPC   C3A75653  26.672   8.768   6.982
 6044POPC   C4A75654  27.052   8.724   7.179
 6044POPC   C1B75655  27.124   9.218   6.252
 6044POPC   C2B75656  27.037   9.041   6.686
 6044POPC   C3B75657  26.936   9.237   7.102
 6044POPC   C4B75658  27.065   9.514   7.457
 6045POPC   NC375659  14.043  23.267   5.363
 6045POPC   PO475660  14.487  23.769   5.442
 6045POPC   GL175661  14.260  23.648   5.770
 6045POPC   GL275662  14.402  23.354   5.759
 6045POPC   C1A75663  14.334  23.683   6.210
 6045POPC   D2A75664  14.328  24.025   6.522
 6045POPC   C3A75665  14.197  23.904   6.949
 6045POPC   C4A75666  14.089  23.919   7.381
 6045POPC   C1B75667  14.667  23.308   6.127
 6045POPC   C2B75668  14.790  23.574   6.482
 6045POPC   C3B75669  14.686  23.516   6.914
 6045POPC   C4B75670  14.442  23.570   7.275
 6046POPC   NC375671   3.459  26.440   5.446
 6046POPC   PO475672   3.691  25.737   5.405
 6046POPC   GL175673   3.516  25.948   5.785
 6046POPC   GL275674   3.194  26.050   5.701
 6046POPC   C1A75675   3.636  25.893   6.239
 6046POPC   D2A75676   3.832  26.126   6.597
 6046POPC   C3A75677   3.682  25.995   6.987
 6046POPC   C4A75678   3.325  25.849   7.180
 6046POPC   C1B75679   3.086  26.228   6.091
 6046POPC   C2B75680   3.312  26.240   6.450
 6046POPC   C3B75681   3.253  26.255   6.877
 6046POPC   C4B75682   3.420  26.368   7.257
 6047POPC   NC375683  39.461   4.071   5.540
 6047POPC   PO475684  39.081   4.685   5.462
 6047POPC   GL175685  39.293   4.461   5.801
 6047POPC   GL275686  38.996   4.215   5.805
 6047POPC   C1A75687  39.308   4.200   6.212
 6047POPC   D2A75688  38.978   4.228   6.522
 6047POPC   C3A75689  39.049   4.099   6.950
 6047POPC   C4A75690  39.402   4.043   7.167
 6047POPC   C1B75691  38.886   4.562   6.090
 6047POPC   C2B75692  38.906   4.737   6.513
 6047POPC   C3B75693  38.995   4.624   6.936
 6047POPC   C4B75694  38.966   4.405   7.333
 6048POPC   NC375695   3.966  30.599   5.415
 6048POPC   PO475696   4.620  30.594   5.470
 6048POPC   GL175697   4.403  30.790   5.794
 6048POPC   GL275698   4.162  30.546   5.885
 6048POPC   C1A75699   4.499  30.842   6.238
 6048POPC   D2A75700   4.659  30.562   6.554
 6048POPC   C3A75701   4.497  30.627   6.972
 6048POPC   C4A75702   4.422  30.983   7.218
 6048POPC   C1B75703   3.978  30.610   6.273
 6048POPC   C2B75704   4.113  30.441   6.653
 6048POPC   C3B75705   3.945  30.565   7.038
 6048POPC   C4B75706   4.088  30.645   7.455
 6049POPC   NC375707  27.382  25.227   5.232
 6049POPC   PO475708  28.045  25.374   5.307
 6049POPC   GL175709  27.720  25.326   5.632
 6049POPC   GL275710  27.574  25.021   5.729
 6049POPC   C1A75711  27.752  25.371   6.105
 6049POPC   D2A75712  27.606  25.401   6.576
 6049POPC   C3A75713  27.882  25.231   6.937
 6049POPC   C4A75714  27.995  25.284   7.395
 6049POPC   C1B75715  27.293  25.180   6.079
 6049POPC   C2B75716  27.281  25.010   6.527
 6049POPC   C3B75717  27.468  24.920   6.941
 6049POPC   C4B75718  27.500  25.224   7.295
 6050POPC   NC375719  38.156  12.941   5.458
 6050POPC   PO475720  38.805  12.751   5.535
 6050POPC   GL175721  38.484  12.887   5.875
 6050POPC   GL275722  38.155  12.714   5.914
 6050POPC   C1A75723  38.436  12.870   6.353
 6050POPC   D2A75724  38.695  12.597   6.662
 6050POPC   C3A75725  38.690  12.769   7.083
 6050POPC   C4A75726  38.680  13.227   7.220
 6050POPC   C1B75727  37.867  12.882   6.165
 6050POPC   C2B75728  37.944  12.917   6.567
 6050POPC   C3B75729  38.226  12.863   6.883
 6050POPC   C4B75730  38.173  13.177   7.194
 6051POPC   NC375731  10.651  13.852   5.383
 6051POPC   PO475732  10.100  13.410   5.255
 6051POPC   GL175733  10.328  13.459   5.703
 6051POPC   GL275734  10.686  13.629   5.825
 6051POPC   C1A75735  10.433  13.357   6.166
 6051POPC   D2A75736  10.648  13.452   6.559
 6051POPC   C3A75737  10.493  13.351   6.977
 6051POPC   C4A75738  10.446  13.718   7.260
 6051POPC   C1B75739  10.933  13.670   6.192
 6051POPC   C2B75740  10.994  13.865   6.570
 6051POPC   C3B75741  10.818  13.766   6.920
 6051POPC   C4B75742  10.920  13.507   7.254
 6052POPC   NC375743  12.895  29.440   5.365
 6052POPC   PO475744  13.228  28.875   5.407
 6052POPC   GL175745  12.968  29.076   5.757
 6052POPC   GL275746  12.634  29.181   5.862
 6052POPC   C1A75747  12.987  29.265   6.193
 6052POPC   D2A75748  13.047  29.025   6.564
 6052POPC   C3A75749  13.205  29.295   6.871
 6052POPC   C4A75750  13.031  29.312   7.228
 6052POPC   C1B75751  12.725  28.778   6.112
 6052POPC   C2B75752  12.656  28.650   6.542
 6052POPC   C3B75753  12.590  28.897   6.904
 6052POPC   C4B75754  12.531  29.257   7.142
 6053POPC   NC375755   2.711   3.154   5.545
 6053POPC   PO475756   2.918   2.526   5.413
 6053POPC   GL175757   2.662   2.689   5.789
 6053POPC   GL275758   2.315   2.888   5.762
 6053POPC   C1A75759   2.596   2.559   6.228
 6053POPC   D2A75760   2.730   2.326   6.608
 6053POPC   C3A75761   2.650   2.586   6.965
 6053POPC   C4A75762   2.946   2.705   7.247
 6053POPC   C1B75763   2.423   3.054   6.184
 6053POPC   C2B75764   2.597   2.961   6.597
 6053POPC   C3B75765   2.707   3.106   7.022
 6053POPC   C4B75766   2.415   3.221   7.358
 6054POPC   NC375767  21.218   1.691   5.389
 6054POPC   PO475768  21.725   2.090   5.592
 6054POPC   GL175769  21.455   1.858   5.817
 6054POPC   GL275770  21.138   2.049   5.724
 6054POPC   C1A75771  21.504   1.810   6.242
 6054POPC   D2A75772  21.411   1.893   6.631
 6054POPC   C3A75773  21.590   2.114   6.944
 6054POPC   C4A75774  21.481   1.907   7.299
 6054POPC   C1B75775  21.071   2.038   6.156
 6054POPC   C2B75776  21.051   2.243   6.544
 6054POPC   C3B75777  21.077   2.061   6.969
 6054POPC   C4B75778  21.173   2.452   7.119
 6055POPC   NC375779  41.761  44.105   5.015
 6055POPC   PO475780  41.569  43.669   5.514
 6055POPC   GL175781  41.478  43.734   5.899
 6055POPC   GL275782  41.148  43.895   5.889
 6055POPC   C1A75783  41.718  43.872   6.261
 6055POPC   D2A75784  41.933  44.093   6.603
 6055POPC   C3A75785  41.740  43.909   6.925
 6055POPC   C4A75786  41.819  43.766   7.291
 6055POPC   C1B75787  41.195  43.845   6.297
 6055POPC   C2B75788  41.326  44.049   6.609
 6055POPC   C3B75789  41.231  43.886   6.982
 6055POPC   C4B75790  41.348  44.006   7.347
 6056POPC   NC375791  16.178  35.975   5.266
 6056POPC   PO475792  15.807  36.321   5.656
 6056POPC   GL175793  15.920  35.887   5.707
 6056POPC   GL275794  16.301  35.813   5.757
 6056POPC   C1A75795  15.942  35.798   6.131
 6056POPC   D2A75796  15.982  35.680   6.554
 6056POPC   C3A75797  15.930  35.988   6.855
 6056POPC   C4A75798  15.852  36.101   7.279
 6056POPC   C1B75799  16.447  35.951   6.208
 6056POPC   C2B75800  16.451  35.886   6.687
 6056POPC   C3B75801  16.351  36.014   7.142
 6056POPC   C4B75802  16.241  36.431   7.391
 6057POPC   NC375803  31.803  39.845   5.315
 6057POPC   PO475804  32.432  39.772   5.033
 6057POPC   GL175805  32.301  39.821   5.542
 6057POPC   GL275806  32.520  39.613   5.786
 6057POPC   C1A75807  32.095  39.961   6.007
 6057POPC   D2A75808  31.933  39.892   6.522
 6057POPC   C3A75809  31.992  40.134   6.963
 6057POPC   C4A75810  32.147  40.445   7.314
 6057POPC   C1B75811  32.538  39.744   6.233
 6057POPC   C2B75812  32.487  39.964   6.654
 6057POPC   C3B75813  32.484  40.027   7.113
 6057POPC   C4B75814  32.652  39.817   7.486
 6058POPC   NC375815   9.170  30.127   5.522
 6058POPC   PO475816   8.678  29.693   5.723
 6058POPC   GL175817   9.038  29.746   5.909
 6058POPC   GL275818   9.062  30.096   6.021
 6058POPC   C1A75819   9.089  29.658   6.306
 6058POPC   D2A75820   9.154  29.893   6.640
 6058POPC   C3A75821   9.039  29.689   6.962
 6058POPC   C4A75822   9.285  29.760   7.316
 6058POPC   C1B75823   8.765  30.057   6.347
 6058POPC   C2B75824   8.619  29.968   6.751
 6058POPC   C3B75825   8.665  30.012   7.165
 6058POPC   C4B75826   8.927  30.121   7.466
 6059POPC   NC375827   2.975  19.981   5.338
 6059POPC   PO475828   2.425  19.732   5.379
 6059POPC   GL175829   2.627  20.006   5.724
 6059POPC   GL275830   2.921  19.833   5.816
 6059POPC   C1A75831   2.716  20.177   6.162
 6059POPC   D2A75832   2.960  20.188   6.582
 6059POPC   C3A75833   2.701  20.133   6.933
 6059POPC   C4A75834   2.555  19.802   7.121
 6059POPC   C1B75835   3.043  19.589   6.129
 6059POPC   C2B75836   2.883  19.488   6.512
 6059POPC   C3B75837   2.987  19.698   6.859
 6059POPC   C4B75838   3.150  19.567   7.236
 6060POPC   NC375839  29.717  33.262   5.314
 6060POPC   PO475840  29.667  32.748   5.696
 6060POPC   GL175841  29.901  33.035   5.891
 6060POPC   GL275842  29.979  33.352   5.764
 6060POPC   C1A75843  29.888  33.164   6.305
 6060POPC   D2A75844  29.805  32.980   6.668
 6060POPC   C3A75845  30.148  32.898   6.967
 6060POPC   C4A75846  30.006  32.750   7.329
 6060POPC   C1B75847  30.316  33.273   6.080
 6060POPC   C2B75848  30.342  33.144   6.542
 6060POPC   C3B75849  30.062  33.383   6.830
 6060POPC   C4B75850  29.766  33.248   7.114
 6061POPC   NC375851  33.583  19.236   5.395
 6061POPC   PO475852  34.248  19.423   5.404
 6061POPC   GL175853  33.965  19.299   5.775
 6061POPC   GL275854  33.741  18.957   5.797
 6061POPC   C1A75855  33.998  19.134   6.198
 6061POPC   D2A75856  33.822  19.214   6.590
 6061POPC   C3A75857  33.969  19.126   7.013
 6061POPC   C4A75858  33.880  18.725   7.221
 6061POPC   C1B75859  33.491  19.230   6.074
 6061POPC   C2B75860  33.344  19.331   6.519
 6061POPC   C3B75861  33.478  19.224   6.962
 6061POPC   C4B75862  33.597  19.102   7.393
 6062POPC   NC375863   1.675  36.770   5.427
 6062POPC   PO475864   2.233  37.163   5.464
 6062POPC   GL175865   1.963  37.018   5.837
 6062POPC   GL275866   1.748  36.683   5.928
 6062POPC   C1A75867   2.078  36.981   6.278
 6062POPC   D2A75868   2.386  36.855   6.588
 6062POPC   C3A75869   2.205  36.902   7.008
 6062POPC   C4A75870   1.848  37.185   7.118
 6062POPC   C1B75871   1.810  36.556   6.400
 6062POPC   C2B75872   1.791  36.651   6.865
 6062POPC   C3B75873   1.744  36.705   7.324
 6062POPC   C4B75874   1.714  36.694   7.800
 6063POPC   NC375875  11.591  29.934   5.488
 6063POPC   PO475876  11.000  30.187   5.498
 6063POPC   GL175877  11.217  29.987   5.815
 6063POPC   GL275878  11.220  29.623   5.711
 6063POPC   C1A75879  11.358  30.185   6.181
 6063POPC   D2A75880  11.203  30.400   6.565
 6063POPC   C3A75881  11.193  30.117   6.911
 6063POPC   C4A75882  10.947  30.103   7.266
 6063POPC   C1B75883  11.445  29.623   6.116
 6063POPC   C2B75884  11.396  29.786   6.522
 6063POPC   C3B75885  11.359  29.620   6.911
 6063POPC   C4B75886  11.332  29.762   7.296
 6064POPC   NC375887   3.575  39.272   5.121
 6064POPC   PO475888   3.526  39.612   5.640
 6064POPC   GL175889   3.680  39.212   5.770
 6064POPC   GL275890   3.988  39.274   5.833
 6064POPC   C1A75891   3.542  39.064   6.175
 6064POPC   D2A75892   3.479  38.926   6.608
 6064POPC   C3A75893   3.831  38.993   6.894
 6064POPC   C4A75894   3.737  38.975   7.314
 6064POPC   C1B75895   3.823  39.524   6.183
 6064POPC   C2B75896   3.781  39.352   6.542
 6064POPC   C3B75897   3.504  39.410   6.849
 6064POPC   C4B75898   3.596  39.768   7.092
 6065POPC   NC375899  38.580  38.910   5.371
 6065POPC   PO475900  38.321  39.493   5.597
 6065POPC   GL175901  38.318  39.086   5.834
 6065POPC   GL275902  38.052  38.866   5.694
 6065POPC   C1A75903  38.347  39.100   6.301
 6065POPC   D2A75904  38.410  39.510   6.546
 6065POPC   C3A75905  38.696  39.474   6.877
 6065POPC   C4A75906  38.471  39.266   7.115
 6065POPC   C1B75907  38.143  38.657   6.078
 6065POPC   C2B75908  38.067  38.655   6.512
 6065POPC   C3B75909  38.106  38.975   6.825
 6065POPC   C4B75910  38.137  38.948   7.263
 6066POPC   NC375911  25.808   9.836   5.506
 6066POPC   PO475912  26.146   9.363   5.191
 6066POPC   GL175913  25.875   9.411   5.756
 6066POPC   GL275914  26.017   9.812   5.941
 6066POPC   C1A75915  26.063   9.447   6.241
 6066POPC   D2A75916  26.244   9.400   6.650
 6066POPC   C3A75917  26.147   9.719   6.916
 6066POPC   C4A75918  25.943   9.672   7.290
 6066POPC   C1B75919  25.782   9.903   6.329
 6066POPC   C2B75920  25.859  10.105   6.743
 6066POPC   C3B75921  25.658  10.102   7.155
 6066POPC   C4B75922  25.760  10.129   7.587
 6067POPC   NC375923  15.552  35.100   5.486
 6067POPC   PO475924  16.241  35.300   5.448
 6067POPC   GL175925  15.888  35.357   5.787
 6067POPC   GL275926  15.804  34.995   5.913
 6067POPC   C1A75927  15.708  35.371   6.232
 6067POPC   D2A75928  15.593  35.353   6.677
 6067POPC   C3A75929  15.865  35.450   7.002
 6067POPC   C4A75930  15.533  35.340   7.286
 6067POPC   C1B75931  16.187  35.135   6.141
 6067POPC   C2B75932  16.251  35.243   6.579
 6067POPC   C3B75933  16.184  35.022   6.965
 6067POPC   C4B75934  15.964  35.087   7.338
 6068POPC   NC375935  19.345  21.327   5.436
 6068POPC   PO475936  18.808  21.495   5.561
 6068POPC   GL175937  18.935  21.138   5.799
 6068POPC   GL275938  19.250  21.233   5.916
 6068POPC   C1A75939  18.895  21.070   6.270
 6068POPC   D2A75940  18.648  21.333   6.588
 6068POPC   C3A75941  18.865  21.427   6.981
 6068POPC   C4A75942  18.872  21.162   7.336
 6068POPC   C1B75943  19.145  21.534   6.204
 6068POPC   C2B75944  19.292  21.403   6.591
 6068POPC   C3B75945  19.385  21.611   6.947
 6068POPC   C4B75946  19.293  21.431   7.318
 6069POPC   NC375947  32.291   1.328   5.516
 6069POPC   PO475948  32.706   0.811   5.416
 6069POPC   GL175949  32.488   0.958   5.823
 6069POPC   GL275950  32.108   0.941   5.844
 6069POPC   C1A75951  32.317   1.305   6.160
 6069POPC   D2A75952  32.247   1.526   6.554
 6069POPC   C3A75953  31.943   1.447   6.879
 6069POPC   C4A75954  32.042   1.335   7.297
 6069POPC   C1B75955  32.278   0.811   6.262
 6069POPC   C2B75956  32.217   1.023   6.657
 6069POPC   C3B75957  32.440   1.231   6.970
 6069POPC   C4B75958  32.438   1.005   7.344
 6070POPC   NC375959  25.590  23.979   5.586
 6070POPC   PO475960  26.173  23.571   5.522
 6070POPC   GL175961  25.973  23.787   5.851
 6070POPC   GL275962  25.810  23.476   5.924
 6070POPC   C1A75963  25.720  23.870   6.240
 6070POPC   D2A75964  25.571  23.881   6.684
 6070POPC   C3A75965  25.923  23.986   6.945
 6070POPC   C4A75966  26.171  24.097   7.283
 6070POPC   C1B75967  26.111  23.498   6.236
 6070POPC   C2B75968  25.979  23.576   6.622
 6070POPC   C3B75969  25.861  23.493   7.023
 6070POPC   C4B75970  26.204  23.552   7.263
 6071POPC   NC375971   7.466  12.294   5.372
 6071POPC   PO475972   7.714  11.590   5.563
 6071POPC   GL175973   7.422  11.753   5.827
 6071POPC   GL275974   7.589  12.069   5.816
 6071POPC   C1A75975   7.404  11.880   6.268
 6071POPC   D2A75976   7.199  12.071   6.633
 6071POPC   C3A75977   7.160  11.889   7.053
 6071POPC   C4A75978   7.303  12.049   7.432
 6071POPC   C1B75979   7.605  12.345   6.169
 6071POPC   C2B75980   7.696  12.305   6.607
 6071POPC   C3B75981   7.561  12.223   7.028
 6071POPC   C4B75982   7.673  12.398   7.447
 6072POPC   NC375983  34.733  23.040   5.508
 6072POPC   PO475984  34.157  22.846   5.317
 6072POPC   GL175985  34.281  22.990   5.760
 6072POPC   GL275986  34.541  22.753   5.888
 6072POPC   C1A75987  34.514  23.142   6.177
 6072POPC   D2A75988  34.689  22.901   6.529
 6072POPC   C3A75989  34.667  23.085   6.933
 6072POPC   C4A75990  34.396  22.904   7.226
 6072POPC   C1B75991  34.867  22.568   6.148
 6072POPC   C2B75992  34.944  22.435   6.551
 6072POPC   C3B75993  35.045  22.683   6.869
 6072POPC   C4B75994  34.889  22.729   7.229
 6073POPC   NC375995  30.341  19.796   5.225
 6073POPC   PO475996  29.703  19.619   5.456
 6073POPC   GL175997  30.074  19.787   5.723
 6073POPC   GL275998  30.157  19.504   5.955
 6073POPC   C1A75999  30.174  19.990   6.129
 6073POPC   D2A76000  29.933  20.084   6.499
 6073POPC   C3A76001  30.026  20.032   6.948
 6073POPC   C4A76002  29.779  19.956   7.309
 6073POPC   C1B76003  29.919  19.566   6.282
 6073POPC   C2B76004  30.090  19.615   6.660
 6073POPC   C3B76005  29.951  19.505   7.052
 6073POPC   C4B76006  29.672  19.417   7.364
 6074POPC   NC376007  40.308  17.232   5.591
 6074POPC   PO476008  39.909  16.673   5.391
 6074POPC   GL176009  39.834  16.920   5.746
 6074POPC   GL276010  40.142  16.868   5.960
 6074POPC   C1A76011  39.652  16.885   6.145
 6074POPC   D2A76012  39.889  16.757   6.504
 6074POPC   C3A76013  39.697  16.864   6.875
 6074POPC   C4A76014  39.847  16.875   7.273
 6074POPC   C1B76015  40.305  16.519   6.249
 6074POPC   C2B76016  40.368  16.574   6.693
 6074POPC   C3B76017  40.286  16.652   7.133
 6074POPC   C4B76018  40.373  16.531   7.589
 6075POPC   NC376019  20.344   8.713   5.493
 6075POPC   PO476020  20.976   8.747   5.467
 6075POPC   GL176021  20.831   8.965   5.808
 6075POPC   GL276022  20.516   8.823   5.955
 6075POPC   C1A76023  20.889   9.033   6.229
 6075POPC   D2A76024  20.687   8.828   6.525
 6075POPC   C3A76025  20.914   8.941   6.886
 6075POPC   C4A76026  20.793   8.915   7.294
 6075POPC   C1B76027  20.313   9.095   6.257
 6075POPC   C2B76028  20.177   8.996   6.681
 6075POPC   C3B76029  20.369   9.054   7.057
 6075POPC   C4B76030  20.324   9.295   7.457
 6076POPC   NC376031  38.996  33.148   5.489
 6076POPC   PO476032  39.621  33.184   5.533
 6076POPC   GL176033  39.505  32.936   5.867
 6076POPC   GL276034  39.139  32.889   5.885
 6076POPC   C1A76035  39.420  32.992   6.289
 6076POPC   D2A76036  39.100  32.969   6.552
 6076POPC   C3A76037  39.312  32.888   6.899
 6076POPC   C4A76038  39.530  32.858   7.264
 6076POPC   C1B76039  39.010  33.276   6.131
 6076POPC   C2B76040  38.889  33.488   6.507
 6076POPC   C3B76041  38.926  33.294   6.914
 6076POPC   C4B76042  39.104  33.115   7.313
 6077POPC   NC376043  19.576  15.170   5.429
 6077POPC   PO476044  20.053  14.740   5.523
 6077POPC   GL176045  19.950  15.107   5.818
 6077POPC   GL276046  20.066  15.485   5.892
 6077POPC   C1A76047  19.719  15.091   6.225
 6077POPC   D2A76048  19.582  14.886   6.629
 6077POPC   C3A76049  19.694  14.988   7.078
 6077POPC   C4A76050  19.736  14.833   7.522
 6077POPC   C1B76051  20.148  15.366   6.309
 6077POPC   C2B76052  20.020  15.205   6.716
 6077POPC   C3B76053  20.207  15.072   7.115
 6077POPC   C4B76054  20.041  15.223   7.475
 6078POPC   NC376055  35.868  18.219   4.993
 6078POPC   PO476056  36.202  18.624   5.418
 6078POPC   GL176057  36.187  18.491   5.824
 6078POPC   GL276058  36.023  18.168   5.755
 6078POPC   C1A76059  36.288  18.610   6.269
 6078POPC   D2A76060  36.091  18.511   6.674
 6078POPC   C3A76061  36.289  18.604   7.084
 6078POPC   C4A76062  36.221  18.593   7.585
 6078POPC   C1B76063  35.884  18.230   6.201
 6078POPC   C2B76064  35.724  18.007   6.584
 6078POPC   C3B76065  35.796  18.216   6.972
 6078POPC   C4B76066  36.016  18.189   7.329
 6079POPC   NC376067   7.681  31.925   5.424
 6079POPC   PO476068   6.962  31.985   5.431
 6079POPC   GL176069   7.265  32.062   5.787
 6079POPC   GL276070   7.416  32.377   5.728
 6079POPC   C1A76071   7.476  32.032   6.219
 6079POPC   D2A76072   7.768  32.008   6.585
 6079POPC   C3A76073   7.541  32.080   6.917
 6079POPC   C4A76074   7.726  32.175   7.276
 6079POPC   C1B76075   7.309  32.522   6.150
 6079POPC   C2B76076   7.510  32.482   6.570
 6079POPC   C3B76077   7.526  32.579   7.006
 6079POPC   C4B76078   7.444  32.565   7.398
 6080POPC   NC376079  34.832  24.668   5.438
 6080POPC   PO476080  34.214  24.221   5.407
 6080POPC   GL176081  34.551  24.193   5.710
 6080POPC   GL276082  34.580  24.536   5.847
 6080POPC   C1A76083  34.745  24.152   6.140
 6080POPC   D2A76084  34.672  24.390   6.551
 6080POPC   C3A76085  34.690  24.143   6.928
 6080POPC   C4A76086  34.546  24.118   7.348
 6080POPC   C1B76087  34.856  24.760   6.180
 6080POPC   C2B76088  35.052  24.772   6.628
 6080POPC   C3B76089  34.898  24.626   7.036
 6080POPC   C4B76090  34.785  24.610   7.483
 6081POPC   NC376091  32.631   5.996   5.245
 6081POPC   PO476092  32.026   5.693   5.298
 6081POPC   GL176093  31.960   5.749   5.834
 6081POPC   GL276094  32.274   5.751   6.066
 6081POPC   C1A76095  31.809   5.988   6.192
 6081POPC   D2A76096  32.030   6.224   6.511
 6081POPC   C3A76097  31.907   6.121   6.936
 6081POPC   C4A76098  31.758   6.320   7.288
 6081POPC   C1B76099  32.505   6.056   6.371
 6081POPC   C2B76100  32.556   6.296   6.781
 6081POPC   C3B76101  32.600   6.016   7.142
 6081POPC   C4B76102  32.380   5.588   7.138
 6082POPC   NC376103  18.073  25.752   5.319
 6082POPC   PO476104  18.110  25.101   5.417
 6082POPC   GL176105  18.114  25.136   5.859
 6082POPC   GL276106  18.482  25.086   5.822
 6082POPC   C1A76107  18.169  25.388   6.267
 6082POPC   D2A76108  18.172  25.460   6.736
 6082POPC   C3A76109  18.126  25.144   7.054
 6082POPC   C4A76110  18.101  25.147   7.504
 6082POPC   C1B76111  18.668  25.368   6.127
 6082POPC   C2B76112  18.575  25.209   6.514
 6082POPC   C3B76113  18.644  25.250   6.914
 6082POPC   C4B76114  18.562  25.253   7.338
 6083POPC   NC376115  13.510   5.274   5.402
 6083POPC   PO476116  13.770   4.729   5.511
 6083POPC   GL176117  13.485   4.992   5.822
 6083POPC   GL276118  13.548   5.372   5.890
 6083POPC   C1A76119  13.418   5.088   6.297
 6083POPC   D2A76120  13.349   5.072   6.767
 6083POPC   C3A76121  13.663   4.974   7.034
 6083POPC   C4A76122  13.672   5.039   7.499
 6083POPC   C1B76123  13.818   5.457   6.256
 6083POPC   C2B76124  13.636   5.477   6.659
 6083POPC   C3B76125  13.668   5.454   7.093
 6083POPC   C4B76126  14.010   5.439   7.387
 6084POPC   NC376127  18.403  33.342   5.330
 6084POPC   PO476128  18.014  32.778   5.481
 6084POPC   GL176129  18.148  33.099   5.763
 6084POPC   GL276130  18.486  33.240   5.817
 6084POPC   C1A76131  18.201  32.966   6.184
 6084POPC   D2A76132  17.983  32.782   6.522
 6084POPC   C3A76133  18.211  32.798   6.905
 6084POPC   C4A76134  18.150  32.845   7.343
 6084POPC   C1B76135  18.456  33.400   6.238
 6084POPC   C2B76136  18.447  33.224   6.679
 6084POPC   C3B76137  18.264  33.316   7.113
 6084POPC   C4B76138  18.465  33.266   7.556
 6085POPC   NC376139   9.911   1.700   5.127
 6085POPC   PO476140   9.696   0.992   5.260
 6085POPC   GL176141   9.888   1.223   5.643
 6085POPC   GL276142  10.083   1.002   5.836
 6085POPC   C1A76143   9.734   1.377   6.067
 6085POPC   D2A76144   9.728   1.580   6.497
 6085POPC   C3A76145   9.753   1.312   6.887
 6085POPC   C4A76146   9.837   1.321   7.345
 6085POPC   C1B76147   9.820   0.860   6.215
 6085POPC   C2B76148   9.767   0.774   6.682
 6085POPC   C3B76149   9.830   0.838   7.155
 6085POPC   C4B76150   9.809   0.929   7.661
 6086POPC   NC376151  34.999  43.489   5.515
 6086POPC   PO476152  35.497  43.175   5.209
 6086POPC   GL176153  35.428  43.046   5.679
 6086POPC   GL276154  35.300  43.340   5.897
 6086POPC   C1A76155  35.349  42.895   6.143
 6086POPC   D2A76156  35.268  43.084   6.559
 6086POPC   C3A76157  35.391  42.972   6.979
 6086POPC   C4A76158  35.126  43.059   7.361
 6086POPC   C1B76159  35.329  43.628   6.275
 6086POPC   C2B76160  35.486  43.531   6.697
 6086POPC   C3B76161  35.324  43.467   7.099
 6086POPC   C4B76162  35.411  43.436   7.549
 6087POPC   NC376163  42.471  15.026   5.199
 6087POPC   PO476164  42.444  15.673   5.289
 6087POPC   GL176165  42.427  15.329   5.649
 6087POPC   GL276166  42.682  15.025   5.693
 6087POPC   C1A76167  42.347  15.134   6.084
 6087POPC   D2A76168  42.481  15.392   6.435
 6087POPC   C3A76169  42.406  15.379   6.874
 6087POPC   C4A76170  42.247  15.105   7.195
 6087POPC   C1B76171  42.858  15.107   6.131
 6087POPC   C2B76172  42.822  15.043   6.566
 6087POPC   C3B76173  42.664  14.915   6.911
 6087POPC   C4B76174  42.744  15.032   7.297
 6088POPC   NC376175  39.380  28.483   5.527
 6088POPC   PO476176  38.732  28.584   5.368
 6088POPC   GL176177  38.947  28.559   5.759
 6088POPC   GL276178  39.039  28.189   5.774
 6088POPC   C1A76179  38.895  28.452   6.165
 6088POPC   D2A76180  38.999  28.314   6.546
 6088POPC   C3A76181  39.256  28.557   6.820
 6088POPC   C4A76182  39.210  28.476   7.229
 6088POPC   C1B76183  39.375  28.270   6.131
 6088POPC   C2B76184  39.509  28.190   6.539
 6088POPC   C3B76185  39.311  28.055   6.916
 6088POPC   C4B76186  39.657  28.229   7.164
 6089POPC   NC376187  17.972   9.534   5.292
 6089POPC   PO476188  18.432  10.057   5.370
 6089POPC   GL176189  18.431   9.811   5.760
 6089POPC   GL276190  18.593   9.502   5.731
 6089POPC   C1A76191  18.376   9.805   6.211
 6089POPC   D2A76192  18.157   9.866   6.596
 6089POPC   C3A76193  18.391   9.908   6.958
 6089POPC   C4A76194  18.497  10.236   7.210
 6089POPC   C1B76195  18.636   9.373   6.165
 6089POPC   C2B76196  18.607   9.545   6.613
 6089POPC   C3B76197  18.505   9.378   7.015
 6089POPC   C4B76198  18.277   9.595   7.347
 6090POPC   NC376199  42.796  11.650   5.501
 6090POPC   PO476200  42.998  12.277   5.354
 6090POPC   GL176201  43.105  12.253   5.793
 6090POPC   GL276202  43.119  11.883   5.851
 6090POPC   C1A76203  43.080  12.237   6.242
 6090POPC   D2A76204  43.078  11.973   6.600
 6090POPC   C3A76205  43.153  12.124   7.022
 6090POPC   C4A76206  43.433  11.869   7.286
 6090POPC   C1B76207  42.765  11.735   6.136
 6090POPC   C2B76208  42.631  11.545   6.534
 6090POPC   C3B76209  42.866  11.623   6.915
 6090POPC   C4B76210  42.974  11.634   7.325
 6091POPC   NC376211  44.777   9.147   5.495
 6091POPC   PO476212   0.142   8.611   5.516
 6091POPC   GL176213  44.820   8.732   5.828
 6091POPC   GL276214  44.460   8.814   5.823
 6091POPC   C1A76215  44.811   9.038   6.163
 6091POPC   D2A76216  44.637   9.131   6.582
 6091POPC   C3A76217  44.785   9.059   6.976
 6091POPC   C4A76218  44.504   9.101   7.356
 6091POPC   C1B76219  44.534   8.638   6.261
 6091POPC   C2B76220  44.954   8.657   6.499
 6091POPC   C3B76221   0.089   8.575   6.931
 6091POPC   C4B76222  44.888   8.715   7.322
 6092POPC   NC376223  10.977  43.683   5.447
 6092POPC   PO476224  11.629  43.594   5.362
 6092POPC   GL176225  11.479  43.874   5.720
 6092POPC   GL276226  11.134  43.834   5.919
 6092POPC   C1A76227  11.591  43.886   6.158
 6092POPC   D2A76228  11.634  43.630   6.529
 6092POPC   C3A76229  11.592  43.781   6.907
 6092POPC   C4A76230  11.625  43.901   7.289
 6092POPC   C1B76231  11.094  44.006   6.330
 6092POPC   C2B76232  11.186  44.040   6.771
 6092POPC   C3B76233  11.169  44.165   7.201
 6092POPC   C4B76234  10.952  44.195   7.627
 6093POPC   NC376235  14.566  33.872   5.489
 6093POPC   PO476236  14.211  33.370   5.678
 6093POPC   GL176237  14.433  33.617   5.923
 6093POPC   GL276238  14.168  33.861   5.899
 6093POPC   C1A76239  14.537  33.862   6.285
 6093POPC   D2A76240  14.716  33.905   6.718
 6093POPC   C3A76241  14.465  33.904   7.081
 6093POPC   C4A76242  14.387  33.607   7.424
 6093POPC   C1B76243  14.049  34.172   6.196
 6093POPC   C2B76244  14.231  34.145   6.620
 6093POPC   C3B76245  14.069  34.290   7.023
 6093POPC   C4B76246  14.133  34.108   7.414
 6094POPC   NC376247  24.553  35.640   5.283
 6094POPC   PO476248  24.144  35.043   5.444
 6094POPC   GL176249  24.467  35.139   5.706
 6094POPC   GL276250  24.483  35.473   5.785
 6094POPC   C1A76251  24.494  35.122   6.148
 6094POPC   D2A76252  24.470  35.388   6.487
 6094POPC   C3A76253  24.625  35.173   6.816
 6094POPC   C4A76254  24.520  35.031   7.202
 6094POPC   C1B76255  24.789  35.534   6.083
 6094POPC   C2B76256  24.954  35.550   6.487
 6094POPC   C3B76257  24.776  35.694   6.859
 6094POPC   C4B76258  24.622  35.522   7.233
 6095POPC   NC376259  43.573  14.563   5.317
 6095POPC   PO476260  43.091  14.181   5.700
 6095POPC   GL176261  43.104  14.596   5.958
 6095POPC   GL276262  43.417  14.610   5.862
 6095POPC   C1A76263  43.134  14.698   6.390
 6095POPC   D2A76264  43.041  14.372   6.647
 6095POPC   C3A76265  42.896  14.467   7.030
 6095POPC   C4A76266  42.822  14.212   7.351
 6095POPC   C1B76267  43.412  14.316   6.249
 6095POPC   C2B76268  43.553  14.430   6.653
 6095POPC   C3B76269  43.400  14.307   7.029
 6095POPC   C4B76270  43.291  14.472   7.395
 6096POPC   NC376271   8.235  26.408   5.210
 6096POPC   PO476272   8.080  25.891   5.674
 6096POPC   GL176273   7.927  26.180   5.985
 6096POPC   GL276274   8.188  26.041   6.169
 6096POPC   C1A76275   7.952  26.409   6.408
 6096POPC   D2A76276   8.297  26.335   6.710
 6096POPC   C3A76277   8.226  26.000   6.997
 6096POPC   C4A76278   8.136  26.007   7.440
 6096POPC   C1B76279   8.569  26.027   6.369
 6096POPC   C2B76280   8.809  26.223   6.686
 6096POPC   C3B76281   8.759  25.997   7.054
 6096POPC   C4B76282   8.522  25.683   7.306
 6097POPC   NC376283   6.557   2.108   5.375
 6097POPC   PO476284   6.117   1.520   5.587
 6097POPC   GL176285   6.515   1.683   5.786
 6097POPC   GL276286   6.742   2.010   5.834
 6097POPC   C1A76287   6.475   1.766   6.226
 6097POPC   D2A76288   6.309   2.146   6.451
 6097POPC   C3A76289   6.363   2.150   6.924
 6097POPC   C4A76290   6.573   1.944   7.240
 6097POPC   C1B76291   6.895   2.038   6.259
 6097POPC   C2B76292   6.745   1.907   6.650
 6097POPC   C3B76293   6.987   1.827   6.984
 6097POPC   C4B76294   7.039   2.192   7.196
 6098POPC   NC376295  20.593  40.992   5.428
 6098POPC   PO476296  20.886  40.473   5.054
 6098POPC   GL176297  20.773  40.579   5.647
 6098POPC   GL276298  20.763  40.924   5.886
 6098POPC   C1A76299  20.457  40.594   6.062
 6098POPC   D2A76300  20.412  40.806   6.472
 6098POPC   C3A76301  20.572  40.594   6.841
 6098POPC   C4A76302  20.519  40.749   7.228
 6098POPC   C1B76303  20.969  40.825   6.256
 6098POPC   C2B76304  21.167  40.826   6.657
 6098POPC   C3B76305  20.956  40.914   7.019
 6098POPC   C4B76306  20.902  41.101   7.411
 6099POPC   NC376307   6.133  37.896   5.503
 6099POPC   PO476308   5.933  37.226   5.525
 6099POPC   GL176309   5.880  37.514   5.841
 6099POPC   GL276310   5.539  37.395   5.892
 6099POPC   C1A76311   6.014  37.780   6.193
 6099POPC   D2A76312   6.250  37.973   6.539
 6099POPC   C3A76313   6.159  37.695   6.845
 6099POPC   C4A76314   5.842  37.829   7.127
 6099POPC   C1B76315   5.633  37.426   6.310
 6099POPC   C2B76316   5.676  37.693   6.653
 6099POPC   C3B76317   5.431  37.550   7.000
 6099POPC   C4B76318   5.494  37.290   7.323
 6100POPC   NC376319  41.767   5.519   5.529
 6100POPC   PO476320  42.018   4.859   5.452
 6100POPC   GL176321  41.785   5.039   5.839
 6100POPC   GL276322  41.437   5.240   5.825
 6100POPC   C1A76323  41.832   5.075   6.305
 6100POPC   D2A76324  41.652   5.192   6.706
 6100POPC   C3A76325  41.711   4.913   7.056
 6100POPC   C4A76326  41.525   4.990   7.465
 6100POPC   C1B76327  41.336   5.274   6.270
 6100POPC   C2B76328  41.115   5.175   6.654
 6100POPC   C3B76329  41.264   5.215   7.058
 6100POPC   C4B76330  41.214   5.384   7.465
 6101POPC   NC376331  24.444  18.991   5.306
 6101POPC   PO476332  24.408  19.603   5.503
 6101POPC   GL176333  24.604  19.210   5.740
 6101POPC   GL276334  24.391  18.882   5.794
 6101POPC   C1A76335  24.797  18.976   6.101
 6101POPC   D2A76336  24.724  19.169   6.515
 6101POPC   C3A76337  24.675  19.028   6.950
 6101POPC   C4A76338  24.615  19.251   7.319
 6101POPC   C1B76339  24.292  18.901   6.222
 6101POPC   C2B76340  24.269  18.937   6.631
 6101POPC   C3B76341  24.165  19.086   7.033
 6101POPC   C4B76342  24.191  18.978   7.468
 6102POPC   NC376343  17.245  18.422   5.594
 6102POPC   PO476344  17.725  18.047   5.243
 6102POPC   GL176345  17.642  18.008   5.731
 6102POPC   GL276346  17.547  18.278   5.974
 6102POPC   C1A76347  17.813  17.918   6.182
 6102POPC   D2A76348  17.673  18.274   6.470
 6102POPC   C3A76349  17.507  18.272   6.843
 6102POPC   C4A76350  17.570  18.392   7.241
 6102POPC   C1B76351  17.239  18.463   6.246
 6102POPC   C2B76352  17.065  18.327   6.629
 6102POPC   C3B76353  17.113  18.512   7.057
 6102POPC   C4B76354  17.181  18.526   7.523
 6103POPC   NC376355  19.829  25.591   5.323
 6103POPC   PO476356  19.846  24.983   5.420
 6103POPC   GL176357  19.742  25.243   5.799
 6103POPC   GL276358  19.587  24.959   5.910
 6103POPC   C1A76359  19.617  25.259   6.299
 6103POPC   D2A76360  19.546  24.950   6.598
 6103POPC   C3A76361  19.661  25.014   6.991
 6103POPC   C4A76362  19.591  25.380   7.219
 6103POPC   C1B76363  20.001  24.964   6.152
 6103POPC   C2B76364  20.047  25.106   6.600
 6103POPC   C3B76365  20.168  24.980   7.017
 6103POPC   C4B76366  20.271  25.147   7.412
 6104POPC   NC376367  39.510   7.939   5.491
 6104POPC   PO476368  38.820   8.096   5.383
 6104POPC   GL176369  39.088   8.132   5.741
 6104POPC   GL276370  39.180   7.781   5.858
 6104POPC   C1A76371  39.344   8.190   6.148
 6104POPC   D2A76372  39.520   8.022   6.558
 6104POPC   C3A76373  39.282   8.212   6.886
 6104POPC   C4A76374  39.199   8.473   7.277
 6104POPC   C1B76375  38.886   7.935   6.155
 6104POPC   C2B76376  38.670   8.049   6.497
 6104POPC   C3B76377  38.803   7.916   6.894
 6104POPC   C4B76378  39.034   7.995   7.274
 6105POPC   NC376379  33.877  20.199   5.538
 6105POPC   PO476380  33.553  19.679   5.494
 6105POPC   GL176381  33.693  19.798   5.868
 6105POPC   GL276382  34.003  19.819   5.886
 6105POPC   C1A76383  33.702  19.630   6.271
 6105POPC   D2A76384  33.526  19.802   6.618
 6105POPC   C3A76385  33.671  19.686   6.967
 6105POPC   C4A76386  33.745  19.947   7.249
 6105POPC   C1B76387  33.955  20.060   6.317
 6105POPC   C2B76388  33.889  20.162   6.775
 6105POPC   C3B76389  34.157  20.197   7.153
 6105POPC   C4B76390  34.263  19.883   7.517
 6106POPC   NC376391   5.227   8.117   5.101
 6106POPC   PO476392   4.998   7.621   5.466
 6106POPC   GL176393   4.980   7.555   5.855
 6106POPC   GL276394   5.292   7.426   5.898
 6106POPC   C1A76395   4.929   7.456   6.291
 6106POPC   D2A76396   5.068   7.612   6.690
 6106POPC   C3A76397   5.120   7.352   7.054
 6106POPC   C4A76398   5.179   7.375   7.505
 6106POPC   C1B76399   5.427   7.572   6.308
 6106POPC   C2B76400   5.520   7.360   6.720
 6106POPC   C3B76401   5.601   7.510   7.151
 6106POPC   C4B76402   5.715   7.325   7.567
 6107POPC   NC376403  14.539   1.054   5.456
 6107POPC   PO476404  13.935   0.988   5.288
 6107POPC   GL176405  14.164   1.199   5.739
 6107POPC   GL276406  14.303   0.846   5.891
 6107POPC   C1A76407  14.413   1.261   6.165
 6107POPC   D2A76408  14.721   1.063   6.484
 6107POPC   C3A76409  14.567   1.073   6.915
 6107POPC   C4A76410  14.208   1.356   7.026
 6107POPC   C1B76411  14.095   0.835   6.335
 6107POPC   C2B76412  13.987   0.955   6.769
 6107POPC   C3B76413  14.172   0.857   7.191
 6107POPC   C4B76414  14.120   0.912   7.670
 6108POPC   NC376415  26.975  33.709   5.401
 6108POPC   PO476416  26.543  33.153   5.659
 6108POPC   GL176417  26.594  33.558   5.857
 6108POPC   GL276418  26.509  33.897   5.821
 6108POPC   C1A76419  26.861  33.693   6.172
 6108POPC   D2A76420  26.973  33.507   6.536
 6108POPC   C3A76421  26.880  33.670   6.936
 6108POPC   C4A76422  26.587  33.594   7.262
 6108POPC   C1B76423  26.580  34.122   6.221
 6108POPC   C2B76424  26.882  34.080   6.593
 6108POPC   C3B76425  26.656  34.126   7.001
 6108POPC   C4B76426  26.564  34.084   7.436
 6109POPC   NC376427  44.294  43.838   5.477
 6109POPC   PO476428  44.749  44.168   5.161
 6109POPC   GL176429  44.703  44.048   5.639
 6109POPC   GL276430  44.414  44.219   5.785
 6109POPC   C1A76431  44.751  43.928   6.106
 6109POPC   D2A76432  44.905  43.712   6.521
 6109POPC   C3A76433  44.859  43.902   6.930
 6109POPC   C4A76434  44.539  43.837   7.220
 6109POPC   C1B76435  44.303  44.200   6.192
 6109POPC   C2B76436  44.499  44.045   6.564
 6109POPC   C3B76437  44.507  44.271   6.921
 6109POPC   C4B76438  44.488  44.347   7.289
 6110POPC   NC376439  12.859  11.157   5.650
 6110POPC   PO476440  13.418  11.560   5.523
 6110POPC   GL176441  13.110  11.546   5.888
 6110POPC   GL276442  12.927  11.838   6.000
 6110POPC   C1A76443  12.971  11.350   6.286
 6110POPC   D2A76444  13.005  11.446   6.738
 6110POPC   C3A76445  12.958  11.094   7.039
 6110POPC   C4A76446  12.820  10.990   7.436
 6110POPC   C1B76447  12.693  11.766   6.366
 6110POPC   C2B76448  12.501  11.508   6.682
 6110POPC   C3B76449  12.609  11.470   7.116
 6110POPC   C4B76450  12.601  11.423   7.561
 6111POPC   NC376451  31.791   6.899   5.505
 6111POPC   PO476452  31.637   6.265   5.559
 6111POPC   GL176453  31.560   6.580   5.856
 6111POPC   GL276454  31.879   6.697   5.963
 6111POPC   C1A76455  31.340   6.777   6.191
 6111POPC   D2A76456  31.162   6.615   6.547
 6111POPC   C3A76457  31.147   6.774   6.913
 6111POPC   C4A76458  31.348   6.639   7.287
 6111POPC   C1B76459  31.811   6.696   6.410
 6111POPC   C2B76460  31.647   6.670   6.829
 6111POPC   C3B76461  31.837   6.813   7.196
 6111POPC   C4B76462  31.780   6.740   7.615
 6112POPC   NC376463  41.485  40.940   5.254
 6112POPC   PO476464  41.790  40.413   5.268
 6112POPC   GL176465  41.683  40.719   5.675
 6112POPC   GL276466  41.380  40.991   5.738
 6112POPC   C1A76467  41.734  40.885   6.114
 6112POPC   D2A76468  41.804  40.975   6.547
 6112POPC   C3A76469  41.544  40.789   6.877
 6112POPC   C4A76470  41.658  40.752   7.284
 6112POPC   C1B76471  41.195  41.157   6.109
 6112POPC   C2B76472  41.296  41.028   6.480
 6112POPC   C3B76473  41.066  40.975   6.800
 6112POPC   C4B76474  41.175  41.008   7.182
 6113POPC   NC376475   9.648   3.890   5.335
 6113POPC   PO476476  10.097   3.405   5.346
 6113POPC   GL176477   9.898   3.629   5.737
 6113POPC   GL276478   9.542   3.704   5.835
 6113POPC   C1A76479   9.909   3.818   6.185
 6113POPC   D2A76480  10.030   3.616   6.582
 6113POPC   C3A76481   9.772   3.459   6.904
 6113POPC   C4A76482   9.959   3.639   7.246
 6113POPC   C1B76483   9.389   3.551   6.227
 6113POPC   C2B76484   9.440   3.751   6.624
 6113POPC   C3B76485   9.450   3.821   7.067
 6113POPC   C4B76486   9.453   3.484   7.356
 6114POPC   NC376487  40.007  21.810   5.500
 6114POPC   PO476488  39.736  22.478   5.523
 6114POPC   GL176489  39.996  22.237   5.841
 6114POPC   GL276490  40.354  22.327   5.889
 6114POPC   C1A76491  40.094  22.029   6.253
 6114POPC   D2A76492  40.083  21.864   6.679
 6114POPC   C3A76493  39.970  22.123   7.020
 6114POPC   C4A76494  39.756  22.072   7.428
 6114POPC   C1B76495  40.316  22.506   6.261
 6114POPC   C2B76496  40.190  22.407   6.649
 6114POPC   C3B76497  40.360  22.477   7.041
 6114POPC   C4B76498  40.263  22.269   7.419
 6115POPC   NC376499  20.210  27.536   5.306
 6115POPC   PO476500  19.609  27.647   5.241
 6115POPC   GL176501  19.569  27.721   5.658
 6115POPC   GL276502  19.915  27.757   5.724
 6115POPC   C1A76503  19.560  27.648   6.088
 6115POPC   D2A76504  19.817  27.439   6.368
 6115POPC   C3A76505  19.734  27.462   6.796
 6115POPC   C4A76506  19.751  27.541   7.197
 6115POPC   C1B76507  20.193  27.727   6.093
 6115POPC   C2B76508  20.200  27.773   6.546
 6115POPC   C3B76509  20.214  27.582   6.970
 6115POPC   C4B76510  20.258  27.810   7.360
 6116POPC   NC376511   3.786  17.803   5.488
 6116POPC   PO476512   3.278  17.439   5.516
 6116POPC   GL176513   3.509  17.459   5.941
 6116POPC   GL276514   3.835  17.540   5.909
 6116POPC   C1A76515   3.672  17.491   6.415
 6116POPC   D2A76516   3.836  17.244   6.790
 6116POPC   C3A76517   3.536  17.222   7.108
 6116POPC   C4A76518   3.221  17.553   7.101
 6116POPC   C1B76519   3.907  17.894   6.171
 6116POPC   C2B76520   3.825  18.000   6.604
 6116POPC   C3B76521   3.706  17.707   6.926
 6116POPC   C4B76522   3.767  17.623   7.365
 6117POPC   NC376523   0.280  25.451   5.334
 6117POPC   PO476524   0.739  25.033   5.375
 6117POPC   GL176525   0.582  25.286   5.722
 6117POPC   GL276526   0.421  24.969   5.847
 6117POPC   C1A76527   0.365  25.434   6.113
 6117POPC   D2A76528   0.456  25.332   6.548
 6117POPC   C3A76529   0.179  25.170   6.866
 6117POPC   C4A76530   0.169  25.277   7.297
 6117POPC   C1B76531   0.738  24.996   6.178
 6117POPC   C2B76532   0.930  25.154   6.562
 6117POPC   C3B76533   0.919  24.907   6.926
 6117POPC   C4B76534   0.543  24.919   7.156
 6118POPC   NC376535  12.619   6.790   5.482
 6118POPC   PO476536  13.170   6.358   5.275
 6118POPC   GL176537  12.943   6.398   5.685
 6118POPC   GL276538  13.163   6.648   5.842
 6118POPC   C1A76539  12.727   6.553   6.108
 6118POPC   D2A76540  12.671   6.698   6.559
 6118POPC   C3A76541  12.742   6.513   6.959
 6118POPC   C4A76542  12.462   6.351   7.278
 6118POPC   C1B76543  13.088   6.926   6.217
 6118POPC   C2B76544  13.125   6.982   6.677
 6118POPC   C3B76545  13.081   6.877   7.105
 6118POPC   C4B76546  13.040   6.561   7.437
 6119POPC   NC376547  21.888  22.560   5.575
 6119POPC   PO476548  21.357  22.111   5.536
 6119POPC   GL176549  21.330  22.282   5.913
 6119POPC   GL276550  21.555  22.540   5.985
 6119POPC   C1A76551  21.323  22.149   6.325
 6119POPC   D2A76552  21.072  22.103   6.637
 6119POPC   C3A76553  21.290  22.002   6.965
 6119POPC   C4A76554  21.362  22.233   7.275
 6119POPC   C1B76555  21.782  22.350   6.323
 6119POPC   C2B76556  21.667  22.292   6.747
 6119POPC   C3B76557  21.682  22.578   7.067
 6119POPC   C4B76558  21.760  22.588   7.508
 6120POPC   NC376559  37.957  34.636   5.565
 6120POPC   PO476560  37.446  34.280   5.540
 6120POPC   GL176561  37.534  34.555   5.879
 6120POPC   GL276562  37.282  34.838   5.815
 6120POPC   C1A76563  37.810  34.567   6.261
 6120POPC   D2A76564  37.990  34.620   6.682
 6120POPC   C3A76565  37.703  34.423   6.979
 6120POPC   C4A76566  37.746  34.234   7.381
 6120POPC   C1B76567  37.464  34.940   6.221
 6120POPC   C2B76568  37.673  35.037   6.609
 6120POPC   C3B76569  37.576  34.925   7.028
 6120POPC   C4B76570  37.560  34.705   7.409
 6121POPC   NC376571  20.739  28.391   5.418
 6121POPC   PO476572  20.221  27.978   5.378
 6121POPC   GL176573  20.420  28.120   5.802
 6121POPC   GL276574  20.806  28.135   5.869
 6121POPC   C1A76575  20.316  28.227   6.254
 6121POPC   D2A76576  20.249  28.362   6.684
 6121POPC   C3A76577  20.458  28.053   6.923
 6121POPC   C4A76578  20.855  28.049   7.088
 6121POPC   C1B76579  20.779  28.486   6.184
 6121POPC   C2B76580  20.729  28.589   6.637
 6121POPC   C3B76581  20.608  28.560   7.063
 6121POPC   C4B76582  20.844  28.631   7.436
 6122POPC   NC376583  21.613   3.205   5.260
 6122POPC   PO476584  21.099   3.455   5.565
 6122POPC   GL176585  21.443   3.419   5.804
 6122POPC   GL276586  21.487   3.767   5.891
 6122POPC   C1A76587  21.522   3.393   6.234
 6122POPC   D2A76588  21.574   3.643   6.569
 6122POPC   C3A76589  21.584   3.393   6.925
 6122POPC   C4A76590  21.440   3.443   7.348
 6122POPC   C1B76591  21.167   3.821   6.236
 6122POPC   C2B76592  21.183   3.955   6.664
 6122POPC   C3B76593  21.462   3.890   7.027
 6122POPC   C4B76594  21.188   4.020   7.310
 6123POPC   NC376595  26.946  25.579   5.419
 6123POPC   PO476596  26.769  26.170   5.496
 6123POPC   GL176597  26.762  25.912   5.820
 6123POPC   GL276598  27.077  25.851   5.820
 6123POPC   C1A76599  26.717  26.029   6.229
 6123POPC   D2A76600  26.792  26.292   6.570
 6123POPC   C3A76601  26.720  26.090   6.917
 6123POPC   C4A76602  26.583  26.027   7.298
 6123POPC   C1B76603  27.168  25.711   6.197
 6123POPC   C2B76604  27.215  25.987   6.520
 6123POPC   C3B76605  27.220  25.995   6.939
 6123POPC   C4B76606  27.128  25.695   7.259
 6124POPC   NC376607  34.335  43.763   5.533
 6124POPC   PO476608  34.975  43.931   5.401
 6124POPC   GL176609  34.762  43.858   5.783
 6124POPC   GL276610  34.482  44.038   5.951
 6124POPC   C1A76611  34.824  43.728   6.181
 6124POPC   D2A76612  34.670  43.951   6.518
 6124POPC   C3A76613  34.460  43.733   6.867
 6124POPC   C4A76614  34.502  43.785   7.322
 6124POPC   C1B76615  34.201  44.164   6.305
 6124POPC   C2B76616  34.224  44.262   6.757
 6124POPC   C3B76617  34.186  44.211   7.201
 6124POPC   C4B76618  34.338  44.197   7.636
 6125POPC   NC376619  33.719  32.801   5.466
 6125POPC   PO476620  33.799  33.438   5.487
 6125POPC   GL176621  33.820  33.135   5.824
 6125POPC   GL276622  33.514  32.958   5.899
 6125POPC   C1A76623  34.051  32.875   6.098
 6125POPC   D2A76624  34.146  32.810   6.526
 6125POPC   C3A76625  33.787  32.940   6.769
 6125POPC   C4A76626  33.831  33.037   7.183
 6125POPC   C1B76627  33.546  32.747   6.293
 6125POPC   C2B76628  33.284  32.815   6.662
 6125POPC   C3B76629  33.340  32.963   7.074
 6125POPC   C4B76630  33.355  32.791   7.484
 6126POPC   NC376631   9.856  39.442   5.413
 6126POPC   PO476632  10.063  38.915   5.643
 6126POPC   GL176633   9.881  39.227   5.877
 6126POPC   GL276634   9.529  39.242   5.786
 6126POPC   C1A76635   9.756  39.206   6.287
 6126POPC   D2A76636   9.710  39.420   6.657
 6126POPC   C3A76637   9.813  39.233   7.043
 6126POPC   C4A76638  10.184  39.057   7.181
 6126POPC   C1B76639   9.313  39.015   6.130
 6126POPC   C2B76640   9.301  39.133   6.572
 6126POPC   C3B76641   9.377  38.969   6.989
 6126POPC   C4B76642   9.459  39.105   7.410
 6127POPC   NC376643  34.056  24.649   5.506
 6127POPC   PO476644  33.466  24.439   5.430
 6127POPC   GL176645  33.699  24.457   5.820
 6127POPC   GL276646  34.016  24.272   5.861
 6127POPC   C1A76647  33.852  24.634   6.204
 6127POPC   D2A76648  33.702  24.689   6.623
 6127POPC   C3A76649  33.844  24.582   7.030
 6127POPC   C4A76650  33.745  24.195   7.265
 6127POPC   C1B76651  34.273  24.372   6.208
 6127POPC   C2B76652  34.105  24.326   6.597
 6127POPC   C3B76653  34.181  24.206   6.989
 6127POPC   C4B76654  34.385  24.562   7.167
 6128POPC   NC376655  23.952  42.138   5.431
 6128POPC   PO476656  23.622  42.778   5.378
 6128POPC   GL176657  23.562  42.523   5.773
 6128POPC   GL276658  23.751  42.275   5.865
 6128POPC   C1A76659  23.364  42.535   6.158
 6128POPC   D2A76660  23.328  42.360   6.561
 6128POPC   C3A76661  23.554  42.397   6.930
 6128POPC   C4A76662  23.522  42.401   7.334
 6128POPC   C1B76663  23.647  42.110   6.243
 6128POPC   C2B76664  23.571  41.928   6.643
 6128POPC   C3B76665  23.823  41.933   6.951
 6128POPC   C4B76666  23.804  41.994   7.363
 6129POPC   NC376667  18.888  35.479   5.518
 6129POPC   PO476668  18.943  34.866   5.452
 6129POPC   GL176669  19.021  35.091   5.852
 6129POPC   GL276670  19.305  35.341   5.833
 6129POPC   C1A76671  19.021  35.276   6.262
 6129POPC   D2A76672  19.177  35.263   6.665
 6129POPC   C3A76673  18.926  35.199   7.044
 6129POPC   C4A76674  19.133  34.993   7.413
 6129POPC   C1B76675  19.444  35.593   6.203
 6129POPC   C2B76676  19.350  35.773   6.609
 6129POPC   C3B76677  19.338  35.570   7.023
 6129POPC   C4B76678  19.069  35.560   7.380
 6130POPC   NC376679  12.575  18.600   5.495
 6130POPC   PO476680  12.850  17.987   5.360
 6130POPC   GL176681  12.940  18.167   5.772
 6130POPC   GL276682  13.043  18.516   5.821
 6130POPC   C1A76683  12.936  18.045   6.207
 6130POPC   D2A76684  13.074  18.216   6.604
 6130POPC   C3A76685  12.964  18.058   6.981
 6130POPC   C4A76686  12.796  18.309   7.290
 6130POPC   C1B76687  12.871  18.563   6.240
 6130POPC   C2B76688  12.849  18.700   6.664
 6130POPC   C3B76689  13.087  18.598   6.988
 6130POPC   C4B76690  13.103  18.689   7.441
 6131POPC   NC376691  37.852  17.790   5.292
 6131POPC   PO476692  37.538  17.190   5.458
 6131POPC   GL176693  37.706  17.496   5.752
 6131POPC   GL276694  37.939  17.262   5.893
 6131POPC   C1A76695  37.740  17.611   6.211
 6131POPC   D2A76696  37.801  17.321   6.575
 6131POPC   C3A76697  37.842  17.561   6.953
 6131POPC   C4A76698  37.647  17.970   7.111
 6131POPC   C1B76699  37.524  17.148   6.141
 6131POPC   C2B76700  37.278  17.305   6.537
 6131POPC   C3B76701  37.417  17.235   6.972
 6131POPC   C4B76702  37.190  17.295   7.341
 6132POPC   NC376703  20.608   1.762   5.052
 6132POPC   PO476704  20.761   2.336   5.482
 6132POPC   GL176705  20.602   2.038   5.770
 6132POPC   GL276706  20.666   2.277   6.003
 6132POPC   C1A76707  20.630   1.774   6.172
 6132POPC   D2A76708  20.883   1.771   6.558
 6132POPC   C3A76709  20.668   1.661   6.945
 6132POPC   C4A76710  20.324   1.745   7.212
 6132POPC   C1B76711  20.739   2.600   6.260
 6132POPC   C2B76712  20.832   2.707   6.658
 6132POPC   C3B76713  20.708   2.411   6.918
 6132POPC   C4B76714  20.638   2.130   7.210
 6133POPC   NC376715  28.801   6.040   5.579
 6133POPC   PO476716  28.163   5.752   5.402
 6133POPC   GL176717  28.416   5.748   5.778
 6133POPC   GL276718  28.362   6.061   5.897
 6133POPC   C1A76719  28.600   5.741   6.222
 6133POPC   D2A76720  28.722   5.789   6.684
 6133POPC   C3A76721  28.359   5.694   6.934
 6133POPC   C4A76722  28.163   5.870   7.266
 6133POPC   C1B76723  28.644   6.284   6.217
 6133POPC   C2B76724  28.837   6.318   6.657
 6133POPC   C3B76725  28.588   6.158   7.029
 6133POPC   C4B76726  28.605   6.155   7.478
 6134POPC   NC376727  40.356  18.407   5.461
 6134POPC   PO476728  39.777  18.144   5.212
 6134POPC   GL176729  39.910  18.182   5.661
 6134POPC   GL276730  39.842  18.519   5.767
 6134POPC   C1A76731  40.026  18.213   6.132
 6134POPC   D2A76732  40.249  18.414   6.484
 6134POPC   C3A76733  40.094  18.347   6.896
 6134POPC   C4A76734  39.788  18.166   7.156
 6134POPC   C1B76735  39.745  18.642   6.238
 6134POPC   C2B76736  39.887  18.765   6.676
 6134POPC   C3B76737  39.780  18.684   7.147
 6134POPC   C4B76738  39.689  18.694   7.613
 6135POPC   NC376739  32.733   9.660   5.147
 6135POPC   PO476740  32.119   9.773   5.399
 6135POPC   GL176741  32.252   9.540   5.760
 6135POPC   GL276742  32.457   9.825   5.852
 6135POPC   C1A76743  32.264   9.551   6.225
 6135POPC   D2A76744  32.032   9.828   6.528
 6135POPC   C3A76745  32.127   9.866   6.974
 6135POPC   C4A76746  32.142   9.448   7.162
 6135POPC   C1B76747  32.498   9.994   6.280
 6135POPC   C2B76748  32.539   9.756   6.668
 6135POPC   C3B76749  32.604   9.716   7.114
 6135POPC   C4B76750  32.497   9.878   7.530
 6136POPC   NC376751   1.759   1.429   5.059
 6136POPC   PO476752   2.135   0.996   5.437
 6136POPC   GL176753   2.072   1.151   5.823
 6136POPC   GL276754   1.771   1.300   5.784
 6136POPC   C1A76755   1.929   1.091   6.243
 6136POPC   D2A76756   2.151   0.916   6.569
 6136POPC   C3A76757   2.094   1.155   6.871
 6136POPC   C4A76758   2.203   1.296   7.223
 6136POPC   C1B76759   1.569   1.485   6.155
 6136POPC   C2B76760   1.618   1.396   6.577
 6136POPC   C3B76761   1.664   1.398   6.984
 6136POPC   C4B76762   1.731   1.124   7.264
 6137POPC   NC376763  31.051  11.231   5.295
 6137POPC   PO476764  31.678  11.505   5.346
 6137POPC   GL176765  31.397  11.288   5.686
 6137POPC   GL276766  31.140  11.031   5.798
 6137POPC   C1A76767  31.299  11.408   6.130
 6137POPC   D2A76768  31.462  11.517   6.555
 6137POPC   C3A76769  31.425  11.257   6.878
 6137POPC   C4A76770  31.355  11.345   7.258
 6137POPC   C1B76771  31.052  10.946   6.240
 6137POPC   C2B76772  31.121  10.877   6.708
 6137POPC   C3B76773  30.974  11.018   7.124
 6137POPC   C4B76774  31.113  10.954   7.573
 6138POPC   NC376775  23.839  38.001   5.619
 6138POPC   PO476776  23.684  37.431   5.345
 6138POPC   GL176777  23.934  37.506   5.749
 6138POPC   GL276778  24.190  37.801   5.918
 6138POPC   C1A76779  23.846  37.596   6.188
 6138POPC   D2A76780  23.680  37.782   6.544
 6138POPC   C3A76781  23.910  37.837   6.885
 6138POPC   C4A76782  23.704  37.758   7.248
 6138POPC   C1B76783  24.047  38.066   6.297
 6138POPC   C2B76784  24.228  38.203   6.716
 6138POPC   C3B76785  24.191  38.144   7.216
 6138POPC   C4B76786  23.997  37.947   7.609
 6139POPC   NC376787  28.050   5.386   5.671
 6139POPC   PO476788  28.434   4.999   5.358
 6139POPC   GL176789  28.597   5.225   5.793
 6139POPC   GL276790  28.335   5.330   6.074
 6139POPC   C1A76791  28.803   5.254   6.233
 6139POPC   D2A76792  28.513   5.313   6.598
 6139POPC   C3A76793  28.687   5.302   7.024
 6139POPC   C4A76794  28.377   5.404   7.384
 6139POPC   C1B76795  28.386   4.917   6.225
 6139POPC   C2B76796  28.266   4.806   6.633
 6139POPC   C3B76797  28.234   5.066   7.006
 6139POPC   C4B76798  27.951   5.405   7.097
 6140POPC   NC376799  17.727  34.054   5.141
 6140POPC   PO476800  17.164  33.942   5.407
 6140POPC   GL176801  17.442  33.919   5.753
 6140POPC   GL276802  17.575  33.592   5.733
 6140POPC   C1A76803  17.591  33.940   6.201
 6140POPC   D2A76804  17.743  33.785   6.593
 6140POPC   C3A76805  17.575  33.883   7.009
 6140POPC   C4A76806  17.532  33.627   7.416
 6140POPC   C1B76807  17.333  33.517   6.125
 6140POPC   C2B76808  17.459  33.361   6.545
 6140POPC   C3B76809  17.350  33.425   6.975
 6140POPC   C4B76810  17.016  33.423   7.295
 6141POPC   NC376811  42.923  21.036   5.291
 6141POPC   PO476812  43.397  20.645   5.603
 6141POPC   GL176813  43.077  20.573   5.869
 6141POPC   GL276814  42.869  20.849   5.778
 6141POPC   C1A76815  43.136  20.615   6.325
 6141POPC   D2A76816  43.331  20.378   6.676
 6141POPC   C3A76817  43.239  20.559   7.109
 6141POPC   C4A76818  43.513  20.603   7.472
 6141POPC   C1B76819  42.634  20.808   6.087
 6141POPC   C2B76820  42.692  20.797   6.514
 6141POPC   C3B76821  42.977  20.905   6.830
 6141POPC   C4B76822  42.884  20.897   7.278
 6142POPC   NC376823  14.048  25.017   5.293
 6142POPC   PO476824  14.634  25.292   5.433
 6142POPC   GL176825  14.432  25.118   5.793
 6142POPC   GL276826  14.170  25.360   5.823
 6142POPC   C1A76827  14.436  25.093   6.262
 6142POPC   D2A76828  14.236  25.117   6.663
 6142POPC   C3A76829  14.545  25.121   6.971
 6142POPC   C4A76830  14.600  25.068   7.405
 6142POPC   C1B76831  14.502  25.552   6.080
 6142POPC   C2B76832  14.450  25.614   6.525
 6142POPC   C3B76833  14.206  25.590   6.914
 6142POPC   C4B76834  14.506  25.564   7.235
 6143POPC   NC376835  19.837  32.286   5.375
 6143POPC   PO476836  19.441  31.786   5.480
 6143POPC   GL176837  19.720  31.954   5.812
 6143POPC   GL276838  19.656  32.354   5.842
 6143POPC   C1A76839  19.886  31.806   6.262
 6143POPC   D2A76840  20.053  31.808   6.734
 6143POPC   C3A76841  19.785  31.879   7.091
 6143POPC   C4A76842  19.946  31.805   7.483
 6143POPC   C1B76843  20.024  32.271   6.095
 6143POPC   C2B76844  19.924  32.249   6.531
 6143POPC   C3B76845  19.941  32.351   6.991
 6143POPC   C4B76846  19.611  32.396   7.305
 6144POPC   NC376847  17.293   5.627   5.121
 6144POPC   PO476848  17.448   6.203   5.435
 6144POPC   GL176849  17.540   5.989   5.875
 6144POPC   GL276850  17.440   5.631   5.892
 6144POPC   C1A76851  17.521   5.885   6.358
 6144POPC   D2A76852  17.305   5.640   6.703
 6144POPC   C3A76853  17.440   5.683   7.144
 6144POPC   C4A76854  17.848   5.859   7.132
 6144POPC   C1B76855  17.809   5.516   6.187
 6144POPC   C2B76856  17.857   5.637   6.659
 6144POPC   C3B76857  17.826   5.357   7.017
 6144POPC   C4B76858  17.695   5.375   7.470
 6145POPC   NC376859   8.887  27.839   5.440
 6145POPC   PO476860   9.048  27.214   5.425
 6145POPC   GL176861   8.857  27.445   5.814
 6145POPC   GL276862   8.772  27.793   5.935
 6145POPC   C1A76863   8.932  27.407   6.279
 6145POPC   D2A76864   9.215  27.603   6.623
 6145POPC   C3A76865   9.169  27.623   7.098
 6145POPC   C4A76866   8.967  27.525   7.514
 6145POPC   C1B76867   8.828  27.888   6.407
 6145POPC   C2B76868   8.733  27.693   6.795
 6145POPC   C3B76869   8.609  27.710   7.211
 6145POPC   C4B76870   8.582  27.849   7.625
 6146POPC   NC376871  14.687  11.857   5.432
 6146POPC   PO476872  14.146  12.238   5.429
 6146POPC   GL176873  14.463  12.210   5.776
 6146POPC   GL276874  14.372  12.342   6.112
 6146POPC   C1A76875  14.639  11.904   6.091
 6146POPC   D2A76876  14.452  11.719   6.468
 6146POPC   C3A76877  14.527  11.961   6.826
 6146POPC   C4A76878  14.512  11.687   7.145
 6146POPC   C1B76879  14.121  11.947   6.154
 6146POPC   C2B76880  13.944  11.891   6.568
 6146POPC   C3B76881  14.018  12.014   6.995
 6146POPC   C4B76882  14.334  12.301   7.162
 6147POPC   NC376883  25.891  13.704   5.064
 6147POPC   PO476884  25.932  13.414   5.659
 6147POPC   GL176885  26.166  13.446   5.976
 6147POPC   GL276886  26.144  13.803   5.958
 6147POPC   C1A76887  25.975  13.398   6.367
 6147POPC   D2A76888  25.654  13.662   6.540
 6147POPC   C3A76889  25.781  13.710   6.969
 6147POPC   C4A76890  26.076  13.433   7.126
 6147POPC   C1B76891  26.382  13.722   6.342
 6147POPC   C2B76892  26.349  13.602   6.739
 6147POPC   C3B76893  26.275  13.915   7.076
 6147POPC   C4B76894  26.036  13.916   7.433
 6148POPC   NC376895  15.498   6.416   5.479
 6148POPC   PO476896  14.880   6.730   5.397
 6148POPC   GL176897  15.088   6.600   5.766
 6148POPC   GL276898  14.818   6.361   5.804
 6148POPC   C1A76899  15.373   6.683   6.144
 6148POPC   D2A76900  15.475   6.899   6.558
 6148POPC   C3A76901  15.477   6.754   6.992
 6148POPC   C4A76902  15.542   6.964   7.376
 6148POPC   C1B76903  14.762   6.694   6.153
 6148POPC   C2B76904  14.621   6.664   6.595
 6148POPC   C3B76905  14.856   6.640   7.005
 6148POPC   C4B76906  14.835   6.377   7.374
 6149POPC   NC376907   0.754  22.391   5.746
 6149POPC   PO476908   0.260  22.284   5.339
 6149POPC   GL176909   0.317  22.104   5.775
 6149POPC   GL276910   0.654  21.919   5.898
 6149POPC   C1A76911   0.123  22.184   6.178
 6149POPC   D2A76912   0.215  22.113   6.615
 6149POPC   C3A76913   0.175  22.278   7.014
 6149POPC   C4A76914   0.208  21.878   7.241
 6149POPC   C1B76915   0.613  22.156   6.305
 6149POPC   C2B76916   0.681  22.335   6.681
 6149POPC   C3B76917   0.697  22.066   7.026
 6149POPC   C4B76918   0.609  22.083   7.459
 6150POPC   NC376919  38.124  29.658   5.540
 6150POPC   PO476920  38.554  30.031   5.291
 6150POPC   GL176921  38.590  29.983   5.764
 6150POPC   GL276922  38.833  29.774   5.891
 6150POPC   C1A76923  38.468  30.124   6.188
 6150POPC   D2A76924  38.374  30.310   6.592
 6150POPC   C3A76925  38.244  30.114   6.974
 6150POPC   C4A76926  38.303  30.278   7.355
 6150POPC   C1B76927  38.513  29.616   6.204
 6150POPC   C2B76928  38.711  29.804   6.510
 6150POPC   C3B76929  38.813  29.741   6.857
 6150POPC   C4B76930  38.596  29.793   7.177
 6151POPC   NC376931  31.808   9.428   5.447
 6151POPC   PO476932  31.190   9.414   5.487
 6151POPC   GL176933  31.402   9.638   5.838
 6151POPC   GL276934  31.772   9.776   5.820
 6151POPC   C1A76935  31.434   9.937   6.198
 6151POPC   D2A76936  31.571  10.017   6.626
 6151POPC   C3A76937  31.276   9.865   6.922
 6151POPC   C4A76938  31.267  10.094   7.282
 6151POPC   C1B76939  31.754   9.508   6.193
 6151POPC   C2B76940  31.545   9.522   6.572
 6151POPC   C3B76941  31.700   9.599   6.955
 6151POPC   C4B76942  31.554   9.657   7.351
 6152POPC   NC376943  27.051  12.112   5.483
 6152POPC   PO476944  26.361  11.793   5.496
 6152POPC   GL176945  26.655  11.932   5.806
 6152POPC   GL276946  26.812  12.264   5.892
 6152POPC   C1A76947  26.614  11.780   6.210
 6152POPC   D2A76948  26.879  11.729   6.533
 6152POPC   C3A76949  26.729  11.789   6.938
 6152POPC   C4A76950  27.018  11.703   7.293
 6152POPC   C1B76951  26.993  12.182   6.310
 6152POPC   C2B76952  27.063  12.168   6.779
 6152POPC   C3B76953  26.874  12.181   7.221
 6152POPC   C4B76954  26.509  12.209   7.429
 6153POPC   NC376955   6.191  39.597   5.319
 6153POPC   PO476956   5.611  39.175   5.297
 6153POPC   GL176957   5.818  39.180   5.733
 6153POPC   GL276958   6.007  39.507   5.812
 6153POPC   C1A76959   5.691  39.216   6.170
 6153POPC   D2A76960   5.525  39.229   6.585
 6153POPC   C3A76961   5.761  39.175   6.970
 6153POPC   C4A76962   6.115  38.902   7.027
 6153POPC   C1B76963   6.190  39.316   6.184
 6153POPC   C2B76964   6.163  39.189   6.602
 6153POPC   C3B76965   6.157  39.491   6.950
 6153POPC   C4B76966   6.025  39.460   7.327
 6154POPC   NC376967   7.333  36.661   5.508
 6154POPC   PO476968   7.342  37.403   5.530
 6154POPC   GL176969   7.262  37.088   5.832
 6154POPC   GL276970   7.581  37.037   5.955
 6154POPC   C1A76971   7.105  36.949   6.254
 6154POPC   D2A76972   7.272  37.022   6.656
 6154POPC   C3A76973   7.312  36.788   7.028
 6154POPC   C4A76974   7.186  37.040   7.344
 6154POPC   C1B76975   7.836  37.326   6.204
 6154POPC   C2B76976   7.768  37.318   6.636
 6154POPC   C3B76977   7.882  37.099   7.029
 6154POPC   C4B76978   7.679  37.064   7.429
 6155POPC   NC376979  17.378  44.807   4.910
 6155POPC   PO476980  17.657  44.560   5.466
 6155POPC   GL176981  17.610  44.523   5.885
 6155POPC   GL276982  17.296  44.686   5.865
 6155POPC   C1A76983  17.727  44.778   6.238
 6155POPC   D2A76984  17.563  44.944   6.637
 6155POPC   C3A76985  17.723  44.793   7.050
 6155POPC   C4A76986  18.030  44.849   7.384
 6155POPC   C1B76987  17.247  44.594   6.295
 6155POPC   C2B76988  17.138  44.293   6.609
 6155POPC   C3B76989  17.002  44.468   6.973
 6155POPC   C4B76990  17.234  44.701   7.282
 6156POPC   NC376991  29.534  27.204   5.445
 6156POPC   PO476992  30.032  27.774   5.438
 6156POPC   GL176993  30.182  27.713   5.841
 6156POPC   GL276994  29.942  27.432   5.853
 6156POPC   C1A76995  30.165  27.656   6.278
 6156POPC   D2A76996  29.851  27.759   6.547
 6156POPC   C3A76997  30.011  27.786   6.944
 6156POPC   C4A76998  29.786  27.850   7.307
 6156POPC   C1B76999  29.701  27.371   6.213
 6156POPC   C2B77000  29.783  27.273   6.651
 6156POPC   C3B77001  29.621  27.421   7.037
 6156POPC   C4B77002  29.988  27.384   7.276
 6157POPC   NC377003  30.503  41.260   5.540
 6157POPC   PO477004  30.740  40.693   5.507
 6157POPC   GL177005  30.581  40.642   5.898
 6157POPC   GL277006  30.574  40.285   5.910
 6157POPC   C1A77007  30.601  40.935   6.259
 6157POPC   D2A77008  30.817  40.919   6.657
 6157POPC   C3A77009  30.597  40.963   7.031
 6157POPC   C4A77010  30.337  40.886   7.346
 6157POPC   C1B77011  30.578  40.419   6.354
 6157POPC   C2B77012  30.557  40.492   6.785
 6157POPC   C3B77013  30.867  40.516   7.081
 6157POPC   C4B77014  30.770  40.593   7.466
 6158POPC   NC377015  20.865  41.715   5.388
 6158POPC   PO477016  20.412  41.344   5.182
 6158POPC   GL177017  20.612  41.428   5.689
 6158POPC   GL277018  20.415  41.660   5.883
 6158POPC   C1A77019  20.706  41.354   6.161
 6158POPC   D2A77020  20.793  41.179   6.581
 6158POPC   C3A77021  20.496  41.152   6.913
 6158POPC   C4A77022  20.574  41.452   7.225
 6158POPC   C1B77023  20.556  41.880   6.276
 6158POPC   C2B77024  20.517  42.063   6.700
 6158POPC   C3B77025  20.765  42.113   7.054
 6158POPC   C4B77026  20.793  41.858   7.428
 6159POPC   NC377027  31.718  32.290   5.760
 6159POPC   PO477028  31.205  32.172   5.330
 6159POPC   GL177029  31.254  32.084   5.824
 6159POPC   GL277030  31.530  31.827   5.896
 6159POPC   C1A77031  31.187  32.305   6.261
 6159POPC   D2A77032  31.321  32.649   6.577
 6159POPC   C3A77033  31.478  32.587   6.984
 6159POPC   C4A77034  31.205  32.453   7.283
 6159POPC   C1B77035  31.474  31.884   6.327
 6159POPC   C2B77036  31.493  32.168   6.675
 6159POPC   C3B77037  31.555  32.094   7.114
 6159POPC   C4B77038  31.812  31.905   7.424
 6160POPC   NC377039  27.952  40.819   5.533
 6160POPC   PO477040  27.285  40.604   5.449
 6160POPC   GL177041  27.512  40.764   5.799
 6160POPC   GL277042  27.753  40.499   5.905
 6160POPC   C1A77043  27.415  41.030   6.152
 6160POPC   D2A77044  27.577  41.104   6.566
 6160POPC   C3A77045  27.400  40.941   6.939
 6160POPC   C4A77046  27.464  40.919   7.424
 6160POPC   C1B77047  27.854  40.778   6.244
 6160POPC   C2B77048  27.935  40.718   6.687
 6160POPC   C3B77049  27.890  40.940   7.073
 6160POPC   C4B77050  27.956  40.787   7.480
 6161POPC   NC377051  17.719   7.268   5.537
 6161POPC   PO477052  17.148   7.519   5.150
 6161POPC   GL177053  17.262   7.527   5.651
 6161POPC   GL277054  17.574   7.699   5.822
 6161POPC   C1A77055  17.194   7.551   6.125
 6161POPC   D2A77056  17.335   7.323   6.503
 6161POPC   C3A77057  17.249   7.434   6.926
 6161POPC   C4A77058  17.285   7.725   7.262
 6161POPC   C1B77059  17.727   7.415   6.173
 6161POPC   C2B77060  17.804   7.090   6.503
 6161POPC   C3B77061  17.742   7.173   6.922
 6161POPC   C4B77062  17.755   7.555   7.154
 6162POPC   NC377063  35.457  22.962   5.339
 6162POPC   PO477064  34.835  22.590   5.486
 6162POPC   GL177065  35.234  22.723   5.752
 6162POPC   GL277066  35.629  22.817   5.806
 6162POPC   C1A77067  35.372  22.622   6.185
 6162POPC   D2A77068  35.196  22.917   6.424
 6162POPC   C3A77069  35.415  23.002   6.749
 6162POPC   C4A77070  35.199  23.123   7.134
 6162POPC   C1B77071  35.671  23.089   6.232
 6162POPC   C2B77072  35.884  23.235   6.654
 6162POPC   C3B77073  35.716  23.182   7.094
 6162POPC   C4B77074  35.541  22.737   7.191
 6163POPC   NC377075  43.696  28.249   5.341
 6163POPC   PO477076  44.267  28.566   5.430
 6163POPC   GL177077  43.993  28.604   5.807
 6163POPC   GL277078  43.803  28.317   5.847
 6163POPC   C1A77079  44.020  28.464   6.294
 6163POPC   D2A77080  43.722  28.155   6.520
 6163POPC   C3A77081  43.855  28.089   6.946
 6163POPC   C4A77082  44.214  28.307   7.103
 6163POPC   C1B77083  43.583  28.633   6.113
 6163POPC   C2B77084  43.447  28.608   6.516
 6163POPC   C3B77085  43.766  28.575   6.809
 6163POPC   C4B77086  43.733  28.532   7.237
 6164POPC   NC377087   7.066  34.087   5.583
 6164POPC   PO477088   6.574  33.618   5.464
 6164POPC   GL177089   6.794  33.717   5.798
 6164POPC   GL277090   6.613  34.029   5.833
 6164POPC   C1A77091   6.857  33.790   6.227
 6164POPC   D2A77092   6.979  33.460   6.446
 6164POPC   C3A77093   7.020  33.479   6.893
 6164POPC   C4A77094   6.950  33.782   7.213
 6164POPC   C1B77095   6.368  33.704   6.091
 6164POPC   C2B77096   6.454  33.584   6.505
 6164POPC   C3B77097   6.594  33.820   6.831
 6164POPC   C4B77098   6.326  33.758   7.155
 6165POPC   NC377099  16.960   7.871   5.424
 6165POPC   PO477100  16.580   8.473   5.516
 6165POPC   GL177101  16.721   8.145   5.812
 6165POPC   GL277102  17.060   8.216   5.818
 6165POPC   C1A77103  16.912   7.961   6.225
 6165POPC   D2A77104  17.098   8.069   6.638
 6165POPC   C3A77105  16.882   7.866   7.000
 6165POPC   C4A77106  16.606   7.812   7.355
 6165POPC   C1B77107  16.960   8.466   6.196
 6165POPC   C2B77108  16.619   8.580   6.470
 6165POPC   C3B77109  16.480   8.543   6.901
 6165POPC   C4B77110  16.715   8.293   7.211
 6166POPC   NC377111  24.574  28.865   5.404
 6166POPC   PO477112  24.794  29.460   5.472
 6166POPC   GL177113  24.741  29.134   5.807
 6166POPC   GL277114  24.383  29.136   5.783
 6166POPC   C1A77115  24.579  28.964   6.227
 6166POPC   D2A77116  24.728  29.091   6.642
 6166POPC   C3A77117  24.510  28.968   7.001
 6166POPC   C4A77118  24.779  28.767   7.273
 6166POPC   C1B77119  24.493  29.448   6.121
 6166POPC   C2B77120  24.320  29.365   6.524
 6166POPC   C3B77121  24.353  29.472   6.942
 6166POPC   C4B77122  24.242  29.479   7.358
 6167POPC   NC377123   3.240  36.007   5.317
 6167POPC   PO477124   2.724  36.423   5.494
 6167POPC   GL177125   2.877  36.232   5.880
 6167POPC   GL277126   2.810  35.931   5.712
 6167POPC   C1A77127   3.029  36.109   6.322
 6167POPC   D2A77128   2.998  35.929   6.767
 6167POPC   C3A77129   2.829  36.151   7.165
 6167POPC   C4A77130   2.668  36.339   7.591
 6167POPC   C1B77131   2.614  35.791   6.110
 6167POPC   C2B77132   2.305  35.893   6.447
 6167POPC   C3B77133   2.453  35.934   6.842
 6167POPC   C4B77134   2.551  35.614   7.100
 6168POPC   NC377135  31.624  34.415   5.393
 6168POPC   PO477136  31.161  34.826   5.360
 6168POPC   GL177137  31.340  34.726   5.754
 6168POPC   GL277138  31.708  34.774   5.779
 6168POPC   C1A77139  31.383  34.482   6.146
 6168POPC   D2A77140  31.268  34.639   6.553
 6168POPC   C3A77141  31.409  34.458   6.928
 6168POPC   C4A77142  31.213  34.438   7.281
 6168POPC   C1B77143  31.909  34.553   6.129
 6168POPC   C2B77144  31.778  34.473   6.533
 6168POPC   C3B77145  31.889  34.596   6.934
 6168POPC   C4B77146  31.889  34.448   7.333
 6169POPC   NC377147  17.778  22.477   5.524
 6169POPC   PO477148  17.396  22.108   5.160
 6169POPC   GL177149  17.431  22.057   5.663
 6169POPC   GL277150  17.722  22.156   5.895
 6169POPC   C1A77151  17.384  21.871   6.105
 6169POPC   D2A77152  17.265  22.047   6.507
 6169POPC   C3A77153  17.432  22.107   6.902
 6169POPC   C4A77154  17.202  22.369   7.159
 6169POPC   C1B77155  17.644  22.427   6.293
 6169POPC   C2B77156  17.613  22.570   6.747
 6169POPC   C3B77157  17.814  22.419   7.133
 6169POPC   C4B77158  17.669  22.174   7.451
 6170POPC   NC377159  17.729  42.630   5.514
 6170POPC   PO477160  18.150  43.039   5.299
 6170POPC   GL177161  18.252  43.072   5.746
 6170POPC   GL277162  17.944  42.975   5.809
 6170POPC   C1A77163  18.327  43.223   6.176
 6170POPC   D2A77164  18.499  43.335   6.557
 6170POPC   C3A77165  18.349  43.209   6.899
 6170POPC   C4A77166  18.319  43.280   7.292
 6170POPC   C1B77167  17.958  42.848   6.197
 6170POPC   C2B77168  17.880  42.726   6.598
 6170POPC   C3B77169  17.949  42.893   7.004
 6170POPC   C4B77170  17.849  42.724   7.385
 6171POPC   NC377171  42.475   3.303   5.399
 6171POPC   PO477172  42.387   3.974   5.479
 6171POPC   GL177173  42.373   3.635   5.789
 6171POPC   GL277174  42.102   3.367   5.777
 6171POPC   C1A77175  42.455   3.480   6.196
 6171POPC   D2A77176  42.434   3.667   6.596
 6171POPC   C3A77177  42.564   3.517   6.984
 6171POPC   C4A77178  42.724   3.845   7.157
 6171POPC   C1B77179  41.892   3.544   6.122
 6171POPC   C2B77180  42.030   3.368   6.489
 6171POPC   C3B77181  42.021   3.525   6.875
 6171POPC   C4B77182  42.144   3.402   7.244
 6172POPC   NC377183  32.348  32.046   5.433
 6172POPC   PO477184  32.032  32.629   5.659
 6172POPC   GL177185  32.332  32.361   5.877
 6172POPC   GL277186  32.153  32.056   6.003
 6172POPC   C1A77187  32.489  32.223   6.317
 6172POPC   D2A77188  32.251  32.128   6.691
 6172POPC   C3A77189  32.409  32.155   7.065
 6172POPC   C4A77190  32.432  31.919   7.425
 6172POPC   C1B77191  31.895  32.199   6.350
 6172POPC   C2B77192  31.883  32.531   6.654
 6172POPC   C3B77193  32.051  32.567   7.072
 6172POPC   C4B77194  32.116  32.322   7.451
 6173POPC   NC377195  11.124  28.249   5.368
 6173POPC   PO477196  11.619  27.884   5.449
 6173POPC   GL177197  11.452  28.229   5.806
 6173POPC   GL277198  11.068  28.248   5.894
 6173POPC   C1A77199  11.388  28.346   6.293
 6173POPC   D2A77200  11.467  28.088   6.701
 6173POPC   C3A77201  11.285  28.181   7.125
 6173POPC   C4A77202  10.981  28.181   7.496
 6173POPC   C1B77203  10.952  28.618   6.173
 6173POPC   C2B77204  11.125  28.774   6.522
 6173POPC   C3B77205  11.188  28.643   6.901
 6173POPC   C4B77206  10.996  28.785   7.264
 6174POPC   NC377207  17.073  34.392   5.502
 6174POPC   PO477208  16.859  35.014   5.294
 6174POPC   GL177209  16.828  34.805   5.773
 6174POPC   GL277210  16.477  34.640   5.935
 6174POPC   C1A77211  16.758  34.971   6.216
 6174POPC   D2A77212  16.915  34.950   6.647
 6174POPC   C3A77213  16.690  35.022   6.999
 6174POPC   C4A77214  16.826  34.763   7.298
 6174POPC   C1B77215  16.305  34.268   6.212
 6174POPC   C2B77216  16.144  34.329   6.668
 6174POPC   C3B77217  16.445  34.509   6.992
 6174POPC   C4B77218  16.875  34.313   7.046
 6175POPC   NC377219   3.146  36.566   5.587
 6175POPC   PO477220   3.685  36.166   5.400
 6175POPC   GL177221   3.483  36.233   5.778
 6175POPC   GL277222   3.321  35.964   5.852
 6175POPC   C1A77223   3.425  36.415   6.185
 6175POPC   D2A77224   3.218  36.648   6.490
 6175POPC   C3A77225   3.236  36.429   6.871
 6175POPC   C4A77226   3.542  36.566   7.163
 6175POPC   C1B77227   3.567  35.942   6.250
 6175POPC   C2B77228   3.498  36.025   6.636
 6175POPC   C3B77229   3.692  36.107   6.991
 6175POPC   C4B77230   3.368  36.059   7.236
 6176POPC   NC377231  24.917  11.579   5.538
 6176POPC   PO477232  24.246  11.317   5.320
 6176POPC   GL177233  24.272  11.455   5.762
 6176POPC   GL277234  24.573  11.440   5.879
 6176POPC   C1A77235  24.225  11.359   6.221
 6176POPC   D2A77236  24.517  11.293   6.569
 6176POPC   C3A77237  24.253  11.266   6.922
 6176POPC   C4A77238  24.396  11.336   7.305
 6176POPC   C1B77239  24.844  11.510   6.225
 6176POPC   C2B77240  24.835  11.736   6.629
 6176POPC   C3B77241  24.658  11.691   7.033
 6176POPC   C4B77242  24.912  11.746   7.387
 6177POPC   NC377243  34.377  23.779   5.388
 6177POPC   PO477244  34.968  23.442   5.506
 6177POPC   GL177245  34.702  23.675   5.795
 6177POPC   GL277246  34.359  23.511   5.829
 6177POPC   C1A77247  34.701  23.611   6.234
 6177POPC   D2A77248  34.929  23.377   6.546
 6177POPC   C3A77249  34.854  23.572   6.932
 6177POPC   C4A77250  34.740  23.650   7.343
 6177POPC   C1B77251  34.303  23.883   6.094
 6177POPC   C2B77252  34.414  23.907   6.556
 6177POPC   C3B77253  34.345  23.712   6.990
 6177POPC   C4B77254  34.126  23.850   7.377
 6178POPC   NC377255  37.959  42.506   5.654
 6178POPC   PO477256  38.378  42.143   5.215
 6178POPC   GL177257  38.379  42.166   5.669
 6178POPC   GL277258  38.153  41.940   5.826
 6178POPC   C1A77259  38.581  42.272   6.072
 6178POPC   D2A77260  38.579  42.179   6.531
 6178POPC   C3A77261  38.430  42.484   6.835
 6178POPC   C4A77262  38.595  42.677   7.207
 6178POPC   C1B77263  38.157  42.057   6.257
 6178POPC   C2B77264  38.185  41.864   6.669
 6178POPC   C3B77265  38.272  42.036   7.054
 6178POPC   C4B77266  38.192  42.405   7.290
 6179POPC   NC377267   8.539  19.604   5.359
 6179POPC   PO477268   7.883  19.629   5.430
 6179POPC   GL177269   8.031  19.894   5.770
 6179POPC   GL277270   8.382  20.015   5.764
 6179POPC   C1A77271   7.871  19.994   6.167
 6179POPC   D2A77272   7.763  19.918   6.589
 6179POPC   C3A77273   8.002  19.816   6.986
 6179POPC   C4A77274   8.160  19.926   7.395
 6179POPC   C1B77275   8.352  20.178   6.195
 6179POPC   C2B77276   8.282  20.011   6.610
 6179POPC   C3B77277   8.325  20.248   7.048
 6179POPC   C4B77278   8.541  20.258   7.509
 6180POPC   NC377279  14.708  44.272   5.330
 6180POPC   PO477280  14.451  44.937   5.383
 6180POPC   GL177281  14.558  44.795   5.781
 6180POPC   GL277282  14.518  44.421   5.781
 6180POPC   C1A77283  14.420  44.948   6.181
 6180POPC   D2A77284  14.275  44.722   6.559
 6180POPC   C3A77285  14.513  44.910   6.896
 6180POPC   C4A77286  14.743  44.789   7.243
 6180POPC   C1B77287  14.569  44.459   6.228
 6180POPC   C2B77288  14.708  44.461   6.653
 6180POPC   C3B77289  14.495  44.392   7.046
 6180POPC   C4B77290  14.676  44.344   7.490
 6181POPC   NC377291  14.364  11.029   5.440
 6181POPC   PO477292  14.883  11.453   5.345
 6181POPC   GL177293  14.618  11.395   5.721
 6181POPC   GL277294  14.704  11.060   5.847
 6181POPC   C1A77295  14.359  11.347   6.115
 6181POPC   D2A77296  14.434  11.105   6.491
 6181POPC   C3A77297  14.333  11.276   6.884
 6181POPC   C4A77298  14.325  11.106   7.286
 6181POPC   C1B77299  14.877  10.910   6.268
 6181POPC   C2B77300  14.942  10.892   6.736
 6181POPC   C3B77301  14.802  11.143   7.104
 6181POPC   C4B77302  14.741  11.076   7.570
 6182POPC   NC377303   7.756  16.899   5.000
 6182POPC   PO477304   7.476  16.500   5.452
 6182POPC   GL177305   7.568  16.834   5.768
 6182POPC   GL277306   7.240  16.983   5.927
 6182POPC   C1A77307   7.573  16.749   6.218
 6182POPC   D2A77308   7.715  16.733   6.622
 6182POPC   C3A77309   7.367  16.749   6.885
 6182POPC   C4A77310   7.316  16.564   7.287
 6182POPC   C1B77311   7.244  17.116   6.393
 6182POPC   C2B77312   7.542  17.209   6.704
 6182POPC   C3B77313   7.540  17.148   7.146
 6182POPC   C4B77314   7.242  17.043   7.477
 6183POPC   NC377315   9.333  40.961   5.420
 6183POPC   PO477316   8.763  40.571   5.373
 6183POPC   GL177317   8.695  40.744   5.763
 6183POPC   GL277318   8.888  41.060   5.777
 6183POPC   C1A77319   8.753  40.599   6.165
 6183POPC   D2A77320   8.670  40.750   6.541
 6183POPC   C3A77321   8.761  40.483   6.873
 6183POPC   C4A77322   8.758  40.658   7.285
 6183POPC   C1B77323   9.190  40.855   6.090
 6183POPC   C2B77324   9.166  40.658   6.509
 6183POPC   C3B77325   9.062  40.900   6.888
 6183POPC   C4B77326   9.278  40.906   7.283
 6184POPC   NC377327   1.716  18.578   5.484
 6184POPC   PO477328   2.167  19.090   5.397
 6184POPC   GL177329   1.874  19.040   5.720
 6184POPC   GL277330   2.111  19.275   5.886
 6184POPC   C1A77331   1.793  19.003   6.181
 6184POPC   D2A77332   2.160  18.926   6.441
 6184POPC   C3A77333   2.352  18.841   6.846
 6184POPC   C4A77334   2.254  18.859   7.279
 6184POPC   C1B77335   2.069  19.452   6.312
 6184POPC   C2B77336   1.884  19.297   6.732
 6184POPC   C3B77337   1.869  19.182   7.191
 6184POPC   C4B77338   2.004  19.390   7.601
 6185POPC   NC377339  31.517   1.599   5.358
 6185POPC   PO477340  31.535   2.291   5.243
 6185POPC   GL177341  31.571   2.041   5.699
 6185POPC   GL277342  31.796   1.744   5.808
 6185POPC   C1A77343  31.430   1.968   6.175
 6185POPC   D2A77344  31.221   2.113   6.590
 6185POPC   C3A77345  31.480   2.324   6.914
 6185POPC   C4A77346  31.541   2.197   7.404
 6185POPC   C1B77347  31.745   1.562   6.269
 6185POPC   C2B77348  31.482   1.600   6.635
 6185POPC   C3B77349  31.556   1.838   6.999
 6185POPC   C4B77350  31.816   1.780   7.328
 6186POPC   NC377351  12.262  36.334   5.292
 6186POPC   PO477352  11.876  36.795   5.280
 6186POPC   GL177353  12.076  36.755   5.701
 6186POPC   GL277354  12.072  36.423   5.778
 6186POPC   C1A77355  12.063  36.898   6.160
 6186POPC   D2A77356  11.875  37.045   6.572
 6186POPC   C3A77357  12.114  36.955   6.939
 6186POPC   C4A77358  12.169  37.079   7.370
 6186POPC   C1B77359  11.955  36.363   6.193
 6186POPC   C2B77360  12.112  36.556   6.567
 6186POPC   C3B77361  12.307  36.441   6.944
 6186POPC   C4B77362  12.121  36.572   7.307
 6187POPC   NC377363  39.226  22.390   5.451
 6187POPC   PO477364  39.412  21.700   5.332
 6187POPC   GL177365  39.348  21.867   5.782
 6187POPC   GL277366  39.437  22.235   5.867
 6187POPC   C1A77367  39.565  21.919   6.215
 6187POPC   D2A77368  39.677  22.166   6.580
 6187POPC   C3A77369  39.489  21.977   6.926
 6187POPC   C4A77370  39.383  21.753   7.287
 6187POPC   C1B77371  39.307  22.361   6.273
 6187POPC   C2B77372  39.126  22.251   6.673
 6187POPC   C3B77373  38.988  22.087   7.061
 6187POPC   C4B77374  39.296  22.259   7.305
 6188POPC   NC377375  27.313  20.789   5.214
 6188POPC   PO477376  27.585  21.371   5.347
 6188POPC   GL177377  27.505  21.240   5.759
 6188POPC   GL277378  27.859  21.142   5.812
 6188POPC   C1A77379  27.548  21.436   6.173
 6188POPC   D2A77380  27.484  21.593   6.581
 6188POPC   C3A77381  27.381  21.446   6.990
 6188POPC   C4A77382  27.750  21.467   7.219
 6188POPC   C1B77383  27.678  20.955   6.188
 6188POPC   C2B77384  27.709  21.109   6.597
 6188POPC   C3B77385  27.550  20.957   6.967
 6188POPC   C4B77386  27.749  20.984   7.376
 6189POPC   NC377387  43.933  27.333   5.543
 6189POPC   PO477388  44.165  27.981   5.406
 6189POPC   GL177389  44.021  27.836   5.794
 6189POPC   GL277390  44.297  27.663   5.819
 6189POPC   C1A77391  44.046  27.817   6.263
 6189POPC   D2A77392  43.927  27.489   6.612
 6189POPC   C3A77393  43.850  27.459   7.090
 6189POPC   C4A77394  43.551  27.401   7.479
 6189POPC   C1B77395  44.395  27.441   6.187
 6189POPC   C2B77396  44.342  27.194   6.552
 6189POPC   C3B77397  44.332  27.386   6.938
 6189POPC   C4B77398  44.284  27.219   7.359
 6190POPC   NC377399  24.573  39.098   5.394
 6190POPC   PO477400  24.163  39.590   5.690
 6190POPC   GL177401  24.412  39.252   5.842
 6190POPC   GL277402  24.747  39.356   5.864
 6190POPC   C1A77403  24.523  38.959   6.154
 6190POPC   D2A77404  24.417  39.203   6.512
 6190POPC   C3A77405  24.449  39.236   6.952
 6190POPC   C4A77406  24.529  39.067   7.321
 6190POPC   C1B77407  24.890  39.296   6.302
 6190POPC   C2B77408  24.823  39.468   6.724
 6190POPC   C3B77409  24.965  39.374   7.196
 6190POPC   C4B77410  24.807  39.289   7.671
 6191POPC   NC377411   3.279   2.297   5.625
 6191POPC   PO477412   3.600   1.716   5.402
 6191POPC   GL177413   3.573   1.889   5.815
 6191POPC   GL277414   3.228   1.799   5.856
 6191POPC   C1A77415   3.683   1.931   6.268
 6191POPC   D2A77416   3.642   2.167   6.681
 6191POPC   C3A77417   3.885   2.087   7.067
 6191POPC   C4A77418   3.744   1.993   7.485
 6191POPC   C1B77419   3.085   1.844   6.288
 6191POPC   C2B77420   3.138   2.010   6.699
 6191POPC   C3B77421   3.362   1.990   7.094
 6191POPC   C4B77422   3.241   2.112   7.523
 6192POPC   NC377423  18.512  37.319   5.391
 6192POPC   PO477424  18.322  37.955   5.325
 6192POPC   GL177425  18.352  37.657   5.733
 6192POPC   GL277426  18.566  37.359   5.881
 6192POPC   C1A77427  18.188  37.567   6.158
 6192POPC   D2A77428  18.311  37.669   6.585
 6192POPC   C3A77429  18.080  37.531   6.940
 6192POPC   C4A77430  17.944  37.767   7.279
 6192POPC   C1B77431  18.695  37.577   6.235
 6192POPC   C2B77432  18.810  37.700   6.641
 6192POPC   C3B77433  18.585  37.603   7.031
 6192POPC   C4B77434  18.415  37.660   7.446
 6193POPC   NC377435  31.916  11.104   5.430
 6193POPC   PO477436  32.266  11.576   5.572
 6193POPC   GL177437  32.143  11.332   5.874
 6193POPC   GL277438  31.833  11.501   5.840
 6193POPC   C1A77439  32.331  11.315   6.295
 6193POPC   D2A77440  32.471  11.655   6.548
 6193POPC   C3A77441  32.313  11.553   6.918
 6193POPC   C4A77442  32.354  11.128   7.027
 6193POPC   C1B77443  31.811  11.326   6.250
 6193POPC   C2B77444  31.920  11.227   6.668
 6193POPC   C3B77445  31.863  11.015   7.045
 6193POPC   C4B77446  31.895  11.408   7.214
 6194POPC   NC377447  32.013  20.695   5.369
 6194POPC   PO477448  32.558  21.021   5.353
 6194POPC   GL177449  32.393  20.743   5.729
 6194POPC   GL277450  32.396  20.384   5.645
 6194POPC   C1A77451  32.088  20.525   6.040
 6194POPC   D2A77452  31.983  20.674   6.452
 6194POPC   C3A77453  32.206  20.543   6.798
 6194POPC   C4A77454  32.074  20.659   7.209
 6194POPC   C1B77455  32.548  20.286   6.057
 6194POPC   C2B77456  32.641  20.283   6.497
 6194POPC   C3B77457  32.622  20.143   6.912
 6194POPC   C4B77458  32.522  20.442   7.192
 6195POPC   NC377459  41.329  18.292   5.431
 6195POPC   PO477460  41.623  17.785   5.127
 6195POPC   GL177461  41.614  17.929   5.657
 6195POPC   GL277462  41.724  18.265   5.737
 6195POPC   C1A77463  41.512  17.971   6.121
 6195POPC   D2A77464  41.772  18.045   6.513
 6195POPC   C3A77465  41.576  18.148   6.906
 6195POPC   C4A77466  41.768  18.240   7.261
 6195POPC   C1B77467  41.724  18.463   6.143
 6195POPC   C2B77468  41.583  18.534   6.564
 6195POPC   C3B77469  41.709  18.647   6.964
 6195POPC   C4B77470  41.459  18.762   7.300
 6196POPC   NC377471  38.655   4.402   5.415
 6196POPC   PO477472  37.995   4.111   5.305
 6196POPC   GL177473  38.309   4.137   5.705
 6196POPC   GL277474  38.363   4.473   5.847
 6196POPC   C1A77475  38.352   4.102   6.201
 6196POPC   D2A77476  38.156   3.986   6.613
 6196POPC   C3A77477  38.220   4.121   7.000
 6196POPC   C4A77478  38.563   4.009   7.239
 6196POPC   C1B77479  38.435   4.611   6.296
 6196POPC   C2B77480  38.518   4.428   6.694
 6196POPC   C3B77481  38.519   4.507   7.127
 6196POPC   C4B77482  38.272   4.516   7.516
 6197POPC   NC377483  28.688  22.226   5.264
 6197POPC   PO477484  28.164  21.908   5.299
 6197POPC   GL177485  28.313  22.194   5.645
 6197POPC   GL277486  28.620  22.033   5.761
 6197POPC   C1A77487  28.320  22.262   6.114
 6197POPC   D2A77488  28.516  22.351   6.497
 6197POPC   C3A77489  28.415  22.316   6.909
 6197POPC   C4A77490  28.720  22.350   7.199
 6197POPC   C1B77491  28.586  21.820   6.183
 6197POPC   C2B77492  28.429  21.873   6.601
 6197POPC   C3B77493  28.574  21.843   7.032
 6197POPC   C4B77494  28.739  21.913   7.465
 6198POPC   NC377495   7.820  29.005   5.399
 6198POPC   PO477496   8.484  29.275   5.359
 6198POPC   GL177497   8.171  29.221   5.733
 6198POPC   GL277498   7.917  29.471   5.794
 6198POPC   C1A77499   8.067  28.973   6.123
 6198POPC   D2A77500   8.233  28.916   6.573
 6198POPC   C3A77501   8.188  29.124   6.987
 6198POPC   C4A77502   8.115  28.958   7.399
 6198POPC   C1B77503   8.000  29.442   6.265
 6198POPC   C2B77504   7.825  29.309   6.681
 6198POPC   C3B77505   7.843  29.550   7.061
 6198POPC   C4B77506   8.056  29.471   7.451
 6199POPC   NC377507  23.875   1.303   5.142
 6199POPC   PO477508  23.281   1.237   5.395
 6199POPC   GL177509  23.622   1.264   5.762
 6199POPC   GL277510  23.969   1.396   5.689
 6199POPC   C1A77511  23.667   1.324   6.240
 6199POPC   D2A77512  23.625   1.077   6.627
 6199POPC   C3A77513  23.719   1.051   7.093
 6199POPC   C4A77514  23.705   0.717   7.438
 6199POPC   C1B77515  24.178   1.392   6.116
 6199POPC   C2B77516  24.132   1.289   6.578
 6199POPC   C3B77517  24.124   1.362   7.047
 6199POPC   C4B77518  24.076   1.498   7.485
 6200POPC   NC377519  44.083   0.781   5.420
 6200POPC   PO477520  43.708   0.199   5.529
 6200POPC   GL177521  43.889   0.378   5.865
 6200POPC   GL277522  44.210   0.489   5.808
 6200POPC   C1A77523  43.987   0.264   6.287
 6200POPC   D2A77524  43.852   0.461   6.647
 6200POPC   C3A77525  43.884   0.222   7.029
 6200POPC   C4A77526  43.930   0.201   7.460
 6200POPC   C1B77527  44.104   0.743   6.156
 6200POPC   C2B77528  44.245   0.805   6.549
 6200POPC   C3B77529  44.055   0.821   6.935
 6200POPC   C4B77530  44.133   0.640   7.313
 6201POPC   NC377531  25.241   5.675   5.258
 6201POPC   PO477532  25.248   6.237   5.581
 6201POPC   GL177533  25.139   5.908   5.853
 6201POPC   GL277534  25.172   5.595   5.754
 6201POPC   C1A77535  25.365   5.717   6.226
 6201POPC   D2A77536  25.500   5.517   6.634
 6201POPC   C3A77537  25.384   5.721   7.061
 6201POPC   C4A77538  25.681   5.951   7.350
 6201POPC   C1B77539  24.933   5.466   6.126
 6201POPC   C2B77540  24.981   5.522   6.576
 6201POPC   C3B77541  24.940   5.423   7.023
 6201POPC   C4B77542  24.944   5.504   7.490
 6202POPC   NC377543  28.978  13.517   4.999
 6202POPC   PO477544  29.351  13.951   5.447
 6202POPC   GL177545  29.023  13.762   5.691
 6202POPC   GL277546  29.305  13.631   5.889
 6202POPC   C1A77547  28.856  13.693   6.124
 6202POPC   D2A77548  29.198  13.640   6.437
 6202POPC   C3A77549  29.108  13.569   6.869
 6202POPC   C4A77550  28.776  13.762   7.092
 6202POPC   C1B77551  29.611  13.425   6.198
 6202POPC   C2B77552  29.572  13.282   6.647
 6202POPC   C3B77553  29.507  13.319   7.113
 6202POPC   C4B77554  29.151  13.482   7.414
 6203POPC   NC377555  22.418  20.359   5.122
 6203POPC   PO477556  22.025  20.745   5.597
 6203POPC   GL177557  22.128  20.689   6.003
 6203POPC   GL277558  22.484  20.778   6.012
 6203POPC   C1A77559  22.150  20.427   6.348
 6203POPC   D2A77560  22.211  20.460   6.753
 6203POPC   C3A77561  22.257  20.787   6.999
 6203POPC   C4A77562  22.044  20.564   7.275
 6203POPC   C1B77563  22.642  20.398   6.259
 6203POPC   C2B77564  22.693  20.251   6.687
 6203POPC   C3B77565  22.536  20.281   7.109
 6203POPC   C4B77566  22.546  20.619   7.430
 6204POPC   NC377567   4.774  27.730   5.514
 6204POPC   PO477568   5.401  27.489   5.437
 6204POPC   GL177569   5.159  27.597   5.817
 6204POPC   GL277570   5.211  27.939   5.732
 6204POPC   C1A77571   4.847  27.646   6.155
 6204POPC   D2A77572   4.756  27.444   6.531
 6204POPC   C3A77573   4.872  27.606   6.895
 6204POPC   C4A77574   5.204  27.477   7.205
 6204POPC   C1B77575   5.155  28.074   6.150
 6204POPC   C2B77576   5.030  27.943   6.537
 6204POPC   C3B77577   5.299  27.854   6.875
 6204POPC   C4B77578   5.304  28.016   7.250
 6205POPC   NC377579  13.088  30.463   5.556
 6205POPC   PO477580  13.586  30.965   5.353
 6205POPC   GL177581  13.567  30.723   5.698
 6205POPC   GL277582  13.274  30.887   5.842
 6205POPC   C1A77583  13.883  30.631   6.024
 6205POPC   D2A77584  13.886  30.515   6.502
 6205POPC   C3A77585  13.843  30.811   6.875
 6205POPC   C4A77586  14.013  30.731   7.305
 6205POPC   C1B77587  13.415  30.606   6.168
 6205POPC   C2B77588  13.349  30.519   6.583
 6205POPC   C3B77589  13.490  30.433   6.962
 6205POPC   C4B77590  13.513  30.641   7.341
 6206POPC   NC377591  37.347  25.209   5.443
 6206POPC   PO477592  37.803  25.681   5.488
 6206POPC   GL177593  37.729  25.350   5.769
 6206POPC   GL277594  37.418  25.531   5.838
 6206POPC   C1A77595  37.936  25.151   6.151
 6206POPC   D2A77596  38.038  25.282   6.576
 6206POPC   C3A77597  37.845  25.089   6.956
 6206POPC   C4A77598  37.910  25.010   7.417
 6206POPC   C1B77599  37.571  25.499   6.248
 6206POPC   C2B77600  37.540  25.394   6.659
 6206POPC   C3B77601  37.588  25.563   7.028
 6206POPC   C4B77602  37.952  25.548   7.229
 6207POPC   NC377603   8.674  37.776   5.356
 6207POPC   PO477604   9.172  37.405   5.474
 6207POPC   GL177605   8.933  37.442   5.821
 6207POPC   GL277606   8.910  37.748   5.813
 6207POPC   C1A77607   8.899  37.490   6.265
 6207POPC   D2A77608   9.142  37.651   6.603
 6207POPC   C3A77609   8.918  37.549   6.955
 6207POPC   C4A77610   9.138  37.458   7.264
 6207POPC   C1B77611   8.813  37.988   6.186
 6207POPC   C2B77612   8.712  37.918   6.619
 6207POPC   C3B77613   8.910  38.059   6.965
 6207POPC   C4B77614   8.592  37.943   7.226
 6208POPC   NC377615  23.212  42.483   5.433
 6208POPC   PO477616  22.687  42.031   5.509
 6208POPC   GL177617  22.867  42.267   5.846
 6208POPC   GL277618  23.191  42.146   5.884
 6208POPC   C1A77619  22.887  42.406   6.297
 6208POPC   D2A77620  22.969  42.678   6.695
 6208POPC   C3A77621  23.045  42.409   7.032
 6208POPC   C4A77622  22.722  42.186   7.246
 6208POPC   C1B77623  23.158  41.923   6.284
 6208POPC   C2B77624  23.066  41.952   6.747
 6208POPC   C3B77625  23.306  41.975   7.128
 6208POPC   C4B77626  23.337  41.991   7.578
 6209POPC   NC377627  13.589  22.889   5.247
 6209POPC   PO477628  13.942  22.388   5.547
 6209POPC   GL177629  13.669  22.763   5.745
 6209POPC   GL277630  13.736  23.127   5.786
 6209POPC   C1A77631  13.425  22.882   6.131
 6209POPC   D2A77632  13.488  22.670   6.519
 6209POPC   C3A77633  13.346  22.779   6.917
 6209POPC   C4A77634  13.565  22.563   7.237
 6209POPC   C1B77635  13.676  23.333   6.181
 6209POPC   C2B77636  13.830  23.140   6.553
 6209POPC   C3B77637  13.831  22.932   6.932
 6209POPC   C4B77638  13.590  23.075   7.277
 6210POPC   NC377639  33.523   3.262   5.456
 6210POPC   PO477640  33.916   3.723   5.468
 6210POPC   GL177641  33.748   3.579   5.851
 6210POPC   GL277642  33.849   3.216   5.884
 6210POPC   C1A77643  33.869   3.639   6.277
 6210POPC   D2A77644  33.945   3.334   6.592
 6210POPC   C3A77645  33.830   3.495   6.959
 6210POPC   C4A77646  33.902   3.422   7.387
 6210POPC   C1B77647  33.585   3.207   6.245
 6210POPC   C2B77648  33.415   3.232   6.624
 6210POPC   C3B77649  33.496   3.103   7.036
 6210POPC   C4B77650  33.384   3.451   7.245
 6211POPC   NC377651  44.349   1.249   5.370
 6211POPC   PO477652  43.696   1.038   5.312
 6211POPC   GL177653  43.804   1.247   5.688
 6211POPC   GL277654  44.096   1.105   5.816
 6211POPC   C1A77655  43.748   1.324   6.143
 6211POPC   D2A77656  43.791   1.027   6.486
 6211POPC   C3A77657  43.636   1.143   6.897
 6211POPC   C4A77658  43.811   1.082   7.298
 6211POPC   C1B77659  44.245   1.234   6.238
 6211POPC   C2B77660  44.467   1.275   6.632
 6211POPC   C3B77661  44.249   1.294   7.026
 6211POPC   C4B77662  44.328   1.084   7.407
 6212POPC   NC377663  25.527  22.571   5.428
 6212POPC   PO477664  25.199  23.173   5.552
 6212POPC   GL177665  25.271  23.100   5.959
 6212POPC   GL277666  25.555  22.911   5.858
 6212POPC   C1A77667  25.366  22.969   6.399
 6212POPC   D2A77668  25.461  22.695   6.749
 6212POPC   C3A77669  25.139  22.634   6.988
 6212POPC   C4A77670  25.154  22.827   7.346
 6212POPC   C1B77671  25.829  23.057   6.211
 6212POPC   C2B77672  25.771  23.105   6.672
 6212POPC   C3B77673  25.470  23.154   7.040
 6212POPC   C4B77674  25.611  23.241   7.486
 6213POPC   NC377675  20.717  23.885   5.535
 6213POPC   PO477676  20.243  23.441   5.409
 6213POPC   GL177677  20.390  23.543   5.851
 6213POPC   GL277678  20.708  23.719   6.002
 6213POPC   C1A77679  20.264  23.759   6.245
 6213POPC   D2A77680  20.485  23.850   6.616
 6213POPC   C3A77681  20.423  23.669   6.982
 6213POPC   C4A77682  20.152  23.654   7.308
 6213POPC   C1B77683  20.904  23.633   6.374
 6213POPC   C2B77684  20.879  23.490   6.760
 6213POPC   C3B77685  20.811  23.422   7.209
 6213POPC   C4B77686  20.955  23.544   7.607
 6214POPC   NC377687  43.624  23.385   5.039
 6214POPC   PO477688  43.990  23.765   5.511
 6214POPC   GL177689  43.903  23.613   5.866
 6214POPC   GL277690  43.705  23.934   5.959
 6214POPC   C1A77691  43.773  23.540   6.248
 6214POPC   D2A77692  43.942  23.684   6.625
 6214POPC   C3A77693  43.835  23.604   7.044
 6214POPC   C4A77694  43.668  23.932   7.305
 6214POPC   C1B77695  44.067  24.050   6.254
 6214POPC   C2B77696  44.349  23.981   6.640
 6214POPC   C3B77697  44.286  23.954   7.103
 6214POPC   C4B77698  44.107  24.235   7.433
 6215POPC   NC377699  14.130   7.113   5.196
 6215POPC   PO477700  14.739   7.371   5.334
 6215POPC   GL177701  14.511   7.461   5.771
 6215POPC   GL277702  14.218   7.276   5.835
 6215POPC   C1A77703  14.446   7.643   6.205
 6215POPC   D2A77704  14.319   7.844   6.620
 6215POPC   C3A77705  14.451   7.558   6.937
 6215POPC   C4A77706  14.309   7.384   7.333
 6215POPC   C1B77707  14.448   7.124   6.199
 6215POPC   C2B77708  14.431   7.143   6.627
 6215POPC   C3B77709  14.587   7.068   7.010
 6215POPC   C4B77710  14.567   6.855   7.364
 6216POPC   NC377711  27.361  23.970   5.509
 6216POPC   PO477712  27.787  23.367   5.529
 6216POPC   GL177713  27.666  23.680   5.802
 6216POPC   GL277714  27.800  24.018   5.842
 6216POPC   C1A77715  27.657  23.699   6.234
 6216POPC   D2A77716  27.650  23.441   6.575
 6216POPC   C3A77717  27.388  23.491   6.922
 6216POPC   C4A77718  27.506  23.625   7.341
 6216POPC   C1B77719  27.497  24.183   6.159
 6216POPC   C2B77720  27.402  23.981   6.588
 6216POPC   C3B77721  27.717  23.889   6.885
 6216POPC   C4B77722  28.002  24.224   7.033
 6217POPC   NC377723  21.005  24.204   5.155
 6217POPC   PO477724  21.457  24.676   5.475
 6217POPC   GL177725  21.334  24.449   5.837
 6217POPC   GL277726  20.983  24.372   5.859
 6217POPC   C1A77727  21.489  24.403   6.249
 6217POPC   D2A77728  21.323  24.360   6.673
 6217POPC   C3A77729  21.420  24.648   7.004
 6217POPC   C4A77730  21.548  24.521   7.425
 6217POPC   C1B77731  20.974  24.567   6.306
 6217POPC   C2B77732  20.850  24.573   6.766
 6217POPC   C3B77733  21.016  24.384   7.133
 6217POPC   C4B77734  21.071  24.497   7.535
 6218POPC   NC377735  31.230   3.698   5.425
 6218POPC   PO477736  31.660   3.259   5.323
 6218POPC   GL177737  31.634   3.381   5.789
 6218POPC   GL277738  31.495   3.718   5.851
 6218POPC   C1A77739  31.588   3.414   6.268
 6218POPC   D2A77740  31.411   3.197   6.668
 6218POPC   C3A77741  31.577   3.341   7.045
 6218POPC   C4A77742  31.498   3.642   7.372
 6218POPC   C1B77743  31.257   3.807   6.239
 6218POPC   C2B77744  31.256   3.715   6.680
 6218POPC   C3B77745  31.468   3.989   6.987
 6218POPC   C4B77746  31.327   4.196   7.352
 6219POPC   NC377747  20.347   9.742   5.429
 6219POPC   PO477748  20.963   9.939   5.388
 6219POPC   GL177749  20.816   9.863   5.799
 6219POPC   GL277750  20.935   9.494   5.804
 6219POPC   C1A77751  20.514   9.976   6.161
 6219POPC   D2A77752  20.592   9.821   6.587
 6219POPC   C3A77753  20.669  10.065   6.945
 6219POPC   C4A77754  20.478   9.912   7.283
 6219POPC   C1B77755  20.678   9.489   6.197
 6219POPC   C2B77756  20.608   9.316   6.644
 6219POPC   C3B77757  20.659   9.463   7.083
 6219POPC   C4B77758  20.794   9.512   7.521
 6220POPC   NC377759   2.663  36.902   5.406
 6220POPC   PO477760   3.318  37.090   5.534
 6220POPC   GL177761   2.925  37.142   5.786
 6220POPC   GL277762   2.793  36.799   5.887
 6220POPC   C1A77763   2.712  37.198   6.200
 6220POPC   D2A77764   2.866  37.014   6.576
 6220POPC   C3A77765   2.695  37.216   6.908
 6220POPC   C4A77766   2.844  37.105   7.288
 6220POPC   C1B77767   2.748  36.566   6.263
 6220POPC   C2B77768   2.746  36.397   6.669
 6220POPC   C3B77769   2.671  36.669   6.987
 6220POPC   C4B77770   2.501  36.763   7.386
 6221POPC   NC377771  12.680   2.824   5.346
 6221POPC   PO477772  13.254   3.112   5.555
 6221POPC   GL177773  12.927   2.822   5.791
 6221POPC   GL277774  12.536   2.681   5.813
 6221POPC   C1A77775  13.071   2.715   6.180
 6221POPC   D2A77776  13.290   2.568   6.532
 6221POPC   C3A77777  13.017   2.485   6.832
 6221POPC   C4A77778  13.009   2.691   7.212
 6221POPC   C1B77779  12.591   2.883   6.201
 6221POPC   C2B77780  12.712   2.828   6.606
 6221POPC   C3B77781  12.542   2.668   6.989
 6221POPC   C4B77782  12.536   2.879   7.372
 6222POPC   NC377783  35.391  21.056   5.555
 6222POPC   PO477784  35.157  21.645   5.425
 6222POPC   GL177785  35.347  21.548   5.807
 6222POPC   GL277786  35.630  21.351   5.912
 6222POPC   C1A77787  35.399  21.718   6.207
 6222POPC   D2A77788  35.566  21.743   6.603
 6222POPC   C3A77789  35.546  21.432   6.897
 6222POPC   C4A77790  35.530  21.634   7.278
 6222POPC   C1B77791  35.348  21.121   6.194
 6222POPC   C2B77792  35.405  20.978   6.639
 6222POPC   C3B77793  35.282  20.930   7.045
 6222POPC   C4B77794  35.506  21.140   7.354
 6223POPC   NC377795  44.967  10.483   5.400
 6223POPC   PO477796   0.599  10.826   5.452
 6223POPC   GL177797   0.540  10.476   5.744
 6223POPC   GL277798   0.258  10.549   5.828
 6223POPC   C1A77799   0.488  10.191   6.146
 6223POPC   D2A77800   0.655  10.096   6.582
 6223POPC   C3A77801   0.579  10.374   6.943
 6223POPC   C4A77802   0.361  10.336   7.354
 6223POPC   C1B77803   0.388  10.764   6.205
 6223POPC   C2B77804   0.365  10.923   6.645
 6223POPC   C3B77805   0.244  10.827   7.073
 6223POPC   C4B77806   0.329  10.978   7.506
 6224POPC   NC377807  28.199  26.445   5.630
 6224POPC   PO477808  28.001  27.046   5.419
 6224POPC   GL177809  28.357  26.944   5.695
 6224POPC   GL277810  28.651  26.714   5.662
 6224POPC   C1A77811  28.367  26.869   6.130
 6224POPC   D2A77812  28.452  27.040   6.528
 6224POPC   C3A77813  28.634  27.221   6.908
 6224POPC   C4A77814  28.322  27.023   7.134
 6224POPC   C1B77815  28.694  26.468   6.083
 6224POPC   C2B77816  28.526  26.506   6.491
 6224POPC   C3B77817  28.312  26.566   6.879
 6224POPC   C4B77818  28.526  26.560   7.245
 6225POPC   NC377819  29.558  42.668   5.503
 6225POPC   PO477820  29.069  43.198   5.320
 6225POPC   GL177821  29.030  43.075   5.768
 6225POPC   GL277822  28.914  43.372   5.905
 6225POPC   C1A77823  28.962  42.982   6.235
 6225POPC   D2A77824  28.956  43.175   6.672
 6225POPC   C3A77825  28.991  42.962   7.071
 6225POPC   C4A77826  29.385  42.783   7.177
 6225POPC   C1B77827  29.166  43.447   6.248
 6225POPC   C2B77828  29.334  43.507   6.625
 6225POPC   C3B77829  29.365  43.319   7.037
 6225POPC   C4B77830  29.074  43.497   7.304
 6226POPC   NC377831  37.522  26.725   5.285
 6226POPC   PO477832  36.810  26.976   5.448
 6226POPC   GL177833  36.940  26.912   5.862
 6226POPC   GL277834  36.884  26.565   5.852
 6226POPC   C1A77835  36.941  26.801   6.305
 6226POPC   D2A77836  36.746  26.874   6.681
 6226POPC   C3A77837  37.004  26.876   7.034
 6226POPC   C4A77838  36.775  26.726   7.401
 6226POPC   C1B77839  36.958  26.305   6.211
 6226POPC   C2B77840  37.137  26.377   6.631
 6226POPC   C3B77841  36.973  26.370   7.057
 6226POPC   C4B77842  37.106  26.326   7.492
 6227POPC   NC377843  34.161  28.562   5.465
 6227POPC   PO477844  33.738  28.208   5.100
 6227POPC   GL177845  33.826  28.148   5.608
 6227POPC   GL277846  33.769  28.414   5.814
 6227POPC   C1A77847  33.928  28.072   6.130
 6227POPC   D2A77848  33.932  27.915   6.582
 6227POPC   C3A77849  33.744  28.128   6.907
 6227POPC   C4A77850  33.742  28.130   7.358
 6227POPC   C1B77851  33.631  28.565   6.214
 6227POPC   C2B77852  33.750  28.612   6.641
 6227POPC   C3B77853  33.707  28.609   7.070
 6227POPC   C4B77854  33.885  28.644   7.470
 6228POPC   NC377855  33.167  13.534   5.319
 6228POPC   PO477856  32.752  13.732   5.758
 6228POPC   GL177857  33.158  13.615   5.882
 6228POPC   GL277858  33.358  13.332   5.756
 6228POPC   C1A77859  33.158  13.591   6.331
 6228POPC   D2A77860  33.130  13.694   6.751
 6228POPC   C3A77861  32.877  13.620   7.095
 6228POPC   C4A77862  33.220  13.787   7.302
 6228POPC   C1B77863  33.435  13.194   6.186
 6228POPC   C2B77864  33.366  13.229   6.647
 6228POPC   C3B77865  33.288  13.305   7.067
 6228POPC   C4B77866  33.389  13.320   7.467
 6229POPC   NC377867  31.000   7.418   5.391
 6229POPC   PO477868  31.320   6.875   5.491
 6229POPC   GL177869  31.467   7.130   5.831
 6229POPC   GL277870  31.337   7.468   5.803
 6229POPC   C1A77871  31.674   7.188   6.229
 6229POPC   D2A77872  31.471   7.078   6.599
 6229POPC   C3A77873  31.533   7.173   7.014
 6229POPC   C4A77874  31.496   7.099   7.444
 6229POPC   C1B77875  31.302   7.558   6.267
 6229POPC   C2B77876  31.556   7.596   6.647
 6229POPC   C3B77877  31.412   7.671   7.059
 6229POPC   C4B77878  31.142   7.561   7.363
 6230POPC   NC377879   2.442   2.200   5.412
 6230POPC   PO477880   2.829   1.666   5.528
 6230POPC   GL177881   2.702   1.761   5.920
 6230POPC   GL277882   2.400   1.805   5.759
 6230POPC   C1A77883   2.622   1.599   6.348
 6230POPC   D2A77884   2.532   1.584   6.799
 6230POPC   C3A77885   2.804   1.817   7.027
 6230POPC   C4A77886   2.902   2.199   7.161
 6230POPC   C1B77887   2.343   2.066   6.118
 6230POPC   C2B77888   2.277   2.002   6.543
 6230POPC   C3B77889   2.377   2.136   6.936
 6230POPC   C4B77890   2.436   2.255   7.339
 6231POPC   NC377891  26.404   9.994   5.518
 6231POPC   PO477892  25.776  10.239   5.252
 6231POPC   GL177893  25.963  10.296   5.737
 6231POPC   GL277894  26.298  10.265   5.940
 6231POPC   C1A77895  25.914  10.460   6.197
 6231POPC   D2A77896  26.117  10.563   6.618
 6231POPC   C3A77897  25.928  10.524   7.038
 6231POPC   C4A77898  25.833  10.625   7.477
 6231POPC   C1B77899  26.409  10.653   6.190
 6231POPC   C2B77900  26.544  10.884   6.550
 6231POPC   C3B77901  26.427  10.819   6.967
 6231POPC   C4B77902  26.330  10.628   7.342
 6232POPC   NC377903  23.610   8.546   5.515
 6232POPC   PO477904  24.000   7.972   5.450
 6232POPC   GL177905  23.590   7.919   5.691
 6232POPC   GL277906  23.741   8.168   5.864
 6232POPC   C1A77907  23.426   7.909   6.145
 6232POPC   D2A77908  23.407   8.191   6.512
 6232POPC   C3A77909  23.373   7.988   6.911
 6232POPC   C4A77910  23.459   7.974   7.343
 6232POPC   C1B77911  23.860   8.264   6.274
 6232POPC   C2B77912  23.831   8.494   6.609
 6232POPC   C3B77913  23.630   8.446   6.955
 6232POPC   C4B77914  23.832   8.395   7.304
 6233POPC   NC377915  40.973  34.016   5.105
 6233POPC   PO477916  40.552  33.483   5.333
 6233POPC   GL177917  40.805  33.638   5.691
 6233POPC   GL277918  40.515  33.661   5.854
 6233POPC   C1A77919  40.874  33.922   6.099
 6233POPC   D2A77920  40.642  34.023   6.514
 6233POPC   C3A77921  40.816  33.898   6.919
 6233POPC   C4A77922  41.020  33.970   7.315
 6233POPC   C1B77923  40.692  33.452   6.198
 6233POPC   C2B77924  40.847  33.474   6.594
 6233POPC   C3B77925  40.673  33.405   6.982
 6233POPC   C4B77926  40.785  33.521   7.362
 6234POPC   NC377927  35.547  39.410   5.479
 6234POPC   PO477928  35.709  38.756   5.719
 6234POPC   GL177929  35.462  39.088   5.883
 6234POPC   GL277930  35.189  39.336   5.885
 6234POPC   C1A77931  35.366  39.082   6.316
 6234POPC   D2A77932  35.402  39.311   6.673
 6234POPC   C3A77933  35.354  39.219   7.084
 6234POPC   C4A77934  34.974  39.104   7.197
 6234POPC   C1B77935  35.426  39.582   6.175
 6234POPC   C2B77936  35.403  39.798   6.555
 6234POPC   C3B77937  35.591  39.704   6.940
 6234POPC   C4B77938  35.683  39.910   7.283
 6235POPC   NC377939   2.146  25.080   5.318
 6235POPC   PO477940   2.295  25.696   5.436
 6235POPC   GL177941   2.069  25.451   5.760
 6235POPC   GL277942   1.929  25.103   5.823
 6235POPC   C1A77943   2.015  25.454   6.210
 6235POPC   D2A77944   2.248  25.343   6.571
 6235POPC   C3A77945   2.084  25.371   6.971
 6235POPC   C4A77946   1.712  25.515   7.189
 6235POPC   C1B77947   1.795  24.978   6.262
 6235POPC   C2B77948   1.710  25.142   6.703
 6235POPC   C3B77949   1.737  24.966   7.166
 6235POPC   C4B77950   1.782  24.885   7.629
 6236POPC   NC377951  37.551  22.147   5.302
 6236POPC   PO477952  38.046  22.260   5.729
 6236POPC   GL177953  37.604  22.278   5.790
 6236POPC   GL277954  37.634  21.921   5.814
 6236POPC   C1A77955  37.371  22.276   6.160
 6236POPC   D2A77956  37.611  22.321   6.538
 6236POPC   C3A77957  37.452  22.457   6.911
 6236POPC   C4A77958  37.732  22.455   7.261
 6236POPC   C1B77959  37.768  21.882   6.277
 6236POPC   C2B77960  37.772  21.876   6.758
 6236POPC   C3B77961  37.669  21.923   7.223
 6236POPC   C4B77962  37.452  21.794   7.633
 6237W        W77963  27.170  10.767  14.583
 6238W        W77964  21.172  22.531   3.782
 6239W        W77965  23.356  28.839   4.902
 6240W        W77966   9.840  16.002  12.181
 6241W        W77967  26.671  13.724   3.783
 6242W        W77968  37.334  16.561  10.757
 6243W        W77969  34.876   2.400  12.935
 6244W        W77970  28.887  26.591   2.274
 6245W        W77971   5.379  21.706  10.612
 6246W        W77972   3.756  40.434   1.228
 6247W        W77973  14.382   7.362   1.887
 6248W        W77974  38.069  28.659  10.609
 6249W        W77975  32.966  25.475   4.522
 6250W        W77976   6.413   7.456   2.799
 6251W        W77977  18.738   8.344  10.655
 6252W        W77978  20.156  37.727   0.547
 6253W        W77979   5.311  15.188  13.829
 6254W        W77980  22.202   4.233   0.293
 6255W        W77981  11.131  30.939   1.736
 6256W        W77982  19.203  36.813  12.314
 6257W        W77983  11.724  40.269   2.720
 6258W        W77984  13.604  36.647  12.561
 6259W        W77985  18.617   4.919   0.082
 6260W        W77986  31.645   8.766  11.231
 6261W        W77987  19.575  44.429  12.006
 6262W        W77988  18.350  38.037  13.761
 6263W        W77989  11.103  34.673  13.352
 6264W        W77990  16.335  10.332   0.571
 6265W        W77991  12.054   3.577  12.472
 6266W        W77992  23.379   3.474  13.866
 6267W        W77993   4.769  42.432  11.135
 6268W        W77994   5.164   5.145  14.292
 6269W        W77995  29.467  27.890   1.892
 6270W        W77996   9.665  36.915   1.840
 6271W        W77997  42.826  26.988  14.321
 6272W        W77998  10.835  41.782   3.290
 6273W        W77999   0.259  31.063  10.597
 6274W        W78000  22.843  14.235  12.438
 6275W        W78001  19.433  26.908   3.776
 6276W        W78002   0.825  27.095  10.815
 6277W        W78003   5.436  37.466   3.848
 6278W        W78004   7.243  15.645  14.902
 6279W        W78005   4.209   4.786   1.948
 6280W        W78006  19.589  14.318  11.619
 6281W        W78007  14.411  37.288  14.025
 6282W        W78008  42.888  40.652  14.391
 6283W        W78009  39.853  15.790  11.853
 6284W        W78010  36.923  40.014   2.336
 6285W        W78011   3.850  29.278  14.348
 6286W        W78012  41.165  36.799  11.589
 6287W        W78013  12.142  29.497  14.769
 6288W        W78014  36.383  33.985   2.224
 6289W        W78015   2.665  20.216  14.914
 6290W        W78016  38.004  33.041   1.828
 6291W        W78017  22.986  13.347  14.484
 6292W        W78018  42.043  23.690  11.068
 6293W        W78019   2.723   8.480  13.348
 6294W        W78020   5.229  24.467  14.104
 6295W        W78021  21.596  11.166  13.886
 6296W        W78022   5.194  16.669   1.374
 6297W        W78023  35.629   9.163  11.743
 6298W        W78024   4.422  42.618  13.888
 6299W        W78025  15.346  40.418  12.389
 6300W        W78026  21.766   7.713  12.196
 6301W        W78027  14.703  26.423  14.911
 6302W        W78028   7.500  10.887  13.835
 6303W        W78029   8.663  26.592   4.984
 6304W        W78030  41.843  41.796   2.130
 6305W        W78031  14.603  31.574   4.773
 6306W        W78032  38.930  21.310  13.816
 6307W        W78033  37.017  38.707  12.010
 6308W        W78034  33.381   3.244  11.576
 6309W        W78035   0.689  34.101   1.259
 6310W        W78036  15.756   1.430  11.724
 6311W        W78037  40.074  32.114   4.607
 6312W        W78038   1.564  28.336  14.507
 6313W        W78039  37.470  44.347   1.836
 6314W        W78040  15.716  18.454  11.937
 6315W        W78041  44.771   8.649  13.461
 6316W        W78042  42.173  44.219  14.494
 6317W        W78043  37.505  10.613   1.119
 6318W        W78044  12.230  22.326  12.478
 6319W        W78045   6.532  32.643   1.932
 6320W        W78046  32.961  35.588  10.670
 6321W        W78047  38.894  32.376   2.605
 6322W        W78048  21.253  15.143   0.427
 6323W        W78049  21.681  30.851   2.411
 6324W        W78050  26.898  35.572  14.951
 6325W        W78051  13.182   3.897  11.160
 6326W        W78052  31.146  26.437   4.640
 6327W        W78053  11.265  29.861   4.931
 6328W        W78054   4.562   5.950   1.305
 6329W        W78055   6.979  11.618  13.899
 6330W        W78056  10.949  15.807   2.698
 6331W        W78057   0.375  16.423  13.057
 6332W        W78058  36.560  24.034   1.395
 6333W        W78059  19.850  11.353  11.592
 6334W        W78060   1.604  24.684   0.776
 6335W        W78061  29.990  24.257  12.460
 6336W        W78062  18.236  27.944  13.946
 6337W        W78063   8.284  35.567  13.542
 6338W        W78064  44.529  25.548   0.040
 6339W        W78065   5.238  29.529   4.843
 6340W        W78066  21.211  28.885  10.663
 6341W        W78067  10.135  40.964  11.238
 6342W        W78068  43.741  40.345   1.296
 6343W        W78069  26.260  38.936  11.231
 6344W        W78070  35.420  10.162  13.168
 6345W        W78071  34.082  43.333  14.969
 6346W        W78072  28.526  40.495   2.438
 6347W        W78073   2.910  24.681   0.706
 6348W        W78074   9.755  37.626  12.929
 6349W        W78075  42.513  24.956  10.681
 6350W        W78076   7.697  10.092  11.985
 6351W        W78077  35.088  23.193  11.528
 6352W        W78078  16.578  24.710   0.955
 6353W        W78079   0.071  25.745  12.405
 6354W        W78080   6.702  23.792  12.096
 6355W        W78081  21.710  41.337  13.980
 6356W        W78082  42.407   0.435  12.156
 6357W        W78083  15.178   5.329  14.503
 6358W        W78084  34.482  27.068  11.885
 6359W        W78085  24.536   4.458   4.456
 6360W        W78086  36.824  19.061   4.904
 6361W        W78087  23.658  28.491  13.895
 6362W        W78088  24.918   9.528  10.904
 6363W        W78089   4.284  13.600  13.998
 6364W        W78090  40.018  39.105  12.562
 6365W        W78091  42.023   6.729   2.392
 6366W        W78092   0.870   5.936   0.652
 6367W        W78093   4.191   8.840   2.223
 6368W        W78094  44.852   2.002  13.372
 6369W        W78095  39.445   4.190   3.874
 6370W        W78096  40.895  42.679  13.844
 6371W        W78097   9.591  44.130  14.489
 6372W        W78098  15.888  39.008   4.615
 6373W        W78099  15.895  30.539   2.378
 6374W        W78100  19.622  17.864  12.968
 6375W        W78101  34.979  21.411   0.043
 6376W        W78102  19.674  20.425  14.626
 6377W        W78103   7.254   5.450   4.124
 6378W        W78104   2.964   5.022  10.776
 6379W        W78105  35.597   3.329  12.418
 6380W        W78106  37.538  37.636  10.578
 6381W        W78107   9.696  20.050   3.235
 6382W        W78108  28.729   4.912  10.913
 6383W        W78109  15.646   1.466  11.240
 6384W        W78110   1.782  40.353  10.616
 6385W        W78111  29.573  34.123   2.757
 6386W        W78112  10.644  11.173   0.367
 6387W        W78113   0.058   8.944   0.802
 6388W        W78114  13.536  20.017  11.920
 6389W        W78115  22.962   9.235   1.884
 6390W        W78116  37.336  43.759  12.465
 6391W        W78117  39.419  20.637   4.124
 6392W        W78118  14.639  19.641  12.783
 6393W        W78119  13.410  30.977  13.762
 6394W        W78120  19.356  37.693   5.133
 6395W        W78121   1.768  31.062  14.350
 6396W        W78122   6.844  12.477  10.666
 6397W        W78123   1.390  25.065   1.666
 6398W        W78124  15.531  41.390   0.787
 6399W        W78125  19.071  30.162  11.145
 6400W        W78126  11.166  40.329  12.299
 6401W        W78127  33.646  32.515  12.495
 6402W        W78128   0.432  44.364  12.853
 6403W        W78129   0.836  11.652   9.881
 6404W        W78130  13.176  17.375   2.354
 6405W        W78131  25.582  35.750   2.732
 6406W        W78132  16.018  14.498   2.178
 6407W        W78133  27.500  44.702  13.334
 6408W        W78134   6.358  29.394  13.382
 6409W        W78135  29.191  19.740   1.432
 6410W        W78136  17.206  44.026   0.328
 6411W        W78137  13.510  39.383  14.758
 6412W        W78138  18.130  15.067  11.136
 6413W        W78139  42.864  29.577  12.151
 6414W        W78140  22.099   6.812   5.047
 6415W        W78141   3.205   3.826   2.609
 6416W        W78142   9.705   7.728  12.948
 6417W        W78143   5.240   1.745   2.693
 6418W        W78144  40.370  26.532  12.039
 6419W        W78145  15.655   2.340  11.152
 6420W        W78146  33.600   3.969  13.973
 6421W        W78147  17.261  16.206  14.019
 6422W        W78148  28.632  22.691   1.896
 6423W        W78149  41.512   2.489  14.338
 6424W        W78150  22.678   3.416   4.008
 6425W        W78151  18.388  15.168   2.340
 6426W        W78152  32.382  44.706  11.871
 6427W        W78153  15.614  31.862   2.629
 6428W        W78154   5.986   5.878   2.182
 6429W        W78155  10.167  29.311   3.747
 6430W        W78156   3.890  23.465  10.800
 6431W        W78157   2.971  43.035  14.991
 6432W        W78158  35.584   4.242  10.736
 6433W        W78159  44.031  21.835   3.808
 6434W        W78160  22.996  22.754   4.092
 6435W        W78161  27.490  17.681  12.564
 6436W        W78162  27.192  35.333  10.871
 6437W        W78163  43.888  31.778   1.842
 6438W        W78164  12.825  41.706  12.503
 6439W        W78165   1.640  36.165   2.811
 6440W        W78166   8.414  12.544   2.668
 6441W        W78167  38.109  40.921   0.350
 6442W        W78168   5.880  31.374  12.379
 6443W        W78169  33.910  15.668   2.314
 6444W        W78170  13.294  38.385  12.017
 6445W        W78171  22.766  15.320  10.210
 6446W        W78172  34.135  16.496   1.130
 6447W        W78173  17.764   0.859   4.112
 6448W        W78174   6.431  32.103  11.159
 6449W        W78175   2.397  38.877  12.365
 6450W        W78176   0.797   9.388  14.909
 6451W        W78177   9.832  44.927  11.607
 6452W        W78178  22.359  42.824   0.893
 6453W        W78179  33.563  38.736   1.133
 6454W        W78180   6.097  29.419  14.302
 6455W        W78181  40.947  22.786  11.557
 6456W        W78182   3.655  38.129   0.856
 6457W        W78183  30.257   5.298   1.157
 6458W        W78184   7.743  44.249   1.239
 6459W        W78185  13.824  18.250  12.935
 6460W        W78186   6.785  25.008   0.558
 6461W        W78187  27.209  23.269   2.578
 6462W        W78188  12.399  18.056   2.798
 6463W        W78189  26.758   7.617  14.238
 6464W        W78190  44.935  36.857   4.600
 6465W        W78191  15.078  11.281   0.417
 6466W        W78192  34.358   7.856  11.671
 6467W        W78193  21.471  13.261  13.427
 6468W        W78194  39.290  31.432  14.357
 6469W        W78195   6.128   4.977  12.526
 6470W        W78196  10.624  19.683  12.914
 6471W        W78197  32.120  34.583   0.339
 6472W        W78198  25.944  41.073   0.292
 6473W        W78199  40.389  30.475   4.588
 6474W        W78200  30.543  43.839   5.072
 6475W        W78201  34.501  11.982   0.290
 6476W        W78202  40.987  40.121  10.750
 6477W        W78203  19.044  43.776  13.776
 6478W        W78204  30.936  18.681   0.736
 6479W        W78205   3.085  39.115   5.050
 6480W        W78206  33.950  26.432   0.581
 6481W        W78207  12.076  12.179   3.623
 6482W        W78208  13.091  13.261  10.771
 6483W        W78209  31.565  10.657  11.706
 6484W        W78210  15.197  12.371  11.248
 6485W        W78211  23.139  10.963   4.759
 6486W        W78212  44.440  19.816  13.540
 6487W        W78213  29.867  16.594  10.765
 6488W        W78214  20.770  23.896  12.837
 6489W        W78215  20.759  14.892  12.302
 6490W        W78216   0.967  18.448   4.676
 6491W        W78217  13.314   3.639   1.830
 6492W        W78218  22.024  28.305   5.460
 6493W        W78219  13.604  35.442  13.808
 6494W        W78220  18.292  15.886   1.098
 6495W        W78221  44.880   7.163  14.252
 6496W        W78222  41.874  24.033   3.826
 6497W        W78223  33.417  13.887   4.513
 6498W        W78224  29.157  27.555   1.644
 6499W        W78225  31.465   3.840  12.952
 6500W        W78226  19.831  21.001  14.353
 6501W        W78227  42.950   2.748   4.125
 6502W        W78228  22.582  18.244   0.989
 6503W        W78229  11.101  38.247  11.563
 6504W        W78230  21.541   9.126  12.637
 6505W        W78231   0.910  14.623   0.917
 6506W        W78232   9.344  38.428   4.979
 6507W        W78233  29.985  24.575   2.108
 6508W        W78234   6.835  16.060   4.112
 6509W        W78235   1.527  44.703   4.395
 6510W        W78236  31.148  21.637   2.189
 6511W        W78237   3.886  32.646  10.343
 6512W        W78238  27.957  26.720   0.899
 6513W        W78239   6.504  33.503   0.405
 6514W        W78240  44.378   7.974  11.544
 6515W        W78241  41.741  31.006  12.427
 6516W        W78242   5.856  30.649  13.830
 6517W        W78243  12.685  19.454  14.355
 6518W        W78244  16.347   4.605  10.688
 6519W        W78245  27.706  42.442   2.138
 6520W        W78246  28.262  25.575   0.465
 6521W        W78247  30.523  11.740   3.726
 6522W        W78248  36.306  26.259   1.181
 6523W        W78249  24.933  34.982   1.735
 6524W        W78250  16.984  32.957   2.848
 6525W        W78251  43.246   7.257  13.959
 6526W        W78252  24.584  40.703   1.868
 6527W        W78253  27.494   8.810  13.712
 6528W        W78254  42.347  14.149   3.848
 6529W        W78255   4.931  40.103  14.423
 6530W        W78256  30.686   9.779  12.371
 6531W        W78257  18.654  24.754  13.837
 6532W        W78258  15.724  12.252   2.757
 6533W        W78259  17.127  37.903  12.406
 6534W        W78260  10.103   6.676   1.775
 6535W        W78261  33.139  21.025   3.888
 6536W        W78262  17.607  30.422  12.839
 6537W        W78263  23.010  28.610   2.266
 6538W        W78264  12.967  12.442  11.693
 6539W        W78265   5.316  17.732  10.492
 6540W        W78266  15.757  34.914   3.240
 6541W        W78267   6.331   2.820   4.209
 6542W        W78268  31.941  10.768  11.385
 6543W        W78269  20.642  26.122   3.691
 6544W        W78270  28.097  10.895   2.346
 6545W        W78271  41.856   5.229  12.197
 6546W        W78272  11.350  23.072   1.365
 6547W        W78273  18.498  30.209   0.206
 6548W        W78274   9.729  18.403  12.417
 6549W        W78275   3.908  15.710  12.469
 6550W        W78276  32.225  19.988  11.594
 6551W        W78277  15.673  20.044   3.592
 6552W        W78278  43.732  21.269   4.613
 6553W        W78279  11.638  18.556   4.643
 6554W        W78280  29.930  22.479  11.907
 6555W        W78281  10.129  41.025  13.380
 6556W        W78282  11.771  39.367  11.607
 6557W        W78283  29.694   3.499  11.550
 6558W        W78284  15.369  30.781  11.239
 6559W        W78285  21.905   9.217  14.923
 6560W        W78286   9.781  19.862   3.699
 6561W        W78287  21.185   2.616   3.027
 6562W        W78288  40.250  32.411   4.092
 6563W        W78289  16.259  28.523  10.402
 6564W        W78290  19.691   9.918   2.574
 6565W        W78291  17.735  42.751   3.145
 6566W        W78292   6.915   9.685   3.865
 6567W        W78293  36.451   9.191  10.707
 6568W        W78294  28.591  11.453  12.443
 6569W        W78295  16.855   6.930  14.359
 6570W        W78296  40.553  28.381   4.550
 6571W        W78297  19.319   8.611  14.519
 6572W        W78298  32.896  24.171   5.068
 6573W        W78299  32.078  28.398  13.329
 6574W        W78300   9.236   5.020   1.491
 6575W        W78301   3.400  33.881   3.761
 6576W        W78302  37.287  10.627   4.876
 6577W        W78303   9.123   3.141   2.244
 6578W        W78304  17.091  17.036   1.800
 6579W        W78305  20.953  25.849  11.110
 6580W        W78306   7.147  15.310  14.412
 6581W        W78307  24.234   8.110   4.524
 6582W        W78308  21.341  33.003   4.857
 6583W        W78309  26.951  38.998   0.936
 6584W        W78310  24.992  17.182   1.880
 6585W        W78311  20.067   6.797  12.930
 6586W        W78312  11.942  44.359  13.090
 6587W        W78313   7.855  28.218   3.601
 6588W        W78314  21.098  13.634   0.291
 6589W        W78315  43.767  39.431  13.354
 6590W        W78316  21.053  11.487   0.504
 6591W        W78317  34.178  40.300   4.295
 6592W        W78318  21.686  35.848  13.393
 6593W        W78319   2.431  44.295  10.639
 6594W        W78320  24.218  16.666  14.863
 6595W        W78321  16.742  17.541  13.983
 6596W        W78322  17.652  30.163   4.332
 6597W        W78323  42.744  38.426  13.839
 6598W        W78324  41.708  14.573   4.218
 6599W        W78325  13.672  31.613  10.767
 6600W        W78326  36.107  16.846  11.399
 6601W        W78327  25.178  32.383  10.997
 6602W        W78328  35.174  22.643  12.683
 6603W        W78329   5.864   7.935   1.445
 6604W        W78330  41.173  30.475  11.034
 6605W        W78331  18.433  12.854  13.450
 6606W        W78332  38.831   7.187  13.964
 6607W        W78333   2.240  27.076   3.613
 6608W        W78334  15.148   4.478  10.985
 6609W        W78335  17.489  14.813   4.059
 6610W        W78336  31.040  43.366   1.532
 6611W        W78337  10.833  23.237   2.289
 6612W        W78338  10.013  12.604   1.273
 6613W        W78339  24.038  38.775   0.436
 6614W        W78340   4.855  39.270  10.574
 6615W        W78341  28.273  36.366  14.471
 6616W        W78342  35.101   7.203  11.592
 6617W        W78343  27.135  31.017   2.138
 6618W        W78344  23.330  38.769   0.884
 6619W        W78345  25.150  40.486   3.147
 6620W        W78346  37.575  17.067  10.744
 6621W        W78347   4.416  35.157  13.048
 6622W        W78348  36.402  41.173   1.926
 6623W        W78349  24.517  44.784   9.917
 6624W        W78350   4.315  11.881  14.916
 6625W        W78351   0.508  17.277   3.217
 6626W        W78352  24.165  16.574   4.569
 6627W        W78353  17.234   3.467   0.693
 6628W        W78354  22.002  29.392  14.179
 6629W        W78355   8.789  42.354   2.619
 6630W        W78356   6.172  25.540  12.053
 6631W        W78357  21.754   1.999  14.297
 6632W        W78358   0.375  21.760   0.964
 6633W        W78359  10.828  39.882   3.671
 6634W        W78360   2.944  39.987   1.291
 6635W        W78361  43.274  41.893   0.055
 6636W        W78362  22.120  23.093  10.526
 6637W        W78363   6.899  13.840  13.805
 6638W        W78364  28.426  10.715   0.319
 6639W        W78365  25.717  11.598  12.354
 6640W        W78366  33.540  24.545  12.971
 6641W        W78367  36.157  26.014   3.724
 6642W        W78368  19.462  13.876  14.917
 6643W        W78369  22.253  20.314  13.845
 6644W        W78370  41.514  18.032  11.966
 6645W        W78371  11.572   0.341   3.050
 6646W        W78372  32.080  12.791  14.711
 6647W        W78373  39.347   6.721   1.404
 6648W        W78374  24.883  37.192  13.459
 6649W        W78375  21.489  15.530  12.661
 6650W        W78376  16.592  24.949   2.811
 6651W        W78377   6.682  22.647  14.964
 6652W        W78378   0.398  11.904  11.251
 6653W        W78379  31.424  25.932   1.732
 6654W        W78380  14.172  18.231   4.017
 6655W        W78381  42.527  36.101  13.014
 6656W        W78382  38.936  30.116  13.373
 6657W        W78383  22.593  22.697   3.308
 6658W        W78384  35.044  19.566  14.534
 6659W        W78385  15.268  16.852   0.369
 6660W        W78386  28.446  42.041   0.145
 6661W        W78387  28.485   5.717   3.967
 6662W        W78388  39.334  30.590  10.615
 6663W        W78389  22.528  43.989  12.037
 6664W        W78390  26.619  11.760   2.567
 6665W        W78391   8.923   3.739  14.311
 6666W        W78392   3.157  24.099  11.607
 6667W        W78393  16.365  40.993  14.539
 6668W        W78394  15.234  44.710  11.075
 6669W        W78395  36.860  21.720   1.254
 6670W        W78396  30.495  22.997  14.446
 6671W        W78397  29.034  23.189   0.346
 6672W        W78398  26.715  39.390  11.773
 6673W        W78399   3.882  38.241  11.133
 6674W        W78400   0.392   0.229  11.969
 6675W        W78401  28.452   3.240  14.474
 6676W        W78402  34.424  32.098   4.151
 6677W        W78403  23.209  30.415  11.112
 6678W        W78404  35.829  19.215  14.436
 6679W        W78405  17.791   3.003  11.926
 6680W        W78406  42.261  18.251   1.450
 6681W        W78407  23.092   5.010   1.487
 6682W        W78408  12.270  43.807  14.801
 6683W        W78409  19.192   3.269  13.314
 6684W        W78410   5.805  41.723   0.399
 6685W        W78411  42.797  16.548  14.053
 6686W        W78412  20.230  36.823  14.316
 6687W        W78413  30.656  43.824  13.425
 6688W        W78414  26.536  29.686   2.360
 6689W        W78415  25.048  27.065   0.131
 6690W        W78416   8.446  34.971  12.841
 6691W        W78417   8.214  22.089  12.418
 6692W        W78418  44.739   3.250   1.679
 6693W        W78419   7.900  19.419  14.376
 6694W        W78420  26.393   9.333   0.999
 6695W        W78421  41.966  18.813   5.064
 6696W        W78422  24.187  18.113  11.465
 6697W        W78423  40.856  36.882   0.754
 6698W        W78424   1.719  29.160   4.106
 6699W        W78425  27.071  14.920  11.230
 6700W        W78426   6.775  12.307   4.613
 6701W        W78427  24.230  28.915   1.837
 6702W        W78428  19.082  14.849  13.489
 6703W        W78429   9.215  36.032   1.541
 6704W        W78430  42.292   4.828   0.980
 6705W        W78431  21.763  16.578  11.235
 6706W        W78432  35.350  35.997  11.591
 6707W        W78433  11.858  37.608  11.972
 6708W        W78434  31.191  11.478  10.685
 6709W        W78435  40.706   3.792  14.356
 6710W        W78436  20.093   7.919  11.197
 6711W        W78437  13.334  10.292  13.861
 6712W        W78438  11.483  16.136  14.009
 6713W        W78439  17.821  44.488  12.869
 6714W        W78440  19.782  43.988   1.193
 6715W        W78441  25.546  24.915   2.805
 6716W        W78442  29.133  12.124   4.231
 6717W        W78443  33.002  27.459  11.050
 6718W        W78444  27.487  39.139  13.898
 6719W        W78445  41.926  36.775   2.217
 6720W        W78446  31.379   7.274  13.390
 6721W        W78447  32.884  34.600   4.625
 6722W        W78448  42.248   6.438   3.887
 6723W        W78449  24.621  20.965   4.243
 6724W        W78450   7.751  11.632  11.890
 6725W        W78451  22.468   6.478   1.010
 6726W        W78452  36.145  25.015   0.988
 6727W        W78453  26.139  41.861  12.547
 6728W        W78454   9.137   8.802  10.480
 6729W        W78455  33.148  14.850   1.834
 6730W        W78456   8.173  35.494   2.741
 6731W        W78457  11.251  37.969  13.422
 6732W        W78458  20.169  39.579  12.053
 6733W        W78459  43.715  10.728  13.249
 6734W        W78460  43.932  37.417  14.524
 6735W        W78461  35.562  10.662  13.000
 6736W        W78462  36.736  24.528   1.720
 6737W        W78463  25.486  15.368  11.685
 6738W        W78464   9.378  10.839   1.705
 6739W        W78465  26.133  27.661  11.899
 6740W        W78466  32.069   7.803  13.848
 6741W        W78467   1.943   5.614  12.158
 6742W        W78468   1.010   2.524  12.861
 6743W        W78469  33.273  38.937   9.878
 6744W        W78470   4.956  39.401  13.902
 6745W        W78471  20.548  25.537   9.835
 6746W        W78472  27.213  21.911  14.355
 6747W        W78473  27.272  10.892   2.042
 6748W        W78474  33.595   7.327  12.743
 6749W        W78475  38.754  22.623  10.026
 6750W        W78476   5.892  24.806  11.572
 6751W        W78477  17.046  38.419   5.460
 6752W        W78478  22.686   1.261   1.683
 6753W        W78479  37.548  20.120   0.028
 6754W        W78480  16.971   3.973   2.197
 6755W        W78481   6.119  30.008   1.755
 6756W        W78482   7.757  23.316   0.262
 6757W        W78483  28.524  21.524   4.637
 6758W        W78484  14.670  34.669   2.864
 6759W        W78485  14.412  36.692   2.043
 6760W        W78486  34.563  36.618  12.890
 6761W        W78487   3.728  23.055   1.335
 6762W        W78488   2.150  22.482  13.702
 6763W        W78489   3.744  36.576   1.517
 6764W        W78490  18.250  10.730  13.271
 6765W        W78491   4.780  32.791   0.419
 6766W        W78492  27.994  22.225  14.803
 6767W        W78493  35.938  21.192  14.880
 6768W        W78494  41.243  40.019  13.488
 6769W        W78495  32.666   5.440   2.110
 6770W        W78496  29.654   7.738   0.517
 6771W        W78497  32.593  37.385  11.025
 6772W        W78498   0.707  25.014   0.423
 6773W        W78499  18.235   2.357   4.185
 6774W        W78500   9.275   1.874  12.515
 6775W        W78501  35.055  44.512   4.650
 6776W        W78502   5.659  32.696   3.659
 6777W        W78503  20.466  40.870  11.911
 6778W        W78504  39.037  16.663  13.421
 6779W        W78505  20.177  18.629  10.489
 6780W        W78506  21.666  14.849   3.815
 6781W        W78507   9.793  32.584   3.915
 6782W        W78508   8.290  28.569   1.413
 6783W        W78509  27.944  28.268   3.524
 6784W        W78510  10.154  39.932  10.897
 6785W        W78511   4.672  21.921  13.204
 6786W        W78512  25.588   9.698   2.585
 6787W        W78513  11.261  20.783   4.663
 6788W        W78514  33.306   6.833  14.946
 6789W        W78515   2.448  42.515   1.502
 6790W        W78516  22.736  16.748  12.342
 6791W        W78517  24.994  14.406  12.703
 6792W        W78518  41.394  41.973   3.428
 6793W        W78519  19.797  27.458   0.732
 6794W        W78520  36.894  15.400   2.364
 6795W        W78521  19.189  27.849   0.381
 6796W        W78522   7.722  28.019   3.148
 6797W        W78523  26.961  18.594  13.985
 6798W        W78524  27.894   9.900  13.819
 6799W        W78525   9.755  33.772  10.618
 6800W        W78526  18.226  34.394   1.418
 6801W        W78527   3.696   7.261  10.737
 6802W        W78528  12.716  20.298  11.603
 6803W        W78529  11.075   2.934  11.041
 6804W        W78530  39.124  31.124   1.343
 6805W        W78531   8.516  44.546   3.894
 6806W        W78532  26.869  12.028  14.955
 6807W        W78533  39.020  26.172  11.335
 6808W        W78534  14.714  13.334   2.715
 6809W        W78535  20.321   7.253  12.976
 6810W        W78536  36.941  15.154   4.657
 6811W        W78537  23.065  36.994  10.734
 6812W        W78538  43.517  23.036  10.396
 6813W        W78539  20.243  27.242  11.652
 6814W        W78540  10.582  16.219   0.827
 6815W        W78541  27.473  36.435   0.175
 6816W        W78542  10.656  43.502   2.788
 6817W        W78543   2.013  20.416   0.795
 6818W        W78544  13.124  29.026  10.456
 6819W        W78545  22.428  40.987  11.961
 6820W        W78546  30.631   0.506   1.385
 6821W        W78547  19.636  23.169   0.005
 6822W        W78548   2.905  41.463  14.960
 6823W        W78549  19.864  32.163  11.804
 6824W        W78550  42.366  16.992   4.773
 6825W        W78551  22.157  28.697  11.464
 6826W        W78552  30.364  11.773   2.666
 6827W        W78553  11.357  43.934   0.227
 6828W        W78554  14.209  39.222   1.984
 6829W        W78555  43.771  19.277   2.907
 6830W        W78556  41.929   3.472  12.348
 6831W        W78557   8.669  26.512  14.213
 6832W        W78558  14.091  20.199   1.182
 6833W        W78559   6.147   8.056  14.765
 6834W        W78560  39.087  24.913   1.295
 6835W        W78561  35.069  39.458  10.719
 6836W        W78562  13.777   5.764  14.476
 6837W        W78563  33.438  33.726   4.444
 6838W        W78564  15.738  41.576  10.431
 6839W        W78565  21.533  37.303  10.536
 6840W        W78566  21.497  18.157   4.992
 6841W        W78567   0.993  31.501   1.282
 6842W        W78568   6.371   7.850   3.180
 6843W        W78569  24.257  40.408   0.128
 6844W        W78570  32.945  14.490  14.981
 6845W        W78571  25.596  19.247   2.107
 6846W        W78572  42.899  38.138   1.441
 6847W        W78573   6.196  19.354  13.429
 6848W        W78574  10.042   9.055   4.707
 6849W        W78575  42.842  39.980  14.451
 6850W        W78576   2.974   5.392   4.101
 6851W        W78577   4.348  38.444   3.322
 6852W        W78578   3.803  24.481   2.822
 6853W        W78579  41.495   2.389   4.717
 6854W        W78580   2.453  40.006  13.368
 6855W        W78581   8.146  15.701   0.793
 6856W        W78582  32.456  42.537  14.221
 6857W        W78583   9.048  39.478   0.362
 6858W        W78584  17.263  14.154   2.589
 6859W        W78585  33.501   1.201   2.329
 6860W        W78586   0.470  11.997  13.540
 6861W        W78587  38.324  15.577   4.094
 6862W        W78588  26.437  22.310   2.209
 6863W        W78589  20.640  12.799   1.758
 6864W        W78590   7.336  32.048   3.652
 6865W        W78591  38.014  27.494   3.324
 6866W        W78592  18.609  20.322   2.790
 6867W        W78593  34.128  41.824   4.133
 6868W        W78594   3.747   6.726  12.581
 6869W        W78595   2.933  24.598  11.949
 6870W        W78596  30.572   9.139   3.697
 6871W        W78597  26.134  39.031  10.726
 6872W        W78598  24.611  31.652  12.051
 6873W        W78599  40.682  37.794   2.769
 6874W        W78600  44.055  28.963  11.446
 6875W        W78601   6.426  28.514  14.158
 6876W        W78602   3.694  23.345  14.782
 6877W        W78603  11.328   5.903   4.129
 6878W        W78604   6.153   9.703  11.947
 6879W        W78605  11.849   0.796   0.157
 6880W        W78606  19.724  41.343   3.834
 6881W        W78607  13.087  23.971   5.127
 6882W        W78608   3.006   6.774  13.774
 6883W        W78609  31.768   1.820  11.205
 6884W        W78610  44.851  18.806  11.667
 6885W        W78611   5.627  18.737   3.777
 6886W        W78612  26.673  38.414  13.897
 6887W        W78613   9.779  25.871   0.409
 6888W        W78614  35.016  32.895  14.834
 6889W        W78615  14.251  28.427   4.290
 6890W        W78616  26.314  41.318   5.169
 6891W        W78617  16.168  21.957  12.806
 6892W        W78618  28.687   9.788  14.289
 6893W        W78619   2.302   4.942  13.863
 6894W        W78620  10.235   6.120   3.713
 6895W        W78621  16.026  29.149  12.089
 6896W        W78622   3.278  23.627  14.980
 6897W        W78623   1.807  19.555  10.536
 6898W        W78624  21.318  41.690   4.189
 6899W        W78625  20.018  28.462   3.201
 6900W        W78626   5.453  39.727   0.813
 6901W        W78627   3.271   9.192  11.150
 6902W        W78628  36.584  13.803   4.269
 6903W        W78629  27.113   0.782  10.161
 6904W        W78630  10.241  24.038  11.439
 6905W        W78631  21.004  28.534   3.308
 6906W        W78632   7.866  23.566  10.750
 6907W        W78633  15.175  26.751   1.985
 6908W        W78634  16.092  38.789  12.385
 6909W        W78635  16.899   6.809   1.911
 6910W        W78636  14.249  44.321   9.949
 6911W        W78637  11.312  15.578   1.800
 6912W        W78638  22.855  24.010   2.024
 6913W        W78639  39.870  44.157  11.905
 6914W        W78640  14.777  39.310   2.446
 6915W        W78641   5.499   2.770  11.821
 6916W        W78642   8.866  34.345  10.719
 6917W        W78643  22.762  25.916   0.795
 6918W        W78644  28.946  40.966  14.997
 6919W        W78645  24.620  24.471  11.528
 6920W        W78646   1.856  21.249  11.057
 6921W        W78647   7.759   6.901  13.879
 6922W        W78648  18.154  36.472  10.929
 6923W        W78649  23.662  22.410   1.415
 6924W        W78650  36.697   5.187   3.042
 6925W        W78651  42.293  31.518  14.492
 6926W        W78652  37.034  29.860   1.859
 6927W        W78653  21.293  43.388   0.903
 6928W        W78654   9.956  23.780   2.763
 6929W        W78655   9.201  39.743  11.929
 6930W        W78656  39.863   4.137  12.523
 6931W        W78657  16.311   5.687   1.740
 6932W        W78658  40.287   4.918  11.147
 6933W        W78659  31.452  23.702   0.179
 6934W        W78660   7.294  35.152  13.419
 6935W        W78661  42.903  21.758  14.658
 6936W        W78662  22.637  10.394   2.224
 6937W        W78663  26.118  41.973  11.617
 6938W        W78664  41.321   9.760  10.973
 6939W        W78665  26.097   3.268   0.795
 6940W        W78666   9.669  37.099  12.822
 6941W        W78667  11.220  29.948   2.871
 6942W        W78668  40.328   6.475   3.762
 6943W        W78669  30.538  41.499   4.081
 6944W        W78670  31.918   6.919   4.992
 6945W        W78671  32.565   9.639   2.097
 6946W        W78672  13.123  22.065   4.705
 6947W        W78673   4.309   9.173  10.546
 6948W        W78674  36.523   7.463  14.512
 6949W        W78675   0.250  15.941  12.910
 6950W        W78676  34.599  19.314  11.455
 6951W        W78677  29.415   9.606   2.353
 6952W        W78678   5.662  21.032   3.851
 6953W        W78679  14.397  30.924  13.879
 6954W        W78680   7.742   1.869  11.429
 6955W        W78681  22.584   4.838  11.514
 6956W        W78682   7.440   7.149  14.884
 6957W        W78683  18.501  40.535  11.243
 6958W        W78684  16.517  36.899   4.699
 6959W        W78685  22.178  31.400   3.896
 6960W        W78686  35.841  36.049   4.158
 6961W        W78687  43.230  31.843  13.178
 6962W        W78688   6.980   5.661   2.413
 6963W        W78689  13.289  33.218  13.345
 6964W        W78690  29.598  37.924  11.702
 6965W        W78691  23.766  23.573   3.425
 6966W        W78692   2.943  33.439   0.828
 6967W        W78693  26.714  12.232  13.963
 6968W        W78694   4.735  13.542   2.883
 6969W        W78695  36.009  42.484   2.925
 6970W        W78696   9.149  18.756  11.057
 6971W        W78697  10.402  44.212  12.915
 6972W        W78698  18.058  42.284  12.198
 6973W        W78699  33.881  31.198   3.585
 6974W        W78700  34.525  28.320   2.847
 6975W        W78701  42.273   2.491   4.089
 6976W        W78702  37.281  16.372  13.407
 6977W        W78703  23.520  13.610  11.867
 6978W        W78704  25.759  13.132   1.318
 6979W        W78705   7.797  27.894  10.326
 6980W        W78706   6.899  33.361  14.455
 6981W        W78707  23.186  23.439  14.473
 6982W        W78708   7.578  44.853   2.100
 6983W        W78709  28.674  10.826  10.759
 6984W        W78710  39.879  34.942   4.344
 6985W        W78711  17.708  14.338   2.342
 6986W        W78712  18.779  34.817   4.963
 6987W        W78713  17.836  39.391   1.406
 6988W        W78714  19.920  21.103  12.436
 6989W        W78715  44.208  35.897   3.322
 6990W        W78716  20.914   4.410  11.005
 6991W        W78717  11.103  36.110  11.915
 6992W        W78718  22.670  35.243  13.469
 6993W        W78719  36.037   8.845   0.374
 6994W        W78720  40.777  28.976   1.804
 6995W        W78721  14.516  32.625  11.110
 6996W        W78722  31.724  37.017   1.296
 6997W        W78723  25.083  19.792  10.904
 6998W        W78724  13.355  29.226  11.278
 6999W        W78725  28.030  10.432  11.477
 7000W        W78726  29.089  40.745   2.232
 7001W        W78727  28.737  20.209   0.766
 7002W        W78728  42.843  22.937   2.768
 7003W        W78729  38.924  44.382   4.120
 7004W        W78730   2.282   2.869   4.207
 7005W        W78731  23.676  24.251  14.345
 7006W        W78732   5.870   9.416   2.675
 7007W        W78733  41.681  27.174  12.015
 7008W        W78734  28.020  10.376   4.616
 7009W        W78735  11.406   4.359   2.905
 7010W        W78736  39.151  41.128   2.790
 7011W        W78737  43.748  27.059  12.594
 7012W        W78738  28.833  29.692   0.017
 7013W        W78739  28.414  41.193   4.217
 7014W        W78740   9.373  20.738   0.713
 7015W        W78741  42.865  42.865  10.752
 7016W        W78742  10.741  41.560   3.754
 7017W        W78743  20.732   1.654  12.505
 7018W        W78744  19.035  21.632   4.275
 7019W        W78745  24.807   1.504  11.583
 7020W        W78746  29.067  43.354  14.905
 7021W        W78747  24.685   7.164  14.284
 7022W        W78748   8.703  32.957  11.115
 7023W        W78749   1.207   6.339   4.410
 7024W        W78750  36.470  37.641  11.069
 7025W        W78751  41.494  34.215   0.349
 7026W        W78752   1.215  15.035  12.493
 7027W        W78753  44.266   9.846  13.868
 7028W        W78754  42.350  35.183  13.075
 7029W        W78755   6.371  33.175   2.126
 7030W        W78756  29.172  19.254  12.053
 7031W        W78757  18.515  37.854   2.704
 7032W        W78758  24.065  25.641   3.739
 7033W        W78759  23.123  35.531   0.235
 7034W        W78760  34.849   6.848   2.371
 7035W        W78761  13.126  19.560   2.225
 7036W        W78762   3.402  30.727  13.426
 7037W        W78763  42.797  32.898  12.588
 7038W        W78764   0.904  22.211  13.968
 7039W        W78765  15.129  40.854   0.214
 7040W        W78766  42.843  36.939   1.687
 7041W        W78767  38.081   0.504   3.599
 7042W        W78768  36.245  28.203  14.427
 7043W        W78769   5.003   4.411   0.961
 7044W        W78770  22.204   2.798  10.745
 7045W        W78771  42.897   5.522  14.040
 7046W        W78772   9.318  30.186   1.448
 7047W        W78773  26.101  23.618  13.779
 7048W        W78774  38.075  36.181  11.631
 7049W        W78775  21.599  28.309   4.127
 7050W        W78776  43.234  39.973  10.723
 7051W        W78777  11.366  10.813   2.402
 7052W        W78778  16.622  33.816   0.345
 7053W        W78779  41.826  30.970  11.492
 7054W        W78780  43.962  44.535   4.066
 7055W        W78781  24.456  16.780   2.147
 7056W        W78782  27.930  28.659   2.197
 7057W        W78783  22.358  40.082   2.186
 7058W        W78784  29.186   3.953   0.730
 7059W        W78785   0.438   4.792  11.539
 7060W        W78786  38.329  25.698  14.815
 7061W        W78787  35.300  11.829   1.276
 7062W        W78788  43.917   1.134  13.267
 7063W        W78789   9.118  27.183  12.004
 7064W        W78790  13.699  21.326   1.932
 7065W        W78791  17.216   0.351   2.700
 7066W        W78792  37.584  23.774  12.847
 7067W        W78793  21.529  21.707   1.794
 7068W        W78794  25.169   4.692   4.069
 7069W        W78795  13.087  44.057   4.115
 7070W        W78796  44.584   3.472   2.884
 7071W        W78797  34.190  22.498  12.367
 7072W        W78798  44.934  10.234  14.978
 7073W        W78799  42.827  12.740  13.515
 7074W        W78800  30.046  24.667   1.610
 7075W        W78801   6.045  39.871  10.479
 7076W        W78802  20.529  10.771   2.171
 7077W        W78803  44.987  20.749   3.217
 7078W        W78804  19.022   4.309  12.359
 7079W        W78805  19.531  31.986  13.507
 7080W        W78806  30.986  29.876   1.204
 7081W        W78807  21.972  11.848  12.537
 7082W        W78808  35.377   2.678  11.474
 7083W        W78809  13.273  21.613  10.417
 7084W        W78810  29.599  17.267   0.930
 7085W        W78811   2.972  37.919   3.899
 7086W        W78812  22.747  13.405  12.931
 7087W        W78813  15.593   0.699   0.790
 7088W        W78814  38.421  20.688  14.392
 7089W        W78815  40.437   0.105   4.077
 7090W        W78816  36.042  26.688  14.035
 7091W        W78817  25.060  15.426   3.706
 7092W        W78818  23.691  20.239   2.713
 7093W        W78819  35.560  17.453  11.986
 7094W        W78820  32.643  10.256   2.430
 7095W        W78821   2.420  23.404   3.790
 7096W        W78822  41.986  11.926   3.672
 7097W        W78823  34.294  26.165  11.042
 7098W        W78824  12.238  40.759   3.281
 7099W        W78825  24.889   0.743  10.033
 7100W        W78826  28.438  23.090   1.023
 7101W        W78827   2.844  39.688  13.434
 7102W        W78828  29.132   9.624   2.923
 7103W        W78829  13.842  15.357   2.292
 7104W        W78830  38.798  33.103   0.218
 7105W        W78831  31.529   1.335   2.334
 7106W        W78832  18.502  38.475  11.624
 7107W        W78833  18.747  11.787  12.999
 7108W        W78834  21.561  30.165   0.579
 7109W        W78835  14.495   9.166   4.119
 7110W        W78836   2.974   6.364  12.450
 7111W        W78837   7.508  10.343   1.045
 7112W        W78838  31.457   6.785  13.882
 7113W        W78839  12.252   4.658   3.399
 7114W        W78840   1.810  19.633   4.084
 7115W        W78841  30.075  14.263   3.753
 7116W        W78842  20.643  15.127  14.861
 7117W        W78843  24.095  40.824   4.120
 7118W        W78844  40.576  35.335  13.473
 7119W        W78845  11.785  35.128  12.302
 7120W        W78846  14.124  29.408   2.697
 7121W        W78847   3.495   0.393   0.777
 7122W        W78848   4.814   0.398   1.260
 7123W        W78849   3.989  17.078  11.554
 7124W        W78850   9.345  21.735  13.957
 7125W        W78851  41.997  37.999  14.996
 7126W        W78852  31.685  29.919   3.666
 7127W        W78853  42.382  33.629  10.685
 7128W        W78854  38.423  42.552  11.481
 7129W        W78855  12.882  32.618  12.938
 7130W        W78856  39.579  24.181  11.934
 7131W        W78857  44.886  26.539   1.488
 7132W        W78858  21.995  32.421   0.067
 7133W        W78859  44.532   6.763   2.363
 7134W        W78860   7.673  34.798  11.925
 7135W        W78861  43.134  11.364  10.557
 7136W        W78862  44.745  20.173  13.283
 7137W        W78863  11.070  12.314   3.837
 7138W        W78864  12.124   4.582   4.858
 7139W        W78865  43.280  32.815  12.773
 7140W        W78866   6.086  28.073  12.518
 7141W        W78867   3.692  35.622  13.562
 7142W        W78868   1.463  31.984   1.460
 7143W        W78869  21.602  33.003   3.596
 7144W        W78870  34.803  30.517   1.128
 7145W        W78871  42.215  44.331  13.568
 7146W        W78872   9.952  13.806   3.690
 7147W        W78873  11.844   0.563  10.625
 7148W        W78874  43.963  37.072   3.844
 7149W        W78875   9.654  37.399  11.361
 7150W        W78876  34.134  16.048   4.849
 7151W        W78877   0.222  36.609  13.005
 7152W        W78878  23.555  25.931  11.467
 7153W        W78879  18.815   6.759  14.950
 7154W        W78880   1.599  39.113  12.920
 7155W        W78881   8.894   4.730   0.702
 7156W        W78882  11.182  24.261  12.126
 7157W        W78883   4.945  43.916   2.103
 7158W        W78884  24.536   0.327   5.039
 7159W        W78885  20.126  10.212   2.352
 7160W        W78886  42.533  34.983   0.849
 7161W        W78887  41.033  41.011  13.177
 7162W        W78888  22.498   6.235   2.613
 7163W        W78889   7.668  14.774  10.645
 7164W        W78890  22.989  24.599  13.978
 7165W        W78891  44.959  38.431  12.506
 7166W        W78892  11.696  23.651   2.184
 7167W        W78893  31.088  34.631  12.027
 7168W        W78894  10.208   2.377   2.213
 7169W        W78895   1.398  26.733   3.732
 7170W        W78896  10.326  36.191   5.170
 7171W        W78897  28.996  41.498  13.474
 7172W        W78898  40.318  36.502  13.854
 7173W        W78899   6.309  16.713  10.158
 7174W        W78900  31.119   4.202  12.915
 7175W        W78901  27.172   4.550  10.536
 7176W        W78902  27.574  25.595   1.210
 7177W        W78903  24.062  12.294   1.294
 7178W        W78904   6.410  41.569  14.552
 7179W        W78905  21.238   4.760   1.241
 7180W        W78906  38.861   7.860  14.740
 7181W        W78907  43.312  11.728  14.440
 7182W        W78908  33.017  26.249  11.613
 7183W        W78909  12.670   1.247   4.183
 7184W        W78910   7.835  27.398   2.353
 7185W        W78911  14.845  13.676  12.024
 7186W        W78912  42.372  36.247  12.037
 7187W        W78913  38.307  24.922   3.810
 7188W        W78914  26.655  12.107  12.980
 7189W        W78915  36.027  17.966  10.639
 7190W        W78916  44.464   6.227  11.177
 7191W        W78917   8.726  43.562  13.833
 7192W        W78918  20.202  19.209  12.097
 7193W        W78919  28.712  28.474  10.495
 7194W        W78920  27.038  21.570  13.430
 7195W        W78921  13.136  34.729  13.407
 7196W        W78922  10.408  29.457  10.813
 7197W        W78923  37.454  42.217   3.245
 7198W        W78924  20.636  37.879  11.505
 7199W        W78925  20.729  28.243  12.522
 7200W        W78926  37.029  38.280   1.013
 7201W        W78927  41.595  35.624   3.831
 7202W        W78928  30.403  39.810   4.518
 7203W        W78929  28.455  31.643   4.691
 7204W        W78930   2.678  12.479   1.448
 7205W        W78931   1.233  42.550   2.831
 7206W        W78932  28.438  20.525   3.745
 7207W        W78933  22.998  11.082  12.887
 7208W        W78934  23.784  44.402   2.391
 7209W        W78935   9.027  17.447   0.862
 7210W        W78936  40.833   0.502  14.764
 7211W        W78937  31.265  31.565  12.024
 7212W        W78938  23.875  15.712  10.629
 7213W        W78939  20.100   8.219   3.304
 7214W        W78940  34.262   8.145  14.763
 7215W        W78941  10.238  36.467  14.255
 7216W        W78942  27.491  16.634  11.130
 7217W        W78943  41.407  40.166   4.573
 7218W        W78944  37.417  14.301   3.669
 7219W        W78945  29.431  37.440  13.860
 7220W        W78946  35.204  43.283   3.371
 7221W        W78947   4.809  37.370  10.525
 7222W        W78948  21.005  13.528   4.600
 7223W        W78949   4.101   8.328   0.536
 7224W        W78950  10.805  16.318   2.805
 7225W        W78951   5.411  11.701   3.709
 7226W        W78952   8.463  44.811   2.365
 7227W        W78953   8.489  16.887  13.825
 7228W        W78954  41.982  25.348   9.990
 7229W        W78955   1.733  41.438  13.775
 7230W        W78956  33.742  14.291  11.274
 7231W        W78957  43.502  22.842   1.718
 7232W        W78958  30.422  19.984  13.944
 7233W        W78959  28.945   5.891   4.118
 7234W        W78960  14.223   9.297   0.947
 7235W        W78961  15.609  28.702  14.016
 7236W        W78962  16.731   2.557  12.609
 7237W        W78963  22.527  16.326  14.508
 7238W        W78964  14.894  41.564  14.457
 7239W        W78965  43.881   1.115   4.072
 7240W        W78966   4.164  10.294  12.456
 7241W        W78967  43.372  35.052   3.047
 7242W        W78968   9.878  20.678   4.673
 7243W        W78969  36.206  27.037   4.554
 7244W        W78970   8.359  31.168   2.367
 7245W        W78971  36.819  10.994   3.160
 7246W        W78972  11.336   2.757   3.297
 7247W        W78973  26.757  21.322   1.061
 7248W        W78974   4.455  38.235   4.740
 7249W        W78975  14.044   1.466   1.205
 7250W        W78976   2.436  35.941  14.746
 7251W        W78977   0.396  25.574   3.351
 7252W        W78978  35.667  23.003  14.491
 7253W        W78979  15.512  36.333   1.730
 7254W        W78980  23.637   8.629   4.143
 7255W        W78981  31.507  14.595  11.085
 7256W        W78982  24.466  25.077   0.735
 7257W        W78983  43.219  27.735   2.832
 7258W        W78984   3.844  28.325  14.759
 7259W        W78985  13.796   6.912   2.452
 7260W        W78986  35.942  14.289  10.682
 7261W        W78987  21.133  22.285   0.607
 7262W        W78988   3.000  38.384   1.925
 7263W        W78989  43.298  20.228   4.415
 7264W        W78990  10.417  18.320   3.334
 7265W        W78991  23.052  20.236   0.250
 7266W        W78992   8.682  28.928   4.629
 7267W        W78993  27.528  13.057  14.350
 7268W        W78994  42.249  35.018   2.827
 7269W        W78995  28.991  25.202   0.745
 7270W        W78996   8.537  39.789  10.179
 7271W        W78997  27.058  12.946  11.183
 7272W        W78998   5.225   1.523   4.065
 7273W        W78999  13.870   2.435   3.633
 7274W        W79000  23.966  15.649  14.340
 7275W        W79001  38.055  20.267  14.047
 7276W        W79002  39.530  11.268   0.672
 7277W        W79003   7.897  27.676   2.785
 7278W        W79004  40.537  40.947   3.350
 7279W        W79005  34.626   3.490   2.373
 7280W        W79006  35.497   5.872   0.762
 7281W        W79007   1.524  18.475  13.931
 7282W        W79008  25.563  14.567   3.717
 7283W        W79009  43.322  19.924   2.350
 7284W        W79010  26.444   0.424  10.618
 7285W        W79011  20.066  17.170   1.723
 7286W        W79012  44.355   9.967  11.033
 7287W        W79013  24.741   1.772   4.200
 7288W        W79014  37.955  26.956  11.913
 7289W        W79015   6.932  38.454   4.661
 7290W        W79016  38.900  13.634   1.345
 7291W        W79017   3.632  12.769   3.340
 7292W        W79018  16.356  23.920  12.549
 7293W        W79019  11.387  43.804   2.360
 7294W        W79020   4.213  11.079  14.537
 7295W        W79021  37.643  15.688  12.990
 7296W        W79022  21.765   9.836   2.215
 7297W        W79023  43.932  40.300  13.847
 7298W        W79024  27.093  12.851  12.609
 7299W        W79025   4.925  10.090  11.047
 7300W        W79026  15.131  18.770   0.244
 7301W        W79027  37.256   6.589  14.790
 7302W        W79028  35.994  15.848  11.551
 7303W        W79029  23.547   4.350  13.411
 7304W        W79030  43.811   6.917   3.651
 7305W        W79031   1.058   8.973   0.075
 7306W        W79032  23.660  39.351   4.680
 7307W        W79033  42.519  43.465  10.983
 7308W        W79034  24.973   9.095  11.507
 7309W        W79035  31.913  11.324  14.766
 7310W        W79036   6.265  34.380   0.161
 7311W        W79037  20.587  18.304  11.110
 7312W        W79038  30.415  14.090  12.055
 7313W        W79039   2.399  34.647   0.907
 7314W        W79040  23.509  23.460   0.506
 7315W        W79041  15.168  16.149  12.845
 7316W        W79042  42.460  10.298   2.868
 7317W        W79043  28.149   7.862  14.469
 7318W        W79044  28.000   2.753  12.819
 7319W        W79045  43.960  21.217  14.029
 7320W        W79046  13.263  43.567   2.228
 7321W        W79047  19.332  14.957   0.918
 7322W        W79048  18.788   1.294  12.993
 7323W        W79049   2.726  15.990  10.533
 7324W        W79050   7.215  24.524  13.878
 7325W        W79051  39.353   3.362   2.864
 7326W        W79052  40.496   7.373   5.040
 7327W        W79053  22.994  20.269  12.043
 7328W        W79054  37.577   9.209  11.493
 7329W        W79055   6.291  29.652   3.339
 7330W        W79056  23.542  34.898  12.876
 7331W        W79057  13.691  36.978   4.150
 7332W        W79058  26.987  17.237   0.166
 7333W        W79059  14.357  25.199   2.212
 7334W        W79060  13.240  36.225  12.198
 7335W        W79061  27.778  39.152   2.740
 7336W        W79062  22.569  33.052  12.069
 7337W        W79063  44.481  14.649  13.933
 7338W        W79064  36.869  27.776  13.955
 7339W        W79065  29.745  41.058   3.926
 7340W        W79066  15.346  32.522   3.094
 7341W        W79067  14.671  39.061  12.517
 7342W        W79068  36.589  33.865   1.265
 7343W        W79069   1.025  12.259   3.253
 7344W        W79070  31.830  29.019  12.499
 7345W        W79071  29.381  13.288  12.518
 7346W        W79072   3.691  31.706  11.020
 7347W        W79073   8.701  43.422   1.008
 7348W        W79074  12.883   8.479   4.125
 7349W        W79075  22.636   3.457   0.724
 7350W        W79076  37.923  11.652   0.770
 7351W        W79077  42.453  26.027  12.466
 7352W        W79078   6.526  30.649  10.777
 7353W        W79079   6.945  17.656  10.863
 7354W        W79080  32.752   2.796   3.304
 7355W        W79081   3.185  43.509  12.023
 7356W        W79082  11.170  44.844  10.619
 7357W        W79083  36.998  40.042  11.520
 7358W        W79084   2.257  21.355   1.778
 7359W        W79085  19.260  24.147  13.995
 7360W        W79086  15.053  39.047  13.263
 7361W        W79087  32.621  32.639  12.370
 7362W        W79088   0.697   4.347  11.479
 7363W        W79089  31.377  11.377   1.789
 7364W        W79090  44.818  28.834   2.234
 7365W        W79091  31.138  19.956   2.673
 7366W        W79092   5.811   1.535  14.385
 7367W        W79093   8.420  19.460   0.038
 7368W        W79094  15.024  33.124   4.274
 7369W        W79095   3.413  19.884  11.959
 7370W        W79096  18.572   2.653  12.679
 7371W        W79097   6.436  23.105  14.915
 7372W        W79098  18.704  26.592  13.875
 7373W        W79099  32.671  19.999   0.316
 7374W        W79100  18.028  34.240  12.591
 7375W        W79101   6.083   6.096   1.263
 7376W        W79102  24.588  19.553   2.378
 7377W        W79103  14.087  44.978  13.781
 7378W        W79104  35.575  37.045  12.076
 7379W        W79105  25.503  44.815  11.456
 7380W        W79106  24.126  24.411   2.339
 7381W        W79107  14.628  41.509   3.244
 7382W        W79108   8.164  29.070  13.848
 7383W        W79109   4.297  13.600   0.515
 7384W        W79110   7.750  17.193  11.166
 7385W        W79111   7.161  41.845  14.911
 7386W        W79112  20.007  42.457  13.805
 7387W        W79113  26.625  40.503   3.131
 7388W        W79114  42.010  25.584  10.904
 7389W        W79115  23.009  11.231   3.369
 7390W        W79116  13.239  20.582  12.432
 7391W        W79117  39.893   8.842   3.260
 7392W        W79118  35.457  18.778  10.767
 7393W        W79119  11.441  29.997  14.521
 7394W        W79120  32.882  44.446  11.391
 7395W        W79121   9.419  13.078  13.045
 7396W        W79122  36.897   1.651   2.413
 7397W        W79123  41.763  10.469  14.937
 7398W        W79124  35.536  28.663  12.962
 7399W        W79125  26.170  40.834  14.906
 7400W        W79126  18.353  13.676   2.318
 7401W        W79127   6.522   5.413  12.519
 7402W        W79128   4.877  42.119   1.884
 7403W        W79129  31.542   6.418  10.687
 7404W        W79130  17.670   9.760   4.381
 7405W        W79131  24.341  16.932  12.040
 7406W        W79132  33.870  32.637   3.101
 7407W        W79133  26.190  38.440  11.205
 7408W        W79134   8.635   4.731  11.026
 7409W        W79135  10.860  17.972   2.381
 7410W        W79136  34.262  21.665  11.846
 7411W        W79137  12.350   2.505  11.197
 7412W        W79138  20.813   5.537   2.830
 7413W        W79139  24.056  17.001   3.708
 7414W        W79140  30.199   0.367  10.286
 7415W        W79141  35.516  27.248   1.424
 7416W        W79142   3.835  43.967   2.766
 7417W        W79143  12.138   9.313  11.652
 7418W        W79144   1.400  29.908   1.679
 7419W        W79145   1.407  39.506  10.667
 7420W        W79146  21.921   1.450   0.173
 7421W        W79147  35.904  13.122  12.996
 7422W        W79148  19.748  17.208   3.238
 7423W        W79149   5.676  20.687   0.691
 7424W        W79150  33.928   8.895  14.372
 7425W        W79151  20.451   3.314  14.036
 7426W        W79152  13.991  37.448  12.205
 7427W        W79153  11.619   7.948  11.895
 7428W        W79154  19.033   9.847  10.610
 7429W        W79155  26.031  23.043   4.025
 7430W        W79156  26.494   3.511  13.495
 7431W        W79157  29.619   8.788   4.136
 7432W        W79158  42.473   4.009  14.458
 7433W        W79159  44.790  24.568   4.165
 7434W        W79160  36.740   4.208  12.493
 7435W        W79161  22.577   2.294   1.736
 7436W        W79162  29.367  39.981   4.053
 7437W        W79163  12.067  27.177   2.255
 7438W        W79164   4.164  43.982   0.900
 7439W        W79165  27.988  13.967   1.288
 7440W        W79166  43.086  26.956  11.167
 7441W        W79167   8.192  20.720  13.419
 7442W        W79168  29.863   4.402   2.658
 7443W        W79169  34.391   6.906   0.142
 7444W        W79170  23.984  13.847  10.751
 7445W        W79171  24.750  27.075   1.155
 7446W        W79172  22.777  36.930   0.313
 7447W        W79173  43.798  10.364   1.388
 7448W        W79174  15.692   5.637  10.365
 7449W        W79175  41.649  13.128  13.885
 7450W        W79176  22.985  37.998  13.468
 7451W        W79177  11.805  10.401   2.613
 7452W        W79178  35.087  37.054   1.032
 7453W        W79179  42.520  44.070  12.920
 7454W        W79180  27.606  44.336   2.454
 7455W        W79181  37.541   0.331   3.241
 7456W        W79182  36.614   5.232  10.491
 7457W        W79183  44.248  26.087  14.792
 7458W        W79184  14.588   5.289  12.452
 7459W        W79185  29.462  17.958  12.343
 7460W        W79186  23.037  15.039  13.740
 7461W        W79187  34.843  44.272   3.296
 7462W        W79188  14.132  24.553   4.372
 7463W        W79189  28.007  11.790   3.308
 7464W        W79190  14.621  17.401  11.778
 7465W        W79191  28.237  24.599   2.355
 7466W        W79192   5.179   5.832   4.566
 7467W        W79193  20.207   3.177   4.171
 7468W        W79194  26.772  33.540  14.691
 7469W        W79195  13.821  13.767   3.707
 7470W        W79196  44.426  38.022  12.636
 7471W        W79197   2.970   9.895   0.431
 7472W        W79198  32.100   8.272   4.283
 7473W        W79199  30.601  38.413   0.208
 7474W        W79200  28.675   6.726   1.468
 7475W        W79201  41.019  15.634  10.928
 7476W        W79202  26.541   6.152   0.301
 7477W        W79203  39.413  25.056   0.620
 7478W        W79204  36.008   5.936   4.253
 7479W        W79205   7.799  15.805   4.145
 7480W        W79206  38.218  40.492   4.008
 7481W        W79207   9.402   4.974   4.976
 7482W        W79208  38.454  19.538  11.082
 7483W        W79209  25.385  41.232   1.704
 7484W        W79210  28.211  34.748   4.286
 7485W        W79211   1.649  31.694  10.200
 7486W        W79212  12.553  41.879   1.081
 7487W        W79213   7.555  32.989   3.817
 7488W        W79214  26.479   2.904  14.078
 7489W        W79215  35.017  24.210  11.579
 7490W        W79216  44.799  38.367   3.733
 7491W        W79217  39.842  42.730   0.793
 7492W        W79218  23.590  11.715   0.224
 7493W        W79219  16.802   4.755  14.029
 7494W        W79220  32.412  32.621   1.823
 7495W        W79221  41.572  32.190   0.485
 7496W        W79222  17.082  13.843  11.526
 7497W        W79223  19.679  25.734   0.327
 7498W        W79224  10.408  22.308  10.928
 7499W        W79225   6.673  43.348  10.686
 7500W        W79226   5.047   2.635  11.055
 7501W        W79227   6.899   7.229   3.659
 7502W        W79228  42.005  33.508  11.612
 7503W        W79229  13.797  26.494   2.490
 7504W        W79230  24.905  23.317   0.716
 7505W        W79231   9.698  42.671  10.154
 7506W        W79232   3.678  43.489  13.321
 7507W        W79233  43.244  44.593   3.173
 7508W        W79234  14.230   8.338   1.954
 7509W        W79235   8.651   8.390   4.267
 7510W        W79236  16.194  34.907   0.435
 7511W        W79237   3.806   9.863   1.269
 7512W        W79238  11.597  18.109   2.728
 7513W        W79239  38.422   1.025  12.062
 7514W        W79240   6.217  44.389  13.302
 7515W        W79241  17.213  14.393  12.489
 7516W        W79242  30.956   6.447   4.057
 7517W        W79243  36.894  44.008  13.887
 7518W        W79244   2.173   0.888  13.969
 7519W        W79245  27.580  20.672   4.358
 7520W        W79246  43.111  21.759   1.213
 7521W        W79247  42.864  25.663  11.854
 7522W        W79248  43.301   8.318  13.787
 7523W        W79249  43.214  18.576   2.902
 7524W        W79250  44.844   8.167   3.175
 7525W        W79251  23.957  41.087   4.545
 7526W        W79252  11.657  23.811  14.805
 7527W        W79253  30.470  29.875  10.818
 7528W        W79254  38.770  25.665   4.219
 7529W        W79255  20.842  44.448  13.985
 7530W        W79256  41.325   3.693   3.566
 7531W        W79257  44.962  15.678  11.561
 7532W        W79258  43.706  34.537   4.872
 7533W        W79259  12.887  31.998   1.391
 7534W        W79260  13.248  34.611   0.239
 7535W        W79261  31.671   8.881   0.766
 7536W        W79262   5.192  15.112  13.326
 7537W        W79263   0.708  37.780   1.027
 7538W        W79264   7.553  25.144   3.230
 7539W        W79265   8.228  21.760   1.233
 7540W        W79266  25.426  23.308   0.790
 7541W        W79267  38.434   7.001   3.406
 7542W        W79268   7.733  36.421  11.508
 7543W        W79269  32.436   4.189  11.371
 7544W        W79270  13.897  26.675   0.841
 7545W        W79271  19.412  23.890  11.740
 7546W        W79272   7.938  25.015  10.223
 7547W        W79273  13.489   9.631  14.888
 7548W        W79274  24.008  34.173  12.130
 7549W        W79275  40.235  35.985   5.048
 7550W        W79276   5.705   2.252   0.212
 7551W        W79277  43.033  38.396  14.282
 7552W        W79278  26.547  28.379  13.500
 7553W        W79279  28.464   6.668   4.261
 7554W        W79280   0.913  11.610   4.532
 7555W        W79281   5.381  41.963  10.781
 7556W        W79282  26.088  24.694  12.452
 7557W        W79283  18.965   5.918  11.376
 7558W        W79284  26.195  33.900   2.819
 7559W        W79285  20.005  10.930   1.441
 7560W        W79286  14.431  13.667  11.248
 7561W        W79287  35.817  14.990   0.925
 7562W        W79288  17.728   7.276  12.438
 7563W        W79289  18.558  30.419   1.086
 7564W        W79290   7.172  36.538  14.222
 7565W        W79291   7.205  22.569  14.888
 7566W        W79292   7.548  11.028  14.538
 7567W        W79293  28.193  15.256   1.791
 7568W        W79294  13.668  34.829   5.014
 7569W        W79295  25.688   1.245  10.077
 7570W        W79296  29.550  38.666   0.773
 7571W        W79297  29.015  43.241  13.964
 7572W        W79298   9.297  42.975  14.286
 7573W        W79299  32.777  41.336  12.567
 7574W        W79300  40.613  12.170  12.981
 7575W        W79301   2.244   0.660  11.971
 7576W        W79302  40.709  43.167  12.100
 7577W        W79303  41.108  36.887  13.738
 7578W        W79304  14.519  19.155   4.940
 7579W        W79305  23.589  28.560   0.479
 7580W        W79306   3.927  27.011  12.884
 7581W        W79307  34.540   8.685   2.744
 7582W        W79308  42.445  18.056  10.381
 7583W        W79309  28.560  27.747  13.372
 7584W        W79310  18.267  38.566   0.252
 7585W        W79311  28.724  36.876  12.782
 7586W        W79312  23.773  20.053  13.377
 7587W        W79313  12.891  23.523   2.643
 7588W        W79314  43.291  42.963  10.170
 7589W        W79315  20.842  38.057  12.391
 7590W        W79316  36.528  42.312   1.315
 7591W        W79317  20.140  17.306   2.211
 7592W        W79318  34.831  24.122  14.353
 7593W        W79319  13.744   9.656  14.431
 7594W        W79320  42.494  32.886  11.092
 7595W        W79321   0.004  44.215   1.865
 7596W        W79322  21.235   3.207  10.843
 7597W        W79323  23.495  14.621  12.790
 7598W        W79324   9.253  20.301   2.437
 7599W        W79325   0.986  43.225   0.356
 7600W        W79326   3.954  37.876  14.545
 7601W        W79327   9.129  34.036   0.344
 7602W        W79328  42.784   9.433  11.103
 7603W        W79329   6.290  44.365   1.885
 7604W        W79330  30.494  36.668  13.537
 7605W        W79331  21.435  42.533   1.370
 7606W        W79332  34.661  31.518   3.282
 7607W        W79333  13.727  39.810  14.505
 7608W        W79334  11.138  21.790  11.038
 7609W        W79335  40.703   8.543  10.614
 7610W        W79336  10.177  19.093   2.378
 7611W        W79337   5.351  18.137  13.074
 7612W        W79338   0.295   2.258   2.712
 7613W        W79339  19.981   8.547   0.304
 7614W        W79340  12.883  24.581   0.434
 7615W        W79341   9.165  17.738   3.251
 7616W        W79342  39.019  39.869   0.460
 7617W        W79343  18.553  14.839  11.613
 7618W        W79344   7.172   8.713  12.645
 7619W        W79345  14.528   8.100   2.870
 7620W        W79346  42.065  14.959   0.080
 7621W        W79347  19.009   6.625  13.701
 7622W        W79348  33.341  10.644   0.538
 7623W        W79349   8.820  13.211  14.485
 7624W        W79350   7.937  24.716  14.719
 7625W        W79351   4.282  34.465   3.071
 7626W        W79352  28.482  19.778   3.300
 7627W        W79353  37.970  44.381   1.979
 7628W        W79354   4.990  13.679  10.538
 7629W        W79355  39.788  10.855  14.315
 7630W        W79356  28.731  19.186   2.569
 7631W        W79357  33.299   2.987  14.329
 7632W        W79358  34.128  12.160   3.251
 7633W        W79359   1.388  44.464  14.724
 7634W        W79360  39.298  26.157  14.877
 7635W        W79361  31.246  43.208  10.675
 7636W        W79362  39.570  13.661  14.983
 7637W        W79363  22.381  19.871   0.860
 7638W        W79364   5.634  30.022   1.897
 7639W        W79365  13.524   0.201   1.641
 7640W        W79366   5.304   7.837  12.853
 7641W        W79367  41.421  23.720   1.941
 7642W        W79368  24.415   7.328   2.719
 7643W        W79369  20.677   2.599   0.867
 7644W        W79370   7.404  22.013   1.210
 7645W        W79371  39.680  35.818   2.664
 7646W        W79372  23.245  44.569  14.339
 7647W        W79373  14.650   7.276   3.285
 7648W        W79374   7.343   2.221   3.562
 7649W        W79375  37.936   1.362  14.371
 7650W        W79376  29.435  30.980   1.344
 7651W        W79377  27.041   7.541   0.964
 7652W        W79378  38.606   3.863   3.130
 7653W        W79379   9.875  17.132  12.819
 7654W        W79380  39.612  43.277  12.774
 7655W        W79381  11.929   6.823   1.504
 7656W        W79382  39.430  44.408  14.920
 7657W        W79383  16.186  38.559   3.370
 7658W        W79384  38.548  22.052  14.413
 7659W        W79385  32.358  18.268   9.734
 7660W        W79386  26.720  17.866  11.228
 7661W        W79387   7.901  28.208   2.704
 7662W        W79388  13.033  14.797   0.810
 7663W        W79389   0.427   1.886  14.730
 7664W        W79390  29.875  25.727  11.527
 7665W        W79391  11.657  36.068   2.191
 7666W        W79392  31.715  41.854  10.671
 7667W        W79393  25.160  34.807   4.316
 7668W        W79394  23.629   0.364  13.094
 7669W        W79395   4.765  33.897   4.489
 7670W        W79396  25.404   4.799  11.592
 7671W        W79397  34.599   4.464   1.274
 7672W        W79398  22.044  23.959   4.080
 7673W        W79399  32.770   0.185  10.906
 7674W        W79400  34.356  37.611   3.342
 7675W        W79401  26.068  44.998   2.809
 7676W        W79402  36.109  19.430   0.445
 7677W        W79403  42.211  16.088  12.134
 7678W        W79404  13.670   6.377  12.517
 7679W        W79405  38.193  17.089   4.205
 7680W        W79406  34.500  26.070   1.933
 7681W        W79407   3.801   5.267   4.436
 7682W        W79408  32.486  43.443   2.920
 7683W        W79409  39.392  11.194  11.649
 7684W        W79410  19.777   7.716  14.997
 7685W        W79411  41.874  28.789   1.646
 7686W        W79412  21.830  43.530  11.484
 7687W        W79413  39.427  25.991  11.060
 7688W        W79414  40.780  14.652   0.457
 7689W        W79415  10.163  24.964  13.451
 7690W        W79416  33.743   8.744  11.994
 7691W        W79417  36.814  24.033   1.850
 7692W        W79418  14.596  33.551   0.737
 7693W        W79419   4.481  21.243   2.258
 7694W        W79420   3.545  11.782   1.792
 7695W        W79421  16.753  41.735  13.497
 7696W        W79422  33.604  18.982  13.026
 7697W        W79423  33.251  37.479   4.598
 7698W        W79424  12.200  28.023   1.854
 7699W        W79425   8.228  25.719   1.471
 7700W        W79426  44.746  19.741  11.698
 7701W        W79427   0.949  25.532   1.869
 7702W        W79428  24.515  44.275   4.132
 7703W        W79429  18.189  33.573   2.443
 7704W        W79430  10.125  24.008   4.637
 7705W        W79431   1.501  21.698  14.744
 7706W        W79432  13.088  41.761  10.709
 7707W        W79433  37.288   5.416  12.950
 7708W        W79434  13.793  26.058  13.059
 7709W        W79435  24.165  24.245   1.836
 7710W        W79436  38.481   1.383   4.655
 7711W        W79437   1.215  40.991  10.948
 7712W        W79438   3.260  14.764   3.271
 7713W        W79439  11.201   5.390   2.645
 7714W        W79440  13.206   7.695   3.241
 7715W        W79441  25.496  32.362  12.546
 7716W        W79442  13.095  41.241  10.775
 7717W        W79443  11.129  10.602  11.729
 7718W        W79444   0.367  32.871  11.677
 7719W        W79445  13.684  21.668  11.219
 7720W        W79446   2.708  24.693  12.407
 7721W        W79447  29.822  21.147  11.065
 7722W        W79448   7.649   1.251  11.127
 7723W        W79449  35.984  31.301   1.379
 7724W        W79450  38.175  19.646   4.690
 7725W        W79451   5.966   1.306  12.607
 7726W        W79452  37.417   5.744  10.742
 7727W        W79453  33.265  42.439   5.301
 7728W        W79454  36.088  22.533   2.655
 7729W        W79455  43.909  35.753   2.849
 7730W        W79456  37.950  14.826   2.679
 7731W        W79457  27.413  33.631   2.409
 7732W        W79458   5.432  20.435  12.182
 7733W        W79459  27.635   6.919  10.594
 7734W        W79460  27.746  28.077  13.040
 7735W        W79461  41.731  31.526   0.385
 7736W        W79462  19.172  10.352   4.751
 7737W        W79463  17.800  42.016   1.763
 7738W        W79464   0.690  28.599  10.314
 7739W        W79465  43.357  37.896   1.318
 7740W        W79466  17.288  39.788   1.865
 7741W        W79467  41.435  26.431   2.384
 7742W        W79468  31.898   1.223  14.518
 7743W        W79469  17.721  39.441   3.615
 7744W        W79470   9.508  35.818  12.899
 7745W        W79471  14.637  30.415  13.903
 7746W        W79472   0.983  17.457  13.278
 7747W        W79473   4.942  14.802  14.352
 7748W        W79474  19.478  12.691  11.162
 7749W        W79475  39.311  14.299  13.409
 7750W        W79476  42.789  15.532   2.204
 7751W        W79477  33.607   9.303   1.042
 7752W        W79478  38.990  16.494   1.209
 7753W        W79479  26.600  16.837   2.598
 7754W        W79480  41.550  14.558  14.775
 7755W        W79481  29.506  32.998   1.860
 7756W        W79482  29.455  22.503  11.594
 7757W        W79483  41.461   4.578   2.338
 7758W        W79484  19.804  16.062  11.099
 7759W        W79485  10.767  23.356  12.440
 7760W        W79486  29.464  15.735  11.485
 7761W        W79487   7.241  10.693   4.030
 7762W        W79488  29.367  10.043  11.957
 7763W        W79489  16.681   7.848  11.185
 7764W        W79490  12.616  29.088  10.596
 7765W        W79491  28.241  40.434  12.061
 7766W        W79492  29.905  31.428   3.220
 7767W        W79493  16.047  15.620   3.646
 7768W        W79494   6.822  13.892   4.541
 7769W        W79495  30.079  23.089   5.002
 7770W        W79496  18.695  11.647   3.567
 7771W        W79497  25.482  32.206   0.007
 7772W        W79498  19.148  37.439  13.324
 7773W        W79499   9.187  11.613  13.039
 7774W        W79500  28.904  33.869  11.539
 7775W        W79501   4.962  21.501   2.697
 7776W        W79502   1.213  39.457  12.464
 7777W        W79503  23.021   0.433  14.531
 7778W        W79504  29.696   1.154   1.391
 7779W        W79505  30.675  14.171   3.080
 7780W        W79506  18.517  40.312   3.256
 7781W        W79507  36.970   0.490   1.206
 7782W        W79508  15.234   1.978  14.946
 7783W        W79509   6.226  18.360   4.269
 7784W        W79510   3.503  33.284   5.106
 7785W        W79511  10.367  40.446  13.651
 7786W        W79512  14.167  31.442  10.676
 7787W        W79513  11.665   8.747   4.968
 7788W        W79514   6.865  21.391   3.303
 7789W        W79515  29.945  29.014  14.862
 7790W        W79516  23.800  26.976  13.946
 7791W        W79517  43.821  14.176   4.645
 7792W        W79518  41.291   2.533   2.615
 7793W        W79519  17.513  40.480  11.962
 7794W        W79520  35.151  16.602   0.328
 7795W        W79521   7.319   1.239   2.308
 7796W        W79522  39.872  37.061  12.479
 7797W        W79523  44.476  26.559  14.905
 7798W        W79524  37.358  37.760  11.035
 7799W        W79525   5.903  11.573  11.520
 7800W        W79526  10.836   4.380   1.310
 7801W        W79527   7.928   2.929  10.528
 7802W        W79528  15.135  36.982   3.803
 7803W        W79529   1.438  28.165   3.217
 7804W        W79530  13.162  38.841   1.755
 7805W        W79531  15.830   9.148   4.614
 7806W        W79532  29.216  37.282  13.389
 7807W        W79533  42.811  23.540  10.616
 7808W        W79534  42.239  35.103  13.917
 7809W        W79535  32.526  19.193   2.869
 7810W        W79536  34.122  38.810  12.573
 7811W        W79537  16.789  24.650  11.043
 7812W        W79538  16.391  29.479   4.911
 7813W        W79539  36.023  40.416   1.593
 7814W        W79540  34.009  24.565  14.414
 7815W        W79541  40.723  18.154   4.195
 7816W        W79542  20.525   2.913   4.856
 7817W        W79543  35.911  17.178   0.278
 7818W        W79544  40.411  43.348   0.245
 7819W        W79545  23.527  11.733   0.741
 7820W        W79546  39.530   1.365   3.807
 7821W        W79547  38.852  39.313   4.666
 7822W        W79548  36.871   2.841   0.442
 7823W        W79549  15.828   9.472  14.490
 7824W        W79550  16.688  39.094   0.663
 7825W        W79551  27.470  14.200  12.350
 7826W        W79552  35.639  16.575  11.152
 7827W        W79553  31.032   1.144  14.296
 7828W        W79554  30.169  28.903  13.098
 7829W        W79555  21.648   2.191  14.800
 7830W        W79556  34.157  41.494   1.898
 7831W        W79557   6.380  20.635  14.565
 7832W        W79558  41.753  12.216   0.331
 7833W        W79559  11.816  24.428  14.468
 7834W        W79560  20.624  13.414  12.385
 7835W        W79561   3.766  37.267   2.529
 7836W        W79562  21.024  32.248  12.764
 7837W        W79563   6.660  18.077   4.354
 7838W        W79564  31.227   9.806  12.390
 7839W        W79565   5.745  38.946  11.552
 7840W        W79566  13.349  34.167   4.548
 7841W        W79567  16.611   1.999  12.038
 7842W        W79568  21.965  34.189   1.870
 7843W        W79569  31.921  31.173   0.739
 7844W        W79570   4.536  19.071   2.334
 7845W        W79571  16.162  42.359   0.001
 7846W        W79572  22.205  30.318   3.028
 7847W        W79573  20.090  24.376  14.940
 7848W        W79574  10.707  44.869   4.570
 7849W        W79575  35.426   9.602   0.471
 7850W        W79576  15.673  15.555   0.428
 7851W        W79577  30.453  44.526  14.011
 7852W        W79578  34.802  13.299  13.865
 7853W        W79579  35.624   6.293  12.125
 7854W        W79580  12.811  40.309  10.465
 7855W        W79581   0.225  44.002  11.160
 7856W        W79582  16.075  38.277  13.314
 7857W        W79583  35.527  36.790   4.527
 7858W        W79584  12.685  11.993  14.012
 7859W        W79585  34.507   3.044   0.482
 7860W        W79586  43.466  12.566  13.907
 7861W        W79587  44.394  27.184  13.802
 7862W        W79588   7.958  23.845   1.513
 7863W        W79589  14.688  23.784  13.766
 7864W        W79590  32.587   3.978  14.864
 7865W        W79591  44.831   3.899   0.802
 7866W        W79592  25.971  24.013   4.280
 7867W        W79593  41.268  33.457  13.816
 7868W        W79594  28.642  11.204   2.189
 7869W        W79595   2.934  20.748   1.468
 7870W        W79596   7.312  22.984   4.963
 7871W        W79597  38.491  41.606  13.286
 7872W        W79598  11.269  24.530   2.209
 7873W        W79599  32.036  15.784   0.766
 7874W        W79600  38.405  26.945   3.815
 7875W        W79601  28.095   9.598  13.460
 7876W        W79602   6.471  18.797   1.217
 7877W        W79603  40.995   4.899  12.388
 7878W        W79604  15.985  25.800  11.621
 7879W        W79605   0.430   4.894  10.652
 7880W        W79606  18.632   1.199   3.176
 7881W        W79607   7.369  36.937  12.810
 7882W        W79608  41.398  12.127  14.413
 7883W        W79609  35.497  25.223  13.030
 7884W        W79610  23.202   5.151  12.112
 7885W        W79611   3.830  13.274   2.345
 7886W        W79612  14.241  34.433   2.723
 7887W        W79613   8.718  13.126  11.005
 7888W        W79614   2.920  40.890   0.283
 7889W        W79615  44.032  18.886  14.327
 7890W        W79616  31.414  24.499   5.057
 7891W        W79617   8.666  10.761  10.743
 7892W        W79618  20.998   3.141   3.086
 7893W        W79619  31.843   4.978   1.696
 7894W        W79620  20.709  32.970  13.250
 7895W        W79621  36.328  20.210   3.745
 7896W        W79622  13.626   7.656   1.845
 7897W        W79623  22.235  10.553   0.974
 7898W        W79624  10.673  18.086  11.114
 7899W        W79625  25.619   3.230  12.683
 7900W        W79626  20.974  21.822   5.304
 7901W        W79627  43.339   5.459   2.313
 7902W        W79628   1.882  22.110   2.404
 7903W        W79629  39.778  25.251   2.363
 7904W        W79630  42.011  35.600  13.947
 7905W        W79631  12.634  22.272   0.950
 7906W        W79632  30.375  30.454  14.542
 7907W        W79633  43.941  31.643  11.551
 7908W        W79634  17.546  28.389   4.096
 7909W        W79635  12.626   8.875  12.954
 7910W        W79636   5.480  32.423  14.680
 7911W        W79637  44.399  28.040  14.938
 7912W        W79638  40.144  20.413   0.875
 7913W        W79639  13.739  22.765   4.757
 7914W        W79640  22.844  18.636   1.322
 7915W        W79641  21.197  21.527  12.013
 7916W        W79642  20.600  41.909   1.246
 7917W        W79643  37.459   5.018   3.607
 7918W        W79644  36.291  44.839  14.206
 7919W        W79645  23.492  12.239   2.889
 7920W        W79646  24.656  28.479   4.106
 7921W        W79647  42.850  26.165  13.899
 7922W        W79648   2.225  19.840   0.364
 7923W        W79649   2.424  13.134   0.430
 7924W        W79650  33.625  16.690   1.237
 7925W        W79651  23.944  14.366  10.819
 7926W        W79652  18.109  29.320  10.623
 7927W        W79653  37.310  35.472  14.441
 7928W        W79654  35.129  16.699   3.345
 7929W        W79655  24.064  12.875   1.327
 7930W        W79656  13.317  40.102  14.313
 7931W        W79657  33.128  24.023   4.628
 7932W        W79658   1.276  29.492   4.589
 7933W        W79659  25.844  37.287   0.661
 7934W        W79660  34.057  24.587   1.909
 7935W        W79661  18.362  38.407  14.768
 7936W        W79662  44.789   5.714  13.456
 7937W        W79663  44.619   5.628   0.286
 7938W        W79664  20.736  16.688  14.020
 7939W        W79665  25.935  24.416  12.899
 7940W        W79666   4.723   1.634   1.905
 7941W        W79667  15.169  33.028  10.798
 7942W        W79668  16.192  28.996   1.097
 7943W        W79669   4.985  31.484   3.099
 7944W        W79670   5.628  34.403   4.217
 7945W        W79671  12.317  25.592  11.639
 7946W        W79672  18.287  15.887  14.432
 7947W        W79673  10.151  30.792   1.665
 7948W        W79674  13.457  16.684  12.837
 7949W        W79675   7.162   4.299  11.863
 7950W        W79676  17.911  26.644  12.648
 7951W        W79677  22.986  11.615  14.499
 7952W        W79678  18.697  44.975   2.592
 7953W        W79679  32.475  22.232   2.640
 7954W        W79680  10.191   5.727   2.232
 7955W        W79681  23.189  15.544  12.843
 7956W        W79682   1.349  29.934  11.540
 7957W        W79683   4.282   2.942  14.577
 7958W        W79684  27.028  34.330  11.753
 7959W        W79685  18.118  21.239  11.532
 7960W        W79686  12.470  37.750   3.749
 7961W        W79687  18.253  17.204   2.298
 7962W        W79688  43.690   2.690  10.644
 7963W        W79689  31.846   7.683  14.303
 7964W        W79690  25.113   8.839   0.551
 7965W        W79691   9.436  19.351  10.439
 7966W        W79692  19.649  35.939   2.729
 7967W        W79693  43.349  21.840  13.455
 7968W        W79694  36.072  34.584   3.310
 7969W        W79695  37.275   3.297   1.458
 7970W        W79696  30.137  14.204  14.698
 7971W        W79697  24.272  31.687   3.237
 7972W        W79698  16.162   2.328  11.934
 7973W        W79699  12.430  39.359  14.755
 7974W        W79700   4.133   4.316   0.289
 7975W        W79701  42.223  17.249   1.932
 7976W        W79702  44.987  34.511  13.207
 7977W        W79703  15.806  13.532  11.110
 7978W        W79704  17.746  10.740  13.094
 7979W        W79705   3.878  41.827  13.937
 7980W        W79706  41.897  19.124  13.866
 7981W        W79707  44.752   1.492   1.782
 7982W        W79708  42.642  18.292   3.373
 7983W        W79709  22.637   0.827  13.814
 7984W        W79710  44.269  21.889   1.830
 7985W        W79711  40.787  16.620  14.242
 7986W        W79712  38.525  11.291   1.179
 7987W        W79713   2.378  20.659   3.441
 7988W        W79714  11.523  18.579  12.792
 7989W        W79715   4.897  11.759   3.667
 7990W        W79716   1.894  17.442  14.881
 7991W        W79717  30.296  21.280  10.879
 7992W        W79718  32.805  40.483   1.487
 7993W        W79719  12.101   4.050   1.619
 7994W        W79720  25.631   5.550   0.747
 7995W        W79721   4.903  42.270   0.411
 7996W        W79722   6.701   4.869  13.488
 7997W        W79723  15.158  33.605   1.830
 7998W        W79724  44.056  39.176   5.150
 7999W        W79725  36.571  31.548   0.789
 8000W        W79726   2.332  30.188  11.995
 8001W        W79727   8.298  27.228   3.101
 8002W        W79728   9.644   9.140  14.304
 8003W        W79729  43.699  14.394  11.179
 8004W        W79730  36.054  14.909   3.675
 8005W        W79731  24.046  43.460  12.600
 8006W        W79732  10.876  35.942   0.768
 8007W        W79733  26.457  12.834  14.827
 8008W        W79734  18.043  16.302  12.418
 8009W        W79735  44.586  12.777  11.063
 8010W        W79736   6.512  25.533   1.287
 8011W        W79737  19.062   5.301  13.757
 8012W        W79738  38.813  35.979   9.566
 8013W        W79739   0.698  28.071  14.404
 8014W        W79740  40.374  38.740  12.927
 8015W        W79741   9.194  13.970  10.691
 8016W        W79742   0.386  42.397   0.296
 8017W        W79743  15.938   0.352   4.183
 8018W        W79744  22.326  18.343   2.449
 8019W        W79745   5.979  19.659  13.856
 8020W        W79746  20.526  37.065   4.685
 8021W        W79747  41.942  12.152   4.533
 8022W        W79748   7.976  23.198  11.165
 8023W        W79749  37.290  25.969  14.895
 8024W        W79750  11.334  39.407   1.973
 8025W        W79751  23.185  37.541   2.699
 8026W        W79752  38.051  35.147   4.661
 8027W        W79753  29.544  18.681   2.794
 8028W        W79754   8.326  31.155   4.113
 8029W        W79755  38.457  41.681   4.417
 8030W        W79756  14.844  34.441  13.068
 8031W        W79757   8.110  19.943  13.778
 8032W        W79758   9.384   6.525  12.065
 8033W        W79759  23.100  41.300   2.329
 8034W        W79760  21.755  10.108   0.939
 8035W        W79761  34.415  27.490   2.415
 8036W        W79762   4.393  30.904   0.440
 8037W        W79763  11.271  43.546  13.919
 8038W        W79764  43.951   9.686  10.545
 8039W        W79765  39.069  16.475   3.210
 8040W        W79766  28.999  11.834  12.596
 8041W        W79767  44.796  35.938  13.975
 8042W        W79768   8.604  38.797  12.453
 8043W        W79769   7.706  26.413   1.200
 8044W        W79770  32.943  14.395   1.846
 8045W        W79771  41.811  35.342   4.548
 8046W        W79772   7.195  34.122   0.497
 8047W        W79773  21.571   6.456   2.056
 8048W        W79774  12.153  17.252  13.124
 8049W        W79775  13.213  31.417  12.473
 8050W        W79776  24.425  39.961   0.372
 8051W        W79777  34.196  25.482   3.727
 8052W        W79778   5.181  42.664  12.238
 8053W        W79779  31.629   8.894   2.343
 8054W        W79780  24.299  42.907  13.506
 8055W        W79781  20.027  37.484  14.736
 8056W        W79782  42.184   8.088  11.440
 8057W        W79783  37.574  13.297  11.091
 8058W        W79784  30.542  15.294  13.511
 8059W        W79785  26.143  36.368  10.709
 8060W        W79786  37.462  24.058  13.442
 8061W        W79787  26.936  31.435   0.817
 8062W        W79788  34.373   7.452   3.835
 8063W        W79789  13.586  15.772  12.348
 8064W        W79790  19.666  18.520  14.705
 8065W        W79791   1.316  38.654  13.282
 8066W        W79792  13.160  43.711  10.585
 8067W        W79793  34.947  37.322  11.731
 8068W        W79794   5.117  31.885  12.008
 8069W        W79795  42.477  35.552   2.181
 8070W        W79796  31.956  18.994   1.637
 8071W        W79797  17.191   6.299   0.690
 8072W        W79798  41.209  15.211  13.480
 8073W        W79799  31.997  34.824  10.439
 8074W        W79800  34.160   3.803   1.697
 8075W        W79801   9.347  34.923   0.431
 8076W        W79802  44.599  38.779   4.900
 8077W        W79803   7.612   5.134  11.583
 8078W        W79804  26.344  31.499   3.378
 8079W        W79805   2.329  19.630  14.123
 8080W        W79806  12.369   2.704   1.644
 8081W        W79807  35.791  35.975   0.601
 8082W        W79808   2.718  22.807   3.171
 8083W        W79809  24.002  16.196   0.636
 8084W        W79810  21.841   7.209   4.757
 8085W        W79811  13.192  10.323   3.918
 8086W        W79812  20.895  18.265   1.892
 8087W        W79813  35.766  25.157   0.228
 8088W        W79814   7.349  31.563  12.562
 8089W        W79815  33.597  42.399   4.325
 8090W        W79816  43.867  39.975  12.651
 8091W        W79817  26.806  41.399  10.199
 8092W        W79818   7.822   9.895   4.340
 8093W        W79819  23.554  11.432   1.736
 8094W        W79820  44.167   8.445  11.647
 8095W        W79821   2.292  36.030   1.047
 8096W        W79822  14.946  10.279   0.512
 8097W        W79823  37.652  31.779  13.237
 8098W        W79824  15.625   3.629  10.725
 8099W        W79825   8.820  18.085   4.667
 8100W        W79826  27.204  27.003   4.529
 8101W        W79827  20.659   4.777  11.462
 8102W        W79828  22.321  29.080   3.144
 8103W        W79829   8.592  29.540  12.979
 8104W        W79830  29.866  18.797   4.350
 8105W        W79831   5.233   1.332  11.962
 8106W        W79832   7.761  34.951   1.312
 8107W        W79833  16.306  21.763   1.342
 8108W        W79834  14.573   0.194  13.863
 8109W        W79835   5.649  19.879  13.537
 8110W        W79836  33.838   8.213   2.706
 8111W        W79837  23.991  23.656   3.861
 8112W        W79838  36.785  19.551   0.133
 8113W        W79839  17.735  15.237  13.861
 8114W        W79840  38.362  16.972   1.907
 8115W        W79841   9.711   3.706   3.975
 8116W        W79842  32.467  16.449   2.596
 8117W        W79843  36.104  39.386   1.017
 8118W        W79844  15.352   2.308  12.501
 8119W        W79845  40.393  27.133  12.463
 8120W        W79846  17.585  25.225  11.094
 8121W        W79847  29.976  32.605  11.913
 8122W        W79848  26.189  17.757  11.202
 8123W        W79849  43.884  43.885  13.570
 8124W        W79850  29.481  27.513  10.775
 8125W        W79851  23.769  44.315  12.571
 8126W        W79852  11.804  10.351  14.795
 8127W        W79853  21.247   3.235  11.386
 8128W        W79854  44.687  32.373   5.104
 8129W        W79855   8.909  11.206  10.695
 8130W        W79856  27.721  37.036  12.626
 8131W        W79857  18.827  11.427  13.385
 8132W        W79858  39.866  44.916   1.422
 8133W        W79859   5.612   1.682   4.450
 8134W        W79860  19.821  24.127   3.731
 8135W        W79861   9.679  38.902  11.074
 8136W        W79862  43.899   3.939   0.381
 8137W        W79863  16.270  15.515   2.243
 8138W        W79864  44.731  24.769   2.846
 8139W        W79865   6.817  41.148  11.068
 8140W        W79866  37.232  34.618  11.544
 8141W        W79867  30.156  40.256   1.443
 8142W        W79868  20.653  42.496  13.927
 8143W        W79869  26.073  24.507  13.779
 8144W        W79870  12.448  37.445  11.429
 8145W        W79871  40.309   4.278   0.404
 8146W        W79872   6.663  38.262  13.410
 8147W        W79873  20.105  13.337   0.337
 8148W        W79874  39.344  11.636   4.266
 8149W        W79875  33.625  13.246  14.596
 8150W        W79876   0.658  39.360  14.777
 8151W        W79877  41.946  28.966  14.817
 8152W        W79878  27.201  44.839  12.819
 8153W        W79879   3.605  29.266  13.143
 8154W        W79880  10.564  42.460  10.536
 8155W        W79881  31.636  17.670  10.769
 8156W        W79882   0.030  14.265  12.531
 8157W        W79883  23.091  44.840   1.666
 8158W        W79884  28.944   9.782   2.475
 8159W        W79885  29.617  29.785   0.526
 8160W        W79886   8.432  21.178  13.395
 8161W        W79887  31.712  20.146  14.205
 8162W        W79888  28.636  24.178   3.715
 8163W        W79889  26.821  34.472   0.433
 8164W        W79890  34.800  12.628   2.424
 8165W        W79891  31.834  17.743   4.457
 8166W        W79892  26.426   9.825  13.273
 8167W        W79893  38.340  11.584  14.020
 8168W        W79894  26.535  29.819   3.711
 8169W        W79895  21.707   6.741   3.975
 8170W        W79896  12.889  43.836  13.966
 8171W        W79897  24.216  21.435  11.148
 8172W        W79898  31.159   6.019  12.188
 8173W        W79899   6.491   9.096   0.952
 8174W        W79900   7.385  15.783  14.430
 8175W        W79901  24.634  33.569   1.830
 8176W        W79902  17.800  25.575  11.571
 8177W        W79903  24.571  32.097  10.293
 8178W        W79904  16.024   2.299   2.723
 8179W        W79905  31.632  36.390  14.348
 8180W        W79906   6.643  28.862   3.238
 8181W        W79907  20.631  28.572   1.911
 8182W        W79908  15.611  39.915  13.076
 8183W        W79909  35.869  26.958   0.764
 8184W        W79910  39.134  16.084  13.934
 8185W        W79911  24.938   6.738  12.474
 8186W        W79912  38.951  30.705   3.327
 8187W        W79913  26.474  34.929  11.460
 8188W        W79914   5.218   9.271  13.312
 8189W        W79915  39.325  16.251   0.175
 8190W        W79916  21.607   2.234   4.630
 8191W        W79917  20.244  29.997  12.564
 8192W        W79918  42.538   9.837  14.277
 8193W        W79919  27.543   4.899  10.674
 8194W        W79920   0.423  20.283   2.267
 8195W        W79921   3.215  15.210  10.979
 8196W        W79922  24.474  24.169  11.140
 8197W        W79923  20.208  35.791  12.371
 8198W        W79924  32.582  14.115   2.356
 8199W        W79925  18.145   7.742   4.357
 8200W        W79926   0.445  36.555   3.872
 8201W        W79927   3.817  15.877  13.511
 8202W        W79928  16.656  33.162   3.491
 8203W        W79929  14.316  32.163  12.947
 8204W        W79930  38.489  41.628  11.465
 8205W        W79931  30.168  11.460   3.424
 8206W        W79932   1.933  41.569  12.008
 8207W        W79933  38.550  19.371   2.135
 8208W        W79934  30.425  17.839  12.533
 8209W        W79935  16.355  33.356   1.337
 8210W        W79936  31.490  20.143   1.364
 8211W        W79937  38.795  33.022   4.087
 8212W        W79938  25.497  42.286   0.778
 8213W        W79939  39.576  34.545   2.476
 8214W        W79940  41.839  43.919  14.824
 8215W        W79941  19.230  23.708  11.198
 8216W        W79942   6.835  44.550   4.246
 8217W        W79943  13.827  26.028   1.852
 8218W        W79944  23.466   8.721  14.312
 8219W        W79945   5.688  30.599  11.937
 8220W        W79946  18.249   2.651   2.468
 8221W        W79947   6.564  24.365  13.017
 8222W        W79948  17.053  29.358   0.293
 8223W        W79949  32.870   8.314  13.836
 8224W        W79950  20.703  44.779   1.021
 8225W        W79951  19.694  27.567   1.646
 8226W        W79952  29.952  42.107  12.573
 8227W        W79953  39.827  19.769   2.750
 8228W        W79954   6.899  30.683   2.864
 8229W        W79955  16.567   0.463  12.476
 8230W        W79956  39.287  15.158  11.716
 8231W        W79957  44.002  21.262  10.701
 8232W        W79958  13.153  42.304  10.720
 8233W        W79959   8.514  26.120  11.509
 8234W        W79960  44.348  36.116  11.558
 8235W        W79961   0.026  10.868  12.481
 8236W        W79962   6.918   9.791  11.236
 8237W        W79963  11.717   6.875  11.034
 8238W        W79964  37.913  34.818  10.559
 8239W        W79965  28.177  37.825   3.729
 8240W        W79966  38.056   8.853   4.576
 8241W        W79967  14.244  34.614  14.495
 8242W        W79968  23.436  14.222   1.193
 8243W        W79969  44.451  29.934   1.846
 8244W        W79970  18.515  12.661   0.884
 8245W        W79971   1.557   1.517  13.937
 8246W        W79972  39.341   4.074   1.812
 8247W        W79973  42.927   1.816   1.697
 8248W        W79974  35.169  21.494   0.514
 8249W        W79975  40.381  15.398   4.120
 8250W        W79976  16.608  19.792   2.756
 8251W        W79977  18.375   5.834  14.534
 8252W        W79978  37.792   3.868  11.531
 8253W        W79979  31.026   4.256  11.556
 8254W        W79980  43.815  21.614   4.236
 8255W        W79981  33.410  17.204   3.645
 8256W        W79982  12.170  22.408   0.184
 8257W        W79983  33.557  38.541  10.551
 8258W        W79984   3.460   5.898   0.917
 8259W        W79985  24.550   5.252   0.333
 8260W        W79986  11.704   7.603  14.560
 8261W        W79987   1.228  36.690  13.028
 8262W        W79988  38.409  26.493   1.732
 8263W        W79989  36.780  41.907   2.185
 8264W        W79990  37.987  32.213  14.028
 8265W        W79991  16.388  14.858  11.369
 8266W        W79992  42.006  16.156   3.447
 8267W        W79993  31.654  34.477   4.120
 8268W        W79994   5.388  18.686  11.674
 8269W        W79995  12.589   5.159   3.878
 8270W        W79996  36.895  34.469  14.336
 8271W        W79997  18.663   8.895   4.589
 8272W        W79998  19.959  31.082   4.479
 8273W        W79999   7.310   9.730  11.991
 8274W        W80000   5.772   0.670  14.669
 8275W        W80001  36.531  19.952   4.139
 8276W        W80002   8.337   9.160   4.426
 8277W        W80003  17.567   3.477   3.708
 8278W        W80004  36.282   8.238  14.834
 8279W        W80005   4.052  18.886  13.379
 8280W        W80006  35.457   8.927  10.542
 8281W        W80007  35.922  38.478   4.383
 8282W        W80008  16.280   6.883   2.709
 8283W        W80009   4.034  21.961  14.903
 8284W        W80010  20.578  34.182  11.984
 8285W        W80011   1.692  27.730   3.150
 8286W        W80012   7.678  35.061  10.501
 8287W        W80013  36.597  15.730  13.059
 8288W        W80014  30.023  19.207  12.953
 8289W        W80015  34.353  10.732  11.916
 8290W        W80016  36.103  36.356   0.020
 8291W        W80017  21.603   1.442  10.444
 8292W        W80018  21.162  11.539   4.936
 8293W        W80019  26.717  13.844   0.798
 8294W        W80020  36.420  19.705  12.004
 8295W        W80021  33.223  12.610  13.085
 8296W        W80022  16.310  13.301   2.141
 8297W        W80023  12.139   5.868  14.986
 8298W        W80024  20.065  15.816  13.463
 8299W        W80025  31.652  44.474  11.030
 8300W        W80026  24.481  26.409  13.725
 8301W        W80027   3.416  15.722   2.586
 8302W        W80028  40.868  36.584  14.575
 8303W        W80029  41.140  20.214   3.075
 8304W        W80030  43.311  40.055   1.230
 8305W        W80031  41.324  32.086   3.320
 8306W        W80032  38.812  33.218  13.443
 8307W        W80033  44.345  19.462  11.081
 8308W        W80034  28.390  36.908   1.371
 8309W        W80035  34.841  42.027   4.724
 8310W        W80036  29.690  42.559  11.414
 8311W        W80037  35.270  36.048   0.449
 8312W        W80038  21.642  40.891  11.489
 8313W        W80039  35.968  28.264  13.082
 8314W        W80040  44.460  38.544   2.702
 8315W        W80041  26.956   6.031   2.605
 8316W        W80042  10.367  39.440  11.081
 8317W        W80043   0.635  30.307  14.489
 8318W        W80044  16.767  31.090   3.387
 8319W        W80045  13.045  40.952  14.480
 8320W        W80046   7.772  30.074  12.464
 8321W        W80047   0.035  10.714  14.210
 8322W        W80048  20.677  31.716   3.738
 8323W        W80049  22.243  28.194   0.146
 8324W        W80050  24.985   0.877   1.106
 8325W        W80051  12.269  42.061   3.362
 8326W        W80052   8.453   5.057   2.829
 8327W        W80053   9.654   3.342  11.926
 8328W        W80054  23.672  36.430   2.921
 8329W        W80055  15.725  32.873  11.889
 8330W        W80056  41.940  30.568   2.611
 8331W        W80057  28.005   5.330  12.447
 8332W        W80058   5.042   4.386  11.168
 8333W        W80059  19.762  20.379   0.171
 8334W        W80060  27.184  15.167   3.763
 8335W        W80061  25.282  19.611   3.153
 8336W        W80062  12.209  15.051  11.611
 8337W        W80063  29.634   5.547  14.896
 8338W        W80064  31.068   0.952  13.342
 8339W        W80065   0.784   0.242   4.589
 8340W        W80066  32.297   0.970   4.429
 8341W        W80067  27.819  32.416  11.055
 8342W        W80068  41.560  42.652  13.003
 8343W        W80069  21.114  27.532   3.218
 8344W        W80070  18.020  25.463  13.400
 8345W        W80071  30.992  35.479  10.623
 8346W        W80072   9.692  32.040   2.581
 8347W        W80073  21.021  31.694   4.157
 8348W        W80074  11.089  18.688  14.059
 8349W        W80075  35.521   7.208   4.160
 8350W        W80076  24.556  24.198   1.444
 8351W        W80077  18.004  29.353   3.979
 8352W        W80078  44.839  28.185  10.588
 8353W        W80079   8.938  42.236   2.139
 8354W        W80080  20.299  11.209   0.909
 8355W        W80081  11.276  40.447   1.420
 8356W        W80082  30.059  36.274  12.017
 8357W        W80083  21.302   4.489   4.593
 8358W        W80084  10.640   2.699  14.800
 8359W        W80085  28.673  31.886   0.962
 8360W        W80086  27.590  28.532   2.905
 8361W        W80087  17.913   1.558   3.636
 8362W        W80088   3.762   7.300   1.494
 8363W        W80089  40.094   5.436  11.729
 8364W        W80090   5.314   5.422   1.014
 8365W        W80091  42.265  17.809  12.090
 8366W        W80092  16.817  11.745   1.719
 8367W        W80093  38.118   9.339   2.673
 8368W        W80094  27.936  22.103   2.253
 8369W        W80095  34.882  20.766   4.909
 8370W        W80096  25.613  39.987  13.578
 8371W        W80097  37.312  22.988   1.698
 8372W        W80098  26.241  39.063   4.186
 8373W        W80099  11.413  27.425  13.309
 8374W        W80100  43.430   2.354  13.540
 8375W        W80101  13.846   4.709  11.715
 8376W        W80102   3.201  40.080   3.038
 8377W        W80103   3.604  32.717  12.858
 8378W        W80104   7.483  40.371   1.215
 8379W        W80105  19.765  14.691   2.643
 8380W        W80106  32.481  25.279   3.748
 8381W        W80107   2.632  16.178  14.800
 8382W        W80108  28.702  25.240  14.317
 8383W        W80109  40.012  41.587   4.520
 8384W        W80110  16.555  10.678  11.007
 8385W        W80111  39.028  15.262  11.063
 8386W        W80112  14.071  22.964  11.690
 8387W        W80113  24.650  18.759  11.364
 8388W        W80114  25.763  31.104  11.947
 8389W        W80115   7.584  32.373  13.582
 8390W        W80116  22.264   2.495  13.011
 8391W        W80117  38.930  20.719  12.050
 8392W        W80118  17.240  39.425  10.747
 8393W        W80119  40.268  16.298  13.557
 8394W        W80120  20.361   4.909   2.294
 8395W        W80121  37.979  21.740   0.964
 8396W        W80122  24.536  31.011   1.414
 8397W        W80123  42.475  20.736  11.597
 8398W        W80124  34.493  29.395  14.398
 8399W        W80125  12.957  39.612  12.998
 8400W        W80126  17.769  10.116  13.275
 8401W        W80127  37.592  39.753  12.298
 8402W        W80128  38.908  19.988  14.892
 8403W        W80129  41.766  37.103  10.764
 8404W        W80130  38.175  37.598  12.593
 8405W        W80131  11.737  38.357   4.089
 8406W        W80132  39.916  14.464   1.428
 8407W        W80133  18.006  19.092   3.317
 8408W        W80134   7.924  10.905  11.453
 8409W        W80135  43.052   5.447  11.731
 8410W        W80136   3.752  37.687  11.989
 8411W        W80137  11.674  19.105   0.708
 8412W        W80138  33.583  28.251  11.096
 8413W        W80139   4.956  13.454  14.921
 8414W        W80140  24.045   3.210  11.069
 8415W        W80141   3.062   1.553   1.722
 8416W        W80142  18.580  29.571  10.602
 8417W        W80143  42.794  33.422  12.510
 8418W        W80144   0.366  38.895  12.600
 8419W        W80145  20.750   1.454  10.421
 8420W        W80146  15.145  13.136  14.006
 8421W        W80147  15.598   9.312  14.047
 8422W        W80148  11.852  16.153   4.190
 8423W        W80149   5.501  14.207   0.472
 8424W        W80150   7.932  13.864   1.237
 8425W        W80151  24.789  26.473   9.366
 8426W        W80152   6.652  10.080   3.685
 8427W        W80153   9.500   1.442   2.888
 8428W        W80154  17.341   9.830   1.874
 8429W        W80155  12.151  39.346  13.842
 8430W        W80156  19.140  44.723  12.026
 8431W        W80157  28.909  11.674   1.303
 8432W        W80158  44.887  41.413  13.966
 8433W        W80159   4.512  29.171   2.736
 8434W        W80160  19.772   1.307  12.855
 8435W        W80161  17.132  27.768  12.866
 8436W        W80162  34.263  13.314  13.943
 8437W        W80163   7.888  44.457   2.172
 8438W        W80164  25.223  30.418  14.976
 8439W        W80165  25.732   0.964  12.053
 8440W        W80166  42.439   0.500  13.896
 8441W        W80167   8.447  13.533  10.797
 8442W        W80168  36.899  38.501  11.542
 8443W        W80169  23.597   2.943  10.995
 8444W        W80170  15.877  26.051  14.929
 8445W        W80171  25.766  44.426   0.453
 8446W        W80172  27.285   2.063   4.097
 8447W        W80173  44.808  35.008   1.502
 8448W        W80174  21.648  35.908   1.819
 8449W        W80175   0.244  28.991  13.883
 8450W        W80176   8.133  39.369   0.853
 8451W        W80177   7.942  26.643   0.792
 8452W        W80178  33.579  14.151   2.415
 8453W        W80179  15.664  40.989  11.649
 8454W        W80180   2.497   2.806   1.343
 8455W        W80181   6.263  26.068  10.721
 8456W        W80182  30.166  30.452   2.869
 8457W        W80183  23.303  31.569  14.292
 8458W        W80184  19.607  26.520  14.578
 8459W        W80185  18.165  35.508   3.424
 8460W        W80186  15.837   9.766   2.851
 8461W        W80187  39.656  18.714  12.554
 8462W        W80188   6.926  32.586   3.251
 8463W        W80189  26.565  38.646   0.880
 8464W        W80190  20.989  13.435   3.767
 8465W        W80191   3.144   3.419   4.312
 8466W        W80192   5.309   7.154  12.526
 8467W        W80193  28.162   4.246   3.331
 8468W        W80194  18.138  25.942  10.680
 8469W        W80195  43.981  26.901   4.137
 8470W        W80196  29.265   2.981   0.807
 8471W        W80197  24.275  27.187  11.696
 8472W        W80198  34.988   9.678  14.763
 8473W        W80199  40.820  21.733  12.491
 8474W        W80200  13.203  13.911  13.440
 8475W        W80201   1.343   9.080   0.534
 8476W        W80202   2.463  24.777   2.350
 8477W        W80203  15.679  30.053   3.141
 8478W        W80204   4.251   8.910   3.350
 8479W        W80205  14.236  16.852  14.142
 8480W        W80206  36.347  33.663  13.420
 8481W        W80207   9.124   5.749  14.856
 8482W        W80208  44.249   5.371  10.671
 8483W        W80209  42.803   6.284  11.236
 8484W        W80210  17.313   1.503   3.569
 8485W        W80211  17.761   0.406   0.043
 8486W        W80212  24.508   6.252  11.124
 8487W        W80213  33.569  40.112  11.547
 8488W        W80214  12.764  29.914   1.790
 8489W        W80215  44.242  10.816   1.402
 8490W        W80216  44.601  28.167   3.970
 8491W        W80217  31.580  34.909  11.691
 8492W        W80218   9.122  15.529   3.296
 8493W        W80219  15.675   2.771   0.855
 8494W        W80220  42.176  28.095  14.082
 8495W        W80221   3.705  37.381  11.581
 8496W        W80222  44.579  44.982  12.698
 8497W        W80223   6.900  14.215   3.211
 8498W        W80224   4.779  40.499   4.739
 8499W        W80225  24.486  40.811  12.631
 8500W        W80226  44.397  24.602   2.219
 8501W        W80227   7.638   9.401  12.469
 8502W        W80228   5.125   8.310  13.059
 8503W        W80229  11.861  35.502   0.038
 8504W        W80230  35.315  37.828   3.234
 8505W        W80231  24.582  34.468  11.577
 8506W        W80232  18.805  19.722   3.260
 8507W        W80233  44.443  22.432   0.460
 8508W        W80234   8.228  33.348   2.771
 8509W        W80235  25.696  19.634   1.745
 8510W        W80236   5.408   4.889   0.350
 8511W        W80237   0.950  34.347   1.642
 8512W        W80238  24.097   7.313  14.298
 8513W        W80239  20.665  14.308   4.623
 8514W        W80240   0.297  20.211  10.589
 8515W        W80241  24.760  15.854   1.809
 8516W        W80242  31.882  32.493   2.703
 8517W        W80243  17.552   2.996   0.990
 8518W        W80244   3.352   5.773   3.841
 8519W        W80245  33.166  35.616   2.719
 8520W        W80246   3.242   7.817   1.729
 8521W        W80247  16.788  12.109   2.431
 8522W        W80248  17.360   5.352  10.731
 8523W        W80249   6.914  17.802   3.557
 8524W        W80250  34.112  21.058  11.821
 8525W        W80251  31.969   8.311  12.474
 8526W        W80252  33.118   0.349  13.288
 8527W        W80253   9.593   5.958  12.866
 8528W        W80254   3.121  31.592   3.569
 8529W        W80255  39.488  34.495   0.546
 8530W        W80256   8.607   6.166   1.500
 8531W        W80257  42.568  31.149  13.332
 8532W        W80258  34.424  41.637   2.661
 8533W        W80259   3.995  27.827  10.580
 8534W        W80260   2.918  16.743   0.081
 8535W        W80261  40.938   3.238   4.238
 8536W        W80262  20.585  33.747  12.846
 8537W        W80263  42.023  42.275  11.942
 8538W        W80264   1.786  28.151  12.587
 8539W        W80265  40.362  16.356   4.357
 8540W        W80266  13.855  29.354  14.743
 8541W        W80267  10.595  34.053  11.015
 8542W        W80268   1.970  23.226  14.167
 8543W        W80269   8.516   5.022  14.895
 8544W        W80270   6.453  41.497   4.229
 8545W        W80271  34.474  17.209   2.159
 8546W        W80272  39.362  13.621   1.938
 8547W        W80273  19.969  10.878   4.037
 8548W        W80274  23.105  12.323  10.653
 8549W        W80275  35.652  14.795   2.780
 8550W        W80276   0.922  35.069   4.084
 8551W        W80277  17.130  29.404  13.517
 8552W        W80278   1.017  26.840   3.356
 8553W        W80279   6.586   3.931   1.755
 8554W        W80280  13.366  33.147  11.140
 8555W        W80281  29.813  29.581   1.727
 8556W        W80282   9.391   3.327  14.044
 8557W        W80283  31.534  14.182  14.849
 8558W        W80284  28.108  28.455  12.801
 8559W        W80285   2.028  31.076  13.364
 8560W        W80286  37.436  41.740   0.538
 8561W        W80287  22.097  25.884   2.390
 8562W        W80288  12.109  37.646  10.527
 8563W        W80289   5.365  14.384  14.498
 8564W        W80290  23.459  22.654   3.715
 8565W        W80291  35.937  31.435   0.530
 8566W        W80292  20.295   8.621  12.872
 8567W        W80293  17.095  43.940  10.648
 8568W        W80294  21.177  37.478   1.040
 8569W        W80295  38.956   4.952   3.742
 8570W        W80296  22.286  27.565  11.055
 8571W        W80297  39.225  38.460   1.677
 8572W        W80298   3.913   0.489  10.395
 8573W        W80299  44.057   9.951  11.992
 8574W        W80300  30.509   4.964  14.087
 8575W        W80301   0.228  13.082  14.981
 8576W        W80302  28.487  15.608  11.671
 8577W        W80303  40.373   5.876  11.166
 8578W        W80304  42.393  34.890  12.230
 8579W        W80305  13.267   8.341   2.354
 8580W        W80306  22.251  17.188   3.239
 8581W        W80307  42.325  21.675   2.581
 8582W        W80308  10.384  17.548  14.858
 8583W        W80309  44.794   8.911  14.449
 8584W        W80310  40.072   7.842  13.843
 8585W        W80311  31.825  43.717   0.786
 8586W        W80312  21.126  35.989   1.774
 8587W        W80313  40.770  44.333  12.503
 8588W        W80314  25.547  18.072  14.745
 8589W        W80315  16.724   4.898  12.093
 8590W        W80316  35.066  37.379   3.141
 8591W        W80317  24.960  18.209  13.007
 8592W        W80318  17.591  22.041  10.609
 8593W        W80319   5.762  14.098  11.443
 8594W        W80320  11.603  22.160   3.169
 8595W        W80321   8.238  33.277   2.242
 8596W        W80322  41.945   1.405   1.254
 8597W        W80323   3.475  10.853   0.782
 8598W        W80324  34.785  30.478   4.547
 8599W        W80325  12.300   0.493  14.910
 8600W        W80326   5.722   3.196   2.852
 8601W        W80327   3.326  22.302  11.220
 8602W        W80328   6.850   5.886   1.969
 8603W        W80329  14.021   9.636  14.944
 8604W        W80330  22.808  14.895   4.987
 8605W        W80331  35.061  40.932   3.586
 8606W        W80332  20.703   4.810  10.372
 8607W        W80333  29.262   7.939  12.427
 8608W        W80334  19.221   2.886   4.182
 8609W        W80335  32.301  36.354  11.153
 8610W        W80336  10.413   4.389  13.949
 8611W        W80337  13.686   5.358  13.545
 8612W        W80338   7.916  21.195  13.514
 8613W        W80339  41.300  35.365  12.881
 8614W        W80340   4.684  10.133   4.207
 8615W        W80341  40.028   6.679   0.261
 8616W        W80342   0.211  36.022  14.817
 8617W        W80343  13.750  39.739   2.360
 8618W        W80344  36.161  17.506   4.101
 8619W        W80345  19.636  44.816  13.562
 8620W        W80346  31.518  18.716   1.690
 8621W        W80347  10.601  17.415   3.149
 8622W        W80348  43.288  28.843  13.943
 8623W        W80349  21.582  32.103   3.937
 8624W        W80350   8.114  36.509   0.862
 8625W        W80351  29.468  25.635   2.815
 8626W        W80352  11.403  27.789   4.681
 8627W        W80353  26.824   9.971  14.620
 8628W        W80354  21.519  22.179   3.612
 8629W        W80355  26.012   1.280  14.419
 8630W        W80356  17.603  44.447  13.349
 8631W        W80357   7.794  27.089   2.844
 8632W        W80358  12.820  27.409   4.748
 8633W        W80359  19.540  42.198   2.380
 8634W        W80360   8.511   3.279   4.976
 8635W        W80361   8.435  15.258   2.177
 8636W        W80362  11.443  15.901   2.406
 8637W        W80363  44.237   7.149   3.860
 8638W        W80364  12.808  13.149   0.810
 8639W        W80365  34.519  28.513  11.239
 8640W        W80366  22.356  33.972  11.646
 8641W        W80367  43.880  21.118   3.659
 8642W        W80368  42.720  11.947   0.332
 8643W        W80369  31.224  26.868  10.610
 8644W        W80370  22.581  19.711  14.510
 8645W        W80371  21.020  25.986  13.948
 8646W        W80372  23.712  12.354   4.132
 8647W        W80373  14.712  34.426   0.226
 8648W        W80374  19.266  10.821  10.684
 8649W        W80375  32.558  36.538   1.160
 8650W        W80376  37.579  29.948   4.177
 8651W        W80377   2.720   4.411   4.685
 8652W        W80378  41.811  28.484   4.162
 8653W        W80379  15.164  19.477  13.631
 8654W        W80380  16.254  21.072  12.399
 8655W        W80381  36.524  20.175  12.884
 8656W        W80382  44.197  32.040   3.221
 8657W        W80383  20.600  37.028   2.613
 8658W        W80384  16.610  17.738   1.360
 8659W        W80385  34.281  30.215  10.777
 8660W        W80386  14.944  30.186   0.409
 8661W        W80387  23.741  32.949  12.437
 8662W        W80388  23.815   8.198   1.732
 8663W        W80389  44.283  31.186   0.411
 8664W        W80390   4.353  19.129   0.729
 8665W        W80391  37.585  37.609  13.340
 8666W        W80392  34.353  39.861   4.559
 8667W        W80393  16.099   1.971  13.962
 8668W        W80394  38.497   3.378   4.837
 8669W        W80395  25.087  27.433  13.377
 8670W        W80396  13.233  25.557   1.465
 8671W        W80397   3.950  12.753  14.524
 8672W        W80398   3.775   6.185   1.961
 8673W        W80399  42.248  32.005  14.269
 8674W        W80400   5.775  31.833   3.397
 8675W        W80401  42.838  11.065   0.796
 8676W        W80402  36.077  13.633   4.250
 8677W        W80403  17.030  13.362   0.492
 8678W        W80404  16.144  27.038   0.720
 8679W        W80405  35.681  13.220  11.178
 8680W        W80406  14.045  41.956   4.546
 8681W        W80407  31.462   2.779   2.781
 8682W        W80408  42.998  34.490  10.732
 8683W        W80409  11.788  27.535  10.165
 8684W        W80410  37.980  23.087  14.658
 8685W        W80411  23.296  11.634  11.131
 8686W        W80412   2.235  36.657   4.156
 8687W        W80413  25.618  20.603  12.430
 8688W        W80414  21.509  36.105  11.996
 8689W        W80415  41.009  36.196  11.925
 8690W        W80416  37.360  24.416   0.910
 8691W        W80417   5.010  11.755   0.322
 8692W        W80418  26.141  44.377  14.585
 8693W        W80419  34.150  33.130  12.980
 8694W        W80420  15.487   6.854   3.282
 8695W        W80421  39.449  43.777  12.768
 8696W        W80422  44.501  29.559  12.070
 8697W        W80423  22.057   4.290  12.181
 8698W        W80424   1.039   1.824   0.456
 8699W        W80425  37.828  30.016   1.935
 8700W        W80426   9.802   5.779  11.570
 8701W        W80427  38.060  27.575   4.751
 8702W        W80428  32.957  31.866   1.840
 8703W        W80429  14.234   2.699   3.267
 8704W        W80430   9.893  32.467  12.843
 8705W        W80431  44.103  23.561   5.080
 8706W        W80432  30.113   7.037   1.355
 8707W        W80433  14.575  39.372   0.420
 8708W        W80434  28.951  21.998  13.716
 8709W        W80435  14.139  33.909  11.631
 8710W        W80436   7.807  30.822   0.021
 8711W        W80437  30.134  29.718   4.142
 8712W        W80438  38.550  30.437   4.991
 8713W        W80439  29.212   6.612   4.788
 8714W        W80440  38.317   4.013  13.831
 8715W        W80441  29.882  30.292  14.447
 8716W        W80442  16.296   7.662  14.951
 8717W        W80443  25.200  21.201   3.644
 8718W        W80444  19.198  16.680  14.053
 8719W        W80445  37.949  37.012   3.295
 8720W        W80446  17.800  40.013  14.252
 8721W        W80447  25.428  26.707   3.180
 8722W        W80448  27.130  24.636   4.359
 8723W        W80449  40.510   7.748  14.112
 8724W        W80450  25.522  29.216  11.554
 8725W        W80451  17.215  36.307  14.922
 8726W        W80452  17.836  22.228  11.048
 8727W        W80453  39.494  36.817   3.120
 8728W        W80454   5.202  32.933   4.341
 8729W        W80455  39.030  43.333  14.784
 8730W        W80456  37.336  39.893  13.318
 8731W        W80457  30.114  27.501   1.417
 8732W        W80458  25.228   9.268  10.566
 8733W        W80459  28.895  37.046   1.319
 8734W        W80460   3.461  11.743   4.576
 8735W        W80461   4.420  14.235   3.567
 8736W        W80462   4.896  18.752   4.371
 8737W        W80463   9.894  24.470  10.819
 8738W        W80464  23.732  21.238  12.470
 8739W        W80465  37.080  20.583   1.264
 8740W        W80466  35.061  43.949   1.374
 8741W        W80467  23.777  12.559   5.027
 8742W        W80468  42.817   4.337  10.632
 8743W        W80469  13.118  33.620  11.024
 8744W        W80470  13.174  43.739  14.881
 8745W        W80471   5.670   2.476   2.313
 8746W        W80472  42.063  12.561   2.256
 8747W        W80473  27.989   8.580  11.551
 8748W        W80474  22.588  33.474   3.615
 8749W        W80475  29.189   8.186  13.018
 8750W        W80476  44.018   7.089  12.619
 8751W        W80477  15.737  27.429  13.549
 8752W        W80478   2.067  29.786  10.055
 8753W        W80479  29.774   6.368   0.946
 8754W        W80480  31.588   0.193  13.387
 8755W        W80481  36.979  39.410  13.451
 8756W        W80482  18.334   4.195   0.520
 8757W        W80483   2.215  13.068  11.578
 8758W        W80484  20.748  28.466   2.866
 8759W        W80485  42.439  20.012   3.342
 8760W        W80486   1.143  44.221   1.452
 8761W        W80487  27.072  39.134   1.871
 8762W        W80488  13.714   6.824   4.227
 8763W        W80489  40.629   1.202  11.127
 8764W        W80490  30.551  44.202   0.472
 8765W        W80491  35.093   6.133   1.855
 8766W        W80492   9.878  35.434  13.022
 8767W        W80493  19.714  27.595  11.509
 8768W        W80494  19.983  21.723  13.389
 8769W        W80495  38.009  17.130   0.688
 8770W        W80496  23.028  14.211  14.458
 8771W        W80497   8.683  21.178   2.648
 8772W        W80498  10.303  37.023   3.207
 8773W        W80499  42.445  20.497   4.213
 8774W        W80500  32.336  23.554   4.668
 8775W        W80501  35.071  34.131  10.691
 8776W        W80502  20.737   0.907   2.709
 8777W        W80503  39.469  24.688  11.532
 8778W        W80504  11.669  34.890  10.176
 8779W        W80505  36.399  34.572   2.673
 8780W        W80506  33.082   0.428   3.951
 8781W        W80507  34.036  25.852  13.790
 8782W        W80508   5.497  41.351   3.640
 8783W        W80509  43.327  33.450   3.639
 8784W        W80510  28.605  13.678   3.803
 8785W        W80511   6.420  17.100  13.571
 8786W        W80512   5.294   4.002   3.985
 8787W        W80513  27.194   5.880   4.704
 8788W        W80514   3.211  16.627   4.143
 8789W        W80515  11.610  19.620   4.043
 8790W        W80516  28.043   5.690   3.684
 8791W        W80517  12.314   3.304   4.723
 8792W        W80518   7.832   4.830   1.686
 8793W        W80519  31.182  38.363   4.212
 8794W        W80520  27.144  40.843  14.281
 8795W        W80521   4.973  31.444  12.982
 8796W        W80522  29.559  12.328  14.391
 8797W        W80523  17.022  36.425  14.440
 8798W        W80524  31.021   3.139  10.552
 8799W        W80525  15.726  20.046   5.094
 8800W        W80526  19.221  35.083  11.617
 8801W        W80527  12.251  17.107   1.947
 8802W        W80528  39.340  26.950  14.248
 8803W        W80529  43.451  33.137  13.703
 8804W        W80530  22.449  21.446  13.549
 8805W        W80531  36.981  42.104  12.603
 8806W        W80532  22.467  27.534   3.458
 8807W        W80533  42.822  18.112   4.808
 8808W        W80534  18.331   2.081  10.229
 8809W        W80535  34.980  10.406  10.655
 8810W        W80536  24.479  28.984  10.679
 8811W        W80537  35.544  33.838   1.619
 8812W        W80538   6.908  13.374  12.095
 8813W        W80539  27.721  30.622   4.886
 8814W        W80540  38.091  35.154  12.653
 8815W        W80541  10.380   3.327   2.703
 8816W        W80542  17.031  39.101  12.758
 8817W        W80543  10.886   9.796   3.272
 8818W        W80544  10.821  28.191  12.976
 8819W        W80545  10.449  10.661   2.942
 8820W        W80546   4.715  42.020   4.669
 8821W        W80547   0.320  30.458  14.917
 8822W        W80548  38.602  22.142   4.354
 8823W        W80549   6.306  15.318   0.987
 8824W        W80550  24.062  22.032   1.294
 8825W        W80551  38.132  41.898   2.314
 8826W        W80552  12.758  22.552   3.250
 8827W        W80553  19.235  11.389  10.789
 8828W        W80554   4.897  31.088  12.395
 8829W        W80555  15.585  15.312  13.509
 8830W        W80556  40.970  10.763  14.388
 8831W        W80557  28.919  13.811  14.227
 8832W        W80558  12.372  26.767  12.015
 8833W        W80559  38.828   4.894   3.228
 8834W        W80560  22.678  21.462   2.419
 8835W        W80561  11.245  44.538  13.862
 8836W        W80562   2.514  28.521  14.975
 8837W        W80563  18.665  36.799  13.048
 8838W        W80564  44.143  21.217  13.026
 8839W        W80565   3.374  34.639  13.318
 8840W        W80566  42.575  26.633   0.975
 8841W        W80567  35.819  27.600   0.466
 8842W        W80568   9.873  38.842  12.028
 8843W        W80569   2.206   9.075   3.740
 8844W        W80570  13.081  22.559  12.579
 8845W        W80571  32.521   9.456  13.798
 8846W        W80572  40.261  33.376   3.183
 8847W        W80573  32.047  16.297   2.867
 8848W        W80574   2.857  42.380  14.321
 8849W        W80575  20.576  35.395   3.561
 8850W        W80576   3.897  20.831  10.717
 8851W        W80577  31.172  30.790  11.654
 8852W        W80578  34.617   0.448   4.651
 8853W        W80579   7.663   7.693   3.433
 8854W        W80580  36.008  32.956   1.168
 8855W        W80581  43.329   8.489  11.162
 8856W        W80582  25.463  32.391   1.743
 8857W        W80583  34.516  36.801   1.015
 8858W        W80584  37.044  27.946   4.155
 8859W        W80585  25.561  20.264   3.793
 8860W        W80586   7.136   7.035  13.338
 8861W        W80587  38.818  29.083   3.161
 8862W        W80588  26.444   3.836   3.586
 8863W        W80589  26.408   8.333  10.754
 8864W        W80590  38.506  38.033  11.436
 8865W        W80591  42.430  23.334  12.818
 8866W        W80592  23.040  17.821  13.431
 8867W        W80593   4.272  34.919   1.091
 8868W        W80594   0.764  16.197  12.103
 8869W        W80595   8.707  37.692   1.291
 8870W        W80596  16.084   3.628  11.041
 8871W        W80597   6.929  37.305  12.359
 8872W        W80598  31.483  24.924  13.365
 8873W        W80599  32.054   0.689  13.255
 8874W        W80600  19.540  24.036  10.473
 8875W        W80601  37.991   4.735   4.565
 8876W        W80602  13.258   3.293  14.851
 8877W        W80603  32.138  26.640  14.958
 8878W        W80604   4.252   2.550   1.208
 8879W        W80605  38.858  41.444   5.048
 8880W        W80606  26.424  19.094   1.203
 8881W        W80607  35.651  14.006   4.860
 8882W        W80608   9.437  22.957   2.375
 8883W        W80609  25.604  21.719   2.215
 8884W        W80610  10.529  41.497  14.771
 8885W        W80611  43.627  22.067   2.361
 8886W        W80612   1.292  44.835  14.345
 8887W        W80613  32.298   4.801  10.750
 8888W        W80614  15.452   8.956   4.960
 8889W        W80615  29.418  20.581  13.389
 8890W        W80616  20.566   4.919  11.963
 8891W        W80617  18.231   5.043   2.327
 8892W        W80618  41.029  22.330   2.670
 8893W        W80619  40.776  37.722   4.926
 8894W        W80620   4.271   5.276  14.184
 8895W        W80621   2.311  38.862   3.715
 8896W        W80622  29.922  20.556  12.524
 8897W        W80623  14.641  31.409  11.911
 8898W        W80624   2.764  22.321  14.303
 8899W        W80625  15.012  39.114  14.791
 8900W        W80626  44.780  23.069   2.919
 8901W        W80627  24.816  44.553  13.908
 8902W        W80628  19.056  20.464  11.470
 8903W        W80629  36.989  33.450  13.557
 8904W        W80630  44.272  24.056   5.088
 8905W        W80631  30.332  39.024   3.332
 8906W        W80632  44.329  42.936  11.557
 8907W        W80633   0.795  20.574  13.147
 8908W        W80634   5.664   7.006  10.351
 8909W        W80635  23.278  23.923   0.236
 8910W        W80636  31.278  17.597  10.420
 8911W        W80637  20.138  23.664   2.260
 8912W        W80638   9.692  33.167   1.346
 8913W        W80639  28.895  34.971  14.002
 8914W        W80640   6.013  17.050   5.186
 8915W        W80641  12.287  44.952   3.543
 8916W        W80642   0.987  11.560   0.274
 8917W        W80643  26.741  21.779  13.871
 8918W        W80644  16.137   8.765   3.292
 8919W        W80645  10.308  26.857   0.244
 8920W        W80646  36.168  39.214  14.032
 8921W        W80647  36.424  31.542   2.789
 8922W        W80648   1.760  13.714   1.702
 8923W        W80649   0.232  29.489  11.557
 8924W        W80650  40.720  34.099  14.946
 8925W        W80651  30.969  18.345  12.540
 8926W        W80652   6.011  34.154   3.833
 8927W        W80653  36.392   3.461   5.025
 8928W        W80654   5.747   3.073   5.079
 8929W        W80655  11.648  29.873  13.166
 8930W        W80656  20.046  41.964   0.735
 8931W        W80657  32.607  14.282  10.661
 8932W        W80658  31.873  30.660   0.720
 8933W        W80659  38.322   6.678  11.577
 8934W        W80660  14.092  20.978   1.191
 8935W        W80661  15.914  28.454  12.728
 8936W        W80662   6.722  23.285  14.528
 8937W        W80663  30.569   4.315   1.663
 8938W        W80664   4.654  29.412   4.142
 8939W        W80665  26.885  12.198  11.595
 8940W        W80666   3.010   6.217   0.908
 8941W        W80667  39.511  35.153   1.855
 8942W        W80668   9.939  32.241  11.570
 8943W        W80669  26.218  15.703   3.099
 8944W        W80670  29.375   8.161  11.963
 8945W        W80671  25.201  17.528   0.347
 8946W        W80672   7.782  29.957   2.160
 8947W        W80673  19.096  40.742  13.550
 8948W        W80674  26.665  11.314   0.772
 8949W        W80675   4.950  42.071  14.487
 8950W        W80676  42.380  23.697  14.665
 8951W        W80677  21.767  11.259   1.436
 8952W        W80678  14.449  31.616  14.470
 8953W        W80679  10.165  29.956   0.002
 8954W        W80680  15.281  20.675  13.328
 8955W        W80681  16.374  18.220   2.662
 8956W        W80682  33.968  10.681  14.550
 8957W        W80683  38.817  34.305   0.835
 8958W        W80684  38.327  17.717  13.487
 8959W        W80685   9.736  16.517  14.248
 8960W        W80686  14.284   3.192  12.763
 8961W        W80687   6.376  41.994  14.208
 8962W        W80688   4.955  18.753  11.398
 8963W        W80689   9.156  12.303  13.582
 8964W        W80690  20.766  31.595  13.816
 8965W        W80691  21.283  17.043   4.350
 8966W        W80692  32.158  16.123   4.627
 8967W        W80693  11.856  39.094   1.454
 8968W        W80694  34.263   2.205  14.727
 8969W        W80695  18.005  24.856  13.156
 8970W        W80696  26.196  44.904  12.790
 8971W        W80697  33.614  16.550  12.986
 8972W        W80698  12.147  25.254  13.001
 8973W        W80699   1.456   9.151  10.476
 8974W        W80700  18.782  25.187  11.588
 8975W        W80701  25.070  16.624   3.234
 8976W        W80702  42.278  32.795  11.960
 8977W        W80703  17.180  40.099   3.259
 8978W        W80704  36.475   5.846   1.775
 8979W        W80705   6.731  27.394  12.074
 8980W        W80706  37.398  43.819   2.698
 8981W        W80707  27.536  44.329   0.238
 8982W        W80708  19.623   4.294  14.065
 8983W        W80709  38.082  42.800   0.312
 8984W        W80710  29.182  19.309  14.029
 8985W        W80711  30.037  16.719   3.663
 8986W        W80712  14.663  22.169   0.290
 8987W        W80713  19.625  37.267  14.505
 8988W        W80714  19.709  35.419   4.533
 8989W        W80715   4.914  37.271  13.043
 8990W        W80716   0.582   1.818   2.755
 8991W        W80717  18.513   1.896  11.096
 8992W        W80718   7.575  14.241  14.870
 8993W        W80719  31.242  28.508   4.559
 8994W        W80720  28.390  31.927  11.599
 8995W        W80721  38.501  37.493  13.411
 8996W        W80722   8.111  29.408  11.464
 8997W        W80723  29.017  44.297  11.198
 8998W        W80724  44.381  18.375   5.128
 8999W        W80725  18.546  42.165   2.844
 9000W        W80726  17.302  10.313   3.205
 9001W        W80727  23.408  41.786  13.814
 9002W        W80728  31.067  17.733   1.133
 9003W        W80729  20.730   5.927   1.205
 9004W        W80730  36.734  14.604   1.827
 9005W        W80731  11.476   8.215  13.455
 9006W        W80732  26.066  43.754  11.579
 9007W        W80733  10.578  31.362  14.010
 9008W        W80734  30.087  44.544   0.431
 9009W        W80735  42.328  13.712  11.528
 9010W        W80736  37.930   8.486  12.565
 9011W        W80737  32.128  38.840   3.153
 9012W        W80738  25.134  12.362  14.296
 9013W        W80739  33.085  37.794  11.493
 9014W        W80740  13.967  39.011   9.939
 9015W        W80741   9.307  34.304   1.807
 9016W        W80742  27.161   2.242   3.618
 9017W        W80743  42.424  34.571   1.939
 9018W        W80744  43.314  21.299   2.829
 9019W        W80745  19.150  10.379   3.316
 9020W        W80746  30.996  25.453   3.725
 9021W        W80747  37.577  26.992   3.588
 9022W        W80748  26.611  23.942  13.306
 9023W        W80749  35.579  18.514  14.464
 9024W        W80750  34.019  25.678  14.301
 9025W        W80751  38.960  34.513  12.653
 9026W        W80752  30.340  42.904   2.273
 9027W        W80753   5.785  36.004  10.404
 9028W        W80754  23.077  24.985  11.166
 9029W        W80755  29.672  32.870  12.997
 9030W        W80756   7.378  32.329   3.177
 9031W        W80757  39.727  20.348  13.447
 9032W        W80758  13.045  20.351  14.336
 9033W        W80759  14.201  25.033  12.795
 9034W        W80760  15.593  36.840  12.384
 9035W        W80761  27.001  19.648   0.504
 9036W        W80762  14.810   8.330   4.191
 9037W        W80763  18.659  23.551   9.671
 9038W        W80764   1.281   1.051  13.900
 9039W        W80765  10.307  42.244   2.292
 9040W        W80766   2.695  27.591   4.170
 9041W        W80767   7.068  14.212   4.058
 9042W        W80768  25.463  35.401  12.168
 9043W        W80769  44.436   5.464   1.648
 9044W        W80770  39.760   6.905  14.813
 9045W        W80771  44.858  32.147   1.817
 9046W        W80772  40.398  39.750   3.229
 9047W        W80773  43.176  19.638   3.744
 9048W        W80774   6.875  14.871   4.640
 9049W        W80775   1.577  21.486   2.302
 9050W        W80776  20.786  23.060   3.332
 9051W        W80777   3.169  20.508  12.575
 9052W        W80778  15.451  32.133  10.021
 9053W        W80779  39.907  15.366   2.369
 9054W        W80780  25.663  37.006   1.071
 9055W        W80781  16.950  33.128  10.680
 9056W        W80782   2.740   3.196   0.002
 9057W        W80783  21.998  10.266   4.495
 9058W        W80784  12.718   0.958   3.243
 9059W        W80785  20.852  41.864   2.269
 9060W        W80786  33.894  34.819  12.300
 9061W        W80787  31.281  28.047  13.151
 9062W        W80788  26.552  36.891  13.537
 9063W        W80789   3.791   0.759   1.353
 9064W        W80790  25.241   6.481  11.737
 9065W        W80791  23.780   9.437  14.483
 9066W        W80792  31.375  17.781   4.745
 9067W        W80793  24.726  17.131   1.437
 9068W        W80794  12.595   5.785  11.727
 9069W        W80795  21.794   0.703   1.810
 9070W        W80796  16.834  35.567  13.320
 9071W        W80797  40.505  21.758   3.311
 9072W        W80798  10.688  27.701  12.604
 9073W        W80799  20.126   9.204  13.163
 9074W        W80800  18.040   1.800  13.568
 9075W        W80801  33.996  43.244   0.839
 9076W        W80802  17.704  29.945   2.804
 9077W        W80803   5.816  43.788   3.769
 9078W        W80804  32.195  32.356   4.691
 9079W        W80805  42.934   3.957   0.869
 9080W        W80806  39.025  28.790  13.019
 9081W        W80807  19.964  16.980  14.387
 9082W        W80808  26.131  40.615  13.536
 9083W        W80809   4.358   6.939   2.839
 9084W        W80810   6.028  28.902  11.598
 9085W        W80811  43.076  36.989  12.038
 9086W        W80812  37.392  16.796  11.220
 9087W        W80813  35.052  35.705  10.558
 9088W        W80814  27.601  39.438   0.464
 9089W        W80815  16.339  41.619   4.121
 9090W        W80816   6.753  22.767  12.886
 9091W        W80817   5.024  28.239  13.420
 9092W        W80818  20.817  31.421  10.330
 9093W        W80819  12.874  42.808  11.266
 9094W        W80820  23.077  27.617  10.638
 9095W        W80821  42.015  44.424  13.067
 9096W        W80822  41.439  43.280  11.556
 9097W        W80823  38.848  26.156   1.713
 9098W        W80824  35.175  24.151   3.768
 9099W        W80825  23.495  18.252  10.683
 9100W        W80826  25.445  28.078  11.552
 9101W        W80827  13.623  38.067   0.452
 9102W        W80828  24.084  12.836  12.678
 9103W        W80829  31.903  37.494  12.752
 9104W        W80830  18.295   0.457   0.239
 9105W        W80831   0.797  34.595  10.879
 9106W        W80832  29.988   4.251  13.212
 9107W        W80833  41.151   6.502   0.024
 9108W        W80834  41.289   2.961   1.848
 9109W        W80835   9.132  22.133  11.628
 9110W        W80836  19.733  39.789   3.686
 9111W        W80837  27.257  41.302   3.366
 9112W        W80838  13.972  12.379   2.288
 9113W        W80839   0.986  26.490   0.111
 9114W        W80840  42.063  18.235  11.217
 9115W        W80841  11.333   8.137   4.809
 9116W        W80842   7.810   7.611  14.438
 9117W        W80843   7.279  43.912   2.503
 9118W        W80844   9.322  13.894   4.204
 9119W        W80845   9.369  15.067   2.221
 9120W        W80846  27.981  15.474  12.437
 9121W        W80847  27.119   6.447  11.206
 9122W        W80848   4.398  22.967  12.090
 9123W        W80849  12.150  41.878  13.344
 9124W        W80850  13.893   6.355  11.252
 9125W        W80851  41.923  41.306  10.602
 9126W        W80852  33.166   2.245   1.394
 9127W        W80853   5.268  34.117   4.495
 9128W        W80854  43.046  22.079  13.806
 9129W        W80855  19.754  17.391   5.035
 9130W        W80856  13.662  32.351   0.320
 9131W        W80857  14.111  18.034   3.055
 9132W        W80858   6.526  40.322  12.641
 9133W        W80859  41.819  15.371   4.485
 9134W        W80860   8.911  37.868   1.735
 9135W        W80861   2.764  35.547   0.384
 9136W        W80862  13.620  29.374   4.778
 9137W        W80863   3.395   8.832  13.031
 9138W        W80864  37.154   6.343  14.330
 9139W        W80865  25.753   0.481  13.447
 9140W        W80866  38.218  24.548  13.399
 9141W        W80867   7.632   3.115  13.448
 9142W        W80868  18.012  12.286  11.849
 9143W        W80869   2.345  29.673  12.029
 9144W        W80870  40.484  40.935  13.943
 9145W        W80871  17.458  30.669  10.516
 9146W        W80872   6.936  39.098   4.231
 9147W        W80873  38.918   6.410  11.062
 9148W        W80874  37.310  19.759   1.899
 9149W        W80875  10.325  41.555  12.599
 9150W        W80876  40.837  39.021  14.366
 9151W        W80877  42.054  24.480   4.117
 9152W        W80878  31.578  40.524  14.962
 9153W        W80879  31.074  26.090   2.108
 9154W        W80880   3.457  17.293   1.375
 9155W        W80881  43.421   2.357   1.443
 9156W        W80882  23.685  18.716   1.895
 9157W        W80883  24.657  41.009   4.556
 9158W        W80884  11.713   6.338   2.964
 9159W        W80885  34.579  12.530  13.590
 9160W        W80886  41.287   4.007  11.973
 9161W        W80887  22.675  30.088   2.942
 9162W        W80888  13.221  33.980   1.788
 9163W        W80889  15.421  29.422   1.670
 9164W        W80890  16.525  27.157   2.631
 9165W        W80891  44.525  39.991   2.862
 9166W        W80892   3.498  17.403  14.154
 9167W        W80893  18.483  12.924  11.286
 9168W        W80894  37.522   4.789  11.703
 9169W        W80895  24.194  24.453   3.209
 9170W        W80896   3.815  41.555   0.699
 9171W        W80897  24.529   9.582  14.413
 9172W        W80898  22.549  33.375  11.625
 9173W        W80899  16.176  21.851   3.744
 9174W        W80900   4.899   5.662  12.989
 9175W        W80901   4.470   4.898   2.390
 9176W        W80902   7.343   4.302   9.615
 9177W        W80903  38.831  27.917  10.271
 9178W        W80904  28.080  29.579  14.062
 9179W        W80905  18.079  14.236  13.908
 9180W        W80906  32.570  36.113  13.344
 9181W        W80907  24.599   6.687   1.300
 9182W        W80908   0.236  16.227  12.213
 9183W        W80909  19.172   5.206   0.205
 9184W        W80910  15.714   0.874   3.597
 9185W        W80911  24.991  18.790   2.275
 9186W        W80912  24.920  13.772  10.932
 9187W        W80913  25.556  25.500   4.848
 9188W        W80914  36.996  30.216  12.180
 9189W        W80915  31.359  42.914   2.268
 9190W        W80916  41.999   2.376   1.545
 9191W        W80917  42.361  40.488  11.991
 9192W        W80918  20.021  22.018   1.181
 9193W        W80919  41.282  19.673   3.948
 9194W        W80920  20.713  30.062   3.300
 9195W        W80921   4.671  29.721   3.734
 9196W        W80922   9.675  26.373   0.373
 9197W        W80923  43.230   0.784  14.170
 9198W        W80924  11.089  12.240   4.886
 9199W        W80925  26.712   0.775  11.415
 9200W        W80926  40.935  19.291   0.687
 9201W        W80927  24.966  19.495   3.562
 9202W        W80928  39.509   7.729   1.473
 9203W        W80929  36.955  24.252  11.586
 9204W        W80930  17.309  32.540   2.879
 9205W        W80931  44.264  43.309   4.507
 9206W        W80932  36.654  41.826  14.014
 9207W        W80933  11.087  24.226  11.229
 9208W        W80934  41.715   4.305  13.644
 9209W        W80935  10.710  40.757  10.598
 9210W        W80936  14.895   4.574  14.188
 9211W        W80937  36.360  22.574  10.763
 9212W        W80938  44.426   1.180  14.474
 9213W        W80939  44.696  32.503   2.445
 9214W        W80940  32.495  34.625   2.132
 9215W        W80941  26.418  43.340  11.596
 9216W        W80942  30.409  25.013   3.242
 9217W        W80943   6.405  21.233  14.855
 9218W        W80944  39.922  40.001   4.529
 9219W        W80945  32.353   7.180  12.082
 9220W        W80946   4.158  39.859   4.556
 9221W        W80947  43.294   7.166   2.443
 9222W        W80948  17.051  36.860   4.067
 9223W        W80949  43.765  31.469   3.678
 9224W        W80950  41.823  42.165   0.322
 9225W        W80951  13.271  20.846  11.115
 9226W        W80952  19.629  24.485  13.909
 9227W        W80953   2.719   5.589   3.720
 9228W        W80954  26.146  33.559  12.601
 9229W        W80955   5.981   9.171  13.834
 9230W        W80956  39.076  23.249  13.239
 9231W        W80957  11.463  42.899  10.729
 9232W        W80958  17.209  10.752  14.856
 9233W        W80959  38.392  18.214  11.880
 9234W        W80960  43.509   3.959  13.481
 9235W        W80961  19.247   9.966  14.356
 9236W        W80962  29.738  26.562   1.336
 9237W        W80963  36.263   0.982   3.649
 9238W        W80964   6.874  22.406  14.508
 9239W        W80965  22.729  18.685  14.428
 9240W        W80966  41.999  38.803  12.441
 9241W        W80967  16.591   2.903   2.168
 9242W        W80968  24.041  18.447   0.245
 9243W        W80969  11.732  27.317   2.773
 9244W        W80970   8.811  13.293   4.639
 9245W        W80971  33.602   4.298  14.427
 9246W        W80972  35.886  31.809  13.438
 9247W        W80973   1.755   3.138  11.892
 9248W        W80974   3.369  20.466   3.130
 9249W        W80975  26.573  44.204   4.543
 9250W        W80976  24.697   5.651   2.309
 9251W        W80977  30.539  40.252  14.245
 9252W        W80978  18.132  10.776   0.355
 9253W        W80979  31.142   4.943  10.209
 9254W        W80980  38.573  32.104  12.116
 9255W        W80981  28.652   6.890  12.037
 9256W        W80982  28.614  13.199   3.161
 9257W        W80983   1.176   6.434  13.995
 9258W        W80984  16.123   7.946  13.112
 9259W        W80985   9.240  26.615   0.422
 9260W        W80986   6.964  32.115  11.061
 9261W        W80987  42.998  13.081  14.484
 9262W        W80988  38.995  36.449  10.394
 9263W        W80989   2.722   5.834   1.148
 9264W        W80990   2.415  21.814  12.924
 9265W        W80991   1.981  20.200  13.499
 9266W        W80992  43.714  40.735  14.921
 9267W        W80993  37.562  31.016  12.198
 9268W        W80994  16.880  39.966   3.654
 9269W        W80995  21.206   8.297   4.658
 9270W        W80996  23.452  20.076   0.769
 9271W        W80997  11.672  42.250   0.843
 9272W        W80998  43.406  28.066   3.791
 9273W        W80999  33.019   4.266  13.059
 9274W        W81000  44.301  17.586  11.572
 9275W        W81001  21.143  34.923  14.783
 9276W        W81002   9.907  39.376  12.056
 9277W        W81003  10.991  18.837  10.774
 9278W        W81004  44.986  18.276   2.245
 9279W        W81005  18.594  37.056  14.936
 9280W        W81006  10.814  23.961  13.289
 9281W        W81007   4.327   5.695  11.612
 9282W        W81008  41.884  15.124  11.131
 9283W        W81009  17.320  25.712   1.385
 9284W        W81010  23.050  28.262  14.561
 9285W        W81011  19.978  42.881  14.401
 9286W        W81012  35.639  11.085   2.918
 9287W        W81013   1.715  26.346   3.288
 9288W        W81014  26.463  39.837  13.445
 9289W        W81015  25.401  44.359   3.373
 9290W        W81016   1.873  21.828  14.374
 9291W        W81017  23.641  18.029   4.283
 9292W        W81018  25.300   9.192   1.381
 9293W        W81019   2.380  18.505  13.577
 9294W        W81020  43.791  10.594  12.752
 9295W        W81021  10.935   5.290  10.521
 9296W        W81022  41.250   7.449  10.975
 9297W        W81023  18.216  34.133  14.834
 9298W        W81024   1.020  36.431  14.864
 9299W        W81025   4.790  25.765  14.981
 9300W        W81026  19.032  41.875   0.753
 9301W        W81027  13.232  28.929  12.617
 9302W        W81028   1.805   6.661  12.750
 9303W        W81029  15.793  13.803   4.543
 9304W        W81030  29.920  24.184   5.046
 9305W        W81031  14.141  15.764   1.858
 9306W        W81032  26.939  18.700  12.075
 9307W        W81033  14.840  21.284  14.890
 9308W        W81034   4.023  37.510   1.388
 9309W        W81035  23.451   1.340   3.215
 9310W        W81036  38.411  22.779  13.965
 9311W        W81037  14.344  24.950  10.378
 9312W        W81038   3.466  43.951   4.287
 9313W        W81039  17.092  11.933  11.982
 9314W        W81040  29.678  13.673  14.923
 9315W        W81041  39.578  36.490   3.693
 9316W        W81042  40.720   5.866  13.415
 9317W        W81043  24.920  44.386  12.757
 9318W        W81044  33.860  26.034  11.681
 9319W        W81045  10.855   2.406   0.358
 9320W        W81046  11.288   9.538  12.574
 9321W        W81047  13.131  13.240   1.725
 9322W        W81048   9.354  25.808   4.727
 9323W        W81049  17.741  40.464   3.793
 9324W        W81050  19.661  39.065   0.358
 9325W        W81051  33.668  34.940   4.870
 9326W        W81052  38.586  17.574   0.573
 9327W        W81053  29.710   0.988  14.511
 9328W        W81054   4.495   6.022   5.040
 9329W        W81055   6.762  19.374   1.858
 9330W        W81056  11.417   3.926   3.194
 9331W        W81057  20.433  42.910  11.201
 9332W        W81058  31.549  37.676  10.516
 9333W        W81059  18.021   8.649  13.347
 9334W        W81060  13.284  26.706   1.837
 9335W        W81061  23.989  35.860  11.646
 9336W        W81062   1.295   1.012   3.170
 9337W        W81063  38.442  10.650   3.565
 9338W        W81064  41.743  40.933   1.797
 9339W        W81065  18.613  10.045   0.219
 9340W        W81066   6.841  23.051   2.218
 9341W        W81067  12.334  15.852  11.123
 9342W        W81068  40.326  28.956   3.271
 9343W        W81069  40.227  17.541  13.383
 9344W        W81070  30.910  39.441  13.023
 9345W        W81071  11.372  37.518  12.142
 9346W        W81072  23.976  23.619  10.665
 9347W        W81073  40.575  19.732  12.410
 9348W        W81074   9.806  16.580   1.935
 9349W        W81075   5.017  17.203  11.536
 9350W        W81076  17.081  17.566   2.699
 9351W        W81077  43.847  39.481   4.514
 9352W        W81078  10.429  10.884   1.930
 9353W        W81079  44.183  43.512  12.846
 9354W        W81080  19.040   8.684   1.406
 9355W        W81081   3.288   5.743   4.328
 9356W        W81082  41.800  44.712   0.289
 9357W        W81083  42.898  28.933  12.821
 9358W        W81084  13.413  27.686   2.058
 9359W        W81085  13.974  32.616  10.973
 9360W        W81086  22.412   8.101  12.942
 9361W        W81087  30.685   5.232   4.607
 9362W        W81088  26.331  41.825  13.038
 9363W        W81089  43.165  18.338   0.444
 9364W        W81090   6.089  38.792  14.120
 9365W        W81091  29.135  38.551  12.499
 9366W        W81092  14.794  12.044   4.201
 9367W        W81093  30.332  39.929  13.299
 9368W        W81094  15.967  21.632   0.498
 9369W        W81095  43.270  21.693   4.128
 9370W        W81096   8.472  35.957  11.478
 9371W        W81097  17.823  17.199  10.971
 9372W        W81098  26.084  32.097  13.590
 9373W        W81099  12.795  22.737   1.415
 9374W        W81100   1.886  24.218   1.461
 9375W        W81101  38.930  18.056   4.641
 9376W        W81102  13.757  41.761   2.315
 9377W        W81103  14.218  24.060  13.946
 9378W        W81104  25.631  10.941  13.013
 9379W        W81105  34.110  21.585  14.548
 9380W        W81106  39.497  36.833  12.031
 9381W        W81107   8.213  20.710  14.522
 9382W        W81108  15.533  39.564   0.792
 9383W        W81109  14.074  27.223   1.223
 9384W        W81110   6.866  41.276  11.731
 9385W        W81111  13.736  38.966   0.061
 9386W        W81112  11.233  26.758   3.225
 9387W        W81113  19.142  33.867   0.324
 9388W        W81114  26.678  37.838   1.365
 9389W        W81115   0.801   2.758  12.459
 9390W        W81116  17.065  31.095   3.864
 9391W        W81117  13.657  12.880   0.419
 9392W        W81118  18.747  31.909   1.798
 9393W        W81119  32.618   1.956  12.145
 9394W        W81120  44.436   0.506   0.532
 9395W        W81121  33.486  36.603   4.115
 9396W        W81122  15.110  24.218   2.836
 9397W        W81123  25.793  30.025  13.866
 9398W        W81124   2.951  18.104  11.916
 9399W        W81125  40.274   9.139  14.945
 9400W        W81126   9.739  24.583   4.613
 9401W        W81127  37.357  33.701  10.908
 9402W        W81128  13.667  21.142  11.902
 9403W        W81129  18.680  23.803   1.377
 9404W        W81130  17.585  16.123   4.058
 9405W        W81131  28.046  37.320   1.360
 9406W        W81132  32.040  22.517  14.381
 9407W        W81133   3.261  20.866   0.393
 9408W        W81134  44.440  27.931   2.942
 9409W        W81135  14.660  12.213  12.576
 9410W        W81136  42.296  14.860  11.374
 9411W        W81137   4.954  31.881  13.408
 9412W        W81138  35.404  26.112   4.165
 9413W        W81139  13.642  17.572  11.598
 9414W        W81140  10.216  20.647  12.791
 9415W        W81141  24.116   5.681  13.872
 9416W        W81142   4.382  14.646   4.258
 9417W        W81143  26.937  15.091   3.324
 9418W        W81144  19.065  20.572  14.825
 9419W        W81145  27.794  14.551   4.255
 9420W        W81146  10.182  42.327  11.928
 9421W        W81147  32.136   8.116   2.814
 9422W        W81148  26.705   5.680   3.262
 9423W        W81149  28.744  29.455   1.720
 9424W        W81150  35.953  30.480   4.476
 9425W        W81151  17.572   3.862   0.513
 9426W        W81152  19.690  36.107   0.407
 9427W        W81153  40.335  40.304   1.907
 9428W        W81154   2.342  23.531  12.386
 9429W        W81155   8.135   3.969  13.095
 9430W        W81156  17.941  28.523  14.367
 9431W        W81157  34.293  34.571   1.943
 9432W        W81158  24.090   2.308   0.794
 9433W        W81159   8.317  28.450  11.186
 9434W        W81160   3.971   1.852  10.773
 9435W        W81161  41.448   3.415  14.591
 9436W        W81162  37.443   1.051  11.080
 9437W        W81163   7.818  28.022  11.912
 9438W        W81164  15.578  18.064  12.463
 9439W        W81165  19.426   0.973  14.211
 9440W        W81166  13.361   7.406  14.810
 9441W        W81167  42.454  21.140  10.664
 9442W        W81168  28.377  29.161  11.927
 9443W        W81169  12.445  22.163  12.036
 9444W        W81170   7.825  16.799  11.597
 9445W        W81171  33.466   2.951  11.985
 9446W        W81172  40.860   3.974  11.179
 9447W        W81173  17.620   3.972   4.601
 9448W        W81174  34.364  12.945  14.486
 9449W        W81175  16.564  16.104  11.796
 9450W        W81176   1.623  18.702   4.250
 9451W        W81177  40.531  43.973  10.486
 9452W        W81178  16.950  22.997  14.281
 9453W        W81179   3.323  19.954   2.236
 9454W        W81180  35.025  35.606  13.333
 9455W        W81181  28.588  25.205  11.586
 9456W        W81182  20.086  21.540   1.912
 9457W        W81183  19.863  32.131   1.393
 9458W        W81184  37.749  36.794   1.242
 9459W        W81185   5.598  14.256   2.192
 9460W        W81186  39.912  11.697   2.818
 9461W        W81187  14.135   0.966  13.380
 9462W        W81188  44.916  31.179   1.792
 9463W        W81189  25.438  18.206   2.792
 9464W        W81190   8.413  27.694   2.861
 9465W        W81191   1.421  18.778  14.895
 9466W        W81192  25.737  25.510  12.469
 9467W        W81193  12.004  27.583  12.546
 9468W        W81194  25.662  44.419  11.995
 9469W        W81195  25.264  29.170  10.702
 9470W        W81196   8.119   1.361   1.784
 9471W        W81197  11.231  22.755   0.459
 9472W        W81198  44.273  39.266   3.810
 9473W        W81199  34.867   7.979   3.306
 9474W        W81200  11.679  42.973  12.044
 9475W        W81201  21.713  41.858   3.903
 9476W        W81202  29.553  36.599  11.600
 9477W        W81203  25.532  24.640  10.548
 9478W        W81204   6.491   2.420  14.100
 9479W        W81205  15.604   1.961   2.775
 9480W        W81206  40.563   5.355  13.534
 9481W        W81207  32.342   0.705  11.653
 9482W        W81208  35.331  22.577  10.646
 9483W        W81209  39.487  26.142  13.073
 9484W        W81210  35.193   4.751  13.794
 9485W        W81211  23.591  39.563   0.916
 9486W        W81212  31.726  13.402  13.081
 9487W        W81213   7.887   5.893   3.667
 9488W        W81214   9.124  22.619   0.538
 9489W        W81215  25.883   7.243   2.756
 9490W        W81216  25.660  13.745  12.586
 9491W        W81217  20.510  43.768   3.441
 9492W        W81218  19.291  34.977  13.418
 9493W        W81219   1.405  22.873   2.258
 9494W        W81220   7.906  29.528   4.735
 9495W        W81221  18.703  23.520   4.653
 9496W        W81222   8.666  14.087  13.891
 9497W        W81223  18.021   8.360  14.954
 9498W        W81224  23.129   5.182  14.283
 9499W        W81225  23.948  34.123   1.868
 9500W        W81226  25.585  30.766   2.694
 9501W        W81227  36.177  32.097   1.918
 9502W        W81228  30.413  30.031  13.963
 9503W        W81229  20.242  35.958  13.447
 9504W        W81230  11.536  21.725   2.346
 9505W        W81231   2.717   2.252   4.306
 9506W        W81232  12.902  24.804   3.652
 9507W        W81233  37.259  27.099   4.500
 9508W        W81234  12.557  27.126  14.902
 9509W        W81235  22.274  19.745  13.020
 9510W        W81236  44.861   4.739   4.704
 9511W        W81237  37.838   9.932   4.650
 9512W        W81238  11.990  42.806   4.572
 9513W        W81239  43.961  27.427   4.087
 9514W        W81240  37.051  13.153   0.362
 9515W        W81241   7.410  30.589   1.250
 9516W        W81242  19.344  39.463   2.461
 9517W        W81243  36.243   9.738   3.315
 9518W        W81244   6.195  18.188  11.043
 9519W        W81245  11.167  18.202   1.001
 9520W        W81246  32.512  27.497   3.200
 9521W        W81247  23.142   9.616   4.496
 9522W        W81248  37.545  41.246  11.481
 9523W        W81249  41.971  32.160  10.924
 9524W        W81250   7.156  28.738   3.352
 9525W        W81251  17.758  42.917  11.128
 9526W        W81252  25.400  31.772   0.814
 9527W        W81253   3.669  42.240   2.001
 9528W        W81254   1.342  26.134  12.812
 9529W        W81255  22.275  14.723   1.129
 9530W        W81256  21.550   2.090   2.308
 9531W        W81257   1.841   5.310  14.905
 9532W        W81258  36.366   9.130  14.988
 9533W        W81259  12.127  36.350  11.463
 9534W        W81260   8.348   2.254   2.387
 9535W        W81261  33.860  21.335   1.851
 9536W        W81262   0.796   6.199  14.287
 9537W        W81263  31.917  11.209   0.302
 9538W        W81264  26.077  22.532  14.887
 9539W        W81265  29.811  39.813  14.638
 9540W        W81266  15.578  30.887   4.130
 9541W        W81267  29.568  38.006   3.752
 9542W        W81268   7.465  14.887   9.642
 9543W        W81269  29.033  42.414   4.530
 9544W        W81270  24.958  15.797   2.791
 9545W        W81271  31.257  37.758   2.861
 9546W        W81272  42.068  43.744   3.588
 9547W        W81273  38.151  37.792  13.081
 9548W        W81274  24.217  18.065  13.969
 9549W        W81275   4.249  29.380   2.278
 9550W        W81276  18.770  29.935   0.831
 9551W        W81277  33.387  22.194   0.447
 9552W        W81278   3.131  21.822  11.198
 9553W        W81279  11.356  32.694   0.364
 9554W        W81280  31.726  31.590   4.073
 9555W        W81281  18.770  31.921   0.051
 9556W        W81282  35.150   7.729  14.397
 9557W        W81283  12.083  26.038  11.505
 9558W        W81284   5.554   4.184   0.982
 9559W        W81285  37.617  23.214  14.282
 9560W        W81286  18.248  21.572   1.108
 9561W        W81287  39.534  27.385   1.260
 9562W        W81288   6.795  32.161  12.946
 9563W        W81289  35.456  44.471   1.089
 9564W        W81290   7.289   6.849  14.488
 9565W        W81291  27.536  28.984  14.862
 9566W        W81292   5.801  33.075  12.042
 9567W        W81293  39.352  39.171  12.135
 9568W        W81294  39.231  34.944  12.770
 9569W        W81295  21.356  33.868   0.994
 9570W        W81296  16.130  36.923   9.734
 9571W        W81297  40.816   3.265  13.518
 9572W        W81298  44.377  15.332  12.155
 9573W        W81299  18.094  21.695  12.825
 9574W        W81300   0.282  22.782   1.931
 9575W        W81301  19.150  35.840  11.091
 9576W        W81302  24.596  29.951  10.367
 9577W        W81303  16.262  21.600   4.171
 9578W        W81304   7.342   6.995  12.454
 9579W        W81305  17.127  43.817   1.820
 9580W        W81306  25.440   2.261   1.404
 9581W        W81307  33.114   6.400  11.917
 9582W        W81308  18.386   4.940   1.357
 9583W        W81309  34.931   9.723   2.653
 9584W        W81310   5.391   5.663   3.292
 9585W        W81311  37.752   9.167  14.522
 9586W        W81312  31.052  26.656  13.822
 9587W        W81313  33.880  15.856   4.412
 9588W        W81314  19.031  37.457   3.819
 9589W        W81315  24.159  43.395  13.608
 9590W        W81316  40.759  20.305   2.730
 9591W        W81317  18.091  33.511  11.901
 9592W        W81318  10.745  19.290  10.582
 9593W        W81319  28.598  21.042   3.728
 9594W        W81320  25.942   4.450  12.060
 9595W        W81321  21.181  43.102  13.528
 9596W        W81322  26.095  37.138   3.241
 9597W        W81323  16.922   0.090  11.106
 9598W        W81324  11.446   4.306  11.006
 9599W        W81325   6.260   0.429   0.301
 9600W        W81326  26.736  39.115  11.327
 9601W        W81327  12.995   8.022  14.192
 9602W        W81328  12.592  38.356  12.457
 9603W        W81329  30.692  40.774  12.204
 9604W        W81330  25.565  26.384   2.774
 9605W        W81331  11.091  38.530   3.765
 9606W        W81332  39.353  39.316   0.805
 9607W        W81333  37.400  20.273   1.799
 9608W        W81334  40.444  42.887   9.974
 9609W        W81335  44.962  19.625   3.376
 9610W        W81336  23.675  20.665  12.162
 9611W        W81337  24.251  16.282  11.192
 9612W        W81338  17.760   4.543  11.971
 9613W        W81339  35.997   4.724   0.818
 9614W        W81340   6.412  32.106  13.336
 9615W        W81341   8.426  33.918   3.682
 9616W        W81342   9.639  36.909   3.736
 9617W        W81343   9.655  24.428   1.346
 9618W        W81344   9.465   5.340   3.288
 9619W        W81345   5.163   4.830  12.794
 9620W        W81346  18.704  37.335  13.034
 9621W        W81347  26.251  19.342  14.329
 9622W        W81348  25.276   5.764   0.448
 9623W        W81349  33.431   3.742   3.738
 9624W        W81350   2.027  11.251   3.132
 9625W        W81351   6.289  22.903   2.203
 9626W        W81352  23.572  30.421  11.489
 9627W        W81353  11.170  39.914  12.960
 9628W        W81354  27.138  10.727   3.614
 9629W        W81355  37.819  15.450   4.851
 9630W        W81356   3.874   8.688  13.138
 9631W        W81357  18.163  13.036  14.917
 9632W        W81358  33.566  15.583  11.170
 9633W        W81359  16.681  43.740   2.124
 9634W        W81360  16.099  32.074   1.651
 9635W        W81361  22.418   9.756  10.723
 9636W        W81362  19.228  19.762  12.509
 9637W        W81363  23.610  28.119   2.070
 9638W        W81364  38.142  31.089   3.956
 9639W        W81365  20.474  17.797  11.036
 9640W        W81366   9.230   7.419  12.910
 9641W        W81367  41.430  30.351   0.710
 9642W        W81368  21.241  16.470  12.737
 9643W        W81369  29.235  15.290   1.750
 9644W        W81370  44.370   9.216  12.887
 9645W        W81371  41.601  30.163   5.031
 9646W        W81372   8.414  32.459  10.538
 9647W        W81373   5.217  16.573  12.028
 9648W        W81374  16.417  19.189  11.606
 9649W        W81375  37.399  18.041  12.122
 9650W        W81376  30.490   1.037  11.975
 9651W        W81377  12.676  33.872  13.274
 9652W        W81378  33.828   4.458   3.311
 9653W        W81379  14.702  39.316   1.381
 9654W        W81380  25.483   4.301  12.902
 9655W        W81381  25.927  43.172  14.556
 9656W        W81382  36.462  28.512   3.699
 9657W        W81383  31.421  29.643   2.300
 9658W        W81384   9.768  19.613   4.545
 9659W        W81385  20.626  18.439   3.140
 9660W        W81386  43.235   2.896   4.551
 9661W        W81387   4.363  33.481   0.903
 9662W        W81388  27.117  21.278   2.877
 9663W        W81389   0.329  13.314   4.967
 9664W        W81390   7.650  37.390   3.081
 9665W        W81391   5.872   6.693  13.844
 9666W        W81392  39.405  20.569  13.794
 9667W        W81393  15.904  14.571  13.882
 9668W        W81394  18.732  23.276   1.341
 9669W        W81395   5.159   9.404   4.446
 9670W        W81396  39.349   1.910   4.111
 9671W        W81397  22.265  22.303   3.172
 9672W        W81398  12.116   1.664   4.925
 9673W        W81399  28.338   1.760   3.120
 9674W        W81400  32.972   1.375  11.476
 9675W        W81401   6.246  10.820   0.547
 9676W        W81402  10.886  42.524   1.376
 9677W        W81403  11.382  34.792   4.611
 9678W        W81404  23.139  32.774  14.915
 9679W        W81405  20.351   3.737   2.759
 9680W        W81406  17.290  37.340   5.210
 9681W        W81407  17.105  23.966  13.275
 9682W        W81408   6.451  43.400   3.993
 9683W        W81409  44.908  10.237  14.418
 9684W        W81410  37.593  18.490  10.989
 9685W        W81411  19.761  41.293   1.407
 9686W        W81412  36.603   7.641  10.397
 9687W        W81413  39.831  40.936   2.355
 9688W        W81414  24.560   3.276  10.248
 9689W        W81415  12.402  36.325  14.822
 9690W        W81416  29.107   8.741   2.776
 9691W        W81417  28.497  43.616   4.900
 9692W        W81418  44.381  17.987  11.222
 9693W        W81419  33.627  41.957  12.609
 9694W        W81420  21.049   7.232   1.834
 9695W        W81421  42.894  20.047   3.601
 9696W        W81422  39.233  14.124   0.342
 9697W        W81423  42.007  31.623  12.590
 9698W        W81424   7.403  40.979   4.093
 9699W        W81425   6.927  10.257  14.513
 9700W        W81426  27.642  19.758   1.344
 9701W        W81427  11.850  23.822   2.662
 9702W        W81428  24.570  39.378  10.710
 9703W        W81429   9.426  22.061  13.556
 9704W        W81430  30.673  22.360   3.703
 9705W        W81431   5.852  36.022  14.256
 9706W        W81432  33.898  24.495   1.223
 9707W        W81433  11.215   4.712  14.596
 9708W        W81434  31.955  14.305  11.144
 9709W        W81435  34.331  29.018  13.891
 9710W        W81436   1.393   3.887   0.509
 9711W        W81437  34.432  36.152   4.396
 9712W        W81438  23.566   0.385   4.218
 9713W        W81439  37.143  31.386  14.849
 9714W        W81440  37.465   3.321   3.513
 9715W        W81441   1.236  10.788   3.183
 9716W        W81442   1.574   4.302  13.090
 9717W        W81443  39.422  11.644   4.808
 9718W        W81444  36.613  32.499   3.486
 9719W        W81445   7.912  31.176   3.776
 9720W        W81446  21.333  35.510   1.878
 9721W        W81447  28.926   9.751  13.844
 9722W        W81448  21.726  43.747   0.043
 9723W        W81449  19.128  36.825  12.818
 9724W        W81450  18.819   0.501  11.983
 9725W        W81451  17.848  15.478  12.947
 9726W        W81452  31.406  13.811   3.263
 9727W        W81453  10.652  42.984   4.238
 9728W        W81454  39.563  22.175  12.431
 9729W        W81455  32.747   7.512   2.845
 9730W        W81456  42.461   1.716  14.980
 9731W        W81457  11.792  43.216   0.754
 9732W        W81458   4.123  14.271  14.897
 9733W        W81459  11.707  44.427  14.088
 9734W        W81460  34.471   8.367  11.978
 9735W        W81461  11.101   3.329  10.690
 9736W        W81462  26.055  18.108   0.772
 9737W        W81463   0.693  41.071   0.875
 9738W        W81464  13.208  29.743   5.073
 9739W        W81465  30.686  18.860   3.340
 9740W        W81466  30.659  24.218  10.158
 9741W        W81467  17.445  35.566  11.434
 9742W        W81468  37.452  20.662   2.181
 9743W        W81469   0.245   7.328  12.884
 9744W        W81470   6.928  31.663   1.827
 9745W        W81471  11.491  21.790   1.494
 9746W        W81472  42.796  27.687   4.759
 9747W        W81473  18.704  10.517   1.710
 9748W        W81474  33.485   5.973   4.065
 9749W        W81475   9.195  43.248   0.649
 9750W        W81476  26.495  10.867  12.284
 9751W        W81477   6.725  15.088   3.764
 9752W        W81478  20.018  44.472  13.539
 9753W        W81479  29.113  24.569  10.948
 9754W        W81480  21.255  23.961   3.690
 9755W        W81481   9.315   5.709  11.439
 9756W        W81482  27.766  43.348   4.152
 9757W        W81483  18.128   0.973   0.304
 9758W        W81484  19.076  42.397   3.310
 9759W        W81485   5.920  27.938  11.498
 9760W        W81486  44.759  24.504  11.207
 9761W        W81487  35.082   8.882  12.314
 9762W        W81488  10.674  23.568  14.052
 9763W        W81489  35.063  44.616  11.602
 9764W        W81490  16.280  15.713  11.586
 9765W        W81491  29.178  15.729   2.343
 9766W        W81492  21.564  13.520   0.050
 9767W        W81493  41.435   8.702   3.482
 9768W        W81494  29.129   9.119   0.327
 9769W        W81495  41.974  24.189  12.858
 9770W        W81496  39.825   2.353   0.280
 9771W        W81497   9.902  35.148  11.554
 9772W        W81498  27.502  25.285   0.804
 9773W        W81499  37.918  32.250  12.481
 9774W        W81500   3.761  18.715  14.837
 9775W        W81501   0.928  39.452   4.517
 9776W        W81502  43.309   2.170   2.301
 9777W        W81503   5.934   2.660   0.438
 9778W        W81504  44.323   7.588  13.542
 9779W        W81505  37.385  19.113   2.744
 9780W        W81506  19.633  32.140   0.305
 9781W        W81507  15.692  18.326  11.032
 9782W        W81508   2.983  15.719   4.334
 9783W        W81509  41.512  29.592   1.876
 9784W        W81510  16.743   9.767  10.593
 9785W        W81511  38.916  40.493  10.972
 9786W        W81512  23.648  25.835   5.285
 9787W        W81513  12.743  41.301  13.849
 9788W        W81514  14.381  14.563  14.765
 9789W        W81515   9.991  22.624  10.644
 9790W        W81516  36.115   2.876  12.967
 9791W        W81517  35.374  40.105   1.119
 9792W        W81518  29.546  44.231   4.148
 9793W        W81519  31.039  39.044  14.742
 9794W        W81520  16.715  41.968   4.284
 9795W        W81521  40.574  18.776   4.447
 9796W        W81522  16.135  23.061   0.375
 9797W        W81523   3.173  32.988  12.905
 9798W        W81524  31.469  14.839  13.040
 9799W        W81525  19.815  28.587  10.727
 9800W        W81526  27.945  18.605  14.408
 9801W        W81527   8.924  29.415  10.706
 9802W        W81528  25.590  16.932  10.285
 9803W        W81529  43.087  23.673   1.212
 9804W        W81530  36.073  34.190   4.368
 9805W        W81531  18.549   5.435   3.249
 9806W        W81532  24.188   1.518  11.519
 9807W        W81533  19.635  36.806   3.773
 9808W        W81534  25.482  20.236  10.698
 9809W        W81535  41.058   4.328  12.939
 9810W        W81536  20.282  16.581  11.598
 9811W        W81537   2.993  35.946  11.989
 9812W        W81538  41.664   8.025  11.522
 9813W        W81539  10.663  19.118   1.944
 9814W        W81540  34.955  27.214   0.991
 9815W        W81541   0.985  40.847  12.577
 9816W        W81542  43.071  44.460  11.554
 9817W        W81543  39.067   3.053   4.242
 9818W        W81544   8.287   7.104   1.218
 9819W        W81545  41.597  30.886  10.654
 9820W        W81546  22.773   4.843   3.746
 9821W        W81547  36.091  29.547  12.493
 9822W        W81548  34.621   8.313   3.785
 9823W        W81549  30.079  32.050  11.484
 9824W        W81550  18.989   1.312   3.779
 9825W        W81551   8.591  23.603   1.390
 9826W        W81552  37.072  41.564  12.830
 9827W        W81553  13.631  10.694   3.125
 9828W        W81554  22.754  16.297   3.390
 9829W        W81555  25.039  14.808   2.709
 9830W        W81556  21.209  31.164  10.592
 9831W        W81557   2.988  33.409  14.012
 9832W        W81558  28.600  44.462   4.368
 9833W        W81559  27.995   1.938   2.695
 9834W        W81560  39.293  12.500  11.033
 9835W        W81561  30.142  37.273  11.914
 9836W        W81562  34.899   1.419  11.826
 9837W        W81563   5.901  44.435  14.283
 9838W        W81564  33.470  30.282   4.591
 9839W        W81565   8.609  25.246  11.594
 9840W        W81566   6.675  36.429  13.787
 9841W        W81567  29.474  14.607  13.906
 9842W        W81568  39.389  13.721   1.407
 9843W        W81569   6.330   4.964   2.564
 9844W        W81570  33.554  13.658  12.863
 9845W        W81571  24.527  34.828   2.118
 9846W        W81572  25.960   1.184   1.128
 9847W        W81573   5.996  23.483   3.233
 9848W        W81574  34.457  12.856   0.453
 9849W        W81575  35.938  13.103   0.329
 9850W        W81576  23.208   2.394   4.516
 9851W        W81577  22.721  16.166   2.901
 9852W        W81578  22.930  36.164   1.253
 9853W        W81579  33.365  35.617   2.186
 9854W        W81580  14.220  41.069   2.182
 9855W        W81581   1.223  44.959  11.093
 9856W        W81582  26.668   2.516   1.874
 9857W        W81583  23.708   2.857   0.000
 9858W        W81584  10.772  12.677  12.531
 9859W        W81585  25.645  34.962  11.643
 9860W        W81586   3.963  17.656  14.231
 9861W        W81587  44.783  42.457   1.546
 9862W        W81588  14.393  16.539  13.747
 9863W        W81589  11.190  12.173   2.192
 9864W        W81590  13.794  23.074  10.412
 9865W        W81591   2.819  30.959  14.473
 9866W        W81592  42.257  36.612   0.669
 9867W        W81593  36.495   8.140  13.313
 9868W        W81594  30.948  21.824  11.994
 9869W        W81595  19.503  18.750  11.082
 9870W        W81596  34.383  17.565  14.810
 9871W        W81597  41.219  36.574   0.009
 9872W        W81598  42.030  18.632   1.805
 9873W        W81599  25.952  30.830  11.104
 9874W        W81600  43.045  43.675   3.172
 9875W        W81601   5.001  26.002  11.618
 9876W        W81602  25.568  25.057   4.560
 9877W        W81603  17.771   6.168  10.419
 9878W        W81604  27.875  19.734   1.831
 9879W        W81605  20.129  20.289  12.548
 9880W        W81606   1.913  37.128   2.844
 9881W        W81607   9.675   6.113  11.954
 9882W        W81608   4.219  25.079  12.870
 9883W        W81609   5.190  38.512  13.908
 9884W        W81610   5.320  31.032   0.029
 9885W        W81611  35.736   6.674  13.130
 9886W        W81612  32.426   0.603  12.580
 9887W        W81613  17.340  24.447   4.114
 9888W        W81614   3.286   0.789   1.548
 9889W        W81615   7.889  16.596   4.613
 9890W        W81616  43.779   2.239   0.673
 9891W        W81617  30.585   2.884   2.160
 9892W        W81618  19.679  16.240   3.616
 9893W        W81619   1.732  34.502  11.077
 9894W        W81620  18.848  14.757  11.217
 9895W        W81621   3.795  19.205   4.756
 9896W        W81622  28.038  21.507   2.181
 9897W        W81623  10.931  20.652  10.562
 9898W        W81624  15.792   1.828  10.443
 9899W        W81625  35.486   9.612  12.487
 9900W        W81626  43.459  26.955   2.004
 9901W        W81627  11.714  16.524  11.970
 9902W        W81628  31.377  28.694  10.688
 9903W        W81629   5.649  32.036  14.997
 9904W        W81630   4.156   7.623   1.732
 9905W        W81631  22.756  11.196   2.663
 9906W        W81632  20.276  36.816   3.271
 9907W        W81633  15.751  32.670   3.779
 9908W        W81634   8.400  24.124   1.450
 9909W        W81635  13.394  12.327  12.920
 9910W        W81636  37.789  42.028   4.633
 9911W        W81637  35.389  17.695  12.898
 9912W        W81638  33.048   2.655   2.205
 9913W        W81639  44.771   3.285   4.238
 9914W        W81640  24.715   9.503   2.642
 9915W        W81641   7.925   5.839   4.565
 9916W        W81642   5.211  25.524  11.462
 9917W        W81643  14.833   2.408  12.501
 9918W        W81644  10.163  16.757  14.417
 9919W        W81645  29.474  40.102   3.217
 9920W        W81646  36.476  24.243   0.936
 9921W        W81647  25.963  41.304  14.802
 9922W        W81648  24.254   7.399  13.778
 9923W        W81649  24.690  31.873   3.029
 9924W        W81650  22.272  29.904  12.656
 9925W        W81651  28.134  38.823  13.443
 9926W        W81652  34.940  35.616   4.971
 9927W        W81653  18.718  40.792   0.817
 9928W        W81654   4.172  20.802  13.319
 9929W        W81655   6.972  35.970  11.454
 9930W        W81656  22.899  41.972  11.101
 9931W        W81657  11.205   5.642  11.007
 9932W        W81658   4.587  21.714   1.781
 9933W        W81659  44.714  14.343   4.497
 9934W        W81660  34.652  44.105   0.437
 9935W        W81661  11.050  41.420  14.823
 9936W        W81662  17.501  42.950  10.623
 9937W        W81663  33.966  25.385   1.501
 9938W        W81664  44.005  13.803   2.265
 9939W        W81665  28.404  19.759   1.837
 9940W        W81666  10.930  13.573   4.740
 9941W        W81667  33.488  20.989   1.699
 9942W        W81668   0.275  24.208  14.753
 9943W        W81669  12.809   4.181   3.792
 9944W        W81670  12.804   9.955  11.424
 9945W        W81671  22.303  24.418   4.258
 9946W        W81672   8.440  40.940   0.387
 9947W        W81673   1.565  26.563   2.509
 9948W        W81674  42.774  36.995  10.738
 9949W        W81675  17.934  30.844  10.616
 9950W        W81676  32.288  19.558   4.472
 9951W        W81677  41.009   0.528  12.864
 9952W        W81678  10.157  29.470  12.278
 9953W        W81679  11.477  40.698  10.939
 9954W        W81680  24.248  22.423   0.028
 9955W        W81681  27.335  21.233   3.381
 9956W        W81682  26.988   0.925   1.398
 9957W        W81683  13.797  42.058  12.527
 9958W        W81684  43.857   6.868   3.113
 9959W        W81685  30.603  20.324   3.215
 9960W        W81686  24.924  25.739   2.756
 9961W        W81687   8.426   6.988   5.132
 9962W        W81688   5.897  15.650  14.245
 9963W        W81689  27.455  27.030   1.274
 9964W        W81690   5.638  28.634   1.799
 9965W        W81691  23.698  13.276  14.865
 9966W        W81692  43.843  26.707  13.943
 9967W        W81693  41.389   5.072   2.448
 9968W        W81694   4.987  18.277   0.940
 9969W        W81695  15.730  42.303  13.197
 9970W        W81696  23.142  36.569  14.499
 9971W        W81697  22.123  42.999   0.424
 9972W        W81698  27.718  27.822   2.396
 9973W        W81699  12.941  16.141  14.353
 9974W        W81700  40.605  30.431   0.906
 9975W        W81701  13.002  12.547   2.227
 9976W        W81702  41.648  10.170   1.826
 9977W        W81703  24.099  41.858  10.527
 9978W        W81704  29.636  18.351   4.208
 9979W        W81705  10.321   7.829  11.499
 9980W        W81706  15.605  19.361   0.788
 9981W        W81707  14.875   3.504  11.533
 9982W        W81708  37.474   2.843   1.303
 9983W        W81709   9.375  40.898   0.326
 9984W        W81710   0.061   8.708  11.726
 9985W        W81711   6.935  37.253   4.136
 9986W        W81712  38.596  13.398  11.422
 9987W        W81713  32.617   2.282  13.476
 9988W        W81714  10.346   1.403   0.968
 9989W        W81715  11.076   9.227  12.930
 9990W        W81716  31.468  42.140   5.776
 9991W        W81717   0.513  19.229  12.453
 9992W        W81718   4.843  36.345  12.705
 9993W        W81719  15.830  44.997   3.729
 9994W        W81720   3.999  29.067   2.687
 9995W        W81721  15.180   3.221   3.246
 9996W        W81722  21.079  18.020   2.851
 9997W        W81723   5.923   8.438   1.315
 9998W        W81724  37.953  32.523  11.577
 9999W        W81725  15.594   3.370  12.436
10000W        W81726  10.702  35.525  11.450
10001W        W81727   7.690  21.660  12.005
10002W        W81728  34.322  31.118   3.283
10003W        W81729  22.267   7.565  14.011
10004W        W81730   4.175  31.446   1.784
10005W        W81731   8.822  19.262   2.668
10006W        W81732  34.719  16.061   2.301
10007W        W81733  13.278  17.577   4.182
10008W        W81734  34.444  31.686  12.429
10009W        W81735  16.614  29.948  11.158
10010W        W81736  37.412  42.126   5.123
10011W        W81737  40.049  12.780   0.828
10012W        W81738  12.228  34.096  10.342
10013W        W81739  35.013   9.102   1.676
10014W        W81740   3.201  21.163  11.910
10015W        W81741  21.618   6.735   2.893
10016W        W81742  21.412  31.532  12.975
10017W        W81743  14.837  20.300   4.282
10018W        W81744  30.488   8.399  13.473
10019W        W81745   2.439   0.381  10.736
10020W        W81746  13.197   7.883   3.739
10021W        W81747  26.920  17.128   4.173
10022W        W81748  36.521  23.488  11.496
10023W        W81749  15.794  29.627  12.793
10024W        W81750   3.608  29.084   3.662
10025W        W81751  41.432  33.843  12.894
10026W        W81752   1.138   0.951   1.783
10027W        W81753  15.555  11.197  11.662
10028W        W81754  24.576  38.242   3.781
10029W        W81755  34.895  17.856  14.102
10030W        W81756   1.200  15.744  11.233
10031W        W81757  17.157   9.142   2.217
10032W        W81758  21.021   0.234  11.494
10033W        W81759  25.294  20.126  14.410
10034W        W81760  39.508  19.619  12.851
10035W        W81761  31.907  35.272   5.013
10036W        W81762   2.289  40.408  10.680
10037W        W81763  27.192   5.179   0.828
10038W        W81764   6.957  15.916   1.310
10039W        W81765  14.225   5.857  10.445
10040W        W81766   9.695  40.263   0.921
10041W        W81767  37.412  24.771   1.288
10042W        W81768   4.190  24.729  12.453
10043W        W81769  15.689  27.044   0.987
10044W        W81770  20.553  39.792   2.693
10045W        W81771   6.953  36.018  12.847
10046W        W81772  13.690  26.181   4.242
10047W        W81773  29.707   3.924   0.778
10048W        W81774  33.851  10.757  11.997
10049W        W81775   8.862  40.702  13.541
10050W        W81776  31.014  44.736   3.613
10051W        W81777  22.598   1.734   1.498
10052W        W81778  20.201  13.712  13.132
10053W        W81779  40.325  14.335   4.192
10054W        W81780  19.819  17.841  12.495
10055W        W81781   1.066   2.790   1.373
10056W        W81782  22.703  38.618  10.964
10057W        W81783   4.696  15.332   2.260
10058W        W81784  44.480  15.208  12.640
10059W        W81785  34.984  35.053   4.127
10060W        W81786  19.763  21.807   3.704
10061W        W81787   7.642   2.818  11.425
10062W        W81788  15.251  25.018   3.842
10063W        W81789  38.501  20.435   3.131
10064W        W81790  13.753  10.740   4.587
10065W        W81791  32.675  34.528   1.217
10066W        W81792   5.735  18.757   0.698
10067W        W81793  11.759  37.005   0.839
10068W        W81794   1.440  20.919  12.550
10069W        W81795  32.026  42.942  10.417
10070W        W81796   5.285   4.415   0.530
10071W        W81797   0.441  33.905  11.035
10072W        W81798   1.326   4.969  12.899
10073W        W81799  12.823  17.159  14.967
10074W        W81800  36.424  39.535   3.840
10075W        W81801   2.192   4.834   0.726
10076W        W81802   6.598   3.772   0.828
10077W        W81803   5.170  43.914  12.840
10078W        W81804   0.333  43.227   4.184
10079W        W81805  32.468  38.389  13.177
10080W        W81806  15.240  11.656  14.302
10081W        W81807  17.387   4.270   1.207
10082W        W81808  30.289   4.861   4.660
10083W        W81809  26.512  29.351  14.757
10084W        W81810   3.960  28.115   0.831
10085W        W81811   9.725  36.945  14.782
10086W        W81812  13.083  20.026  10.710
10087W        W81813  30.712  44.423  11.030
10088W        W81814  24.696  36.488   3.474
10089W        W81815  44.898  10.251   1.991
10090W        W81816  19.089  15.967   2.232
10091W        W81817  19.246   4.346   1.898
10092W        W81818  39.015  33.615   0.260
10093W        W81819  15.271  19.993   4.388
10094W        W81820  11.597  44.285   2.366
10095W        W81821  28.637  24.927  12.481
10096W        W81822  41.297  44.666  11.476
10097W        W81823   8.194  24.777   3.716
10098W        W81824   0.356  20.463  13.955
10099W        W81825  26.655   9.036  10.506
10100W        W81826  10.204   1.745   1.366
10101W        W81827   8.614  13.388   4.170
10102W        W81828  29.077  16.270  11.363
10103W        W81829  44.274   1.956  12.065
10104W        W81830  25.319  43.155   3.781
10105W        W81831  16.289  12.201   0.991
10106W        W81832  17.685  41.754   0.424
10107W        W81833   9.300   6.498   2.774
10108W        W81834  39.326  40.599   0.516
10109W        W81835  21.603  10.648  12.430
10110W        W81836  14.030  32.948   4.102
10111W        W81837   1.374   4.801   3.521
10112W        W81838  22.194  30.948   1.811
10113W        W81839  41.805  41.530  11.547
10114W        W81840  36.457  12.511   4.887
10115W        W81841  30.359  19.556   4.764
10116W        W81842  20.204  24.245  14.016
10117W        W81843   4.925  33.002  14.272
10118W        W81844  18.569   1.907  13.486
10119W        W81845   8.831  34.415   1.600
10120W        W81846  31.694  28.206  13.642
10121W        W81847  35.835  19.672  13.278
10122W        W81848  22.293   9.966  12.934
10123W        W81849  22.661  31.885  14.672
10124W        W81850  16.213  30.642  11.980
10125W        W81851  22.440  33.998   1.832
10126W        W81852  32.398  23.928   0.878
10127W        W81853  23.236   8.761   3.840
10128W        W81854  36.988  21.039   2.892
10129W        W81855   3.055  25.505   4.196
10130W        W81856  22.440   7.475   0.282
10131W        W81857  28.173  30.289  11.285
10132W        W81858  38.059  42.777   1.209
10133W        W81859  36.905  26.677   2.405
10134W        W81860  40.670  39.626   3.769
10135W        W81861  25.219   7.772  14.997
10136W        W81862   1.628  26.857   3.279
10137W        W81863  16.370  43.745  14.504
10138W        W81864  38.795  41.959  14.498
10139W        W81865  12.715  11.790  13.121
10140W        W81866  35.117  22.920   2.328
10141W        W81867  12.549  23.077  12.678
10142W        W81868  26.095  28.142  13.468
10143W        W81869  21.828  29.428  13.343
10144W        W81870  44.837   1.262   4.758
10145W        W81871  21.432  13.650  13.763
10146W        W81872  35.098  27.581   1.775
10147W        W81873  37.480  13.411  12.526
10148W        W81874  43.979   5.870  11.508
10149W        W81875  19.712  40.133  13.020
10150W        W81876  44.380  22.547  11.680
10151W        W81877  15.046  39.970  10.516
10152W        W81878   5.953  37.375  13.949
10153W        W81879  36.479   2.284   4.982
10154W        W81880   3.380  33.901  12.567
10155W        W81881  30.492   7.786   3.673
10156W        W81882   1.912  39.018  14.311
10157W        W81883  39.916  38.362   0.247
10158W        W81884  25.551  36.026   2.283
10159W        W81885  28.187  27.115   4.902
10160W        W81886  28.996  41.997   0.389
10161W        W81887  33.059  14.604   2.755
10162W        W81888  14.492   7.814  13.345
10163W        W81889  29.701  34.918  12.993
10164W        W81890  16.870  43.597  14.391
10165W        W81891  25.673  31.365  14.847
10166W        W81892  44.087  24.273   1.737
10167W        W81893  27.529  42.181  12.078
10168W        W81894  42.064  43.912   4.110
10169W        W81895  16.274  15.829  12.105
10170W        W81896   8.163  31.042   1.897
10171W        W81897   2.286  43.931   1.810
10172W        W81898   7.970   3.368   5.030
10173W        W81899   1.015   8.644  12.892
10174W        W81900  23.081  12.629  12.888
10175W        W81901  38.382  42.200  12.326
10176W        W81902   8.781  19.542   4.610
10177W        W81903  13.245  16.863  14.819
10178W        W81904  43.503  10.390   0.922
10179W        W81905  30.032   4.871   3.342
10180W        W81906  12.602  30.118   3.090
10181W        W81907   2.890  42.927   2.764
10182W        W81908  11.180  42.047   4.828
10183W        W81909  37.127  26.911  14.494
10184W        W81910  28.963   5.640  12.162
10185W        W81911  27.490  40.153  14.788
10186W        W81912  27.688  34.545  14.469
10187W        W81913  12.293  21.827   3.712
10188W        W81914  35.997  44.775   2.770
10189W        W81915  19.267   1.994  13.587
10190W        W81916  33.658   5.401   0.908
10191W        W81917  19.463  41.960  11.968
10192W        W81918   1.812  44.797   2.649
10193W        W81919  20.543  37.010   2.106
10194W        W81920  28.631  10.422  10.393
10195W        W81921  43.585  21.985  13.042
10196W        W81922   7.683  44.802  12.466
10197W        W81923  43.220   7.902  14.806
10198W        W81924  42.562   1.315  10.950
10199W        W81925  10.126  17.112  13.854
10200W        W81926  10.124  27.030   2.694
10201W        W81927  33.415   9.034   9.882
10202W        W81928  32.920  27.201  12.511
10203W        W81929  12.267  10.631  13.809
10204W        W81930  28.847  15.310   3.126
10205W        W81931   8.427  44.031  10.685
10206W        W81932  26.530  16.562   0.412
10207W        W81933  38.570  16.074   4.100
10208W        W81934  42.417  30.734   2.698
10209W        W81935  43.080  38.888  12.976
10210W        W81936  21.533   6.971  10.511
10211W        W81937  41.699   6.035   4.647
10212W        W81938  10.431  38.028   1.895
10213W        W81939   9.860  21.572  13.783
10214W        W81940  10.579  31.609   2.272
10215W        W81941  10.859  10.335  11.122
10216W        W81942  31.774  13.712   0.028
10217W        W81943  18.836  20.121   0.868
10218W        W81944   2.978  26.578   4.654
10219W        W81945  10.704   9.099   2.688
10220W        W81946  13.946  29.629   1.394
10221W        W81947  10.405  13.705   2.754
10222W        W81948   6.629  37.773   2.060
10223W        W81949  33.827  26.394  10.924
10224W        W81950  16.151  29.903  13.089
10225W        W81951  33.647  18.129  10.195
10226W        W81952  36.578  30.864   2.318
10227W        W81953  15.273  12.877   3.229
10228W        W81954  33.323  12.779  14.446
10229W        W81955  29.414  44.910   3.601
10230W        W81956  29.005  11.703   3.232
10231W        W81957  23.302  27.515  11.116
10232W        W81958   6.867  41.039   2.347
10233W        W81959  35.764  43.883   0.009
10234W        W81960  38.546  23.559   3.637
10235W        W81961  40.377  37.114   0.012
10236W        W81962  38.347  42.215   3.254
10237W        W81963  12.402  23.721  12.839
10238W        W81964  27.834  17.717   2.577
10239W        W81965  34.014   6.092  14.937
10240W        W81966  37.376   8.142   0.481
10241W        W81967   7.279   6.647  14.992
10242W        W81968  41.558  39.380   0.736
10243W        W81969  21.715  28.724  12.877
10244W        W81970  15.576  33.993   0.278
10245W        W81971  16.341  12.387  14.801
10246W        W81972  29.708  15.727   2.276
10247W        W81973  10.829  44.073   4.230
10248W        W81974  38.653   6.924  13.446
10249W        W81975  21.054  24.009  10.682
10250W        W81976  35.832   0.703   0.409
10251W        W81977   5.748  27.573  13.213
10252W        W81978  40.122  38.349   1.868
10253W        W81979  38.974  18.657  10.463
10254W        W81980  12.410  14.223   0.193
10255W        W81981   8.082  30.930  12.117
10256W        W81982  20.128  30.285  10.184
10257W        W81983  21.071  34.397   2.699
10258W        W81984  33.017  38.881  11.629
10259W        W81985  24.401   5.526   4.580
10260W        W81986  40.582   5.218   0.436
10261W        W81987  27.020  43.814  12.568
10262W        W81988  36.744  11.779  14.929
10263W        W81989  18.515  35.659   4.703
10264W        W81990  16.689  33.149  11.971
10265W        W81991   2.858  31.027   1.952
10266W        W81992   0.874   8.859  14.565
10267W        W81993   3.691  39.529   0.413
10268W        W81994  36.095  40.543  11.586
10269W        W81995  13.205  15.829   0.089
10270W        W81996  25.214  12.791  11.114
10271W        W81997   2.299  38.499   4.848
10272W        W81998  21.398  10.751   4.032
10273W        W81999   6.374  21.180  12.453
10274W        W82000   8.865   8.194   3.857
10275W        W82001  43.987   7.925   0.937
10276W        W82002   2.246  15.019  10.690
10277W        W82003  14.345  38.382   5.559
10278W        W82004  33.496  39.761  14.915
10279W        W82005   5.441  40.505   3.546
10280W        W82006  25.649  16.095  14.224
10281W        W82007  18.799  17.587  12.286
10282W        W82008  44.530  12.990   1.851
10283W        W82009  13.574  10.298  12.315
10284W        W82010  23.944  19.777  14.505
10285W        W82011  13.732  26.527   1.987
10286W        W82012   7.830   6.122   2.259
10287W        W82013   3.801  22.703  13.052
10288W        W82014  10.183  40.704   9.894
10289W        W82015  10.947  22.991   3.198
10290W        W82016  13.938  25.311   0.474
10291W        W82017  15.250  16.706  11.432
10292W        W82018  14.818  31.733  13.667
10293W        W82019  16.629  27.878  12.709
10294W        W82020  12.843  36.924   2.223
10295W        W82021   8.944  11.633   1.956
10296W        W82022  43.321  37.345   4.057
10297W        W82023  21.707   1.473  13.447
10298W        W82024  33.441  26.793   4.519
10299W        W82025  28.619  10.861   1.779
10300W        W82026   3.205  33.966  11.594
10301W        W82027   9.224  16.355   2.678
10302W        W82028  44.983  23.633  11.666
10303W        W82029  38.978  24.959  13.344
10304W        W82030  38.010  30.865   2.186
10305W        W82031  25.086  41.241  14.313
10306W        W82032  31.724  17.062   3.650
10307W        W82033  42.697   3.578  12.969
10308W        W82034  11.284  14.098   0.052
10309W        W82035  43.327  19.170  13.736
10310W        W82036  13.410  37.075   4.872
10311W        W82037  14.677  44.857  12.415
10312W        W82038   3.408  41.883   4.104
10313W        W82039   8.079  27.615   4.208
10314W        W82040  18.876   5.046   1.477
10315W        W82041  38.858   7.821   3.270
10316W        W82042   2.668  21.041  12.063
10317W        W82043  43.151  13.843  11.520
10318W        W82044  40.476   9.861  12.349
10319W        W82045  23.718  27.802   1.187
10320W        W82046  26.273  10.683   2.267
10321W        W82047  25.301  30.723  11.460
10322W        W82048  13.251  14.103   3.781
10323W        W82049  41.460  15.242   2.392
10324W        W82050  39.126  44.937  11.082
10325W        W82051   3.846  40.480  14.079
10326W        W82052   1.846   9.375  11.338
10327W        W82053  29.472   6.924  11.682
10328W        W82054  15.248  30.915   2.849
10329W        W82055  39.857  15.555   1.310
10330W        W82056  25.397  43.493  12.031
10331W        W82057  25.500  38.721   0.486
10332W        W82058  12.664   4.807  12.914
10333W        W82059  18.251  32.130   0.913
10334W        W82060   6.966  23.253   2.687
10335W        W82061   0.736  38.863  14.657
10336W        W82062  26.952  21.550   2.188
10337W        W82063  22.699  33.651  14.776
10338W        W82064  22.605  14.229  13.837
10339W        W82065  43.326   3.915   2.319
10340W        W82066  42.386  43.221  14.758
10341W        W82067  36.074  31.864  12.922
10342W        W82068  38.825  33.113   2.171
10343W        W82069   7.055  37.762  12.587
10344W        W82070  31.582  25.784  13.143
10345W        W82071  15.064  28.338  11.696
10346W        W82072  29.704  15.674  10.718
10347W        W82073  29.273  24.771   0.626
10348W        W82074  25.683  39.900   3.153
10349W        W82075  23.036  15.037  12.742
10350W        W82076  14.141  34.358  12.542
10351W        W82077  29.101  39.961   1.317
10352W        W82078  19.713  35.599   1.612
10353W        W82079  13.820  41.228  14.392
10354W        W82080  41.673  30.513  11.041
10355W        W82081   3.786   6.906   2.413
10356W        W82082  43.289  17.525   3.225
10357W        W82083  31.149  39.908  14.765
10358W        W82084  10.771  38.214   4.555
10359W        W82085   5.279   1.938   0.203
10360W        W82086  25.160  36.514  11.628
10361W        W82087   6.151   3.950  13.518
10362W        W82088  36.247  21.449  12.546
10363W        W82089  12.785   9.605  11.048
10364W        W82090  40.316  21.655   2.755
10365W        W82091  11.863   2.167   2.234
10366W        W82092  36.603  22.161   2.375
10367W        W82093   6.016  30.516   2.662
10368W        W82094  22.109   2.299   0.476
10369W        W82095  16.719  36.411   1.821
10370W        W82096   7.663   9.859   2.677
10371W        W82097  27.029  41.806   1.717
10372W        W82098  36.185   0.536  10.768
10373W        W82099   2.311   3.928   2.903
10374W        W82100   0.842  41.861   0.449
10375W        W82101  35.708   5.338  12.027
10376W        W82102   0.998  34.894   0.686
10377W        W82103  33.344  32.588   1.864
10378W        W82104   6.966  40.588  12.403
10379W        W82105  30.718   3.245  12.953
10380W        W82106   7.362  37.358   1.927
10381W        W82107  22.521  32.726   4.115
10382W        W82108   3.336  33.115  14.258
10383W        W82109  34.233  32.593   4.508
10384W        W82110  44.967  15.854  12.471
10385W        W82111  10.830  31.511   1.787
10386W        W82112  29.215  41.737  11.577
10387W        W82113  27.706  41.032  12.469
10388W        W82114  10.156  28.973  12.449
10389W        W82115  37.532   4.316  11.526
10390W        W82116  34.361  44.432   1.251
10391W        W82117  35.141  30.236  11.168
10392W        W82118  18.069  22.616  12.890
10393W        W82119  30.006  24.179   1.772
10394W        W82120  41.621  35.099   0.844
10395W        W82121  29.039  27.507  12.514
10396W        W82122  24.637  37.071   0.436
10397W        W82123  39.451  11.308   3.666
10398W        W82124  31.806  44.960  11.124
10399W        W82125   4.865  20.145  12.946
10400W        W82126  27.959  30.570  10.110
10401W        W82127   1.786  38.299  14.039
10402W        W82128  41.965  24.552   2.858
10403W        W82129  30.412   7.792  11.549
10404W        W82130   6.423  12.775  10.621
10405W        W82131  33.960  14.803  12.966
10406W        W82132   6.837  12.105   0.325
10407W        W82133   7.596   8.476   2.249
10408W        W82134  35.169  36.859  14.704
10409W        W82135   0.405  35.317   2.115
10410W        W82136  14.414  16.304  11.195
10411W        W82137   3.751   0.440  14.351
10412W        W82138  30.435  12.701   4.109
10413W        W82139   5.954  39.446  13.304
10414W        W82140  36.439  29.325   1.970
10415W        W82141   0.976  14.877  11.534
10416W        W82142  14.154  27.393  14.495
10417W        W82143  39.026   6.642  14.365
10418W        W82144  13.882  16.318  11.123
10419W        W82145  34.290  43.894  11.108
10420W        W82146   6.148  29.016  12.110
10421W        W82147  14.792  35.810  14.841
10422W        W82148  44.441  38.414  11.204
10423W        W82149  10.379  34.140  12.645
10424W        W82150  32.124  31.694  11.489
10425W        W82151  11.103   3.223  12.515
10426W        W82152  11.055  34.894  10.149
10427W        W82153  17.324   3.358   2.178
10428W        W82154   1.477   4.802   1.439
10429W        W82155  21.762  36.511   2.911
10430W        W82156  16.703  22.515  14.247
10431W        W82157  41.132  38.972   4.406
10432W        W82158   5.389  15.815  12.438
10433W        W82159  28.892  15.746   3.386
10434W        W82160  20.066  26.670  14.325
10435W        W82161  38.305  10.316  11.030
10436W        W82162  28.948   3.335  10.482
10437W        W82163   6.648   9.817   1.218
10438W        W82164  42.909  33.619   2.769
10439W        W82165  20.860   3.749   2.661
10440W        W82166   9.647  17.539   3.181
10441W        W82167  43.346  13.415  11.210
10442W        W82168   8.945  22.237  14.686
10443W        W82169  30.892  36.028  13.895
10444W        W82170   9.251  40.835   3.729
10445W        W82171  14.850  42.969  11.535
10446W        W82172  10.080   5.699  12.001
10447W        W82173   7.312  35.859  11.036
10448W        W82174  10.152  19.897   2.093
10449W        W82175  18.574  41.669   2.892
10450W        W82176   3.172  34.592  12.072
10451W        W82177   7.159  39.466   1.212
10452W        W82178  38.095  33.965  13.806
10453W        W82179   3.979  30.135   4.147
10454W        W82180  32.558  15.775   4.671
10455W        W82181  42.234   0.410   1.228
10456W        W82182  41.495  40.316   1.180
10457W        W82183  30.108   5.957  14.352
10458W        W82184  17.074   6.626   4.224
10459W        W82185  22.532  12.571   0.501
10460W        W82186  18.116  36.465   4.232
10461W        W82187  26.470  30.938  13.972
10462W        W82188  20.980  26.646  11.239
10463W        W82189  35.190  24.357   0.467
10464W        W82190  40.935  36.175  12.995
10465W        W82191   8.772  12.113   2.044
10466W        W82192  34.979  20.955  14.832
10467W        W82193  32.637  31.939  10.764
10468W        W82194  39.351  14.935   0.874
10469W        W82195  34.992  37.223   2.653
10470W        W82196  32.427  22.565  12.529
10471W        W82197  27.980  23.467   1.052
10472W        W82198  34.002  37.408  14.851
10473W        W82199  35.376  30.586   4.508
10474W        W82200  12.957   6.868   3.758
10475W        W82201  38.502  42.970  11.859
10476W        W82202   2.418  30.072   1.741
10477W        W82203   8.644  19.163   3.247
10478W        W82204   7.492  18.424  13.404
10479W        W82205  41.212   4.601   0.337
10480W        W82206   4.853   6.271  14.926
10481W        W82207  31.943   7.208  14.460
10482W        W82208  17.050  20.075   1.944
10483W        W82209  41.414   3.392  13.087
10484W        W82210  25.182  37.338   3.131
10485W        W82211  36.930  31.551   1.270
10486W        W82212  26.191   5.392   4.425
10487W        W82213   4.124   4.665   5.015
10488W        W82214  30.713   7.112  13.968
10489W        W82215  26.454  26.431  14.465
10490W        W82216  20.671  37.990  13.621
10491W        W82217  44.190  38.878  11.122
10492W        W82218  24.302  35.028   0.910
10493W        W82219  10.228  27.430   3.242
10494W        W82220   8.103   7.300  10.318
10495W        W82221  37.064   2.619  10.686
10496W        W82222  12.854  36.488  13.821
10497W        W82223   5.047   1.878  13.016
10498W        W82224  20.327   8.602   1.665
10499W        W82225  37.598  18.306   3.743
10500W        W82226   7.870  37.746  12.851
10501W        W82227   0.040  20.187  11.835
10502W        W82228  23.138  22.619   0.885
10503W        W82229   7.478   5.002   2.928
10504W        W82230   7.395  27.834   4.474
10505W        W82231  29.186  42.229   3.625
10506W        W82232  32.130   2.440   2.489
10507W        W82233  25.253   2.435   3.191
10508W        W82234   6.801  33.323  12.057
10509W        W82235  30.539  15.055  14.817
10510W        W82236  18.960   1.033  13.417
10511W        W82237  25.961  12.091   1.401
10512W        W82238  12.623  15.385   4.684
10513W        W82239  36.757  28.450   0.917
10514W        W82240  26.789  26.169   3.203
10515W        W82241  24.517   4.257   2.952
10516W        W82242  17.799  34.674   1.234
10517W        W82243  28.029  37.875   3.205
10518W        W82244   5.863  10.325   2.134
10519W        W82245   6.921  37.904  10.573
10520W        W82246  30.615   2.921  13.425
10521W        W82247  41.308   6.886   2.970
10522W        W82248  21.335  17.079   5.347
10523W        W82249   2.855   1.846  11.029
10524W        W82250  43.402  19.666  13.881
10525W        W82251  35.071   6.845   2.843
10526W        W82252  43.388   6.761   0.339
10527W        W82253  15.226  16.249   0.718
10528W        W82254  20.499  13.609   2.103
10529W        W82255   6.924  25.837   1.325
10530W        W82256   3.379   5.365  10.594
10531W        W82257  14.010   4.187  11.063
10532W        W82258  10.091  35.158   0.053
10533W        W82259  12.886  19.113   2.387
10534W        W82260  17.733  14.383   0.454
10535W        W82261  32.444  31.870  12.861
10536W        W82262  23.446   4.366   2.780
10537W        W82263  15.626   5.138  14.292
10538W        W82264  14.861  13.911   1.826
10539W        W82265  21.582  12.639  14.978
10540W        W82266  12.323   0.922   0.965
10541W        W82267   4.811  22.470  10.679
10542W        W82268  10.437  27.222  12.928
10543W        W82269   7.258  12.911  11.138
10544W        W82270  27.604  25.302  11.531
10545W        W82271   7.786  43.472   3.854
10546W        W82272  21.662  25.448  11.919
10547W        W82273  42.371  38.375  11.569
10548W        W82274  26.850  23.600   2.436
10549W        W82275  29.807  29.293   0.391
10550W        W82276   6.969  36.889  10.672
10551W        W82277   1.994  12.701  12.459
10552W        W82278   1.914  24.512   4.600
10553W        W82279  14.729   9.866   1.308
10554W        W82280   3.361  16.798  13.801
10555W        W82281  26.770  25.501  14.432
10556W        W82282  24.766  27.027   3.409
10557W        W82283   5.900  35.557  12.144
10558W        W82284  13.763   9.926   0.292
10559W        W82285  12.097  41.932   1.335
10560W        W82286   0.732   5.343  13.351
10561W        W82287  43.754  17.269   4.842
10562W        W82288   3.267  20.683  14.401
10563W        W82289  44.566  23.001  12.522
10564W        W82290  19.681  30.953  13.292
10565W        W82291  35.384  22.982  11.960
10566W        W82292   9.835  41.602   1.408
10567W        W82293  34.044  39.311  13.372
10568W        W82294  27.415  43.292  13.051
10569W        W82295  30.398  33.448  14.868
10570W        W82296  41.253  16.611   0.687
10571W        W82297   6.189   8.328  14.258
10572W        W82298   8.715  36.287  13.516
10573W        W82299  13.180  18.340   3.379
10574W        W82300   5.876  44.225  10.818
10575W        W82301   6.377   3.104  12.203
10576W        W82302  25.145   7.816   1.266
10577W        W82303  22.418   5.811   1.739
10578W        W82304  12.311   5.819   4.128
10579W        W82305   5.156   6.940  12.091
10580W        W82306  16.876  14.398  12.899
10581W        W82307   8.112  40.858  10.640
10582W        W82308  14.783  43.375   2.025
10583W        W82309  36.572  11.426   0.655
10584W        W82310  42.072  24.646  11.131
10585W        W82311  23.070  31.627   3.771
10586W        W82312  27.195   0.320   0.010
10587W        W82313  30.875   3.449   2.426
10588W        W82314  32.821  41.317  14.444
10589W        W82315   4.326  10.210   0.721
10590W        W82316   6.226  32.338  10.707
10591W        W82317  27.359   1.827   3.383
10592W        W82318   7.442  28.356   0.904
10593W        W82319  31.072  16.175  12.989
10594W        W82320   6.184  21.809   3.541
10595W        W82321  13.066  35.628   1.604
10596W        W82322   3.421  42.820  14.863
10597W        W82323  28.005  40.054   1.041
10598W        W82324  28.328  12.077  14.712
10599W        W82325  13.372  23.974  10.522
10600W        W82326  41.362  11.389   2.813
10601W        W82327  14.213  17.740   0.316
10602W        W82328   8.438  18.196   0.366
10603W        W82329   6.792  44.013   3.229
10604W        W82330  14.342  16.354  14.236
10605W        W82331  17.261   1.519  11.600
10606W        W82332  19.265  27.325   3.516
10607W        W82333  40.703  29.531   4.035
10608W        W82334   4.165  36.408   1.881
10609W        W82335  20.974  33.185  11.123
10610W        W82336   7.494  18.076   0.020
10611W        W82337  33.609  36.208  10.204
10612W        W82338  41.856  27.632   4.777
10613W        W82339  30.496  41.462  12.926
10614W        W82340  33.908  28.968   1.476
10615W        W82341  13.107  32.820   3.738
10616W        W82342  17.833  26.604   1.787
10617W        W82343   7.588  44.881  14.783
10618W        W82344  36.635   4.015   3.169
10619W        W82345  27.447  43.104  12.320
10620W        W82346  33.161   0.250  14.765
10621W        W82347   8.810  22.382  12.857
10622W        W82348  44.816  25.183  12.908
10623W        W82349   4.243  13.059  12.091
10624W        W82350   5.025   9.396   3.042
10625W        W82351  28.451  24.121   2.181
10626W        W82352  30.040  34.151  13.647
10627W        W82353   9.286   5.172  12.675
10628W        W82354  17.796  11.380   4.469
10629W        W82355  38.841  39.100   3.274
10630W        W82356  21.270  18.255  11.527
10631W        W82357  34.392  12.346   1.371
10632W        W82358  13.239  34.159   4.038
10633W        W82359   0.666  17.714   4.074
10634W        W82360  16.027  36.992   0.685
10635W        W82361   2.445  22.602  13.301
10636W        W82362  37.671  44.396   1.007
10637W        W82363  20.065  22.245  12.454
10638W        W82364  41.400  16.625  13.305
10639W        W82365   6.295   0.159  10.271
10640W        W82366  26.191  29.395   4.184
10641W        W82367   1.686  38.579  11.830
10642W        W82368  38.494   1.843   2.800
10643W        W82369   7.167  24.152   4.972
10644W        W82370  41.422  24.053  12.109
10645W        W82371  39.473  13.767  10.609
10646W        W82372  26.206  31.620  12.726
10647W        W82373  42.871  36.866   2.194
10648W        W82374   7.208  19.710  10.626
10649W        W82375   8.798  12.236   4.624
10650W        W82376  25.754  32.632  14.843
10651W        W82377  19.775  37.094   1.365
10652W        W82378  30.526  29.046   1.143
10653W        W82379  19.819  36.332  13.376
10654W        W82380  38.349  18.047  13.073
10655W        W82381  16.932  12.544  11.147
10656W        W82382  34.605  24.291  10.780
10657W        W82383   5.726  40.063   1.629
10658W        W82384   2.473   5.820  12.996
10659W        W82385  37.991   2.713   3.187
10660W        W82386  22.127   5.663  14.222
10661W        W82387  27.150   2.820  14.466
10662W        W82388  41.991  16.001   2.957
10663W        W82389  10.292  35.384  11.138
10664W        W82390   8.849  32.760  10.643
10665W        W82391  23.319  10.576  11.110
10666W        W82392   2.520   4.259  12.132
10667W        W82393  24.573   6.894   1.776
10668W        W82394  19.591  12.552   3.576
10669W        W82395  16.359  38.074  12.918
10670W        W82396   7.895   3.762   2.901
10671W        W82397   2.693  32.251  12.566
10672W        W82398   7.480  41.847   2.273
10673W        W82399  29.766   5.727  11.321
10674W        W82400  32.010   5.637   0.070
10675W        W82401  12.158   9.272   2.722
10676W        W82402  16.824   0.342   3.161
10677W        W82403   2.345  35.623   2.304
10678W        W82404  39.842  27.115   2.008
10679W        W82405   0.922  23.240  14.006
10680W        W82406  38.083  23.613   0.390
10681W        W82407   4.533  36.096   4.984
10682W        W82408  17.709  10.766  12.108
10683W        W82409  26.020  38.931   2.223
10684W        W82410   2.264  40.534   0.098
10685W        W82411  18.690  32.000  12.206
10686W        W82412  11.195  17.598   4.140
10687W        W82413   6.629  17.689   4.020
10688W        W82414  26.365  22.087   0.827
10689W        W82415  10.820  39.907  14.445
10690W        W82416  40.030   6.971   5.023
10691W        W82417   9.237   0.987   1.284
10692W        W82418  33.194  30.692   1.208
10693W        W82419  18.520  20.255  13.465
10694W        W82420   1.754  11.842  14.890
10695W        W82421  11.179   7.674  11.830
10696W        W82422  15.238   3.405   1.355
10697W        W82423  27.010  30.690  12.764
10698W        W82424  41.307   3.908  10.939
10699W        W82425   3.919   9.638   1.775
10700W        W82426  28.475  15.226   0.909
10701W        W82427  23.931  27.241  13.463
10702W        W82428  34.125  23.637   0.806
10703W        W82429   5.286  23.815   1.000
10704W        W82430  27.469  23.207   2.137
10705W        W82431  19.189  37.932   1.636
10706W        W82432  30.574  40.532   1.592
10707W        W82433  24.643  17.788  12.813
10708W        W82434   3.255  43.477  14.138
10709W        W82435  17.136  24.475  13.365
10710W        W82436  39.890  20.328  14.484
10711W        W82437  18.024   3.628   4.547
10712W        W82438   3.065  10.853  13.914
10713W        W82439  11.661   1.826   4.668
10714W        W82440  35.819  10.838   3.886
10715W        W82441  33.486  31.152  12.380
10716W        W82442  32.695  30.006  11.534
10717W        W82443  12.755   4.657   0.892
10718W        W82444  40.580   6.805  14.464
10719W        W82445  25.264  20.218  13.429
10720W        W82446  26.232  17.737   2.804
10721W        W82447  36.925  17.683   2.084
10722W        W82448  37.651   1.288  13.336
10723W        W82449  27.557  21.726   3.537
10724W        W82450  23.642  11.204   0.076
10725W        W82451  31.077   9.257   4.289
10726W        W82452  17.012  15.721  12.840
10727W        W82453  35.322  28.472  12.560
10728W        W82454  24.762   4.623   3.258
10729W        W82455  23.183  38.552   2.329
10730W        W82456  24.087  28.710   0.305
10731W        W82457  41.452  26.417  10.673
10732W        W82458  28.130  41.543  14.007
10733W        W82459  32.385  27.478   1.325
10734W        W82460   4.440  15.176   4.302
10735W        W82461  33.361  40.974   1.038
10736W        W82462   6.310  31.195   4.692
10737W        W82463   6.500  39.442  14.788
10738W        W82464  44.714  17.276   4.501
10739W        W82465  13.206  18.341  13.495
10740W        W82466  15.117  34.362  10.934
10741W        W82467  11.425  18.922   1.418
10742W        W82468  23.540  25.016   4.221
10743W        W82469   0.422  41.342  13.261
10744W        W82470   9.779   8.612   4.131
10745W        W82471  18.845  27.187   4.165
10746W        W82472  30.822  25.624   2.256
10747W        W82473  17.911  21.163   3.985
10748W        W82474   7.866  10.385  11.575
10749W        W82475  44.116   4.222  13.468
10750W        W82476  33.958  12.085  14.756
10751W        W82477  14.703   9.829   0.358
10752W        W82478  37.461  31.538  12.037
10753W        W82479  23.147  35.592   2.059
10754W        W82480  25.954  25.248  13.333
10755W        W82481  35.609  30.005   1.564
10756W        W82482  30.695  24.040   3.646
10757W        W82483  34.196  27.943   3.013
10758W        W82484   5.220   9.402  11.507
10759W        W82485   8.452   2.663  13.478
10760W        W82486  35.774   1.389  11.920
10761W        W82487   9.919  23.765  11.950
10762W        W82488  27.056  14.229  10.735
10763W        W82489   6.176   6.364  14.143
10764W        W82490  25.647  21.809  10.734
10765W        W82491  28.767   5.228  14.872
10766W        W82492  30.891   9.632   3.373
10767W        W82493  26.772  14.809  12.564
10768W        W82494  18.416  21.270   4.080
10769W        W82495  30.872  19.801   4.089
10770W        W82496   3.184  35.626   1.198
10771W        W82497   2.702  13.369   3.178
10772W        W82498  43.292  39.389  13.059
10773W        W82499   0.417  28.070  13.858
10774W        W82500  32.613  35.367   0.459
10775W        W82501  34.916   8.357  10.784
10776W        W82502  42.207   0.030   2.621
10777W        W82503   5.360  44.198  12.461
10778W        W82504   8.948   8.726  11.554
10779W        W82505   1.911  31.578  12.396
10780W        W82506  12.418  30.941  13.979
10781W        W82507  33.393  29.278   4.645
10782W        W82508  30.856  26.778   5.128
10783W        W82509  23.005  23.463  12.080
10784W        W82510  27.441  29.124  13.944
10785W        W82511  17.327   4.389  12.872
10786W        W82512  42.044  33.267  12.087
10787W        W82513   2.292  15.736   4.584
10788W        W82514  33.712  28.190  13.055
10789W        W82515  29.954   1.062   1.895
10790W        W82516  14.277   4.335  14.813
10791W        W82517  35.353   9.335  14.868
10792W        W82518   1.374  27.063   1.284
10793W        W82519  20.282  41.350   3.133
10794W        W82520  35.907  44.241   2.816
10795W        W82521  37.148  22.099   1.476
10796W        W82522  33.968  14.759  14.377
10797W        W82523  29.826  33.449  11.566
10798W        W82524   1.343  26.029   1.284
10799W        W82525   4.475  44.753   1.376
10800W        W82526  13.236  43.377   3.692
10801W        W82527  17.796  19.530  11.510
10802W        W82528   2.724  30.099   0.381
10803W        W82529  33.878   1.922   3.254
10804W        W82530  16.248  34.560  14.023
10805W        W82531   3.693   3.830   2.381
10806W        W82532  22.964   9.853  13.634
10807W        W82533   7.166   1.343   0.856
10808W        W82534  34.189  28.108   1.264
10809W        W82535  24.786  35.093   2.840
10810W        W82536  34.182  25.608  12.508
10811W        W82537  11.835   5.001   9.844
10812W        W82538  21.195  18.183   4.572
10813W        W82539  17.170  28.660  11.768
10814W        W82540  13.287  18.293   3.888
10815W        W82541  25.599  12.222   4.643
10816W        W82542   8.713  29.995  13.793
10817W        W82543  10.976  15.787   2.156
10818W        W82544   2.961   4.898   3.251
10819W        W82545  11.967  24.962   0.168
10820W        W82546  14.657  23.510  10.687
10821W        W82547   8.321  20.893  12.964
10822W        W82548  36.217  40.450   3.624
10823W        W82549  14.830  14.317   2.190
10824W        W82550   0.456  30.446   0.918
10825W        W82551  37.825  30.116   0.872
10826W        W82552  30.234  27.096   4.621
10827W        W82553   2.314  13.508   2.371
10828W        W82554  10.891   8.713  13.047
10829W        W82555  16.556  28.528  13.479
10830W        W82556  38.105  11.267  11.812
10831W        W82557  30.033  34.685   3.330
10832W        W82558  35.134  36.151   1.872
10833W        W82559  29.972  36.762  11.925
10834W        W82560  26.984   1.987   1.337
10835W        W82561  11.100  17.854  14.350
10836W        W82562  22.836  31.235  13.389
10837W        W82563  15.097  26.308   0.259
10838W        W82564  13.610  25.631  14.748
10839W        W82565  31.871  37.033  12.969
10840W        W82566  14.083  20.992  14.660
10841W        W82567   0.289  40.000   4.049
10842W        W82568  12.988  22.991  10.921
10843W        W82569  27.523  15.005  12.880
10844W        W82570  10.389  30.316   1.729
10845W        W82571  39.892  43.549   1.963
10846W        W82572   3.486   2.894  13.012
10847W        W82573  39.045   8.633   4.536
10848W        W82574  40.958  26.129  13.769
10849W        W82575  16.606  31.200  13.852
10850W        W82576  33.760   9.714  14.331
10851W        W82577  32.509  24.614  10.186
10852W        W82578  44.352   1.001  13.977
10853W        W82579  38.826  30.663  10.750
10854W        W82580   0.278  34.600   3.082
10855W        W82581  28.903   1.211  11.062
10856W        W82582   4.630  10.221   1.177
10857W        W82583  18.689   6.268  14.488
10858W        W82584  42.710  22.575   0.284
10859W        W82585  14.177  28.234   2.338
10860W        W82586  18.526  23.652  13.371
10861W        W82587  43.374  33.706   2.430
10862W        W82588   6.647   2.147  11.875
10863W        W82589   0.906   1.869  11.223
10864W        W82590   9.170   0.664   2.294
10865W        W82591  28.584  41.266  14.803
10866W        W82592  32.461  37.098   4.878
10867W        W82593  11.358  32.857   3.801
10868W        W82594  38.564  13.674  14.814
10869W        W82595  33.328  42.953   0.363
10870W        W82596  30.728  18.969  13.958
10871W        W82597  39.540  18.115  14.796
10872W        W82598  10.382   6.660   2.219
10873W        W82599  23.646  42.531   4.052
10874W        W82600  17.709  13.801  12.965
10875W        W82601  23.135  25.221  10.199
10876W        W82602  12.752  40.095   3.508
10877W        W82603  33.447  26.914  10.694
10878W        W82604  15.555  43.777   4.883
10879W        W82605  22.054  36.133  13.898
10880W        W82606  20.482  14.876  11.552
10881W        W82607  21.102  17.200  13.927
10882W        W82608  29.638  42.846  10.949
10883W        W82609  18.325  38.092   4.020
10884W        W82610  17.581  14.755  10.720
10885W        W82611  29.898  13.256   2.448
10886W        W82612   1.891  25.532  12.326
10887W        W82613  21.121  21.015  11.979
10888W        W82614  25.110  22.432   3.127
10889W        W82615   9.169   2.826   4.563
10890W        W82616  33.111  11.683   4.678
10891W        W82617   8.366  44.234  12.355
10892W        W82618  28.516  29.190  13.267
10893W        W82619  29.507  29.652  12.395
10894W        W82620  41.894  37.989   1.449
10895W        W82621  13.942   4.363  12.983
10896W        W82622  22.198  12.698   0.922
10897W        W82623  32.407  10.296  13.478
10898W        W82624  19.280  37.514   2.381
10899W        W82625  22.090  30.860   2.714
10900W        W82626  34.040  36.328  11.995
10901W        W82627  12.608  21.580   0.403
10902W        W82628  41.982   4.311   3.325
10903W        W82629  18.570   1.414   0.624
10904W        W82630  41.403  40.760  14.961
10905W        W82631   9.898  14.208   3.121
10906W        W82632  20.319  18.223   0.330
10907W        W82633   6.694  18.696  12.398
10908W        W82634  24.166   5.610   1.566
10909W        W82635   9.727  38.551  14.510
10910W        W82636  17.869  26.383   1.237
10911W        W82637  23.036  24.281  14.921
10912W        W82638   1.762   9.695  14.172
10913W        W82639  14.202  42.243  11.703
10914W        W82640  24.240  32.520   2.704
10915W        W82641   0.199  41.724  11.637
10916W        W82642  41.372  34.036   1.281
10917W        W82643  43.904  16.343  10.506
10918W        W82644   8.005  28.333   4.095
10919W        W82645   7.351  28.376   3.697
10920W        W82646   7.768  20.797  14.022
10921W        W82647  24.927  19.248  14.795
10922W        W82648  22.379  43.774   1.624
10923W        W82649  38.708  26.477  13.371
10924W        W82650  27.931   4.249  13.397
10925W        W82651  32.065  12.351  14.440
10926W        W82652  24.772  13.261  13.059
10927W        W82653   1.928   7.586   2.258
10928W        W82654  14.679  20.229   2.735
10929W        W82655  11.195   5.204   0.310
10930W        W82656   0.325  23.299  13.632
10931W        W82657  24.012  26.050   4.719
10932W        W82658  44.444   0.426  10.399
10933W        W82659  25.664  32.028   3.229
10934W        W82660  11.402  17.526   3.686
10935W        W82661   0.504  15.607  11.614
10936W        W82662  38.805   0.426  14.289
10937W        W82663  24.585  12.224  11.234
10938W        W82664  36.550  14.614  14.859
10939W        W82665  36.970  25.769   0.283
10940W        W82666  19.602  16.747   0.855
10941W        W82667   7.698  31.183   2.964
10942W        W82668   8.221   9.330  13.122
10943W        W82669  25.024   1.228   3.782
10944W        W82670  44.005  21.223  10.005
10945W        W82671  40.349  35.440  12.115
10946W        W82672  18.698  23.932   4.153
10947W        W82673  30.364  16.854   3.253
10948W        W82674  24.883   8.230   2.816
10949W        W82675  40.488  22.421   5.054
10950W        W82676  37.925  26.443   2.848
10951W        W82677  18.748  12.879   3.169
10952W        W82678  38.601  42.833   1.410
10953W        W82679  25.475  25.089  10.815
10954W        W82680  10.860   3.392  11.145
10955W        W82681  20.001   6.295   4.167
10956W        W82682   3.146  16.098  13.521
10957W        W82683  25.015   3.832   1.403
10958W        W82684  41.128  38.587   1.789
10959W        W82685  24.204  13.937   5.228
10960W        W82686  20.586   5.432  14.879
10961W        W82687  37.040   7.216  10.399
10962W        W82688  18.803  28.837  11.509
10963W        W82689  10.048   0.451  11.150
10964W        W82690  35.787  28.452  14.243
10965W        W82691  33.905  32.828   4.133
10966W        W82692   8.883  15.353  11.602
10967W        W82693  28.722   9.319   3.316
10968W        W82694  34.339   5.766   2.487
10969W        W82695  12.265  30.262   0.973
10970W        W82696  33.230  11.384  11.692
10971W        W82697  30.937  32.178   2.743
10972W        W82698   4.699  28.693   2.952
10973W        W82699  44.276  30.848  14.961
10974W        W82700  19.149   9.191   1.259
10975W        W82701  18.192   5.361  11.914
10976W        W82702  24.556  12.615  10.560
10977W        W82703  25.132  27.437   0.502
10978W        W82704  17.359  38.309   4.097
10979W        W82705  21.035  32.671   3.986
10980W        W82706  40.769   8.262   0.499
10981W        W82707  33.298  15.745  14.942
10982W        W82708  32.925   8.211  10.923
10983W        W82709   4.241  11.135   0.379
10984W        W82710  24.529   8.282   3.746
10985W        W82711   6.650  15.297   0.239
10986W        W82712  18.621  34.194   3.210
10987W        W82713  26.484  42.541  11.187
10988W        W82714   0.260  24.705   2.881
10989W        W82715   9.675  42.730  12.990
10990W        W82716  32.180  44.385  13.505
10991W        W82717  22.948  16.580  14.354
10992W        W82718  30.509  26.554   3.337
10993W        W82719  12.187  43.439   2.417
10994W        W82720  12.718   3.273  12.748
10995W        W82721  10.632  16.276  14.942
10996W        W82722  20.573  39.906  13.554
10997W        W82723   1.354  41.980   4.316
10998W        W82724   9.197   2.461   3.694
10999W        W82725  20.967  39.842   2.363
11000W        W82726  20.063   5.388  14.769
11001W        W82727  26.978   3.331  11.386
11002W        W82728  42.405   6.155  12.538
11003W        W82729  42.429  11.352   0.926
11004W        W82730  35.414  38.421   3.751
11005W        W82731  18.104  26.949  11.610
11006W        W82732  22.978  15.682  10.681
11007W        W82733  42.915  43.518   0.395
11008W        W82734   8.913   9.167   2.782
11009W        W82735   4.861  31.044   1.371
11010W        W82736  22.560  13.174   3.190
11011W        W82737  27.355  36.974  12.972
11012W        W82738  28.798  37.526   4.234
11013W        W82739  30.210  23.710  13.911
11014W        W82740  43.443  14.872   0.267
11015W        W82741  35.537  29.507   1.740
11016W        W82742   4.384  23.116   0.807
11017W        W82743  12.534  39.656  13.791
11018W        W82744  40.160  23.472  12.913
11019W        W82745  20.680  18.523   4.580
11020W        W82746  39.824  40.595   3.123
11021W        W82747  24.379   9.892   2.649
11022W        W82748   6.669  39.393   3.219
11023W        W82749   2.627   5.705   0.648
11024W        W82750  11.305   0.933  12.952
11025W        W82751  43.512  35.439   3.862
11026W        W82752  24.869  36.377  14.940
11027W        W82753  14.091  35.847  12.375
11028W        W82754   4.460  42.090  10.925
11029W        W82755  20.173   8.085   2.427
11030W        W82756  22.616   0.712  14.721
11031W        W82757  26.976  33.665   1.764
11032W        W82758  19.183  20.236  13.993
11033W        W82759  31.400  35.984  12.594
11034W        W82760  41.228  27.566  13.203
11035W        W82761  40.214   0.730  11.586
11036W        W82762   2.763  39.345   2.399
11037W        W82763  17.266  40.851  11.146
11038W        W82764  21.321  20.648   4.312
11039W        W82765   9.417  19.619   3.439
11040W        W82766  33.592  38.061   3.645
11041W        W82767  18.800  38.334   2.761
11042W        W82768  16.293  28.704  10.879
11043W        W82769   7.738   4.808  11.169
11044W        W82770  21.782  43.967  14.586
11045W        W82771  27.147  14.844   2.292
11046W        W82772  12.088   6.450   1.858
11047W        W82773  25.734   6.484  14.889
11048W        W82774   7.349  34.989  11.508
11049W        W82775  41.380  29.972   1.553
11050W        W82776  10.623  42.784  13.989
11051W        W82777   4.185  41.550   2.384
11052W        W82778  34.892  36.443   4.337
11053W        W82779  43.486   2.830  12.168
11054W        W82780   1.360  20.189   2.210
11055W        W82781   0.609   4.425  14.336
11056W        W82782   5.410  31.144   2.861
11057W        W82783  37.502   1.390   1.883
11058W        W82784  36.995  13.204   3.691
11059W        W82785  38.948  35.054  10.412
11060W        W82786  23.022  16.353  13.083
11061W        W82787  22.493  15.381   9.771
11062W        W82788  23.587   3.876  11.675
11063W        W82789  39.309  44.959   3.547
11064W        W82790  25.477   1.515  13.917
11065W        W82791  24.268  26.495  12.904
11066W        W82792   7.810  30.703   0.955
11067W        W82793  27.385  34.598  14.893
11068W        W82794  22.130  28.696  10.526
11069W        W82795  10.384   4.315   3.743
11070W        W82796   4.057  29.031  13.517
11071W        W82797  27.236  34.809   1.158
11072W        W82798  10.156  44.302   4.126
11073W        W82799  41.856   6.218   3.267
11074W        W82800  14.573  44.949  10.509
11075W        W82801  34.541  10.273   5.079
11076W        W82802  17.594   1.290   1.359
11077W        W82803  38.091  41.069   4.253
11078W        W82804  23.570  28.522  11.385
11079W        W82805  12.434  10.677   4.232
11080W        W82806  22.178   4.229  11.134
11081W        W82807  43.685  19.226  12.949
11082W        W82808  38.881  15.168   2.564
11083W        W82809  37.308  40.660   4.141
11084W        W82810  18.488  15.693   2.677
11085W        W82811  36.919  28.640   0.441
11086W        W82812   4.416   2.832  12.655
11087W        W82813  13.762   7.303   4.790
11088W        W82814  14.414  36.840   4.574
11089W        W82815  36.037  12.187  11.032
11090W        W82816  31.543   4.745   4.201
11091W        W82817  11.494  41.025   4.584
11092W        W82818  15.691  23.242  10.879
11093W        W82819   3.749  16.608   2.365
11094W        W82820  21.252  35.644  12.000
11095W        W82821  10.316  43.813  14.879
11096W        W82822  26.937   8.455   1.341
11097W        W82823  14.580   8.849   3.661
11098W        W82824  38.479   4.817   3.678
11099W        W82825  16.720  24.575   1.455
11100W        W82826  34.523   3.317  14.626
11101W        W82827  41.570  24.631  11.150
11102W        W82828  13.604  13.445   4.917
11103W        W82829  12.175  13.097  13.614
11104W        W82830  33.103  38.585   2.279
11105W        W82831  40.396  22.993  12.966
11106W        W82832   2.025   5.128  11.876
11107W        W82833  34.872  23.628  13.288
11108W        W82834  31.363   3.500  12.607
11109W        W82835  33.072   3.386  14.592
11110W        W82836   1.246  44.936   2.733
11111W        W82837  13.799   0.011  10.960
11112W        W82838  12.705  13.766   1.390
11113W        W82839  17.499  41.464   1.782
11114W        W82840  26.553   2.251   1.434
11115W        W82841  18.556  33.756  11.927
11116W        W82842   1.098  24.668  13.146
11117W        W82843  14.907   3.031   2.828
11118W        W82844   0.256  31.798   0.789
11119W        W82845  22.464  12.705   2.386
11120W        W82846  10.239   5.716   0.266
11121W        W82847  36.100  30.099  12.856
11122W        W82848   1.389  15.780   4.686
11123W        W82849  43.124  12.049  14.803
11124W        W82850   4.927   4.490  14.108
11125W        W82851   4.351  44.541   2.387
11126W        W82852  37.670  28.090  13.321
11127W        W82853  12.791  36.105   1.635
11128W        W82854  18.715  23.023  14.586
11129W        W82855  16.814   7.276   1.202
11130W        W82856  21.129  19.687  13.409
11131W        W82857   6.889  43.317  12.947
11132W        W82858  32.876   0.910  12.501
11133W        W82859   9.098  33.614  11.987
11134W        W82860   7.707  20.159   4.548
11135W        W82861   5.253  30.589  11.016
11136W        W82862  40.613  29.598  11.600
11137W        W82863  31.002  23.200  10.735
11138W        W82864  44.979  30.127  13.502
11139W        W82865  27.157  33.982  10.406
11140W        W82866  31.627  33.541   1.388
11141W        W82867  13.229  19.716  13.490
11142W        W82868   7.719  18.559  12.922
11143W        W82869  33.625  26.064   4.804
11144W        W82870  19.506   9.543   0.419
11145W        W82871   2.326  17.624   3.059
11146W        W82872   6.461  13.725   3.695
11147W        W82873  24.765  39.884  12.361
11148W        W82874  14.810   5.402   4.542
11149W        W82875  25.042   3.990  11.505
11150W        W82876   8.900  11.805   2.482
11151W        W82877  21.610  15.172  13.848
11152W        W82878  28.058  32.695  14.961
11153W        W82879  14.070  31.024   3.219
11154W        W82880  38.919  16.727   2.758
11155W        W82881   2.704  18.791   1.726
11156W        W82882  39.906   6.431   4.119
11157W        W82883   8.886  39.366  13.459
11158W        W82884  24.113  22.874  14.745
11159W        W82885  31.684  43.382  13.504
11160W        W82886  10.503  23.119  11.025
11161W        W82887  43.102  40.491  12.386
11162W        W82888  31.696  33.856  13.503
11163W        W82889  40.428  25.506   2.184
11164W        W82890   4.033  15.425  12.049
11165W        W82891  18.120  29.353  13.381
11166W        W82892  39.641  11.768   3.841
11167W        W82893  35.532   8.100  13.530
11168W        W82894  20.010  27.444  14.894
11169W        W82895   1.231  41.385   3.513
11170W        W82896   7.319  36.014   0.755
11171W        W82897  24.632  41.257  12.003
11172W        W82898   8.037  13.248  14.827
11173W        W82899  19.481   6.755   0.477
11174W        W82900   6.600   3.699   0.321
11175W        W82901  36.853  34.826   4.336
11176W        W82902  10.601  40.767  12.465
11177W        W82903   3.444   4.736   1.354
11178W        W82904  39.938  10.703   4.567
11179W        W82905   6.362  39.593  13.572
11180W        W82906   7.801   7.462   2.667
11181W        W82907  25.912  24.929  14.488
11182W        W82908  19.055   3.773   2.150
11183W        W82909  28.928  35.454   0.309
11184W        W82910  40.856  36.706   4.612
11185W        W82911  30.458  39.477  11.199
11186W        W82912  26.499  16.526  14.342
11187W        W82913   7.651   0.691  11.103
11188W        W82914  11.007  19.517  13.881
11189W        W82915  20.070  21.463  12.123
11190W        W82916   7.386  16.684  14.710
11191W        W82917  23.228  17.824  12.534
11192W        W82918  32.713   3.706   4.792
11193W        W82919   7.006  24.175  14.788
11194W        W82920   2.290  28.437  11.927
11195W        W82921  39.062   1.062   0.966
11196W        W82922  41.847  11.604   3.214
11197W        W82923   2.018   9.374   4.131
11198W        W82924  37.427  27.137  12.151
11199W        W82925   6.877  11.520  12.841
11200W        W82926  32.617  41.348   4.066
11201W        W82927  43.503  11.690   0.671
11202W        W82928   5.406  13.214   0.835
11203W        W82929  10.298  33.989   3.890
11204W        W82930   4.912  27.936   5.030
11205W        W82931  13.599  24.782  11.979
11206W        W82932  10.727  23.079  13.798
11207W        W82933  28.605  14.249  10.460
11208W        W82934  31.824  33.872   2.262
11209W        W82935   1.198  44.218  13.550
11210W        W82936  36.885  31.672  10.770
11211W        W82937  33.548  35.273   2.737
11212W        W82938  16.339  30.525   1.452
11213W        W82939   1.579  33.428   4.507
11214W        W82940  18.568  37.387   4.066
11215W        W82941  21.454  15.773   3.787
11216W        W82942  30.618  22.493  13.369
11217W        W82943  17.108   7.919   2.824
11218W        W82944  22.972  27.144  13.608
11219W        W82945   5.631  38.404   0.409
11220W        W82946  25.080  43.581   2.931
11221W        W82947  35.100   3.370  11.445
11222W        W82948  23.065  14.341  11.139
11223W        W82949  19.159  36.528   2.888
11224W        W82950   0.045  33.608  10.312
11225W        W82951  22.973   1.447  12.887
11226W        W82952  24.327  26.613   9.609
11227W        W82953  19.301  26.618  12.865
11228W        W82954  14.101   1.037  12.476
11229W        W82955   2.701  44.424   2.290
11230W        W82956  32.691   2.854   0.243
11231W        W82957  14.240  14.132  13.827
11232W        W82958  27.997  26.521  12.304
11233W        W82959   5.147  39.922   3.277
11234W        W82960   5.493  14.757  13.553
11235W        W82961  15.095  42.804  14.774
11236W        W82962  16.995  16.271   2.166
11237W        W82963  27.616  25.010  13.801
11238W        W82964  23.065  25.565  12.876
11239W        W82965  35.987  16.913   3.229
11240W        W82966  21.742  30.717  14.762
11241W        W82967  21.059  20.023   1.223
11242W        W82968  26.115  34.689  13.446
11243W        W82969  10.770  25.669   1.866
11244W        W82970  43.213   6.223   1.435
11245W        W82971  35.086  15.265  11.151
11246W        W82972  30.981  29.843  12.438
11247W        W82973  42.876  43.887  10.276
11248W        W82974  10.760  24.927  11.052
11249W        W82975  32.545   1.166  11.701
11250W        W82976   7.848  15.815  11.646
11251W        W82977  15.597  44.511  13.457
11252W        W82978  25.125  32.908  11.056
11253W        W82979  22.607  29.935  14.472
11254W        W82980  23.300   6.697   0.745
11255W        W82981  44.248  25.964   4.579
11256W        W82982  41.915  31.030   3.535
11257W        W82983   9.636   3.960  13.411
11258W        W82984  39.107  29.834  13.811
11259W        W82985  36.908  24.448   0.665
11260W        W82986  25.110  40.010  13.737
11261W        W82987  33.457  34.256   2.576
11262W        W82988  13.114  30.859   0.320
11263W        W82989  15.338   6.754   5.125
11264W        W82990  12.777  24.984   2.348
11265W        W82991   4.814   1.730   0.462
11266W        W82992  38.867  33.593  11.394
11267W        W82993  42.142  34.344   4.611
11268W        W82994   6.966  24.470   4.608
11269W        W82995  14.417  28.087  12.579
11270W        W82996  25.244  13.775  14.340
11271W        W82997   9.107  35.942   3.202
11272W        W82998  23.126  22.798   2.339
11273W        W82999   7.292  21.140   5.122
11274W        W83000  16.982  34.396   0.245
11275W        W83001   1.737  10.911   1.754
11276W        W83002  23.033   6.146  14.311
11277W        W83003  28.122  26.071  10.125
11278W        W83004  16.034  28.036   0.780
11279W        W83005  17.190  24.108  14.330
11280W        W83006  44.720   2.874  11.370
11281W        W83007  21.027  39.324   3.224
11282W        W83008  40.862  11.165   2.780
11283W        W83009  20.065  27.692   3.895
11284W        W83010  28.384  11.548  13.437
11285W        W83011   0.845  10.384  14.917
11286W        W83012   3.360  36.971   4.836
11287W        W83013  10.131  43.645   1.324
11288W        W83014  38.963  30.614   0.421
11289W        W83015  14.024  18.190   1.177
11290W        W83016   8.399   9.223   2.843
11291W        W83017  41.269  30.184  11.786
11292W        W83018  12.148   0.237  14.452
11293W        W83019   4.202  43.490  14.978
11294W        W83020  15.577  42.427  11.453
11295W        W83021   7.501   0.270  12.445
11296W        W83022   7.450  31.086   0.962
11297W        W83023   9.762   9.173   1.647
11298W        W83024  30.166  16.063   0.600
11299W        W83025  22.137   0.716   4.138
11300W        W83026  36.684  18.571  12.470
11301W        W83027  15.859  35.505  12.489
11302W        W83028  25.655  26.729  14.387
11303W        W83029  43.278   3.473  14.362
11304W        W83030  37.328  40.956  12.113
11305W        W83031  10.284  19.086  13.991
11306W        W83032  42.394  13.407   0.991
11307W        W83033  19.877   5.702   2.785
11308W        W83034  35.456  19.413  14.824
11309W        W83035  33.992  38.648   2.323
11310W        W83036  31.851  10.282  11.935
11311W        W83037  15.813  11.836   3.561
11312W        W83038   7.645  13.560  12.462
11313W        W83039   5.295   6.012  11.742
11314W        W83040  22.175  38.944  14.985
11315W        W83041  37.021   0.384   4.375
11316W        W83042   9.165   0.490   4.196
11317W        W83043  37.959  44.531   3.169
11318W        W83044   9.283  10.236  10.549
11319W        W83045   8.002  15.070   0.323
11320W        W83046  41.852   6.614  10.066
11321W        W83047  39.456  26.686  13.804
11322W        W83048  14.203  29.449  13.827
11323W        W83049  11.764  18.351  10.246
11324W        W83050   2.252  32.167  11.856
11325W        W83051  18.296   2.247   0.965
11326W        W83052  33.172  26.107  14.298
11327W        W83053  38.059  40.701  14.372
11328W        W83054  35.619  11.074  13.442
11329W        W83055   8.322   2.196  10.728
11330W        W83056  25.406  10.164   0.671
11331W        W83057  35.666   8.277   0.820
11332W        W83058  38.415  41.755  12.631
11333W        W83059  24.106  29.933  13.004
11334W        W83060  17.773  31.985  13.787
11335W        W83061   9.082   4.294  12.549
11336W        W83062  39.482  11.682   1.465
11337W        W83063  25.534  15.206   1.653
11338W        W83064  24.135  39.583   4.743
11339W        W83065  23.698  26.655  13.284
11340W        W83066  30.916  40.055   0.334
11341W        W83067  27.237   9.440   3.172
11342W        W83068   5.778  28.693  14.852
11343W        W83069   1.652  41.092  14.924
11344W        W83070  25.679  40.441   3.231
11345W        W83071  18.231   1.432  11.037
11346W        W83072  39.548   8.180   4.561
11347W        W83073  28.585  30.593   2.679
11348W        W83074  43.738  35.335   0.918
11349W        W83075  30.794  43.376   1.977
11350W        W83076   9.820   0.525   1.835
11351W        W83077  37.386  19.848  11.432
11352W        W83078   4.470   6.311   4.602
11353W        W83079   8.702  19.833   4.191
11354W        W83080  28.944  18.087   1.300
11355W        W83081   0.879  27.986  12.937
11356W        W83082   8.928  30.468  13.948
11357W        W83083  38.762  34.668   1.222
11358W        W83084   8.335  11.550   4.671
11359W        W83085  27.108  35.574  13.753
11360W        W83086  39.931   1.721   1.308
11361W        W83087  31.145  18.695   1.260
11362W        W83088  28.911   7.582  14.984
11363W        W83089  29.379   1.445   0.294
11364W        W83090  37.308  11.751   4.188
11365W        W83091  33.607  20.864   4.048
11366W        W83092  43.667  31.981   3.319
11367W        W83093  25.013  19.307   2.255
11368W        W83094  21.614  21.298  14.448
11369W        W83095  12.926  18.568   0.667
11370W        W83096   0.491  30.914   3.062
11371W        W83097  24.249  17.241  11.157
11372W        W83098  41.252  42.665  13.455
11373W        W83099  44.996  44.729   2.040
11374W        W83100  34.595  25.163   2.035
11375W        W83101  13.753  38.839   3.848
11376W        W83102  35.325  19.615   2.411
11377W        W83103  32.521   8.289   5.255
11378W        W83104  13.226  33.910  14.511
11379W        W83105  38.026   6.192  12.436
11380W        W83106  35.993  39.343  13.568
11381W        W83107  31.546  44.322  13.753
11382W        W83108  38.393  17.175   1.310
11383W        W83109   3.254   6.803  14.966
11384W        W83110  16.586  40.662   4.963
11385W        W83111  41.736  37.357   4.095
11386W        W83112  39.473  10.236   2.162
11387W        W83113  16.406  12.585  12.476
11388W        W83114   2.482  21.044   1.259
11389W        W83115  20.021   5.876  11.589
11390W        W83116  17.259  43.948  14.486
11391W        W83117   9.847  10.858  14.900
11392W        W83118  38.711   3.397  12.481
11393W        W83119  42.449  34.141   0.418
11394W        W83120  43.534  17.645  14.306
11395W        W83121   0.808  11.380  11.607
11396W        W83122  17.463  14.570  14.604
11397W        W83123  15.771  25.182  12.574
11398W        W83124  40.056  23.584  11.397
11399W        W83125   8.762  29.196  12.129
11400W        W83126  23.649  37.620   2.412
11401W        W83127  30.148  34.557  13.297
11402W        W83128  15.568  34.473  12.499
11403W        W83129  37.403  35.876  11.596
11404W        W83130   3.418  36.049  10.561
11405W        W83131  34.842  31.817  13.547
11406W        W83132   3.734  16.208  14.916
11407W        W83133  31.148  11.599  14.913
11408W        W83134   5.365  18.766   4.611
11409W        W83135  25.582  41.466   2.115
11410W        W83136  15.841  43.925   3.785
11411W        W83137  43.258   0.290  11.162
11412W        W83138  44.265  26.547  13.166
11413W        W83139  19.131  14.190  11.280
11414W        W83140   4.821  32.170  13.861
11415W        W83141   6.246  34.171   3.346
11416W        W83142  14.132   1.322  12.018
11417W        W83143  24.723  16.054  14.419
11418W        W83144  15.077  22.520   0.870
11419W        W83145  32.118  36.255   1.934
11420W        W83146  34.613  33.730   2.164
11421W        W83147   8.670  10.382   5.108
11422W        W83148  36.671  16.923   0.422
11423W        W83149  20.244  35.854   4.209
11424W        W83150  13.725  24.038   2.683
11425W        W83151   9.118  31.177  13.431
11426W        W83152  27.833  42.560  11.137
11427W        W83153  21.134   9.804   4.396
11428W        W83154  13.960  13.233   1.360
11429W        W83155  20.189  20.640  10.811
11430W        W83156  33.320  44.423   0.556
11431W        W83157  20.241  26.466  12.385
11432W        W83158  12.063  15.223   1.488
11433W        W83159  12.446  11.213   4.223
11434W        W83160   6.472  26.169  11.728
11435W        W83161  14.527   5.807  12.554
11436W        W83162  35.570  18.301   2.812
11437W        W83163  20.774  17.993  10.680
11438W        W83164  23.492  19.517   3.291
11439W        W83165   4.845   2.978   1.395
11440W        W83166   9.341  32.311   0.308
11441W        W83167  33.844  26.479   4.591
11442W        W83168  17.051  19.737   0.324
11443W        W83169  39.974  29.142  14.838
11444W        W83170   7.861   2.900  12.421
11445W        W83171   1.343  14.322   1.690
11446W        W83172  34.917  20.959   0.894
11447W        W83173  30.006  16.690  13.834
11448W        W83174   2.419  15.730   1.099
11449W        W83175  33.755  20.540   3.165
11450W        W83176  35.617  13.675   1.501
11451W        W83177  43.889   7.495   3.736
11452W        W83178  24.086  26.545   2.436
11453W        W83179   4.282  26.907   3.806
11454W        W83180   4.167  19.050  14.871
11455W        W83181  19.675  37.758  11.418
11456W        W83182   6.720  23.968   1.762
11457W        W83183   4.031  41.839   0.277
11458W        W83184  22.746  36.359   1.839
11459W        W83185  39.628  11.163  12.103
11460W        W83186  36.323  21.664  13.743
11461W        W83187  38.004  18.009   0.975
11462W        W83188  16.740   1.524  12.352
11463W        W83189  33.425  38.097  13.735
11464W        W83190  43.114  13.904  10.481
11465W        W83191  14.141  18.524   2.862
11466W        W83192  26.992  39.964  14.887
11467W        W83193  30.819  32.449  14.788
11468W        W83194   2.442  21.052   4.131
11469W        W83195  12.304  35.750  11.923
11470W        W83196  42.893  29.963   4.111
11471W        W83197  29.200  41.212  11.620
11472W        W83198  32.626  29.819   0.255
11473W        W83199  11.769  31.937   0.475
11474W        W83200  41.274  26.897  11.419
11475W        W83201  39.409   1.892  12.580
11476W        W83202   4.290  15.687  11.065
11477W        W83203  31.497   8.602  11.698
11478W        W83204  15.876   7.466   3.718
11479W        W83205  26.171   5.414  12.733
11480W        W83206  37.371  38.422   1.876
11481W        W83207  11.740  19.997   3.083
11482W        W83208  39.273  36.166   0.388
11483W        W83209  28.900   1.168   0.443
11484W        W83210   5.292  16.082   4.894
11485W        W83211   3.926  20.611   3.055
11486W        W83212  39.063   3.254  12.823
11487W        W83213  35.002  16.625  10.653
11488W        W83214  25.556  31.635  11.933
11489W        W83215  20.405  23.547  12.023
11490W        W83216  32.145  23.020  14.324
11491W        W83217  17.793  39.351  13.785
11492W        W83218  32.870  32.405  13.477
11493W        W83219   0.590  37.538  12.900
11494W        W83220   1.178  13.098   3.668
11495W        W83221  11.963   7.149   3.304
11496W        W83222  15.038   9.473  11.886
11497W        W83223  12.734  10.350   1.793
11498W        W83224  36.597  21.867  14.405
11499W        W83225  20.184  32.329  12.942
11500W        W83226   7.199  12.656  14.737
11501W        W83227   9.238  38.176  13.499
11502W        W83228  20.444  37.555   4.916
11503W        W83229  25.774  26.092   0.040
11504W        W83230  32.131  12.710   2.903
11505W        W83231  11.696   8.448  11.937
11506W        W83232  25.690  29.429  12.441
11507W        W83233  21.005   3.966  10.741
11508W        W83234  24.515   9.175  10.687
11509W        W83235   6.367  29.248   4.135
11510W        W83236   5.970  14.829  10.931
11511W        W83237   2.019   5.116   3.235
11512W        W83238  42.133  25.596   4.723
11513W        W83239  35.527  19.676   3.724
11514W        W83240   7.070   8.421   2.165
11515W        W83241  14.744  32.039  11.267
11516W        W83242  19.260  22.113  14.349
11517W        W83243  36.988  12.578   0.203
11518W        W83244   7.687   1.083  13.984
11519W        W83245  32.084  30.929  12.602
11520W        W83246   3.912  11.138  11.981
11521W        W83247  43.981  12.325  10.313
11522W        W83248  37.469  28.462  10.559
11523W        W83249  24.244   7.261   3.238
11524W        W83250  31.444  24.101  10.527
11525W        W83251   0.047   5.216  12.108
11526W        W83252  28.920   8.361   4.143
11527W        W83253  24.184  18.561   2.661
11528W        W83254  11.781   2.395  10.422
11529W        W83255  44.540  13.831  10.259
11530W        W83256  30.008  32.352  11.045
11531W        W83257  19.537  19.047  11.516
11532W        W83258  16.056  42.178   0.996
11533W        W83259  20.341  39.594  10.706
11534W        W83260   3.615   0.812  14.930
11535W        W83261  20.492  23.654   1.231
11536W        W83262   6.459   8.174  10.581
11537W        W83263  14.706  14.177  14.939
11538W        W83264   5.365   6.779  14.305
11539W        W83265  27.553   0.910  10.482
11540W        W83266  23.467  23.263  11.699
11541W        W83267  21.966  27.698  14.770
11542W        W83268   6.150  16.273   3.588
11543W        W83269   7.270  21.751   3.185
11544W        W83270  26.304   6.391  10.669
11545W        W83271   2.331  23.826   2.434
11546W        W83272  12.730  23.225   1.140
11547W        W83273  22.087  16.040   4.324
11548W        W83274  11.982   8.132  13.553
11549W        W83275  11.646   2.235  13.853
11550W        W83276  31.396  13.336  14.932
11551W        W83277   5.793  43.386   2.812
11552W        W83278  14.627  31.170   2.608
11553W        W83279  12.536  42.316  14.299
11554W        W83280  35.090  40.968   2.674
11555W        W83281  30.577  26.741  12.950
11556W        W83282  43.266  37.527   0.141
11557W        W83283  10.232  36.244  10.898
11558W        W83284  11.711  42.073  14.113
11559W        W83285  32.551  44.268   3.290
11560W        W83286  33.483  28.637   9.897
11561W        W83287  33.083  32.017   4.305
11562W        W83288  32.941   2.810   0.764
11563W        W83289  22.688  35.576  12.915
11564W        W83290  25.063  22.005   4.504
11565W        W83291  22.202   8.259  10.718
11566W        W83292  33.576  18.069   2.101
11567W        W83293  39.046   2.750  10.810
11568W        W83294  27.861  42.985   4.562
11569W        W83295   0.455  12.196  14.992
11570W        W83296  26.522  28.061  13.944
11571W        W83297  26.413   9.904  11.516
11572W        W83298  11.192  18.598   0.099
11573W        W83299  21.075  32.515  14.492
11574W        W83300  41.876   1.663   5.173
11575W        W83301   4.693  35.524   2.267
11576W        W83302  14.582  40.315   3.202
11577W        W83303  43.996  23.015   3.190
11578W        W83304  31.125   0.237   0.339
11579W        W83305  18.817   8.922  13.291
11580W        W83306  38.408   6.391   4.829
11581W        W83307  16.310  20.571   4.620
11582W        W83308  34.491  23.000  14.769
11583W        W83309   8.353  21.241  10.948
11584W        W83310  27.202  18.106   0.363
11585W        W83311  28.498  40.395   1.016
11586W        W83312   1.398  21.950   2.380
11587W        W83313  18.745  43.763   2.218
11588W        W83314  24.122  28.165   0.388
11589W        W83315   6.336   3.297   3.420
11590W        W83316  43.745  42.731  10.665
11591W        W83317   8.732  30.661   4.591
11592W        W83318  41.450  14.410   0.917
11593W        W83319  18.052   4.356   2.884
11594W        W83320  39.934  43.357   4.931
11595W        W83321  11.890   8.105   4.217
11596W        W83322  41.808  42.277   2.331
11597W        W83323  20.077   2.949  12.022
11598W        W83324   4.753   3.167   1.879
11599W        W83325  28.284  14.097  11.417
11600W        W83326  28.986  25.630   1.886
11601W        W83327   3.921  38.118  12.916
11602W        W83328  26.102  34.099  12.588
11603W        W83329  39.294  42.784   3.852
11604W        W83330  43.851  37.298  11.164
11605W        W83331  25.634   9.725   4.049
11606W        W83332  33.444  28.597   1.364
11607W        W83333  36.276  22.657   4.077
11608W        W83334  40.890   3.749   4.375
11609W        W83335  20.825  11.695  11.072
11610W        W83336  44.004  36.007  13.057
11611W        W83337   2.333  25.757  10.640
11612W        W83338  21.796  39.596   0.732
11613W        W83339  33.091  32.943   3.649
11614W        W83340  39.759  15.679  14.425
11615W        W83341   2.697   5.305   0.306
11616W        W83342  40.435   6.428   4.627
11617W        W83343  43.568  29.513   2.345
11618W        W83344  39.028  17.853   0.744
11619W        W83345  21.992   2.843  13.835
11620W        W83346  33.691  35.098  14.943
11621W        W83347   8.157  40.517  11.758
11622W        W83348  18.359  19.469   3.210
11623W        W83349   4.241  17.174   2.766
11624W        W83350   3.618  29.510  13.937
11625W        W83351   7.858  34.378  11.642
11626W        W83352   2.320  34.099   1.375
11627W        W83353  20.118  28.233   4.715
11628W        W83354   9.006   8.944  12.973
11629W        W83355  40.065  22.792  14.456
11630W        W83356   4.189  33.327  11.106
11631W        W83357  23.749  27.633   0.204
11632W        W83358  36.885  15.608  14.441
11633W        W83359   8.400  23.350  13.905
11634W        W83360  23.642  11.742   3.048
11635W        W83361  30.232  17.221   3.667
11636W        W83362   4.255  38.914  11.082
11637W        W83363   5.699  16.894  12.905
11638W        W83364  24.135  18.207   4.340
11639W        W83365  15.719  27.401   1.738
11640W        W83366  10.379  17.281   4.282
11641W        W83367   0.252  10.638   2.074
11642W        W83368  29.423  20.708   0.425
11643W        W83369  10.667   2.204  13.534
11644W        W83370  13.228  27.233  13.377
11645W        W83371  39.730  17.262  14.102
11646W        W83372   1.847  22.720  14.066
11647W        W83373  15.647  12.439  14.572
11648W        W83374   9.228   4.017   3.122
11649W        W83375   4.605  20.760   0.009
11650W        W83376  32.015  30.616   2.143
11651W        W83377  14.781  26.478   9.867
11652W        W83378   2.445  24.579   0.491
11653W        W83379  28.706  28.090   2.228
11654W        W83380  25.899  32.949  13.050
11655W        W83381   8.343  10.703  11.630
11656W        W83382   8.628  24.578   2.328
11657W        W83383  21.582  37.373  14.776
11658W        W83384  19.270  31.719   2.725
11659W        W83385  12.103  11.421   1.476
11660W        W83386  18.594  28.450   3.299
11661W        W83387   2.701  25.742  14.944
11662W        W83388  11.417  16.784  14.696
11663W        W83389  36.104  24.018  10.713
11664W        W83390  42.614   7.771   3.941
11665W        W83391   4.261   5.135   0.776
11666W        W83392   5.054   2.573  14.768
11667W        W83393   1.825  40.614   3.077
11668W        W83394  25.133  21.161  11.493
11669W        W83395  37.815   3.999  13.798
11670W        W83396   7.260  20.009  13.813
11671W        W83397  12.862  29.091   3.840
11672W        W83398  14.873  18.807  11.665
11673W        W83399  41.895  19.477   4.555
11674W        W83400  19.017  12.695   1.739
11675W        W83401  13.671  26.536   3.856
11676W        W83402  33.910  41.075  14.437
11677W        W83403  19.357  36.331  11.083
11678W        W83404  44.985  21.694   2.284
11679W        W83405   0.789  22.961   1.973
11680W        W83406   9.872  14.975   5.102
11681W        W83407  40.623  28.532   1.388
11682W        W83408  33.101  16.575   0.482
11683W        W83409  40.523  42.855   0.382
11684W        W83410  43.468  13.760  11.932
11685W        W83411  24.110  38.086   4.526
11686W        W83412   6.786  37.411   1.721
11687W        W83413  35.832   2.276   0.327
11688W        W83414  40.305  34.001  12.280
11689W        W83415  13.237  32.673  13.321
11690W        W83416  21.698  33.688  11.129
11691W        W83417  24.029  36.654   3.234
11692W        W83418  12.851  30.599   3.122
11693W        W83419  41.577   3.351  10.722
11694W        W83420  20.587  32.715  12.806
11695W        W83421  38.397  42.975  13.482
11696W        W83422  10.644   5.507  13.401
11697W        W83423   3.410  21.543  14.200
11698W        W83424   4.694  33.652  11.989
11699W        W83425   6.626   2.485   1.308
11700W        W83426  41.015  16.575  11.272
11701W        W83427  24.234  33.037   1.339
11702W        W83428  23.131  43.863  14.993
11703W        W83429  40.455   1.031  13.359
11704W        W83430  20.566  10.021   1.654
11705W        W83431  17.721  10.210   0.980
11706W        W83432   9.055  12.888   1.250
11707W        W83433   2.868  24.624   0.194
11708W        W83434  34.335   2.314   0.662
11709W        W83435  19.466  28.358  14.741
11710W        W83436  19.615   4.766  14.277
11711W        W83437  15.253   8.996   3.781
11712W        W83438  13.301  35.232  13.399
11713W        W83439  25.194  20.713  10.599
11714W        W83440  44.209  34.639   1.128
11715W        W83441   9.367  37.766  11.587
11716W        W83442  21.588   0.955  14.316
11717W        W83443  27.633  41.683   1.112
11718W        W83444  15.061  10.652   0.920
11719W        W83445  27.485  32.050  14.947
11720W        W83446   4.673  12.164   0.304
11721W        W83447  20.570  18.335   0.904
11722W        W83448  33.177  39.021   1.341
11723W        W83449  24.717  41.505   0.416
11724W        W83450   1.971  28.870  11.052
11725W        W83451   1.900   2.861   0.175
11726W        W83452  41.088  29.610   3.115
11727W        W83453  25.721  44.269  14.908
11728W        W83454  40.447   3.783  11.563
11729W        W83455   6.665  13.271   5.092
11730W        W83456  36.417   3.030   0.284
11731W        W83457  29.249   0.883   2.268
11732W        W83458  21.114  26.235   0.943
11733W        W83459  44.919  33.488   1.495
11734W        W83460  34.826  35.389  12.917
11735W        W83461  20.950  20.185  13.334
11736W        W83462   5.688  15.151   2.828
11737W        W83463  14.579   9.774  11.218
11738W        W83464  27.212  11.338  13.981
11739W        W83465  10.213  24.783   2.898
11740W        W83466  44.789   6.547  12.119
11741W        W83467   6.660  27.727  11.246
11742W        W83468   3.390  34.114  12.065
11743W        W83469   4.840  42.108  11.542
11744W        W83470  43.723  44.025  11.745
11745W        W83471  34.561   3.442   1.413
11746W        W83472  41.007  25.566  11.146
11747W        W83473  36.912   0.992   1.260
11748W        W83474   4.387  41.491   2.846
11749W        W83475   6.811  16.092   9.769
11750W        W83476  26.893  31.463  11.642
11751W        W83477  11.629  27.357  14.266
11752W        W83478   9.193  26.699  10.440
11753W        W83479  44.873  14.094   0.278
11754W        W83480  37.364  34.632   2.851
11755W        W83481  40.165  39.860  10.997
11756W        W83482  25.742  23.017   1.687
11757W        W83483   7.259  12.557   1.290
11758W        W83484  25.621  41.034   1.284
11759W        W83485  12.208  14.209  14.720
11760W        W83486  29.047   8.867  14.272
11761W        W83487  10.480  26.133   1.228
11762W        W83488  28.459  14.233  12.978
11763W        W83489  31.911  29.453   2.263
11764W        W83490   3.184  38.564   1.371
11765W        W83491  17.203  15.354  10.994
11766W        W83492  25.790   7.547  11.628
11767W        W83493  31.615  27.695  10.760
11768W        W83494   6.296  33.197  11.952
11769W        W83495  24.126  37.430  12.010
11770W        W83496  32.379   3.713   0.254
11771W        W83497  22.731  39.521  11.098
11772W        W83498  42.807  28.812  14.245
11773W        W83499  39.788  33.636   4.443
11774W        W83500  41.526  38.984   2.586
11775W        W83501  14.091  31.845   2.751
11776W        W83502  24.798   9.784  12.164
11777W        W83503   8.853  21.655   2.394
11778W        W83504   6.902  22.566   4.525
11779W        W83505  30.068   3.510  10.806
11780W        W83506  35.676  12.229   4.177
11781W        W83507   5.640   4.002  14.308
11782W        W83508  10.364  32.020   1.030
11783W        W83509  43.327  43.516  11.490
11784W        W83510  32.019  16.768  13.024
11785W        W83511  38.051  44.304  11.063
11786W        W83512  42.894   5.227   2.973
11787W        W83513  21.132   2.193  14.736
11788W        W83514   7.604   2.376  12.112
11789W        W83515   7.257  15.020   2.816
11790W        W83516  20.143  19.742  10.318
11791W        W83517  31.889  11.955   3.562
11792W        W83518  10.138  12.595   3.541
11793W        W83519   7.384  43.264   3.607
11794W        W83520  27.419  36.515   4.340
11795W        W83521  12.338  37.790  12.662
11796W        W83522   3.968   3.341   4.613
11797W        W83523  42.456  21.303   3.682
11798W        W83524   2.176   7.698   3.097
11799W        W83525  36.794  38.307  13.941
11800W        W83526   9.980  29.426  14.698
11801W        W83527  19.177   7.313  11.871
11802W        W83528  22.138   7.391   2.464
11803W        W83529  36.444  17.876   0.398
11804W        W83530   3.654  39.383   4.291
11805W        W83531   7.724  14.580   4.509
11806W        W83532  11.771  11.594   1.856
11807W        W83533  11.933  38.440  14.908
11808W        W83534  34.136  24.739   2.401
11809W        W83535  36.598  22.787  12.055
11810W        W83536  20.312  26.052  10.565
11811W        W83537   8.258   4.002  14.811
11812W        W83538   8.478  33.376  14.019
11813W        W83539   1.362  43.925   2.487
11814W        W83540   4.523  12.892  10.499
11815W        W83541  21.677  32.544  12.153
11816W        W83542  36.020   8.160  12.052
11817W        W83543  38.573  18.440  12.831
11818W        W83544   6.142  27.178  12.546
11819W        W83545   9.689  32.406  13.325
11820W        W83546  36.741  11.543   4.810
11821W        W83547  24.726  21.961  12.598
11822W        W83548  20.712  12.606   3.710
11823W        W83549   2.972  24.631   3.313
11824W        W83550  32.872  26.519  10.181
11825W        W83551  19.523   9.467   2.316
11826W        W83552  12.640   0.286  14.227
11827W        W83553  38.422  24.179  13.104
11828W        W83554   6.326  42.494   3.392
11829W        W83555  41.605  20.634  14.903
11830W        W83556   4.726  28.573   5.113
11831W        W83557  33.004  28.007   4.652
11832W        W83558  27.613  25.252   3.186
11833W        W83559  12.835  20.644   0.017
11834W        W83560  31.066  10.537   1.676
11835W        W83561  36.450  39.254   2.265
11836W        W83562  25.513  18.664  10.796
11837W        W83563  16.122  15.818  14.262
11838W        W83564  43.208  10.675  11.124
11839W        W83565   9.794  31.884  13.487
11840W        W83566  18.787  31.216  13.854
11841W        W83567  38.659  15.478  12.987
11842W        W83568   6.872   4.933   0.370
11843W        W83569  12.558  41.820  12.983
11844W        W83570  16.318  22.970   3.260
11845W        W83571   3.426  31.465  13.003
11846W        W83572  10.979  35.458  13.978
11847W        W83573  23.597  32.908   3.143
11848W        W83574   6.487  30.350   2.898
11849W        W83575  12.639  32.885   1.414
11850W        W83576  28.939  10.709  12.087
11851W        W83577  26.693  32.675  14.236
11852W        W83578  26.555  27.730   3.018
11853W        W83579  44.476   6.376   2.799
11854W        W83580   1.246  30.952  10.600
11855W        W83581  39.929  13.164  13.350
11856W        W83582  32.139  35.065   4.603
11857W        W83583  18.384   9.093  14.547
11858W        W83584  15.008   7.123   0.823
11859W        W83585   7.772  17.451  13.865
11860W        W83586   2.359   8.895  11.226
11861W        W83587  10.243   6.915   0.918
11862W        W83588   3.174   7.217   4.317
11863W        W83589  17.679  29.452   2.128
11864W        W83590  31.881   9.201  12.640
11865W        W83591  36.679  43.876  11.129
11866W        W83592  23.605  36.479  13.123
11867W        W83593  14.276   4.674   1.678
11868W        W83594  44.972  14.884  14.046
11869W        W83595  15.277  36.442   3.836
11870W        W83596  25.682  35.976  14.861
11871W        W83597  35.394  13.623  10.779
11872W        W83598  15.009  33.171   0.531
11873W        W83599  13.347  14.706   2.780
11874W        W83600  36.088  11.308   0.890
11875W        W83601  37.687  16.883  13.603
11876W        W83602  21.731  34.315  13.362
11877W        W83603  26.771  43.265   0.501
11878W        W83604  29.575   2.592  12.630
11879W        W83605  14.277  30.389  11.506
11880W        W83606  35.360   2.360   0.515
11881W        W83607  27.596  44.388   4.699
11882W        W83608   9.612  25.231   1.879
11883W        W83609  26.010  24.016  14.894
11884W        W83610  14.060  41.897  14.003
11885W        W83611   3.002  20.216  11.596
11886W        W83612  21.742  16.503  13.494
11887W        W83613  31.976  37.711   4.206
11888W        W83614  15.978  36.546  14.463
11889W        W83615   9.269   1.397  10.707
11890W        W83616  31.203  21.184   1.304
11891W        W83617  34.611  22.048   4.226
11892W        W83618  21.090  21.795  11.563
11893W        W83619  15.255   6.319   1.368
11894W        W83620   9.145   5.738   2.329
11895W        W83621  29.155  28.426  10.766
11896W        W83622  12.078  30.838   1.214
11897W        W83623  18.368  11.734   4.650
11898W        W83624  18.092  34.598   2.396
11899W        W83625  37.891  22.075   3.668
11900W        W83626  21.676   2.925  10.795
11901W        W83627  23.048  29.031  10.854
11902W        W83628   4.893  34.855   0.325
11903W        W83629  19.486  24.629  14.386
11904W        W83630  20.182  36.419   2.918
11905W        W83631  23.687  36.623  11.528
11906W        W83632  13.419   3.607  14.468
11907W        W83633  17.569   4.867   1.917
11908W        W83634  12.443   4.321  13.880
11909W        W83635  38.915  32.369   1.776
11910W        W83636  30.004  23.671   1.892
11911W        W83637  37.341  31.809   1.794
11912W        W83638  20.092  23.762  14.333
11913W        W83639  35.806  37.991  10.936
11914W        W83640  31.369  11.896  14.502
11915W        W83641   1.624   2.247  13.695
11916W        W83642  40.269  12.602  14.452
11917W        W83643  39.152  37.451   2.345
11918W        W83644   4.288  37.011   2.716
11919W        W83645   4.845   3.382   2.833
11920W        W83646   7.926  15.360   3.882
11921W        W83647  22.484   5.075   0.804
11922W        W83648  21.373  21.243   2.040
11923W        W83649  31.131  43.945   4.172
11924W        W83650  34.461  18.351  11.681
11925W        W83651  33.213  28.229  13.805
11926W        W83652   7.796  43.913   4.704
11927W        W83653  43.084   0.784  13.467
11928W        W83654  14.044  33.073  12.863
11929W        W83655  38.741  14.494   0.316
11930W        W83656  31.203  41.614  10.070
11931W        W83657  17.999  44.024   3.304
11932W        W83658  15.084  14.731   0.871
11933W        W83659   6.440   4.678   0.246
11934W        W83660  32.082  21.721   0.379
11935W        W83661  12.099  35.068   2.305
11936W        W83662  43.287  19.147   1.681
11937W        W83663  42.790   6.021   1.175
11938W        W83664  36.985  24.348  12.936
11939W        W83665   6.732  18.194  13.066
11940W        W83666  32.095  25.588  11.104
11941W        W83667  12.676  40.523   3.205
11942W        W83668  15.290  31.893  13.762
11943W        W83669  17.771   0.291   4.097
11944W        W83670   7.348   1.404  10.707
11945W        W83671  31.648  38.692  11.489
11946W        W83672  39.514  22.766  10.394
11947W        W83673  19.751  19.724  11.613
11948W        W83674  27.606   6.995   3.236
11949W        W83675   3.691  43.329  11.149
11950W        W83676  26.096  38.204   4.216
11951W        W83677  33.712  28.750  10.927
11952W        W83678   0.396  39.931  11.886
11953W        W83679  26.392   0.605  13.274
11954W        W83680  12.883  25.041  13.835
11955W        W83681  19.701   2.486   0.248
11956W        W83682  15.604  18.334  10.038
11957W        W83683  19.123  20.712   2.379
11958W        W83684  21.927  30.715  13.414
11959W        W83685  34.861  27.758   1.352
11960W        W83686  13.296  35.924   2.411
11961W        W83687  39.472  12.235   4.039
11962W        W83688  41.940  19.723   1.193
11963W        W83689  42.649   7.990  14.391
11964W        W83690  17.591  22.535   4.741
11965W        W83691  36.144  19.487  12.409
11966W        W83692  35.235  11.624   2.147
11967W        W83693  20.688  22.099   4.933
11968W        W83694  32.108  27.541   0.067
11969W        W83695  31.888  40.066   1.317
11970W        W83696   6.962   6.742   3.796
11971W        W83697  11.251  12.530   3.372
11972W        W83698  20.870  24.389   2.414
11973W        W83699  30.162  30.976   4.618
11974W        W83700  18.743  39.262  10.953
11975W        W83701  23.923  30.152  12.534
11976W        W83702  35.296  30.970  10.732
11977W        W83703  31.964  14.360   0.739
11978W        W83704  12.651  28.097  13.396
11979W        W83705  24.238  18.329   3.130
11980W        W83706  22.272  24.214   3.671
11981W        W83707  34.160   0.927   3.380
11982W        W83708  28.087  17.913   1.162
11983W        W83709   4.499   3.408   1.470
11984W        W83710  44.073  13.913   5.096
11985W        W83711   0.882  30.799   3.638
11986W        W83712  41.039  15.536  13.852
11987W        W83713  13.766  31.402   0.191
11988W        W83714  36.409  29.685  12.872
11989W        W83715   1.373   5.947  11.536
11990W        W83716  16.718  12.412  12.999
11991W        W83717  15.048  36.146  12.541
11992W        W83718  13.857  32.202  11.411
11993W        W83719  16.586  29.595  12.854
11994W        W83720  28.481   5.940   0.382
11995W        W83721  27.401  23.521  13.899
11996W        W83722   7.812   0.377   1.259
11997W        W83723  30.105  15.528  14.840
11998W        W83724   6.770   5.327  11.850
11999W        W83725  12.400  18.093  11.556
12000W        W83726  13.642   0.533  11.156
12001W        W83727  22.846  43.257   2.825
12002W        W83728  23.536   4.337  11.420
12003W        W83729  33.207  35.513  14.297
12004W        W83730   5.432  22.999  11.094
12005W        W83731  27.470  35.642   4.541
12006W        W83732  19.558  15.917  11.532
12007W        W83733  20.590  18.528   3.674
12008W        W83734  20.556  18.139  13.972
12009W        W83735  27.659  33.881   1.162
12010W        W83736  11.239  33.896   5.567
12011W        W83737  13.413   3.143   0.744
12012W        W83738   7.298  39.743  12.727
12013W        W83739  36.819  37.967  13.543
12014W        W83740  29.439  40.617   2.575
12015W        W83741  29.671  38.933  14.264
12016W        W83742  29.847  28.452   3.269
12017W        W83743  22.064  12.880   2.112
12018W        W83744  29.001  15.830   2.876
12019W        W83745   9.895   3.443  14.322
12020W        W83746   7.922  15.397   1.142
12021W        W83747  10.003  15.250  14.864
12022W        W83748  39.792   2.604  11.134
12023W        W83749  15.636   2.709   4.556
12024W        W83750  27.379  41.449  11.597
12025W        W83751  18.679  28.178   0.442
12026W        W83752  39.993   5.056  12.525
12027W        W83753  31.020  38.449   2.131
12028W        W83754  35.854  16.711   1.825
12029W        W83755  35.053  30.135  10.352
12030W        W83756  22.543  43.294   1.387
12031W        W83757  43.908  15.755  14.313
12032W        W83758  24.260  39.862  12.505
12033W        W83759  34.246  25.609   1.879
12034W        W83760  26.482  13.871  14.813
12035W        W83761  31.896  10.374   3.085
12036W        W83762  20.645   2.555  13.018
12037W        W83763  23.926  43.881   3.643
12038W        W83764   4.435  28.933   1.847
12039W        W83765  30.935   0.274   3.612
12040W        W83766  11.651  42.018   1.598
12041W        W83767  23.081  25.526   9.780
12042W        W83768  36.642   2.102  14.533
12043W        W83769  21.554  10.330  11.963
12044W        W83770  13.880  19.621   2.775
12045W        W83771  21.459  42.235  12.035
12046W        W83772  21.659   2.441  10.567
12047W        W83773  35.576  29.531   4.162
12048W        W83774  42.342  34.998   3.635
12049W        W83775  10.103  13.296  14.892
12050W        W83776  25.736  44.730  12.965
12051W        W83777  18.644  27.932  10.668
12052W        W83778   5.126  43.395   1.769
12053W        W83779  40.353  37.931   1.646
12054W        W83780  36.882  31.585  11.284
12055W        W83781   4.206   1.373   1.834
12056W        W83782  33.703  25.082  13.600
12057W        W83783  32.571  17.474   1.265
12058W        W83784  21.447  40.800   0.328
12059W        W83785  41.117   1.953   1.458
12060W        W83786  12.457  16.141  14.114
12061W        W83787   3.649  18.709  12.098
12062W        W83788  28.664  38.602  12.243
12063W        W83789  43.549  14.942   3.811
12064W        W83790  25.481  34.039  11.959
12065W        W83791  33.905  23.224   0.472
12066W        W83792  35.041  14.584   0.946
12067W        W83793  29.850  44.045   2.322
12068W        W83794  34.860  23.751  11.923
12069W        W83795  36.914  21.354  11.092
12070W        W83796  37.870   7.908   0.264
12071W        W83797  23.151  23.215   1.344
12072W        W83798   6.362   5.777  10.860
12073W        W83799  44.789  30.434  12.421
12074W        W83800   9.644  16.616  11.934
12075W        W83801  31.019  26.633   0.042
12076W        W83802  14.661  17.755  12.174
12077W        W83803  15.758   4.762   0.993
12078W        W83804  10.225  17.773  14.426
12079W        W83805   3.247  26.209   1.812
12080W        W83806  42.361  14.864  10.342
12081W        W83807  44.499  11.264   3.302
12082W        W83808  43.457  43.847   4.572
12083W        W83809  41.552  34.511   1.452
12084W        W83810  36.370  41.479  11.193
12085W        W83811   7.128  10.319  13.138
12086W        W83812   1.166  17.115  14.507
12087W        W83813  12.162  16.549   2.213
12088W        W83814  21.854  18.995   3.784
12089W        W83815  31.430  13.329   4.068
12090W        W83816   3.886  26.097   1.607
12091W        W83817  26.264  40.518  11.495
12092W        W83818  20.613  11.311   2.204
12093W        W83819  31.586  25.920   0.832
12094W        W83820  10.514  39.590  11.641
12095W        W83821  23.498  12.045  10.031
12096W        W83822   5.056  33.637  14.446
12097W        W83823  10.692   8.095  13.979
12098W        W83824  41.503  19.531  12.458
12099W        W83825  16.571   5.374   3.279
12100W        W83826   3.737  21.579   4.830
12101W        W83827  43.403  23.505   3.207
12102W        W83828   4.645  20.353   4.163
12103W        W83829  40.383  26.064   4.719
12104W        W83830  22.605  20.414  11.696
12105W        W83831   6.672  40.808   2.785
12106W        W83832   2.092  40.305   2.728
12107W        W83833   9.038  11.866   3.388
12108W        W83834   3.094  42.210   2.724
12109W        W83835  41.231  43.994  14.192
12110W        W83836  39.633  27.855   3.497
12111W        W83837   8.557   7.926  11.145
12112W        W83838  24.426  29.921  14.522
12113W        W83839   2.088  13.407  13.913
12114W        W83840  41.251  30.270   0.236
12115W        W83841  37.896  27.553   4.227
12116W        W83842  40.345  17.119   0.913
12117W        W83843  42.851  23.283   0.895
12118W        W83844   8.415  16.689   0.721
12119W        W83845  36.897  36.650   2.844
12120W        W83846  26.909  20.250   2.310
12121W        W83847  24.206   5.234  12.100
12122W        W83848  15.450   7.367   0.966
12123W        W83849  31.627  14.278   4.208
12124W        W83850   3.867   8.854   1.332
12125W        W83851  42.621   3.388   2.859
12126W        W83852   3.628  37.764   0.460
12127W        W83853  34.087   1.861   0.530
12128W        W83854  28.156  33.592   3.579
12129W        W83855   0.750  18.380  14.410
12130W        W83856  40.408  18.868  13.898
12131W        W83857  17.210   4.930  10.451
12132W        W83858  32.111  38.947  11.550
12133W        W83859  28.980  28.789   4.641
12134W        W83860  35.017  34.006   2.349
12135W        W83861   5.418  13.396   3.580
12136W        W83862  21.751   5.373   3.364
12137W        W83863  12.300   4.495   1.424
12138W        W83864  16.359  39.043   2.646
12139W        W83865  40.322  11.788  13.980
12140W        W83866  39.527  40.532   3.900
12141W        W83867  33.035  21.901  11.640
12142W        W83868  19.217  43.776  14.874
12143W        W83869  37.146  39.085   0.534
12144W        W83870  42.758  31.180   1.315
12145W        W83871   3.078  43.958  11.508
12146W        W83872  27.625   8.196  11.626
12147W        W83873  39.743  26.563   3.586
12148W        W83874  35.150  28.638   4.385
12149W        W83875  14.807   1.086   2.648
12150W        W83876  32.874  13.021   0.019
12151W        W83877   0.750  36.785   3.319
12152W        W83878  42.746  16.692  11.630
12153W        W83879   5.432  39.402   2.731
12154W        W83880  21.738  28.203  12.493
12155W        W83881   0.312  13.383  10.937
12156W        W83882  32.875  29.560   2.296
12157W        W83883   2.968  12.650  14.287
12158W        W83884   8.932   3.932  11.634
12159W        W83885  34.535   5.292   2.359
12160W        W83886  20.676  10.587  14.849
12161W        W83887  32.058   1.201  13.185
12162W        W83888  16.496  43.385   0.569
12163W        W83889  29.865  11.750   2.733
12164W        W83890   5.815  12.918   1.006
12165W        W83891  29.581  42.858   2.720
12166W        W83892   0.244  32.937   1.489
12167W        W83893  33.031   2.672  12.031
12168W        W83894  37.982  18.239  11.217
12169W        W83895  39.474  31.490  11.629
12170W        W83896  20.593  29.008   4.537
12171W        W83897  40.858  43.712  14.493
12172W        W83898  13.407  21.466   1.521
12173W        W83899   8.859  24.808  14.805
12174W        W83900  25.064  14.309  12.183
12175W        W83901  10.644  32.334  13.597
12176W        W83902   2.754  11.645   2.264
12177W        W83903   3.721  26.427  10.728
12178W        W83904  40.560  19.345  14.051
12179W        W83905  38.965  41.531   4.270
12180W        W83906   4.523  14.411   1.209
12181W        W83907  38.899  26.847  13.045
12182W        W83908  23.480   8.315  12.828
12183W        W83909  20.770  40.300   2.281
12184W        W83910  32.571  28.099  10.187
12185W        W83911  37.064  22.931  13.035
12186W        W83912  24.966   8.646   2.399
12187W        W83913  39.232  33.366   2.382
12188W        W83914  43.798  13.316   2.237
12189W        W83915  26.844  22.798   4.203
12190W        W83916  10.705  22.583   4.151
12191W        W83917  37.357   5.189   4.101
12192W        W83918   3.753  36.470  13.418
12193W        W83919   7.923   6.721  10.967
12194W        W83920  30.047   5.930   4.701
12195W        W83921  24.179  31.882  13.120
12196W        W83922  21.959  38.915   1.840
12197W        W83923  43.574  44.971  12.416
12198W        W83924  36.545   7.300   0.042
12199W        W83925  41.520  33.708   0.328
12200W        W83926  31.826   7.681   0.270
12201W        W83927   0.414  16.513  14.412
12202W        W83928  21.504  15.004  12.440
12203W        W83929   6.816  35.968  11.947
12204W        W83930  10.177  33.949   4.415
12205W        W83931  23.746   6.858   4.725
12206W        W83932  19.515  20.120  10.593
12207W        W83933  25.474  24.800   4.109
12208W        W83934  22.175   7.288   2.968
12209W        W83935   6.452  39.977  13.913
12210W        W83936  11.169   9.802   2.267
12211W        W83937  28.340   3.879   0.454
12212W        W83938  34.310  20.617  12.063
12213W        W83939   9.894   5.222  14.940
12214W        W83940  11.372  25.229   2.480
12215W        W83941   0.653  18.102   1.486
12216W        W83942   5.955  39.817   2.875
12217W        W83943  31.581  31.535  12.828
12218W        W83944  25.179  33.441   1.418
12219W        W83945   7.436   4.370  10.507
12220W        W83946  10.962  10.929  12.117
12221W        W83947  29.977  44.275  14.046
12222W        W83948  24.706  34.929  13.445
12223W        W83949  25.081  41.887   3.744
12224W        W83950  37.905  23.703   0.887
12225W        W83951  34.870  13.113  12.426
12226W        W83952   3.836  27.671  11.059
12227W        W83953  38.224  18.802   1.201
12228W        W83954  36.578  24.755   0.925
12229W        W83955  32.419  24.205  13.240
12230W        W83956  39.968  25.729   2.276
12231W        W83957  15.068  28.541   1.930
12232W        W83958   8.245  44.824   2.890
12233W        W83959  35.457  17.261   4.650
12234W        W83960  29.435  25.385   1.858
12235W        W83961  40.052  43.176   0.574
12236W        W83962  15.183   7.411   1.908
12237W        W83963   4.459  44.164   3.827
12238W        W83964  25.522   2.350  12.558
12239W        W83965  18.208  20.502  14.320
12240W        W83966  23.470  15.651   1.181
12241W        W83967   5.307  12.094  12.677
12242W        W83968  16.606   0.797   3.179
12243W        W83969  29.158  38.502   3.225
12244W        W83970  28.553   5.306  12.516
12245W        W83971  31.921  34.388  14.886
12246W        W83972  14.793  41.606   1.099
12247W        W83973  10.228  44.874   0.485
12248W        W83974  27.671  44.689   1.237
12249W        W83975  23.972  13.118  13.523
12250W        W83976   6.730  24.042   0.249
12251W        W83977   2.882  34.638   3.631
12252W        W83978  39.452  32.407   4.453
12253W        W83979  26.520  36.060  14.333
12254W        W83980  40.795   1.914   1.035
12255W        W83981  43.279  37.309  12.429
12256W        W83982  44.584  22.034   1.425
12257W        W83983  44.267  24.324  13.006
12258W        W83984   2.040  38.600   2.254
12259W        W83985  13.068  14.259   2.751
12260W        W83986  36.066  40.937  10.698
12261W        W83987  18.417  40.247  11.651
12262W        W83988   8.270   8.691   5.047
12263W        W83989  22.252  10.198  13.473
12264W        W83990  29.409   8.032   2.459
12265W        W83991   2.912  17.007   2.044
12266W        W83992   8.149  22.743  12.930
12267W        W83993   1.839  14.484  11.427
12268W        W83994  40.694  35.602  11.065
12269W        W83995  12.385  33.472   1.389
12270W        W83996  16.166  11.379  11.131
12271W        W83997  43.016  42.904   3.647
12272W        W83998  17.735  17.289   3.851
12273W        W83999  21.110  33.209  12.943
12274W        W84000  16.125  22.128  11.854
12275W        W84001  29.504   4.706  13.940
12276W        W84002   9.299  26.221  13.828
12277W        W84003  13.680   4.243   3.713
12278W        W84004   6.466  36.716  13.342
12279W        W84005   5.557  18.778  14.791
12280W        W84006  28.216  10.758  12.972
12281W        W84007  18.151  26.969   2.445
12282W        W84008   7.133  16.715  13.739
12283W        W84009   2.990  27.002  14.363
12284W        W84010  20.137   9.192  11.566
12285W        W84011  30.392  31.857   5.051
12286W        W84012  12.629  23.689   1.747
12287W        W84013  32.463   8.444   0.791
12288W        W84014  22.117  16.113   4.839
12289W        W84015  14.467  24.213  13.501
12290W        W84016  36.390  27.982  11.734
12291W        W84017  28.968  43.870   1.827
12292W        W84018  41.961  13.534  12.165
12293W        W84019  19.327   3.773   2.780
12294W        W84020  26.077  16.884   1.215
12295W        W84021   2.403  10.390  12.940
12296W        W84022  25.181  35.154  13.472
12297W        W84023   9.233  38.018  12.433
12298W        W84024  40.433  35.962  12.811
12299W        W84025   2.903  44.578   1.209
12300W        W84026  38.410  22.712  11.217
12301W        W84027  28.104  32.642  13.428
12302W        W84028   7.175  11.079  10.597
12303W        W84029  24.088   2.548  12.525
12304W        W84030  23.190  31.645   4.719
12305W        W84031   8.808  15.878  14.535
12306W        W84032  21.062  16.476   1.499
12307W        W84033  41.105  19.770  13.313
12308W        W84034   7.286  41.745  14.392
12309W        W84035  19.198  23.578   3.944
12310W        W84036  16.255  35.617   3.655
12311W        W84037  26.532  23.233  12.776
12312W        W84038  25.767  17.770   1.852
12313W        W84039  43.695  29.778   0.367
12314W        W84040   6.944  11.347   2.941
12315W        W84041  11.862   4.405  12.884
12316W        W84042  32.993  28.964   4.489
12317W        W84043  43.846   5.345   2.942
12318W        W84044  14.587  40.823   2.448
12319W        W84045  31.188  28.445   3.656
12320W        W84046  42.064   0.392   2.269
12321W        W84047  12.746  30.013   0.068
12322W        W84048  17.624  21.533   4.319
12323W        W84049  21.650  26.887   3.910
12324W        W84050   9.293  40.025  12.476
12325W        W84051  22.074  44.728   1.919
12326W        W84052  32.863   4.747  14.422
12327W        W84053   8.679  26.432   3.174
12328W        W84054  41.531  33.896   4.155
12329W        W84055  27.603  28.330   2.399
12330W        W84056  34.912   3.307   3.510
12331W        W84057  37.072   9.985   1.371
12332W        W84058   0.499  43.935  14.776
12333W        W84059  28.503  36.666  12.146
12334W        W84060  11.287  11.176  14.973
12335W        W84061  20.712  26.592   3.872
12336W        W84062  39.788   9.797   3.162
12337W        W84063  14.361  11.594   5.041
12338W        W84064  28.741  25.611   3.240
12339W        W84065   0.400  42.645   3.370
12340W        W84066  15.653  26.571  12.382
12341W        W84067  29.631   4.893   0.882
12342W        W84068  11.739   8.231   0.949
12343W        W84069  22.948  11.790   2.233
12344W        W84070  31.902  11.085   4.632
12345W        W84071  15.090   9.016   0.293
12346W        W84072   3.049  21.000   3.797
12347W        W84073  24.242   7.176  12.198
12348W        W84074  19.003  36.854   1.682
12349W        W84075  43.361  35.476   1.693
12350W        W84076  33.532  34.811  11.435
12351W        W84077  13.349  21.030   2.218
12352W        W84078  28.032  25.665   4.347
12353W        W84079  44.554  26.017  13.327
12354W        W84080   3.162  38.979  11.881
12355W        W84081   0.446  13.403   2.200
12356W        W84082  17.619  41.993   4.599
12357W        W84083  43.733  21.365  11.183
12358W        W84084  23.858  25.773  13.437
12359W        W84085  36.002  16.546   0.806
12360W        W84086  34.488   9.710  11.556
12361W        W84087  21.134  29.633   0.380
12362W        W84088  27.821   1.804   3.174
12363W        W84089  32.534  17.593   3.884
12364W        W84090   2.357  24.367  13.749
12365W        W84091  23.209  14.663  12.386
12366W        W84092  13.130  11.098   0.262
12367W        W84093  39.924  39.699  14.940
12368W        W84094  39.591  13.519   2.380
12369W        W84095  33.166  27.889   1.322
12370W        W84096  11.301   9.656  13.765
12371W        W84097  33.364  39.367  14.601
12372W        W84098  16.091  17.203   4.582
12373W        W84099  35.599  34.331   2.432
12374W        W84100  37.855  29.211   3.830
12375W        W84101   9.347  24.871   3.065
12376W        W84102   3.430   2.570  12.508
12377W        W84103  22.012  38.058  13.179
12378W        W84104  20.038  30.105  12.069
12379W        W84105  31.662   9.414   0.001
12380W        W84106  22.397   3.430   2.343
12381W        W84107  25.683  23.957   2.644
12382W        W84108  43.402   4.349   3.722
12383W        W84109  12.104  29.085   3.356
12384W        W84110   0.833  20.060   4.036
12385W        W84111  29.899  16.860   0.303
12386W        W84112   6.134  44.822   3.983
12387W        W84113  11.100  27.492  12.341
12388W        W84114  19.951   8.553   5.180
12389W        W84115  34.024  16.073   3.929
12390W        W84116  32.914  39.524  14.382
12391W        W84117   2.193   4.286   1.416
12392W        W84118   2.719  22.445   4.663
12393W        W84119  14.957   7.741  11.552
12394W        W84120   2.268  41.932  11.897
12395W        W84121  10.972  25.047  14.282
12396W        W84122  35.042   3.385   1.755
12397W        W84123  34.280  26.524  13.361
12398W        W84124  36.019  32.355   4.658
12399W        W84125  31.414  20.578  14.141
12400W        W84126  27.471  24.250  12.521
12401W        W84127  44.473  28.219  11.133
12402W        W84128  33.132  15.415   3.231
12403W        W84129  21.768  28.443  13.596
12404W        W84130   8.522  20.026   3.705
12405W        W84131  24.978   1.987   0.024
12406W        W84132   6.329  13.608  10.179
12407W        W84133  22.118  25.226   9.780
12408W        W84134  10.415  29.856  10.491
12409W        W84135  28.629  37.054  14.795
12410W        W84136  18.225  29.563  13.976
12411W        W84137  11.766  36.253  13.907
12412W        W84138  18.197  35.608   2.200
12413W        W84139   6.358  16.570   0.244
12414W        W84140  22.734  17.762  11.362
12415W        W84141  31.490  33.488   0.483
12416W        W84142  33.345  32.881   4.255
12417W        W84143  11.016   6.231   1.683
12418W        W84144  30.133  20.158   0.166
12419W        W84145  22.238  29.427  14.693
12420W        W84146  27.395  23.223   3.074
12421W        W84147   7.296  14.839  11.008
12422W        W84148   7.210   2.976  11.677
12423W        W84149  25.607  33.431  13.453
12424W        W84150  29.270   6.205   0.959
12425W        W84151  15.022  10.087  11.163
12426W        W84152   7.840  23.743   4.565
12427W        W84153  33.197   2.826   0.316
12428W        W84154  37.701  42.498   4.862
12429W        W84155  33.443   0.054   4.136
12430W        W84156   0.218  10.145   4.596
12431W        W84157  40.505  27.388  13.952
12432W        W84158  13.147  25.787  13.684
12433W        W84159   7.582   9.319  10.768
12434W        W84160   9.718   7.008   1.730
12435W        W84161  25.483  15.994  13.718
12436W        W84162  36.519   3.840  14.001
12437W        W84163  18.613  28.180  13.666
12438W        W84164  34.069  27.948   0.299
12439W        W84165  36.924  43.218   2.222
12440W        W84166   3.722  24.705   4.317
12441W        W84167   0.430   4.461  12.449
12442W        W84168   2.466   4.755  12.915
12443W        W84169  17.558  32.953   3.895
12444W        W84170  29.043   5.157  12.363
12445W        W84171  43.741  42.500   5.002
12446W        W84172  20.558  16.824   2.821
12447W        W84173  37.669  43.426   1.792
12448W        W84174  41.596  37.607   1.679
12449W        W84175  21.548  21.156   0.449
12450W        W84176  33.010  11.221  11.106
12451W        W84177  12.023  36.366   4.114
12452W        W84178   7.654  22.649   1.683
12453W        W84179  32.860  22.992  10.511
12454W        W84180   9.551  16.649  13.321
12455W        W84181   5.774  11.325   4.385
12456W        W84182  27.899  31.190   0.357
12457W        W84183  42.518  24.221   0.930
12458W        W84184   2.848  17.652  11.105
12459W        W84185  24.846  39.819  10.693
12460W        W84186  21.672  32.231   2.011
12461W        W84187  19.233  13.530   2.088
12462W        W84188  44.405   4.309   3.396
12463W        W84189  14.345  26.080   1.767
12464W        W84190  31.144  10.569   0.863
12465W        W84191  43.854   6.593   0.261
12466W        W84192  16.496  30.958   0.246
12467W        W84193  39.751  33.395  10.555
12468W        W84194  11.630  28.559   2.306
12469W        W84195  26.215  34.992   1.671
12470W        W84196  25.460  27.945  14.806
12471W        W84197  14.300  44.458  11.624
12472W        W84198   8.694  16.247   1.896
12473W        W84199  12.726  23.952  14.486
12474W        W84200   8.697  40.521   4.296
12475W        W84201  23.878   0.031   5.481
12476W        W84202  15.008   3.887   1.316
12477W        W84203  41.808  32.013  14.000
12478W        W84204  15.240  43.225  13.366
12479W        W84205   6.730  42.844   4.058
12480W        W84206  21.681  13.078  12.085
12481W        W84207  23.243  28.065   0.545
12482W        W84208   4.503  38.438   1.791
12483W        W84209  42.019  17.977  11.658
12484W        W84210   1.964   7.227   1.332
12485W        W84211  31.253   8.643   3.191
12486W        W84212  17.223   7.126  14.014
12487W        W84213   7.454  17.756  11.638
12488W        W84214  25.701  33.615  10.320
12489W        W84215  42.636  43.391   4.487
12490W        W84216  30.984  44.592   2.245
12491W        W84217  11.608  25.733   2.402
12492W        W84218  13.242  22.415   3.337
12493W        W84219  33.861   7.267   4.617
12494W        W84220  43.815  35.309   3.150
12495W        W84221  32.023  43.472   1.197
12496W        W84222  26.594  10.552   0.365
12497W        W84223  31.879  41.484   0.361
12498W        W84224  36.934  33.347   0.846
12499W        W84225  31.510   6.923  10.543
12500W        W84226  16.101  10.211  13.138
12501W        W84227  38.934   0.666   4.104
12502W        W84228  20.593  35.607  13.985
12503W        W84229  36.070  30.506  14.944
12504W        W84230  41.815   1.849  12.969
12505W        W84231  24.284  27.188   2.736
12506W        W84232  18.555  14.231   0.292
12507W        W84233   5.327  11.093   1.790
12508W        W84234  27.744  12.059   4.452
12509W        W84235  37.857  41.749  14.532
12510W        W84236  24.975  27.264  10.105
12511W        W84237  32.549  18.158  12.930
12512W        W84238  11.877  34.406  10.037
12513W        W84239   5.655  40.500   4.294
12514W        W84240  34.133  23.173  11.003
12515W        W84241  18.274  29.428   4.464
12516W        W84242  18.095  40.793   1.353
12517W        W84243  18.780  32.015   2.676
12518W        W84244  21.002   3.883  12.946
12519W        W84245  32.804  23.840  10.350
12520W        W84246  38.847  28.051   2.060
12521W        W84247  14.607  36.413   1.624
12522W        W84248  37.529  15.732   1.929
12523W        W84249  26.162   3.075   1.683
12524W        W84250  17.703  30.649  14.481
12525W        W84251  38.018  32.952   1.316
12526W        W84252   3.931  39.604   0.867
12527W        W84253  24.759  27.136  13.018
12528W        W84254  28.881  43.804   0.884
12529W        W84255  11.818  18.086  10.705
12530W        W84256  38.034  41.259  14.460
12531W        W84257   4.690  18.045  11.590
12532W        W84258   2.153  44.469   0.255
12533W        W84259   1.270  33.570  11.058
12534W        W84260  36.080  36.365  12.594
12535W        W84261   5.377  22.316   4.637
12536W        W84262  42.579  26.460  14.241
12537W        W84263  38.829   2.183   4.179
12538W        W84264  13.596  34.396   0.549
12539W        W84265  44.712  35.538   1.322
12540W        W84266  44.986   1.257  11.143
12541W        W84267   9.885  42.230  11.093
12542W        W84268  13.237  29.681   1.772
12543W        W84269   7.463  11.784  13.992
12544W        W84270  18.675   3.243  10.682
12545W        W84271  22.076  20.215   0.244
12546W        W84272  43.776  27.691  11.954
12547W        W84273  28.716  44.708  12.828
12548W        W84274   5.530  23.976   4.111
12549W        W84275   5.829  31.784  10.292
12550W        W84276  22.737  27.821  12.333
12551W        W84277   1.560  31.957   0.536
12552W        W84278  10.111  30.940   3.182
12553W        W84279   6.408   6.637  11.483
12554W        W84280   1.075   5.925  13.924
12555W        W84281  35.884  29.899   3.023
12556W        W84282  37.900   8.864   0.394
12557W        W84283  36.992  15.881   4.733
12558W        W84284  19.466  29.171  11.968
12559W        W84285  15.191  37.064  10.627
12560W        W84286   7.006  43.613  12.019
12561W        W84287  19.695  27.684  10.998
12562W        W84288   6.345  41.772  11.245
12563W        W84289  33.778  40.947   3.234
12564W        W84290  36.203  38.045  11.265
12565W        W84291  40.061   0.448   1.777
12566W        W84292  22.519  14.367  12.837
12567W        W84293   3.497   0.814   0.461
12568W        W84294  40.526  14.627   4.571
12569W        W84295  23.250  38.054  11.161
12570W        W84296  36.624  44.212   2.197
12571W        W84297  25.031  20.119   5.073
12572W        W84298  23.436  34.413  14.599
12573W        W84299  11.644  18.956  12.436
12574W        W84300  27.155  38.575   3.571
12575W        W84301   4.484  41.984  10.431
12576W        W84302  41.919  34.346  12.087
12577W        W84303  36.120   1.548   3.197
12578W        W84304  33.088  34.602  12.005
12579W        W84305  13.895   7.882  14.174
12580W        W84306  27.577  35.589  13.502
12581W        W84307  31.089  15.632  10.174
12582W        W84308  32.375   6.120   0.754
12583W        W84309  37.319  25.287   2.135
12584W        W84310  39.750  35.332  11.127
12585W        W84311  31.676   1.859   1.765
12586W        W84312  13.835  41.005   1.830
12587W        W84313  16.306  19.163  12.143
12588W        W84314  10.130  18.254   4.732
12589W        W84315  27.059  33.506  10.568
12590W        W84316   9.590  35.105  12.467
12591W        W84317  17.803  23.842  11.117
12592W        W84318   7.311  26.361  11.618
12593W        W84319  29.706   0.902  11.062
12594W        W84320   0.476  38.061   3.583
12595W        W84321  36.217  13.318   2.770
12596W        W84322  10.081   5.432  12.457
12597W        W84323  33.419  24.177   5.007
12598W        W84324  17.875  35.134   3.233
12599W        W84325   8.932  20.179  12.559
12600W        W84326   7.383   9.372   3.714
12601W        W84327  31.844  34.154  13.061
12602W        W84328  32.192  18.509  13.053
12603W        W84329   4.990  15.732   3.109
12604W        W84330  32.658  36.527   3.836
12605W        W84331  16.834   6.251  12.608
12606W        W84332  36.788  29.512  11.164
12607W        W84333  40.279  21.550   4.893
12608W        W84334  21.048  44.883  13.736
12609W        W84335  21.166  27.583   1.331
12610W        W84336  29.618  23.053   1.879
12611W        W84337  16.005  28.985  13.876
12612W        W84338  12.577   1.760  14.990
12613W        W84339  37.076  38.965  12.491
12614W        W84340  44.034  25.612  12.459
12615W        W84341  18.095  23.708  14.103
12616W        W84342  32.904  12.078  14.347
12617W        W84343  40.348  44.007  13.332
12618W        W84344  30.073  13.318   4.787
12619W        W84345  11.833   8.760   2.242
12620W        W84346  43.758  28.107  13.504
12621W        W84347  20.156  12.108  12.073
12622W        W84348   6.880  40.707  11.912
12623W        W84349  29.527  25.712   3.796
12624W        W84350  31.450   7.380   2.904
12625W        W84351  16.219   6.350   3.371
12626W        W84352  13.637  43.577  11.694
12627W        W84353  27.961  35.933  13.813
12628W        W84354  20.236   6.371  11.618
12629W        W84355  21.975  25.252   1.223
12630W        W84356  15.874  38.051   4.307
12631W        W84357   7.566   2.314  11.117
12632W        W84358  30.151  20.325  14.272
12633W        W84359  10.995  26.619   2.787
12634W        W84360  27.929   1.439  11.171
12635W        W84361   2.020   5.627   3.217
12636W        W84362  24.379  25.208  11.713
12637W        W84363  33.361  11.283   4.973
12638W        W84364  35.089  32.806  14.339
12639W        W84365  15.816   6.136  12.475
12640W        W84366  32.368   6.708  11.371
12641W        W84367  25.896   9.860  11.556
12642W        W84368   1.527  10.684  11.055
12643W        W84369  12.384  15.040  12.494
12644W        W84370  16.706  40.565   4.272
12645W        W84371   4.563   5.114   0.353
12646W        W84372   8.244  24.236   0.301
12647W        W84373   7.343  29.360   2.632
12648W        W84374   4.305  38.519  10.379
12649W        W84375  23.008  20.063  11.569
12650W        W84376  13.573  27.067  13.009
12651W        W84377  37.790   9.713   2.778
12652W        W84378  39.846  18.190   0.253
12653W        W84379  23.436  25.250  14.317
12654W        W84380  25.825  43.406  10.055
12655W        W84381  39.000   2.147  11.392
12656W        W84382  13.200   5.460   1.193
12657W        W84383  29.000   1.908  12.982
12658W        W84384   5.341  14.309  10.654
12659W        W84385   0.350  18.620  14.872
12660W        W84386   6.410  28.169   3.636
12661W        W84387  23.577   3.303  12.839
12662W        W84388  27.679   1.500  14.791
12663W        W84389  12.318  32.914   2.795
12664W        W84390  33.665  33.598  11.545
12665W        W84391  41.558   4.289  12.338
12666W        W84392  41.837  28.696   3.682
12667W        W84393  11.419  30.237   0.817
12668W        W84394   2.014  25.859  11.209
12669W        W84395   1.313  30.382   0.437
12670W        W84396  27.265  30.046   4.376
12671W        W84397  14.887   8.840   4.083
12672W        W84398  43.876  40.461   0.481
12673W        W84399  18.083  25.494   4.875
12674W        W84400  15.286  21.839  14.742
12675W        W84401   6.427  23.250  12.481
12676W        W84402  29.247   2.001   0.879
12677W        W84403   6.932  26.988  12.977
12678W        W84404  24.688  35.987  12.147
12679W        W84405  34.000   3.151  12.966
12680W        W84406  42.856  29.459  12.690
12681W        W84407  33.641  22.007   0.845
12682W        W84408  44.817  29.691   1.013
12683W        W84409  24.090  43.322   1.334
12684W        W84410  23.691   5.628   1.299
12685W        W84411  30.985   9.796  14.499
12686W        W84412   5.864  23.282   0.349
12687W        W84413   9.583   4.358   3.356
12688W        W84414  42.155  41.565   2.995
12689W        W84415  21.282  40.941  14.843
12690W        W84416  18.959  27.041  11.131
12691W        W84417  26.975  16.057   4.237
12692W        W84418  36.988  10.157  14.117
12693W        W84419  36.061   4.733   3.869
12694W        W84420  40.443   9.777   1.794
12695W        W84421  14.691  42.034  11.591
12696W        W84422   7.965  44.296   5.025
12697W        W84423   0.388  21.824  10.261
12698W        W84424  18.533  15.635  13.120
12699W        W84425   8.937  19.140  11.666
12700W        W84426  13.852   2.914   0.913
12701W        W84427  36.519  36.541   0.776
12702W        W84428  22.308  40.079  14.407
12703W        W84429  38.500   0.116   2.216
12704W        W84430  40.337  44.556  13.302
12705W        W84431  40.908  32.681  14.734
12706W        W84432  14.874   9.202  12.820
12707W        W84433  32.626  33.835   3.672
12708W        W84434  21.961  42.329  12.031
12709W        W84435  44.422  28.651  12.172
12710W        W84436  26.565  41.707  12.299
12711W        W84437  44.585  26.998  12.816
12712W        W84438   2.104  24.464  13.306
12713W        W84439  36.001  14.893  12.493
12714W        W84440  27.785  25.556  14.499
12715W        W84441  18.755  35.874   3.877
12716W        W84442  14.178  22.231  14.507
12717W        W84443  26.028  39.605   0.401
12718W        W84444   6.481  43.345   2.841
12719W        W84445  12.808  31.057  12.417
12720W        W84446  11.015  28.693   3.761
12721W        W84447  15.198  30.933   0.879
12722W        W84448  26.842   8.187   1.795
12723W        W84449  21.873  16.428   3.812
12724W        W84450  15.356  34.320  12.972
12725W        W84451   3.845  23.752  12.106
12726W        W84452  28.133   2.467   2.624
12727W        W84453  21.144  39.566   2.774
12728W        W84454  10.472  40.532   2.858
12729W        W84455   3.513  10.787  12.886
12730W        W84456  25.623  10.154   1.578
12731W        W84457  15.948  29.369  11.445
12732W        W84458   0.936  11.729  13.502
12733W        W84459  11.294  42.983   4.869
12734W        W84460  17.782  37.883   3.204
12735W        W84461  41.038  18.170  11.032
12736W        W84462  41.949  18.507  11.655
12737W        W84463  35.550  30.920   2.247
12738W        W84464  38.319  24.260   4.554
12739W        W84465   8.239   6.781  14.561
12740W        W84466  12.563  38.930  14.350
12741W        W84467   8.739  32.880  12.402
12742W        W84468  36.644  11.995  10.413
12743W        W84469  40.989  42.501   2.683
12744W        W84470  44.743  32.696  14.814
12745W        W84471  31.924   2.115   2.146
12746W        W84472  10.309  25.895  12.589
12747W        W84473  13.717  41.432   2.777
12748W        W84474  27.126  36.957  12.513
12749W        W84475   4.798  40.765   2.973
12750W        W84476   0.584  30.853  13.328
12751W        W84477  14.820  15.341   4.195
12752W        W84478  29.366  12.653   3.394
12753W        W84479  42.890  20.037   4.135
12754W        W84480  24.724  13.621   2.213
12755W        W84481  21.647  33.941   3.605
12756W        W84482  40.508  43.905  12.464
12757W        W84483  35.357  37.564   2.750
12758W        W84484  42.075  32.010  10.064
12759W        W84485  24.022  11.215  14.722
12760W        W84486  39.585  31.977  11.965
12761W        W84487  31.498  19.259  11.912
12762W        W84488  23.448  36.967  10.408
12763W        W84489  17.361  36.035  12.456
12764W        W84490  25.918  37.787   4.499
12765W        W84491   2.700  26.118   2.951
12766W        W84492  14.664  41.312  12.948
12767W        W84493   1.375  43.076   3.407
12768W        W84494  16.821  39.492  10.443
12769W        W84495  33.903  43.859   2.753
12770W        W84496  10.952   5.716  13.774
12771W        W84497   2.738   3.948  10.759
12772W        W84498   4.151  22.110  14.402
12773W        W84499   7.599  40.896  10.683
12774W        W84500  20.829  42.254   0.610
12775W        W84501  33.952   5.750   3.968
12776W        W84502  24.182   5.367  14.402
12777W        W84503  26.626  29.025  11.459
12778W        W84504  21.784   1.974  11.088
12779W        W84505  18.596  19.666   0.717
12780W        W84506  12.804  26.582  14.170
12781W        W84507  38.146  30.349   2.182
12782W        W84508   2.274   6.263  13.794
12783W        W84509  26.139   5.811   2.385
12784W        W84510  38.264  19.529   3.450
12785W        W84511   2.156  18.153   0.785
12786W        W84512  44.511  10.027   1.688
12787W        W84513  32.148  27.282   4.161
12788W        W84514  25.984  42.686  14.371
12789W        W84515  40.984   1.479  13.835
12790W        W84516  33.080  10.653   1.889
12791W        W84517   4.507  20.127   3.671
12792W        W84518  35.440  44.665   0.610
12793W        W84519  11.784   2.232  12.498
12794W        W84520  41.231   1.849   3.080
12795W        W84521  18.105  20.084   2.859
12796W        W84522  23.605   5.140   1.618
12797W        W84523  30.551  40.991  13.119
12798W        W84524  21.157  22.784  14.054
12799W        W84525  16.768  41.194  13.148
12800W        W84526  33.514  37.892   1.726
12801W        W84527  42.594  22.784   3.999
12802W        W84528  28.073  27.143   2.722
12803W        W84529  26.640   7.296  10.551
12804W        W84530  12.605  25.086   3.317
12805W        W84531   0.216  37.991   1.108
12806W        W84532  12.132  26.265   5.127
12807W        W84533  39.502  13.401  14.545
12808W        W84534  40.930  32.064  12.383
12809W        W84535  18.117  27.026   1.881
12810W        W84536   8.779  35.321   0.415
12811W        W84537   4.891  41.016   4.873
12812W        W84538  35.602   1.790   3.711
12813W        W84539  13.068  37.439   1.472
12814W        W84540  31.495  35.426  11.891
12815W        W84541  32.462   9.150  14.731
12816W        W84542  29.964   5.732   3.395
12817W        W84543  33.614  17.255   3.141
12818W        W84544  43.302   8.124   0.317
12819W        W84545  16.232  27.390   4.547
12820W        W84546   3.277   8.304   1.919
12821W        W84547  14.504  34.610   3.709
12822W        W84548  24.282  30.770   0.338
12823W        W84549  39.583  43.764  14.355
12824W        W84550  40.046  14.569   0.003
12825W        W84551  31.840  30.728  13.032
12826W        W84552  36.190  42.523   2.422
12827W        W84553  19.022  42.931   4.858
12828W        W84554   4.786  36.547   2.121
12829W        W84555  35.108  41.880  13.907
12830W        W84556   3.916  37.454  10.634
12831W        W84557   9.939  21.410  11.076
12832W        W84558  37.409   5.214   0.872
12833W        W84559   6.043  15.358  13.836
12834W        W84560  32.073  29.140  13.913
12835W        W84561  32.894  41.509  12.093
12836W        W84562   8.452  28.793  12.940
12837W        W84563  18.747  41.923  13.237
12838W        W84564   9.779  29.188   3.295
12839W        W84565  43.975   7.843  13.894
12840W        W84566  27.968  36.197   4.175
12841W        W84567  41.911  11.389   1.726
12842W        W84568  23.035   2.222  14.617
12843W        W84569  44.464  42.787   4.500
12844W        W84570   8.727  41.132   4.921
12845W        W84571  18.236  40.701  13.848
12846W        W84572  35.027  23.598  14.283
12847W        W84573  30.803  27.671   4.427
12848W        W84574  26.900  15.753  11.189
12849W        W84575  24.965  28.013  10.656
12850W        W84576  40.546  34.570   1.404
12851W        W84577  14.731  30.589   0.168
12852W        W84578  29.309   7.366  10.324
12853W        W84579   0.961  44.523   1.814
12854W        W84580   9.383  11.371   1.799
12855W        W84581  34.591  10.807  12.738
12856W        W84582   2.665  30.576   1.807
12857W        W84583  24.634  11.074  12.566
12858W        W84584  19.729  42.407  11.876
12859W        W84585  40.480  34.882   2.305
12860W        W84586  29.170  35.927  12.456
12861W        W84587  40.051  19.510  12.546
12862W        W84588  43.472  13.613  10.750
12863W        W84589  28.407  18.106  14.929
12864W        W84590  14.856  25.058   1.256
12865W        W84591  41.457  19.520   1.843
12866W        W84592  43.539   8.719   5.093
12867W        W84593  11.882  19.144   4.250
12868W        W84594  19.200  20.052   1.373
12869W        W84595   1.732   1.743   3.353
12870W        W84596   8.939  40.308   2.524
12871W        W84597  19.583  37.864   2.667
12872W        W84598  37.834  34.294   3.704
12873W        W84599  11.656  34.876  14.260
12874W        W84600  10.332   2.252   4.550
12875W        W84601   7.780  38.814  12.992
12876W        W84602  27.197  13.152   3.169
12877W        W84603  36.882  37.488  12.643
12878W        W84604  32.914  11.879  13.483
12879W        W84605  11.335  29.452   2.712
12880W        W84606  20.082   2.728  10.671
12881W        W84607  23.094   3.297   1.499
12882W        W84608  30.189  38.927   2.842
12883W        W84609  10.227  17.870   1.746
12884W        W84610  44.388  42.344   0.364
12885W        W84611  22.372  38.147  11.487
12886W        W84612  11.408  26.634  11.413
12887W        W84613  10.200  34.840  13.848
12888W        W84614   9.043   7.151  13.914
12889W        W84615  17.589   1.276   0.392
12890W        W84616   4.332  23.960  14.939
12891W        W84617  41.816  34.626   1.029
12892W        W84618  40.224  25.768  11.604
12893W        W84619  31.452  13.580  11.158
12894W        W84620  29.165   5.235  10.846
12895W        W84621  41.932  38.077   3.679
12896W        W84622  34.362  15.221   1.415
12897W        W84623   5.832  22.244  13.996
12898W        W84624  33.550   4.458   1.800
12899W        W84625  17.361  10.323  11.978
12900W        W84626  37.093  15.340   2.831
12901W        W84627   6.882  23.709   2.879
12902W        W84628  13.914   3.699   3.378
12903W        W84629  42.886  35.943   4.189
12904W        W84630  22.062  21.189  13.291
12905W        W84631   7.752   3.774  14.916
12906W        W84632  23.112  37.522  12.070
12907W        W84633  28.687  17.168   4.757
12908W        W84634  42.917   2.517  11.170
12909W        W84635  29.554  21.733   0.340
12910W        W84636  15.282  41.498   3.687
12911W        W84637  10.703  15.123  10.572
12912W        W84638   7.878  15.765  14.291
12913W        W84639  43.767   3.837  12.052
12914W        W84640   2.921  33.984  12.875
12915W        W84641  25.527  28.517   4.079
12916W        W84642  34.884  37.339  13.417
12917W        W84643  14.822  12.485  12.191
12918W        W84644   2.650  13.714   0.026
12919W        W84645  31.960   3.474   0.467
12920W        W84646  44.134  29.294   3.719
12921W        W84647  27.740  21.773   1.838
12922W        W84648   5.855  43.291  14.765
12923W        W84649  14.947  21.647   4.878
12924W        W84650  18.810  37.036   4.965
12925W        W84651   1.277  30.404  12.321
12926W        W84652   1.676   6.183   4.896
12927W        W84653  19.829  21.052   2.719
12928W        W84654  31.566  15.206  14.817
12929W        W84655  13.903  32.626   3.641
12930W        W84656   0.299  11.553  11.602
12931W        W84657  17.984  44.606   2.377
12932W        W84658  18.793   8.600   2.671
12933W        W84659  19.665  39.895  11.581
12934W        W84660  30.577  32.063  11.646
12935W        W84661  18.390  11.800   9.835
12936W        W84662  16.122   6.243  11.627
12937W        W84663  32.976  18.370  13.496
12938W        W84664  35.274  35.949  13.640
12939W        W84665   3.539   1.316   0.835
12940W        W84666  35.017  37.937   2.796
12941W        W84667  41.798  22.206   3.347
12942W        W84668   7.140  27.916   0.890
12943W        W84669   9.334  15.299  13.616
12944W        W84670   4.341   6.123   0.855
12945W        W84671   2.693   2.454  10.521
12946W        W84672  44.727  28.184   3.283
12947W        W84673  18.220  21.568   2.558
12948W        W84674  11.727   3.839   0.919
12949W        W84675  26.106  19.646  12.445
12950W        W84676  41.552   7.676  13.884
12951W        W84677   9.360  10.484  12.457
12952W        W84678  22.707  34.991  14.987
12953W        W84679  38.867   8.229  14.379
12954W        W84680   5.873  34.440  12.445
12955W        W84681  32.857   5.034   1.813
12956W        W84682  36.461  44.257   4.994
12957W        W84683  13.261  35.516   0.218
12958W        W84684  26.447   0.683   3.106
12959W        W84685  23.959  20.720   3.569
12960W        W84686   0.023  19.232  14.292
12961W        W84687   8.464  11.614   1.438
12962W        W84688   3.120  18.843   2.141
12963W        W84689  10.828  19.624  13.400
12964W        W84690  31.467  12.620   3.932
12965W        W84691  36.176  35.040  13.136
12966W        W84692  22.955  24.102  11.213
12967W        W84693  24.197   3.265  14.485
12968W        W84694  21.142   3.087  13.555
12969W        W84695   8.329  10.031   4.242
12970W        W84696  17.786   6.208   2.278
12971W        W84697  31.418  18.048  14.884
12972W        W84698  39.933  19.224   3.797
12973W        W84699  34.956  29.989   0.036
12974W        W84700  28.199  41.555   0.851
12975W        W84701  43.925  20.900  11.091
12976W        W84702  28.994  31.097   3.349
12977W        W84703  18.266   6.242   0.872
12978W        W84704  10.712  15.101   4.363
12979W        W84705   9.676  11.301  11.961
12980W        W84706  36.973  20.108   1.528
12981W        W84707  32.985  44.507   3.090
12982W        W84708   7.798   1.249   3.145
12983W        W84709  34.452  44.794   4.910
12984W        W84710  26.491  42.028   2.861
12985W        W84711  23.543  44.858   0.007
12986W        W84712  34.872  16.995   2.416
12987W        W84713  25.905  35.401  11.846
12988W        W84714  37.055  44.032   3.172
12989W        W84715  33.558   4.867  11.139
12990W        W84716   4.940  21.820  10.885
12991W        W84717   5.457  15.723   3.294
12992W        W84718  29.387  16.998  13.458
12993W        W84719  20.271  19.064   1.887
12994W        W84720  41.393  12.356   4.861
12995W        W84721  20.035  19.179  14.123
12996W        W84722  24.727  37.707  12.482
12997W        W84723  25.025  13.176   2.042
12998W        W84724  19.316  15.358  13.859
12999W        W84725  17.314  19.479  14.370
13000W        W84726  23.712  18.705   2.839
13001W        W84727  33.147  43.485  14.439
13002W        W84728   8.747  16.102  11.206
13003W        W84729   7.931   1.941   3.321
13004W        W84730  10.351  30.939  13.787
13005W        W84731   2.807  35.122  12.634
13006W        W84732  26.111  37.975   2.020
13007W        W84733  26.559  34.242  12.954
13008W        W84734  16.066  14.352  10.122
13009W        W84735  34.666   6.419  11.224
13010W        W84736   7.712   6.238   9.742
13011W        W84737   0.472  17.181  14.033
13012W        W84738   9.746  38.181   4.131
13013W        W84739  42.562  24.048  11.487
13014W        W84740  18.032   4.866  13.076
13015W        W84741  33.235  11.548  14.865
13016W        W84742  11.588  15.381   4.732
13017W        W84743  22.111  30.383  12.521
13018W        W84744  15.608  15.809   5.066
13019W        W84745  31.553  41.888   0.346
13020W        W84746   1.879  31.655   4.104
13021W        W84747  21.715   2.791   4.227
13022W        W84748  14.347  11.319  11.120
13023W        W84749  33.847  39.957  10.694
13024W        W84750  35.821  16.252   1.451
13025W        W84751   1.228   6.910  14.486
13026W        W84752  17.843  12.261   1.246
13027W        W84753  37.415  26.878  10.481
13028W        W84754  22.033   0.449   2.227
13029W        W84755   1.188  20.208  13.033
13030W        W84756  32.400  23.573   3.261
13031W        W84757  43.473   1.328  13.038
13032W        W84758  24.158  27.573  10.037
13033W        W84759  24.780   4.140   1.741
13034W        W84760  42.494  17.293   2.791
13035W        W84761  27.475   9.395   0.926
13036W        W84762  25.627  29.499   3.167
13037W        W84763   9.321  39.997  13.843
13038W        W84764  33.505  39.612  11.579
13039W        W84765   9.835  30.996  13.811
13040W        W84766  40.429   0.311  13.974
13041W        W84767  23.040  19.511   1.840
13042W        W84768  14.698  19.035  14.437
13043W        W84769  27.562  35.535  10.546
13044W        W84770  37.190  39.076  10.942
13045W        W84771   1.925  24.484  10.449
13046W        W84772   1.512  18.038  11.479
13047W        W84773  37.165   8.366  11.174
13048W        W84774  40.757  31.344  12.972
13049W        W84775  30.700  17.288  14.387
13050W        W84776  17.634  38.383   3.195
13051W        W84777  29.927  39.324   2.592
13052W        W84778  13.850  25.113  13.483
13053W        W84779  34.424  19.058   4.148
13054W        W84780  14.711  43.039   0.710
13055W        W84781   5.962  43.943  14.488
13056W        W84782  32.144  25.656  13.978
13057W        W84783  29.598  43.879  12.878
13058W        W84784  35.856  26.679  11.993
13059W        W84785  29.191   3.441  11.486
13060W        W84786   5.460  15.844   3.802
13061W        W84787  24.430  12.920   4.614
13062W        W84788  17.015   6.098   1.494
13063W        W84789  20.997  43.269   2.346
13064W        W84790  25.138   7.717   2.609
13065W        W84791   9.644  20.169   4.603
13066W        W84792  20.593  29.517   4.578
13067W        W84793   8.253  42.336   1.722
13068W        W84794  20.127  19.230  13.605
13069W        W84795  23.540   3.479  13.338
13070W        W84796  15.812  42.253  13.701
13071W        W84797   2.631   5.343   2.322
13072W        W84798   0.960  41.490  12.072
13073W        W84799   4.741  36.883  10.671
13074W        W84800  40.490  39.256   4.613
13075W        W84801  13.324  27.933  12.524
13076W        W84802  39.615  27.104  11.082
13077W        W84803  15.796  15.607   3.158
13078W        W84804  31.599  14.527  14.421
13079W        W84805  12.818  15.777   3.806
13080W        W84806  18.002   0.413   1.506
13081W        W84807  25.057  17.046  13.732
13082W        W84808   5.224  35.567   0.791
13083W        W84809   0.720  12.208   2.804
13084W        W84810  20.775  33.881  12.372
13085W        W84811   5.277  13.674   1.145
13086W        W84812  20.137  12.730   1.633
13087W        W84813  18.257  39.009   4.069
13088W        W84814  24.259  36.834   2.821
13089W        W84815   2.356  17.079   0.931
13090W        W84816  31.565  10.688  10.493
13091W        W84817   5.868   6.104   3.890
13092W        W84818  38.656   8.211  13.008
13093W        W84819  24.998  20.606  13.660
13094W        W84820  20.968  24.947  11.513
13095W        W84821   3.774  10.807   3.659
13096W        W84822   6.898  40.258   1.702
13097W        W84823   4.692  16.779  12.905
13098W        W84824  25.734  44.677   2.204
13099W        W84825  42.404  28.965  13.620
13100W        W84826   6.510   9.856  11.557
13101W        W84827   0.526  17.182  14.913
13102W        W84828   5.986  17.801   2.214
13103W        W84829   6.737  21.564  11.364
13104W        W84830  24.198  22.919   0.252
13105W        W84831  11.183   7.567  14.419
13106W        W84832  33.547  25.913  10.673
13107W        W84833  10.968  30.659  12.084
13108W        W84834  17.254  36.351  13.322
13109W        W84835   7.260  21.716   2.255
13110W        W84836   4.109  19.577   3.797
13111W        W84837  39.820  13.685   1.705
13112W        W84838  27.008  39.323  10.971
13113W        W84839  11.095   5.888  12.000
13114W        W84840  33.171   7.758  11.147
13115W        W84841   3.280  32.608  11.104
13116W        W84842  44.300   4.467  11.593
13117W        W84843   9.467  32.016  11.540
13118W        W84844   7.190  39.853  11.709
13119W        W84845  13.767   6.425   4.557
13120W        W84846  35.902  26.466   0.903
13121W        W84847  34.544   8.954   1.831
13122W        W84848  19.298  28.160   4.364
13123W        W84849   0.718   2.826   0.965
13124W        W84850  42.348  40.528   4.477
13125W        W84851  37.455  32.213   3.277
13126W        W84852   1.984  19.763  14.501
13127W        W84853  35.552  27.563   3.453
13128W        W84854  38.361  34.903   3.370
13129W        W84855  38.614  38.863   4.613
13130W        W84856   3.003  25.565   1.794
13131W        W84857  35.475  14.624   2.337
13132W        W84858  34.527  24.840   4.204
13133W        W84859   5.112  25.853  13.347
13134W        W84860  12.270   5.349  10.611
13135W        W84861  11.393  11.010   3.268
13136W        W84862  34.625  43.219  13.392
13137W        W84863  12.453   7.430  11.580
13138W        W84864   3.501  14.724   2.790
13139W        W84865  18.726   8.081  11.497
13140W        W84866   7.287  23.354   2.305
13141W        W84867  32.864  34.639   1.708
13142W        W84868  37.595   1.993  12.682
13143W        W84869  29.540  31.176  12.400
13144W        W84870  24.281  20.735  10.619
13145W        W84871   1.161  38.394   2.250
13146W        W84872  33.191  16.114  12.951
13147W        W84873  33.011  37.043   2.730
13148W        W84874  41.073  26.466  11.621
13149W        W84875  18.097   1.228   2.543
13150W        W84876  12.196  12.085  13.849
13151W        W84877  13.894  19.044   1.219
13152W        W84878  12.128   2.809  14.357
13153W        W84879   3.635  30.504   0.083
13154W        W84880   6.411  16.991   3.334
13155W        W84881  19.352  42.853  13.361
13156W        W84882  31.492  18.280   0.454
13157W        W84883  37.808  36.115   0.225
13158W        W84884  36.919  22.275   4.464
13159W        W84885  10.840  18.845  14.819
13160W        W84886   9.874  18.180   2.218
13161W        W84887  42.794  28.576  11.594
13162W        W84888   0.744   1.924  10.353
13163W        W84889   7.923  20.721   0.393
13164W        W84890  42.368  40.014  11.217
13165W        W84891  39.851  37.070   3.365
13166W        W84892   2.453   7.811  13.038
13167W        W84893  37.472  19.087  11.666
13168W        W84894  13.894  29.209  12.979
13169W        W84895  25.470  21.565   1.724
13170W        W84896  18.606  31.448   1.510
13171W        W84897  40.102  16.164   0.812
13172W        W84898  40.669  32.442  11.596
13173W        W84899  24.955  20.959  11.929
13174W        W84900  31.746  43.726  11.528
13175W        W84901  27.910  17.224  13.632
13176W        W84902  12.762  37.197  13.126
13177W        W84903   6.793   8.262   4.686
13178W        W84904  43.215  19.799  11.536
13179W        W84905   3.343  44.012   0.015
13180W        W84906  11.811  31.622  12.146
13181W        W84907  10.159  33.302  14.830
13182W        W84908  23.051  14.911  11.101
13183W        W84909  42.600  32.042   4.178
13184W        W84910   8.894  25.963   3.730
13185W        W84911   7.446  35.862  12.838
13186W        W84912  22.065   6.647  13.948
13187W        W84913  43.363   6.607   3.163
13188W        W84914  20.213  20.349  14.914
13189W        W84915   5.237  33.610   4.592
13190W        W84916  11.417  38.609   1.276
13191W        W84917  27.657   0.413  14.463
13192W        W84918   6.727   4.651   3.391
13193W        W84919  40.794  32.114  11.202
13194W        W84920  40.538  13.173   0.263
13195W        W84921  23.012  20.009   2.611
13196W        W84922  25.295   5.876  12.528
13197W        W84923  41.066  40.908  11.791
13198W        W84924  17.768  36.756  10.605
13199W        W84925  34.472  38.128   3.098
13200W        W84926  34.889  17.840  13.570
13201W        W84927  21.184  33.981  11.102
13202W        W84928  28.197   0.434   1.630
13203W        W84929  21.447  41.343  10.748
13204W        W84930  37.069  39.508   1.461
13205W        W84931  31.640  42.371   2.483
13206W        W84932  28.750  16.500   0.568
13207W        W84933  15.374  19.800  13.973
13208W        W84934   0.484  22.205   4.799
13209W        W84935  12.333  29.608   3.572
13210W        W84936   6.800  16.597  12.478
13211W        W84937  41.854  38.263  10.716
13212W        W84938  23.016  25.250   1.981
13213W        W84939  38.399   0.057   1.332
13214W        W84940  23.433  21.111  12.076
13215W        W84941  32.778  15.655  14.983
13216W        W84942   7.386  33.634   4.273
13217W        W84943  14.192  43.112   5.152
13218W        W84944  15.688  14.712   3.556
13219W        W84945  24.211  44.371  13.517
13220W        W84946  12.598  13.327   1.662
13221W        W84947  32.978  17.185  11.364
13222W        W84948   9.810  22.538  10.165
13223W        W84949   1.779  39.997  11.899
13224W        W84950  39.914  28.937  11.228
13225W        W84951  43.412  29.403   3.187
13226W        W84952  23.524  38.883   0.430
13227W        W84953  41.742   3.718   3.845
13228W        W84954  21.539  30.139   1.097
13229W        W84955  28.526   2.346   1.681
13230W        W84956   9.332  27.449  12.532
13231W        W84957  20.258  44.883   2.280
13232W        W84958  44.672  39.115   1.833
13233W        W84959  44.482  14.043   3.347
13234W        W84960  33.961  24.077   1.764
13235W        W84961  41.774  16.827  12.361
13236W        W84962  32.624  10.374  13.960
13237W        W84963  12.148  42.741  14.800
13238W        W84964  10.377  18.728  13.468
13239W        W84965  21.860  18.232   0.363
13240W        W84966  28.073  39.816   4.068
13241W        W84967   1.535  27.553   1.410
13242W        W84968  23.735  26.716   5.071
13243W        W84969  44.121   9.316   0.947
13244W        W84970  38.360   6.215   2.725
13245W        W84971  14.882  40.876   2.024
13246W        W84972  42.961  30.257   3.706
13247W        W84973   1.886  39.499   0.685
13248W        W84974  21.516  16.138  13.962
13249W        W84975   0.367  23.706   3.211
13250W        W84976  40.047  21.527   0.326
13251W        W84977  42.538   2.886  13.700
13252W        W84978  19.810   1.846   4.580
13253W        W84979  16.804  36.083  13.337
13254W        W84980   8.166  23.478  14.389
13255W        W84981   9.886  10.414  12.450
13256W        W84982  21.517   8.767  14.246
13257W        W84983  11.891  38.046   3.188
13258W        W84984  14.083  10.387   1.801
13259W        W84985  10.911  16.256   0.405
13260W        W84986  44.456  18.767   3.192
13261W        W84987  30.726  18.131   2.900
13262W        W84988   8.831  15.970  10.294
13263W        W84989  44.453  26.427  11.789
13264W        W84990  38.162  33.980  13.284
13265W        W84991  23.273   7.328   1.435
13266W        W84992  19.011  41.052   1.307
13267W        W84993  20.377  36.029   2.401
13268W        W84994  22.907  26.366   3.335
13269W        W84995  20.911   9.297   4.339
13270W        W84996  21.110  25.117   2.643
13271W        W84997  12.344  11.775   2.627
13272W        W84998  22.650  30.897  13.032
13273W        W84999  33.015  33.630   1.154
13274W        W85000  32.448  12.229   4.617
13275W        W85001   3.747  25.294   2.488
13276W        W85002  37.124  26.035   4.860
13277W        W85003  36.931  41.979   4.859
13278W        W85004  33.113  23.286  11.045
13279W        W85005  30.935  24.422   1.314
13280W        W85006   2.387  17.563  14.984
13281W        W85007   2.154  32.382   2.207
13282W        W85008  31.774  31.338   1.471
13283W        W85009  35.578  44.738  11.072
13284W        W85010  12.735   2.461   3.651
13285W        W85011   8.973  35.977   4.895
13286W        W85012  42.088   6.290  11.246
13287W        W85013   5.495   4.293   3.611
13288W        W85014  21.321   6.959  14.341
13289W        W85015  15.124  29.507  12.157
13290W        W85016   3.190   4.123  10.955
13291W        W85017  13.822  35.810  13.022
13292W        W85018  31.573  21.874   1.984
13293W        W85019  10.416   9.083  10.681
13294W        W85020  37.623   3.776   3.209
13295W        W85021  28.227  19.768   0.002
13296W        W85022  42.858  42.051   2.703
13297W        W85023  41.569   2.753   1.474
13298W        W85024  33.158  33.328  13.518
13299W        W85025  28.781   1.454  12.877
13300W        W85026  13.988   2.367   2.939
13301W        W85027   7.965  15.436  13.903
13302W        W85028  36.477   0.296  14.034
13303W        W85029  12.048  24.508  10.429
13304W        W85030  32.162   7.333   4.706
13305W        W85031  28.527  41.369   5.165
13306W        W85032   2.983  35.168  11.634
13307W        W85033   9.867  36.422   1.808
13308W        W85034  12.850   8.718   1.225
13309W        W85035  19.261   5.480   3.869
13310W        W85036  10.858  42.345   4.298
13311W        W85037   4.240  28.207  12.700
13312W        W85038  31.970  36.149   2.643
13313W        W85039  39.749  28.376  14.896
13314W        W85040  12.528   8.160  13.992
13315W        W85041  34.861  40.167  14.432
13316W        W85042  41.001  28.971  12.998
13317W        W85043  23.188   0.069  14.211
13318W        W85044  34.840   0.303   1.159
13319W        W85045  24.636   5.130   3.191
13320W        W85046  41.941  37.137  12.028
13321W        W85047   2.071  44.962  11.049
13322W        W85048  27.945  11.345   1.347
13323W        W85049   8.740  22.121   3.161
13324W        W85050  26.569  34.873  14.643
13325W        W85051  10.768  16.912   4.295
13326W        W85052   7.203  38.640   4.191
13327W        W85053   4.402  10.664   1.008
13328W        W85054   2.192   3.811   4.074
13329W        W85055  23.207  32.325   2.773
13330W        W85056  35.347  26.890   4.617
13331W        W85057  14.095  32.364   2.710
13332W        W85058  37.652  28.843  14.588
13333W        W85059  28.058   4.443   4.191
13334W        W85060  39.011   0.219   2.112
13335W        W85061  13.364  34.937  10.877
13336W        W85062  36.510  34.109   3.834
13337W        W85063  36.033  30.612   3.140
13338W        W85064  22.444   6.181   2.096
13339W        W85065  43.311  23.418  10.724
13340W        W85066  44.034  23.575  11.701
13341W        W85067  40.802  14.558   4.122
13342W        W85068   1.734  42.013   3.009
13343W        W85069  12.520   1.870  13.868
13344W        W85070  32.640  41.436  14.945
13345W        W85071  25.964   4.518  12.967
13346W        W85072  20.544  19.711   0.407
13347W        W85073  14.226  23.229  14.354
13348W        W85074  15.254  14.386  12.403
13349W        W85075  14.117  36.369   4.639
13350W        W85076  34.323  38.260  11.123
13351W        W85077  10.726  32.942  12.988
13352W        W85078   4.668   5.823   4.575
13353W        W85079  17.506  29.119   0.446
13354W        W85080  18.071  18.152  12.319
13355W        W85081  32.012  21.470   0.847
13356W        W85082  30.665  32.113   3.594
13357W        W85083  25.717  15.105   2.809
13358W        W85084   1.789  15.609  13.983
13359W        W85085  13.858  17.824   4.233
13360W        W85086  28.836  36.761   2.299
13361W        W85087  10.646  18.008  14.581
13362W        W85088  38.988  31.166  13.536
13363W        W85089   5.272  14.684   4.375
13364W        W85090  27.422  34.842  14.060
13365W        W85091  10.771  11.424   4.633
13366W        W85092  15.664   2.343   3.127
13367W        W85093   0.928  16.653   1.512
13368W        W85094  11.784  44.888   3.670
13369W        W85095  38.455  10.856  11.801
13370W        W85096  19.205  21.159  13.546
13371W        W85097  29.610   7.199  12.879
13372W        W85098   7.417  34.042  13.888
13373W        W85099   4.745  26.381  12.870
13374W        W85100   3.760  42.599  13.068
13375W        W85101  23.682  23.997   4.106
13376W        W85102  21.593  14.753   4.672
13377W        W85103  12.229  42.344  11.148
13378W        W85104   4.355   1.971   4.588
13379W        W85105  34.016  31.040   4.736
13380W        W85106   8.692  33.583   2.199
13381W        W85107  22.308  22.741  13.399
13382W        W85108  26.566  13.112   0.265
13383W        W85109  30.612  22.624   2.407
13384W        W85110  13.502   8.771   3.273
13385W        W85111   3.854   2.770  14.337
13386W        W85112  19.330  25.781  11.451
13387W        W85113  19.639  39.454   1.717
13388W        W85114  16.076   8.374   2.858
13389W        W85115  29.162  21.806   2.877
13390W        W85116  35.778  18.291  10.942
13391W        W85117   2.852   6.903   3.144
13392W        W85118  30.671  32.179  12.148
13393W        W85119  22.660  11.171  12.462
13394W        W85120   6.074  24.683   2.408
13395W        W85121   2.441  11.749  14.238
13396W        W85122  26.922   6.315  13.951
13397W        W85123   3.454  27.908  11.428
13398W        W85124  29.890  42.226   3.169
13399W        W85125  32.924  33.156  12.117
13400W        W85126  31.495  20.891  11.209
13401W        W85127  27.654   7.653   0.312
13402W        W85128  13.746  37.938   3.281
13403W        W85129   6.184  19.732   2.331
13404W        W85130   9.292  38.938   3.266
13405W        W85131   3.497   8.658   2.814
13406W        W85132   0.999   8.867   3.335
13407W        W85133  24.732  31.605  11.086
13408W        W85134  41.054  39.926   0.408
13409W        W85135  42.260  43.752   1.279
13410W        W85136  32.850  29.116  12.548
13411W        W85137  23.742  25.256   4.618
13412W        W85138  23.777  29.425   0.901
13413W        W85139  36.548  13.674   1.478
13414W        W85140  43.805   2.322   2.390
13415W        W85141  11.927  15.842  13.753
13416W        W85142  32.912  29.861   3.213
13417W        W85143   9.377  34.131   9.920
13418W        W85144  18.437  39.108   0.853
13419W        W85145  13.876  29.046  13.894
13420W        W85146   9.352  44.705  12.836
13421W        W85147   9.170  42.353   3.851
13422W        W85148  11.114  22.001  11.523
13423W        W85149   7.854  32.078   4.426
13424W        W85150  20.573  10.336  14.406
13425W        W85151   8.153  17.611   4.239
13426W        W85152   4.892  33.577   0.842
13427W        W85153   7.136  22.480  13.620
13428W        W85154  40.646  38.896   4.258
13429W        W85155   5.184  27.729  11.137
13430W        W85156  36.053  35.606  13.813
13431W        W85157  35.542  16.605   4.152
13432W        W85158  33.199  28.126   3.303
13433W        W85159  34.067  16.738  14.442
13434W        W85160  44.338  10.381   3.767
13435W        W85161  39.314  26.898   2.649
13436W        W85162  20.034  33.847   0.713
13437W        W85163  44.790   0.222  14.070
13438W        W85164  21.226  26.288  10.960
13439W        W85165  19.742  10.817  12.043
13440W        W85166  23.131  40.769   4.134
13441W        W85167   1.025   0.832  11.895
13442W        W85168  12.777  37.553  11.053
13443W        W85169  37.090   5.078  13.754
13444W        W85170  24.627  25.247   0.274
13445W        W85171  21.719  19.153   3.298
13446W        W85172  11.666   0.273  11.578
13447W        W85173  35.964  44.483  10.740
13448W        W85174  26.043  16.358   1.290
13449W        W85175   7.923  29.225  12.143
13450W        W85176  26.228   0.803  12.703
13451W        W85177   9.644  37.395   1.001
13452W        W85178  15.790  22.244  12.539
13453W        W85179  18.130  16.803   4.291
13454W        W85180  36.450  36.577   1.755
13455W        W85181   4.395  32.102  11.072
13456W        W85182  20.734  25.997   9.739
13457W        W85183  32.846  41.932   2.087
13458W        W85184  12.698  22.296   1.675
13459W        W85185  32.352   5.116   0.797
13460W        W85186  25.428   7.610  13.872
13461W        W85187  10.129  36.312   1.372
13462W        W85188   8.352   2.803  12.090
13463W        W85189   0.805   8.310  10.719
13464W        W85190  35.638  22.958   2.377
13465W        W85191  39.992  23.613  11.925
13466W        W85192  14.162   6.159   0.472
13467W        W85193  36.995  33.975   4.599
13468W        W85194   3.332  38.812  13.782
13469W        W85195  26.080  21.658   0.930
13470W        W85196  42.503  36.510   1.656
13471W        W85197  38.420   2.560  13.066
13472W        W85198  15.432  31.476  14.472
13473W        W85199  16.227   6.156  13.207
13474W        W85200  38.864  40.298  11.519
13475W        W85201   0.766  28.104   1.906
13476W        W85202   5.116   3.475  12.056
13477W        W85203  25.505  44.285  10.244
13478W        W85204  14.812  23.780   2.788
13479W        W85205  23.620  12.129  10.520
13480W        W85206   7.704  35.586  11.215
13481W        W85207  18.201  28.962   4.275
13482W        W85208  38.285  36.537  13.803
13483W        W85209  32.691   5.309  13.339
13484W        W85210  42.790  29.694  11.605
13485W        W85211  25.231   8.610   2.837
13486W        W85212  29.982  25.557   2.716
13487W        W85213  41.947   7.336   3.817
13488W        W85214  21.008  36.828  12.589
13489W        W85215  23.529  37.444  14.333
13490W        W85216  42.464  37.925  14.788
13491W        W85217  31.729  16.588  14.952
13492W        W85218  14.030  38.867   1.625
13493W        W85219  27.667  32.292  13.393
13494W        W85220  10.779  14.796   1.110
13495W        W85221  12.105  35.861   3.724
13496W        W85222  15.147  17.210   4.671
13497W        W85223  34.888  37.099  10.701
13498W        W85224  13.374  12.403  12.027
13499W        W85225  43.725  31.664  13.296
13500W        W85226  39.515  21.051  13.587
13501W        W85227  25.575  40.799   2.121
13502W        W85228  12.240   7.906   1.764
13503W        W85229   5.359  36.043  12.178
13504W        W85230  20.089  23.598  12.891
13505W        W85231  18.018  20.461  13.467
13506W        W85232   8.256   1.815   9.862
13507W        W85233  24.310  27.602  11.042
13508W        W85234  10.268  21.200  10.733
13509W        W85235  42.853  24.056  11.918
13510W        W85236  33.091  28.908  13.512
13511W        W85237  38.049  34.724   5.048
13512W        W85238  44.947   4.889   9.649
13513W        W85239  43.236  24.314   3.743
13514W        W85240  44.136  19.588  12.600
13515W        W85241  31.998  43.375   1.700
13516W        W85242   4.823  35.618   3.747
13517W        W85243  25.564  19.229  12.831
13518W        W85244   4.833  28.796  11.979
13519W        W85245  32.126  16.712   0.276
13520W        W85246  41.539  33.373   2.682
13521W        W85247  10.719  27.202   1.803
13522W        W85248   1.847  40.535  11.964
13523W        W85249  43.404  28.831  12.961
13524W        W85250  35.319  25.101  14.970
13525W        W85251  25.477  43.811  12.436
13526W        W85252  17.335  30.477  11.376
13527W        W85253  37.572  44.811   3.354
13528W        W85254  30.678   7.963  12.434
13529W        W85255   8.716  39.464   2.705
13530W        W85256  32.036  40.786  11.103
13531W        W85257  20.039  23.437   1.813
13532W        W85258   3.256  40.424  11.575
13533W        W85259  16.594  39.386   3.495
13534W        W85260   5.392  27.990  10.714
13535W        W85261  41.517  38.477   2.146
13536W        W85262  20.581  27.992   2.716
13537W        W85263  13.110  26.464   5.017
13538W        W85264  12.292  20.504  12.533
13539W        W85265  17.120  14.151   4.609
13540W        W85266  18.324  39.416   0.016
13541W        W85267  31.120  31.401  13.159
13542W        W85268  29.047  24.252   0.505
13543W        W85269  13.039  42.499  12.545
13544W        W85270  34.621  27.421   1.940
13545W        W85271  19.007   2.952   0.725
13546W        W85272  11.345  41.316   2.294
13547W        W85273  21.780  37.138   2.199
13548W        W85274  15.823  34.004   4.506
13549W        W85275  43.420  12.594   3.736
13550W        W85276  24.743  20.702  10.893
13551W        W85277  12.274  37.296  11.921
13552W        W85278  16.620  42.893   4.556
13553W        W85279  44.787  24.040  11.401
13554W        W85280   9.465  17.655  13.405
13555W        W85281   2.916  43.232   3.209
13556W        W85282   9.389  18.060   4.008
13557W        W85283   4.316  13.342  10.650
13558W        W85284  15.312  15.715  10.678
13559W        W85285  15.508   2.687  13.019
13560W        W85286  33.465  11.100  11.336
13561W        W85287  19.278   6.909  13.363
13562W        W85288  38.002  29.443  13.552
13563W        W85289  17.710  35.704   1.351
13564W        W85290  26.458  15.298  13.617
13565W        W85291  16.205  41.085  12.000
13566W        W85292  11.935   3.096  13.084
13567W        W85293  26.264  24.680   2.414
13568W        W85294  10.664   0.767  12.422
13569W        W85295   6.326  19.816   4.108
13570W        W85296   1.027   3.534   1.783
13571W        W85297   5.220  24.139  13.153
13572W        W85298  41.043  23.990   1.731
13573W        W85299   5.124  36.991  12.537
13574W        W85300  34.339  42.574   2.941
13575W        W85301  22.452  16.710  11.904
13576W        W85302  44.697  22.774  12.080
13577W        W85303  25.521  10.935  14.487
13578W        W85304  13.118  39.015   2.247
13579W        W85305  17.820  16.647   2.145
13580W        W85306  12.810  21.488  13.338
13581W        W85307  23.278  38.381  13.265
13582W        W85308  30.805  27.797  13.178
13583W        W85309  39.844   0.285   3.192
13584W        W85310  36.092  20.537  11.209
13585W        W85311   2.792   2.461  12.544
13586W        W85312   4.190  44.429  10.729
13587W        W85313  44.008  17.796   0.752
13588W        W85314   1.848   5.196   0.922
13589W        W85315  26.509  35.155   0.782
13590W        W85316  15.831  40.911   3.095
13591W        W85317  18.229  41.985  14.434
13592W        W85318   7.691   8.201   0.831
13593W        W85319  29.086  19.829  14.087
13594W        W85320  39.731  32.436  12.571
13595W        W85321  32.129  29.993  13.439
13596W        W85322  14.560  36.035   3.778
13597W        W85323  22.062   8.824   4.472
13598W        W85324  20.614  14.757   3.178
13599W        W85325  24.045  21.735   2.615
13600W        W85326  26.252  18.073  13.046
13601W        W85327  31.029  23.547   0.459
13602W        W85328  11.157   3.927   3.633
13603W        W85329  30.944  34.388   1.997
13604W        W85330  10.105  23.515  13.427
13605W        W85331  26.395   4.737   2.194
13606W        W85332  28.260  43.375  14.382
13607W        W85333  43.496   7.186   1.780
13608W        W85334  21.575   2.537  12.097
13609W        W85335  42.764  44.236   0.766
13610W        W85336  40.585  44.519   4.944
13611W        W85337  35.592   2.181   4.505
13612W        W85338  25.381  12.805   3.269
13613W        W85339   7.837  14.970  12.618
13614W        W85340  17.641   4.475   4.667
13615W        W85341  17.148  10.274   4.995
13616W        W85342  44.317  10.336  13.681
13617W        W85343  13.386  19.556   0.775
13618W        W85344  15.316  19.551   3.029
13619W        W85345  16.142  35.411  11.092
13620W        W85346   7.271  44.328  10.411
13621W        W85347  22.489  10.187  12.073
13622W        W85348   1.043  22.137  12.085
13623W        W85349  33.892  19.517  11.007
13624W        W85350  16.674  33.326   2.632
13625W        W85351  32.910  36.955  10.913
13626W        W85352  38.303  24.640  12.856
13627W        W85353  16.310  37.621   2.558
13628W        W85354  34.534   8.492  13.119
13629W        W85355  16.325   6.828   0.255
13630W        W85356  44.224  37.504   4.579
13631W        W85357  44.015   2.828   1.720
13632W        W85358  10.580  12.184  12.438
13633W        W85359   7.216  42.722  14.389
13634W        W85360  20.613   8.177   1.779
13635W        W85361   0.915  40.292  14.615
13636W        W85362  24.645  30.504   2.334
13637W        W85363  34.239  42.927   4.156
13638W        W85364  39.079  23.431  12.486
13639W        W85365  38.684  35.674   4.323
13640W        W85366  18.091   3.507  14.318
13641W        W85367  15.219  43.737  13.408
13642W        W85368  30.196  27.260   3.794
13643W        W85369  15.222  39.316   2.088
13644W        W85370  14.129  31.237   0.520
13645W        W85371  10.680  39.231  12.451
13646W        W85372  41.683  22.506  12.143
13647W        W85373  20.612  22.722   0.164
13648W        W85374  18.996  17.607   2.793
13649W        W85375  17.614  32.624   1.262
13650W        W85376  19.408  31.003  10.955
13651W        W85377  33.302  37.449  10.239
13652W        W85378  13.646  36.524   4.410
13653W        W85379  31.926  29.956   4.261
13654W        W85380  18.615  27.957  12.266
13655W        W85381  36.454   3.884   0.674
13656W        W85382   6.426  25.627   2.166
13657W        W85383  44.303  34.316  13.531
13658W        W85384  15.623  32.069   0.331
13659W        W85385  16.533  15.132   1.819
13660W        W85386  10.621  44.894  12.645
13661W        W85387  34.495  30.101   3.238
13662W        W85388  10.769  11.744   1.727
13663W        W85389  33.957  10.156  14.663
13664W        W85390  39.026   5.734  13.030
13665W        W85391  18.195   0.051  10.784
13666W        W85392  37.195  33.517   4.801
13667W        W85393  42.926  14.995   3.717
13668W        W85394  11.162  29.965   3.428
13669W        W85395  40.074  22.073   0.421
13670W        W85396  42.449  20.326   1.785
13671W        W85397  11.718  12.381  13.461
13672W        W85398  37.563  22.089   2.184
13673W        W85399  15.349  32.475   0.015
13674W        W85400  36.556  23.782   2.794
13675W        W85401  12.879  32.346  12.029
13676W        W85402  36.003   6.284   3.807
13677W        W85403   4.655  18.223  10.716
13678W        W85404   6.351   7.411   0.735
13679W        W85405  25.031  23.700   0.361
13680W        W85406  32.159  17.256   1.000
13681W        W85407  32.042  39.892  10.511
13682W        W85408   8.356   7.424   3.800
13683W        W85409  10.787  21.804  14.976
13684W        W85410  14.762  26.756   0.301
13685W        W85411  21.594  27.307   3.268
13686W        W85412  20.756  44.273   1.324
13687W        W85413   4.727  12.796  10.975
13688W        W85414   4.321   4.884   4.171
13689W        W85415  18.293  37.902  10.714
13690W        W85416   5.828   5.836  13.588
13691W        W85417  10.748  28.742  12.937
13692W        W85418  16.798  41.233  13.662
13693W        W85419  25.481  35.215   0.381
13694W        W85420  38.636   4.780  12.474
13695W        W85421  12.056   1.135  14.387
13696W        W85422   7.650  13.060   4.226
13697W        W85423  33.836  43.711   1.761
13698W        W85424  42.510  20.798  13.913
13699W        W85425  40.479  33.675  13.172
13700W        W85426  31.060   7.686  13.367
13701W        W85427  22.967  30.909   2.687
13702W        W85428  30.151  42.580  11.184
13703W        W85429  27.908  37.055  12.137
13704W        W85430   9.598  10.646   3.196
13705W        W85431  34.706  39.889  12.412
13706W        W85432  28.169  23.251  11.624
13707W        W85433  24.645  24.590   0.666
13708W        W85434  19.763   4.670  12.456
13709W        W85435   1.608  36.790  11.215
13710W        W85436  43.038  31.448  14.058
13711W        W85437  34.518  24.565  14.257
13712W        W85438   0.285   9.130  14.013
13713W        W85439   7.671  20.152   3.656
13714W        W85440  43.873  18.752  11.665
13715W        W85441  18.731   4.249   1.875
13716W        W85442  27.308  32.660  13.512
13717W        W85443   8.222  44.410   2.572
13718W        W85444   8.915  13.690  14.675
13719W        W85445  25.067  17.479   3.655
13720W        W85446  17.045  39.974  12.942
13721W        W85447   0.885  17.344   1.826
13722W        W85448   1.307   9.917  14.358
13723W        W85449  12.500  25.706   2.543
13724W        W85450  14.811  11.402  14.420
13725W        W85451  26.518   1.752   1.392
13726W        W85452  36.844  23.623   2.167
13727W        W85453   4.187  20.646   0.697
13728W        W85454  35.899  43.832   4.045
13729W        W85455   0.563   9.357  14.444
13730W        W85456  36.571  41.434  12.910
13731W        W85457   2.005  12.756   1.932
13732W        W85458  15.298  24.251  13.980
13733W        W85459  15.669  25.667   0.933
13734W        W85460   4.228   1.154   4.063
13735W        W85461  30.834  29.810   0.723
13736W        W85462  26.645   3.708  13.050
13737W        W85463   9.960  28.966   1.506
13738W        W85464   2.346  12.703  13.043
13739W        W85465  27.001  12.320   0.383
13740W        W85466  32.555  41.765   1.423
13741W        W85467   3.918  39.321   3.795
13742W        W85468  16.179  31.000   3.422
13743W        W85469  42.507  18.081  13.958
13744W        W85470  43.132  26.606   2.751
13745W        W85471  21.653  18.705  14.672
13746W        W85472  25.027   2.887   4.089
13747W        W85473  34.133   8.780  13.869
13748W        W85474  42.566  14.613   2.963
13749W        W85475  28.719   5.877   1.392
13750W        W85476  40.173  19.683  13.972
13751W        W85477   5.701   6.416   1.342
13752W        W85478   7.464   3.782   4.352
13753W        W85479  22.010   2.103  11.524
13754W        W85480  37.055   9.366   3.893
13755W        W85481  25.517  43.059  11.158
13756W        W85482  19.804  24.197  14.499
13757W        W85483  43.155   3.237  12.165
13758W        W85484   8.907  23.996   1.437
13759W        W85485  34.585   0.927   2.323
13760W        W85486  10.825  33.827  11.978
13761W        W85487  30.416  21.007   0.185
13762W        W85488   2.982  41.887   1.799
13763W        W85489  29.241   9.128  12.833
13764W        W85490  36.177  36.307  14.509
13765W        W85491  10.214  10.884  12.578
13766W        W85492  43.699  33.876   0.791
13767W        W85493   3.989   3.012  12.882
13768W        W85494  28.597  24.955   2.193
13769W        W85495  42.546   2.881   1.516
13770W        W85496  24.594  18.036   1.396
13771W        W85497   4.363  43.831  11.466
13772W        W85498  12.808  37.578  12.794
13773W        W85499  34.182   5.953  12.390
13774W        W85500  11.400  22.218   1.830
13775W        W85501  43.505   6.848  13.064
13776W        W85502  10.084  29.153   2.707
13777W        W85503  20.298  24.455  10.644
13778W        W85504   1.718  34.985  14.976
13779W        W85505  38.485  38.091   1.274
13780W        W85506  29.184   4.540   1.830
13781W        W85507  19.061  36.049   4.843
13782W        W85508  17.275  16.989   3.692
13783W        W85509  18.707   1.803  11.772
13784W        W85510  14.613  17.149   2.190
13785W        W85511  19.245  41.234  13.481
13786W        W85512  12.348   5.180   2.190
13787W        W85513  11.215  35.327   3.736
13788W        W85514  17.195  17.192  12.351
13789W        W85515  17.437   0.238  10.982
13790W        W85516  10.690  26.271   1.769
13791W        W85517  19.218  11.818   3.084
13792W        W85518   3.062  11.393   3.140
13793W        W85519  39.524   3.787   3.146
13794W        W85520   8.529  24.357  14.059
13795W        W85521  43.378  37.282   4.574
13796W        W85522  23.584  27.682  10.704
13797W        W85523  44.511  12.263  10.317
13798W        W85524  27.506  23.492  12.016
13799W        W85525  34.064  17.224   2.835
13800W        W85526  10.642  11.816  12.881
13801W        W85527  12.333   4.331   2.529
13802W        W85528  29.267  21.671  14.858
13803W        W85529  11.731  18.337   3.751
13804W        W85530  26.607  13.363   1.251
13805W        W85531  35.632   2.234   1.310
13806W        W85532  24.557   2.770  13.692
13807W        W85533  42.572   8.912   1.372
13808W        W85534  25.156  44.520   1.348
13809W        W85535  11.849  21.307   4.260
13810W        W85536  38.016   1.529  10.647
13811W        W85537   3.796  36.149   1.122
13812W        W85538  23.702  13.645  10.050
13813W        W85539  17.123  18.603   0.492
13814W        W85540   9.439  16.612   0.711
13815W        W85541  13.563  17.069  13.650
13816W        W85542  43.944  32.162  11.613
13817W        W85543   5.310  38.487   4.573
13818W        W85544  35.912  13.893  11.636
13819W        W85545  30.417  31.187  11.966
13820W        W85546  36.669  16.294   1.863
13821W        W85547  41.880  14.110   4.069
13822W        W85548   3.226  20.234  11.135
13823W        W85549  23.086   5.430  13.783
13824W        W85550   4.832   2.195   0.034
13825W        W85551  37.423  30.323   3.348
13826W        W85552  29.501  43.830   3.645
13827W        W85553  33.859  27.220   3.661
13828W        W85554  26.943  20.792  12.884
13829W        W85555   2.858  30.491  10.852
13830W        W85556  35.479  39.862   2.632
13831W        W85557  38.346  39.326   4.566
13832W        W85558  15.220   3.563  14.949
13833W        W85559  22.396   1.285   0.281
13834W        W85560  28.463  33.132   2.680
13835W        W85561  28.162  10.378   3.237
13836W        W85562  28.412  10.785  12.069
13837W        W85563  14.247  22.282   3.801
13838W        W85564  34.835  15.367   1.621
13839W        W85565   4.279  28.069  13.998
13840W        W85566  14.453  24.922  11.863
13841W        W85567  25.171  40.494  12.000
13842W        W85568  30.978  37.341   1.189
13843W        W85569  39.911  18.284   2.151
13844W        W85570  14.385  33.063  14.384
13845W        W85571  29.811  34.177  13.169
13846W        W85572  42.562   5.612  11.625
13847W        W85573  20.260  44.286  11.258
13848W        W85574  24.283  16.277   4.146
13849W        W85575   1.274   0.262   0.576
13850W        W85576  21.318  27.765   4.796
13851W        W85577  33.604  21.727   3.382
13852W        W85578  15.200  19.702  10.616
13853W        W85579  33.739  18.522  13.942
13854W        W85580  19.767   3.787   0.836
13855W        W85581  10.702  12.732   3.254
13856W        W85582  17.970   6.330   1.323
13857W        W85583   4.638  23.247  13.044
13858W        W85584  26.609  29.547   3.271
13859W        W85585  15.248  41.814   0.958
13860W        W85586  43.972  13.265  12.457
13861W        W85587  22.022  18.257  12.059
13862W        W85588  31.572  29.956   1.766
13863W        W85589  35.165  36.224   2.855
13864W        W85590  42.365  30.713   4.463
13865W        W85591  17.290  34.578  14.873
13866W        W85592  39.066  38.881   0.903
13867W        W85593  10.587  22.556   0.680
13868W        W85594  28.420  11.728   5.040
13869W        W85595  44.865  33.843  13.783
13870W        W85596  12.667  39.415  10.602
13871W        W85597  19.992  28.208  11.912
13872W        W85598  22.636  39.039   0.946
13873W        W85599  23.185  41.365   3.727
13874W        W85600  19.462  27.716  14.327
13875W        W85601  13.987  42.499   3.717
13876W        W85602  11.134   9.876   1.725
13877W        W85603  44.284  22.428  10.107
13878W        W85604  42.090  10.908   1.633
13879W        W85605  17.753  27.645  10.887
13880W        W85606  21.295   5.229   3.554
13881W        W85607   7.269  16.886  11.205
13882W        W85608  23.909  39.053   1.510
13883W        W85609  11.240  25.144  11.106
13884W        W85610  29.599   9.673  14.684
13885W        W85611  13.787  11.589  10.984
13886W        W85612  14.590  42.756  13.936
13887W        W85613  31.633   8.359  13.212
13888W        W85614   0.374   8.294  10.996
13889W        W85615  13.600  30.491   3.711
13890W        W85616   6.441  22.742  12.488
13891W        W85617  24.044  33.201  11.835
13892W        W85618  22.079  17.650   1.157
13893W        W85619  16.641  39.618   3.988
13894W        W85620   8.170   4.501  11.171
13895W        W85621  36.060  34.126  10.698
13896W        W85622   0.290   4.716   4.395
13897W        W85623  36.646  38.531   0.721
13898W        W85624  43.544   1.975  13.182
13899W        W85625  18.828  28.129   3.628
13900W        W85626   0.026  17.595   0.849
13901W        W85627   2.579   4.500  13.862
13902W        W85628  20.820   5.268  14.438
13903W        W85629   6.613  25.205  13.139
13904W        W85630  37.386  35.090  12.015
13905W        W85631   2.837  25.230  12.579
13906W        W85632  14.848  12.795  14.858
13907W        W85633  43.750  25.713  13.307
13908W        W85634  26.973   5.164   1.298
13909W        W85635   2.818  22.219   0.895
13910W        W85636  18.611  13.640  12.490
13911W        W85637  10.703  25.541  12.025
13912W        W85638   8.007  19.722   3.653
13913W        W85639  38.993  34.588   0.424
13914W        W85640   8.928  43.763  11.092
13915W        W85641  22.075  17.319   2.667
13916W        W85642  21.499  35.518  13.786
13917W        W85643  15.053  38.831   2.064
13918W        W85644  20.251  23.938   1.810
13919W        W85645  11.863  15.187   4.352
13920W        W85646  14.748  35.566   3.855
13921W        W85647  15.833  35.656   4.240
13922W        W85648  42.553  20.862  14.765
13923W        W85649   6.899  10.600   1.689
13924W        W85650  14.691  38.776  13.050
13925W        W85651  17.062  37.877  10.539
13926W        W85652  38.815  15.172   4.948
13927W        W85653  39.979   1.504   3.551
13928W        W85654  10.674  16.664   4.735
13929W        W85655   9.162  16.297  10.530
13930W        W85656  25.988  10.349  13.016
13931W        W85657   8.299  28.060  10.427
13932W        W85658  10.446   3.579  13.105
13933W        W85659  30.401  20.125  14.687
13934W        W85660  39.561  30.166   1.234
13935W        W85661  25.978  14.773  12.947
13936W        W85662  25.221  29.967   0.736
13937W        W85663  35.513  13.103  10.720
13938W        W85664   8.905  44.187   3.053
13939W        W85665  25.652  26.622   4.515
13940W        W85666  34.338   9.437  11.984
13941W        W85667  29.454  21.986  11.618
13942W        W85668  27.066   5.831  10.665
13943W        W85669   7.648  29.435  11.766
13944W        W85670  43.352  39.510   1.277
13945W        W85671   6.585  13.375   2.367
13946W        W85672  15.812  18.614   2.188
13947W        W85673  38.090  22.540   3.666
13948W        W85674  33.887  23.998  12.791
13949W        W85675  13.249  21.125  10.627
13950W        W85676  36.797  26.446   0.711
13951W        W85677  23.015  41.914  13.468
13952W        W85678  13.492   4.275  10.970
13953W        W85679   8.643  19.699  11.475
13954W        W85680   8.754  13.718   2.217
13955W        W85681  11.824   3.215   1.349
13956W        W85682  28.725  44.020   1.323
13957W        W85683  34.602  30.143  12.343
13958W        W85684  33.443  34.845  13.119
13959W        W85685  14.622  23.725  12.784
13960W        W85686  33.657  10.502  12.917
13961W        W85687  26.634  29.064   5.070
13962W        W85688  25.749  35.078   3.506
13963W        W85689  19.968  38.865  13.447
13964W        W85690  24.969  21.449   3.259
13965W        W85691   1.828  42.356  10.733
13966W        W85692  21.966  30.670   0.381
13967W        W85693  34.426  28.824   2.799
13968W        W85694  39.865   4.772  10.699
13969W        W85695  26.151   9.311  12.015
13970W        W85696  26.993  24.962  10.751
13971W        W85697  43.022   2.560  14.782
13972W        W85698   9.203  34.112   3.169
13973W        W85699  35.282  22.179   2.790
13974W        W85700  31.077  33.796   2.916
13975W        W85701  28.968  27.123   4.316
13976W        W85702  29.943  32.096   4.298
13977W        W85703   9.342   2.422  11.114
13978W        W85704  16.218  24.043  10.688
13979W        W85705   2.830  43.451   0.391
13980W        W85706   5.492  20.978   2.413
13981W        W85707  17.589  39.844  12.888
13982W        W85708  28.629  24.758  13.445
13983W        W85709  18.608  37.277  11.954
13984W        W85710  37.977   0.497   4.092
13985W        W85711  12.767  12.401   1.384
13986W        W85712  32.894  33.917  12.676
13987W        W85713  44.817  18.772   2.185
13988W        W85714   8.017  27.232  13.045
13989W        W85715  24.059  34.982   2.425
13990W        W85716  35.472  30.542  11.983
13991W        W85717  30.028   9.420  14.532
13992W        W85718  24.503  30.626  13.057
13993W        W85719   7.751   6.834   4.112
13994W        W85720   3.251   5.642  14.594
13995W        W85721  14.697   9.099   0.902
13996W        W85722  38.585   3.140   4.392
13997W        W85723   3.820  19.042  11.507
13998W        W85724  41.539   5.052   4.262
13999W        W85725  19.556   2.822   2.240
14000W        W85726   5.411  44.795   4.563
14001W        W85727  15.545  29.459  14.503
14002W        W85728  10.846   0.293   0.873
14003W        W85729  13.147   5.138  12.416
14004W        W85730  19.298   3.324   2.272
14005W        W85731  24.392  20.219   1.914
14006W        W85732  31.840  17.769  13.654
14007W        W85733  15.581  20.753   2.694
14008W        W85734  44.820  29.983  11.633
14009W        W85735   0.340  18.700   2.297
14010W        W85736  34.320  30.754   4.432
14011W        W85737  13.304  17.771   4.676
14012W        W85738  40.925  29.970  12.104
14013W        W85739  26.489  40.984  11.619
14014W        W85740  18.653  36.624  11.101
14015W        W85741  22.085  40.889   2.771
14016W        W85742  24.118  44.047  11.820
14017W        W85743   7.128  25.990   2.363
14018W        W85744  34.826  11.180  13.057
14019W        W85745  10.957  16.041  13.967
14020W        W85746  42.710  13.267   1.390
14021W        W85747  40.714  31.652   4.136
14022W        W85748  41.855  31.434  11.752
14023W        W85749  41.990  20.231   4.094
14024W        W85750  13.032  32.551  14.554
14025W        W85751  23.495   6.337  13.034
14026W        W85752  35.053  10.575   0.747
14027W        W85753  26.923  20.572  10.589
14028W        W85754  12.715  41.377  14.849
14029W        W85755  26.347  41.520  11.466
14030W        W85756  34.860   7.167  11.151
14031W        W85757  12.417  13.759  12.087
14032W        W85758  18.894  11.413  11.196
14033W        W85759  29.554  36.404  12.088
14034W        W85760   3.767  31.457  12.386
14035W        W85761  18.138  29.904  10.745
14036W        W85762  17.516  15.849  12.830
14037W        W85763  17.774  41.824   3.190
14038W        W85764  39.090  26.463   0.434
14039W        W85765  23.601   4.425   4.409
14040W        W85766   6.980  26.094  11.906
14041W        W85767  44.016  12.056  14.274
14042W        W85768  21.379  44.155  10.174
14043W        W85769  20.156  33.063   3.220
14044W        W85770   0.279  18.089   4.036
14045W        W85771  33.716  41.710   3.705
14046W        W85772  31.219  39.060  13.291
14047W        W85773  14.270  27.005   2.882
14048W        W85774  44.135  31.143   1.268
14049W        W85775  14.450  21.528  11.882
14050W        W85776  15.278   4.784   2.804
14051W        W85777  38.020  34.859   2.674
14052W        W85778  37.046  20.142   0.340
14053W        W85779  35.425   7.725  12.415
14054W        W85780   7.403  32.548  12.517
14055W        W85781  33.853  39.164   2.358
14056W        W85782  21.067  10.308   2.777
14057W        W85783  33.558  42.606   2.585
14058W        W85784  15.663  21.944  14.378
14059W        W85785   5.002  39.456  13.057
14060W        W85786   6.906  40.874   4.151
14061W        W85787  24.651  38.935   4.201
14062W        W85788  12.587  31.520  10.391
14063W        W85789  13.115   3.136   5.075
14064W        W85790   0.872  40.389   0.112
14065W        W85791  37.612  36.936   2.118
14066W        W85792  43.995  35.480   0.002
14067W        W85793   7.737  35.061   5.044
14068W        W85794  18.165  29.775   3.649
14069W        W85795  38.075   2.757   4.277
14070W        W85796  13.526  41.502   4.167
14071W        W85797  28.094  34.317  12.602
14072W        W85798  21.927  28.913   4.620
14073W        W85799   5.457   6.343   3.652
14074W        W85800  34.063  31.067   0.334
14075W        W85801  30.022  28.413   1.491
14076W        W85802   4.369  21.547   1.334
14077W        W85803   1.006  43.770  10.701
14078W        W85804  21.160   2.263   1.501
14079W        W85805   3.199   4.904  11.652
14080W        W85806  31.064  41.108   2.175
14081W        W85807   1.895   4.761   2.262
14082W        W85808  19.651   0.381   3.610
14083W        W85809  23.269  10.683  12.622
14084W        W85810  15.789  27.521   3.208
14085W        W85811   3.405   1.298   2.745
14086W        W85812   2.314  32.595  11.582
14087W        W85813  39.418  30.605   3.585
14088W        W85814  14.799   6.227   0.015
14089W        W85815  25.663  27.439   0.334
14090W        W85816   7.076  32.513   1.935
14091W        W85817  42.264   3.971  12.945
14092W        W85818  14.289  33.061  10.928
14093W        W85819   1.244  21.554   4.643
14094W        W85820  17.829  22.626   0.723
14095W        W85821  27.204  10.633   1.191
14096W        W85822  16.439  26.020   1.441
14097W        W85823  41.014  12.767   0.754
14098W        W85824  41.244  36.338  14.310
14099W        W85825  32.379  24.911  14.901
14100W        W85826  24.069  13.329   4.744
14101W        W85827  34.363  17.814   2.829
14102W        W85828  15.338   4.687  13.946
14103W        W85829  31.166  26.192   0.705
14104W        W85830   5.868  10.513  14.364
14105W        W85831  16.855  24.117  11.528
14106W        W85832   4.465  22.331  12.910
14107W        W85833   7.415  32.687  11.546
14108W        W85834  31.983   6.174   5.050
14109W        W85835  39.227  24.496  13.380
14110W        W85836  13.943  31.853  13.810
14111W        W85837  44.987  26.081   1.255
14112W        W85838  31.245  40.903  10.768
14113W        W85839  34.661  31.623   0.769
14114W        W85840  42.143  39.014   0.986
14115W        W85841  24.175  22.182   3.584
14116W        W85842  35.015  19.174   0.867
14117W        W85843  41.387  30.587  12.125
14118W        W85844  22.104  19.481   1.784
14119W        W85845   7.700   7.209   1.300
14120W        W85846  34.295  20.825   2.512
14121W        W85847  23.559   5.260  11.423
14122W        W85848   3.939  29.516   1.370
14123W        W85849  39.957  15.918  13.102
14124W        W85850  15.796  29.738   1.822
14125W        W85851  30.178  14.209   3.227
14126W        W85852  33.340  14.383   3.752
14127W        W85853  11.756   6.389  11.865
14128W        W85854  14.327  42.895  12.428
14129W        W85855  35.577   9.127   0.300
14130W        W85856  32.949  21.390  11.669
14131W        W85857  23.452  38.364   1.913
14132W        W85858  11.326   0.488  12.647
14133W        W85859  36.019  29.023   2.989
14134W        W85860  32.087   9.637  10.976
14135W        W85861  22.801  40.992   1.993
14136W        W85862  14.515  41.916   2.889
14137W        W85863  29.120  43.297   0.997
14138W        W85864  27.410  19.785  11.645
14139W        W85865  17.890  10.807  10.825
14140W        W85866  21.099   7.913   2.920
14141W        W85867  21.444  28.017  12.057
14142W        W85868  12.817  39.105  12.944
14143W        W85869   8.384  25.941  10.361
14144W        W85870  20.030  20.578  13.893
14145W        W85871  22.807  35.554  11.163
14146W        W85872  20.242  39.472   3.010
14147W        W85873   1.309   0.166  11.594
14148W        W85874  27.121  44.484   2.296
14149W        W85875   4.734  41.582   3.266
14150W        W85876  42.543  22.733   1.852
14151W        W85877  18.085  43.230   2.689
14152W        W85878  38.352  22.283   2.824
14153W        W85879   8.782  37.296  13.487
14154W        W85880  20.856  26.257   4.555
14155W        W85881  37.172   1.412   0.381
14156W        W85882  16.186   3.038  11.192
14157W        W85883  22.052  20.147  14.396
14158W        W85884  20.697  26.985   9.771
14159W        W85885  39.984  21.237   2.359
14160W        W85886  26.488  11.748  13.959
14161W        W85887  44.511  40.985   1.280
14162W        W85888  15.207  34.010  13.814
14163W        W85889  43.006   9.536   4.843
14164W        W85890  16.758  41.868  11.231
14165W        W85891   6.286  17.414  14.835
14166W        W85892   3.987  24.920   0.892
14167W        W85893  40.120   6.182   0.342
14168W        W85894  19.350  23.969  14.490
14169W        W85895  11.269   1.248   0.710
14170W        W85896   7.633  33.992   1.231
14171W        W85897  11.682  32.388   2.169
14172W        W85898  39.919   7.048   2.781
14173W        W85899   5.839  16.611  12.470
14174W        W85900  33.767  12.815  11.238
14175W        W85901  29.130  43.216   3.272
14176W        W85902  20.026   7.241  14.862
14177W        W85903  26.069  31.624   3.834
14178W        W85904  14.630  38.775  14.838
14179W        W85905  39.686  31.641  11.184
14180W        W85906  22.583  29.399  13.706
14181W        W85907  38.779  39.785  11.549
14182W        W85908  29.585  10.423  10.779
14183W        W85909  25.119  14.596   3.187
14184W        W85910  41.342  35.904  12.685
14185W        W85911  38.903  29.329  12.934
14186W        W85912   6.709  44.555  13.424
14187W        W85913  21.672   5.314   0.820
14188W        W85914  43.393  10.919  10.700
14189W        W85915  35.638  13.488   0.532
14190W        W85916  13.837  42.026  13.441
14191W        W85917  17.839  21.245  12.867
14192W        W85918  15.742  23.726   1.844
14193W        W85919  26.475   8.822   0.244
14194W        W85920  19.651  29.969   1.857
14195W        W85921  18.786  21.524   1.942
14196W        W85922   6.445  24.084   3.833
14197W        W85923  36.535   6.456  12.648
14198W        W85924  40.348   5.088   3.841
14199W        W85925   5.747  39.310   1.012
14200W        W85926  16.235   3.961  14.777
14201W        W85927  24.003  39.546  11.608
14202W        W85928  37.766  23.701   4.102
14203W        W85929  13.532  27.453   2.892
14204W        W85930  25.378   6.791   3.267
14205W        W85931   0.955  38.448  10.724
14206W        W85932  17.140   7.185   2.208
14207W        W85933   9.139  32.673  11.109
14208W        W85934  21.454  36.501   3.310
14209W        W85935   5.417  28.762  13.155
14210W        W85936  21.033  14.053   2.689
14211W        W85937  27.662  19.753   2.322
14212W        W85938  21.519  34.744  11.060
14213W        W85939   3.302  10.283  13.022
14214W        W85940  32.339  38.142  11.001
14215W        W85941   6.488  34.270   4.259
14216W        W85942  41.816   8.938  13.483
14217W        W85943  26.959  25.463   1.922
14218W        W85944  27.954  34.594  11.892
14219W        W85945  11.369  10.593  13.530
14220W        W85946   4.949  11.610   2.995
14221W        W85947  30.743  12.404   1.184
14222W        W85948  38.178   2.533  11.510
14223W        W85949  29.582  12.835   1.708
14224W        W85950  32.848  18.853  13.600
14225W        W85951  44.531  17.683   0.834
14226W        W85952  32.500  24.709  11.101
14227W        W85953  10.647   8.259  12.137
14228W        W85954  31.137  17.210  14.736
14229W        W85955   6.896  16.911   3.656
14230W        W85956  43.227  29.561  14.471
14231W        W85957  36.836  24.311  14.251
14232W        W85958  30.619   7.684  12.006
14233W        W85959  43.871  41.431   1.690
14234W        W85960  32.450  29.621   3.211
14235W        W85961  12.442  25.792  10.734
14236W        W85962  11.869   6.459   0.695
14237W        W85963  32.601  19.561  14.776
14238W        W85964   2.029  43.742   3.431
14239W        W85965  38.533  17.198  13.456
14240W        W85966   4.385  27.548  14.355
14241W        W85967   2.027  24.866   2.645
14242W        W85968  27.861   9.716   1.857
14243W        W85969  38.893  27.444   4.073
14244W        W85970  42.440  23.293  12.039
14245W        W85971  26.396  28.333   0.800
14246W        W85972  10.585  26.111  13.438
14247W        W85973   0.871  23.105   0.386
14248W        W85974  25.790  32.023  11.617
14249W        W85975  20.557  18.013   2.222
14250W        W85976  39.102  27.124  11.016
14251W        W85977   2.860  27.056   4.957
14252W        W85978  43.065  29.529   2.164
14253W        W85979  39.843  19.166   4.622
14254W        W85980  37.604  38.329   3.171
14255W        W85981  13.469  31.909  13.237
14256W        W85982  15.265  25.525   4.775
14257W        W85983  39.113  36.049  12.555
14258W        W85984  32.428  31.908   1.199
14259W        W85985   7.713  39.375  13.832
14260W        W85986   2.615  30.437  12.983
14261W        W85987   0.068   9.573  13.787
14262W        W85988  20.675  43.770   2.069
14263W        W85989  32.643  19.494   0.290
14264W        W85990  27.660  43.255  13.497
14265W        W85991  14.593  22.316  12.233
14266W        W85992  38.301  27.995   4.548
14267W        W85993  26.618  10.641  13.789
14268W        W85994  40.897   0.272   0.211
14269W        W85995  25.708  23.552  11.464
14270W        W85996  33.593  33.388   2.383
14271W        W85997  13.374  26.513  10.739
14272W        W85998  10.359  32.678  11.504
14273W        W85999  15.321   9.391   4.620
14274W        W86000  39.715   4.811  14.416
14275W        W86001  20.590  30.665   2.136
14276W        W86002  27.044  40.493   1.456
14277W        W86003  16.884  43.001  14.304
14278W        W86004  39.606  30.651  14.704
14279W        W86005  42.159  11.926   4.958
14280W        W86006  37.439  28.478  14.897
14281W        W86007   0.501  29.874   1.854
14282W        W86008  27.329  35.411   3.056
14283W        W86009  21.966  13.835   3.686
14284W        W86010  40.825  37.855  12.386
14285W        W86011   3.370   8.679   1.273
14286W        W86012  34.427   8.577  10.626
14287W        W86013  33.002   9.970   2.213
14288W        W86014  21.550  19.437   4.485
14289W        W86015  18.549  25.248   2.770
14290W        W86016  36.066  12.553   1.759
14291W        W86017   7.074   4.690   3.015
14292W        W86018  14.666  37.330  14.928
14293W        W86019  29.713  11.089  13.024
14294W        W86020  30.020  14.656   2.472
14295W        W86021  22.169   1.210   3.398
14296W        W86022  40.951  15.731   5.062
14297W        W86023  18.490   3.813   0.909
14298W        W86024  41.766  37.542  14.861
14299W        W86025  25.221  16.159  12.478
14300W        W86026  27.029   7.501  12.001
14301W        W86027  33.388  25.052   2.833
14302W        W86028  32.071  13.121   2.053
14303W        W86029  20.001  23.757   1.374
14304W        W86030  25.836  35.435   3.118
14305W        W86031  18.507   5.996   4.646
14306W        W86032   9.930  12.726  13.766
14307W        W86033  19.776  33.101  11.446
14308W        W86034  20.208  11.660  11.819
14309W        W86035   4.884  12.692  14.856
14310W        W86036  37.340  26.985  14.979
14311W        W86037   8.369  19.974   2.426
14312W        W86038  20.257  16.741  12.091
14313W        W86039   1.409  38.646  12.782
14314W        W86040  27.988  42.100  14.889
14315W        W86041  36.539  43.277  12.251
14316W        W86042  41.511  25.101   0.209
14317W        W86043  32.018   8.955   5.047
14318W        W86044  40.125  32.375  12.901
14319W        W86045  12.637  40.109   1.307
14320W        W86046  10.596  12.427   3.675
14321W        W86047  37.944   0.546  13.863
14322W        W86048   7.095  30.490  13.493
14323W        W86049  35.101  40.267   1.881
14324W        W86050  15.294  33.960   4.472
14325W        W86051  26.013  17.573  14.897
14326W        W86052  37.554  11.033   3.868
14327W        W86053  28.985  22.318  10.972
14328W        W86054  36.311  11.178  12.897
14329W        W86055  32.589  16.784  14.536
14330W        W86056   4.340  10.102  12.931
14331W        W86057  11.641   7.680   2.716
14332W        W86058   3.847  40.226  14.931
14333W        W86059  43.110  40.161   2.895
14334W        W86060  30.596  10.288  13.478
14335W        W86061   2.647  35.054   0.268
14336W        W86062  36.885  27.706   2.830
14337W        W86063  28.536  21.296  13.353
14338W        W86064  40.923   4.411   3.985
14339W        W86065  15.774   8.142  12.424
14340W        W86066   5.230  22.672  13.267
14341W        W86067  26.829  40.489   2.485
14342W        W86068  43.200  14.298  11.230
14343W        W86069  34.142  44.017  13.788
14344W        W86070   5.485  44.701   0.194
14345W        W86071  32.598  29.208  14.558
14346W        W86072  17.041  30.506  12.383
14347W        W86073  42.018  13.073  10.755
14348W        W86074   6.267  44.751   0.029
14349W        W86075   5.853  37.312   1.847
14350W        W86076  24.169  31.413  11.883
14351W        W86077  41.010  34.361  11.503
14352W        W86078  34.910  18.018   4.352
14353W        W86079  40.765  40.129   3.661
14354W        W86080  42.915  34.949   2.157
14355W        W86081  29.929   6.269  13.802
14356W        W86082  41.957   9.670  14.281
14357W        W86083  11.038  27.030   2.239
14358W        W86084  34.777  10.870  12.206
14359W        W86085  33.341  15.917   3.242
14360W        W86086  38.902  41.796   1.449
14361W        W86087  30.849   7.799   0.232
14362W        W86088   1.264  44.738  13.484
14363W        W86089  32.371  19.153  10.549
14364W        W86090  34.597  20.209  11.923
14365W        W86091  11.836  33.556   3.202
14366W        W86092  29.115  32.070  12.919
14367W        W86093  44.257  42.020  12.360
14368W        W86094  31.028   0.446   2.649
14369W        W86095  33.684   7.915   1.442
14370W        W86096  15.382  25.003  14.285
14371W        W86097  42.329  17.185  10.407
14372W        W86098  15.203  42.110  11.734
14373W        W86099  29.537  29.037   1.923
14374W        W86100  37.262   3.415   4.050
14375W        W86101  23.047  19.041  11.636
14376W        W86102   6.199  37.969  12.536
14377W        W86103  38.134  33.315   0.909
14378W        W86104  28.953  24.185   5.702
14379W        W86105  42.404  26.451  10.537
14380W        W86106  44.019  11.618   2.602
14381W        W86107   1.926  25.466  11.820
14382W        W86108   0.073  34.191  14.578
14383W        W86109  20.603  27.837   1.139
14384W        W86110  28.167  28.579   4.288
14385W        W86111  27.402   0.526   2.701
14386W        W86112  44.646  23.821  10.081
14387W        W86113  43.355  10.903   0.913
14388W        W86114  39.263  32.826   4.226
14389W        W86115   6.833  31.381  12.602
14390W        W86116   8.134  24.202   4.599
14391W        W86117   2.688  39.815  11.213
14392W        W86118  33.178  33.228   0.001
14393W        W86119  32.563  37.918   4.734
14394W        W86120  39.014  29.148   4.567
14395W        W86121  35.266  25.197   2.899
14396W        W86122  36.545  43.325  12.819
14397W        W86123  20.299  34.714  14.181
14398W        W86124  13.098   5.879   4.792
14399W        W86125  21.737   3.317   4.141
14400W        W86126   8.108  19.408  13.651
14401W        W86127  39.536  28.469  14.250
14402W        W86128   7.337  25.656   1.634
14403W        W86129  29.974  34.874   1.177
14404W        W86130  12.759  34.577   4.703
14405W        W86131  24.888  21.184  14.341
14406W        W86132   6.881  36.426  13.311
14407W        W86133   1.847  12.356  14.727
14408W        W86134   8.383  36.891  12.849
14409W        W86135  42.508  30.605   3.983
14410W        W86136  23.623  12.359  12.593
14411W        W86137   4.551  12.750   1.624
14412W        W86138   5.187   9.749  13.083
14413W        W86139  34.072  13.661  12.810
14414W        W86140  30.616  15.210  13.021
14415W        W86141  31.148  10.482  10.726
14416W        W86142  36.803  17.798  13.369
14417W        W86143  14.709  17.689  13.094
14418W        W86144  38.495  14.131  13.117
14419W        W86145  43.544  27.030   0.010
14420W        W86146   1.547  35.782  13.086
14421W        W86147  32.888  41.848  11.538
14422W        W86148  23.197  40.507  13.833
14423W        W86149  28.737  15.716   0.939
14424W        W86150  10.859   2.459   3.202
14425W        W86151  19.546   2.463   2.660
14426W        W86152  13.569   3.485   4.235
14427W        W86153  12.861  21.651  14.844
14428W        W86154   6.592  12.588  13.789
14429W        W86155   6.127  43.157   3.633
14430W        W86156  23.584   7.954  12.444
14431W        W86157  20.256   2.307   0.935
14432W        W86158  11.659  10.254  13.080
14433W        W86159  17.040  27.223   3.896
14434W        W86160   6.372  33.953   2.894
14435W        W86161  28.181  36.936  14.382
14436W        W86162  32.485  30.172   1.773
14437W        W86163   7.618  16.065   0.948
14438W        W86164  41.336   5.699   0.940
14439W        W86165   7.695  13.098   0.170
14440W        W86166  13.652  18.683   2.830
14441W        W86167  34.966  28.188   2.612
14442W        W86168  37.863  21.431  11.131
14443W        W86169  19.775  43.445  10.681
14444W        W86170  33.120  41.043   4.569
14445W        W86171  42.499  36.843   3.010
14446W        W86172  37.890   7.741  14.425
14447W        W86173   6.733  44.289   1.595
14448W        W86174  40.289  36.806  11.462
14449W        W86175  39.333   7.832  14.981
14450W        W86176  31.042  25.738  14.364
14451W        W86177   4.580  19.603   3.627
14452W        W86178  15.086  15.334  13.675
14453W        W86179   6.795  37.685   2.572
14454W        W86180  12.921  40.373  10.963
14455W        W86181  31.997  13.332   1.029
14456W        W86182  14.207   1.215  14.376
14457W        W86183  20.188  18.054   4.497
14458W        W86184  20.752  11.277  11.527
14459W        W86185  11.072   4.312   3.299
14460W        W86186  31.075  22.712  10.949
14461W        W86187  12.924  11.222   1.245
14462W        W86188  29.554  42.843  11.889
14463W        W86189  42.329  34.963  10.763
14464W        W86190  13.238  29.867   3.679
14465W        W86191  35.607   8.767   2.461
14466W        W86192   5.883  15.353   0.721
14467W        W86193  39.474  38.682  11.156
14468W        W86194  21.629  17.844  13.340
14469W        W86195  28.577  13.178   0.471
14470W        W86196  12.122   7.137   3.814
14471W        W86197  38.877  15.114  13.360
14472W        W86198  40.094  31.820   1.762
14473W        W86199  12.155   7.882   2.771
14474W        W86200  18.517   7.665  12.688
14475W        W86201  26.485   6.413  11.623
14476W        W86202   8.784   5.191   0.911
14477W        W86203   0.738  21.972   4.077
14478W        W86204  15.820  23.682   2.880
14479W        W86205  11.608  12.001  11.558
14480W        W86206   5.493  12.943   3.302
14481W        W86207  14.052  11.705   2.725
14482W        W86208   0.760   0.791   4.036
14483W        W86209  18.583  37.199   4.537
14484W        W86210   1.841  12.352  10.703
14485W        W86211  35.266  44.233  12.460
14486W        W86212  44.744  41.927  10.687
14487W        W86213  39.916  10.824  11.582
14488W        W86214   5.190   8.422   1.751
14489W        W86215  26.264  23.241  11.549
14490W        W86216  21.026  40.325   3.271
14491W        W86217  26.191   8.218   3.192
14492W        W86218   2.781  24.190   4.998
14493W        W86219  16.741  38.801  13.545
14494W        W86220  32.184   9.490   0.020
14495W        W86221   9.214  36.019  13.419
14496W        W86222   7.404  23.732  13.921
14497W        W86223  27.257  28.464  12.550
14498W        W86224   5.943  38.853   0.858
14499W        W86225  40.526   0.442  12.982
14500W        W86226   7.675  18.539  12.417
14501W        W86227  19.479   5.954   4.594
14502W        W86228  32.815  15.810  11.901
14503W        W86229  21.462  32.393   0.330
14504W        W86230   3.921  11.533   2.725
14505W        W86231  21.152  26.865  14.416
14506W        W86232  37.788   1.007  11.501
14507W        W86233   0.400  20.637   2.909
14508W        W86234   6.761  10.068   3.117
14509W        W86235   6.287   1.544  10.767
14510W        W86236  28.071  44.726   0.910
14511W        W86237  21.640  15.720  10.671
14512W        W86238  11.764  23.599   0.709
14513W        W86239  24.214  20.676   2.205
14514W        W86240   9.839  44.017   1.522
14515W        W86241  21.672  10.168  11.000
14516W        W86242  10.785  17.293   3.941
14517W        W86243  43.229  18.190  13.303
14518W        W86244  38.675  40.023   9.711
14519W        W86245  41.050  29.173  12.496
14520W        W86246  15.035  38.547  11.641
14521W        W86247  32.116  20.710   4.326
14522W        W86248  41.800  43.128   1.396
14523W        W86249  43.125  23.669   5.024
14524W        W86250  28.115  34.032  13.906
14525W        W86251  29.112  29.354   2.620
14526W        W86252  33.642   1.809   3.711
14527W        W86253  36.102  15.743   4.674
14528W        W86254  24.064  26.700   4.190
14529W        W86255  38.892  23.184   2.097
14530W        W86256  29.681  39.369  14.989
14531W        W86257  36.257  28.688  11.099
14532W        W86258  30.008  36.078   4.198
14533W        W86259  44.883   8.235   2.148
14534W        W86260  24.214   0.331   4.639
14535W        W86261  11.403   6.778  10.517
14536W        W86262  31.425  24.442  11.475
14537W        W86263  33.232  43.716   3.502
14538W        W86264   9.213  18.778  12.957
14539W        W86265  35.641  18.613  12.469
14540W        W86266  25.420  36.800  10.671
14541W        W86267  42.716  17.671   5.093
14542W        W86268  37.486  20.057  10.982
14543W        W86269   6.916  27.624  12.499
14544W        W86270  23.474  33.618   2.658
14545W        W86271  39.680  26.107   3.326
14546W        W86272  25.604  32.902   3.928
14547W        W86273   5.492   3.139   3.757
14548W        W86274  27.030  22.208  12.003
14549W        W86275  12.396  11.762  11.564
14550W        W86276  33.428  27.191   3.209
14551W        W86277  39.745   7.645   0.257
14552W        W86278  44.771  23.549   2.178
14553W        W86279  25.845  32.539   3.170
14554W        W86280  19.594   1.291  14.947
14555W        W86281  12.507  13.201  11.576
14556W        W86282  10.707   7.365  14.412
14557W        W86283  30.020   2.195  14.451
14558W        W86284  13.640  44.871  12.359
14559W        W86285  13.856  24.321   0.359
14560W        W86286  15.832  13.719  14.065
14561W        W86287   9.731  39.639  14.760
14562W        W86288  41.993  25.945  13.385
14563W        W86289  44.500  30.866  10.754
14564W        W86290   0.214  39.792  10.338
14565W        W86291  43.960  42.872   4.646
14566W        W86292  32.172  24.816   3.271
14567W        W86293  26.607   6.619   4.155
14568W        W86294  36.074  20.736   1.256
14569W        W86295  38.539   7.539  11.622
14570W        W86296  25.490   6.919  11.594
14571W        W86297  19.193  26.695  11.926
14572W        W86298   7.773  42.479   4.054
14573W        W86299   8.432  18.168   1.350
14574W        W86300   6.917  23.892   3.748
14575W        W86301   5.187   9.445  10.619
14576W        W86302  25.474   6.270  13.711
14577W        W86303   7.909   1.373  11.580
14578W        W86304  30.968  20.030   0.816
14579W        W86305  17.291  11.751  14.841
14580W        W86306   0.624  24.705   1.667
14581W        W86307   5.811  39.156  13.871
14582W        W86308  39.414   2.971  11.131
14583W        W86309  13.606  37.942   4.941
14584W        W86310  16.246  11.537  13.073
14585W        W86311   4.617  35.145   3.771
14586W        W86312  31.111   3.201   0.551
14587W        W86313   6.105  43.453   1.802
14588W        W86314  43.842   1.646  14.804
14589W        W86315  44.772  13.711   1.600
14590W        W86316   8.921   4.820   4.767
14591W        W86317   1.762  42.410   4.746
14592W        W86318  21.790  19.869   4.026
14593W        W86319  20.126  34.293   4.285
14594W        W86320   6.631   4.411   5.007
14595W        W86321  34.140  29.069  13.392
14596W        W86322   2.821  26.310  11.260
14597W        W86323  13.085  44.207   4.631
14598W        W86324  16.666  35.472   0.974
14599W        W86325   4.682   7.347   0.976
14600W        W86326   9.154  30.972   1.690
14601W        W86327  18.321  38.065   0.139
14602W        W86328  43.304  11.128   3.383
14603W        W86329  43.454  36.512   0.679
14604W        W86330  13.405  36.108   4.232
14605W        W86331  35.445  43.291  12.787
14606W        W86332  36.878  42.668  13.456
14607W        W86333   7.404  41.222   4.562
14608W        W86334  28.472  19.085  14.755
14609W        W86335  13.324  36.418  12.938
14610W        W86336  25.590  32.123   2.711
14611W        W86337  31.178  19.848  12.468
14612W        W86338  39.520  14.473  14.542
14613W        W86339  41.335  33.963  11.359
14614W        W86340  34.813  27.295   2.739
14615W        W86341  10.245   1.818  14.918
14616W        W86342   5.363  29.024  14.013
14617W        W86343  18.516  17.091  14.031
14618W        W86344  16.230  26.129  14.463
14619W        W86345  27.492  37.925  14.989
14620W        W86346  28.120   3.585  14.655
14621W        W86347  41.432  30.004   3.081
14622W        W86348  17.746  27.570  12.276
14623W        W86349   6.165   5.917  10.363
14624W        W86350   7.084   0.400  14.402
14625W        W86351  28.115  17.523   0.337
14626W        W86352  21.294  36.545  12.176
14627W        W86353  39.055  39.110  11.013
14628W        W86354  24.159   8.400  11.097
14629W        W86355   4.372  17.717  13.148
14630W        W86356  13.005  44.223   2.653
14631W        W86357  23.495   8.711  10.662
14632W        W86358  18.902   8.432   4.647
14633W        W86359  13.800  11.210   2.850
14634W        W86360  41.550  27.167  13.332
14635W        W86361  24.575  16.837   0.217
14636W        W86362   7.845  32.140   3.561
14637W        W86363  32.441  13.187  14.794
14638W        W86364  16.425  20.561   3.297
14639W        W86365  33.059  34.619   3.790
14640W        W86366   2.297  12.756   3.290
14641W        W86367  32.661  24.599  13.480
14642W        W86368   4.756  18.546   1.483
14643W        W86369  38.129  31.507   0.877
14644W        W86370  10.139  32.776  13.900
14645W        W86371  16.488   7.697  12.302
14646W        W86372   5.659  41.052   1.833
14647W        W86373  32.130  19.534   3.085
14648W        W86374   0.949   2.003  12.943
14649W        W86375   6.133  23.598  13.865
14650W        W86376  15.437  34.850  14.967
14651W        W86377  32.373  11.617   2.911
14652W        W86378  23.554   8.424   2.120
14653W        W86379  14.316   9.193  13.524
14654W        W86380  39.369  18.818  11.099
14655W        W86381  25.674  13.036   3.649
14656W        W86382  42.391  26.182  11.571
14657W        W86383  44.622  19.746  10.692
14658W        W86384  18.763  21.611   3.841
14659W        W86385  44.260   3.300   4.189
14660W        W86386  30.558   9.683  10.670
14661W        W86387   7.661  21.735  13.077
14662W        W86388  22.050  16.385  11.813
14663W        W86389  33.491  19.006   4.074
14664W        W86390   3.413  21.045  13.300
14665W        W86391  38.303  14.578  14.506
14666W        W86392  24.054   1.566   2.354
14667W        W86393  43.378  43.424   2.181
14668W        W86394  32.483  44.885  11.375
14669W        W86395   3.689  41.910  13.449
14670W        W86396   4.348   3.986  11.959
14671W        W86397   7.872  36.904  11.433
14672W        W86398  10.615  29.183  13.299
14673W        W86399  30.198   1.852  11.191
14674W        W86400  21.825  31.672   4.622
14675W        W86401  32.295  27.761   4.091
14676W        W86402  11.249   0.712   3.797
14677W        W86403  16.053  39.824   1.368
14678W        W86404  15.759  28.600   0.762
14679W        W86405  16.279  23.460  14.396
14680W        W86406  33.439  33.222  11.921
14681W        W86407  29.464  41.300  14.384
14682W        W86408  12.179  44.440   3.871
14683W        W86409  33.413  29.677   2.814
14684W        W86410   2.527  20.837   0.554
14685W        W86411  23.040  36.004   3.764
14686W        W86412  33.796  20.223  13.895
14687W        W86413  21.438  13.263   4.478
14688W        W86414  35.058  31.390  13.741
14689W        W86415   0.062   3.372   4.763
14690W        W86416  36.387  24.416  14.023
14691W        W86417  31.947  38.844   0.841
14692W        W86418  39.146  33.264  14.365
14693W        W86419  12.865  30.838   0.803
14694W        W86420  10.619  15.944  12.030
14695W        W86421  34.794  30.923  10.781
14696W        W86422  34.993  20.714  10.292
14697W        W86423  23.102   5.815  12.010
14698W        W86424  23.224  11.372   2.385
14699W        W86425  27.163  32.962  14.009
14700W        W86426   6.729  29.065  10.856
14701W        W86427   4.252  10.157  13.834
14702W        W86428  18.119  23.199  10.844
14703W        W86429  27.941  26.998   1.383
14704W        W86430  31.150  26.533   5.525
14705W        W86431  15.645  29.948  13.195
14706W        W86432  16.164  14.629  13.369
14707W        W86433  24.108  25.252   0.406
14708W        W86434  26.424   7.429   4.785
14709W        W86435  41.345   7.693  11.825
14710W        W86436  19.295  14.937  14.954
14711W        W86437  39.831  18.827  14.403
14712W        W86438   5.487  33.517   3.232
14713W        W86439   9.949  34.865  13.402
14714W        W86440  25.398  25.173   3.245
14715W        W86441  29.507  36.382  13.042
14716W        W86442  14.184  25.447   4.037
14717W        W86443   6.015  16.034  12.965
14718W        W86444  15.897  42.795  14.404
14719W        W86445  28.186  11.668   1.842
14720W        W86446  37.659  23.098  11.599
14721W        W86447  21.292  18.296  13.483
14722W        W86448  38.525   2.309  13.515
14723W        W86449  14.073   1.876   2.747
14724W        W86450  37.948   1.828   4.485
14725W        W86451  22.791  23.116   2.112
14726W        W86452  33.502  33.520  10.781
14727W        W86453  31.461  10.394   4.527
14728W        W86454  25.865  41.353   0.962
14729W        W86455  43.798  38.332  14.978
14730W        W86456  25.703  20.740  13.992
14731W        W86457   8.846  29.627  11.149
14732W        W86458  23.236  12.695   2.769
14733W        W86459  40.203  34.819  10.600
14734W        W86460   6.636   3.531  12.344
14735W        W86461  27.570  13.256  10.705
14736W        W86462   4.225  36.611  10.548
14737W        W86463  17.145   1.420   3.060
14738W        W86464  26.622  34.426  11.450
14739W        W86465  30.036  10.432   3.622
14740W        W86466  13.634  38.029  11.909
14741W        W86467  23.106  42.277   0.481
14742W        W86468  15.544  31.080  13.296
14743W        W86469  26.487  21.311  10.313
14744W        W86470  15.787  19.279  12.216
14745W        W86471  28.309  33.573   0.238
14746W        W86472  20.281  21.493  11.151
14747W        W86473   0.844  13.472  14.587
14748W        W86474  12.775  19.013  10.725
14749W        W86475  30.636  14.868  12.638
14750W        W86476   3.383  32.270  14.496
14751W        W86477   5.478  42.272   2.121
14752W        W86478  22.323  31.147  12.020
14753W        W86479  22.117   6.678   3.653
14754W        W86480  27.997  39.786  10.952
14755W        W86481  28.098  11.317   5.017
14756W        W86482  23.547   4.357   0.740
14757W        W86483  31.181  32.608   2.543
14758W        W86484   3.137  13.106   3.918
14759W        W86485   6.385  11.760  14.983
14760W        W86486   4.759  43.787   4.015
14761W        W86487  22.268  14.159   1.878
14762W        W86488  36.730  35.735  12.069
14763W        W86489   2.257  33.401  12.156
14764W        W86490  34.118  43.365  13.095
14765W        W86491  38.435   6.504  13.250
14766W        W86492  41.514   7.919  12.515
14767W        W86493  39.505  31.924   4.626
14768W        W86494   0.186  14.788   2.144
14769W        W86495  39.799  35.214   0.462
14770W        W86496  13.825  15.262  13.071
14771W        W86497  41.620  44.958   1.801
14772W        W86498  37.006  38.105  13.080
14773W        W86499  28.236   3.921  10.112
14774W        W86500  19.297  18.508  14.303
14775W        W86501  19.317  37.901   4.086
14776W        W86502  35.802  29.113   3.971
14777W        W86503  27.638   6.826   0.956
14778W        W86504   9.129  33.004   9.819
14779W        W86505  20.585  42.617   0.281
14780W        W86506  17.671  14.274   2.883
14781W        W86507  39.032  31.668   4.813
14782W        W86508  23.943  30.165   3.284
14783W        W86509  18.526  11.063   0.572
14784W        W86510  31.332  11.172  13.811
14785W        W86511   9.197  15.709  11.796
14786W        W86512  29.153  35.904  14.677
14787W        W86513  23.234  36.039   0.252
14788W        W86514   2.869  36.903   0.845
14789W        W86515  10.377   6.095  10.259
14790W        W86516  24.156   5.058  10.272
14791W        W86517   0.556  19.083   4.380
14792W        W86518  25.081  15.868   4.645
14793W        W86519  10.854  10.146  14.359
14794W        W86520  21.120  14.359  13.794
14795W        W86521  39.775  25.464   0.810
14796W        W86522  17.288  28.021  12.377
14797W        W86523   1.344  30.687   2.874
14798W        W86524  13.101  18.793   4.813
14799W        W86525  22.767  36.451   3.686
14800W        W86526   2.684   9.340  11.514
14801W        W86527  26.764   8.121   4.130
14802W        W86528  32.540  35.470   4.530
14803W        W86529   2.812  25.195  11.959
14804W        W86530  19.811  31.511   2.083
14805W        W86531  37.304   0.538  14.418
14806W        W86532  40.108   2.511   1.829
14807W        W86533   8.659  37.664  11.327
14808W        W86534  13.325  41.208  11.686
14809W        W86535  31.499  12.832   0.893
14810W        W86536   4.437   9.532   1.820
14811W        W86537   0.412  35.660  13.962
14812W        W86538   2.318   2.675   0.417
14813W        W86539   1.000   7.889  11.642
14814W        W86540  24.270  24.942  12.177
14815W        W86541  21.011  12.226   2.401
14816W        W86542  44.967   5.972   3.649
14817W        W86543  14.452   1.144  10.568
14818W        W86544  23.130  37.485  13.031
14819W        W86545  22.111  22.253   1.816
14820W        W86546  31.950   0.364   4.554
14821W        W86547   5.240  17.761  14.946
14822W        W86548  11.780  30.165   1.675
14823W        W86549  15.142  23.666  12.008
14824W        W86550   2.720   7.559  11.069
14825W        W86551  44.032  33.643   4.050
14826W        W86552  39.238  17.764   3.293
14827W        W86553  32.362   3.469   3.307
14828W        W86554  39.898  33.287   2.712
14829W        W86555  34.692  41.314   0.836
14830W        W86556  37.703  11.161   0.361
14831W        W86557  36.225  14.675  10.824
14832W        W86558   9.692  28.500   0.013
14833W        W86559  42.729   0.963  10.620
14834W        W86560  15.686  15.771  12.614
14835W        W86561  32.053  39.488   0.476
14836W        W86562  26.062  19.801   0.341
14837W        W86563  38.948  18.785   1.785
14838W        W86564  11.907  37.960  13.881
14839W        W86565  37.470  40.008  10.631
14840W        W86566  43.310   5.909  12.908
14841W        W86567  20.004  44.460   1.929
14842W        W86568  31.969  38.557   2.415
14843W        W86569  34.834   3.742   2.806
14844W        W86570  24.934  30.578  13.992
14845W        W86571   8.061  27.147   0.747
14846W        W86572  29.190   1.926  12.039
14847W        W86573   3.887  33.085  12.586
14848W        W86574  29.642  36.592  14.047
14849W        W86575  17.474  13.818   9.691
14850W        W86576  36.892  15.467  13.565
14851W        W86577  26.988  13.937  11.188
14852W        W86578   5.903  21.264  13.088
14853W        W86579  15.066  40.316  14.534
14854W        W86580  35.654  43.515   3.230
14855W        W86581  25.165   7.258   4.296
14856W        W86582  24.518  43.430  12.792
14857W        W86583  33.615  17.522   1.969
14858W        W86584  15.734  11.118  14.980
14859W        W86585  10.608  28.508   2.183
14860W        W86586  33.621  35.913   1.778
14861W        W86587  40.126  10.257  12.797
14862W        W86588   9.669  36.272  13.424
14863W        W86589  18.143  38.058   4.505
14864W        W86590  37.609   9.188   2.671
14865W        W86591   9.291  22.074   4.387
14866W        W86592  19.259   5.004   4.087
14867W        W86593  30.568  18.590  10.913
14868W        W86594   2.223  26.985  10.768
14869W        W86595  43.933   7.188   2.698
14870W        W86596  22.165  44.741  12.112
14871W        W86597  43.838  18.723  12.165
14872W        W86598  42.793  12.614  14.529
14873W        W86599   2.454  39.379   3.738
14874W        W86600  39.274  25.650  14.951
14875W        W86601  12.802  43.952  11.378
14876W        W86602  21.601  27.071  14.744
14877W        W86603  33.451   7.871  13.010
14878W        W86604  12.749  43.433   0.887
14879W        W86605  19.961  44.048   1.651
14880W        W86606  16.097  26.976   2.357
14881W        W86607  14.930  31.478   2.324
14882W        W86608  11.725  37.465   2.367
14883W        W86609   7.456  10.486  13.514
14884W        W86610  26.651  27.965  14.451
14885W        W86611  26.429  11.913   4.114
14886W        W86612  15.001  34.430  13.557
14887W        W86613  28.810  33.394  11.305
14888W        W86614  25.756  28.085   3.867
14889W        W86615  32.020  23.003   3.814
14890W        W86616   0.004   8.586   3.428
14891W        W86617  34.564  10.362   4.571
14892W        W86618   5.156   4.940   3.722
14893W        W86619  31.122  35.114  10.977
14894W        W86620   9.605   4.179  12.496
14895W        W86621   3.434  42.896   4.923
14896W        W86622  22.007  17.149  11.383
14897W        W86623   1.008  13.339   0.312
14898W        W86624  23.210  12.027  11.511
14899W        W86625  20.231  16.023   2.975
14900W        W86626  17.596  21.610  12.583
14901W        W86627  30.830  26.306  10.914
14902W        W86628  14.670  28.200   4.093
14903W        W86629  20.141  25.001   2.205
14904W        W86630  43.780   3.481   3.285
14905W        W86631   1.822  14.225   2.485
14906W        W86632  32.301  28.243   4.280
14907W        W86633  14.772   1.951   0.225
14908W        W86634  43.791  34.909  13.963
14909W        W86635  38.284   5.124  14.484
14910W        W86636  16.737  40.223   2.761
14911W        W86637   7.919  33.964   3.723
14912W        W86638  26.914  32.354   4.468
14913W        W86639  24.338   4.933   3.556
14914W        W86640  27.900  32.593   0.927
14915W        W86641  42.356  43.847   1.767
14916W        W86642  41.344   4.869   0.768
14917W        W86643   9.810   4.355   0.132
14918W        W86644   2.331  36.887   0.776
14919W        W86645  29.042  24.088  12.111
14920W        W86646   5.398  20.144   2.430
14921W        W86647  35.541  15.816  14.380
14922W        W86648   3.199   6.127  12.010
14923W        W86649   5.729  19.276  14.834
14924W        W86650  21.308  27.517  10.341
14925W        W86651   3.453  22.625   1.390
14926W        W86652  20.639  38.107   1.349
14927W        W86653   1.444  17.743  14.808
14928W        W86654   2.815  38.433   3.954
14929W        W86655  10.064  42.434  10.647
14930W        W86656  31.689  24.159   2.381
14931W        W86657  11.894  21.050  12.940
14932W        W86658   4.380   4.971  13.071
14933W        W86659   5.846   4.460  14.567
14934W        W86660  19.233  32.234   2.743
14935W        W86661  38.012  26.664  14.937
14936W        W86662  26.043   6.143  11.506
14937W        W86663  37.593  35.245  13.500
14938W        W86664   4.015  23.138   2.662
14939W        W86665  28.340  37.342  11.949
14940W        W86666  37.331   2.837  11.586
14941W        W86667   4.061  38.908  10.609
14942W        W86668  22.600  37.106   3.203
14943W        W86669  12.758  17.491  12.515
14944W        W86670   7.417  22.631   4.565
14945W        W86671  18.215  36.535   0.696
14946W        W86672  36.852  15.338  12.444
14947W        W86673  34.574   2.042   1.988
14948W        W86674  14.576  17.808  13.591
14949W        W86675  19.141   4.900  14.497
14950W        W86676   0.942  44.748   2.330
14951W        W86677  28.489   8.397  11.674
14952W        W86678  26.620  22.904  12.400
14953W        W86679  23.374   7.750   0.251
14954W        W86680   1.981  35.971   3.524
14955W        W86681   7.283  20.530  13.856
14956W        W86682  32.004   4.366   4.823
14957W        W86683  13.574  26.044  13.604
14958W        W86684  15.137  17.268   3.642
14959W        W86685  31.327  13.852   1.309
14960W        W86686  10.889  30.880   2.878
14961W        W86687  41.496  11.698   1.062
14962W        W86688  40.757  33.754   2.400
14963W        W86689  12.165  19.332  11.955
14964W        W86690  10.807  34.482  14.151
14965W        W86691   6.782  40.461  14.274
14966W        W86692  26.436  12.311  14.883
14967W        W86693   2.349  17.633  11.421
14968W        W86694   5.732  36.041  10.972
14969W        W86695  39.231  34.053   0.522
14970W        W86696  22.546  13.076  12.015
14971W        W86697  25.528   8.404   2.425
14972W        W86698  32.657   8.781  11.129
14973W        W86699  25.082   5.369   1.390
14974W        W86700  33.885  44.754  14.495
14975W        W86701  39.982   4.552  10.229
14976W        W86702  11.040  20.390   2.012
14977W        W86703   6.276   6.478  13.113
14978W        W86704  33.902  31.640   0.438
14979W        W86705  30.693   9.123   4.616
14980W        W86706  23.500  20.090   3.203
14981W        W86707   3.682  15.305   5.052
14982W        W86708  23.757   0.588   5.517
14983W        W86709  13.694  21.453   0.351
14984W        W86710  17.466  15.720  14.162
14985W        W86711   5.888  42.317   3.643
14986W        W86712   2.586  38.035  14.755
14987W        W86713  13.309   2.202  14.058
14988W        W86714  17.249  27.473  11.156
14989W        W86715  31.973   1.046  13.660
14990W        W86716  27.685  38.874   0.397
14991W        W86717  23.959  18.649  11.158
14992W        W86718  27.230  19.101   4.860
14993W        W86719  11.578  27.047  10.649
14994W        W86720  11.271  37.641  10.786
14995W        W86721  28.232  27.015  13.081
14996W        W86722  40.278  24.695  11.925
14997W        W86723  17.114  22.051  12.194
14998W        W86724  40.877  14.269   3.688
14999W        W86725  13.046   1.833  13.817
15000W        W86726  22.995  27.029   0.248
15001W        W86727  38.998  20.500   1.266
15002W        W86728  40.943  28.657   4.334
15003W        W86729   9.477  25.314  13.912
15004W        W86730  13.263  39.651  12.432
15005W        W86731  34.517  16.107  12.160
15006W        W86732  23.785  19.561  12.073
15007W        W86733  32.761  33.568  11.142
15008W        W86734  12.327  21.869   2.845
15009W        W86735  17.522  29.598  11.403
15010W        W86736  34.335  29.355  11.015
15011W        W86737   7.861  28.590  13.793
15012W        W86738   2.901   7.425  13.439
15013W        W86739   3.795  33.559   0.180
15014W        W86740  34.014  20.609   0.354
15015W        W86741  14.830   4.953  14.526
15016W        W86742  44.384  29.869   2.792
15017W        W86743  43.278  17.485  12.114
15018W        W86744  13.569  22.749   4.265
15019W        W86745   5.741  26.723   3.460
15020W        W86746  27.975  31.832   4.572
15021W        W86747  16.769  11.320   1.041
15022W        W86748  12.844  11.128  14.453
15023W        W86749  22.797  25.490  12.045
15024W        W86750   8.188  14.360  14.085
15025W        W86751   7.264  12.072   3.430
15026W        W86752  41.567  17.662   1.923
15027W        W86753  35.857   4.960   0.366
15028W        W86754  44.242  35.342  11.884
15029W        W86755  39.585  43.986   3.627
15030W        W86756  25.623  31.915   3.737
15031W        W86757  39.319  26.677   3.869
15032W        W86758  23.660  44.983  10.779
15033W        W86759  36.563  33.919  12.491
15034W        W86760  10.162  27.453   1.309
15035W        W86761  39.858  16.397   2.344
15036W        W86762   6.172   7.144   4.189
15037W        W86763   6.836  13.071   1.786
15038W        W86764   2.329   8.821  14.239
15039W        W86765   5.726  27.466   1.289
15040W        W86766   6.264  18.511   1.586
15041W        W86767  28.938   2.805  13.991
15042W        W86768  41.863   7.970  10.681
15043W        W86769   1.824  14.155   1.415
15044W        W86770   7.731  25.877   0.328
15045W        W86771  17.616  29.447   2.653
15046W        W86772   6.318   5.069   4.181
15047W        W86773   6.626  14.727  12.542
15048W        W86774   4.299  34.379  12.561
15049W        W86775   3.740  17.104   2.941
15050W        W86776  21.677  26.143  12.418
15051W        W86777  18.224  44.526   4.557
15052W        W86778   5.889  22.207  13.019
15053W        W86779  11.140  40.593   0.536
15054W        W86780   0.156   3.608  12.819
15055W        W86781  36.396   5.043   0.934
15056W        W86782  13.219   2.221   1.375
15057W        W86783  18.277  10.144  11.053
15058W        W86784  28.564  37.780   0.763
15059W        W86785   2.204  20.653  13.499
15060W        W86786   9.333  34.529  10.894
15061W        W86787  40.372  39.731  11.470
15062W        W86788   7.368  43.780   0.979
15063W        W86789  39.362  10.229  10.237
15064W        W86790  20.470  16.954  14.365
15065W        W86791   1.268  39.607  13.619
15066W        W86792  18.769  41.546   2.417
15067W        W86793  44.048   6.914   0.891
15068W        W86794  34.981  26.747   0.752
15069W        W86795  42.105   8.182   3.214
15070W        W86796  37.381   4.834   0.318
15071W        W86797  26.142  35.031  12.506
15072W        W86798  34.080   7.761   2.753
15073W        W86799   7.675  25.927  11.138
15074W        W86800  40.634  29.130   9.905
15075W        W86801  11.488  13.646   1.398
15076W        W86802  31.103  13.406  14.462
15077W        W86803  27.698  17.152   0.940
15078W        W86804  10.916  30.579   0.222
15079W        W86805   0.001  12.772  13.104
15080W        W86806  23.094  28.835  11.327
15081W        W86807  13.931   6.512   1.645
15082W        W86808  34.650  29.194  13.440
15083W        W86809  41.250  44.351   3.306
15084W        W86810  25.796   0.362   4.585
15085W        W86811  44.239  14.819   3.658
15086W        W86812  41.980   7.389   1.885
15087W        W86813  14.193  44.250  12.954
15088W        W86814   8.411  17.853  11.466
15089W        W86815  42.990  13.366   0.191
15090W        W86816  13.070  28.589  14.006
15091W        W86817  24.617  17.090  11.505
15092W        W86818  36.004  30.907   4.120
15093W        W86819  35.044  34.651  10.784
15094W        W86820   2.744  37.124  12.509
15095W        W86821  14.229  41.565   2.426
15096W        W86822  31.357  17.834  13.490
15097W        W86823   8.403   3.811  14.366
15098W        W86824  11.540  14.884   0.924
15099W        W86825  20.806  27.224   5.493
15100W        W86826  29.191  10.534  13.025
15101W        W86827  44.299   2.274   3.681
15102W        W86828  23.615  27.005   3.095
15103W        W86829  13.761  25.454   3.729
15104W        W86830   4.464  32.164  14.315
15105W        W86831  19.206  14.239   1.442
15106W        W86832  10.551  40.903  14.403
15107W        W86833  17.053  41.135  12.477
15108W        W86834   1.243  16.377  11.895
15109W        W86835   3.189  26.491   3.286
15110W        W86836   4.703  15.536   2.741
15111W        W86837   3.832   5.090  10.636
15112W        W86838   5.764   8.342   2.903
15113W        W86839  17.665   6.353   1.755
15114W        W86840  35.030  18.771   3.197
15115W        W86841   1.858  35.955  11.560
15116W        W86842  35.870   5.726  12.882
15117W        W86843  30.705  38.399  13.839
15118W        W86844  28.011  24.002   1.940
15119W        W86845  30.517  20.859  12.057
15120W        W86846  35.565  31.012   1.327
15121W        W86847  43.076  30.441  11.813
15122W        W86848  15.525  20.238  13.558
15123W        W86849  13.411   0.223  11.975
15124W        W86850   0.726  30.369   3.866
15125W        W86851  14.262  37.762   3.288
15126W        W86852  14.126  24.787   0.861
15127W        W86853  41.934  43.013   4.202
15128W        W86854   6.726  34.241   0.341
15129W        W86855  33.300  16.512   3.353
15130W        W86856  21.189   1.723  10.285
15131W        W86857  34.483  34.611  14.507
15132W        W86858  43.882  16.253  11.021
15133W        W86859  27.038  34.452  12.249
15134W        W86860  29.579  28.187  12.671
15135W        W86861  33.451  27.639   0.501
15136W        W86862  20.079  17.834   3.595
15137W        W86863  31.868   7.402  13.310
15138W        W86864  40.940  21.832  14.401
15139W        W86865  32.635  26.516   4.641
15140W        W86866  43.471  28.916   2.320
15141W        W86867  41.107  28.036   3.670
15142W        W86868  39.434  10.702  11.415
15143W        W86869  44.469  33.575  13.996
15144W        W86870  18.634  28.741   2.769
15145W        W86871   7.876  27.007   0.281
15146W        W86872   7.011  27.839   1.638
15147W        W86873   5.965   0.926   1.634
15148W        W86874  18.540   1.696  12.241
15149W        W86875  40.540  38.789  13.996
15150W        W86876  14.099  19.623   3.234
15151W        W86877  28.950  31.360   0.979
15152W        W86878  21.845  10.842  12.850
15153W        W86879  17.622  21.766   2.558
15154W        W86880  24.721  30.576   3.708
15155W        W86881  23.531  20.838   1.832
15156W        W86882  34.075  21.164  14.238
15157W        W86883  41.456  16.454  13.812
15158W        W86884  22.047  39.299  12.063
15159W        W86885  35.092  39.378   4.628
15160W        W86886  34.669  10.931   1.835
15161W        W86887  18.577  21.471  11.343
15162W        W86888  35.049   5.062   4.647
15163W        W86889  34.633  41.690   1.786
15164W        W86890   0.036  37.640  10.941
15165W        W86891   7.182  27.821  13.979
15166W        W86892   3.474  30.943  12.966
15167W        W86893  28.059  41.786  10.933
15168W        W86894  27.567  14.089  10.560
15169W        W86895  26.556   3.841   2.243
15170W        W86896  33.889  24.117   0.827
15171W        W86897  36.549   5.348   2.465
15172W        W86898  19.652  34.901   4.581
15173W        W86899  23.213  15.598  10.226
15174W        W86900  25.739  26.874   3.567
15175W        W86901  35.698  32.881  11.797
15176W        W86902   0.604  31.006   4.064
15177W        W86903  21.197  35.716   3.232
15178W        W86904  24.178  23.062   2.159
15179W        W86905  10.898  43.377  12.854
15180W        W86906  32.653  32.443  10.677
15181W        W86907  35.385  17.082   0.315
15182W        W86908  11.364   2.134  14.548
15183W        W86909   4.441  13.056  13.953
15184W        W86910  33.306  37.083  10.614
15185W        W86911   8.390  15.342  12.726
15186W        W86912  19.301   1.250  13.087
15187W        W86913  34.823  17.978  11.701
15188W        W86914   3.817   0.847   4.093
15189W        W86915  34.420   3.176   4.192
15190W        W86916   2.964  18.488   3.124
15191W        W86917   1.838  15.745   2.827
15192W        W86918   7.418  27.431   2.754
15193W        W86919  17.737   0.352   3.211
15194W        W86920  19.994  33.459  11.974
15195W        W86921  31.165  43.275  13.993
15196W        W86922  13.949   2.807  12.923
15197W        W86923  29.953  37.874   0.303
15198W        W86924  23.238  22.526   2.765
15199W        W86925  44.235  43.948  11.591
15200W        W86926  39.386  15.370  14.636
15201W        W86927  12.380  14.284  12.958
15202W        W86928   4.863   0.205  13.956
15203W        W86929  38.581  17.555  13.915
15204W        W86930  16.168   1.024   3.762
15205W        W86931   1.812  43.848   2.973
15206W        W86932  21.085  32.693  13.023
15207W        W86933  17.790  28.186  13.387
15208W        W86934  35.393  11.135  11.634
15209W        W86935  35.079  37.363   4.401
15210W        W86936  40.829  29.374  14.930
15211W        W86937  29.304   2.431   0.196
15212W        W86938  39.519  33.537   4.916
15213W        W86939  26.915   2.914   0.446
15214W        W86940  22.761  26.018  12.941
15215W        W86941  38.440  18.949  13.773
15216W        W86942   8.819   3.887   4.697
15217W        W86943  44.480   7.750  14.919
15218W        W86944  32.160  30.125   5.139
15219W        W86945  20.542  30.426   2.745
15220W        W86946  18.327  13.890  13.545
15221W        W86947  20.926  31.903  11.061
15222W        W86948  13.892  35.322   3.926
15223W        W86949  19.448  21.609  10.802
15224W        W86950  33.157  15.860  13.439
15225W        W86951  34.918  42.049  10.660
15226W        W86952  19.547  36.832   5.200
15227W        W86953  10.867  11.486   0.003
15228W        W86954  18.443  27.658  12.982
15229W        W86955  34.185   8.628   1.669
15230W        W86956  16.946  24.065  10.668
15231W        W86957  28.350  31.588   3.325
15232W        W86958  44.300  26.683  13.663
15233W        W86959   8.277  18.485   3.118
15234W        W86960   9.154   5.462   1.751
15235W        W86961  18.048  28.840  13.361
15236W        W86962  39.267  44.577  12.523
15237W        W86963  39.775  40.869   3.579
15238W        W86964  28.904  23.325   0.830
15239W        W86965   0.018  42.985  13.811
15240W        W86966  26.241  26.260  13.240
15241W        W86967  40.051  16.980   2.331
15242W        W86968   9.180  43.703   2.394
15243W        W86969   9.402  39.318   4.126
15244W        W86970  36.548   1.817   0.428
15245W        W86971  10.000  30.274   0.404
15246W        W86972   2.791  20.838  14.282
15247W        W86973  35.820   9.283  12.946
15248W        W86974  14.404   3.056   2.892
15249W        W86975  22.198  21.137   4.613
15250W        W86976  13.311  42.456  11.209
15251W        W86977  19.256  40.510   4.615
15252W        W86978  31.696  11.809   1.904
15253W        W86979  22.045  16.574  13.036
15254W        W86980  24.455  36.303   5.025
15255W        W86981  41.932  36.402   3.919
15256W        W86982  22.123   0.977  13.862
15257W        W86983   3.265  10.589   3.660
15258W        W86984   5.477  31.039  11.151
15259W        W86985  43.743  40.083   4.060
15260W        W86986  18.308   9.280   1.748
15261W        W86987  28.487  15.522   0.484
15262W        W86988  37.052   0.199   0.796
15263W        W86989  12.329   3.953   2.161
15264W        W86990  14.615  40.315  14.884
15265W        W86991  29.633  32.161  14.435
15266W        W86992   4.449  23.405   1.692
15267W        W86993  11.876  24.492  13.033
15268W        W86994  30.829  38.150   2.887
15269W        W86995  23.998  35.564   2.374
15270W        W86996  35.629  15.360   1.214
15271W        W86997   8.754   6.111   4.750
15272W        W86998  12.829   1.923   0.438
15273W        W86999  14.521  43.368   3.018
15274W        W87000  40.203   0.228   3.626
15275W        W87001  22.244  21.525   2.698
15276W        W87002  38.844  12.338   1.761
15277W        W87003  16.344  40.946  11.092
15278W        W87004  17.070   8.973  13.532
15279W        W87005   2.264  35.128   2.108
15280W        W87006   6.285  15.655   4.216
15281W        W87007  38.920   3.436  11.991
15282W        W87008  34.331  35.985  10.678
15283W        W87009   0.804  33.942   2.287
15284W        W87010  11.144  13.711   3.372
15285W        W87011  36.964  29.953  12.642
15286W        W87012  10.813  37.776  11.118
15287W        W87013  20.313  29.245   1.523
15288W        W87014  40.313  14.303  14.132
15289W        W87015  36.870  41.049   3.493
15290W        W87016  36.984  27.691  10.738
15291W        W87017  26.886  10.913   1.685
15292W        W87018  20.285   7.012  14.350
15293W        W87019  28.586   3.175   2.879
15294W        W87020   9.683  40.850  13.586
15295W        W87021  31.749  33.555   0.026
15296W        W87022  41.073  26.895   3.671
15297W        W87023  30.730   6.388   4.517
15298W        W87024  34.578  21.542  10.790
15299W        W87025  25.007  34.638   3.034
15300W        W87026  10.826  22.087  12.068
15301W        W87027   7.001  28.945  14.373
15302W        W87028  35.676  15.838   2.731
15303W        W87029  35.601  12.158   0.101
15304W        W87030   1.726   7.135   4.459
15305W        W87031  44.750   7.305  14.870
15306W        W87032  37.081  18.270   1.877
15307W        W87033  15.084  11.586   1.791
15308W        W87034  38.458  25.717   1.305
15309W        W87035  22.912  10.067  13.098
15310W        W87036  38.084  42.431   4.464
15311W        W87037  37.535  26.615  11.915
15312W        W87038  41.441  26.887  10.418
15313W        W87039  33.662   0.983  12.994
15314W        W87040  28.018   1.179  10.727
15315W        W87041  17.205  33.730  14.472
15316W        W87042  36.011  26.006   1.796
15317W        W87043  29.883   2.644   3.347
15318W        W87044  27.258  22.760   3.318
15319W        W87045  43.407   5.345   0.334
15320W        W87046  19.217  36.527   0.451
15321W        W87047   4.392  29.880  14.080
15322W        W87048  25.582  41.183  14.468
15323W        W87049  11.393  12.148  10.708
15324W        W87050  15.849  23.403  11.921
15325W        W87051  41.727  28.161  10.318
15326W        W87052  36.371  40.958  11.133
15327W        W87053  19.339  36.831  14.426
15328W        W87054  12.796  39.407  12.513
15329W        W87055   2.288  12.282  12.390
15330W        W87056   7.897  24.797  13.004
15331W        W87057  30.487  26.225   3.739
15332W        W87058  24.761  42.094   4.532
15333W        W87059  37.450   1.972   0.468
15334W        W87060  10.317   0.194  10.777
15335W        W87061  22.622  25.748   3.531
15336W        W87062  43.783  39.823   1.259
15337W        W87063  35.858   4.718   3.407
15338W        W87064  20.730  17.769   1.619
15339W        W87065   4.907  32.439  12.635
15340W        W87066   9.223  38.497   1.706
15341W        W87067  40.921   3.902   3.877
15342W        W87068  22.005  44.322  14.284
15343W        W87069   7.692  24.078  11.579
15344W        W87070  38.910   7.649   1.260
15345W        W87071  41.377   5.914   4.203
15346W        W87072  20.780  16.245  12.575
15347W        W87073  28.914  15.535  11.134
15348W        W87074   8.444  33.890  13.680
15349W        W87075   0.964  17.085  14.035
15350W        W87076   6.680  27.206  11.198
15351W        W87077  34.509  15.696   4.623
15352W        W87078  35.828   7.133  14.438
15353W        W87079  15.116  40.397  10.143
15354W        W87080  26.581   3.281   2.315
15355W        W87081  20.141  21.137   0.658
15356W        W87082  36.800  10.395  14.528
15357W        W87083  30.329  22.120  14.411
15358W        W87084  44.975  24.612  11.670
15359W        W87085  38.929  30.876  13.992
15360W        W87086  14.461  30.906  14.811
15361W        W87087  32.069   7.904  13.349
15362W        W87088  10.231  39.443   4.656
15363W        W87089  23.730  15.280   3.612
15364W        W87090  34.615  32.247   3.680
15365W        W87091  24.159  42.239  14.510
15366W        W87092  39.362  13.025   4.683
15367W        W87093  28.262   8.251   0.716
15368W        W87094  18.024   8.236  10.859
15369W        W87095  15.270  27.027   2.445
15370W        W87096  43.011   4.769   3.280
15371W        W87097  12.619  12.216  12.407
15372W        W87098   9.608  16.279  11.299
15373W        W87099  44.695  12.411   1.785
15374W        W87100  21.758  42.587   0.380
15375W        W87101  35.075  21.695   4.889
15376W        W87102  44.035   8.020   3.829
15377W        W87103  43.603  15.228  12.506
15378W        W87104  28.158  35.898   0.393
15379W        W87105   5.467  14.254   4.572
15380W        W87106  33.105  18.691  12.203
15381W        W87107  44.254  26.505  10.665
15382W        W87108  33.568  37.613   4.978
15383W        W87109   9.730  34.787  14.588
15384W        W87110  30.190  44.869  12.321
15385W        W87111  40.510  36.348   1.345
15386W        W87112  27.628   0.289   2.297
15387W        W87113  13.634  11.121   0.881
15388W        W87114  37.499  32.545  12.504
15389W        W87115   0.350  16.315   0.403
15390W        W87116  10.719  38.998  12.909
15391W        W87117  35.336  31.929  12.136
15392W        W87118  26.645   1.027  12.427
15393W        W87119  22.199  36.068   0.813
15394W        W87120  30.943  24.753   0.908
15395W        W87121  31.337  18.541  14.767
15396W        W87122  26.012   8.676   1.376
15397W        W87123   9.879  40.379  13.484
15398W        W87124   8.609  17.168   0.778
15399W        W87125   2.549  41.361  11.156
15400W        W87126  40.477  33.813  13.769
15401W        W87127  40.642  41.772   4.486
15402W        W87128   4.177  42.420   0.904
15403W        W87129  32.918  32.041   2.323
15404W        W87130  35.068  38.343  11.374
15405W        W87131  16.609  21.746   1.769
15406W        W87132  12.631  15.998  10.674
15407W        W87133  34.600  11.608  11.573
15408W        W87134  23.492  39.269   2.728
15409W        W87135  41.360  37.945   1.402
15410W        W87136  17.133  30.470  13.799
15411W        W87137  30.657   3.381   0.307
15412W        W87138   0.562  13.774   0.601
15413W        W87139   1.850  29.430   1.395
15414W        W87140   0.312  43.471   3.719
15415W        W87141  44.384  20.637   0.682
15416W        W87142  41.117  21.590  12.089
15417W        W87143   7.118  34.269   3.721
15418W        W87144  35.680  14.602  14.650
15419W        W87145  24.983  32.878   0.668
15420W        W87146  39.741  10.227  10.640
15421W        W87147  36.965  34.156  11.605
15422W        W87148   5.206  23.133  11.523
15423W        W87149   6.680  34.366  14.291
15424W        W87150   1.132  41.532  11.579
15425W        W87151  10.874   5.379  11.962
15426W        W87152  44.208  22.717  12.209
15427W        W87153   3.843  22.184  13.045
15428W        W87154  26.130  11.399   1.706
15429W        W87155  38.056   3.754  13.406
15430W        W87156  16.908  44.943  12.965
15431W        W87157  40.195   6.288   3.257
15432W        W87158   1.715  20.606   2.687
15433W        W87159  37.596  32.112   2.757
15434W        W87160  27.039   0.507  13.506
15435W        W87161   0.937  25.203   1.426
15436W        W87162   8.454  35.486  14.062
15437W        W87163  27.509  11.697  10.959
15438W        W87164  26.173  14.364  11.183
15439W        W87165  35.801  25.738  11.015
15440W        W87166  42.247  15.567   2.741
15441W        W87167  36.008   3.286  14.689
15442W        W87168  39.834  23.168  12.170
15443W        W87169  44.818  28.235   0.403
15444W        W87170   8.452   3.316  14.481
15445W        W87171   6.748  12.078  14.799
15446W        W87172   1.970   6.976  11.108
15447W        W87173  27.032  27.302   0.381
15448W        W87174  22.455  40.521  14.670
15449W        W87175  27.464   3.898   3.827
15450W        W87176   6.068  38.299  13.951
15451W        W87177   6.670  10.901   2.835
15452W        W87178  34.599  39.406   2.137
15453W        W87179  22.171  32.493  14.153
15454W        W87180  14.695  18.640  12.135
15455W        W87181  17.162  36.576   3.663
15456W        W87182  33.555   4.712  12.659
15457W        W87183  40.026  19.256  11.609
15458W        W87184  25.601  21.731  13.070
15459W        W87185  37.331  19.308  13.535
15460W        W87186  34.637  32.513   1.241
15461W        W87187  36.626   7.907  13.779
15462W        W87188   9.114  12.295  14.982
15463W        W87189  14.065   8.795  11.197
15464W        W87190  21.772  22.145   4.055
15465W        W87191  20.015  41.618  14.830
15466W        W87192  13.710  24.003   0.793
15467W        W87193  17.715   9.274   4.158
15468W        W87194  35.498  24.560  12.340
15469W        W87195  15.118  29.151   0.273
15470W        W87196  10.665  40.740   4.208
15471W        W87197  14.387  42.936  14.394
15472W        W87198  22.702  12.393  12.584
15473W        W87199  39.269  17.693  10.609
15474W        W87200   7.860  12.857  10.709
15475W        W87201  36.600  17.060  11.454
15476W        W87202   9.453  10.168  11.560
15477W        W87203   8.348   0.312  10.775
15478W        W87204  35.868  39.939   4.924
15479W        W87205   7.219   9.825   2.966
15480W        W87206  12.455  18.132  13.075
15481W        W87207  41.480  22.611   3.191
15482W        W87208  20.177  33.040  12.209
15483W        W87209  42.329  30.495   0.745
15484W        W87210   2.973  16.600   2.756
15485W        W87211  23.829   5.696  11.239
15486W        W87212  39.395  11.672   1.973
15487W        W87213  39.771  41.120   0.815
15488W        W87214  35.000  14.575   1.458
15489W        W87215   7.183  37.679  12.102
15490W        W87216   2.811  23.707  14.746
15491W        W87217  26.042  39.514   1.844
15492W        W87218  41.854   4.869   2.599
15493W        W87219  20.256  44.417   4.991
15494W        W87220   9.126  26.618   2.262
15495W        W87221  34.658  18.976   1.184
15496W        W87222  18.335  14.766   2.834
15497W        W87223  31.517  13.353   0.894
15498W        W87224  41.092  30.580   2.670
15499W        W87225  17.524  32.431  13.060
15500W        W87226  25.689   5.473   3.650
15501W        W87227  13.370  28.148   4.709
15502W        W87228   6.380   3.448   5.099
15503W        W87229   0.865   3.741   1.281
15504W        W87230  18.059  29.643   2.461
15505W        W87231   7.740  41.017  10.203
15506W        W87232   7.323  29.564  13.737
15507W        W87233  17.750  38.288   2.687
15508W        W87234  30.228  20.024  11.951
15509W        W87235  26.046  25.335   3.674
15510W        W87236  15.223  37.840  11.021
15511W        W87237  15.568  29.718  14.955
15512W        W87238  28.423  10.679  11.197
15513W        W87239  31.045  18.699   4.681
15514W        W87240  40.881  23.166   2.103
15515W        W87241  36.781  12.468  11.223
15516W        W87242  29.532  24.625  14.451
15517W        W87243  28.910   0.741  12.473
15518W        W87244  37.067  40.522   1.273
15519W        W87245  10.452  23.057   4.930
15520W        W87246  38.791  34.595  12.171
15521W        W87247   7.131  31.625   4.385
15522W        W87248  13.405  39.006   0.771
15523W        W87249  43.646  35.826  12.051
15524W        W87250  35.487  18.618   4.730
15525W        W87251  17.320  14.696   0.549
15526W        W87252  10.168  32.053  14.450
15527W        W87253   6.935  29.703  11.508
15528W        W87254   8.705   9.129  14.274
15529W        W87255  32.853  35.309   3.139
15530W        W87256  25.532  43.055   1.452
15531W        W87257  24.973  14.118   2.198
15532W        W87258  22.752   0.485   0.556
15533W        W87259  40.543   5.189  14.466
15534W        W87260   1.863  23.762   0.895
15535W        W87261  38.732  36.763  11.434
15536W        W87262  25.852  31.862   4.256
15537W        W87263  14.404  20.981   3.206
15538W        W87264  40.067  43.889   1.540
15539W        W87265  32.954  34.855   2.176
15540W        W87266  24.015  16.128  12.087
15541W        W87267  30.529  28.101   0.939
15542W        W87268  39.551  14.483   0.090
15543W        W87269   1.983  11.773  13.370
15544W        W87270  43.364  29.963   3.809
15545W        W87271  36.591  37.877   3.744
15546W        W87272  39.789  27.468  13.412
15547W        W87273   7.720  42.322  13.848
15548W        W87274  38.874   2.286  13.114
15549W        W87275   0.199  36.882   1.115
15550W        W87276  21.323  12.670   3.314
15551W        W87277  31.884  21.173  10.538
15552W        W87278  36.885  33.609  10.732
15553W        W87279  31.897  12.866   3.339
15554W        W87280   5.774  16.083  10.314
15555W        W87281  33.870  24.601  13.467
15556W        W87282   2.146  44.128   5.221
15557W        W87283  27.625  34.000   2.092
15558W        W87284   3.930  37.684   0.889
15559W        W87285   2.605  44.272  13.486
15560W        W87286   9.581  29.083   2.833
15561W        W87287  30.649  42.207   9.702
15562W        W87288  30.679  18.215  11.652
15563W        W87289   7.245  10.172   4.621
15564W        W87290  13.149  24.439  12.113
15565W        W87291  40.583   1.876   0.551
15566W        W87292  19.187  13.684  12.107
15567W        W87293  26.968   6.121   3.119
15568W        W87294  38.057  22.201   1.396
15569W        W87295  33.949  37.070   0.230
15570W        W87296  39.191  19.272   1.376
15571W        W87297  24.668  18.713   2.767
15572W        W87298  40.799  13.039  12.916
15573W        W87299  40.990  24.949   0.369
15574W        W87300  23.542  37.407  13.327
15575W        W87301   2.240  21.223   0.277
15576W        W87302   8.464  41.308   3.760
15577W        W87303  23.551  15.875  11.514
15578W        W87304  23.642   4.795  11.160
15579W        W87305  36.905  38.934  10.550
15580W        W87306   1.341  18.255   0.979
15581W        W87307  12.888  19.017  14.126
15582W        W87308  33.074  35.909  13.443
15583W        W87309   2.791   7.874   4.225
15584W        W87310   2.433  18.501   4.568
15585W        W87311  19.037  23.172  10.846
15586W        W87312  11.136  29.577   0.433
15587W        W87313  27.669  10.819  11.509
15588W        W87314  19.440   6.490  11.974
15589W        W87315  20.925  19.392  14.481
15590W        W87316   2.957   0.959   3.846
15591W        W87317  23.654   3.368  11.374
15592W        W87318  15.474  24.561   2.960
15593W        W87319  14.316  27.539  14.981
15594W        W87320   7.139  24.132   2.838
15595W        W87321   0.801  21.159  13.879
15596W        W87322  40.536   2.709   3.731
15597W        W87323  33.082  29.485   0.358
15598W        W87324  30.907  43.480   4.144
15599W        W87325  42.477  32.015   4.682
15600W        W87326   6.905  41.086  12.236
15601W        W87327   3.170  29.019  14.567
15602W        W87328   2.487  13.076  13.912
15603W        W87329  42.847   2.051  10.977
15604W        W87330  31.883  38.006   3.699
15605W        W87331  33.744  12.271  11.549
15606W        W87332   8.189  33.401   3.661
15607W        W87333  13.145  36.020  11.209
15608W        W87334  15.178  32.612  13.030
15609W        W87335  36.939  22.209   0.416
15610W        W87336  22.599  31.120   3.062
15611W        W87337   9.159  26.145  11.131
15612W        W87338  38.344  37.104   1.977
15613W        W87339   5.641  33.369   2.756
15614W        W87340  38.317   8.724   4.136
15615W        W87341   2.205  11.150  11.985
15616W        W87342  19.147  35.752  12.901
15617W        W87343  12.652  27.518   0.724
15618W        W87344  44.432  19.321   4.505
15619W        W87345  15.294  32.217   2.321
15620W        W87346   0.522  12.757  13.851
15621W        W87347  21.287  33.048   4.323
15622W        W87348  30.578  35.843  13.477
15623W        W87349  30.825  27.998  11.085
15624W        W87350  35.078  24.773  11.544
15625W        W87351  40.063  43.454   2.881
15626W        W87352  25.748   3.331  14.524
15627W        W87353  28.406  28.120   2.709
15628W        W87354  25.994  35.884   3.889
15629W        W87355  34.981   9.775  13.306
15630W        W87356  27.266  25.265   4.574
15631W        W87357  23.618   4.331   4.920
15632W        W87358  21.729  22.561  12.038
15633W        W87359  33.205  21.343  11.204
15634W        W87360  29.662   0.699  11.532
15635W        W87361  13.920   6.002   1.726
15636W        W87362   7.844  15.205  12.146
15637W        W87363  18.580  11.225   4.104
15638W        W87364  35.540   0.391   3.908
15639W        W87365  29.654  42.713   4.283
15640W        W87366  14.087   8.969   3.811
15641W        W87367  31.863  42.381  12.359
15642W        W87368   3.373  44.933   0.061
15643W        W87369  35.464  18.802   2.908
15644W        W87370  34.194  24.043  10.936
15645W        W87371  44.231  13.562   2.710
15646W        W87372  41.944   9.810  12.035
15647W        W87373  22.580  27.890  13.231
15648W        W87374  38.552  25.976  11.118
15649W        W87375  42.305  33.915  14.800
15650W        W87376  25.466  33.323   0.373
15651W        W87377  22.476   2.772   2.638
15652W        W87378  17.063   4.789   2.871
15653W        W87379  31.623  41.820  13.601
15654W        W87380  16.107  41.356  14.822
15655W        W87381  36.507  36.783   4.650
15656W        W87382   8.887  16.073  12.067
15657W        W87383  27.760   4.003   1.646
15658W        W87384  39.289  14.701  11.512
15659W        W87385  17.183  39.313   5.143
15660W        W87386  29.043  26.127   4.675
15661W        W87387  17.084  10.360  10.712
15662W        W87388  33.163  19.171  12.849
15663W        W87389   0.879  37.953  11.019
15664W        W87390  40.766  32.628   0.237
15665W        W87391  32.165  21.238  12.339
15666W        W87392   6.038  39.418  12.252
15667W        W87393  22.060  33.048  12.935
15668W        W87394   4.350  32.334   4.623
15669W        W87395  25.128  15.080  11.107
15670W        W87396   3.802   3.360   3.306
15671W        W87397  27.470  17.790   4.975
15672W        W87398  14.631   4.266  13.846
15673W        W87399  15.987  12.344  11.480
15674W        W87400  22.651  21.905  13.360
15675W        W87401  43.395  11.765  11.223
15676W        W87402  37.116  33.231  12.140
15677W        W87403  15.824  43.030   4.213
15678W        W87404   9.849  43.105  12.685
15679W        W87405  11.594  19.536  10.656
15680W        W87406  12.654  16.335  12.976
15681W        W87407   8.438  20.797   1.003
15682W        W87408  43.161   4.892   0.406
15683W        W87409  42.372   1.866  13.998
15684W        W87410  20.054   7.902   2.883
15685W        W87411  38.086  18.529  11.630
15686W        W87412  18.075   3.223  12.364
15687W        W87413  35.973  33.973  13.626
15688W        W87414  23.178  12.116  12.467
15689W        W87415  16.772  12.624   2.407
15690W        W87416  34.026   5.724  11.044
15691W        W87417  40.755  30.074  13.358
15692W        W87418  10.192  42.024   2.754
15693W        W87419  18.490  35.697  14.008
15694W        W87420  42.235  29.744   2.905
15695W        W87421  19.790  37.129   4.234
15696W        W87422  24.418  17.519   3.194
15697W        W87423  30.948  11.147   4.797
15698W        W87424  11.489  13.011  11.523
15699W        W87425  38.314  35.707   0.019
15700W        W87426  18.512   6.617  11.148
15701W        W87427  33.470  41.856   4.170
15702W        W87428  14.910  22.147  13.602
15703W        W87429  17.113   7.408  14.451
15704W        W87430   2.385  23.000   0.981
15705W        W87431  24.010  30.307   0.399
15706W        W87432  36.665  33.546   2.197
15707W        W87433  30.047  30.891  12.415
15708W        W87434  25.977  12.063  10.632
15709W        W87435  31.289  27.474  13.163
15710W        W87436  43.075  31.647   3.125
15711W        W87437  29.576  14.092   3.645
15712W        W87438  14.837  28.223  11.054
15713W        W87439  26.518  32.048   2.711
15714W        W87440  32.520  42.317   2.255
15715W        W87441  26.035  21.785  13.340
15716W        W87442  39.772  24.408  14.810
15717W        W87443  41.086  36.327  11.431
15718W        W87444  31.182  29.028  13.538
15719W        W87445  18.219   8.812  13.787
15720W        W87446   3.502  23.228   2.646
15721W        W87447  18.988  14.065  14.824
15722W        W87448  34.512  21.105   4.978
15723W        W87449   0.812  29.013  10.599
15724W        W87450  41.011  29.116   3.870
15725W        W87451  17.075  42.468   0.070
15726W        W87452  30.968   7.310   1.760
15727W        W87453  25.574  44.280   2.887
15728W        W87454  44.504   4.848  12.433
15729W        W87455  21.738   6.440  10.644
15730W        W87456  20.233   8.294  13.874
15731W        W87457  17.182  16.776   3.227
15732W        W87458   7.220   0.277  12.903
15733W        W87459   4.858  16.753   4.273
15734W        W87460  11.137  38.573   4.693
15735W        W87461  29.882  15.846   0.217
15736W        W87462  35.635   9.153  13.449
15737W        W87463  37.241   7.148  12.462
15738W        W87464  43.294  40.956   0.855
15739W        W87465   0.053  24.665  14.805
15740W        W87466  15.267   4.586   3.847
15741W        W87467  23.496   3.861  11.156
15742W        W87468  35.784  31.707   1.919
15743W        W87469  26.136  43.938  14.871
15744W        W87470  38.289  32.920   0.313
15745W        W87471   9.507  25.140  14.845
15746W        W87472  19.089   3.708  13.721
15747W        W87473  12.019  14.060  13.279
15748W        W87474  40.604  38.075   4.038
15749W        W87475  14.110   4.433  12.065
15750W        W87476  22.550  11.246  10.629
15751W        W87477  36.496  42.242   0.338
15752W        W87478   5.357   5.529   4.183
15753W        W87479   5.229   3.373   3.209
15754W        W87480  17.273  22.950   1.747
15755W        W87481  43.713   4.843   2.830
15756W        W87482  19.784  39.450   2.743
15757W        W87483  30.004  33.621   1.271
15758W        W87484  30.542   3.899   0.432
15759W        W87485  10.742  26.031   2.240
15760W        W87486  40.465  17.840   3.586
15761W        W87487   8.280  11.175   3.172
15762W        W87488  20.372   2.745   1.895
15763W        W87489   6.360   8.872  13.354
15764W        W87490  26.131  33.480   4.577
15765W        W87491   3.413  20.250   0.461
15766W        W87492  43.968  37.942   2.116
15767W        W87493   9.797  15.309  13.392
15768W        W87494  41.926  21.649   4.542
15769W        W87495  42.216  24.944   5.313
15770W        W87496  39.750  15.138   2.811
15771W        W87497  39.853  28.523   1.129
15772W        W87498   9.650  39.579  11.640
15773W        W87499  42.852  28.638  10.686
15774W        W87500   5.869  34.490   2.414
15775W        W87501  24.985  18.542  10.658
15776W        W87502  13.351   0.308   4.279
15777W        W87503   9.325  16.502   1.697
15778W        W87504  16.736   2.518   1.749
15779W        W87505  18.831   3.815   2.673
15780W        W87506  12.704  16.063  11.954
15781W        W87507   9.606   2.351  13.515
15782W        W87508  26.177  30.573   4.587
15783W        W87509  23.496   3.953  14.116
15784W        W87510  21.570   0.493   1.385
15785W        W87511  36.286  36.079   0.885
15786W        W87512  39.766   2.991   2.808
15787W        W87513  24.444  24.989   3.288
15788W        W87514   9.085  20.817  13.892
15789W        W87515   2.716   9.875  10.871
15790W        W87516  38.878  23.299   0.728
15791W        W87517  43.517  13.101  13.931
15792W        W87518  44.354  25.925  11.875
15793W        W87519  10.620  36.870   4.084
15794W        W87520  14.275  21.789   3.658
15795W        W87521  27.646  31.136   3.710
15796W        W87522  23.476  42.070   4.129
15797W        W87523   5.712  22.677  14.963
15798W        W87524   2.503  14.419  12.467
15799W        W87525   7.944  18.801   2.873
15800W        W87526  16.769  31.600   0.872
15801W        W87527  34.293  38.611   2.773
15802W        W87528  13.692   4.869   3.097
15803W        W87529  38.132  26.166   0.433
15804W        W87530  29.262  40.680  13.927
15805W        W87531  35.929  32.459  11.992
15806W        W87532  27.222  13.007   1.793
15807W        W87533  30.328  35.501   3.226
15808W        W87534  22.432  37.852   2.297
15809W        W87535   4.391  20.021  10.783
15810W        W87536   3.171  33.971   1.012
15811W        W87537  25.205   4.879   3.120
15812W        W87538  28.145  30.547   1.425
15813W        W87539  15.052  16.163  10.570
15814W        W87540   6.193  11.106  13.795
15815W        W87541  25.571   9.685   2.069
15816W        W87542   4.347  10.721   2.467
15817W        W87543  31.035  41.339  13.957
15818W        W87544  33.526  37.393   0.820
15819W        W87545   4.983  39.924   4.178
15820W        W87546  21.711  14.835  11.578
15821W        W87547  20.190  41.564   1.253
15822W        W87548   4.640  43.094   1.914
15823W        W87549  30.073  37.955   1.312
15824W        W87550  13.375  13.807   2.828
15825W        W87551  37.213  18.250  11.215
15826W        W87552   3.356  43.756  12.448
15827W        W87553  11.685   2.325  12.999
15828W        W87554  42.909  39.860   3.729
15829W        W87555  44.123  19.702  10.687
15830W        W87556   6.199  28.050   3.148
15831W        W87557  15.520  25.476   3.913
15832W        W87558   3.425  23.630   3.692
15833W        W87559  22.236  27.722  14.281
15834W        W87560  11.087  31.924   2.812
15835W        W87561  15.515  10.860  14.124
15836W        W87562  11.329   4.759   0.623
15837W        W87563  33.072  37.833   4.950
15838W        W87564  34.045  15.830  14.417
15839W        W87565  36.997  36.816  12.050
15840W        W87566  13.344  41.396  13.114
15841W        W87567  30.572  20.635   2.789
15842W        W87568  38.974  11.620  12.476
15843W        W87569   9.835  31.096   4.511
15844W        W87570  34.847  38.878  13.871
15845W        W87571  36.503  12.269   1.652
15846W        W87572  28.453  13.132   1.322
15847W        W87573  28.468  32.865  14.717
15848W        W87574   8.901  41.528   3.179
15849W        W87575   8.202   7.369  13.278
15850W        W87576   0.238   4.121  11.589
15851W        W87577  41.751  40.474   3.796
15852W        W87578  42.206  33.421  13.548
15853W        W87579   2.103  32.421  14.467
15854W        W87580  20.194   3.562  14.433
15855W        W87581  28.366   9.653  10.921
15856W        W87582  27.161  34.909  10.544
15857W        W87583  43.396  35.082  12.971
15858W        W87584  28.690   7.467   3.223
15859W        W87585   4.314  44.247   1.334
15860W        W87586  40.912   3.440   4.789
15861W        W87587  21.533  40.971   5.016
15862W        W87588  31.145  30.767   2.787
15863W        W87589   2.967  28.263  15.000
15864W        W87590   0.611   6.306  11.993
15865W        W87591  14.210  13.177  13.591
15866W        W87592   2.235  20.225   3.088
15867W        W87593  21.536  29.627   0.968
15868W        W87594   3.428  39.442   2.638
15869W        W87595   3.755  13.927   2.803
15870W        W87596   9.581  26.498   5.173
15871W        W87597  43.548  36.902   4.079
15872W        W87598  23.898  41.839   3.862
15873W        W87599  23.916  39.055   2.425
15874W        W87600  21.502  10.400  12.892
15875W        W87601   5.395  43.408  14.511
15876W        W87602   8.830  44.296   0.578
15877W        W87603   6.897   6.770  11.166
15878W        W87604  31.687  28.025   2.405
15879W        W87605  26.694   8.665   1.978
15880W        W87606   0.897  28.129  10.682
15881W        W87607  31.708   5.703   4.085
15882W        W87608  25.744  19.237  14.354
15883W        W87609   7.928   8.835  11.600
15884W        W87610  35.877  19.072  12.510
15885W        W87611  28.978  32.947   1.976
15886W        W87612  33.966  16.836  10.936
15887W        W87613   7.753   4.522  14.497
15888W        W87614  42.296  39.574  11.466
15889W        W87615  24.493  34.683  11.116
15890W        W87616   5.813   7.600   4.149
15891W        W87617  31.991  25.111   4.666
15892W        W87618  21.250  21.489  11.095
15893W        W87619  21.546   2.783  13.603
15894W        W87620   1.798  34.242   2.141
15895W        W87621  33.986  37.870   4.830
15896W        W87622  14.167   7.843   1.808
15897W        W87623  14.388  25.074   0.319
15898W        W87624   7.139  38.595   3.682
15899W        W87625  35.916  22.306  12.181
15900W        W87626  37.523  35.086  12.949
15901W        W87627   7.609  42.362  14.359
15902W        W87628  26.406  24.408   3.656
15903W        W87629   3.228   2.320  14.482
15904W        W87630  34.854   6.483  13.827
15905W        W87631  19.042  39.224   2.780
15906W        W87632  23.585  22.514   2.315
15907W        W87633   6.721  42.982  12.421
15908W        W87634  36.636  44.847   0.447
15909W        W87635  41.834  34.223  11.122
15910W        W87636  43.508   7.794   2.604
15911W        W87637  15.063  35.821   1.245
15912W        W87638  14.356  19.043   2.090
15913W        W87639   7.770  11.335   3.221
15914W        W87640  11.192  43.868   1.867
15915W        W87641  35.507  12.130   2.514
15916W        W87642  16.242  38.128   2.683
15917W        W87643   4.243  43.463  12.819
15918W        W87644  18.001  20.087  10.684
15919W        W87645  18.793  27.983  14.092
15920W        W87646  18.616  18.996  13.849
15921W        W87647   1.347  14.757  14.811
15922W        W87648  26.959  20.680   1.319
15923W        W87649  28.648  41.997   4.626
15924W        W87650  34.072  37.516   0.443
15925W        W87651   9.706  40.383   0.408
15926W        W87652  15.166   0.068  12.056
15927W        W87653  35.968  39.777  12.258
15928W        W87654  44.982  36.808  13.511
15929W        W87655  16.842   3.372   4.284
15930W        W87656  32.349   9.832   3.073
15931W        W87657   2.941  17.235  12.372
15932W        W87658   3.050  41.946  11.558
15933W        W87659   2.543  39.896   3.703
15934W        W87660  26.967  13.016   3.793
15935W        W87661  31.859  34.010   4.086
15936W        W87662  44.403  22.171   3.217
15937W        W87663  10.659   8.943   2.199
15938W        W87664   1.183  29.434  11.315
15939W        W87665  32.980  27.966   2.700
15940W        W87666  32.432  39.569  12.988
15941W        W87667   9.608  29.141   4.160
15942W        W87668   5.258   7.502  11.636
15943W        W87669   7.338  11.384  12.140
15944W        W87670   8.119   6.262   1.250
15945W        W87671   6.392   3.962   5.053
15946W        W87672  11.133  37.417   2.553
15947W        W87673   5.441  13.063   5.496
15948W        W87674  18.663  29.880   4.682
15949W        W87675  14.285  33.378   4.023
15950W        W87676  31.185  17.528  11.025
15951W        W87677  21.494  43.965  13.592
15952W        W87678   3.890   2.659  13.838
15953W        W87679  21.634  27.166  10.080
15954W        W87680  10.100  41.522   0.961
15955W        W87681  21.549   4.016   1.337
15956W        W87682  19.265   4.548  12.958
15957W        W87683  33.483  17.987   1.193
15958W        W87684  30.514  25.691   3.731
15959W        W87685   2.984  42.205   3.219
15960W        W87686  21.344   1.799   0.039
15961W        W87687   3.002  21.983   4.519
15962W        W87688  44.918  23.261   3.843
15963W        W87689  18.110   8.237   3.683
15964W        W87690  39.900  23.916  12.961
15965W        W87691  13.676   5.373   3.189
15966W        W87692   7.356  36.903   0.832
15967W        W87693  29.703  10.068   2.278
15968W        W87694  39.231  13.143  14.917
15969W        W87695  39.371  37.348  13.909
15970W        W87696  31.598   7.307  12.290
15971W        W87697  43.922  35.413  13.703
15972W        W87698  37.150  30.269  14.052
15973W        W87699  32.543  16.914   4.702
15974W        W87700   9.430  19.624  11.119
15975W        W87701  18.518  14.775   4.609
15976W        W87702  20.758   8.820  13.444
15977W        W87703  40.467  33.165   4.853
15978W        W87704  36.950  24.617   4.608
15979W        W87705  13.509  34.832  11.739
15980W        W87706  36.025  41.549   3.330
15981W        W87707   3.554  21.784   1.831
15982W        W87708  37.123  15.169  14.617
15983W        W87709  17.320  16.584   1.943
15984W        W87710  24.090  14.789   4.680
15985W        W87711  20.353  32.878   4.344
15986W        W87712   3.889  26.229   0.743
15987W        W87713  35.635  26.720   5.037
15988W        W87714  10.228  24.131   0.206
15989W        W87715  31.453  10.358   3.357
15990W        W87716  15.028  40.445   0.926
15991W        W87717  22.004   3.857   4.923
15992W        W87718  42.334   2.188  12.527
15993W        W87719  27.665  44.020   5.039
15994W        W87720  10.111  19.671   1.514
15995W        W87721  35.660  20.571   4.272
15996W        W87722  22.196   3.418   4.731
15997W        W87723  16.283   0.266  12.013
15998W        W87724  29.556  44.597  14.940
15999W        W87725  14.158  13.257   4.058
16000W        W87726   6.869  33.452   3.361
16001W        W87727   0.184  26.783  12.481
16002W        W87728   0.992  14.797   3.200
16003W        W87729   8.360  35.154   0.926
16004W        W87730  26.479  13.117  14.361
16005W        W87731  44.703  14.492  13.446
16006W        W87732  30.258  13.136   0.943
16007W        W87733  24.890  20.824   1.279
16008W        W87734  21.769  21.187   3.793
16009W        W87735  40.992  39.250   2.532
16010W        W87736  20.629   0.106   1.881
16011W        W87737   8.212  36.593   3.919
16012W        W87738   3.617  14.744  11.657
16013W        W87739  24.490  27.179  13.449
16014W        W87740   7.736  28.074  14.840
16015W        W87741   8.614  25.474   2.745
16016W        W87742   7.191  37.998  14.548
16017W        W87743   7.776   9.443   0.070
16018W        W87744  36.335  28.493   1.786
16019W        W87745  16.019  18.584   2.671
16020W        W87746  40.292  24.884  13.017
16021W        W87747  10.072  34.951  10.992
16022W        W87748   9.688  13.107   1.755
16023W        W87749  20.622  38.811   0.817
16024W        W87750  31.030  36.408  10.583
16025W        W87751  37.961  25.225   0.713
16026W        W87752  15.352  42.505   3.735
16027W        W87753  21.680  32.128   4.439
16028W        W87754  36.167  13.115   4.266
16029W        W87755  25.784  23.076  14.486
16030W        W87756  18.804  29.313  11.095
16031W        W87757  38.066  20.479   0.023
16032W        W87758  10.788  27.607   4.774
16033W        W87759  30.158  39.484  12.558
16034W        W87760   1.745  33.579  12.845
16035W        W87761  32.470   9.387  13.286
16036W        W87762   9.902  13.239  10.900
16037W        W87763  19.244   6.435  13.063
16038W        W87764   5.972  42.915  13.924
16039W        W87765  43.445  30.630  14.536
16040W        W87766   1.954   8.344   1.731
16041W        W87767  21.086  14.731  12.668
16042W        W87768  38.507  10.925  14.795
16043W        W87769  31.422  41.510  12.989
16044W        W87770  29.107  19.127  13.075
16045W        W87771  15.343  23.208  11.868
16046W        W87772  28.401  33.638  14.078
16047W        W87773  35.959  39.845   2.899
16048W        W87774  16.441  20.910   0.250
16049W        W87775  40.299  33.655  14.253
16050W        W87776  20.303  34.795  11.410
16051W        W87777  43.000   6.823   2.222
16052W        W87778  17.038  41.767  14.360
16053W        W87779   8.799  31.476  14.397
16054W        W87780  29.502  15.376   3.099
16055W        W87781  11.605  31.419  14.065
16056W        W87782  25.548  33.673  11.102
16057W        W87783   5.793  33.551  14.883
16058W        W87784  20.129   7.086   2.265
16059W        W87785  33.548  19.671  13.362
16060W        W87786  36.057  43.271   0.983
16061W        W87787   4.527  44.410   3.383
16062W        W87788  28.291  36.121  12.030
16063W        W87789   2.348  22.547   3.433
16064W        W87790  44.266  36.320  11.068
16065W        W87791  22.978   2.202  11.629
16066W        W87792  32.639  24.057   2.324
16067W        W87793  17.567   5.964   3.744
16068W        W87794  37.405  14.231   3.145
16069W        W87795   1.467  11.848   1.748
16070W        W87796  10.473  11.699   1.312
16071W        W87797  37.434  20.226  14.522
16072W        W87798  27.218  40.071   1.694
16073W        W87799   6.663  36.368   1.018
16074W        W87800  15.630   6.752  11.866
16075W        W87801   0.363  42.949   1.512
16076W        W87802  16.386  17.543  14.361
16077W        W87803  37.246  17.162  13.860
16078W        W87804  19.675  43.136   3.244
16079W        W87805   2.161   2.943  12.615
16080W        W87806   7.492  42.880   0.799
16081W        W87807   3.893   7.185   2.832
16082W        W87808  30.082  36.675   4.896
16083W        W87809  19.689  30.513  12.134
16084W        W87810  30.736  30.717  12.870
16085W        W87811  11.281  10.714  14.066
16086W        W87812   1.594   6.577   0.741
16087W        W87813  38.978  26.142   4.248
16088W        W87814  28.663   5.808   0.859
16089W        W87815   9.844  44.957   3.598
16090W        W87816   3.473   6.818   1.492
16091W        W87817  43.416  35.939  14.437
16092W        W87818  15.217  14.848   1.347
16093W        W87819  23.580  35.150  11.227
16094W        W87820  18.716  15.669   9.868
16095W        W87821  23.594  17.766   3.833
16096W        W87822  38.395  10.710   4.070
16097W        W87823  14.715   7.912  13.860
16098W        W87824  23.239  34.345   3.302
16099W        W87825  10.124  40.542   3.226
16100W        W87826  32.309  17.182   0.416
16101W        W87827  19.847   4.351   2.031
16102W        W87828  20.145  20.618   4.235
16103W        W87829   5.927   7.408  13.023
16104W        W87830  13.132  44.962   2.879
16105W        W87831   5.884  37.571  12.369
16106W        W87832   1.906  16.604   0.865
16107W        W87833  14.663  12.356   2.892
16108W        W87834   9.216  22.149   3.343
16109W        W87835  25.432  39.069  11.099
16110W        W87836   8.874   8.866   1.389
16111W        W87837  12.106  16.045   3.273
16112W        W87838   7.925  26.397  12.414
16113W        W87839  25.682   6.538   3.628
16114W        W87840  25.134  16.085   0.541
16115W        W87841  23.466  24.110   3.227
16116W        W87842  21.901  23.954  11.103
16117W        W87843  33.162  26.434   3.590
16118W        W87844  42.615  22.097  14.068
16119W        W87845  23.291  22.567  12.827
16120W        W87846  39.839  26.655  12.056
16121W        W87847  25.026  25.962  14.621
16122W        W87848  24.663  20.945  11.504
16123W        W87849  19.066  15.795  10.669
16124W        W87850  29.009   2.804   2.320
16125W        W87851  10.692  34.688  13.693
16126W        W87852  43.549  27.354   2.302
16127W        W87853   4.378  14.320  10.646
16128W        W87854  25.681  16.408   4.291
16129W        W87855  19.732  30.452   1.583
16130W        W87856   4.015  42.381  12.692
16131W        W87857  16.719   9.857  11.922
16132W        W87858  26.507  15.044   1.389
16133W        W87859  18.678  35.763  12.115
16134W        W87860  27.571  38.948  10.138
16135W        W87861  18.396  14.173   2.145
16136W        W87862  22.545  38.303   3.158
16137W        W87863  12.314  26.484  14.346
16138W        W87864   8.761  37.613  13.080
16139W        W87865  42.365  32.546   4.650
16140W        W87866  12.968  19.173   1.437
16141W        W87867   0.349  40.239  10.562
16142W        W87868  24.702  31.414   4.680
16143W        W87869  41.049  29.689  12.522
16144W        W87870  39.978  13.101   3.220
16145W        W87871  23.718  37.405   0.248
16146W        W87872  32.386  11.127   2.781
16147W        W87873  44.926   5.190  14.421
16148W        W87874   6.347   8.419  11.067
16149W        W87875  31.326  26.642   0.467
16150W        W87876  12.339  38.854   3.288
16151W        W87877  21.498   1.996  12.057
16152W        W87878  34.293  18.269   3.524
16153W        W87879  27.067  33.048  12.030
16154W        W87880  36.858  38.451  14.482
16155W        W87881  29.010  11.481   2.765
16156W        W87882  42.676  41.076   0.333
16157W        W87883  13.728   0.370  12.531
16158W        W87884   3.473   8.080   4.385
16159W        W87885  28.601  19.467   4.447
16160W        W87886  23.542  33.586   3.777
16161W        W87887  31.027  14.732  13.961
16162W        W87888  17.827   9.082   1.644
16163W        W87889  31.428  24.693  12.900
16164W        W87890  29.579  12.829   2.920
16165W        W87891  27.091  37.446  10.605
16166W        W87892  40.791   4.184   0.875
16167W        W87893  35.880  15.814   4.183
16168W        W87894  13.918   2.302   1.844
16169W        W87895  28.135  20.530   1.064
16170W        W87896  23.923  27.033   1.701
16171W        W87897   3.450  44.536  11.182
16172W        W87898   3.671  22.329  14.949
16173W        W87899  28.391   5.257   3.761
16174W        W87900  18.557  18.372  12.428
16175W        W87901  41.553  33.891   2.626
16176W        W87902  44.876  19.104   2.610
16177W        W87903   0.927  10.847  14.704
16178W        W87904  40.439  37.713  11.608
16179W        W87905  13.136   7.581  13.903
16180W        W87906  34.363  11.239   4.708
16181W        W87907  35.045  20.647   2.903
16182W        W87908  33.071   0.236   4.439
16183W        W87909   5.311   1.421  10.621
16184W        W87910  40.060  24.378   1.529
16185W        W87911   2.786   8.594  11.054
16186W        W87912  37.972  23.209   0.699
16187W        W87913  22.018  35.482   1.050
16188W        W87914  33.110  15.962   1.968
16189W        W87915  23.033   9.708   1.657
16190W        W87916  30.683  30.549  11.585
16191W        W87917  42.699  14.568  11.143
16192W        W87918   0.987  24.204   2.367
16193W        W87919  12.340   8.818   1.363
16194W        W87920   2.193   9.895  11.055
16195W        W87921  35.343  27.607  13.577
16196W        W87922  24.054  16.292   1.658
16197W        W87923  38.905  38.410   2.648
16198W        W87924  44.595  39.738  10.156
16199W        W87925   1.466  30.423  10.639
16200W        W87926  17.831  11.130  14.442
16201W        W87927  12.909  39.614  12.049
16202W        W87928  29.163   4.447   4.112
16203W        W87929  20.788   4.281  11.516
16204W        W87930  39.468  32.041  10.543
16205W        W87931   3.979  35.988   2.775
16206W        W87932  40.864  17.602   0.326
16207W        W87933  18.727  21.240   1.288
16208W        W87934  43.558  17.974  11.205
16209W        W87935   4.784  14.328  14.483
16210W        W87936  28.585  41.792  13.617
16211W        W87937  37.156  17.378   0.838
16212W        W87938   9.526   2.221   3.348
16213W        W87939  31.769  36.396  12.398
16214W        W87940   7.419  21.768   4.120
16215W        W87941  20.801   5.256   3.678
16216W        W87942  39.524   9.515   1.333
16217W        W87943  43.698  40.970  13.075
16218W        W87944  41.885   8.268  12.340
16219W        W87945  17.346  22.152   2.952
16220W        W87946  13.573   1.815  13.823
16221W        W87947  43.468  26.438  11.337
16222W        W87948  29.648   0.327   3.387
16223W        W87949  33.915  36.589  14.474
16224W        W87950  27.082  17.284  14.666
16225W        W87951  16.890  43.300   3.713
16226W        W87952  37.548   8.930   4.602
16227W        W87953  11.259  19.300  12.347
16228W        W87954   4.401   0.154  12.268
16229W        W87955  34.433   4.866  11.154
16230W        W87956  38.891  27.964  14.970
16231W        W87957  23.993  11.790   0.997
16232W        W87958  12.259  30.545   3.910
16233W        W87959  15.755  36.109   2.301
16234W        W87960  13.856  22.109  12.763
16235W        W87961  38.459  18.058  11.402
16236W        W87962  16.625  24.393   4.688
16237W        W87963  31.340  34.416   1.668
16238W        W87964  28.245  32.201   0.832
16239W        W87965  13.672   8.689  14.295
16240W        W87966  23.332   6.977  13.525
16241W        W87967  31.953  15.728   0.196
16242W        W87968  34.826  34.611   1.856
16243W        W87969  26.561  12.804   1.219
16244W        W87970   4.831  39.999   1.919
16245W        W87971   0.238  39.828  10.854
16246W        W87972   2.243  28.565   0.424
16247W        W87973  35.863   8.305   2.778
16248W        W87974  12.133  23.630   3.298
16249W        W87975  21.952  18.745  12.382
16250W        W87976  10.600  29.697  13.515
16251W        W87977  16.713   0.539   2.700
16252W        W87978  25.088   5.151  13.632
16253W        W87979  43.889  16.846  10.619
16254W        W87980  16.559   8.935   0.498
16255W        W87981   0.866  17.210  11.399
16256W        W87982   5.868  19.005   4.651
16257W        W87983  22.684  15.086   4.238
16258W        W87984  31.954   9.129  10.911
16259W        W87985  33.185  35.974  10.408
16260W        W87986   7.507   1.176  12.904
16261W        W87987  13.360  35.369  11.648
16262W        W87988   3.054   7.757   3.629
16263W        W87989  21.529  31.949   2.430
16264W        W87990  33.654  21.973  14.869
16265W        W87991   8.888  34.610  14.780
16266W        W87992  20.492  21.679  10.710
16267W        W87993  16.088   3.673  10.506
16268W        W87994  19.150  41.527  12.091
16269W        W87995  30.443  42.318  12.409
16270W        W87996  26.812  10.205  10.731
16271W        W87997  43.704  35.319  11.911
16272W        W87998  17.228  35.955  14.551
16273W        W87999  25.881   4.391   0.268
16274W        W88000  34.841   4.720  13.424
16275W        W88001   2.057  19.533  14.971
16276W        W88002  41.527  43.805  12.383
16277W        W88003  23.212  29.701   4.101
16278W        W88004  24.207  40.323   4.199
16279W        W88005  30.394  28.118  11.329
16280W        W88006  18.553  13.599  10.689
16281W        W88007  30.497   4.967  10.687
16282W        W88008  38.382  21.529  13.831
16283W        W88009  44.278  30.432   4.608
16284W        W88010  23.732  20.994   0.490
16285W        W88011   7.903  37.494  13.438
16286W        W88012  32.038  36.501   1.282
16287W        W88013  32.401  38.876   1.688
16288W        W88014  32.127  30.025  11.561
16289W        W88015   6.317   6.870   9.586
16290W        W88016   0.265  26.248  12.320
16291W        W88017  41.386  44.081  12.794
16292W        W88018   5.280  32.844  10.621
16293W        W88019   6.919  43.836   1.702
16294W        W88020  10.666  26.107   4.435
16295W        W88021  38.964  12.667  13.957
16296W        W88022  32.011  22.542   0.836
16297W        W88023   6.315  43.130  11.571
16298W        W88024  43.242  21.372   5.003
16299W        W88025   3.925  24.767   0.307
16300W        W88026  25.025   4.489   4.829
16301W        W88027   0.833  37.758   3.324
16302W        W88028  35.821  17.628  12.389
16303W        W88029  19.834   0.442   0.462
16304W        W88030  10.243  15.234   0.676
16305W        W88031  13.226  14.546   2.289
16306W        W88032  34.780  43.861  10.427
16307W        W88033  30.741   5.886   3.895
16308W        W88034  14.674   5.953   0.508
16309W        W88035  34.269  21.186  13.120
16310W        W88036   1.297  37.567   3.063
16311W        W88037  40.399  10.741  14.518
16312W        W88038  22.307   7.582  13.015
16313W        W88039   2.957  25.524   0.922
16314W        W88040  13.183  33.803   3.300
16315W        W88041  24.928  22.005  11.060
16316W        W88042  10.354  37.603  13.033
16317W        W88043  40.045  21.033  12.487
16318W        W88044   9.435   3.984   1.640
16319W        W88045  27.916  15.682   4.136
16320W        W88046  31.668  31.453  14.290
16321W        W88047  19.957  24.498  13.536
16322W        W88048  13.744  23.081   2.800
16323W        W88049   8.286  11.495  13.508
16324W        W88050  17.072  18.149  13.389
16325W        W88051  34.901  40.777   1.850
16326W        W88052   7.599  32.855  12.050
16327W        W88053  32.864  15.725  12.980
16328W        W88054  26.950  19.525  11.653
16329W        W88055   2.155  32.530   4.709
16330W        W88056  17.260   0.085   3.144
16331W        W88057  25.106  32.714   3.482
16332W        W88058   2.295  17.633  11.930
16333W        W88059  22.584  14.984   5.434
16334W        W88060   0.855   9.641   4.554
16335W        W88061  37.564  20.977   0.556
16336W        W88062  28.613  40.198  13.434
16337W        W88063  22.533  23.592  13.022
16338W        W88064   5.589  29.456   3.878
16339W        W88065  14.072   8.329   0.356
16340W        W88066  18.670  11.738   4.065
16341W        W88067   4.589  24.250  10.109
16342W        W88068  11.128  39.988  11.175
16343W        W88069  23.474  10.726  13.474
16344W        W88070  36.408  20.765   3.617
16345W        W88071  27.054  40.413   3.432
16346W        W88072   1.744   6.546  11.264
16347W        W88073  24.657  34.141   0.336
16348W        W88074   8.337  39.068   2.732
16349W        W88075  38.032  40.013  12.121
16350W        W88076  38.837   4.904  14.798
16351W        W88077  19.000  37.534  14.883
16352W        W88078  14.149   7.633   4.162
16353W        W88079  16.334  35.475  14.445
16354W        W88080  11.203  44.755  11.533
16355W        W88081  27.844  20.430  11.113
16356W        W88082  39.229  43.403  14.275
16357W        W88083  22.689  35.056  11.133
16358W        W88084  14.400  30.175  14.294
16359W        W88085  44.152  11.655   3.102
16360W        W88086  12.843  13.194  12.867
16361W        W88087  16.292  27.408   3.269
16362W        W88088  20.039  21.045  12.935
16363W        W88089  26.979   6.436   0.395
16364W        W88090  28.684   3.410  11.363
16365W        W88091  13.429   6.799  14.526
16366W        W88092  25.493  26.679   1.403
16367W        W88093   4.462  11.536   2.811
16368W        W88094  41.453  16.287   3.781
16369W        W88095  24.340  14.299  13.858
16370W        W88096  20.094  14.070  14.058
16371W        W88097  10.354  21.279   1.762
16372W        W88098   4.863  42.085   3.254
16373W        W88099  21.620  29.773   4.539
16374W        W88100   2.494  27.030  13.885
16375W        W88101  34.090  15.089  14.908
16376W        W88102  13.313   5.811   1.895
16377W        W88103  12.635   2.902   4.840
16378W        W88104  21.753   7.750  14.867
16379W        W88105  42.472  13.885   0.822
16380W        W88106   6.718  25.023   4.511
16381W        W88107  10.935   6.332  12.964
16382W        W88108  43.250  11.390   4.662
16383W        W88109  42.274  21.074   0.169
16384W        W88110  35.027  11.337  12.582
16385W        W88111   2.848  34.540  10.962
16386W        W88112  44.839  22.089   4.617
16387W        W88113  44.796   2.413   0.911
16388W        W88114  15.762   2.448  11.640
16389W        W88115  36.946  35.572   1.904
16390W        W88116  29.490  30.810  11.619
16391W        W88117  31.767  24.115   0.055
16392W        W88118   9.624  44.930   2.632
16393W        W88119   3.907  24.805   2.430
16394W        W88120  14.856   9.295   3.583
16395W        W88121   0.770   3.886  12.199
16396W        W88122  11.418  31.424   2.797
16397W        W88123  29.656  40.998   4.823
16398W        W88124  16.038  20.156  12.462
16399W        W88125  28.160  42.468   0.237
16400W        W88126  40.826  43.530   1.397
16401W        W88127  38.073  28.609   4.451
16402W        W88128   7.131  27.069  13.438
16403W        W88129  32.051  28.579   4.014
16404W        W88130   9.706  30.421   0.922
16405W        W88131  22.014   2.325   2.515
16406W        W88132  24.271  30.338   0.853
16407W        W88133   3.515  15.234   3.220
16408W        W88134  38.010  38.872  13.882
16409W        W88135  30.971  26.799   3.394
16410W        W88136  10.527   5.579   1.299
16411W        W88137   2.578  32.033   5.087
16412W        W88138  12.840  24.077   4.365
16413W        W88139  17.597   3.434   1.309
16414W        W88140  22.159  36.903  11.180
16415W        W88141  33.905  41.960  11.795
16416W        W88142  31.187  22.882   3.125
16417W        W88143  35.859  25.115  14.730
16418W        W88144  22.556   7.324   0.777
16419W        W88145   1.465  22.128  13.395
16420W        W88146   1.150  40.935  13.082
16421W        W88147  42.404  30.965   4.946
16422W        W88148   0.331  26.713   0.776
16423W        W88149  15.723   1.698   0.798
16424W        W88150  32.646   5.811   3.389
16425W        W88151   6.932  26.458  14.404
16426W        W88152  35.933  31.240  13.594
16427W        W88153  15.553  43.926   1.258
16428W        W88154  28.278  30.046  12.947
16429W        W88155  11.601  21.288   1.205
16430W        W88156  34.188  12.652   4.283
16431W        W88157  35.542   6.878  11.543
16432W        W88158   9.260  14.750  13.699
16433W        W88159  10.711  31.669  14.968
16434W        W88160  19.600   0.237  13.879
16435W        W88161   1.608  33.581   2.372
16436W        W88162  37.091  18.775  14.386
16437W        W88163  30.327  37.497  12.354
16438W        W88164  43.610  35.411   4.898
16439W        W88165  19.519  40.940   3.417
16440W        W88166  15.799  30.959   2.095
16441W        W88167  36.331  34.112  13.972
16442W        W88168  31.503  43.884   1.772
16443W        W88169  25.210  14.099   0.305
16444W        W88170  16.169   6.802   3.624
16445W        W88171   9.876  39.049   4.177
16446W        W88172  24.224  29.489  14.781
16447W        W88173  33.867   8.894   1.278
16448W        W88174   6.969  28.012  13.544
16449W        W88175  18.312  28.869  14.296
16450W        W88176  13.756  41.123  10.318
16451W        W88177  38.593  18.773   3.182
16452W        W88178   7.641   5.622   2.300
16453W        W88179  35.480  28.700  14.568
16454W        W88180  41.002  31.970   0.807
16455W        W88181  31.130   5.475  11.043
16456W        W88182  39.571  13.870   3.729
16457W        W88183  20.966  10.696   4.316
16458W        W88184  42.282  42.821   2.864
16459W        W88185  22.072  11.315  12.082
16460W        W88186  10.393  44.292  11.441
16461W        W88187  37.402  41.854  11.203
16462W        W88188  18.766   5.899   2.286
16463W        W88189  34.187  25.337  13.863
16464W        W88190  21.639  28.624  10.968
16465W        W88191  27.899  39.956  10.458
16466W        W88192  36.005   6.625   1.814
16467W        W88193  35.013  34.952   1.277
16468W        W88194  20.677  17.605  12.041
16469W        W88195   1.304  17.517  10.837
16470W        W88196  22.731  31.902   4.455
16471W        W88197  35.923   1.644   2.479
16472W        W88198  29.938  43.733  14.018
16473W        W88199  44.154  31.062  10.429
16474W        W88200   2.652  37.279  14.368
16475W        W88201  32.177  32.416   3.805
16476W        W88202  16.362  38.952  11.971
16477W        W88203   5.816  27.955   1.137
16478W        W88204  39.012   0.263  11.561
16479W        W88205  44.257   7.478  11.546
16480W        W88206  37.396  25.157   0.459
16481W        W88207  27.583  19.011  14.488
16482W        W88208   7.647  10.736  10.608
16483W        W88209   8.318  28.668   3.883
16484W        W88210  21.239  34.894  11.551
16485W        W88211  31.141  16.548  11.132
16486W        W88212   1.624  30.633  12.617
16487W        W88213   6.834   9.203   3.684
16488W        W88214   6.340  22.832   5.075
16489W        W88215   8.942   8.433  13.531
16490W        W88216  24.917  12.534   4.572
16491W        W88217  30.866  26.072  10.460
16492W        W88218  13.306  21.199   0.699
16493W        W88219  41.950  43.260   3.741
16494W        W88220  36.082  20.156  14.820
16495W        W88221  31.981  37.044  10.946
16496W        W88222   8.948  42.825  11.557
16497W        W88223  12.800   5.162   0.933
16498W        W88224  26.114   3.743  13.853
16499W        W88225  14.029  24.735  14.994
16500W        W88226  27.052  21.656   3.636
16501W        W88227  24.677  42.971   4.567
16502W        W88228  32.051  13.622  10.582
16503W        W88229  16.388  35.551   4.561
16504W        W88230  34.912  18.346  12.040
16505W        W88231   2.284  11.262   0.902
16506W        W88232  40.339   5.834   2.794
16507W        W88233   3.342  15.268   1.876
16508W        W88234  15.899  32.590  11.455
16509W        W88235  26.069   5.280   3.364
16510W        W88236  33.913  36.571   2.353
16511W        W88237  36.933   9.758  13.779
16512W        W88238  35.557  25.451   4.854
16513W        W88239   8.348  42.093   1.265
16514W        W88240  29.972  36.525  13.353
16515W        W88241  27.122  18.815   3.939
16516W        W88242   1.674  42.040   1.636
16517W        W88243  40.000   8.259   1.783
16518W        W88244  42.079  13.243  12.572
16519W        W88245   8.813   2.141   3.836
16520W        W88246  14.218  20.406   2.563
16521W        W88247  22.758   7.316  13.998
16522W        W88248  37.507  31.338  13.006
16523W        W88249  42.483  37.513   2.242
16524W        W88250  21.189  13.161  13.968
16525W        W88251   5.852  43.471   2.271
16526W        W88252  15.655  10.791   4.626
16527W        W88253  22.149  12.964   3.502
16528W        W88254  13.790   1.796   0.376
16529W        W88255  40.024   7.914   2.818
16530W        W88256  42.458   2.251  11.246
16531W        W88257  36.807  42.902  13.007
16532W        W88258  44.864   1.893   0.765
16533W        W88259  24.498  41.561  10.680
16534W        W88260   1.717  28.941   1.233
16535W        W88261  43.764  17.637  12.955
16536W        W88262  42.267  10.699  11.846
16537W        W88263  44.534   4.463   2.911
16538W        W88264   5.462   7.136   1.538
16539W        W88265  24.650  11.349   4.977
16540W        W88266   4.274   9.751   3.083
16541W        W88267  38.303   0.956  11.520
16542W        W88268  27.447  41.443  10.721
16543W        W88269  15.094  36.826   2.915
16544W        W88270  19.090  21.187   2.182
16545W        W88271  14.779  33.353  10.650
16546W        W88272  12.783   3.568  12.029
16547W        W88273  18.114   9.519  10.416
16548W        W88274  14.717  29.301  13.992
16549W        W88275  27.785  13.321   3.780
16550W        W88276   2.978  40.761  12.552
16551W        W88277  11.714  26.977  13.464
16552W        W88278  32.039  36.636  14.526
16553W        W88279  12.847  14.347   3.555
16554W        W88280  22.979  19.775   4.610
16555W        W88281  12.793  37.926   4.344
16556W        W88282  42.599  24.675  14.976
16557W        W88283  36.740  28.734   4.078
16558W        W88284   2.989   0.482   0.932
16559W        W88285  28.567  14.605  14.335
16560W        W88286  38.329  43.839  14.832
16561W        W88287  39.915   9.851  14.098
16562W        W88288  44.792  43.650   2.895
16563W        W88289  35.176   8.221  11.712
16564W        W88290   8.957  33.923   3.702
16565W        W88291  14.484  11.669  14.768
16566W        W88292  37.344   5.211  14.207
16567W        W88293  37.805   5.437   3.677
16568W        W88294   6.965  33.718   0.272
16569W        W88295  21.258  37.939  14.838
16570W        W88296  10.321  14.135   3.547
16571W        W88297   0.808  11.205   1.882
16572W        W88298  43.358  22.851  12.108
16573W        W88299   1.748   2.797  14.340
16574W        W88300  23.271  23.041   0.314
16575W        W88301  25.791  10.700  10.053
16576W        W88302  13.298  26.480  11.539
16577W        W88303  31.338  16.738  13.345
16578W        W88304  29.108  42.909  11.111
16579W        W88305  11.044  24.313  12.610
16580W        W88306  29.132  17.258  14.566
16581W        W88307  18.440  40.291   4.355
16582W        W88308  20.695  28.039  10.180
16583W        W88309   8.095   3.720   1.839
16584W        W88310  15.477  34.398   3.917
16585W        W88311  33.689  34.931   3.117
16586W        W88312  23.811  39.367  11.071
16587W        W88313  43.727  23.165  11.664
16588W        W88314  19.877   2.768  14.379
16589W        W88315   6.292  39.448   0.248
16590W        W88316  11.216  38.495  13.800
16591W        W88317  37.663   2.880  11.187
16592W        W88318  32.145  42.096   1.446
16593W        W88319  22.610  37.574  12.207
16594W        W88320  23.067  41.803   3.972
16595W        W88321  33.093  15.705   1.496
16596W        W88322  21.600  26.568  14.550
16597W        W88323   3.922   6.469   0.973
16598W        W88324  44.372  15.330  14.356
16599W        W88325  40.085  39.376  11.187
16600W        W88326  30.053  26.282  12.366
16601W        W88327  32.078  23.694   5.095
16602W        W88328  15.162  43.796  10.610
16603W        W88329   4.743  19.890   3.222
16604W        W88330  37.445  44.698  12.781
16605W        W88331  28.932  14.729  11.663
16606W        W88332  29.908   5.637   0.359
16607W        W88333   0.829  44.979   3.688
16608W        W88334  18.557  26.752  14.342
16609W        W88335  37.602  20.615  13.324
16610W        W88336   9.283  22.113   0.313
16611W        W88337  38.857   7.755   0.752
16612W        W88338  10.886  33.934  10.625
16613W        W88339  23.040  21.468  14.444
16614W        W88340  31.380  24.641  12.368
16615W        W88341  41.372  41.227   0.558
16616W        W88342   9.448   6.364  14.414
16617W        W88343   7.744  11.374  11.443
16618W        W88344  12.813  31.848  14.046
16619W        W88345  21.718  42.474   3.154
16620W        W88346  23.076  27.535   3.620
16621W        W88347  37.053  27.164  10.727
16622W        W88348  12.357   7.919   2.268
16623W        W88349  16.741  36.571  14.953
16624W        W88350  29.328  20.467   4.341
16625W        W88351  44.281   0.875  10.610
16626W        W88352   1.788  14.091   0.896
16627W        W88353  31.515  27.978   2.889
16628W        W88354  14.400  20.958  12.729
16629W        W88355   8.386  30.343  10.741
16630W        W88356   1.024  11.238   1.403
16631W        W88357  18.734  16.981   2.280
16632W        W88358   4.591   0.118   1.731
16633W        W88359  29.506   8.170   0.180
16634W        W88360   7.846  36.369   1.364
16635W        W88361   8.727  43.364   2.355
16636W        W88362   9.701  34.208  14.530
16637W        W88363  15.839   6.702   0.404
16638W        W88364   9.918  34.860   4.650
16639W        W88365   5.891  17.709   1.715
16640W        W88366  29.017  10.169   4.299
16641W        W88367  29.983  10.023  10.769
16642W        W88368   0.562  12.196  13.088
16643W        W88369  16.813  36.134  11.909
16644W        W88370  32.947  43.381  12.141
16645W        W88371   4.969  25.738   0.959
16646W        W88372   3.895  34.652  12.435
16647W        W88373  28.654   2.761  11.991
16648W        W88374   6.112   2.367   1.307
16649W        W88375  18.219  37.496  13.802
16650W        W88376   2.433  14.551   0.400
16651W        W88377  23.496  13.348   4.051
16652W        W88378   7.185   1.437   1.812
16653W        W88379  18.252   5.742  12.600
16654W        W88380  42.601   9.864  11.988
16655W        W88381   9.127  17.082   4.967
16656W        W88382  10.618  21.572  12.153
16657W        W88383  27.449  13.566   0.487
16658W        W88384  36.448  17.242  13.287
16659W        W88385   7.244  35.515   1.490
16660W        W88386  32.872  22.179   0.421
16661W        W88387   2.740  22.215  10.527
16662W        W88388  16.348   7.231  11.498
16663W        W88389   4.281  41.481   0.890
16664W        W88390   4.521  15.329   0.883
16665W        W88391  33.148  42.420   0.386
16666W        W88392  30.583  17.549  13.949
16667W        W88393  15.252  15.679  13.311
16668W        W88394  38.492  12.188  13.071
16669W        W88395  23.499  13.623   2.973
16670W        W88396  30.589  38.657   1.517
16671W        W88397  42.901  16.711  13.364
16672W        W88398   2.870  39.076   0.388
16673W        W88399  26.567  26.693   1.297
16674W        W88400  41.070  13.117   2.187
16675W        W88401  17.091  23.532   3.375
16676W        W88402  30.288  26.469  13.345
16677W        W88403  30.527   8.610  10.653
16678W        W88404  40.363   4.389   3.848
16679W        W88405  18.730  39.285  13.908
16680W        W88406  28.597   7.914  14.232
16681W        W88407  36.847  38.157  11.940
16682W        W88408  15.045   0.016   1.440
16683W        W88409  21.195  42.202  14.049
16684W        W88410  22.588  31.440  11.660
16685W        W88411   6.141  40.011  10.971
16686W        W88412  11.567  15.224   1.384
16687W        W88413  42.356  18.058   4.588
16688W        W88414  11.106  14.908   0.639
16689W        W88415   8.302  15.405  12.231
16690W        W88416  26.674   2.003   1.867
16691W        W88417  40.522  27.656  12.594
16692W        W88418  20.516   2.868   3.750
16693W        W88419  35.605  37.303   4.486
16694W        W88420  37.989  42.431   2.951
16695W        W88421  22.236  24.527  13.279
16696W        W88422   6.494   4.279  12.488
16697W        W88423  19.968   5.886  12.928
16698W        W88424  24.979  31.878   0.465
16699W        W88425  39.659   9.487  13.368
16700W        W88426  33.776  16.167   1.280
16701W        W88427  11.179  19.113   1.835
16702W        W88428  15.127  21.760   3.350
16703W        W88429  11.607  27.907  13.362
16704W        W88430  31.428   1.701  12.545
16705W        W88431  31.002  32.526  11.890
16706W        W88432   6.756   0.456   0.869
16707W        W88433  25.298  15.775  14.966
16708W        W88434  24.914  20.223   4.590
16709W        W88435   6.982  15.111  12.524
16710W        W88436  39.111  20.216   4.143
16711W        W88437  38.553   5.423  14.152
16712W        W88438  10.159  30.453   2.997
16713W        W88439  40.541  30.281  11.217
16714W        W88440  20.342  27.262   3.821
16715W        W88441  30.470   1.213   0.926
16716W        W88442  31.044  39.502  14.456
16717W        W88443   1.311  34.824  13.003
16718W        W88444  15.205   5.032   1.390
16719W        W88445   9.151  29.463   0.197
16720W        W88446  28.267  33.890  12.362
16721W        W88447  30.387  33.468  13.996
16722W        W88448  19.108  19.951  11.477
16723W        W88449  26.998   3.373   0.715
16724W        W88450  34.802  22.396  11.315
16725W        W88451  16.851   3.984  13.410
16726W        W88452  40.506  27.741   0.985
16727W        W88453   2.188  25.042  14.039
16728W        W88454  40.516  11.764  12.626
16729W        W88455   2.300  39.757  10.617
16730W        W88456   0.825  26.201   0.525
16731W        W88457  29.678  26.693  11.584
16732W        W88458  42.957  17.228  13.412
16733W        W88459  28.816  37.556  11.710
16734W        W88460   9.524  34.158   1.338
16735W        W88461  14.163   0.710   3.318
16736W        W88462   4.145  44.861  14.569
16737W        W88463  28.215   5.843   1.310
16738W        W88464  40.757  40.372  12.029
16739W        W88465  37.591  31.390   3.283
16740W        W88466   4.280   8.845  12.237
16741W        W88467  41.992   9.226   4.569
16742W        W88468   2.761  33.345  12.054
16743W        W88469  43.339   9.842   4.584
16744W        W88470   0.056  29.435   3.154
16745W        W88471   7.130  21.554   1.222
16746W        W88472  31.156   6.964   4.038
16747W        W88473  18.614   9.308  11.102
16748W        W88474  30.467  10.706   3.609
16749W        W88475  39.926   1.027   4.110
16750W        W88476  27.766  21.687   0.039
16751W        W88477  12.224  25.590   4.507
16752W        W88478  33.076  36.703  12.960
16753W        W88479   6.321   0.728   0.738
16754W        W88480  15.245  22.899   4.687
16755W        W88481   0.349  22.807  13.494
16756W        W88482   6.278  37.863  11.173
16757W        W88483  22.065  32.552  13.174
16758W        W88484  24.217   6.758   4.371
16759W        W88485  27.225   4.384  12.942
16760W        W88486  29.639  20.596  14.975
16761W        W88487  41.282  10.061  11.988
16762W        W88488  28.138  22.975  13.552
16763W        W88489  12.728  40.824   0.914
16764W        W88490  37.461  32.081  12.252
16765W        W88491   0.455   3.287  11.905
16766W        W88492  42.698   0.151   4.051
16767W        W88493   0.529   7.480  12.466
16768W        W88494  43.534  14.296   1.437
16769W        W88495  31.065   9.115  13.315
16770W        W88496  35.846  28.612   3.819
16771W        W88497  16.598  39.868  11.432
16772W        W88498  38.738  27.486  13.322
16773W        W88499  14.932  14.780  12.448
16774W        W88500  11.392  23.625   0.226
16775W        W88501  19.170  40.276  12.871
16776W        W88502  30.464  27.128  11.383
16777W        W88503  40.049  17.998  14.799
16778W        W88504  16.267  39.258  13.484
16779W        W88505  34.528  21.643  14.903
16780W        W88506   6.874   8.282   3.640
16781W        W88507  24.461  22.883  13.448
16782W        W88508  19.254  31.665   0.264
16783W        W88509  30.466  34.925  13.500
16784W        W88510  13.568  22.427   0.899
16785W        W88511  34.993  14.195   3.155
16786W        W88512  13.720  21.530   3.219
16787W        W88513  23.057  37.899   3.816
16788W        W88514   5.220  42.501  11.656
16789W        W88515  30.488  21.646  11.652
16790W        W88516  31.753  26.084   4.541
16791W        W88517  20.823  43.207   0.939
16792W        W88518  37.349  22.731   2.357
16793W        W88519  31.281  21.564   0.929
16794W        W88520  33.149  41.345  12.951
16795W        W88521  28.552  20.769  13.361
16796W        W88522  37.477   1.936   1.857
16797W        W88523  41.339  26.013  14.099
16798W        W88524  24.801  29.442   2.875
16799W        W88525  42.807   2.895   1.058
16800W        W88526   5.310   3.507  13.435
16801W        W88527   9.640   9.902  11.145
16802W        W88528  17.354   1.778   4.039
16803W        W88529   4.267  16.122  10.261
16804W        W88530   2.273  42.768   2.731
16805W        W88531  29.107  36.327  11.499
16806W        W88532  15.520  40.605  14.472
16807W        W88533  39.333  30.160   3.318
16808W        W88534  42.054  16.885  13.067
16809W        W88535  17.104  22.199   4.760
16810W        W88536  20.523  32.383  11.035
16811W        W88537  11.193  30.687  11.428
16812W        W88538   7.406  23.033   1.444
16813W        W88539   7.655  25.952   3.510
16814W        W88540   0.840  13.602  11.282
16815W        W88541  11.377   0.969  11.949
16816W        W88542  33.035  33.138  11.610
16817W        W88543   7.920   7.876  14.896
16818W        W88544  33.101   8.081   0.982
16819W        W88545   6.395  10.261  11.198
16820W        W88546  32.834   3.821  14.439
16821W        W88547  16.206  41.385  10.702
16822W        W88548  44.245   2.214   5.176
16823W        W88549  40.532  13.693   0.376
16824W        W88550  13.140  22.092   0.907
16825W        W88551   3.940  29.791  14.317
16826W        W88552  10.300   6.150  11.108
16827W        W88553  35.419  13.946   2.396
16828W        W88554   5.296  29.956  14.524
16829W        W88555  44.867  39.025  14.950
16830W        W88556  42.364  13.529   0.469
16831W        W88557  22.670  18.003   0.522
16832W        W88558  27.188  41.951   4.627
16833W        W88559  39.312  43.435  11.520
16834W        W88560  33.233  21.631  10.735
16835W        W88561  13.794  18.253  13.908
16836W        W88562   5.885  38.922  13.436
16837W        W88563  18.871  35.189   3.282
16838W        W88564   9.679  39.885   3.067
16839W        W88565  36.501  29.545  13.702
16840W        W88566  26.852  18.582  11.242
16841W        W88567  21.223  44.979  11.888
16842W        W88568   1.395   0.752  10.781
16843W        W88569  34.840  23.472  13.810
16844W        W88570  35.077  23.755   1.252
16845W        W88571  17.310  41.438   2.668
16846W        W88572  37.497  39.890   1.368
16847W        W88573  30.902   9.596   4.711
16848W        W88574  18.271  12.142   1.617
16849W        W88575   0.175  20.264   3.366
16850W        W88576  39.606   3.314   2.415
16851W        W88577   7.902   2.920   1.307
16852W        W88578  42.941  13.122  11.074
16853W        W88579  42.233  35.778  12.180
16854W        W88580  23.734   8.449  11.674
16855W        W88581  12.184  43.294  13.243
16856W        W88582   5.209  31.387  13.450
16857W        W88583  44.886  43.016  11.616
16858W        W88584   8.230  26.742   2.292
16859W        W88585  28.382  20.562   0.029
16860W        W88586  14.659   6.868   4.465
16861W        W88587   9.724  38.296   0.745
16862W        W88588   2.679   1.013  13.886
16863W        W88589  37.787   0.966   3.846
16864W        W88590  14.735   3.937   0.786
16865W        W88591  37.601   4.684  12.530
16866W        W88592  42.929   5.627  10.306
16867W        W88593  43.971   8.809   2.297
16868W        W88594  33.200  16.137  11.998
16869W        W88595  33.865  43.061  11.947
16870W        W88596  18.346  35.492   1.724
16871W        W88597  25.005  43.010  11.042
16872W        W88598  40.826   7.437   3.758
16873W        W88599  42.777  43.584   2.687
16874W        W88600  16.984  16.160  12.577
16875W        W88601  34.986  13.035  11.501
16876W        W88602  42.012  34.431   0.457
16877W        W88603   1.982   9.632   2.400
16878W        W88604  36.372  34.575   0.509
16879W        W88605  13.705  11.920  10.607
16880W        W88606  41.144  35.376   2.731
16881W        W88607  19.171   0.646  11.599
16882W        W88608  41.083  34.467   4.786
16883W        W88609   5.713  16.719   1.382
16884W        W88610  27.113   5.434   4.383
16885W        W88611  36.088  35.848  14.923
16886W        W88612   9.895  27.016  13.747
16887W        W88613  21.138   5.225   4.063
16888W        W88614  39.853  16.297   2.878
16889W        W88615  10.759  35.560   1.738
16890W        W88616  12.445  24.703   1.312
16891W        W88617  42.897  26.104   4.678
16892W        W88618  28.154  24.251  13.977
16893W        W88619   5.434  43.786   4.745
16894W        W88620  37.468  33.108  11.778
16895W        W88621  18.099  28.184   2.394
16896W        W88622  35.667  35.065  13.099
16897W        W88623   2.373   1.904  11.213
16898W        W88624  28.115   0.942   2.911
16899W        W88625  39.368  17.379  12.515
16900W        W88626  23.613  34.351   2.218
16901W        W88627  26.192  43.381  11.058
16902W        W88628  14.649  12.444  14.445
16903W        W88629  29.050  10.393   3.838
16904W        W88630  43.177  37.392   1.145
16905W        W88631   0.719  43.368  11.574
16906W        W88632  39.325  19.156   4.658
16907W        W88633   4.342  10.118  10.563
16908W        W88634  30.388   0.315  10.853
16909W        W88635  35.307   2.559   1.577
16910W        W88636   1.748   7.686   4.024
16911W        W88637  40.229  22.662   0.384
16912W        W88638  32.996  36.534   0.872
16913W        W88639  43.550  37.886  14.894
16914W        W88640  39.367   2.837   4.606
16915W        W88641  19.250  24.746  11.415
16916W        W88642  34.894  42.467  12.395
16917W        W88643  31.458  42.490   0.205
16918W        W88644   1.772  44.796   0.606
16919W        W88645  40.313  37.960   0.327
16920W        W88646   3.761  11.318  10.628
16921W        W88647   8.129  42.027  14.847
16922W        W88648  34.142  43.223  13.585
16923W        W88649  29.148  34.296   4.228
16924W        W88650  12.979  39.409  14.709
16925W        W88651  41.256  32.962  14.998
16926W        W88652  14.145   2.726   2.183
16927W        W88653  38.250  43.680   3.448
16928W        W88654  14.220  41.025  12.971
16929W        W88655  11.306  37.979  11.183
16930W        W88656   7.379   9.231  12.072
16931W        W88657  38.043  38.083   2.654
16932W        W88658  16.706   1.706   0.970
16933W        W88659  27.400  24.055  13.856
16934W        W88660  30.631  25.281  11.136
16935W        W88661  34.050  17.439   3.326
16936W        W88662  37.192  42.101  14.028
16937W        W88663   0.504  38.383  12.624
16938W        W88664  38.696  33.111   3.575
16939W        W88665  23.724   1.429  12.472
16940W        W88666   0.384  39.749   0.763
16941W        W88667  29.474  25.722  13.350
16942W        W88668  29.527  34.969   0.853
16943W        W88669  33.646   5.694   1.740
16944W        W88670  25.793   8.794  13.341
16945W        W88671  17.543  26.231   0.358
16946W        W88672  18.473  19.795  14.822
16947W        W88673  36.285  32.508  13.040
16948W        W88674  35.510  27.491  14.508
16949W        W88675   0.032   2.002  11.608
16950W        W88676  35.445  25.439  12.110
16951W        W88677  19.052  29.499  12.382
16952W        W88678  18.776  30.247   2.921
16953W        W88679  41.096   5.195   4.516
16954W        W88680   6.770  34.069   1.810
16955W        W88681  39.537  32.502   2.478
16956W        W88682  44.557  37.965   3.523
16957W        W88683  20.704  25.933  11.544
16958W        W88684  19.837   6.361  13.884
16959W        W88685  29.171  16.405   2.833
16960W        W88686  36.975  36.894   1.494
16961W        W88687  10.083  14.353   1.704
16962W        W88688  39.940  16.327  12.070
16963W        W88689   4.930  29.213   1.975
16964W        W88690  22.571   7.155   2.616
16965W        W88691   0.186  19.604  12.583
16966W        W88692  22.712  12.710   2.841
16967W        W88693  21.261  31.393  12.468
16968W        W88694  44.358  30.907   2.660
16969W        W88695  29.710  44.441  12.030
16970W        W88696  17.165  33.342  12.114
16971W        W88697   5.623  40.067   4.699
16972W        W88698   9.880  12.085   5.087
16973W        W88699   6.531  13.069   3.307
16974W        W88700   7.639   1.179   1.805
16975W        W88701  13.574   0.056  13.927
16976W        W88702   5.837  17.642  12.439
16977W        W88703  23.481  21.371   1.537
16978W        W88704  21.744  15.367   3.830
16979W        W88705  27.490   0.933   1.837
16980W        W88706   0.466   5.166  13.866
16981W        W88707  14.246  24.002  13.037
16982W        W88708  29.965  22.533  12.908
16983W        W88709   0.828  11.333   2.926
16984W        W88710  25.289   2.047   4.872
16985W        W88711  29.047   6.137   4.969
16986W        W88712  30.926  17.920   3.992
16987W        W88713   5.166  14.629   4.880
16988W        W88714  32.824   3.829  11.253
16989W        W88715   7.218  27.181  11.213
16990W        W88716   7.249  40.224   4.614
16991W        W88717  29.874   2.464   2.509
16992W        W88718   6.137   0.989  14.427
16993W        W88719  40.322  39.205   3.225
16994W        W88720  42.344  31.410   3.953
16995W        W88721   2.863  40.035  13.023
16996W        W88722  15.373  26.225  10.751
16997W        W88723  35.913  35.068  11.988
16998W        W88724  15.783  42.269  11.001
16999W        W88725  28.798   9.911  10.447
17000W        W88726  34.476   0.751  12.072
17001W        W88727  39.944   6.908   1.793
17002W        W88728  21.578  28.137   2.194
17003W        W88729  22.096  21.590   1.227
17004W        W88730   6.799  24.179   4.200
17005W        W88731  20.133  14.142  10.965
17006W        W88732   8.385   4.756  11.541
17007W        W88733  42.892  29.267   1.197
17008W        W88734  31.399  12.120   0.232
17009W        W88735  21.030   0.645   4.924
17010W        W88736  10.637  15.713  12.515
17011W        W88737  24.027  15.741  12.407
17012W        W88738   6.399  23.257  11.621
17013W        W88739  24.099  11.358  10.726
17014W        W88740  22.910  41.296   3.289
17015W        W88741  34.486  34.519   0.003
17016W        W88742  23.717  10.835  12.833
17017W        W88743  11.717  37.369  10.717
17018W        W88744  19.439  37.642  11.997
17019W        W88745  32.355   4.977   1.701
17020W        W88746  15.794  44.474   3.730
17021W        W88747   5.385  35.068   0.432
17022W        W88748  23.366  43.181  13.919
17023W        W88749  31.903  14.111  14.243
17024W        W88750  36.611  13.820   3.360
17025W        W88751   1.494  19.184   4.139
17026W        W88752   5.994  14.179  13.017
17027W        W88753  33.446  17.840  11.586
17028W        W88754   3.379  44.506  12.037
17029W        W88755   8.164  35.771   5.318
17030W        W88756  10.564  12.949   2.758
17031W        W88757  43.623  24.229  10.668
17032W        W88758   9.920  23.637  11.437
17033W        W88759  27.937   1.991  12.053
17034W        W88760  18.885  39.360   3.242
17035W        W88761   7.172  20.587   2.406
17036W        W88762  23.258  39.300  13.321
17037W        W88763  42.895  42.468   1.702
17038W        W88764  35.838   5.347  14.855
17039W        W88765  44.336  40.003  11.413
17040W        W88766  42.886  25.642  13.857
17041W        W88767  34.941   0.004  13.951
17042W        W88768  38.657   2.112   2.335
17043W        W88769  24.374  37.089  10.699
17044W        W88770  36.826  11.882   3.307
17045W        W88771  22.036  33.332  12.351
17046W        W88772  32.994  33.147   1.381
17047W        W88773  14.782  14.384  14.464
17048W        W88774  27.519   7.322  11.963
17049W        W88775  11.200  43.950  13.536
17050W        W88776  42.044   3.924  14.953
17051W        W88777  43.254  12.548  14.762
17052W        W88778  30.899  11.944  12.535
17053W        W88779  30.033  23.397  14.790
17054W        W88780  18.787  14.032  10.522
17055W        W88781  38.690  38.445   1.642
17056W        W88782  39.721  20.649   4.551
17057W        W88783  39.024  37.646   3.292
17058W        W88784  27.961  20.715   2.878
17059W        W88785  20.991  16.320  14.291
17060W        W88786   3.146  16.147  14.870
17061W        W88787  27.014  11.805  14.096
17062W        W88788  13.078   8.211  10.813
17063W        W88789  34.424  28.101  11.548
17064W        W88790  14.543   3.420   5.004
17065W        W88791  41.873  11.381   2.720
17066W        W88792  34.899  16.536  13.419
17067W        W88793   7.731  26.896   2.358
17068W        W88794  16.238   2.295   1.855
17069W        W88795   8.363  23.680  10.532
17070W        W88796  14.271  13.689   1.369
17071W        W88797  27.000   0.559   5.110
17072W        W88798   6.347   0.520   1.188
17073W        W88799  28.216  16.768   1.712
17074W        W88800  31.631  38.895   2.215
17075W        W88801  13.338  25.754   3.140
17076W        W88802  18.774  41.081  13.257
17077W        W88803   2.959  40.898   1.312
17078W        W88804  16.631  21.056  14.423
17079W        W88805  38.894  34.144  14.011
17080W        W88806  29.622  11.614  13.968
17081W        W88807   5.973   7.211   2.647
17082W        W88808   0.029  42.901   4.656
17083W        W88809   8.725   3.073  12.825
17084W        W88810  22.916  29.542  12.013
17085W        W88811  30.846   2.474   2.324
17086W        W88812  38.963   2.291   3.575
17087W        W88813  10.267  12.043  11.205
17088W        W88814   7.327  11.903  12.102
17089W        W88815   5.847  19.215   3.638
17090W        W88816  10.855   7.405  13.520
17091W        W88817  18.718  41.648  12.437
17092W        W88818  43.845   6.681  12.325
17093W        W88819  24.427  39.044  11.921
17094W        W88820   4.321   7.877  10.769
17095W        W88821   4.436   7.861   1.335
17096W        W88822  19.711  40.308  13.967
17097W        W88823  44.393   9.901   4.072
17098W        W88824  31.919  31.148   2.867
17099W        W88825  10.580  24.267  12.331
17100W        W88826  20.688  36.007  14.737
17101W        W88827  22.483  39.428  11.533
17102W        W88828  12.009  41.104   4.535
17103W        W88829   3.756   6.925   3.244
17104W        W88830  18.506  29.401   3.907
17105W        W88831   3.854  41.919  12.472
17106W        W88832   4.407  11.008   4.110
17107W        W88833  26.006  20.195   4.748
17108W        W88834  13.658  25.959   3.785
17109W        W88835  12.267   8.803  11.720
17110W        W88836   7.422   1.267   1.342
17111W        W88837  44.878  39.110   3.189
17112W        W88838  23.716  32.030   0.312
17113W        W88839  35.548  17.787  10.697
17114W        W88840  32.114   5.439   1.763
17115W        W88841  37.624  37.880  11.455
17116W        W88842  44.980  24.152   4.403
17117W        W88843   7.406  44.456   0.259
17118W        W88844   9.199  43.776  14.782
17119W        W88845  13.133  17.844  13.354
17120W        W88846  19.206  13.023   2.231
17121W        W88847  16.161  35.544  12.925
17122W        W88848   8.470   6.241  10.229
17123W        W88849  23.792   6.991   0.789
17124W        W88850  41.582   2.874  13.302
17125W        W88851   6.312  11.163   1.992
17126W        W88852  29.144  36.340   2.377
17127W        W88853  23.236  28.231  12.994
17128W        W88854  21.266  30.934   5.033
17129W        W88855  35.346  13.255   1.389
17130W        W88856  31.382  20.583   4.742
17131W        W88857  18.145  27.990   1.489
17132W        W88858  41.207   1.003  12.948
17133W        W88859  11.334   8.547  14.277
17134W        W88860  40.003   9.473  10.974
17135W        W88861  34.427  30.365   1.969
17136W        W88862  24.726  17.308   0.365
17137W        W88863  19.201  42.005   1.236
17138W        W88864  40.375  12.748  12.581
17139W        W88865   3.379  36.462   1.157
17140W        W88866   4.669  31.439  13.410
17141W        W88867  28.578  19.638  12.991
17142W        W88868   6.731  39.918  13.444
17143W        W88869  32.318  33.041   3.156
17144W        W88870  21.774  28.247  13.085
17145W        W88871   2.311  42.742   3.736
17146W        W88872  30.372  37.350   3.394
17147W        W88873   2.365   8.612  11.664
17148W        W88874  15.210  22.456   4.991
17149W        W88875  24.629  17.542  13.432
17150W        W88876  21.345  18.295   0.470
17151W        W88877  41.452  25.235  14.662
17152W        W88878  40.373  28.109   4.114
17153W        W88879  21.759  15.260  10.519
17154W        W88880   4.686   4.683   5.034
17155W        W88881   5.944  35.440   4.370
17156W        W88882  42.999  26.083  12.495
17157W        W88883  32.646   2.203   1.393
17158W        W88884  39.479  10.800   0.927
17159W        W88885   7.564  34.630  14.842
17160W        W88886  35.467  41.061   3.938
17161W        W88887  22.817  44.396   0.371
17162W        W88888  27.492  11.294  14.819
17163W        W88889  41.619  42.828   3.830
17164W        W88890  12.152  34.507   4.866
17165W        W88891  33.853   6.451   2.339
17166W        W88892  40.529  18.497   0.297
17167W        W88893  34.150  24.950   1.240
17168W        W88894  34.592  31.453   1.246
17169W        W88895  41.291  26.922  14.332
17170W        W88896  10.072  15.162  12.067
17171W        W88897   9.294  13.121   3.832
17172W        W88898  44.340  44.511   2.470
17173W        W88899  28.023  14.003   0.167
17174W        W88900   3.485  43.752  11.705
17175W        W88901  33.647   3.749   1.502
17176W        W88902  27.910  17.762  14.877
17177W        W88903   0.842   6.387  10.908
17178W        W88904  27.233  39.278   4.161
17179W        W88905   7.177  29.444   4.029
17180W        W88906  22.138   4.750  10.480
17181W        W88907  21.792  39.525   2.239
17182W        W88908  29.747  37.397  13.442
17183W        W88909  29.105  43.823  14.643
17184W        W88910  21.680  31.075   0.138
17185W        W88911  16.583  22.779  12.925
17186W        W88912  27.208  12.408  13.453
17187W        W88913  24.966  10.589   2.688
17188W        W88914  19.228  37.397   0.316
17189W        W88915  14.101  28.710  14.265
17190W        W88916  37.671  33.618  12.889
17191W        W88917   1.435   3.460  12.148
17192W        W88918  15.105  14.695  12.941
17193W        W88919  15.304   4.907  11.939
17194W        W88920  42.765  17.566   0.992
17195W        W88921   4.374   3.407  14.800
17196W        W88922  16.791  18.774   2.918
17197W        W88923  32.166  22.026  11.439
17198W        W88924  28.466  16.214  10.666
17199W        W88925  22.651  14.367   3.700
17200W        W88926  39.864  12.569   4.132
17201W        W88927  18.552   3.469  13.094
17202W        W88928  39.506   9.647  14.801
17203W        W88929  31.093  25.126  10.351
17204W        W88930  40.502   7.979  10.575
17205W        W88931  12.026  44.490   3.392
17206W        W88932   1.307  37.089   3.885
17207W        W88933  13.580  42.978   0.766
17208W        W88934  24.286  16.811   4.128
17209W        W88935  34.022  11.701  14.376
17210W        W88936  27.362   3.863   4.919
17211W        W88937  26.191  26.478   0.901
17212W        W88938   5.979  41.525   3.569
17213W        W88939  21.391  29.357   1.430
17214W        W88940   4.830  44.946   4.014
17215W        W88941   4.098  13.890   0.915
17216W        W88942  36.063   4.470   1.880
17217W        W88943  12.198  12.619   2.093
17218W        W88944  42.448  43.903  11.930
17219W        W88945  24.889   6.884   3.128
17220W        W88946   3.234  11.246   0.579
17221W        W88947  43.989  13.181   4.883
17222W        W88948  19.262  30.237  14.884
17223W        W88949   5.009  16.795   3.772
17224W        W88950  15.125  31.487  11.852
17225W        W88951   2.668  13.092   3.633
17226W        W88952  44.127  41.274  14.127
17227W        W88953  20.558  36.054   0.228
17228W        W88954   7.803  41.627   0.021
17229W        W88955  34.806  31.946  14.531
17230W        W88956   7.262  32.361  13.183
17231W        W88957  36.818  26.980  14.926
17232W        W88958  18.841  34.843   4.171
17233W        W88959  29.567  35.567  12.530
17234W        W88960  39.135   7.749  13.842
17235W        W88961  22.726   4.927   2.741
17236W        W88962  34.063   2.312   0.211
17237W        W88963  12.849  11.628   2.632
17238W        W88964  23.123  38.389  13.759
17239W        W88965  28.562  44.036   2.183
17240W        W88966  26.243  41.332   1.962
17241W        W88967  16.793  27.526   2.400
17242W        W88968  15.788  15.298   2.378
17243W        W88969  39.718   7.999   2.378
17244W        W88970  36.355  25.850  13.826
17245W        W88971  33.017  10.152  10.086
17246W        W88972  37.917  13.404   3.092
17247W        W88973   3.295  12.685  13.473
17248W        W88974  35.625  20.150   4.576
17249W        W88975  35.114  29.092   4.863
17250W        W88976  39.077  34.230  13.077
17251W        W88977  12.367  44.572  12.846
17252W        W88978   4.177  31.860  14.683
17253W        W88979   8.212  19.099   0.830
17254W        W88980   7.371  43.232  13.135
17255W        W88981   1.940  39.360   3.671
17256W        W88982  38.343   5.289   3.886
17257W        W88983  42.746  44.426   1.251
17258W        W88984  36.652  36.386  14.335
17259W        W88985  28.357  44.251  14.280
17260W        W88986  41.526  39.883   4.060
17261W        W88987  10.003  28.210  14.436
17262W        W88988  10.776  16.569  12.901
17263W        W88989  29.902   5.750   2.872
17264W        W88990  35.377  30.555   0.325
17265W        W88991   6.691   3.532  10.698
17266W        W88992  31.207  33.001  13.309
17267W        W88993   9.742  13.533  13.466
17268W        W88994   3.202  34.289   0.549
17269W        W88995  38.528   5.994  12.515
17270W        W88996  31.070  42.998  12.383
17271W        W88997  33.942  43.795  12.435
17272W        W88998   4.854  33.092  13.758
17273W        W88999  36.357   7.425  12.094
17274W        W89000  39.425   6.358   2.584
17275W        W89001  23.775  38.517   0.855
17276W        W89002  11.646   1.476  13.384
17277W        W89003  25.419  12.152  13.143
17278W        W89004  32.888  43.677   2.665
17279W        W89005  41.856  44.092   1.162
17280W        W89006  37.860  43.962   0.809
17281W        W89007   9.405  30.517   1.837
17282W        W89008  12.457  16.151   2.428
17283W        W89009  10.607  18.196   2.854
17284W        W89010   8.438  28.174   2.647
17285W        W89011   7.296  33.600   1.141
17286W        W89012  42.512  18.696  13.380
17287W        W89013  15.634   1.893   1.305
17288W        W89014  21.725  13.294   1.344
17289W        W89015   0.922  11.301   2.431
17290W        W89016   5.468  24.920  11.224
17291W        W89017  10.328  41.536   3.154
17292W        W89018  14.060  39.870  10.584
17293W        W89019   8.840  26.970  11.195
17294W        W89020  26.010  25.536  13.775
17295W        W89021   5.837  31.532  14.625
17296W        W89022  16.709  18.068   4.119
17297W        W89023  25.152  21.025   0.519
17298W        W89024   0.982  12.275   2.342
17299W        W89025  10.458  29.990  12.388
17300W        W89026  44.851   2.042  11.132
17301W        W89027  35.031  13.606   2.475
17302W        W89028  10.629  24.423   2.893
17303W        W89029  30.264   9.057   2.376
17304W        W89030   8.317   0.295   2.250
17305W        W89031  17.310  27.265  12.915
17306W        W89032   6.162  18.368   0.663
17307W        W89033  22.782  35.871  14.400
17308W        W89034  15.660  20.783  10.926
17309W        W89035  15.383  36.323   4.317
17310W        W89036  16.263  40.420  13.991
17311W        W89037  11.981   8.343   2.898
17312W        W89038  41.106   1.794   0.540
17313W        W89039  28.912  19.613  12.343
17314W        W89040   3.546   5.306  13.362
17315W        W89041  38.059   3.033  11.464
17316W        W89042  31.338  33.613   5.157
17317W        W89043  35.006  26.223   0.739
17318W        W89044  17.967   7.977  12.093
17319W        W89045   9.005  35.659  12.901
17320W        W89046  31.706   6.909   2.168
17321W        W89047  10.722  10.760  14.447
17322W        W89048  30.910  25.831  14.858
17323W        W89049   0.508   3.192   5.041
17324W        W89050  39.711  24.374  13.153
17325W        W89051   2.094  31.169  12.103
17326W        W89052   0.943  12.120   4.784
17327W        W89053   0.787   0.175  11.303
17328W        W89054   5.285  25.091  13.641
17329W        W89055  37.284  10.952  14.692
17330W        W89056  15.499  16.801  14.909
17331W        W89057   3.475  29.960  12.923
17332W        W89058  36.883   9.213  14.517
17333W        W89059  12.185  28.992   2.840
17334W        W89060  41.292  10.270   3.792
17335W        W89061   9.827  29.115  13.916
17336W        W89062  24.559   9.328   1.945
17337W        W89063  36.602  11.426   3.511
17338W        W89064  32.880  30.516   2.044
17339W        W89065  44.404  20.924  10.401
17340W        W89066  31.190  24.398  11.922
17341W        W89067  35.272  24.084  11.096
17342W        W89068  43.222  42.884   0.512
17343W        W89069  23.596   9.242  10.634
17344W        W89070  31.752  40.918  10.708
17345W        W89071  21.566   8.707  10.779
17346W        W89072   0.701  44.756   1.432
17347W        W89073  13.780  43.416   2.272
17348W        W89074  21.137  23.702   0.745
17349W        W89075  32.831  27.191  11.491
17350W        W89076  35.581  16.577   3.151
17351W        W89077  29.382   1.738   1.643
17352W        W89078   1.240  42.471  11.356
17353W        W89079  24.516  41.240   4.115
17354W        W89080  43.856  22.052   3.353
17355W        W89081  39.603  24.585   4.420
17356W        W89082  30.997   0.808   3.558
17357W        W89083  33.203   9.867  13.506
17358W        W89084  10.206  38.008   4.346
17359W        W89085  26.129   3.247  14.857
17360W        W89086  39.395  21.685  12.990
17361W        W89087   4.158  14.778  14.782
17362W        W89088   2.880  27.193  11.078
17363W        W89089  40.547  29.888   2.173
17364W        W89090   3.260  19.082  13.202
17365W        W89091  17.104   5.120   1.760
17366W        W89092   9.530  28.128   4.202
17367W        W89093  39.460  21.534   4.458
17368W        W89094   3.427  33.411  12.430
17369W        W89095   1.959  31.237   3.782
17370W        W89096  34.426  42.262  10.680
17371W        W89097  29.466  27.070   0.950
17372W        W89098  36.825  22.069   2.834
17373W        W89099   6.411   1.860   2.005
17374W        W89100  36.950   0.478  13.955
17375W        W89101   2.390   4.349  10.713
17376W        W89102  20.325  14.253  10.501
17377W        W89103  29.390   4.917   0.404
17378W        W89104  23.280   8.302  14.552
17379W        W89105  31.674  15.383  10.641
17380W        W89106   7.181   0.779  12.988
17381W        W89107   0.017  10.474   4.246
17382W        W89108   2.777  17.876   4.494
17383W        W89109  37.740  10.754   2.279
17384W        W89110  39.054  19.586   4.565
17385W        W89111  30.613   7.560  14.809
17386W        W89112  28.785  44.299   3.389
17387W        W89113  30.526  25.468   0.582
17388W        W89114  34.964  38.620   2.305
17389W        W89115  25.654  31.280   2.582
17390W        W89116  19.032  13.609   0.828
17391W        W89117  44.213  21.141   3.170
17392W        W89118  22.214  40.297   3.846
17393W        W89119  44.881  23.480   3.207
17394W        W89120  38.394  14.823  12.606
17395W        W89121  32.433  29.805  11.920
17396W        W89122  23.095  24.980   2.845
17397W        W89123   8.058  12.434  13.614
17398W        W89124  23.672  24.505  12.471
17399W        W89125   1.342  12.906  12.955
17400W        W89126  11.736  26.629   4.117
17401W        W89127   8.345  17.634   0.039
17402W        W89128  17.020   5.923  13.473
17403W        W89129   1.245  17.856   1.273
17404W        W89130  34.085   0.221  13.066
17405W        W89131  42.882  28.133   0.408
17406W        W89132  14.725  13.551  12.483
17407W        W89133  19.766  11.041   0.173
17408W        W89134  13.396  25.186   0.454
17409W        W89135  32.750  27.982   4.195
17410W        W89136  23.134   5.231  13.319
17411W        W89137  14.372  28.930  13.865
17412W        W89138  24.070  23.192  13.403
17413W        W89139  34.010  35.034  11.326
17414W        W89140  38.387  40.239   0.797
17415W        W89141  38.960  18.324   4.212
17416W        W89142  29.903  39.378  13.948
17417W        W89143   9.275   4.957   0.978
17418W        W89144   0.767   2.512  13.545
17419W        W89145  31.526   6.500   3.784
17420W        W89146  41.813  31.080  13.855
17421W        W89147  11.039  17.033   4.836
17422W        W89148  32.555  40.609   0.921
17423W        W89149  14.403  41.863   4.204
17424W        W89150  18.031  42.236  14.842
17425W        W89151  23.105  30.973   3.177
17426W        W89152  24.692  15.375  11.164
17427W        W89153   4.474   4.350  10.506
17428W        W89154  34.044  30.645  12.050
17429W        W89155   1.872  43.291  11.503
17430W        W89156  35.413  10.883   4.220
17431W        W89157   9.398  11.902  11.073
17432W        W89158  13.639  28.527  11.431
17433W        W89159  24.014  25.270   4.144
17434W        W89160   1.777  17.306   4.613
17435W        W89161   8.890  22.133  11.089
17436W        W89162  30.426  11.831   3.186
17437W        W89163  22.138  40.544  13.657
17438W        W89164  43.177  29.899  11.875
17439W        W89165   3.239   3.245  10.414
17440W        W89166  10.636  21.339  14.397
17441W        W89167  42.276  32.370   3.655
17442W        W89168   0.707  11.139   4.689
17443W        W89169  42.667  20.624   3.186
17444W        W89170  10.114  17.364   3.264
17445W        W89171  28.698  38.953   2.605
17446W        W89172  27.504  41.972   3.420
17447W        W89173  41.666   3.366   4.979
17448W        W89174   5.937  12.818   4.656
17449W        W89175   3.798  20.656   1.503
17450W        W89176  14.026  36.020  14.412
17451W        W89177  11.220   6.857   4.339
17452W        W89178  21.584  44.748  14.955
17453W        W89179  35.221  15.623   2.655
17454W        W89180  13.306  25.410   4.144
17455W        W89181  33.996   4.422   4.127
17456W        W89182  24.815  10.900  13.896
17457W        W89183  13.252  34.910  14.435
17458W        W89184  23.212  15.216   5.007
17459W        W89185   3.130  37.565   0.380
17460W        W89186  17.448   6.896   3.391
17461W        W89187  15.379  31.703   2.181
17462W        W89188  18.160  25.644   2.136
17463W        W89189  11.366   9.927   4.153
17464W        W89190   1.903  28.162   0.597
17465W        W89191  20.030  14.246   3.905
17466W        W89192  20.956  15.880   3.847
17467W        W89193  19.484  41.078  12.108
17468W        W89194  21.561  20.739  10.371
17469W        W89195  22.122  14.701  12.866
17470W        W89196   2.954  23.993  13.409
17471W        W89197  15.138  21.976  13.145
17472W        W89198  30.180   2.713   4.241
17473W        W89199  30.584  30.043   3.911
17474W        W89200  42.466   1.430  14.525
17475W        W89201  38.023  36.402  11.164
17476W        W89202  25.860  20.108  12.337
17477W        W89203  38.471  30.094  11.207
17478W        W89204  36.466  38.150  14.356
17479W        W89205  18.834   2.333  11.113
17480W        W89206  32.224   4.296   1.047
17481W        W89207  13.604  16.589   2.811
17482W        W89208  31.906  29.738  11.153
17483W        W89209  42.990  34.797   0.687
17484W        W89210   2.571   3.672   3.744
17485W        W89211  40.007   3.281   1.017
17486W        W89212  16.966  10.120   1.659
17487W        W89213  29.970  35.560   4.209
17488W        W89214  21.094  28.464   4.192
17489W        W89215  40.535  41.500  10.667
17490W        W89216  27.690   6.272   1.718
17491W        W89217   2.054  31.118  14.791
17492W        W89218  22.191  29.986   3.831
17493W        W89219  22.611  10.581   5.172
17494W        W89220  10.161  36.424   2.225
17495W        W89221  40.734  37.046  11.390
17496W        W89222  44.089   5.348   4.915
17497W        W89223  18.767   7.943  11.007
17498W        W89224  34.441  18.164   4.233
17499W        W89225  20.317  31.446   0.475
17500W        W89226  32.611  23.690   0.470
17501W        W89227   1.715  30.920   1.321
17502W        W89228  35.073  23.037  10.718
17503W        W89229  32.968  11.577  14.415
17504W        W89230   0.013  12.169   1.468
17505W        W89231   7.989  26.712   3.757
17506W        W89232  18.739  19.222  11.917
17507W        W89233  10.907  28.166  14.499
17508W        W89234  41.105  31.474   0.905
17509W        W89235  16.620  40.576   2.179
17510W        W89236  30.466  22.008   2.606
17511W        W89237   4.210   6.639  14.276
17512W        W89238  20.474  13.342  14.320
17513W        W89239  37.532   0.302  12.609
17514W        W89240  19.330  11.281   0.967
17515W        W89241  27.097  24.058  13.448
17516W        W89242  26.838  12.629  12.140
17517W        W89243  14.238  43.845  13.886
17518W        W89244  29.399  22.549   1.178
17519W        W89245  26.127  14.233  10.690
17520W        W89246  20.101  38.741  14.471
17521W        W89247  20.216   4.926  11.159
17522W        W89248   8.564  14.053  11.998
17523W        W89249  32.836  20.435  12.168
17524W        W89250   2.881   0.400  14.500
17525W        W89251  14.826  29.688   4.851
17526W        W89252  23.602  41.528  10.994
17527W        W89253  42.848   0.381   3.309
17528W        W89254   1.046   5.752   0.205
17529W        W89255   2.265   9.104   0.703
17530W        W89256  22.548  23.823  10.536
17531W        W89257   6.942  17.133  14.507
17532W        W89258  42.943  20.278   0.241
17533W        W89259   3.380  29.829   4.630
17534W        W89260  10.054   3.439  10.728
17535W        W89261   9.177  35.671   2.764
17536W        W89262  21.208  28.886  13.033
17537W        W89263  44.525   5.833  13.942
17538W        W89264  16.100   0.013   1.307
17539W        W89265  17.147  35.356   2.744
17540W        W89266   4.820  23.267  11.143
17541W        W89267  22.884  30.156   3.425
17542W        W89268  18.417  30.444  14.374
17543W        W89269  35.700   1.331   2.847
17544W        W89270  14.344  33.521   2.130
17545W        W89271   8.177  17.727   1.461
17546W        W89272  41.066  42.359  11.035
17547W        W89273  40.711  35.868   4.327
17548W        W89274  21.473   8.164   0.808
17549W        W89275  13.866  42.930   0.305
17550W        W89276   8.970  42.918   1.478
17551W        W89277   5.807   1.327  13.922
17552W        W89278  20.695  15.204  13.825
17553W        W89279  35.617  27.612  13.143
17554W        W89280  44.763  12.841   0.020
17555W        W89281  22.645  22.790   4.895
17556W        W89282  26.421  18.217   3.753
17557W        W89283  28.017  18.177   2.772
17558W        W89284  19.117  27.652   4.319
17559W        W89285   1.484  25.156  12.396
17560W        W89286   3.032  40.969  13.958
17561W        W89287  28.933  28.882  13.371
17562W        W89288  22.466  12.140   3.734
17563W        W89289  29.250  41.307   0.752
17564W        W89290  23.494  25.466  10.586
17565W        W89291  32.062  11.769  11.045
17566W        W89292  11.538  29.402  13.364
17567W        W89293  42.329  25.530  14.027
17568W        W89294  14.119  43.963   4.182
17569W        W89295   3.327   1.816  13.811
17570W        W89296  27.418  22.985  13.938
17571W        W89297  42.746  43.903   1.270
17572W        W89298  39.570   4.962   1.196
17573W        W89299  44.297  21.516   4.603
17574W        W89300  23.122  26.195  11.128
17575W        W89301   2.269  20.620  14.831
17576W        W89302   4.083  41.670  10.420
17577W        W89303  34.309   6.365  11.593
17578W        W89304   5.513  25.035   0.750
17579W        W89305  41.865  39.296   1.949
17580W        W89306  36.393   9.818  11.606
17581W        W89307  21.820  41.454   5.037
17582W        W89308  35.308  15.626   4.062
17583W        W89309   3.857  12.384   0.900
17584W        W89310   4.783  12.444  10.581
17585W        W89311  22.887   1.546  10.360
17586W        W89312  20.634   0.973  11.688
17587W        W89313  31.369  32.696   1.648
17588W        W89314  23.101  20.749   2.164
17589W        W89315  27.061  25.585   4.212
17590W        W89316  17.510  17.178   3.276
17591W        W89317   6.416  13.924   1.092
17592W        W89318  21.673  17.784  14.188
17593W        W89319  24.109  34.068   3.393
17594W        W89320  30.174  39.552  14.915
17595W        W89321  27.102  33.848  11.646
17596W        W89322  19.279  25.635  14.946
17597W        W89323  15.327  33.313   2.804
17598W        W89324  15.019  11.773  14.782
17599W        W89325  12.277  33.955   2.662
17600W        W89326  34.319  28.621   1.482
17601W        W89327  44.872  42.328  14.031
17602W        W89328  35.994  30.656  11.637
17603W        W89329  35.752   6.245  12.625
17604W        W89330  14.400  19.041  10.605
17605W        W89331  40.335  12.719   4.625
17606W        W89332  25.608  21.528  14.902
17607W        W89333   7.427  43.859  10.642
17608W        W89334  10.709  30.873   0.942
17609W        W89335   7.457  11.147   4.170
17610W        W89336  29.966  43.281   3.302
17611W        W89337   3.260  14.521  11.358
17612W        W89338  16.743  20.335  11.035
17613W        W89339   2.762   2.993   4.532
17614W        W89340  22.627  19.566   0.473
17615W        W89341  15.547  35.870  11.141
17616W        W89342  18.522  31.606  14.082
17617W        W89343  15.031  29.140   2.924
17618W        W89344  27.407  39.822   3.633
17619W        W89345  27.592  21.619   0.506
17620W        W89346   1.867  41.910   4.524
17621W        W89347  32.581  13.246   2.217
17622W        W89348  34.439  21.260   0.879
17623W        W89349  10.714   6.346   3.138
17624W        W89350  12.113  32.499   1.340
17625W        W89351  41.105  42.319  11.945
17626W        W89352  20.293  33.820   4.859
17627W        W89353  42.968  32.996   0.848
17628W        W89354  18.789   2.206   0.323
17629W        W89355  43.216  40.888  12.041
17630W        W89356  22.814  29.407   3.552
17631W        W89357  13.859  16.768   2.382
17632W        W89358  14.213  14.453   4.096
17633W        W89359  33.661   8.645  11.153
17634W        W89360  38.647  22.626   1.778
17635W        W89361  38.396  13.563  10.621
17636W        W89362  25.405  43.529   1.276
17637W        W89363  34.528   4.940   4.642
17638W        W89364   2.763  44.292   4.562
17639W        W89365  19.044  12.635   3.559
17640W        W89366  41.037  14.843   3.706
17641W        W89367  12.507  21.628   3.267
17642W        W89368  32.122  29.254   1.811
17643W        W89369  43.800  20.009   1.295
17644W        W89370   4.457  41.439   3.841
17645W        W89371  43.365  21.858   1.957
17646W        W89372  33.436  32.386   4.132
17647W        W89373   3.422   0.997  11.265
17648W        W89374  12.896  41.076   0.393
17649W        W89375   5.039  18.551  14.217
17650W        W89376   3.190  24.523  13.288
17651W        W89377  40.653   6.225  11.655
17652W        W89378  26.694   5.866  13.407
17653W        W89379  25.060  23.135   1.176
17654W        W89380  35.523   9.165  14.357
17655W        W89381  22.250  25.583  11.646
17656W        W89382  32.818   2.426   4.590
17657W        W89383  35.459  34.554  13.099
17658W        W89384  34.340  36.166  11.157
17659W        W89385  13.193  15.689   1.869
17660W        W89386   0.919  28.133  13.938
17661W        W89387   2.906  24.261   1.897
17662W        W89388  33.340   3.871  11.163
17663W        W89389  14.872  30.009   2.637
17664W        W89390  20.822  12.257   0.993
17665W        W89391  10.728  14.619  13.832
17666W        W89392  22.617   3.509  10.267
17667W        W89393   7.674   1.303  13.416
17668W        W89394  28.120  36.946   2.648
17669W        W89395  30.904   5.963   0.307
17670W        W89396  35.387  44.324   2.089
17671W        W89397   7.824  35.057   2.236
17672W        W89398  36.641  30.866  11.048
17673W        W89399  22.217   4.221   2.216
17674W        W89400   7.926  15.877   1.341
17675W        W89401  17.735  33.650   1.161
17676W        W89402  34.669  29.003  11.144
17677W        W89403  22.159  24.672   3.381
17678W        W89404  15.061   6.035   3.478
17679W        W89405  26.197  41.282   1.367
17680W        W89406  41.067  24.208   4.126
17681W        W89407  15.618  17.352   4.365
17682W        W89408   2.743   4.242  11.186
17683W        W89409  25.186  35.889   4.871
17684W        W89410  40.803  11.252   0.909
17685W        W89411  21.847  37.538   3.138
17686W        W89412  23.601  30.633   0.436
17687W        W89413  40.932  26.730  11.056
17688W        W89414  37.491  31.672  14.455
17689W        W89415  16.213  24.967  14.321
17690W        W89416  26.711  39.972   1.770
17691W        W89417  22.949  24.629   5.006
17692W        W89418   1.477  29.062   4.853
17693W        W89419  31.061  14.726   2.675
17694W        W89420  23.790  40.339   0.349
17695W        W89421   5.137  35.961  12.610
17696W        W89422  24.214  18.594   3.581
17697W        W89423   6.459  11.774   3.859
17698W        W89424   3.161  20.550   4.848
17699W        W89425   0.860  26.601  13.033
17700W        W89426  41.751   7.022   1.214
17701W        W89427  25.550   7.989   4.649
17702W        W89428  28.971  39.671   0.149
17703W        W89429   8.457  16.206   2.347
17704W        W89430  34.975  29.531   5.210
17705W        W89431   0.496  26.984  12.965
17706W        W89432  43.271  26.686  14.700
17707W        W89433  14.089  20.075  14.054
17708W        W89434  27.110  42.196   2.807
17709W        W89435  22.769   9.627  11.083
17710W        W89436  27.412  42.150   1.831
17711W        W89437   4.504  14.288   3.029
17712W        W89438  11.408   0.787  14.489
17713W        W89439  19.641   8.670   4.612
17714W        W89440   4.762  22.706   0.889
17715W        W89441  26.950  34.415   3.553
17716W        W89442   5.245  14.360  13.745
17717W        W89443  30.041  28.945   3.308
17718W        W89444  21.951  11.993   4.455
17719W        W89445  20.875  17.265   1.707
17720W        W89446  16.533  26.034  14.044
17721W        W89447  15.577  29.382  12.388
17722W        W89448  29.055  22.528  11.947
17723W        W89449  11.104  24.587   4.488
17724W        W89450  20.085  40.071  10.742
17725W        W89451   8.670   3.836   0.978
17726W        W89452  13.156   1.037  13.632
17727W        W89453  24.435   2.755  11.815
17728W        W89454   3.323  36.063   4.573
17729W        W89455   6.778  43.377  11.592
17730W        W89456  33.445  27.204  11.131
17731W        W89457  10.923   6.681  10.732
17732W        W89458  31.868  10.250  13.494
17733W        W89459  25.141  19.278   0.759
17734W        W89460  24.638  42.307  13.015
17735W        W89461  37.992  11.182   2.934
17736W        W89462  21.918  37.151  12.308
17737W        W89463  26.398  11.780  14.902
17738W        W89464  32.474  33.905  12.976
17739W        W89465  33.113   8.135  14.262
17740W        W89466  15.610  22.441   3.247
17741W        W89467  38.930   5.855   3.358
17742W        W89468  43.054   9.547   0.887
17743W        W89469   2.824  12.199  14.972
17744W        W89470  14.219  30.869   4.985
17745W        W89471  32.002  18.289   4.572
17746W        W89472  17.677  12.798  13.181
17747W        W89473  32.444   8.932   3.731
17748W        W89474  12.928  23.083  11.418
17749W        W89475  32.456  41.920  14.892
17750W        W89476  25.157  12.858   3.721
17751W        W89477   3.771  12.564  10.275
17752W        W89478  15.360  23.418   4.630
17753W        W89479  38.282  27.180  11.454
17754W        W89480  22.313  29.586  13.248
17755W        W89481  25.130   6.179   5.078
17756W        W89482   9.654  15.656   1.275
17757W        W89483  15.492   8.287   3.733
17758W        W89484  27.067   8.403   2.263
17759W        W89485  26.511  32.951  12.093
17760W        W89486  37.289  14.738  14.309
17761W        W89487  20.697   5.756  14.257
17762W        W89488  21.159  34.828   3.849
17763W        W89489  27.205  18.270   9.820
17764W        W89490  13.661  41.056   0.799
17765W        W89491   3.793  31.318  14.673
17766W        W89492  22.186   8.710   0.822
17767W        W89493   8.903  38.295  14.287
17768W        W89494  17.310  17.529   3.644
17769W        W89495  41.097  22.993   4.232
17770W        W89496  12.383   7.129  14.897
17771W        W89497   8.261  30.549   3.232
17772W        W89498  27.851  39.128   0.826
17773W        W89499   9.248  25.959  10.233
17774W        W89500  15.778  25.004  13.569
17775W        W89501  17.561  21.846   3.910
17776W        W89502  38.767  10.366   3.818
17777W        W89503   1.444  26.242   4.582
17778W        W89504  18.455  21.607  12.072
17779W        W89505  35.830  41.187  13.998
17780W        W89506  28.659  16.927   0.845
17781W        W89507   8.697  32.612  14.397
17782W        W89508  32.568  44.474   4.810
17783W        W89509  28.486  21.007   4.640
17784W        W89510  42.467  34.870  13.477
17785W        W89511  35.360   1.808   1.190
17786W        W89512  36.814  35.414  14.318
17787W        W89513  36.895  15.980  13.441
17788W        W89514   5.255  16.621   9.665
17789W        W89515  15.587  23.195  14.561
17790W        W89516  19.408  15.396  10.681
17791W        W89517  22.822  25.047   0.659
17792W        W89518  31.456   5.824  13.791
17793W        W89519  34.956   9.650  11.210
17794W        W89520  30.506  32.469   0.578
17795W        W89521  40.870  23.304  11.553
17796W        W89522  41.072  10.434  12.479
17797W        W89523  16.608  24.385  12.444
17798W        W89524  40.543  21.136  14.528
17799W        W89525  30.146   7.181   3.280
17800W        W89526  12.904  17.092   3.332
17801W        W89527  43.428  37.548   3.196
17802W        W89528   4.854   3.006   4.546
17803W        W89529  20.638   5.243  12.995
17804W        W89530  29.161  13.613  14.965
17805W        W89531  22.997  22.782  12.468
17806W        W89532  16.221  18.299  11.979
17807W        W89533  18.527   6.172   2.684
17808W        W89534  39.431  28.505   4.161
17809W        W89535  14.569  35.160  12.487
17810W        W89536  44.536  21.101   4.342
17811W        W89537  29.276  30.114  11.526
17812W        W89538  10.066  18.952   3.796
17813W        W89539   3.171   0.553  11.148
17814W        W89540  20.075   1.265   1.728
17815W        W89541  18.284   7.772  14.366
17816W        W89542  30.635  34.029   0.416
17817W        W89543  41.255  44.932  12.859
17818W        W89544   2.319  18.531   1.473
17819W        W89545  32.176   0.734   5.372
17820W        W89546   8.018   1.536   2.682
17821W        W89547  41.357  32.901  13.053
17822W        W89548  25.690   3.508   0.026
17823W        W89549  29.123   0.462  14.964
17824W        W89550  25.674  39.214   0.381
17825W        W89551  26.645  38.507  11.854
17826W        W89552   2.145   6.440   2.783
17827W        W89553  27.154  19.016   1.864
17828W        W89554   1.340  10.243  14.810
17829W        W89555  30.434  32.310   4.308
17830W        W89556  31.870  41.766   4.221
17831W        W89557  32.549   7.965  13.552
17832W        W89558   2.422  40.367  14.195
17833W        W89559  24.268  24.058  10.679
17834W        W89560  28.695  30.480  10.795
17835W        W89561   4.329  43.953   4.286
17836W        W89562  28.576   7.794  13.737
17837W        W89563  13.989  33.202   3.065
17838W        W89564   2.559  38.919   1.365
17839W        W89565  31.744  44.837  13.766
17840W        W89566   8.061  23.236  13.023
17841W        W89567  22.913  14.662   4.083
17842W        W89568  29.122   7.406   1.335
17843W        W89569  35.882  21.010  11.189
17844W        W89570  27.165  30.645  13.715
17845W        W89571  24.663  32.997   4.891
17846W        W89572  34.519  43.309   0.800
17847W        W89573  40.623  37.521  12.065
17848W        W89574   9.982   9.445  11.998
17849W        W89575  42.927  33.119   3.722
17850W        W89576  25.453  22.648  10.547
17851W        W89577  35.366  10.211  11.633
17852W        W89578   2.643  13.585  14.011
17853W        W89579  39.627  37.550  14.321
17854W        W89580  26.947  22.622  13.153
17855W        W89581  38.493  44.410   3.831
17856W        W89582  26.481  42.872   3.272
17857W        W89583  19.954   9.793  10.566
17858W        W89584  35.579  23.892   3.118
17859W        W89585   8.400  10.608   4.238
17860W        W89586  11.994  27.761  13.030
17861W        W89587  43.536  11.843   2.449
17862W        W89588  16.498  13.675   2.445
17863W        W89589  26.305  21.017   4.565
17864W        W89590  36.524  37.580  14.948
17865W        W89591  19.749  16.332   3.111
17866W        W89592  35.021  23.540   4.108
17867W        W89593  17.233   7.684   4.300
17868W        W89594   5.954   2.248   2.710
17869W        W89595  21.631   0.307  13.375
17870W        W89596   9.256  36.387  11.135
17871W        W89597   4.403  31.668   0.899
17872W        W89598  12.431  12.541  13.991
17873W        W89599  18.048  37.854  14.138
17874W        W89600  38.562   9.310  12.526
17875W        W89601  31.265  23.145   2.391
17876W        W89602  27.017   7.402  13.805
17877W        W89603   6.150  34.875  10.281
17878W        W89604  43.701   5.342   1.501
17879W        W89605  22.611   9.503  13.824
17880W        W89606   2.274  43.794  14.965
17881W        W89607  37.418  37.399  11.418
17882W        W89608  28.248  15.985   3.870
17883W        W89609  27.720  17.804  11.951
17884W        W89610  23.726  24.997  10.535
17885W        W89611  36.077   7.822   0.075
17886W        W89612  42.751  14.538   1.315
17887W        W89613  29.236   4.515  12.957
17888W        W89614  42.593  42.265   3.422
17889W        W89615  37.408  10.353   2.356
17890W        W89616  40.976  35.573  14.329
17891W        W89617  38.794  27.574   1.682
17892W        W89618  33.650  15.238   2.318
17893W        W89619  15.612  36.862   3.025
17894W        W89620   4.662  20.571   1.415
17895W        W89621  29.254  41.295   4.042
17896W        W89622  35.499  23.258   1.919
17897W        W89623  19.449  17.243   3.646
17898W        W89624  24.001  27.251  14.335
17899W        W89625   0.306   7.710   1.084
17900W        W89626  27.438  40.921  10.592
17901W        W89627  33.833  43.812  12.947
17902W        W89628  28.606  35.814   0.109
17903W        W89629   9.763  21.513   3.299
17904W        W89630  11.274  36.597  14.051
17905W        W89631  23.984  21.105   2.367
17906W        W89632  10.602  18.705   1.642
17907W        W89633  41.981  15.210   3.600
17908W        W89634  33.436  36.957  14.328
17909W        W89635   5.326  27.133   1.190
17910W        W89636   8.093  19.522   2.490
17911W        W89637   5.754   0.027  14.353
17912W        W89638  15.250  37.229  12.455
17913W        W89639  27.567   9.115   1.369
17914W        W89640  10.230  26.626  12.071
17915W        W89641  28.478  26.205   2.434
17916W        W89642  20.559  44.790  12.540
17917W        W89643  30.108  35.564  13.800
17918W        W89644  29.823   2.934  12.994
17919W        W89645   3.725  41.015   0.689
17920W        W89646  12.194  26.080   2.722
17921W        W89647  30.907   2.276   4.503
17922W        W89648  33.086  23.217   4.336
17923W        W89649  43.894  26.641   5.014
17924W        W89650  14.102   7.422  14.376
17925W        W89651  40.471  40.420  10.769
17926W        W89652  11.172  13.190  11.172
17927W        W89653  32.015  34.028   2.737
17928W        W89654  24.450  15.644   2.762
17929W        W89655  33.903  25.884   1.300
17930W        W89656  12.905  39.469   2.727
17931W        W89657  18.732  10.709  12.880
17932W        W89658  27.844  10.466   5.082
17933W        W89659  20.114  33.856   1.924
17934W        W89660  10.383  43.384   4.536
17935W        W89661  44.747   2.030  14.314
17936W        W89662  19.024  30.633   4.281
17937W        W89663  21.027  10.375  11.622
17938W        W89664  28.908  21.105   1.030
17939W        W89665   6.346   1.542   0.335
17940W        W89666  28.175  27.986  14.472
17941W        W89667  36.051  37.270  14.993
17942W        W89668  44.750  25.465   0.901
17943W        W89669  28.543   9.378   2.496
17944W        W89670   9.834   7.596  13.436
17945W        W89671  22.461  40.049  14.912
17946W        W89672   9.641  12.696  14.213
17947W        W89673  19.709  25.422  11.564
17948W        W89674  35.630  34.893   0.769
17949W        W89675  29.940  27.546   3.429
17950W        W89676  34.418  15.248   2.814
17951W        W89677  10.216  21.008  10.053
17952W        W89678  32.099  19.475   0.809
17953W        W89679  12.111  42.914   3.771
17954W        W89680  23.038   7.186   3.789
17955W        W89681  22.872  15.468  11.954
17956W        W89682  20.068  34.916   1.891
17957W        W89683  37.875   6.362   1.803
17958W        W89684  16.170   8.479   0.923
17959W        W89685  12.866  38.738   4.013
17960W        W89686  24.501   2.181  14.903
17961W        W89687  42.275  32.953   0.810
17962W        W89688  17.579  38.551   3.693
17963W        W89689  25.787   2.475  12.082
17964W        W89690  30.231  38.022  12.529
17965W        W89691  13.723   2.219   4.086
17966W        W89692  21.932  34.877  14.118
17967W        W89693  43.997  27.042   2.716
17968W        W89694  20.807  41.565  11.755
17969W        W89695  36.295   9.629   1.753
17970W        W89696  22.345  35.304  14.832
17971W        W89697  10.164  18.932  11.141
17972W        W89698  43.893  24.607   2.096
17973W        W89699  11.158   3.352   2.225
17974W        W89700   3.262  13.447  14.214
17975W        W89701  29.285  19.760  11.501
17976W        W89702  40.388  13.353   3.408
17977W        W89703  33.396  11.292   1.769
17978W        W89704  19.790   0.735  13.911
17979W        W89705  43.816  23.098  12.157
17980W        W89706   3.213  22.167  10.748
17981W        W89707  28.116  35.919  13.310
17982W        W89708  36.092  30.128  12.343
17983W        W89709  39.288  31.895   4.149
17984W        W89710  15.776   4.914   5.108
17985W        W89711  28.345  32.050  10.704
17986W        W89712  25.411  22.197  14.951
17987W        W89713  21.148  17.681   1.921
17988W        W89714   3.422   2.233   2.772
17989W        W89715   8.739  37.794  12.338
17990W        W89716  40.439   8.834  14.537
17991W        W89717  24.374   7.375   1.760
17992W        W89718  12.708  41.913   0.071
17993W        W89719   6.543  39.354  12.085
17994W        W89720  18.361  37.864  13.283
17995W        W89721   0.907  16.825   1.989
17996W        W89722   5.113  42.043  13.540
17997W        W89723  12.282  10.687  13.305
17998W        W89724   0.886   5.321  12.390
17999W        W89725   2.727  18.189   1.489
18000W        W89726  18.076  19.574   2.775
18001W        W89727  34.377  11.131   2.570
18002W        W89728   3.820  13.433   0.253
18003W        W89729   0.576   6.434   0.975
18004W        W89730  12.606   1.768   1.790
18005W        W89731  26.662  16.582   3.043
18006W        W89732  39.798  27.526   3.910
18007W        W89733   7.886   0.506  10.689
18008W        W89734   3.277   7.688   4.082
18009W        W89735  38.860  37.058   4.537
18010W        W89736   6.198  20.916   1.942
18011W        W89737  31.572  10.259  13.942
18012W        W89738  42.028  27.390  14.879
18013W        W89739  12.755  33.179   2.724
18014W        W89740   5.416  42.093   1.274
18015W        W89741  27.212  27.128   2.296
18016W        W89742  41.489  27.962   3.315
18017W        W89743  31.301  30.119   2.162
18018W        W89744  25.004   2.294   2.274
18019W        W89745  15.021  43.024   3.660
18020W        W89746  31.882  20.195  12.882
18021W        W89747   6.094  37.112  12.453
18022W        W89748  15.044  16.463   3.696
18023W        W89749  26.879  15.862  10.242
18024W        W89750  18.137  16.741   1.729
18025W        W89751  34.880  24.554   3.938
18026W        W89752   4.694  37.474   0.702
18027W        W89753  17.604   3.193  12.573
18028W        W89754  34.807  22.536  13.029
18029W        W89755  29.536  27.179  11.377
18030W        W89756  28.169  36.428   1.307
18031W        W89757  22.742  14.735   0.924
18032W        W89758  26.384   8.227   2.711
18033W        W89759  36.577  23.592   0.323
18034W        W89760  25.740  39.768  10.906
18035W        W89761  14.790  16.338   2.192
18036W        W89762  34.346  26.548   4.695
18037W        W89763  38.045  28.138  12.357
18038W        W89764  38.438  25.807   4.617
18039W        W89765  18.760   5.378  13.293
18040W        W89766  40.528  15.824   0.762
18041W        W89767  27.648  32.391  12.350
18042W        W89768   9.922  16.077   1.430
18043W        W89769  28.679   8.782  10.981
18044W        W89770   9.953  10.864  12.132
18045W        W89771  44.026  26.106   3.784
18046W        W89772  38.849  21.174   0.012
18047W        W89773  18.473   3.390   3.709
18048W        W89774  41.989  36.977   2.836
18049W        W89775  30.666  15.852  11.744
18050W        W89776  42.496  31.839   2.794
18051W        W89777  14.460  13.322   2.246
18052W        W89778   4.961  31.349  14.269
18053W        W89779   3.517  12.111   2.192
18054W        W89780   4.895   5.682   3.173
18055W        W89781  26.453  15.267  12.010
18056W        W89782  39.852  32.589   1.333
18057W        W89783  36.054  29.445  13.957
18058W        W89784  39.883  26.472  12.898
18059W        W89785   1.420  17.171  13.129
18060W        W89786  37.627  34.658   2.383
18061W        W89787  10.819  28.073   9.917
18062W        W89788   0.997  28.472   0.901
18063W        W89789  16.296  32.576   4.108
18064W        W89790   0.373  37.457   4.377
18065W        W89791  29.501  14.598   3.749
18066W        W89792   8.690  23.368   0.230
18067W        W89793  24.257  19.054  11.292
18068W        W89794  44.426  36.630  11.841
18069W        W89795   1.188  36.847  12.422
18070W        W89796  10.867  42.438  12.717
18071W        W89797  10.648  19.764  10.775
18072W        W89798  29.212  32.528  10.737
18073W        W89799  18.598  14.152  13.924
18074W        W89800  36.320  32.038  10.293
18075W        W89801  20.695  33.784  11.084
18076W        W89802  42.904  17.735   1.983
18077W        W89803  20.212   9.752   3.277
18078W        W89804   6.448  32.479  11.524
18079W        W89805   4.678  13.356  12.247
18080W        W89806  13.257  10.808   3.751
18081W        W89807  27.485  43.562  14.868
18082W        W89808   4.727   6.590  12.768
18083W        W89809  43.574  13.572   3.652
18084W        W89810   2.361   1.735   0.083
18085W        W89811   8.572   1.475  12.298
18086W        W89812   8.192  44.724  12.517
18087W        W89813   4.837  30.597   3.436
18088W        W89814  10.970   3.309   0.808
18089W        W89815  23.437   5.844  14.970
18090W        W89816   1.921  31.893   4.573
18091W        W89817   7.581   0.014   0.707
18092W        W89818  14.157  32.994  10.448
18093W        W89819  15.844  13.090   2.280
18094W        W89820  23.502  40.059   3.509
18095W        W89821  38.061  26.118  11.140
18096W        W89822   2.161  18.563  12.124
18097W        W89823  15.183   6.045  13.917
18098W        W89824  19.447  32.574   0.555
18099W        W89825  35.814  42.522  14.851
18100W        W89826  29.485  31.628  12.627
18101W        W89827  40.360  42.038  11.510
18102W        W89828  44.780  33.522  12.042
18103W        W89829   5.721   3.454   4.719
18104W        W89830   3.895  32.150  11.159
18105W        W89831  11.883  44.858   0.327
18106W        W89832  26.539   5.699   0.608
18107W        W89833  26.825  26.372  12.008
18108W        W89834  18.127  32.423   3.660
18109W        W89835   8.560   7.257  14.087
18110W        W89836   8.735   8.184  12.382
18111W        W89837  24.015  26.790  14.923
18112W        W89838  34.299  42.923   9.561
18113W        W89839  35.772  42.661   3.611
18114W        W89840  37.094   7.869  14.958
18115W        W89841  25.208  39.266   3.212
18116W        W89842  42.968   2.006  12.012
18117W        W89843   5.462  38.786  14.290
18118W        W89844  25.206  28.524  13.803
18119W        W89845  36.924  23.997   0.921
18120W        W89846  42.160  41.499   2.442
18121W        W89847  39.665  12.750   1.446
18122W        W89848  22.551  26.154  12.344
18123W        W89849  25.903   6.144  13.967
18124W        W89850  26.176  20.814   3.078
18125W        W89851   5.602   4.902  14.402
18126W        W89852   5.051  38.518   0.492
18127W        W89853  19.471  17.565  13.338
18128W        W89854   8.390  42.791   4.113
18129W        W89855  22.153  33.626  10.853
18130W        W89856  17.047   9.810  11.006
18131W        W89857  11.428  34.835  11.432
18132W        W89858   8.428  12.045   2.585
18133W        W89859  21.811   0.986  11.170
18134W        W89860  21.770   0.426   3.859
18135W        W89861  37.988  34.553   0.355
18136W        W89862   3.254  36.452  14.574
18137W        W89863  32.034   2.855   1.722
18138W        W89864   0.224  44.733  11.927
18139W        W89865  23.462  16.700  11.098
18140W        W89866  26.000   6.768  12.614
18141W        W89867  42.865  11.412   1.366
18142W        W89868  43.446   1.214  13.539
18143W        W89869  21.718   3.552  12.369
18144W        W89870  27.448  31.610   3.653
18145W        W89871  12.284  17.654   4.237
18146W        W89872  19.711  32.333   1.862
18147W        W89873  15.230  19.295   3.899
18148W        W89874  36.470  28.819  11.555
18149W        W89875  25.027   2.912  13.892
18150W        W89876  44.812  22.821   1.249
18151W        W89877  22.937   9.245   0.735
18152W        W89878  22.009   7.321   0.005
18153W        W89879   8.165  27.020  14.848
18154W        W89880  35.605  15.225  13.483
18155W        W89881  40.208  44.279  10.741
18156W        W89882  15.682  21.199   5.069
18157W        W89883   2.889  19.991  12.051
18158W        W89884  18.003  16.596   2.613
18159W        W89885  39.966  29.145   1.329
18160W        W89886  44.362   9.982  12.425
18161W        W89887  32.416  32.038   2.193
18162W        W89888  41.406  27.447   4.979
18163W        W89889  39.435  37.897  11.504
18164W        W89890  21.121  38.065  10.992
18165W        W89891  33.281  41.049   3.260
18166W        W89892   7.727  29.872  10.225
18167W        W89893  37.607  28.052   1.329
18168W        W89894  18.487  13.369   1.296
18169W        W89895  17.818  38.762   0.345
18170W        W89896   6.203  33.550  13.150
18171W        W89897  15.853   8.847   2.747
18172W        W89898  13.607  25.650   0.277
18173W        W89899  42.858  19.202   0.323
18174W        W89900  44.456  35.517  12.348
18175W        W89901   0.268  29.512  12.599
18176W        W89902  35.568  13.542   3.280
18177W        W89903  25.014  37.373  13.933
18178W        W89904  36.875  17.319  14.208
18179W        W89905   3.206  26.557  11.558
18180W        W89906  22.183  34.083   1.395
18181W        W89907  36.754  34.572  13.472
18182W        W89908  13.756  34.367  12.897
18183W        W89909  14.619  30.787  13.051
18184W        W89910  17.374   5.688   3.325
18185W        W89911  39.278  22.516   4.094
18186W        W89912   2.806  22.312   3.305
18187W        W89913  27.367  28.925  13.252
18188W        W89914   5.432  12.003   4.544
18189W        W89915   7.682  29.411   4.278
18190W        W89916  20.967  40.736  12.854
18191W        W89917  23.144   7.435  14.325
18192W        W89918  15.722  12.624   3.156
18193W        W89919  23.884  43.676   2.684
18194W        W89920  39.008  30.403  12.946
18195W        W89921  12.565  28.737   0.375
18196W        W89922  24.011  31.386   0.748
18197W        W89923  24.172  15.186   1.654
18198W        W89924  43.756  23.047   2.710
18199W        W89925  25.465   6.313   1.336
18200W        W89926  11.801  15.813   3.799
18201W        W89927  19.162  23.557   0.850
18202W        W89928  19.270   3.795  14.221
18203W        W89929  11.735  35.031   5.028
18204W        W89930  32.126  28.988   4.317
18205W        W89931  34.508   1.992  11.438
18206W        W89932  38.715  23.747  14.067
18207W        W89933  43.964  38.466   3.976
18208W        W89934  27.684  13.685   4.132
18209W        W89935  38.463  24.109   0.977
18210W        W89936  43.845  30.638  13.310
18211W        W89937  25.139  19.719   4.563
18212W        W89938  25.371  19.112   2.558
18213W        W89939  29.187  36.083   2.813
18214W        W89940  31.884   9.122   2.749
18215W        W89941   3.511  18.687   2.591
18216W        W89942   3.368  40.991   4.115
18217W        W89943  24.948   6.032  14.734
18218W        W89944  22.745  11.385  13.441
18219W        W89945  41.255  11.842   2.537
18220W        W89946  42.062   2.278  12.075
18221W        W89947   6.437  13.604  13.878
18222W        W89948   6.721  44.414   0.585
18223W        W89949  40.994  13.351   1.539
18224W        W89950  18.093   0.310  13.190
18225W        W89951  35.553  21.474  12.009
18226W        W89952  17.290   0.243  14.799
18227W        W89953  30.716  31.863   4.054
18228W        W89954  24.889   1.739   1.815
18229W        W89955  38.370  27.483  12.933
18230W        W89956  21.945   9.180   3.664
18231W        W89957  43.973  37.790  11.162
18232W        W89958   1.443  38.375   3.588
18233W        W89959  34.344  11.099  13.951
18234W        W89960   1.497  40.858  12.714
18235W        W89961  36.768  14.764  11.954
18236W        W89962  14.832  10.809   0.482
18237W        W89963  33.667  19.204   4.554
18238W        W89964  17.235  36.904  10.590
18239W        W89965  25.690  40.981   2.608
18240W        W89966  40.927  44.803  12.476
18241W        W89967  38.983   6.149   2.351
18242W        W89968  16.674  35.634  12.021
18243W        W89969  24.973  43.294  12.971
18244W        W89970  31.835  10.601   4.827
18245W        W89971  29.022   7.728   0.874
18246W        W89972   3.649  27.407  10.648
18247W        W89973  20.094  29.011   3.272
18248W        W89974  18.057  11.110   3.382
18249W        W89975   2.859  42.109  12.929
18250W        W89976  44.039  42.302  10.648
18251W        W89977   6.116  11.172   1.227
18252W        W89978  14.534   6.758   3.955
18253W        W89979  27.560  38.042   2.916
18254W        W89980  21.294  22.787   1.783
18255W        W89981  30.529  14.900  11.424
18256W        W89982   6.250  13.520  11.596
18257W        W89983   8.672  38.478   2.875
18258W        W89984   9.227   8.142   1.326
18259W        W89985  23.779  36.099   4.457
18260W        W89986  30.318   4.334  14.950
18261W        W89987  30.817  31.119   1.841
18262W        W89988  33.725  25.995  13.359
18263W        W89989   3.925  12.105   1.682
18264W        W89990  19.005  43.574  14.448
18265W        W89991  28.932  16.804  14.317
18266W        W89992   8.384  38.421   4.869
18267W        W89993  19.690  11.535  14.995
18268W        W89994  27.512  33.433  12.394
18269W        W89995   4.831  17.111  10.212
18270W        W89996  44.965  17.260  13.165
18271W        W89997  24.669  17.633   2.705
18272W        W89998  32.632  20.815  13.807
18273W        W89999  21.097  43.040   0.358
18274W        W90000  31.526  19.605   1.527
18275W        W90001   3.318   2.406  12.974
18276W        W90002   9.636  31.010  14.441
18277W        W90003  37.849  43.435   2.275
18278W        W90004   2.987  20.947  12.448
18279W        W90005  23.447   0.374  11.083
18280W        W90006   0.072   4.492  11.191
18281W        W90007   9.229  18.670   1.491
18282W        W90008   0.511  18.506  13.965
18283W        W90009  18.271  29.563   1.418
18284W        W90010  13.746  37.938  14.268
18285W        W90011  26.996  27.659  13.133
18286W        W90012   5.838  31.858   3.901
18287W        W90013   5.732   6.290   2.399
18288W        W90014  39.210   4.931  11.087
18289W        W90015  39.421   7.102   3.281
18290W        W90016  25.039  28.071   0.200
18291W        W90017  15.112  33.475  13.446
18292W        W90018  25.216  20.696  11.126
18293W        W90019  18.500  20.015   0.326
18294W        W90020   9.969  19.977  11.694
18295W        W90021  44.960  20.842   4.538
18296W        W90022  23.657  25.714  11.004
18297W        W90023  26.169   0.201  13.532
18298W        W90024  27.820  29.029   2.795
18299W        W90025   3.950  44.364  11.317
18300W        W90026  23.566  29.310  13.648
18301W        W90027  38.549  28.441   1.801
18302W        W90028   6.778  22.500   1.431
18303W        W90029  29.126   8.151  10.699
18304W        W90030  25.031  30.311   3.394
18305W        W90031  41.211  13.273  14.843
18306W        W90032  43.600  14.149   2.337
18307W        W90033   7.381   4.334   1.695
18308W        W90034  36.559  32.055   2.719
18309W        W90035   5.227  27.373   4.517
18310W        W90036  15.290  41.015   1.658
18311W        W90037   3.484   7.662  12.063
18312W        W90038  14.258   8.113   3.307
18313W        W90039   1.314   7.312  11.579
18314W        W90040  38.588  44.743   4.230
18315W        W90041  43.205  22.628   0.412
18316W        W90042  20.106  16.970   2.606
18317W        W90043  27.981  34.878  11.458
18318W        W90044  44.567  42.601  11.249
18319W        W90045  15.311  44.656   0.484
18320W        W90046  28.207  17.169   0.858
18321W        W90047  33.479  40.705   4.714
18322W        W90048  31.956  42.271   1.003
18323W        W90049  33.450  34.898   1.781
18324W        W90050   4.835  44.807  10.781
18325W        W90051   3.010   3.970   4.631
18326W        W90052  13.096  18.076   4.304
18327W        W90053  29.413   1.821   3.127
18328W        W90054  16.685  31.410   0.390
18329W        W90055  14.011   5.238   4.168
18330W        W90056  34.843  37.907   1.334
18331W        W90057  24.022  13.267  12.356
18332W        W90058  41.037  17.137  14.427
18333W        W90059  42.993  33.993  14.008
18334W        W90060  18.722  31.413   0.050
18335W        W90061  33.907  37.854  10.950
18336W        W90062  28.548   4.984   3.135
18337W        W90063  13.131   1.837   1.731
18338W        W90064  13.686   3.814  11.157
18339W        W90065  34.868  14.211  14.231
18340W        W90066  17.260  12.290  14.744
18341W        W90067   0.867  38.581  13.996
18342W        W90068   0.177  16.813  13.854
18343W        W90069  37.874  42.932  13.540
18344W        W90070  15.796  27.857   1.520
18345W        W90071  44.182   4.759  14.336
18346W        W90072  14.840  16.530   0.462
18347W        W90073  42.318  14.694   2.512
18348W        W90074  27.433  14.109   2.665
18349W        W90075  41.504  26.193   4.148
18350W        W90076  18.739   9.228  14.924
18351W        W90077  42.105  26.900  11.939
18352W        W90078  41.611  11.640  14.397
18353W        W90079  27.306  43.842  10.211
18354W        W90080  18.965  16.347   0.039
18355W        W90081  32.397   8.820   1.746
18356W        W90082  37.872   8.787   2.898
18357W        W90083  35.034  35.114   3.605
18358W        W90084   9.233  41.063  13.468
18359W        W90085  24.413  16.725  12.567
18360W        W90086  34.541  19.365   0.201
18361W        W90087  20.268  33.571   1.463
18362W        W90088  19.762  40.796  12.432
18363W        W90089  36.418  26.548   3.154
18364W        W90090  26.908  13.370  12.612
18365W        W90091   0.945  26.815  11.248
18366W        W90092  43.394  18.994   3.197
18367W        W90093  16.722  43.303  10.447
18368W        W90094  10.247   8.904   1.347
18369W        W90095   8.339  19.607  14.085
18370W        W90096  25.246  11.978   0.833
18371W        W90097  15.708  16.214  11.733
18372W        W90098  17.113  31.805   4.157
18373W        W90099   7.976  43.755  13.393
18374W        W90100  12.909  14.504   4.029
18375W        W90101  25.982  43.037   3.335
18376W        W90102  13.665  31.378   2.160
18377W        W90103   5.807  13.691  12.840
18378W        W90104   2.314  18.773   0.466
18379W        W90105  18.595   1.074   4.073
18380W        W90106   6.036   3.348   1.452
18381W        W90107   2.081  28.663  12.845
18382W        W90108  12.789  25.247  13.297
18383W        W90109   1.940  31.367  11.386
18384W        W90110  42.040  16.361  13.019
18385W        W90111  13.679  29.994   1.908
18386W        W90112  32.195  33.153   0.728
18387W        W90113  41.087   7.798  11.360
18388W        W90114  34.424  34.401   4.445
18389W        W90115   5.236  25.104   0.313
18390W        W90116  31.421   7.385  14.429
18391W        W90117  14.338  17.021  10.560
18392W        W90118  19.149  28.422  11.287
18393W        W90119  17.332   8.666   3.503
18394W        W90120   9.622  23.814  12.369
18395W        W90121  25.009  11.373   3.149
18396W        W90122   3.932   0.736   4.596
18397W        W90123  11.868   3.561  10.343
18398W        W90124  34.354  38.591  13.852
18399W        W90125  14.722  31.777  10.500
18400W        W90126   6.866  35.082  11.794
18401W        W90127  36.518   6.256   2.075
18402W        W90128   3.909  30.856  13.213
18403W        W90129   6.946  41.932   4.548
18404W        W90130  33.595  14.646   2.780
18405W        W90131  44.002  39.098   2.601
18406W        W90132  16.824  33.071   2.192
18407W        W90133  41.127   8.720   2.602
18408W        W90134  30.071  10.921   2.267
18409W        W90135  30.979   1.833   2.798
18410W        W90136   6.204  22.042  10.696
18411W        W90137   8.079  23.214  10.288
18412W        W90138  12.152   3.306  10.749
18413W        W90139  44.898  12.632   0.501
18414W        W90140   0.676  15.177  14.093
18415W        W90141  18.628   3.478  13.995
18416W        W90142  24.917   5.092   3.627
18417W        W90143  34.720  15.176   2.388
18418W        W90144   3.225  38.110   0.384
18419W        W90145  11.726  29.667  11.937
18420W        W90146  10.380  27.935   4.691
18421W        W90147   1.262  35.075   1.706
18422W        W90148   0.276  28.726   3.556
18423W        W90149  40.990  18.028  11.985
18424W        W90150  34.711   8.828   0.419
18425W        W90151  40.972  32.586  13.809
18426W        W90152  26.755   7.192   1.718
18427W        W90153  26.683   0.821  12.926
18428W        W90154  44.531  40.007   1.009
18429W        W90155  12.142  29.181   0.444
18430W        W90156  25.630  41.989   3.890
18431W        W90157   3.785  44.222   1.177
18432W        W90158  43.397   3.821  13.982
18433W        W90159  13.199  19.708   1.305
18434W        W90160  39.038  22.779  13.446
18435W        W90161  13.158  38.269   0.381
18436W        W90162  18.538  44.963   0.332
18437W        W90163  33.693  33.030   2.757
18438W        W90164   2.281   2.573   3.125
18439W        W90165  22.556  33.341  14.381
18440W        W90166  16.518  26.214   2.276
18441W        W90167  20.668   5.526   4.103
18442W        W90168  40.331  40.803   4.707
18443W        W90169   1.371  40.355   3.815
18444W        W90170   4.519   0.857   0.148
18445W        W90171  19.775  23.650   0.712
18446W        W90172  39.933  16.658  13.696
18447W        W90173  15.296  32.039  14.742
18448W        W90174  23.609   6.794  14.231
18449W        W90175  30.581  22.744   4.790
18450W        W90176  36.018   7.240  13.809
18451W        W90177   5.205   2.243   2.297
18452W        W90178   6.648  17.229  13.116
18453W        W90179  24.172  34.890  13.520
18454W        W90180  29.003  27.700   0.244
18455W        W90181  42.440  24.770   4.214
18456W        W90182  21.974  42.291  14.911
18457W        W90183  13.844   8.411   2.339
18458W        W90184   6.237  33.332  14.980
18459W        W90185  25.234  33.469  14.937
18460W        W90186  38.534  39.048  10.787
18461W        W90187  10.197  34.680  14.867
18462W        W90188  22.525  17.533   2.879
18463W        W90189  41.032  34.622  11.941
18464W        W90190  33.575  27.693   3.305
18465W        W90191  31.982   8.582   2.621
18466W        W90192   3.147  26.292   2.757
18467W        W90193   3.372  32.827   3.539
18468W        W90194   3.657   9.142  14.484
18469W        W90195  44.432  38.267   4.071
18470W        W90196  40.331  38.946   1.723
18471W        W90197  17.574  11.336   1.458
18472W        W90198  28.339  28.491   3.273
18473W        W90199  42.353  42.611   0.466
18474W        W90200  33.915   9.719   3.490
18475W        W90201   2.451  20.462  14.353
18476W        W90202  28.838  25.662  11.661
18477W        W90203  20.656  32.927  11.465
18478W        W90204   6.871   2.484  13.328
18479W        W90205  36.958  27.720   3.709
18480W        W90206  41.616   9.301  12.559
18481W        W90207  43.091  29.013  11.473
18482W        W90208   0.346  21.984  11.352
18483W        W90209  32.943  43.785  14.878
18484W        W90210  30.483  28.455  12.527
18485W        W90211  41.980  17.891  14.864
18486W        W90212   9.865  36.315   2.657
18487W        W90213  13.280  19.630  12.135
18488W        W90214   6.645   6.286  13.466
18489W        W90215  43.888  22.596   2.466
18490W        W90216   2.905  29.062  11.003
18491W        W90217  28.053   5.392  10.021
18492W        W90218   9.957  21.766  12.319
18493W        W90219  22.465   8.269   0.800
18494W        W90220  35.817  30.509   0.959
18495W        W90221  19.112  25.903   3.825
18496W        W90222  41.346  27.830  14.358
18497W        W90223  39.095  39.458  14.778
18498W        W90224   0.713  29.868   1.348
18499W        W90225  31.044   8.353   2.785
18500W        W90226   0.347  32.704   4.069
18501W        W90227  22.589  15.282   0.240
18502W        W90228   5.300   5.958  14.223
18503W        W90229   8.802   7.467  11.076
18504W        W90230   8.523  12.641  14.326
18505W        W90231  13.401  24.597   0.348
18506W        W90232  20.230  16.434  12.506
18507W        W90233  38.825  27.892   3.804
18508W        W90234  43.815  42.830  11.176
18509W        W90235  27.486  13.603  14.066
18510W        W90236  37.361   3.781   2.728
18511W        W90237  44.060   5.954   4.185
18512W        W90238   9.182  14.625   3.491
18513W        W90239  44.192  15.675   3.640
18514W        W90240  31.116  25.756   4.974
18515W        W90241  15.530  25.640  12.960
18516W        W90242  31.556  30.964   1.192
18517W        W90243  12.651   6.222   2.577
18518W        W90244  18.253  17.747   3.513
18519W        W90245   6.207  14.310   0.820
18520W        W90246   4.656  36.392   1.014
18521W        W90247   6.673  27.162  12.530
18522W        W90248  25.515  17.607  13.903
18523W        W90249  31.388   6.399   3.279
18524W        W90250  37.332   9.209  14.829
18525W        W90251  10.833   9.637  14.008
18526W        W90252  14.766  39.538   4.168
18527W        W90253  22.532  11.721  14.294
18528W        W90254  10.890  36.951  14.404
18529W        W90255  43.819   7.213  11.618
18530W        W90256  34.428   6.577   4.141
18531W        W90257   0.546  43.494   2.411
18532W        W90258  35.937  43.369  11.604
18533W        W90259  19.745  32.880   1.915
18534W        W90260  12.385  32.606  12.014
18535W        W90261  30.104  28.152   4.211
18536W        W90262  15.546  22.501  10.740
18537W        W90263  26.111  38.543   1.286
18538W        W90264   3.907   2.882   1.957
18539W        W90265   5.325   4.202  10.762
18540W        W90266  29.379  28.921  12.072
18541W        W90267  32.140  39.830   0.875
18542W        W90268   9.674  20.206   2.746
18543W        W90269   9.437  18.706   3.282
18544W        W90270  15.950  34.154  12.410
18545W        W90271  14.434   0.898  12.033
18546W        W90272  36.961  19.317   2.955
18547W        W90273  15.131  34.413   2.677
18548W        W90274  28.015  20.829   4.589
18549W        W90275   3.993   5.271  13.140
18550W        W90276  32.086  35.885   3.227
18551W        W90277  29.996   6.874   4.621
18552W        W90278  33.566  11.911   4.495
18553W        W90279  40.281  29.906  13.322
18554W        W90280   4.454  43.239  12.339
18555W        W90281   3.727   0.218   2.172
18556W        W90282  12.494  14.808   3.846
18557W        W90283  18.004   3.510   2.871
18558W        W90284   3.383  36.920  13.347
18559W        W90285  12.345  11.824   0.684
18560W        W90286   7.982  10.751  13.802
18561W        W90287  11.205  24.218   1.573
18562W        W90288  30.587  44.342   2.445
18563W        W90289  29.621  25.228  13.452
18564W        W90290   8.354  37.279  10.561
18565W        W90291   2.964  11.180  11.081
18566W        W90292  30.497   6.459  12.977
18567W        W90293  20.354  16.127   0.917
18568W        W90294   4.890   6.463   0.676
18569W        W90295  29.447  24.385   5.038
18570W        W90296  14.579  24.250   2.800
18571W        W90297  15.152  34.029  11.782
18572W        W90298  41.544  26.652   1.934
18573W        W90299  21.172   5.945   4.770
18574W        W90300  37.742  28.983   4.299
18575W        W90301  42.486  39.390   0.775
18576W        W90302  36.552  26.865   5.002
18577W        W90303  32.591  37.162  13.447
18578W        W90304  15.417  30.038   2.657
18579W        W90305  34.850  10.141   1.499
18580W        W90306  38.616  11.278  12.040
18581W        W90307  34.356  30.179   4.593
18582W        W90308  22.166  16.066  14.270
18583W        W90309  44.736  25.981   3.261
18584W        W90310  23.492  15.130  12.971
18585W        W90311   5.386  17.576  10.983
18586W        W90312   0.505  42.049   1.074
18587W        W90313  18.262  38.301   2.849
18588W        W90314  20.086  39.162   4.016
18589W        W90315   3.120   0.448   0.410
18590W        W90316  29.983  30.802  14.432
18591W        W90317  29.020  14.505  14.922
18592W        W90318   3.563  15.238  12.982
18593W        W90319  16.587  19.166  12.578
18594W        W90320   4.124   1.296   2.413
18595W        W90321  15.334   4.771  10.602
18596W        W90322  31.412   4.240   2.706
18597W        W90323   7.452  26.112  12.981
18598W        W90324   1.221  38.790  11.142
18599W        W90325   4.477   9.283  11.984
18600W        W90326  32.910  30.406   2.573
18601W        W90327   1.224   7.315   0.333
18602W        W90328  31.583  20.956   1.934
18603W        W90329  44.797  30.528  14.788
18604W        W90330  10.198  18.247  12.197
18605W        W90331  35.469  38.884  11.547
18606W        W90332   3.971  20.072   3.671
18607W        W90333  33.912  31.559  10.905
18608W        W90334  33.854  28.448   1.668
18609W        W90335  43.773  36.524   2.492
18610W        W90336  29.003  25.616  13.577
18611W        W90337  23.522  18.041  11.917
18612W        W90338  15.259  11.304   5.016
18613W        W90339   8.644  27.903   3.264
18614W        W90340   4.720  18.709   0.689
18615W        W90341  18.186  20.009  12.455
18616W        W90342  28.178  33.043   0.386
18617W        W90343   9.403   2.539   4.168
18618W        W90344  39.141  38.897   4.553
18619W        W90345  11.020  32.045   3.754
18620W        W90346  20.760  39.053  11.511
18621W        W90347   1.328  44.061  14.121
18622W        W90348   9.272  16.497   3.157
18623W        W90349  25.551  22.631  12.818
18624W        W90350  44.347  24.404   2.721
18625W        W90351   0.290   7.833   1.576
18626W        W90352  39.309   2.774   1.007
18627W        W90353  20.213  43.234  10.429
18628W        W90354  10.340  17.239  11.978
18629W        W90355  13.652  15.112  11.449
18630W        W90356  20.088  20.786  13.418
18631W        W90357  42.016  20.093  13.493
18632W        W90358  30.609  24.631   2.913
18633W        W90359  25.155  12.491   0.806
18634W        W90360  12.438   3.795   3.184
18635W        W90361  13.839  34.480  11.464
18636W        W90362   2.692  16.067   4.650
18637W        W90363  24.656  32.693  11.121
18638W        W90364   2.259  22.807  12.869
18639W        W90365   0.203   6.381   3.356
18640W        W90366  29.456   0.216  11.561
18641W        W90367  24.724  42.339   2.331
18642W        W90368  27.650  13.213  12.067
18643W        W90369  18.587  17.340   3.344
18644W        W90370  44.389  32.492   3.436
18645W        W90371  31.206  33.574  14.221
18646W        W90372  13.160  37.112  11.349
18647W        W90373  19.824  42.079   3.159
18648W        W90374  44.932  43.734   0.493
18649W        W90375   6.395  41.386  14.010
18650W        W90376  39.761   5.169   2.396
18651W        W90377  29.493   8.679   3.547
18652W        W90378  14.010  38.778  14.196
18653W        W90379  44.355  17.084   2.894
18654W        W90380  44.397  27.475   3.167
18655W        W90381  21.455  25.106   0.386
18656W        W90382  27.936  20.086   0.300
18657W        W90383   7.758  10.063  12.874
18658W        W90384  44.596  28.794  14.310
18659W        W90385  18.246  27.572   1.170
18660W        W90386  29.999  41.537  11.130
18661W        W90387  20.992  41.493   1.920
18662W        W90388  20.029  16.117   4.811
18663W        W90389  19.094  36.006  14.678
18664W        W90390  13.620   2.504   1.477
18665W        W90391   3.219   6.093  11.117
18666W        W90392  26.468  25.919  14.493
18667W        W90393   8.210   7.813   1.718
18668W        W90394  12.366  23.076   2.093
18669W        W90395  16.488  13.340   1.331
18670W        W90396  33.892   2.697   2.664
18671W        W90397   6.304   0.309  12.350
18672W        W90398  30.679   3.535   4.103
18673W        W90399  14.396  36.702   3.338
18674W        W90400  44.767  26.534  12.872
18675W        W90401  31.379  20.772  12.220
18676W        W90402  34.372  15.655   1.705
18677W        W90403  18.788  44.571  12.873
18678W        W90404  11.280  13.822   4.424
18679W        W90405   4.872   7.947  10.090
18680W        W90406   1.696  16.475   2.187
18681W        W90407  40.479  11.663   0.978
18682W        W90408  34.084  10.028  10.820
18683W        W90409  25.936  35.206  13.414
18684W        W90410   3.920   0.350  13.497
18685W        W90411  43.977   7.768   0.007
18686W        W90412  12.621   9.139  12.495
18687W        W90413  32.054  23.572   1.972
18688W        W90414   3.582   3.626   2.923
18689W        W90415  41.573  28.656  11.096
18690W        W90416  20.514  30.450   1.226
18691W        W90417  35.326   5.281   2.965
18692W        W90418  17.662  12.102  14.979
18693W        W90419  33.400  36.361   1.645
18694W        W90420  32.811   6.235  10.574
18695W        W90421  26.613  34.903   0.169
18696W        W90422   8.018  38.138  12.549
18697W        W90423  25.580  41.827  12.162
18698W        W90424   7.351  16.572  13.233
18699W        W90425   3.181  41.336  12.842
18700W        W90426  32.435  30.054  12.382
18701W        W90427   5.210  33.497  11.068
18702W        W90428  27.666  24.224   3.320
18703W        W90429   6.342  16.184   4.047
18704W        W90430  38.317  30.500   3.140
18705W        W90431  33.403   8.464  10.746
18706W        W90432  38.836  24.173   0.592
18707W        W90433  30.740   7.266   4.157
18708W        W90434  44.089  26.539  14.549
18709W        W90435  10.354   1.268   1.462
18710W        W90436  42.804  13.766  14.216
18711W        W90437   8.101  38.992  13.391
18712W        W90438  18.134  28.017  11.993
18713W        W90439  30.957   9.761   1.332
18714W        W90440  38.513  23.734   1.333
18715W        W90441  38.972  10.086   0.821
18716W        W90442  42.991  31.976   4.558
18717W        W90443  23.646  42.209   0.411
18718W        W90444  34.020   6.945  13.429
18719W        W90445   3.524  30.841   0.458
18720W        W90446  25.960  17.979  12.100
18721W        W90447  39.422  39.840  14.936
18722W        W90448  13.907   7.362   2.685
18723W        W90449  44.914   5.362   0.865
18724W        W90450  26.800  19.215  13.843
18725W        W90451  40.557  15.100   3.145
18726W        W90452  27.379  31.987  10.876
18727W        W90453   2.194  38.310  12.283
18728W        W90454  14.162  41.295  10.014
18729W        W90455  23.290  28.056   5.262
18730W        W90456  35.918  42.843   0.706
18731W        W90457  18.996   7.316  14.785
18732W        W90458   7.151  36.843   0.367
18733W        W90459  16.548   3.385  10.991
18734W        W90460   0.858  18.775  14.734
18735W        W90461  38.772  17.566   1.140
18736W        W90462   7.080   1.764   3.530
18737W        W90463  17.182  23.871  11.948
18738W        W90464  16.603   6.282   1.225
18739W        W90465  40.868  12.687  13.889
18740W        W90466   5.870  21.708  10.398
18741W        W90467  10.903   0.016  11.923
18742W        W90468  17.596  18.578   0.752
18743W        W90469  12.274   0.382   1.234
18744W        W90470  44.329  24.458   0.191
18745W        W90471  25.636  32.650  14.281
18746W        W90472   4.846  37.644  10.052
18747W        W90473  29.956  33.952  11.691
18748W        W90474  17.229  24.168   3.686
18749W        W90475   8.851  17.531  10.793
18750W        W90476  30.526   5.460  13.840
18751W        W90477   9.379   7.148  14.821
18752W        W90478  31.540  13.142  13.513
18753W        W90479  43.816  41.369   3.872
18754W        W90480   7.323  43.430   2.303
18755W        W90481   5.652  13.557  11.383
18756W        W90482  31.102  15.922   4.585
18757W        W90483  10.065  19.197   4.244
18758W        W90484  14.308  28.152   1.380
18759W        W90485  34.231  12.422   0.250
18760W        W90486  27.650   2.968   3.528
18761W        W90487   4.243   0.014   2.158
18762W        W90488   4.380   6.429   2.709
18763W        W90489   7.838  12.206   1.270
18764W        W90490  28.666  16.351   3.769
18765W        W90491   0.040   2.798   0.436
18766W        W90492  14.588   6.680   0.166
18767W        W90493  35.380  19.785  12.135
18768W        W90494  18.275  15.225   4.567
18769W        W90495  17.048  32.116   2.720
18770W        W90496  14.777  39.958   5.422
18771W        W90497  33.664   1.767   2.790
18772W        W90498  29.970  26.042   1.359
18773W        W90499  35.115  29.233  11.246
18774W        W90500  24.466  20.117  11.575
18775W        W90501  26.358   7.335   3.647
18776W        W90502  36.687  10.839   3.642
18777W        W90503  42.287  21.839   0.880
18778W        W90504  12.611   6.768   3.198
18779W        W90505  16.748  43.480   2.577
18780W        W90506  26.123  42.527   0.302
18781W        W90507   9.666  23.633   1.810
18782W        W90508  26.410  22.998   0.874
18783W        W90509  24.631  34.344   2.246
18784W        W90510  16.745   4.893   0.070
18785W        W90511  37.438  28.025  10.870
18786W        W90512  12.235  26.983  14.283
18787W        W90513  18.119  30.976   3.527
18788W        W90514  19.478  17.740   0.408
18789W        W90515   2.485  32.447   2.910
18790W        W90516  21.334   1.996   3.776
18791W        W90517  33.892  19.175  12.601
18792W        W90518  16.350  28.043   4.661
18793W        W90519  29.216  33.032  12.072
18794W        W90520   9.619  22.980   4.638
18795W        W90521  43.364   0.113   3.137
18796W        W90522  35.334  17.577   3.223
18797W        W90523   4.928  40.583  11.513
18798W        W90524  41.556  35.284   3.016
18799W        W90525  13.758  30.482   2.619
18800W        W90526   6.135  32.182  12.121
18801W        W90527   3.365   5.593  11.084
18802W        W90528  14.911  25.560  10.749
18803W        W90529  32.963  31.338  12.532
18804W        W90530  35.050  34.152   0.881
18805W        W90531  17.096  43.349  13.797
18806W        W90532  19.888   9.765   2.126
18807W        W90533  41.035  16.175  14.446
18808W        W90534   0.204  19.988  13.153
18809W        W90535  18.361   2.368   1.493
18810W        W90536  37.516  27.306   0.377
18811W        W90537  10.149  39.707   2.920
18812W        W90538  29.267  26.926   3.366
18813W        W90539   6.412  39.024   0.969
18814W        W90540  13.461   1.890   0.802
18815W        W90541  42.387  25.164  13.392
18816W        W90542   9.623   0.230  13.505
18817W        W90543  28.008  20.101   4.559
18818W        W90544   0.293   8.867   3.753
18819W        W90545   4.663   0.798   2.856
18820W        W90546  12.171  43.874  13.116
18821W        W90547  12.121  17.613   1.173
18822W        W90548  37.986   1.762  12.886
18823W        W90549  21.773  43.510   3.241
18824W        W90550   1.736   2.362   4.686
18825W        W90551   8.248  11.627  12.619
18826W        W90552  26.619   4.722  11.132
18827W        W90553  14.542  17.931  12.635
18828W        W90554   7.767   3.891   4.770
18829W        W90555  20.229   5.835  14.534
18830W        W90556  35.690  18.771   3.853
18831W        W90557  21.075  20.423   0.224
18832W        W90558  13.253  14.338   1.454
18833W        W90559  16.987   0.589   2.241
18834W        W90560   4.891  36.596  11.078
18835W        W90561  37.983   5.711  10.382
18836W        W90562  28.116  38.395  11.458
18837W        W90563  23.479  12.026   3.821
18838W        W90564  23.607  30.910   3.883
18839W        W90565  41.911  27.447  13.858
18840W        W90566  41.098  41.634   3.675
18841W        W90567  19.331  37.501   1.881
18842W        W90568  28.024   4.819   0.504
18843W        W90569  36.517  34.955  12.632
18844W        W90570  40.053  39.037  13.969
18845W        W90571   3.338   4.475  14.702
18846W        W90572  43.194   5.772  13.393
18847W        W90573   5.856  11.814  11.067
18848W        W90574  24.698   8.010   3.321
18849W        W90575   3.269  30.458  13.828
18850W        W90576  10.236  22.245   3.259
18851W        W90577  19.386   9.086  11.738
18852W        W90578   8.843  26.671  12.689
18853W        W90579  23.610  44.727   0.927
18854W        W90580  18.699  16.676  14.739
18855W        W90581  25.447   2.993  10.426
18856W        W90582   5.799   8.621   0.421
18857W        W90583  21.684   3.937   2.675
18858W        W90584  33.503   9.747   2.767
18859W        W90585  41.833   7.625   1.400
18860W        W90586  42.530   4.716   4.108
18861W        W90587  18.265  36.410   1.744
18862W        W90588   7.492  13.460   3.702
18863W        W90589  36.578  28.296  11.367
18864W        W90590  29.085  10.596   1.738
18865W        W90591  29.446  34.890  13.982
18866W        W90592   4.836  38.017  12.560
18867W        W90593  41.765  33.013  14.891
18868W        W90594   1.477  28.880   1.714
18869W        W90595   7.854  42.480  14.928
18870W        W90596  43.085  40.453  11.486
18871W        W90597  28.657   5.325   4.238
18872W        W90598  11.299   6.779   2.348
18873W        W90599   3.360  43.333   1.863
18874W        W90600  26.174  34.932   1.151
18875W        W90601  13.791  43.330  11.214
18876W        W90602  21.239  25.103  12.813
18877W        W90603   9.738  25.709   5.599
18878W        W90604   5.703  27.080  13.494
18879W        W90605   6.127  17.100  12.000
18880W        W90606  10.694  21.715  14.045
18881W        W90607   2.705   3.477  11.642
18882W        W90608  12.565  44.248   4.696
18883W        W90609   1.848  23.099   0.084
18884W        W90610  39.564   7.643   4.627
18885W        W90611  41.868  35.999  14.932
18886W        W90612  37.234  40.472   3.682
18887W        W90613  33.034  21.030   3.378
18888W        W90614   7.970  33.860  13.495
18889W        W90615  10.503  25.119  10.656
18890W        W90616  16.917  44.301   4.585
18891W        W90617  25.145  16.280   1.018
18892W        W90618   6.407  18.526  13.305
18893W        W90619  15.625  12.836   2.704
18894W        W90620   7.281  35.690  11.910
18895W        W90621  37.942   7.522  13.514
18896W        W90622   0.975  36.304   4.182
18897W        W90623   3.842  12.433  13.492
18898W        W90624  28.027  40.050  12.960
18899W        W90625  10.889  36.031   2.648
18900W        W90626  37.352  11.847   3.271
18901W        W90627  44.833  38.858   1.356
18902W        W90628  11.681  18.628  14.919
18903W        W90629  34.066  12.154  12.896
18904W        W90630  41.053   6.127  12.815
18905W        W90631  16.795  19.567   2.340
18906W        W90632  13.945   7.961  10.852
18907W        W90633  33.584  33.483   2.945
18908W        W90634   5.784   3.248  10.655
18909W        W90635   0.372  28.608  13.123
18910W        W90636   4.127  24.094  11.841
18911W        W90637  26.545  21.214   2.322
18912W        W90638  11.131  11.424  13.845
18913W        W90639  37.906  26.125   0.901
18914W        W90640  22.144  11.774  13.003
18915W        W90641  42.840  25.725  14.737
18916W        W90642  38.524   1.841  10.795
18917W        W90643  32.453  43.312   1.953
18918W        W90644  36.844  27.358  11.159
18919W        W90645  42.716  40.944  10.738
18920W        W90646  16.747  21.153   0.581
18921W        W90647  40.863   3.261   1.959
18922W        W90648   4.609  32.443   3.743
18923W        W90649  26.309   9.588   4.725
18924W        W90650   6.861   2.193  13.851
18925W        W90651  33.516  21.922   2.247
18926W        W90652  14.626  39.306  13.914
18927W        W90653  40.433  18.570  13.330
18928W        W90654  42.320   9.875   4.181
18929W        W90655  18.183  18.456   2.196
18930W        W90656  44.948   0.831   4.534
18931W        W90657  35.947   2.341  12.082
18932W        W90658  33.039   7.253  12.473
18933W        W90659  44.067  34.831   3.268
18934W        W90660  18.547  44.525  13.373
18935W        W90661  20.108   4.274   1.282
18936W        W90662  44.003  14.362  14.860
18937W        W90663  38.148  35.332   2.877
18938W        W90664   5.322  44.156   3.557
18939W        W90665  22.400   0.007  13.928
18940W        W90666   7.391  20.745   0.366
18941W        W90667  24.780  38.565  11.065
18942W        W90668   1.255   1.290  14.346
18943W        W90669   8.930  25.154  10.106
18944W        W90670  16.658  30.042   4.960
18945W        W90671  36.157  40.847   4.822
18946W        W90672  33.735  42.042  11.312
18947W        W90673   6.573  38.871   2.870
18948W        W90674  20.309  30.693   4.596
18949W        W90675  27.932   2.446   0.860
18950W        W90676  19.743  39.810  14.854
18951W        W90677  17.347  21.435  14.444
18952W        W90678  20.048  38.422  14.877
18953W        W90679  20.738  30.880  11.435
18954W        W90680  10.249  28.944   3.364
18955W        W90681  36.690  26.007   4.001
18956W        W90682  36.827  40.571  12.893
18957W        W90683  32.848   1.738   4.173
18958W        W90684  41.579   7.233  14.994
18959W        W90685  10.127  19.352  11.558
18960W        W90686  44.802  18.290   4.180
18961W        W90687  33.565  18.079   2.758
18962W        W90688  44.019   9.497  11.664
18963W        W90689   4.742  29.915  13.278
18964W        W90690  28.076  31.950  11.145
18965W        W90691   4.158  22.188   3.661
18966W        W90692  26.872  34.530  14.891
18967W        W90693  40.453  11.046   3.721
18968W        W90694  18.808  30.997   1.339
18969W        W90695  42.496  43.890   4.377
18970W        W90696  44.871  44.171  13.163
18971W        W90697  11.858  25.891  11.942
18972W        W90698  10.009   3.532   0.904
18973W        W90699   5.255  30.030  13.433
18974W        W90700   3.874  26.055  13.859
18975W        W90701  44.698  15.513  13.545
18976W        W90702  37.039  42.826   1.866
18977W        W90703  43.897  39.550   1.737
18978W        W90704  42.295  31.215   4.444
18979W        W90705  38.898  29.870  12.910
18980W        W90706  30.859  14.293   2.476
18981W        W90707  13.443  31.662  12.068
18982W        W90708  25.467  43.763   5.031
18983W        W90709  27.628  10.758  14.834
18984W        W90710  36.967   6.295  10.924
18985W        W90711  13.130  31.134  10.963
18986W        W90712  23.194  29.501  12.442
18987W        W90713  19.148  28.601  12.173
18988W        W90714  38.370  11.190  13.533
18989W        W90715  21.713  15.878   1.232
18990W        W90716  18.777  27.980   5.129
18991W        W90717  31.155  10.240   1.272
18992W        W90718  36.449  20.378  11.570
18993W        W90719  18.761  13.391  12.036
18994W        W90720  13.571   2.702   0.511
18995W        W90721  42.920  18.956  13.948
18996W        W90722  15.264   5.264   0.475
18997W        W90723  35.245  35.572   3.587
18998W        W90724   2.748  14.632  14.797
18999W        W90725  43.594  34.094  14.090
19000W        W90726  30.947  26.001   3.761
19001W        W90727  13.612  43.411   0.406
19002W        W90728  21.271   0.497   0.469
19003W        W90729  39.926  41.999   3.270
19004W        W90730   9.182  15.323  12.586
19005W        W90731  43.921  28.578  12.393
19006W        W90732  13.578  42.777  12.993
19007W        W90733  44.296  41.487  12.377
19008W        W90734  14.686  14.027  14.068
19009W        W90735  38.384   6.553  12.559
19010W        W90736   8.830  21.745  14.555
19011W        W90737   4.073   4.195  10.841
19012W        W90738  23.909  40.114  13.500
19013W        W90739  22.769   5.201  14.927
19014W        W90740  32.833  42.856   0.490
19015W        W90741  23.081  24.815   1.638
19016W        W90742   5.247  15.093   4.655
19017W        W90743  32.588  15.748  14.474
19018W        W90744  16.919   8.829  14.346
19019W        W90745  40.834   1.827   0.093
19020W        W90746  18.871  35.925   4.372
19021W        W90747  34.252  25.694  11.739
19022W        W90748  42.901   7.708  11.073
19023W        W90749  29.440  27.030   2.889
19024W        W90750  31.863   6.664   3.397
19025W        W90751  33.317  17.095  12.988
19026W        W90752  11.012  29.027   1.321
19027W        W90753   8.187  39.093   0.371
19028W        W90754  13.670  15.685   2.679
19029W        W90755  29.151   1.278   4.181
19030W        W90756  36.026  32.115  11.505
19031W        W90757   4.137  21.084   2.601
19032W        W90758  31.630  35.321   4.120
19033W        W90759   8.746  12.910   4.003
19034W        W90760   3.001  21.982  13.403
19035W        W90761  20.987  39.384   1.226
19036W        W90762   0.085  28.705  14.582
19037W        W90763  21.246  18.252  10.588
19038W        W90764  38.338  29.295   1.288
19039W        W90765  39.359  28.744   2.210
19040W        W90766  32.571  26.490   0.814
19041W        W90767  14.567  13.568   4.098
19042W        W90768  14.544  24.633   2.449
19043W        W90769  10.764   7.908   1.693
19044W        W90770  21.246  30.898   3.630
19045W        W90771  20.582  10.335  11.338
19046W        W90772  21.478  24.316  14.940
19047W        W90773   1.667  38.424   4.058
19048W        W90774   8.126  21.765  12.836
19049W        W90775  31.180  10.629  14.007
19050W        W90776  18.375  41.457   2.094
19051W        W90777  27.416  37.927  11.178
19052W        W90778  36.795  24.447  11.152
19053W        W90779  38.526   5.787  12.996
19054W        W90780  25.193  22.498   4.117
19055W        W90781  39.333  30.946   0.792
19056W        W90782  21.025  12.239  10.155
19057W        W90783  34.810   8.609   0.879
19058W        W90784   5.135  41.402  14.722
19059W        W90785  33.356   6.965   3.154
19060W        W90786  39.066  10.107   4.141
19061W        W90787   8.345  41.488  11.568
19062W        W90788  39.007  43.856   4.932
19063W        W90789   7.292  33.098   0.742
19064W        W90790  23.022  40.018   2.670
19065W        W90791  44.419  40.491  11.893
19066W        W90792  14.423   4.663   0.208
19067W        W90793  40.030  17.561   4.344
19068W        W90794  18.716  18.080   0.756
19069W        W90795  42.008  20.249   2.562
19070W        W90796  13.689  38.841   4.358
19071W        W90797   5.963  25.108   5.083
19072W        W90798  14.868  35.486  13.508
19073W        W90799  35.784  16.946  14.848
19074W        W90800  40.773  44.355   4.475
19075W        W90801  20.807  31.281   2.871
19076W        W90802  38.839  30.947   0.974
19077W        W90803  40.186  31.583  11.142
19078W        W90804  30.956  38.395   3.713
19079W        W90805   6.195  19.442  10.375
19080W        W90806  40.824  15.085   4.137
19081W        W90807  13.630  36.493   4.941
19082W        W90808   3.272  14.552   4.330
19083W        W90809  12.297  13.771   0.803
19084W        W90810  17.548  37.969   3.701
19085W        W90811  10.352  14.179   2.159
19086W        W90812   9.724  18.999   0.811
19087W        W90813  42.820   7.779   4.434
19088W        W90814  15.684  21.673   0.059
19089W        W90815  40.846  10.131   4.813
19090W        W90816  21.174  14.608   0.410
19091W        W90817  30.352   7.680   4.883
19092W        W90818  19.149  23.280  12.872
19093W        W90819  41.658  12.738  12.973
19094W        W90820  23.077  42.843   3.236
19095W        W90821  29.122  21.557   4.174
19096W        W90822  18.461  27.010  11.254
19097W        W90823  17.559  43.774  11.256
19098W        W90824   9.774  15.321   0.891
19099W        W90825  17.651  26.218  12.840
19100W        W90826  13.837  36.489  14.444
19101W        W90827   5.141  16.066   1.766
19102W        W90828  35.916   0.561  12.036
19103W        W90829   8.856  23.240  12.548
19104W        W90830  24.922   1.303   2.302
19105W        W90831  44.901  37.482   1.925
19106W        W90832  23.137  27.389   1.860
19107W        W90833   8.353   4.831  14.381
19108W        W90834  22.163  14.854  11.002
19109W        W90835  44.878  15.922   2.627
19110W        W90836  12.844  23.172   4.525
19111W        W90837  30.210  18.180   0.843
19112W        W90838   7.026  14.454   1.423
19113W        W90839  29.113  33.871   2.864
19114W        W90840  25.018  10.837  10.701
19115W        W90841  37.643  21.163  14.072
19116W        W90842   9.666  18.100   0.933
19117W        W90843   9.345  35.501  14.715
19118W        W90844   1.055   4.366  11.877
19119W        W90845  23.974  26.978   4.675
19120W        W90846   8.727  12.171  11.939
19121W        W90847  32.051  14.287  13.431
19122W        W90848   3.178  40.979   0.730
19123W        W90849  25.711  24.265   0.336
19124W        W90850  26.469  16.350  11.379
19125W        W90851   0.019  11.686   3.795
19126W        W90852  39.812  24.167   0.247
19127W        W90853  27.893  17.603   0.796
19128W        W90854   0.030   9.804   2.227
19129W        W90855  19.161  23.045   1.170
19130W        W90856  38.060  25.097   3.211
19131W        W90857  29.184  30.727  13.487
19132W        W90858  12.319  43.790  10.261
19133W        W90859  25.024  28.100   3.065
19134W        W90860  22.582   4.886   3.242
19135W        W90861   7.385  33.073   2.713
19136W        W90862  41.723  33.612  12.538
19137W        W90863  39.064  22.398   2.803
19138W        W90864   3.222  37.860   0.834
19139W        W90865  19.684  19.210  10.666
19140W        W90866  39.483   9.870   0.898
19141W        W90867  16.052  35.630   1.774
19142W        W90868  33.924  21.036  12.296
19143W        W90869  21.738  44.311   2.625
19144W        W90870  28.517  19.272   3.218
19145W        W90871   6.304  32.855  10.722
19146W        W90872  25.516  23.178  14.915
19147W        W90873   8.219  18.284   4.496
19148W        W90874  22.484  24.211   3.149
19149W        W90875   8.539  17.804   2.394
19150W        W90876  16.001  25.644  14.434
19151W        W90877  33.355  23.680   1.054
19152W        W90878  22.621  37.673  14.296
19153W        W90879  35.794  17.970  11.966
19154W        W90880  27.441  40.459   4.700
19155W        W90881  32.035  25.149  11.339
19156W        W90882   2.865  13.676  12.078
19157W        W90883  44.205  39.311  13.060
19158W        W90884   6.204   1.253   0.760
19159W        W90885   0.366  30.988   1.684
19160W        W90886  25.168  15.858   1.395
19161W        W90887  22.213  26.199   4.502
19162W        W90888  30.981  44.421   0.688
19163W        W90889  25.455   8.714   3.360
19164W        W90890  17.231  30.573   4.760
19165W        W90891  31.858  15.950   4.251
19166W        W90892  26.804   6.191   4.488
19167W        W90893  44.010  34.381  14.825
19168W        W90894  10.218  15.225  13.127
19169W        W90895   4.770  26.285   1.819
19170W        W90896  17.278  21.185  12.666
19171W        W90897  31.587  38.705  13.535
19172W        W90898  25.014  43.977   3.276
19173W        W90899  13.670  25.107  11.576
19174W        W90900  39.055  18.278   5.094
19175W        W90901   4.846   4.224   4.126
19176W        W90902   9.692   7.927  11.031
19177W        W90903  16.182  10.683  11.857
19178W        W90904   9.150   0.211   3.313
19179W        W90905  44.544  29.585   3.237
19180W        W90906  28.921  36.735  13.695
19181W        W90907  29.137  36.675  11.902
19182W        W90908  22.162  30.922   3.707
19183W        W90909  42.841  40.327   1.039
19184W        W90910  30.965   6.129   1.755
19185W        W90911  33.896  21.086  10.309
19186W        W90912  11.382  17.713  14.863
19187W        W90913  38.047  15.851   1.728
19188W        W90914  27.862  41.180   0.978
19189W        W90915  26.349  33.133   5.059
19190W        W90916  41.428   8.792   0.806
19191W        W90917   2.161  44.517  13.388
19192W        W90918  20.063  19.070   1.404
19193W        W90919  26.243   0.950   5.038
19194W        W90920  17.330  39.919  11.049
19195W        W90921  44.951  18.024  12.475
19196W        W90922  25.957  14.624   1.355
19197W        W90923  20.025  32.218   2.272
19198W        W90924  16.579  39.031  13.089
19199W        W90925  19.669  37.189   2.232
19200W        W90926  28.815  24.229   4.246
19201W        W90927  16.200  11.329  14.740
19202W        W90928  24.222  22.074   4.110
19203W        W90929  27.642  22.520  10.589
19204W        W90930  35.559  19.706   2.865
19205W        W90931   0.460  22.593   2.397
19206W        W90932  33.415  27.146   1.832
19207W        W90933   6.403   4.252   2.401
19208W        W90934  44.556  11.306  13.415
19209W        W90935  20.648  39.821  14.890
19210W        W90936  34.134  26.670  12.616
19211W        W90937  10.227  43.260   0.992
19212W        W90938  27.657  10.286  11.151
19213W        W90939  38.394   7.901  14.462
19214W        W90940  30.276  24.520   3.315
19215W        W90941  37.324  38.735  11.329
19216W        W90942  20.970  10.302  14.098
19217W        W90943   7.602  42.796   3.668
19218W        W90944  32.532   7.441   4.069
19219W        W90945   4.403  37.537  11.338
19220W        W90946  23.613  40.860  11.667
19221W        W90947  40.970  21.254  12.589
19222W        W90948  23.091  15.567  14.502
19223W        W90949  35.525  28.107  12.885
19224W        W90950  38.494   7.775   2.467
19225W        W90951   3.300  35.681   2.297
19226W        W90952  18.837  36.818  11.948
19227W        W90953  39.583  43.243   2.924
19228W        W90954  13.373   9.618   3.173
19229W        W90955  31.810  16.223   1.959
19230W        W90956  40.905  35.121   3.630
19231W        W90957  15.793   6.149   2.307
19232W        W90958   0.329  36.978   3.594
19233W        W90959  37.251  17.048   1.285
19234W        W90960  33.974  22.615   0.892
19235W        W90961  23.552   2.408   0.832
19236W        W90962  42.553  20.080  13.447
19237W        W90963  36.333  10.870   2.312
19238W        W90964  44.755  26.867   2.296
19239W        W90965  41.778   5.333   1.697
19240W        W90966  16.509  14.823   3.574
19241W        W90967  30.443  31.739   1.108
19242W        W90968  43.709  14.693  14.386
19243W        W90969   7.755  43.035  10.331
19244W        W90970  24.056   5.944  11.638
19245W        W90971  18.307  11.861   0.219
19246W        W90972  30.001  32.146   4.800
19247W        W90973   4.736   4.004  10.213
19248W        W90974  24.789  24.561  13.348
19249W        W90975   9.761  27.011   4.387
19250W        W90976  31.994  39.400  10.830
19251W        W90977   7.249   4.117   4.687
19252W        W90978  39.212   0.648   4.910
19253W        W90979   1.872  26.711  12.119
19254W        W90980  33.105  41.417   3.599
19255W        W90981   3.287  19.154   0.902
19256W        W90982  30.406  31.276   0.246
19257W        W90983  37.869   7.396   0.356
19258W        W90984   9.859   0.253  14.811
19259W        W90985  16.311  33.774   0.773
19260W        W90986  21.769  25.980   4.504
19261W        W90987  27.122  11.464  12.626
19262W        W90988  27.513  16.382  14.875
19263W        W90989  30.469  40.124  12.027
19264W        W90990   0.283  31.333   2.776
19265W        W90991  33.942   2.636  12.940
19266W        W90992  12.025  16.938   4.578
19267W        W90993  24.720  21.784   0.332
19268W        W90994  43.765  12.581  13.418
19269W        W90995   9.836   2.787   4.001
19270W        W90996  41.307  38.509   3.691
19271W        W90997  38.871  26.587  10.987
19272W        W90998  30.852  43.782   4.579
19273W        W90999   8.244  23.624  11.089
19274W        W91000   1.909  17.975  14.887
19275W        W91001  19.156  17.501  14.425
19276W        W91002  41.335  38.518  10.619
19277W        W91003  39.976  39.534  13.806
19278W        W91004  20.239  32.451  10.595
19279W        W91005  30.124  21.929  14.868
19280W        W91006  10.704  37.045   0.919
19281W        W91007  33.070   2.206  14.733
19282W        W91008   1.990   1.012   4.189
19283W        W91009   7.438  29.458  14.960
19284W        W91010  27.294  20.895  10.444
19285W        W91011  43.999  42.734   0.868
19286W        W91012  35.796  23.986   1.833
19287W        W91013  15.675  34.342   1.632
19288W        W91014   7.701  22.007   2.373
19289W        W91015   4.471  18.707  13.117
19290W        W91016  39.316  29.646   4.578
19291W        W91017  12.367  16.602  11.659
19292W        W91018  11.163  23.658   2.224
19293W        W91019  36.785  29.913  13.421
19294W        W91020  14.248  36.642  13.150
19295W        W91021  28.532  22.612   0.874
19296W        W91022  22.823   4.813  13.326
19297W        W91023  35.567  42.522   4.257
19298W        W91024  12.145   8.603  12.174
19299W        W91025  36.566  41.873  13.520
19300W        W91026  19.127  11.895  10.742
19301W        W91027  14.647   7.739  11.969
19302W        W91028  17.530   8.147  10.725
19303W        W91029  41.908  41.809   4.350
19304W        W91030  12.262   1.348  12.644
19305W        W91031  16.300  29.868   4.507
19306W        W91032  44.250   1.557   1.758
19307W        W91033   8.185  38.822  11.636
19308W        W91034   7.313  24.789  11.491
19309W        W91035  40.200  35.441  14.945
19310W        W91036  14.163  36.254  11.054
19311W        W91037  36.679   1.385   4.167
19312W        W91038  41.029  33.929  13.879
19313W        W91039  11.535  18.357  11.923
19314W        W91040  40.324  20.477   1.365
19315W        W91041  31.984  15.452   2.535
19316W        W91042  31.954  38.593   3.798
19317W        W91043  24.462   0.315  12.141
19318W        W91044   3.330  10.638   1.235
19319W        W91045  16.633  38.447   3.891
19320W        W91046  19.550  27.702   4.035
19321W        W91047   1.459  25.945  11.962
19322W        W91048  13.170   4.221  12.464
19323W        W91049  11.394  36.017   0.701
19324W        W91050  14.333  15.310  11.957
19325W        W91051  24.225  39.706  13.501
19326W        W91052  21.687  15.205  11.979
19327W        W91053  31.605  11.866  14.021
19328W        W91054  11.438  35.063   0.802
19329W        W91055  20.161  34.890   1.012
19330W        W91056  43.001   2.982  13.938
19331W        W91057   9.160  28.788   1.833
19332W        W91058  32.947  22.781   4.105
19333W        W91059  36.445  35.053   4.069
19334W        W91060  24.923  35.141   0.261
19335W        W91061  22.764   4.381   2.266
19336W        W91062  12.997   3.223  12.336
19337W        W91063   5.054  19.144   2.414
19338W        W91064  27.671  10.671   2.724
19339W        W91065  13.894  15.254   4.217
19340W        W91066  28.887  27.032  12.369
19341W        W91067  16.166  21.127  13.436
19342W        W91068  12.652  32.594   3.703
19343W        W91069   5.649   8.190  12.107
19344W        W91070  26.221  23.228   0.429
19345W        W91071  13.123  16.019  12.275
19346W        W91072  41.744  33.377   2.196
19347W        W91073   0.263  17.836   0.427
19348W        W91074  10.386  31.407   1.549
19349W        W91075  23.788  20.307  12.553
19350W        W91076   9.890  16.877  12.351
19351W        W91077  20.603  10.099   4.576
19352W        W91078  15.849  12.817  13.859
19353W        W91079  19.147  27.075   4.591
19354W        W91080  44.545  35.064   1.060
19355W        W91081  25.681   7.980   0.705
19356W        W91082  21.801  41.826  12.005
19357W        W91083  10.434  28.928  14.039
19358W        W91084  15.825  19.594   4.885
19359W        W91085  27.582   9.646   2.279
19360W        W91086  29.408   1.752  13.300
19361W        W91087  28.955  19.726   4.707
19362W        W91088  12.069  14.226  11.239
19363W        W91089  20.120  42.939   2.435
19364W        W91090  21.013  42.853   1.262
19365W        W91091  32.996  27.933   0.450
19366W        W91092  10.872  21.206  13.948
19367W        W91093  12.652  44.872  10.368
19368W        W91094  38.820   7.682  12.989
19369W        W91095  18.229  20.966  13.404
19370W        W91096  34.580  40.019   4.099
19371W        W91097  10.349   4.959   4.406
19372W        W91098  14.844  16.568  12.664
19373W        W91099   8.483  30.355   1.181
19374W        W91100  35.448   0.484  13.046
19375W        W91101  21.084  44.278  10.597
19376W        W91102  21.174  32.047   0.692
19377W        W91103  36.479  20.209   4.585
19378W        W91104  29.754  11.123   0.361
19379W        W91105   0.374  32.656  12.997
19380W        W91106  39.103   1.161   4.006
19381W        W91107   5.891  38.396  14.417
19382W        W91108  26.111  29.146   2.714
19383W        W91109  13.841   3.352  14.282
19384W        W91110  22.974   8.850  14.450
19385W        W91111  10.149  18.055  10.266
19386W        W91112   2.785  11.101   4.321
19387W        W91113  29.601  27.194   2.342
19388W        W91114  30.039  24.148  11.009
19389W        W91115  29.352  11.868  14.364
19390W        W91116  36.676   2.799  14.842
19391W        W91117  26.342  34.858   9.981
19392W        W91118  25.217  21.997   1.822
19393W        W91119  12.052  41.364   3.957
19394W        W91120  35.969   5.153   1.213
19395W        W91121  13.835  43.425   0.877
19396W        W91122  27.655  25.692  11.105
19397W        W91123  41.930  10.085  12.470
19398W        W91124  18.045  22.291   4.711
19399W        W91125  15.913  30.931   1.592
19400W        W91126  35.059   6.655   1.917
19401W        W91127  38.565  16.807   2.401
19402W        W91128  14.538  33.499  11.111
19403W        W91129   2.187  33.026  11.817
19404W        W91130  14.797  19.394  10.498
19405W        W91131  19.782  26.093  13.489
19406W        W91132   1.943  33.768  14.467
19407W        W91133   8.304   6.237   4.547
19408W        W91134  17.733   3.423   1.839
19409W        W91135  25.051   1.911  14.024
19410W        W91136  27.569  12.805   3.314
19411W        W91137   4.833  15.110  11.676
19412W        W91138  20.719  44.671   3.217
19413W        W91139   5.322  33.272  14.858
19414W        W91140  16.858  17.653  11.252
19415W        W91141  11.766  35.373  14.446
19416W        W91142  11.289  22.793   4.841
19417W        W91143   4.494  11.820  11.841
19418W        W91144  10.304   1.668   3.112
19419W        W91145  28.548  23.527   2.797
19420W        W91146  26.158   9.358  13.046
19421W        W91147  18.543  25.968   1.914
19422W        W91148  27.226  39.437   3.290
19423W        W91149  30.403  16.763   0.369
19424W        W91150  29.194  40.586  14.776
19425W        W91151  11.084  14.861  13.494
19426W        W91152  42.019  24.183   0.788
19427W        W91153  23.535  41.556   1.775
19428W        W91154  26.683  32.018   3.219
19429W        W91155   4.298  26.632   2.282
19430W        W91156  44.748  36.689   1.454
19431W        W91157  24.229  10.232  14.952
19432W        W91158  28.011  42.325   2.812
19433W        W91159   1.786  35.279  14.540
19434W        W91160  42.318  23.145   1.542
19435W        W91161   8.398  22.087  13.422
19436W        W91162  18.555  43.954  13.719
19437W        W91163  20.201  39.339  11.151
19438W        W91164   5.949  30.709   1.540
19439W        W91165  19.369   5.868  14.381
19440W        W91166   9.960  29.584  10.585
19441W        W91167  10.276  41.996  12.326
19442W        W91168  12.678   5.282  11.563
19443W        W91169  43.562   1.876  13.691
19444W        W91170  34.577  28.844  12.040
19445W        W91171  39.506   4.247   2.901
19446W        W91172  15.768  26.212  11.127
19447W        W91173   3.951   7.858   0.340
19448W        W91174  43.801  31.110   0.270
19449W        W91175   3.931  33.651   2.632
19450W        W91176  23.469  33.900  10.641
19451W        W91177  41.533  36.727   3.851
19452W        W91178  15.155  28.952  10.460
19453W        W91179  12.874  36.008   4.346
19454W        W91180  36.813   9.219   0.934
19455W        W91181  27.116  15.377  11.454
19456W        W91182  42.946   0.227   2.833
19457W        W91183  15.840  17.147   1.433
19458W        W91184  37.473  34.539  10.852
19459W        W91185  20.534  42.429   1.361
19460W        W91186  24.319  37.293  11.183
19461W        W91187  42.703  29.385   4.521
19462W        W91188  24.203  19.668  11.508
19463W        W91189  35.607  21.855   3.692
19464W        W91190  32.958   0.948   2.192
19465W        W91191  40.362  22.947   2.407
19466W        W91192  23.533  21.629  14.343
19467W        W91193  44.750  20.975  13.518
19468W        W91194  34.659   3.871   0.351
19469W        W91195  25.003  43.039  10.135
19470W        W91196  43.474  35.692   1.239
19471W        W91197  42.947  22.729   1.424
19472W        W91198   3.829  33.311   4.667
19473W        W91199   7.413   4.248   0.716
19474W        W91200   6.827  37.973   0.976
19475W        W91201  18.573   2.247  11.541
19476W        W91202   4.353  26.188   1.308
19477W        W91203  36.876  21.281  12.575
19478W        W91204   5.881  14.247   3.446
19479W        W91205  13.361  31.438  13.467
19480W        W91206  11.467  16.782  12.440
19481W        W91207   0.918  14.317   4.130
19482W        W91208   0.794  32.657  11.917
19483W        W91209   9.923  11.631  13.573
19484W        W91210  44.446  12.259   4.957
19485W        W91211  10.919  10.883   1.730
19486W        W91212  22.696   5.507  12.037
19487W        W91213  39.973  25.709   4.736
19488W        W91214  37.018   3.215   4.503
19489W        W91215  16.982   1.435   4.146
19490W        W91216   5.226  25.937   2.167
19491W        W91217   6.916  33.780   3.759
19492W        W91218  38.149   8.644   0.791
19493W        W91219  18.061  15.287  14.788
19494W        W91220   2.212  36.080  11.152
19495W        W91221  16.191   6.894  13.066
19496W        W91222  24.380   7.733   0.409
19497W        W91223  11.800  12.160  12.967
19498W        W91224  34.148  28.634   4.237
19499W        W91225  29.644   0.801   0.968
19500W        W91226  38.033  44.851   2.206
19501W        W91227   3.763  31.119   1.844
19502W        W91228   0.430  29.148   4.650
19503W        W91229  40.823  22.090   3.581
19504W        W91230  35.087  27.462   3.149
19505W        W91231  12.922  13.752  12.136
19506W        W91232   5.214  42.519  14.487
19507W        W91233  20.948  10.733  13.810
19508W        W91234  29.588  16.287   4.914
19509W        W91235  20.777  31.628   4.623
19510W        W91236  32.529  17.117  11.085
19511W        W91237  34.941  40.529  12.040
19512W        W91238  28.550  39.020   4.616
19513W        W91239  39.317  19.598  10.653
19514W        W91240  32.346  15.946  12.049
19515W        W91241  15.891   0.752   5.065
19516W        W91242  34.197  44.458   5.825
19517W        W91243  32.044   8.435  14.821
19518W        W91244  37.528   0.980  11.961
19519W        W91245   9.177  39.526  12.453
19520W        W91246   6.199  43.871   4.125
19521W        W91247  12.482  12.392   4.568
19522W        W91248  29.852  26.504  14.326
19523W        W91249  11.772  44.825  13.290
19524W        W91250  42.631  12.549   0.402
19525W        W91251  44.011  17.982   2.547
19526W        W91252   2.183   2.297  10.579
19527W        W91253  32.054   0.717   0.349
19528W        W91254  36.053   6.338  11.379
19529W        W91255  10.819  15.631  14.779
19530W        W91256  10.140   9.481  13.426
19531W        W91257  44.398  10.671  14.561
19532W        W91258  41.329   9.842  13.540
19533W        W91259  33.617  40.389   3.177
19534W        W91260  12.017  12.989  11.523
19535W        W91261  39.503  30.160  12.918
19536W        W91262  42.901   5.336   2.089
19537W        W91263  38.454  30.649   4.290
19538W        W91264  36.899  41.724  11.084
19539W        W91265  40.248  15.288  12.074
19540W        W91266  24.014  38.460  14.950
19541W        W91267  13.858  26.490   1.468
19542W        W91268  31.865  44.550   3.152
19543W        W91269   5.387  20.590   3.224
19544W        W91270  15.825  40.838   3.621
19545W        W91271  22.813  43.737   4.803
19546W        W91272   4.824  15.766   5.007
19547W        W91273   5.197   0.910  10.542
19548W        W91274   3.260  33.660   1.427
19549W        W91275  43.526  44.286   2.842
19550W        W91276   6.730  11.300  11.483
19551W        W91277  32.536  17.144  11.613
19552W        W91278   7.148  42.498  11.444
19553W        W91279   5.111  44.708  14.778
19554W        W91280  23.098  44.934  14.688
19555W        W91281  11.665  39.570   1.016
19556W        W91282  39.311  37.346  14.831
19557W        W91283  35.553   4.448  14.017
19558W        W91284  39.394  19.748   4.141
19559W        W91285  20.577   6.796  14.770
19560W        W91286   4.743  10.251   5.153
19561W        W91287  17.735   8.007   0.529
19562W        W91288   1.168  19.727   4.840
19563W        W91289  25.590   5.307  10.968
19564W        W91290   6.470   3.762  11.121
19565W        W91291  21.048   5.114  14.908
19566W        W91292   4.945  17.823  12.917
19567W        W91293  36.023  37.541   4.668
19568W        W91294  36.280  25.186   0.056
19569W        W91295  25.939  35.474  12.355
19570W        W91296  32.011  16.298  13.936
19571W        W91297  23.213  35.806  12.036
19572W        W91298  34.016  14.581  12.500
19573W        W91299  15.387  37.285  14.355
19574W        W91300  33.434  23.756   2.637
19575W        W91301   1.003   8.313   1.688
19576W        W91302   4.402  21.714  14.111
19577W        W91303  32.586  44.345  14.383
19578W        W91304   0.287  42.460   4.724
19579W        W91305  27.724  20.734  12.547
19580W        W91306  30.176  19.831   1.239
19581W        W91307  32.995  31.129  13.852
19582W        W91308  31.195  32.795  11.476
19583W        W91309  17.257   7.623  14.929
19584W        W91310  39.984   2.732   3.188
19585W        W91311   8.295   2.760   2.256
19586W        W91312  26.280  44.022   2.589
19587W        W91313  14.254  12.372  14.015
19588W        W91314   8.453   6.477   5.578
19589W        W91315  33.883   8.675   4.443
19590W        W91316   6.427  30.404  11.665
19591W        W91317  11.703  42.913   1.489
19592W        W91318   5.437  40.896   3.192
19593W        W91319  24.992  42.123   3.293
19594W        W91320  44.054  39.766  13.889
19595W        W91321  40.075  33.377   4.068
19596W        W91322  44.592  34.766  13.466
19597W        W91323  37.069  43.010  13.793
19598W        W91324   4.063  21.778   1.791
19599W        W91325  10.690  38.569   2.605
19600W        W91326  21.757  17.189   4.543
19601W        W91327  34.130   7.199   2.784
19602W        W91328  34.632  23.011  12.979
19603W        W91329  38.598   6.302   0.411
19604W        W91330  29.091   8.337   3.641
19605W        W91331  43.265  43.508  12.366
19606W        W91332  21.608   1.191  13.860
19607W        W91333  30.680  39.944  11.091
19608W        W91334  21.583  17.738  11.849
19609W        W91335   3.939  13.230  13.931
19610W        W91336  37.857  11.238  10.270
19611W        W91337  20.099  26.422  11.885
19612W        W91338  25.181  25.987  13.117
19613W        W91339  31.880  22.534  12.567
19614W        W91340  20.231  18.187  10.767
19615W        W91341  11.551  24.432  11.259
19616W        W91342  23.192   4.263  12.652
19617W        W91343  12.698  29.098   2.890
19618W        W91344  27.282  14.389  11.529
19619W        W91345   0.343  42.998   1.000
19620W        W91346  18.657  41.485  14.055
19621W        W91347  27.071  12.773   1.350
19622W        W91348   8.381   3.756  10.754
19623W        W91349   9.620  25.607   2.725
19624W        W91350  41.427  28.564  11.911
19625W        W91351  16.679  23.612   3.859
19626W        W91352  39.313  27.990   4.244
19627W        W91353  17.142  24.257  11.104
19628W        W91354  10.735  34.581  14.935
19629W        W91355  31.434   3.296  11.220
19630W        W91356  33.622  10.401   4.594
19631W        W91357  24.051  26.047  14.310
19632W        W91358  33.811   6.194  10.169
19633W        W91359  13.680  38.865  13.636
19634W        W91360  44.899  36.319   2.782
19635W        W91361  19.753  22.933   2.529
19636W        W91362  26.890  41.092  12.865
19637W        W91363  15.322   6.881   0.467
19638W        W91364  26.804  29.052  13.013
19639W        W91365  37.065  43.515  10.990
19640W        W91366  18.885  40.971  11.185
19641W        W91367  41.693  15.307  14.823
19642W        W91368  26.138  28.608   3.704
19643W        W91369  43.318  36.092  11.514
19644W        W91370  40.082  33.311  14.587
19645W        W91371  11.682  41.615   3.692
19646W        W91372   9.659   4.425   4.344
19647W        W91373   7.181  29.105   2.203
19648W        W91374   9.103   7.885  14.253
19649W        W91375  37.527   8.207  12.340
19650W        W91376  13.326  18.560  11.680
19651W        W91377  42.419  27.647  13.988
19652W        W91378  29.968  27.982  13.061
19653W        W91379  30.564  40.485  14.740
19654W        W91380  18.114  34.905   2.839
19655W        W91381  15.253   3.353   0.416
19656W        W91382  30.141  19.766  14.336
19657W        W91383  24.577  27.855   1.823
19658W        W91384  19.167  32.605   0.984
19659W        W91385  40.104  13.434  11.517
19660W        W91386  15.152  40.024  12.876
19661W        W91387  38.515   7.601  10.590
19662W        W91388  31.979  44.443  14.018
19663W        W91389  23.671  23.026   2.276
19664W        W91390  30.675  43.050  13.970
19665W        W91391   0.307   5.182   1.155
19666W        W91392  15.816  32.023   2.178
19667W        W91393  30.090  18.360   4.536
19668W        W91394  19.630  29.087  13.454
19669W        W91395  29.426  31.162   1.851
19670W        W91396  27.869   0.835   3.346
19671W        W91397  27.517  31.979   4.920
19672W        W91398   1.763  23.660  11.335
19673W        W91399   3.251  27.893   1.071
19674W        W91400  27.695  14.571  13.106
19675W        W91401  23.227  30.404   1.335
19676W        W91402   6.136  22.650   3.317
19677W        W91403  12.250   3.729  14.293
19678W        W91404  12.924  40.549   1.371
19679W        W91405  19.195  14.662  14.512
19680W        W91406   4.908   8.059   3.145
19681W        W91407  12.934  27.564  12.133
19682W        W91408  24.078  41.366   2.395
19683W        W91409  44.033  41.928  11.016
19684W        W91410  15.599  30.499   2.881
19685W        W91411  15.110  13.191  12.549
19686W        W91412  28.498  41.887   3.773
19687W        W91413   9.063  33.169   0.671
19688W        W91414  40.672  27.498  14.964
19689W        W91415  10.882  29.614  10.627
19690W        W91416  32.842   5.462  12.022
19691W        W91417   7.896  15.213  10.752
19692W        W91418  19.309   7.281  14.320
19693W        W91419  12.648  14.150   0.710
19694W        W91420   5.707  28.253   3.156
19695W        W91421  16.571  29.167   3.369
19696W        W91422   5.116  35.673   1.287
19697W        W91423  31.187  43.440  12.636
19698W        W91424  16.728  12.755  11.586
19699W        W91425   9.163   8.279   4.291
19700W        W91426  20.023  24.956  12.148
19701W        W91427  18.142   3.332   0.470
19702W        W91428  33.305  21.581  12.002
19703W        W91429   9.156   2.716   2.600
19704W        W91430   3.706  21.215   1.818
19705W        W91431   0.452  13.782   2.896
19706W        W91432  30.434  31.687  14.466
19707W        W91433   2.278  24.114  11.594
19708W        W91434   2.856  12.225   3.418
19709W        W91435  37.892  33.619   0.565
19710W        W91436  19.795  37.010   3.270
19711W        W91437  37.007  21.093   1.430
19712W        W91438  44.478  35.813   2.392
19713W        W91439  42.221  41.060   1.958
19714W        W91440  41.948  30.369   4.635
19715W        W91441  43.266  35.180  11.088
19716W        W91442  12.594  21.691  12.885
19717W        W91443   8.738  40.927   1.813
19718W        W91444  26.628   5.552  12.419
19719W        W91445   9.702  14.567  12.971
19720W        W91446  31.681  15.679   1.211
19721W        W91447   9.598  36.438  14.864
19722W        W91448  33.956  19.304   0.608
19723W        W91449  24.369  22.528   3.932
19724W        W91450  39.407   0.958  14.997
19725W        W91451  38.456  42.079  11.754
19726W        W91452  31.460   9.683   4.682
19727W        W91453  18.864  30.622   2.571
19728W        W91454   8.653   8.848  10.734
19729W        W91455  18.343  12.688  13.943
19730W        W91456   9.687  15.793   4.685
19731W        W91457   7.110   9.217  12.514
19732W        W91458  42.981  34.478  11.729
19733W        W91459  41.406  26.678  14.838
19734W        W91460   3.388  11.635   3.725
19735W        W91461  23.992   5.205   1.250
19736W        W91462   9.933  41.251  13.826
19737W        W91463  15.535  38.450  11.501
19738W        W91464  32.102   3.179  12.817
19739W        W91465   4.549  29.207   3.662
19740W        W91466   3.262  19.598  13.363
19741W        W91467  14.122  21.447  13.345
19742W        W91468  38.781   0.877   3.666
19743W        W91469  13.370   3.549  13.919
19744W        W91470   8.245  43.557   0.455
19745W        W91471  26.871  13.373   4.165
19746W        W91472  12.248  30.575   4.420
19747W        W91473  44.403  28.126   4.960
19748W        W91474   1.144  33.373   0.995
19749W        W91475  34.439  12.215  12.478
19750W        W91476  27.919  23.286   2.334
19751W        W91477  14.620  16.844   2.856
19752W        W91478  33.057  28.652  12.423
19753W        W91479   9.603  44.639  14.692
19754W        W91480  13.257   6.892   1.032
19755W        W91481  19.605  28.211  11.138
19756W        W91482  37.887  16.119   2.172
19757W        W91483  36.615  15.888   2.792
19758W        W91484  32.046  39.596   1.419
19759W        W91485  14.336  40.294  11.483
19760W        W91486  27.629  12.075  13.501
19761W        W91487  38.809  36.451   3.311
19762W        W91488   8.003   4.819  14.901
19763W        W91489   7.330  30.218   2.122
19764W        W91490  13.783  17.320  11.167
19765W        W91491  33.473  44.538  14.074
19766W        W91492  10.358   8.096   0.299
19767W        W91493  15.229  25.535   0.723
19768W        W91494  25.887  38.381  14.586
19769W        W91495  28.991   4.789   2.907
19770W        W91496  32.645  20.820  14.758
19771W        W91497   3.234  24.068  12.986
19772W        W91498  27.416  33.943   1.607
19773W        W91499  32.968  13.129  10.709
19774W        W91500  19.678  38.093  11.798
19775W        W91501  30.934   1.005   0.856
19776W        W91502  36.412   0.802   1.423
19777W        W91503  26.527  17.615  10.824
19778W        W91504  24.993  16.531   0.337
19779W        W91505   2.650  33.094  13.772
19780W        W91506   9.867  36.384   9.812
19781W        W91507  10.639  44.530   0.490
19782W        W91508  22.970  37.969   0.962
19783W        W91509  20.681  41.809  14.796
19784W        W91510  35.984  18.235  14.647
19785W        W91511  41.375  36.750  14.554
19786W        W91512  27.181  31.644   0.091
19787W        W91513   4.230   9.305   0.386
19788W        W91514  30.656   9.266  13.924
19789W        W91515  38.284  27.201   2.151
19790W        W91516  32.169   3.886   4.641
19791W        W91517  40.260  14.339  11.996
19792W        W91518  43.575   9.328  13.504
19793W        W91519  39.274  41.856  12.848
19794W        W91520  44.176  13.754  12.619
19795W        W91521  36.802  43.339   0.498
19796W        W91522  39.406  31.725  13.001
19797W        W91523  27.893  30.606  14.395
19798W        W91524  36.581  14.264   2.715
19799W        W91525  17.004  39.002  10.939
19800W        W91526  15.644   8.443  11.860
19801W        W91527  14.512  25.802   2.299
19802W        W91528   0.426  44.913  11.006
19803W        W91529  34.924   2.432  11.896
19804W        W91530  18.230  23.058  11.878
19805W        W91531  12.032  21.242  12.026
19806W        W91532  17.683  33.362   0.702
19807W        W91533  23.658   9.307  11.662
19808W        W91534   2.247  16.350   2.831
19809W        W91535  20.984  40.426  11.519
19810W        W91536  36.343  12.397  13.286
19811W        W91537  14.678  41.527  12.472
19812W        W91538  39.585  41.554  12.494
19813W        W91539   2.296  22.391   3.921
19814W        W91540  33.127  28.114  10.893
19815W        W91541  30.986  44.136   5.491
19816W        W91542  32.396  36.099  12.428
19817W        W91543  38.369  17.179   0.321
19818W        W91544  40.777  18.522  14.082
19819W        W91545  19.690  41.827   1.433
19820W        W91546  37.944  33.913  11.929
19821W        W91547  22.076  27.966  10.114
19822W        W91548   5.928   4.225  12.468
19823W        W91549  26.102  16.076  11.618
19824W        W91550  12.892  18.537  14.323
19825W        W91551  16.638  14.352   3.739
19826W        W91552  25.423  36.975  11.624
19827W        W91553  32.484  10.120  10.093
19828W        W91554  16.041  23.622  11.515
19829W        W91555   4.442  16.429   9.862
19830W        W91556  28.735   4.467  13.028
19831W        W91557  42.696  41.760  12.561
19832W        W91558  27.576  27.457   1.551
19833W        W91559  25.646  26.519  10.630
19834W        W91560  22.986  23.519  10.541
19835W        W91561  44.699  20.988  14.473
19836W        W91562  44.741  22.015  11.445
19837W        W91563  17.327  23.512   2.886
19838W        W91564  16.103  36.704   2.909
19839W        W91565   0.727  10.157   4.564
19840W        W91566  29.693  14.257  14.407
19841W        W91567  18.046   6.114   0.424
19842W        W91568  23.654  13.365  10.489
19843W        W91569  36.208  18.029   1.763
19844W        W91570  35.488   5.286   4.386
19845W        W91571  41.287  18.374  13.317
19846W        W91572  24.529  38.997   0.342
19847W        W91573  15.307  21.288   3.473
19848W        W91574  32.551  12.290  14.653
19849W        W91575  11.121  21.974   3.362
19850W        W91576  26.463  12.790   3.258
19851W        W91577  27.410   3.623   0.196
19852W        W91578  12.409   8.354   1.955
19853W        W91579   2.779  10.185   4.867
19854W        W91580  27.835   2.906  12.337
19855W        W91581   5.762  29.977   0.292
19856W        W91582   6.657  19.228   3.118
19857W        W91583   5.110   8.582  12.609
19858W        W91584  36.472  22.074   4.654
19859W        W91585  16.734   3.415  12.426
19860W        W91586  37.960  33.790  10.586
19861W        W91587  14.919  31.655  10.964
19862W        W91588  12.595  22.780   0.945
19863W        W91589   1.687  38.593  11.312
19864W        W91590  20.235  42.003   2.184
19865W        W91591  28.083  35.607  14.942
19866W        W91592  34.220   2.285   3.319
19867W        W91593  33.669  15.943  12.068
19868W        W91594   5.428   4.640  10.490
19869W        W91595  40.220  40.573  14.989
19870W        W91596   9.848  33.666   3.222
19871W        W91597  16.768  13.819   3.736
19872W        W91598   1.790  14.857  10.464
19873W        W91599  33.101  32.418  12.554
19874W        W91600   1.388  19.712   0.878
19875W        W91601  27.701  16.802   1.718
19876W        W91602   2.499   5.290   3.264
19877W        W91603  22.061  14.321   3.426
19878W        W91604  21.791  13.255   1.851
19879W        W91605  32.407   4.977   3.152
19880W        W91606  17.128  27.535  13.350
19881W        W91607  30.590  10.607  12.863
19882W        W91608  20.153  22.335   4.357
19883W        W91609  11.574  25.585   5.456
19884W        W91610  19.633   7.765   5.081
19885W        W91611  28.505  44.750   3.716
19886W        W91612  11.811  42.352  14.938
19887W        W91613  32.354  32.249  11.085
19888W        W91614  42.718   8.589   1.801
19889W        W91615  29.863  27.494  12.178
19890W        W91616  27.540  16.394   4.153
19891W        W91617  30.423   4.794  11.986
19892W        W91618  30.144  37.546   5.206
19893W        W91619   4.272  33.257  14.938
19894W        W91620  33.421  29.899  11.005
19895W        W91621  44.649  16.623  11.099
19896W        W91622  21.841   7.686  13.706
19897W        W91623  33.471  21.236  12.524
19898W        W91624  23.543   3.325   0.218
19899W        W91625  24.261  25.688  10.076
19900W        W91626  33.616   6.885   1.869
19901W        W91627   9.604  12.940  11.178
19902W        W91628  17.352  40.117  12.495
19903W        W91629   3.976  30.598   2.759
19904W        W91630   2.482  22.076  13.375
19905W        W91631  24.638  37.385   1.679
19906W        W91632  26.110   1.122   0.626
19907W        W91633  22.513   1.635   2.008
19908W        W91634  33.632  31.609  12.162
19909W        W91635  11.765  28.671   3.272
19910W        W91636  28.205  32.658   4.712
19911W        W91637  38.748  17.769  10.649
19912W        W91638  31.923  19.575  11.751
19913W        W91639  28.720  13.020   2.681
19914W        W91640  10.621  36.532   0.860
19915W        W91641  37.410  29.008   9.901
19916W        W91642  37.106  36.426  12.394
19917W        W91643  27.092  42.490   4.706
19918W        W91644  31.296  32.404  14.585
19919W        W91645  24.994  19.546  14.010
19920W        W91646   8.171  32.651   0.750
19921W        W91647  37.082  42.663   2.349
19922W        W91648   5.828   5.420  11.871
19923W        W91649  13.604  35.369  12.104
19924W        W91650  37.385  10.320  11.405
19925W        W91651  15.251   3.720  12.605
19926W        W91652   4.337   6.662   1.743
19927W        W91653  22.214  33.980   3.209
19928W        W91654   0.387  41.981  14.040
19929W        W91655   9.409  33.135   2.826
19930W        W91656  11.354  34.481   3.309
19931W        W91657   9.534  35.271   2.767
19932W        W91658  36.790  24.698  13.282
19933W        W91659   8.564  13.851   5.167
19934W        W91660  27.861   6.734  14.249
19935W        W91661  30.402  31.949  10.186
19936W        W91662  34.519  23.769  14.113
19937W        W91663  41.922  16.745   4.716
19938W        W91664  44.900  41.299  13.442
19939W        W91665  21.152  44.940   0.249
19940W        W91666   6.858  43.205   2.281
19941W        W91667  18.271  28.389  13.364
19942W        W91668  41.038  31.047  13.401
19943W        W91669   7.362  19.428   3.051
19944W        W91670  43.771   0.488   3.254
19945W        W91671   6.891  31.808  13.294
19946W        W91672  24.478  43.053  10.439
19947W        W91673  27.776  35.928   3.754
19948W        W91674  30.355   8.659   3.576
19949W        W91675  18.475   0.729   1.719
19950W        W91676  33.193  26.483   2.701
19951W        W91677  44.340   3.429  12.545
19952W        W91678  16.898  23.255  13.098
19953W        W91679   5.721  42.468  14.754
19954W        W91680  20.062   7.262   3.609
19955W        W91681  29.655  28.405   0.210
19956W        W91682   7.401   8.398  12.268
19957W        W91683  42.968  31.538  12.016
19958W        W91684  10.192  34.384   4.683
19959W        W91685   2.487   0.405  13.269
19960W        W91686  39.910  42.284   2.482
19961W        W91687  14.476   3.812  11.535
19962W        W91688  18.492  31.161   2.808
19963W        W91689  12.631  33.070  14.487
19964W        W91690  36.334  29.487  12.036
19965W        W91691  22.342  16.253   3.709
19966W        W91692  25.519  12.379  11.208
19967W        W91693  12.625  26.204  12.414
19968W        W91694  22.107  32.547   1.931
19969W        W91695  27.673  41.871  11.682
19970W        W91696  37.951  25.961   4.337
19971W        W91697   2.607  37.959  12.253
19972W        W91698   0.898  43.977   3.283
19973W        W91699  31.663  31.447  12.331
19974W        W91700   6.967  28.065  11.555
19975W        W91701   8.454  29.489   3.851
19976W        W91702  18.540  38.552   2.350
19977W        W91703  42.834  12.695   0.888
19978W        W91704  11.025  21.504  11.465
19979W        W91705  39.360   4.409  13.771
19980W        W91706  35.872  39.361  13.061
19981W        W91707   7.711  24.942   3.703
19982W        W91708   0.960  25.975   3.622
19983W        W91709  20.232  17.634  14.876
19984W        W91710  22.375  28.005   0.757
19985W        W91711  39.321   1.251  14.277
19986W        W91712  19.739   9.870  11.692
19987W        W91713  35.146  25.915   0.350
19988W        W91714  30.449   6.411  12.455
19989W        W91715   0.924   7.710  14.404
19990W        W91716   7.154  15.357   0.378
19991W        W91717  22.797  23.514  14.810
19992W        W91718  35.836   2.889  11.395
19993W        W91719  16.242  26.272  10.884
19994W        W91720  35.008  36.523   0.378
19995W        W91721  30.017   6.207   2.235
19996W        W91722  38.494  24.074  10.524
19997W        W91723   3.761  27.189   0.474
19998W        W91724  30.307  40.965   4.021
19999W        W91725  29.567  22.725   4.093
20000W        W91726  20.797   9.354  10.701
20001W        W91727  42.718  35.939   0.167
20002W        W91728  25.869  36.605  13.526
20003W        W91729  16.361  11.499   1.836
20004W        W91730  26.745  11.091   4.550
20005W        W91731   7.533  41.923  12.536
20006W        W91732  34.037  17.245   1.877
20007W        W91733  16.619  25.640   0.749
20008W        W91734  43.423  12.206  13.544
20009W        W91735  29.991  21.527  13.560
20010W        W91736   5.263  25.480  14.022
20011W        W91737  32.512  36.128  14.773
20012W        W91738  17.270  14.292  11.619
20013W        W91739  18.294  28.940  11.533
20014W        W91740  25.435  12.628  10.467
20015W        W91741  43.752   0.774  10.580
20016W        W91742  12.552  29.360  11.027
20017W        W91743  13.821  23.671  13.216
20018W        W91744  11.304  24.511   3.156
20019W        W91745  37.952   4.879   1.708
20020W        W91746  25.269  29.628  14.426
20021W        W91747  40.637  26.995  12.034
20022W        W91748  27.945  23.160   0.204
20023W        W91749  34.536  23.097   1.166
20024W        W91750   6.284   1.225  13.035
20025W        W91751  21.123  26.426  14.746
20026W        W91752  40.879  25.865   2.584
20027W        W91753  29.087  13.293  13.352
20028W        W91754  31.995  32.338   5.206
20029W        W91755  11.168  35.520   0.814
20030W        W91756  15.806   5.739  12.114
20031W        W91757  40.664  28.130   0.184
20032W        W91758  31.493  35.683   2.302
20033W        W91759  27.004  36.939  13.324
20034W        W91760   5.489  18.402   1.051
20035W        W91761  15.616  44.707  10.711
20036W        W91762  30.107  26.097   4.045
20037W        W91763   3.287  16.519  11.876
20038W        W91764   6.748  39.812   1.283
20039W        W91765  28.585  25.405  12.645
20040W        W91766  42.976   8.927  11.155
20041W        W91767  42.794  14.223   0.485
20042W        W91768  22.057  21.216   0.274
20043W        W91769   1.670  43.795  13.827
20044W        W91770   8.943  21.113  13.465
20045W        W91771  25.166   4.913   4.543
20046W        W91772   5.925  40.908  10.802
20047W        W91773  19.795  11.250   4.659
20048W        W91774  15.092  39.911   9.983
20049W        W91775  44.353   4.352  12.996
20050W        W91776  12.377  16.725   0.747
20051W        W91777   8.246  12.222   3.056
20052W        W91778  34.450  14.147   1.991
20053W        W91779  33.932  24.446   3.843
20054W        W91780   3.724  11.599   4.150
20055W        W91781  20.714  21.343  12.075
20056W        W91782  35.451   4.021   3.540
20057W        W91783  43.012  30.902  13.283
20058W        W91784  42.345  37.302   3.889
20059W        W91785   3.290  37.822  14.010
20060W        W91786  21.097   1.749  11.636
20061W        W91787  38.577   3.448   5.345
20062W        W91788  43.054  41.922  13.853
20063W        W91789  38.909  42.317  11.507
20064W        W91790  24.086  30.972   4.130
20065W        W91791  19.726   2.300  14.258
20066W        W91792  14.609  38.280  11.586
20067W        W91793  16.021  12.547   0.699
20068W        W91794   7.960   2.041   4.089
20069W        W91795  11.162  27.275   3.190
20070W        W91796  16.747  33.426  14.273
20071W        W91797   0.783   0.537   1.833
20072W        W91798  16.627  23.528   4.373
20073W        W91799   8.701  33.902   0.813
20074W        W91800  38.681  18.218   3.786
20075W        W91801  31.165  35.613  14.807
20076W        W91802  21.980  27.972  11.004
20077W        W91803  35.621  41.910  11.501
20078W        W91804  39.457   2.898  12.606
20079W        W91805  29.171  20.992   3.322
20080W        W91806  29.286  34.036   0.491
20081W        W91807  10.193  12.875  11.534
20082W        W91808  32.967  34.349  12.437
20083W        W91809  23.686   0.613   2.739
20084W        W91810  28.598   5.262  13.889
20085W        W91811   3.289  31.007  12.498
20086W        W91812  40.222  38.360   1.348
20087W        W91813  39.234  37.062  13.492
20088W        W91814  40.427  29.033  13.009
20089W        W91815   4.318  16.507  14.320
20090W        W91816   0.828   0.003  12.182
20091W        W91817   5.352  32.025   4.124
20092W        W91818   2.399  30.700  13.361
20093W        W91819  26.964  13.600  14.856
20094W        W91820  44.707  18.069   1.851
20095W        W91821  29.544   3.164   3.747
20096W        W91822  14.529  32.943   4.259
20097W        W91823  12.814  22.016  10.679
20098W        W91824   5.445  20.270  10.758
20099W        W91825  27.730   4.750   3.702
20100W        W91826  41.269  18.845   5.003
20101W        W91827  19.851  24.107   0.960
20102W        W91828  13.289   4.351   4.519
20103W        W91829  35.520   8.623  13.538
20104W        W91830   2.044  27.505  10.657
20105W        W91831  30.959   2.198  14.320
20106W        W91832  34.613  42.510  11.110
20107W        W91833  18.682   2.716   3.279
20108W        W91834  44.759  11.330  12.590
20109W        W91835  32.111  23.498  12.410
20110W        W91836  33.408   6.232   3.564
20111W        W91837  15.676  24.503  12.396
20112W        W91838   6.689   5.635   3.271
20113W        W91839  11.182   5.850  12.901
20114W        W91840  33.478  23.449  13.083
20115W        W91841  23.205  26.581  11.983
20116W        W91842  20.261   4.385  12.795
20117W        W91843   1.882  30.125   1.697
20118W        W91844  24.146  10.808   3.838
20119W        W91845   7.496  20.791   2.043
20120W        W91846  18.114  32.418   0.477
20121W        W91847   7.752   8.571  11.154
20122W        W91848  38.142  37.344  14.546
20123W        W91849  16.711  28.396  12.596
20124W        W91850  20.051  40.546  13.094
20125W        W91851  12.111   3.090  12.588
20126W        W91852   9.837   9.669   2.357
20127W        W91853  21.776   0.036   1.276
20128W        W91854  19.518  36.091  12.997
20129W        W91855  37.807   4.551  11.124
20130W        W91856   5.043  31.497   2.595
20131W        W91857  31.155  41.358   0.844
20132W        W91858  22.624   4.436   4.440
20133W        W91859  10.282  14.205   4.059
20134W        W91860  41.953  22.433   2.916
20135W        W91861   2.793  27.644   1.991
20136W        W91862  40.903  42.702  14.448
20137W        W91863  31.086  27.574  14.911
20138W        W91864  40.633  26.984   2.226
20139W        W91865  11.946  30.176   4.578
20140W        W91866  32.642   5.928  13.879
20141W        W91867  17.162  22.525   2.621
20142W        W91868  38.040  24.985  10.632
20143W        W91869  17.300  24.716   2.203
20144W        W91870  16.053  31.511  11.917
20145W        W91871  29.468  16.755  13.015
20146W        W91872  29.011  27.476  14.283
20147W        W91873  24.927   8.384   0.759
20148W        W91874  24.690  19.222  12.559
20149W        W91875  15.316   5.402   4.665
20150W        W91876  40.587  36.974  13.863
20151W        W91877  30.000   8.457   0.810
20152W        W91878   6.137  35.633   3.183
20153W        W91879   4.270  34.161  14.526
20154W        W91880  33.064  40.478   4.922
20155W        W91881  21.439  25.459   3.865
20156W        W91882   9.720  28.602  11.315
20157W        W91883  12.788  16.631  14.971
20158W        W91884  16.765  27.298   3.445
20159W        W91885  38.038  41.417  11.610
20160W        W91886  27.067  10.383  13.823
20161W        W91887   9.836  43.462   0.346
20162W        W91888  19.109  28.134  13.494
20163W        W91889  15.488  14.685   4.540
20164W        W91890  30.078  18.363  13.485
20165W        W91891  39.890  20.169   0.026
20166W        W91892   9.189  40.583   4.172
20167W        W91893  33.093   5.531  12.484
20168W        W91894   7.836  26.579  11.522
20169W        W91895   9.535  13.658  10.941
20170W        W91896  37.581  18.719  10.540
20171W        W91897   8.312  20.294   2.869
20172W        W91898  37.521   8.644  10.905
20173W        W91899  39.920   1.474   2.653
20174W        W91900  44.766  31.344  13.416
20175W        W91901   4.467   2.485   2.774
20176W        W91902  12.800  15.550  13.184
20177W        W91903  28.512   6.201   4.094
20178W        W91904  41.459  42.348   4.849
20179W        W91905  40.435  25.928  11.147
20180W        W91906   8.211   1.771  12.520
20181W        W91907  10.324   1.558  10.696
20182W        W91908   3.795  35.613   3.115
20183W        W91909  11.374  10.710   0.411
20184W        W91910   2.382  23.335   4.695
20185W        W91911  30.571  21.673   2.993
20186W        W91912   3.573  37.017  11.987
20187W        W91913  39.421  27.096   4.661
20188W        W91914  28.259  38.466  14.844
20189W        W91915  36.217   5.203  12.027
20190W        W91916  21.807   4.515   0.484
20191W        W91917  32.196  20.250  14.373
20192W        W91918  25.496   4.102   3.661
20193W        W91919  17.331   5.862  10.397
20194W        W91920  22.024  39.408   1.173
20195W        W91921  35.451  10.643  10.731
20196W        W91922  29.938   6.669   2.796
20197W        W91923   0.962   6.294   3.552
20198W        W91924   0.348  26.198   0.842
20199W        W91925  40.798  14.202  14.858
20200W        W91926  22.324  24.696   9.793
20201W        W91927  25.010  33.575   0.420
20202W        W91928  21.259  33.997  14.717
20203W        W91929  19.615   0.838  13.138
20204W        W91930  17.744  38.273  12.358
20205W        W91931  12.805  34.508   4.172
20206W        W91932  44.173  19.108  12.816
20207W        W91933   6.972  42.572   0.363
20208W        W91934  37.379  13.170  11.528
20209W        W91935  21.239  28.004  10.251
20210W        W91936  16.557  38.848  10.680
20211W        W91937  14.266  37.097  12.891
20212W        W91938  23.112  32.230  12.525
20213W        W91939   8.455  20.885   4.575
20214W        W91940  40.924  18.745  13.383
20215W        W91941  39.559  12.807   3.340
20216W        W91942  20.692   9.607   4.710
20217W        W91943   0.701   6.748  11.697
20218W        W91944  34.267  22.643   1.326
20219W        W91945  31.014  18.062  10.284
20220W        W91946  29.129  43.794   0.158
20221W        W91947  21.669  25.568   2.982
20222W        W91948  26.208  21.413   1.375
20223W        W91949  31.037  25.205  13.322
20224W        W91950  20.530  41.478  10.767
20225W        W91951  42.105  38.408   0.328
20226W        W91952  11.895  40.103   4.574
20227W        W91953  21.771  32.909   2.174
20228W        W91954  12.701  26.557  14.657
20229W        W91955  15.759  28.758   4.910
20230W        W91956   2.873  36.167  10.700
20231W        W91957  31.533  24.999   4.910
20232W        W91958   6.622  33.491  10.641
20233W        W91959  27.707  32.115   0.910
20234W        W91960  39.018  33.507   4.170
20235W        W91961  44.254   8.233  14.935
20236W        W91962   0.274  34.928   4.438
20237W        W91963   6.971  25.263  11.132
20238W        W91964  33.812  39.074  14.499
20239W        W91965  14.808  42.986  13.310
20240W        W91966  36.468  41.504   1.512
20241W        W91967  42.960  24.468   4.431
20242W        W91968  13.006   6.185  13.978
20243W        W91969  29.540  11.020  12.123
20244W        W91970  11.349  32.375  13.998
20245W        W91971  18.947  39.747   2.750
20246W        W91972  43.479  37.730  11.143
20247W        W91973  16.794  34.205  12.098
20248W        W91974  28.915  29.589   3.441
20249W        W91975  24.547  12.788  13.938
20250W        W91976   7.889   4.636   5.212
20251W        W91977  31.965  37.572  11.747
20252W        W91978  44.989  11.665   0.735
20253W        W91979  27.614  42.904   3.880
20254W        W91980   0.283  38.509   3.805
20255W        W91981  21.029   9.813  10.776
20256W        W91982   6.520  43.417   3.405
20257W        W91983  28.482  21.334   2.436
20258W        W91984   5.607  29.456  14.166
20259W        W91985  18.843  18.860  14.335
20260W        W91986  30.633   8.524  14.988
20261W        W91987  35.397  39.159   1.509
20262W        W91988   5.784   5.703  14.111
20263W        W91989  32.022  10.185   5.100
20264W        W91990   7.859   2.474   2.260
20265W        W91991  18.251  25.223   4.052
20266W        W91992  34.608  37.290   4.645
20267W        W91993  42.743   5.190   1.625
20268W        W91994   6.708   0.909  12.825
20269W        W91995  29.956  26.032  13.058
20270W        W91996  12.285   0.905   2.911
20271W        W91997  26.776  17.338  13.004
20272W        W91998  19.670  24.100  12.160
20273W        W91999  31.929  12.199   4.018
20274W        W92000  14.203  38.577   9.752
20275W        W92001   8.229   5.766  14.470
20276W        W92002  37.655   8.786  14.136
20277W        W92003  15.635  38.500  14.982
20278W        W92004  10.094  33.379   4.987
20279W        W92005  13.485   3.370  12.435
20280W        W92006  30.337  25.506  11.668
20281W        W92007   4.873   9.346   2.005
20282W        W92008  31.704  17.077  14.090
20283W        W92009  20.520  14.064   5.176
20284W        W92010  11.899  33.047  11.220
20285W        W92011   5.302  22.764   1.334
20286W        W92012  42.561  29.474   2.308
20287W        W92013   2.279  36.481  12.063
20288W        W92014  26.013   0.475   5.044
20289W        W92015  36.032   0.474  14.978
20290W        W92016  40.670  31.614  12.535
20291W        W92017   2.405  40.910   0.436
20292W        W92018  18.299  43.326  12.397
20293W        W92019  42.091   2.442   1.036
20294W        W92020  40.513  43.068  14.496
20295W        W92021  38.864  26.017   2.744
20296W        W92022  15.057  27.424   4.229
20297W        W92023  17.605  38.478   4.588
20298W        W92024   7.094  40.995   3.680
20299W        W92025  41.068  10.857  13.868
20300W        W92026  20.301  31.448   2.796
20301W        W92027  10.213  23.089   5.409
20302W        W92028  31.705   0.448  12.931
20303W        W92029  29.832  15.828   4.980
20304W        W92030   8.905  10.396   4.193
20305W        W92031  10.420  42.070   3.197
20306W        W92032  44.843  16.087   2.116
20307W        W92033   9.168  28.505  14.363
20308W        W92034   5.394  15.201   3.262
20309W        W92035  26.537  26.668   4.511
20310W        W92036  28.505  10.721  14.383
20311W        W92037  10.645  36.436  12.507
20312W        W92038  20.669  31.809   2.943
20313W        W92039  30.489  28.052   4.555
20314W        W92040   5.123  39.908  13.975
20315W        W92041  44.301  24.125   4.554
20316W        W92042   9.863  41.735   0.513
20317W        W92043  42.424  13.208  11.605
20318W        W92044  42.506   4.255   4.361
20319W        W92045   1.144  21.598  13.341
20320W        W92046   8.079  34.786  14.920
20321W        W92047  32.268  40.873   4.966
20322W        W92048  12.561  24.972  12.894
20323W        W92049  19.841  15.601  14.475
20324W        W92050   6.706  25.760   2.617
20325W        W92051  22.925  34.297  13.150
20326W        W92052  44.874   9.795  14.688
20327W        W92053  29.740   7.565   4.990
20328W        W92054   4.839   5.152  10.087
20329W        W92055  10.844  17.023  11.171
20330W        W92056  31.313  44.051  14.415
20331W        W92057  27.124  34.065  14.942
20332W        W92058  13.615  32.675  11.494
20333W        W92059  18.749   7.279  12.142
20334W        W92060  37.405  30.363  11.440
20335W        W92061  27.462  25.429   1.719
20336W        W92062  21.238   1.322  14.206
20337W        W92063  26.590  27.280   0.822
20338W        W92064  23.051  15.695   4.960
20339W        W92065  36.962  33.410  11.231
20340W        W92066  13.520  37.547  12.075
20341W        W92067   8.307  23.977  14.331
20342W        W92068  39.382  28.408   1.364
20343W        W92069   9.688  33.146  14.396
20344W        W92070  14.730  16.219   4.029
20345W        W92071   4.730  26.077   4.055
20346W        W92072  19.806   9.827  12.187
20347W        W92073  30.117  36.866  10.554
20348W        W92074  17.437  27.872   0.517
20349W        W92075   8.275   8.226  12.696
20350W        W92076   4.224  23.516  13.881
20351W        W92077   7.767   5.851   1.220
20352W        W92078  31.015  15.691  12.128
20353W        W92079  34.936  28.572   1.172
20354W        W92080  13.273  36.719  12.054
20355W        W92081  13.541   6.840  13.371
20356W        W92082  22.462   7.709   2.793
20357W        W92083   5.960  12.527  10.702
20358W        W92084  29.929   2.155   3.019
20359W        W92085  41.369  19.838  10.967
20360W        W92086  27.955  32.979   3.879
20361W        W92087  10.174  14.534   0.430
20362W        W92088   0.100   9.072   3.299
20363W        W92089  27.440   2.967  14.940
20364W        W92090  39.967  26.541  13.789
20365W        W92091  42.400  26.184   3.529
20366W        W92092  41.301   1.056   4.632
20367W        W92093  31.145  25.235  14.272
20368W        W92094  27.034  20.608   2.682
20369W        W92095  40.725  16.672   4.120
20370W        W92096  32.496  24.662  14.446
20371W        W92097  28.048  14.756   2.449
20372W        W92098  40.521   4.034   4.158
20373W        W92099  40.305  25.163   3.619
20374W        W92100  33.396  39.066   2.598
20375W        W92101  23.707   9.402   3.345
20376W        W92102  14.223   8.845   1.928
20377W        W92103  44.215   4.410  12.462
20378W        W92104   1.480   1.096   2.674
20379W        W92105  35.064  21.214   4.623
20380W        W92106   7.856  28.716   2.827
20381W        W92107  20.682  22.898   0.960
20382W        W92108   7.670  43.366   0.932
20383W        W92109   2.273   1.891   0.921
20384W        W92110  21.062  22.675  11.114
20385W        W92111  17.188  17.210   1.243
20386W        W92112  10.975  12.059  10.421
20387W        W92113   0.203  33.356  14.341
20388W        W92114  30.491  37.811   3.130
20389W        W92115  16.727  41.122   2.087
20390W        W92116   3.508   7.349  14.245
20391W        W92117   0.099   6.863   3.751
20392W        W92118  15.198  33.515  12.538
20393W        W92119  12.090  31.596   2.220
20394W        W92120   6.406  41.690  13.344
20395W        W92121  20.566  36.532  14.657
20396W        W92122  37.156   2.894  11.101
20397W        W92123  20.701  36.663  13.744
20398W        W92124   0.660  35.871   4.286
20399W        W92125  38.483   8.314  12.416
20400W        W92126  40.067  18.308  10.633
20401W        W92127  16.588  40.318  10.216
20402W        W92128   5.481  24.199  12.137
20403W        W92129   9.639  22.075  12.573
20404W        W92130   0.686  13.121  11.297
20405W        W92131  23.936  25.434   5.437
20406W        W92132   5.152  30.190   2.070
20407W        W92133  11.276   1.830  13.270
20408W        W92134  10.395  29.645  11.311
20409W        W92135   7.741  33.122  14.840
20410W        W92136  26.961  19.130   0.579
20411W        W92137  36.522  31.006   1.410
20412W        W92138  41.813  37.270   3.259
20413W        W92139  39.181   5.363   1.108
20414W        W92140   3.841  37.169   0.922
20415W        W92141  20.799  17.212  12.892
20416W        W92142  38.558  17.799  12.104
20417W        W92143   2.912   5.685  12.130
20418W        W92144  15.718  33.634  14.804
20419W        W92145  27.630  20.690   2.466
20420W        W92146  15.598  14.685   0.644
20421W        W92147  19.216  37.799  12.575
20422W        W92148  18.892   8.138   4.216
20423W        W92149   7.955  31.512   3.292
20424W        W92150   9.757  40.538  14.909
20425W        W92151  26.562  36.485   3.858
20426W        W92152  38.538  34.474   2.220
20427W        W92153  35.656   7.283   1.865
20428W        W92154   5.766  39.830  12.425
20429W        W92155  23.059  35.651   1.191
20430W        W92156  17.754  44.032   2.777
20431W        W92157  37.043   0.706   2.137
20432W        W92158  17.058  31.504   1.616
20433W        W92159   1.437  44.618  13.004
20434W        W92160  41.425   2.666   3.890
20435W        W92161  19.659  17.077  13.228
20436W        W92162   8.166   0.698  11.100
20437W        W92163  22.761   1.064   4.096
20438W        W92164  33.116   3.749   1.311
20439W        W92165   8.103  33.803  12.689
20440W        W92166   1.843   9.786  13.265
20441W        W92167  20.459  43.391   2.362
20442W        W92168  13.733  16.619  14.306
20443W        W92169  35.960  15.750   1.289
20444W        W92170  24.734  31.412  12.521
20445W        W92171  30.456   3.700   1.827
20446W        W92172  13.349  21.912  13.935
20447W        W92173  15.754  21.528   2.226
20448W        W92174   5.355  29.610  12.093
20449W        W92175   7.948   7.236   0.831
20450W        W92176  43.579   8.161   3.484
20451W        W92177   6.483   5.050  13.959
20452W        W92178  26.077  32.939   1.321
20453W        W92179  20.497  14.111   3.749
20454W        W92180  35.480  31.446  13.461
20455W        W92181  43.731  37.675   4.655
20456W        W92182   0.499   5.613  11.261
20457W        W92183  34.087   0.263   1.847
20458W        W92184   9.488  39.504   3.387
20459W        W92185  28.653  18.287   0.930
20460W        W92186   3.832  13.272  10.905
20461W        W92187  44.504  24.605   4.609
20462W        W92188  14.714  34.325  11.888
20463W        W92189  11.726  38.915  14.781
20464W        W92190  42.526   1.821  12.175
20465W        W92191  41.523  24.404  14.890
20466W        W92192   6.987  30.675   0.960
20467W        W92193  35.879  10.353   4.660
20468W        W92194  27.267  12.677   2.909
20469W        W92195  38.511   4.404   0.911
20470W        W92196  26.610  10.688   3.650
20471W        W92197   3.435  41.124  14.456
20472W        W92198  40.978  10.762   0.881
20473W        W92199   1.033  29.092   0.336
20474W        W92200  34.881  36.634  14.099
20475W        W92201   0.015  28.493  13.909
20476W        W92202   6.798   2.745  11.416
20477W        W92203  33.441  15.721  12.499
20478W        W92204  18.553  36.219  12.946
20479W        W92205  25.055   4.774  14.508
20480W        W92206  24.995  31.329  13.125
20481W        W92207  27.537  37.534  10.870
20482W        W92208  36.868  23.920  11.192
20483W        W92209   8.745  19.561   3.759
20484W        W92210  40.745  26.963   0.231
20485W        W92211   8.674  39.337  13.947
20486W        W92212  43.656  12.777   3.255
20487W        W92213   3.975  21.337  14.268
20488W        W92214  24.045  23.907  14.158
20489W        W92215  40.225  26.491  13.353
20490W        W92216  19.485   5.088   4.614
20491W        W92217  27.970  20.022  12.447
20492W        W92218  10.849  39.332   3.409
20493W        W92219   6.310   4.374   3.243
20494W        W92220   6.737   5.499   0.972
20495W        W92221   8.099   8.867   4.083
20496W        W92222  34.502   5.658  14.397
20497W        W92223  23.149   3.433  10.564
20498W        W92224  25.466   5.347   1.778
20499W        W92225  38.909  30.125   0.210
20500W        W92226  29.561  33.863   1.842
20501W        W92227   7.613  19.013   3.219
20502W        W92228  20.267  40.248   1.924
20503W        W92229  15.289   1.304   0.761
20504W        W92230  33.037  29.071   1.685
20505W        W92231  25.267   5.337  10.568
20506W        W92232  19.468  18.663  13.846
20507W        W92233   0.759  32.094   2.108
20508W        W92234  31.926   7.819   1.866
20509W        W92235   9.925  31.245   1.430
20510W        W92236  35.251  32.971  11.586
20511W        W92237  39.021  14.205  12.364
20512W        W92238  44.973  12.106  14.301
20513W        W92239  39.955   7.224  11.937
20514W        W92240   7.439  23.070   2.751
20515W        W92241  16.535  14.793   4.576
20516W        W92242  42.478  14.386   0.878
20517W        W92243  37.195  23.497   1.190
20518W        W92244   2.271  43.545  14.495
20519W        W92245  40.363  19.041  14.414
20520W        W92246  44.554  24.109   4.112
20521W        W92247   6.719   1.980   2.565
20522W        W92248  24.313   0.303   2.348
20523W        W92249  14.895  43.906  14.375
20524W        W92250   6.836  14.335  13.626
20525W        W92251  34.301  10.807   0.412
20526W        W92252  39.367  11.171  12.563
20527W        W92253  16.515  23.646   2.463
20528W        W92254  19.366  42.422   0.982
20529W        W92255  27.891  40.695   1.723
20530W        W92256   1.993  10.955   3.584
20531W        W92257  31.583  12.715  12.571
20532W        W92258   9.274  10.271   2.620
20533W        W92259  42.791  24.409  13.568
20534W        W92260  33.081  43.315   3.810
20535W        W92261   6.144   7.391  13.503
20536W        W92262  18.259  21.527   3.116
20537W        W92263  29.448   0.736  12.567
20538W        W92264  29.169  31.534  11.462
20539W        W92265   1.493  14.650  12.695
20540W        W92266  44.135  37.293   0.854
20541W        W92267  41.946  16.229  13.858
20542W        W92268  41.361  15.411  12.427
20543W        W92269   1.183  19.962  12.582
20544W        W92270  44.412  24.906   1.278
20545W        W92271  17.715  17.580   4.315
20546W        W92272  41.323  41.427   2.496
20547W        W92273  43.680  10.837   3.111
20548W        W92274  42.377  11.679   3.130
20549W        W92275  23.394  30.364   4.233
20550W        W92276   4.420   0.790   4.359
20551W        W92277  34.142  44.895  12.682
20552W        W92278  24.125  42.160   4.747
20553W        W92279  23.109   2.919   4.554
20554W        W92280  36.329  36.793  14.306
20555W        W92281  15.716  24.955  10.585
20556W        W92282  24.655   7.778   2.858
20557W        W92283  28.877  11.247  14.819
20558W        W92284  43.560  29.075   0.316
20559W        W92285   5.660  40.083   3.255
20560W        W92286  37.946  35.676  11.627
20561W        W92287  41.332  20.556   1.412
20562W        W92288  20.947  29.150  14.887
20563W        W92289  19.083  26.142   2.886
20564W        W92290  31.755   8.702   3.069
20565W        W92291   0.333  42.174  11.430
20566W        W92292  13.051  41.097  12.455
20567W        W92293  18.367  17.614   1.931
20568W        W92294   0.634   8.476   9.834
20569W        W92295  38.242  14.513   5.114
20570W        W92296  40.061  29.982  14.842
20571W        W92297  25.745  26.477   1.822
20572W        W92298  44.768   5.756  11.937
20573W        W92299   2.128  33.807   2.224
20574W        W92300  19.782   8.635   1.794
20575W        W92301  15.667  29.397  10.979
20576W        W92302  30.837  36.885   1.844
20577W        W92303  16.765  35.540   4.198
20578W        W92304   8.296  34.557  13.117
20579W        W92305  35.667  30.803  13.848
20580W        W92306  24.248  10.904   4.326
20581W        W92307   7.974  41.749   2.201
20582W        W92308  31.389  25.086   2.872
20583W        W92309  20.056  16.270  10.674
20584W        W92310  25.450  10.099   4.862
20585W        W92311   6.581   7.785   4.648
20586W        W92312  40.052  34.894  11.095
20587W        W92313   8.515  31.477  14.853
20588W        W92314  32.000  11.230  11.111
20589W        W92315  14.066  25.979  13.816
20590W        W92316   8.735  10.783  14.472
20591W        W92317   1.983  19.643   2.648
20592W        W92318   9.781  14.714   4.628
20593W        W92319  42.854  37.939  14.463
20594W        W92320  10.228  18.838   0.478
20595W        W92321   9.179  40.515   3.329
20596W        W92322   2.696  33.861   3.951
20597W        W92323  27.493  24.020  11.250
20598W        W92324  20.742  37.503  10.979
20599W        W92325  17.726  25.748   1.836
20600W        W92326  37.416  15.576  13.476
20601W        W92327  31.630  25.479   3.180
20602W        W92328   1.981  19.194   3.874
20603W        W92329  41.825  15.557   1.015
20604W        W92330  18.257   5.693  13.485
20605W        W92331   3.322   0.979   4.222
20606W        W92332  22.128  31.630  10.737
20607W        W92333  14.581  33.137   2.757
20608W        W92334  16.426  20.307  12.796
20609W        W92335  38.115  32.357   0.724
20610W        W92336  42.869  23.554  11.962
20611W        W92337   9.199   9.231   4.348
20612W        W92338  36.828  26.688  13.145
20613W        W92339  31.654  37.882   1.227
20614W        W92340  40.249  27.283  12.920
20615W        W92341  19.537  22.122   1.368
20616W        W92342   1.852  16.636  13.763
20617W        W92343   3.462  35.982  12.875
20618W        W92344  44.463  25.025   0.779
20619W        W92345   3.191   6.707   1.005
20620W        W92346  31.408  26.177   3.517
20621W        W92347  33.658  17.950   4.167
20622W        W92348   5.252   4.826  10.049
20623W        W92349  14.165  24.554  11.097
20624W        W92350  33.097  24.291   4.203
20625W        W92351  15.093   8.769  12.984
20626W        W92352   4.820   9.234   1.479
20627W        W92353  22.673  44.818   1.273
20628W        W92354  13.436  22.945  12.577
20629W        W92355  26.948  36.911  14.333
20630W        W92356  21.118  38.022   1.157
20631W        W92357  28.351  39.003   0.728
20632W        W92358  32.045  14.483  12.370
20633W        W92359   1.596   0.436  12.534
20634W        W92360   5.204  37.216  13.468
20635W        W92361   0.403  39.427  12.188
20636W        W92362  39.864  38.535  10.800
20637W        W92363  43.068  24.112  11.463
20638W        W92364   2.182  18.102   3.196
20639W        W92365  29.909  22.849  13.920
20640W        W92366  22.742  29.647  11.063
20641W        W92367  25.481  17.360   0.748
20642W        W92368  22.118   9.386  14.416
20643W        W92369  30.943   2.962  14.667
20644W        W92370  26.543  29.967  11.542
20645W        W92371  19.849  18.514  14.228
20646W        W92372  22.033   1.486  13.896
20647W        W92373  40.903  23.722   4.067
20648W        W92374  29.027  11.357   3.624
20649W        W92375   4.599   6.540   5.057
20650W        W92376  14.060   0.801   4.147
20651W        W92377  17.133   4.250   4.591
20652W        W92378  14.645   0.950  12.495
20653W        W92379  21.666  38.449  12.395
20654W        W92380  11.750  36.954  11.678
20655W        W92381  25.634  14.112   2.918
20656W        W92382   9.598   8.805   4.565
20657W        W92383  15.148   6.737   4.652
20658W        W92384  27.231  37.028   0.816
20659W        W92385  11.161   9.274   2.142
20660W        W92386  10.171   3.343  12.725
20661W        W92387  43.600   0.400  11.536
20662W        W92388  39.007  13.637  13.681
20663W        W92389  44.097  18.320  11.490
20664W        W92390  37.863  12.249   2.667
20665W        W92391   6.073  32.429   2.819
20666W        W92392  31.175  17.268  11.515
20667W        W92393  11.078  14.396   2.681
20668W        W92394  41.275  15.185  11.961
20669W        W92395  25.431   3.746  12.491
20670W        W92396  17.639   5.839   1.921
20671W        W92397  15.588   0.229  10.750
20672W        W92398  16.655  40.295   5.726
20673W        W92399  17.133   2.359   3.344
20674W        W92400  40.984   7.681  14.325
20675W        W92401  17.778  40.236  10.557
20676W        W92402  35.891   8.775  12.925
20677W        W92403  42.399  41.337   3.855
20678W        W92404   2.717  31.191   3.486
20679W        W92405  18.054  18.531  14.476
20680W        W92406  36.764  25.837  11.221
20681W        W92407  29.168   7.648  11.983
20682W        W92408  12.814  17.679   4.476
20683W        W92409   9.702  27.484  12.927
20684W        W92410  16.073  33.054   4.116
20685W        W92411  20.141  33.803   4.135
20686W        W92412   5.645   1.498  11.028
20687W        W92413  14.845   5.898   4.255
20688W        W92414  20.814  13.556  11.053
20689W        W92415  35.007  33.110   1.487
20690W        W92416  44.886  38.040  10.673
20691W        W92417  27.550   7.889  14.836
20692W        W92418  20.719  33.233  14.919
20693W        W92419   7.968  21.020  11.708
20694W        W92420  22.566  23.208   4.607
20695W        W92421  26.628  30.517   1.352
20696W        W92422   5.154  31.949  12.903
20697W        W92423   0.445  21.074  11.079
20698W        W92424  25.673  12.622   0.286
20699W        W92425  41.542  34.716   4.735
20700W        W92426  38.291  12.910   0.606
20701W        W92427  42.289  22.004  12.654
20702W        W92428   7.287  39.747  14.494
20703W        W92429  16.570  41.372   0.917
20704W        W92430  24.515  34.616  13.812
20705W        W92431  25.899   5.859   1.894
20706W        W92432  20.261  12.028  11.472
20707W        W92433  11.122  37.805   4.338
20708W        W92434  21.246  18.694  11.775
20709W        W92435   7.891  24.679   4.644
20710W        W92436  13.319  26.509   1.355
20711W        W92437  23.621  19.839  11.640
20712W        W92438  13.806   7.793  13.504
20713W        W92439   5.402  23.167  14.869
20714W        W92440   4.764  42.757   4.158
20715W        W92441  31.076  25.653  10.252
20716W        W92442  22.964  40.947   2.666
20717W        W92443  42.909  34.662   1.708
20718W        W92444  39.392  16.505   2.686
20719W        W92445  17.757   2.953   0.495
20720W        W92446  38.939  40.520   1.821
20721W        W92447  18.998  17.736   4.655
20722W        W92448   3.584  11.298   3.152
20723W        W92449  17.324   9.774  14.512
20724W        W92450  32.683   1.362   1.487
20725W        W92451  18.667  38.787  12.614
20726W        W92452   4.839  39.959  11.169
20727W        W92453  37.850  28.548  14.081
20728W        W92454  24.598  22.982  12.587
20729W        W92455  30.096  13.039   4.328
20730W        W92456   9.120   3.877  13.356
20731W        W92457  39.377  20.162   1.427
20732W        W92458  29.940  43.936   4.863
20733W        W92459   9.911   4.599  12.508
20734W        W92460  13.248  20.014  13.922
20735W        W92461  23.963  13.760  11.621
20736W        W92462   5.925  43.717  10.651
20737W        W92463  32.999  33.657  12.231
20738W        W92464  37.305   6.151   0.938
20739W        W92465  32.453  17.462   2.379
20740W        W92466  16.689   8.294  10.449
20741W        W92467  26.556  43.040  11.186
20742W        W92468  17.745  37.927   2.300
20743W        W92469  21.986   8.918   0.371
20744W        W92470  31.892   3.411   1.386
20745W        W92471  41.802  23.116   1.649
20746W        W92472  21.006  44.403   0.883
20747W        W92473  10.791  25.714  12.512
20748W        W92474  40.927   5.611   0.328
20749W        W92475  40.547  29.472   1.822
20750W        W92476   0.724  26.418  11.610
20751W        W92477  11.385  11.689   2.214
20752W        W92478  10.287  43.301  12.893
20753W        W92479  11.888   3.044  13.578
20754W        W92480  19.719  31.813   3.092
20755W        W92481  18.582  29.287   2.645
20756W        W92482  37.516  25.057  11.577
20757W        W92483  34.039  41.535  12.065
20758W        W92484  14.631   9.618   0.847
20759W        W92485  19.142   1.769   2.860
20760W        W92486   1.759   0.330   0.378
20761W        W92487  37.363  36.162  12.803
20762W        W92488  31.939  39.875  13.364
20763W        W92489  36.410  41.091  12.040
20764W        W92490  10.503  31.987   4.649
20765W        W92491   7.305  12.359   0.420
20766W        W92492  19.984   9.854   1.385
20767W        W92493  19.990  26.751   1.279
20768W        W92494  32.832  26.010   3.601
20769W        W92495   0.016  28.562   3.122
20770W        W92496  38.817  14.151   1.325
20771W        W92497  37.769  25.948  12.536
20772W        W92498   8.074  34.037  14.533
20773W        W92499  34.997  25.577  11.912
20774W        W92500   4.727   6.663  12.263
20775W        W92501  28.107  36.318   3.683
20776W        W92502  29.536  13.780  10.541
20777W        W92503  36.516   2.903   2.415
20778W        W92504   2.379   2.799  10.757
20779W        W92505  25.115  29.140  14.385
20780W        W92506   1.364  40.303  12.043
20781W        W92507   3.657  30.552   4.097
20782W        W92508   9.412  16.239   4.645
20783W        W92509  22.214   7.828   4.683
20784W        W92510  34.181  13.817   0.318
20785W        W92511  29.216  26.626   1.241
20786W        W92512  39.945  31.156   2.481
20787W        W92513  43.973  31.140   3.355
20788W        W92514   9.117  31.794   3.254
20789W        W92515   3.713  35.567   2.610
20790W        W92516  29.765  26.798   5.052
20791W        W92517  27.693  19.183  13.986
20792W        W92518  35.532  23.430   4.127
20793W        W92519  27.017  28.727  14.376
20794W        W92520  44.875   3.580  10.759
20795W        W92521  25.095   4.229   2.159
20796W        W92522  22.524  23.230   1.658
20797W        W92523  21.534  29.262   4.607
20798W        W92524  43.123  27.497  10.905
20799W        W92525  27.749  42.075  11.220
20800W        W92526  32.888  39.785  10.556
20801W        W92527  18.192  42.278   1.513
20802W        W92528  37.941  41.422   2.444
20803W        W92529  14.292  15.810   4.706
20804W        W92530  37.116  28.218   0.245
20805W        W92531  33.487  28.628  12.848
20806W        W92532  24.809   3.182  12.969
20807W        W92533  41.901  35.850   1.818
20808W        W92534   9.334   4.031   4.517
20809W        W92535   6.302   9.669   4.555
20810W        W92536  20.843  14.162  10.501
20811W        W92537  29.193  31.642   0.005
20812W        W92538  32.594  37.898  12.290
20813W        W92539  42.050  16.196  14.362
20814W        W92540   4.402  38.956   4.457
20815W        W92541  21.136   7.692  13.880
20816W        W92542   4.008  18.690  12.893
20817W        W92543  20.073  29.497  13.861
20818W        W92544  10.638  31.439  13.094
20819W        W92545  13.608  22.468  12.480
20820W        W92546  19.570   3.788   2.328
20821W        W92547   4.172  43.210  11.919
20822W        W92548  36.539  23.463  14.434
20823W        W92549   7.360  31.079   1.474
20824W        W92550  20.304  36.007  11.560
20825W        W92551  29.899  10.097  12.940
20826W        W92552  36.408  28.999   4.792
20827W        W92553  14.169  23.047   4.643
20828W        W92554  32.352  17.798   0.822
20829W        W92555   5.404  29.556   4.366
20830W        W92556  43.891  23.704  13.924
20831W        W92557  26.937  26.127   1.454
20832W        W92558  18.949  24.038  11.600
20833W        W92559  29.404   5.671  14.388
20834W        W92560  19.882  11.756  13.823
20835W        W92561  27.254  27.632  13.768
20836W        W92562  31.739  28.144   3.322
20837W        W92563  38.488  34.922  13.353
20838W        W92564  10.325  25.522  10.193
20839W        W92565   3.765  41.995  14.427
20840W        W92566  25.164  29.567  12.663
20841W        W92567  42.247  36.928  10.777
20842W        W92568  40.877  43.725   0.885
20843W        W92569  38.981  10.393   4.571
20844W        W92570  32.100  30.627   3.678
20845W        W92571  42.879  20.493   3.892
20846W        W92572  44.311  22.286  13.487
20847W        W92573  39.497  21.992   4.122
20848W        W92574  35.768  18.266  13.701
20849W        W92575   4.374   3.954  12.913
20850W        W92576  18.624  14.430  14.821
20851W        W92577  13.356  20.498  11.942
20852W        W92578  25.382  32.031  10.680
20853W        W92579  17.181  15.794   2.166
20854W        W92580  38.981   9.540  11.894
20855W        W92581  26.695  24.663   4.008
20856W        W92582  28.712  31.537  13.897
20857W        W92583  39.626  38.779  13.850
20858W        W92584  21.024  29.704  14.380
20859W        W92585  15.319   4.749   3.340
20860W        W92586  13.568   9.706  12.871
20861W        W92587  22.806  33.996   4.097
20862W        W92588  13.582   7.480  13.118
20863W        W92589  14.295  16.152   2.249
20864W        W92590  29.560  23.658  12.308
20865W        W92591  44.159  35.838  11.990
20866W        W92592  29.362  25.119  10.524
20867W        W92593   7.207  25.867   0.023
20868W        W92594  26.522   7.657  11.884
20869W        W92595   4.936   1.447  11.577
20870W        W92596   1.384  15.573  10.785
20871W        W92597  19.931   3.224   3.338
20872W        W92598  23.658  44.040   0.313
20873W        W92599  39.833  18.781   2.817
20874W        W92600   6.366  31.061   1.463
20875W        W92601  42.684  30.930   2.186
20876W        W92602  44.026   1.185  14.878
20877W        W92603  26.606  14.390  10.542
20878W        W92604  44.960  13.781   3.148
20879W        W92605   5.893   1.249   4.559
20880W        W92606  20.861  21.020   3.732
20881W        W92607   8.843  30.713   1.004
20882W        W92608  10.341  34.076   1.822
20883W        W92609  34.340  13.564  11.659
20884W        W92610  32.085  36.928  13.469
20885W        W92611  17.762  12.564  12.729
20886W        W92612  14.119  27.720   2.261
20887W        W92613  42.181  11.675   4.092
20888W        W92614  21.891   2.853   2.737
20889W        W92615  27.574  39.855   0.759
20890W        W92616  25.432  35.849  10.699
20891W        W92617  44.522  23.534  11.452
20892W        W92618  42.538  37.445  11.513
20893W        W92619  18.785  25.714  13.572
20894W        W92620  13.885  12.033   3.191
20895W        W92621  43.860  11.611  14.482
20896W        W92622   4.091  17.535  12.751
20897W        W92623   0.750  34.142  14.778
20898W        W92624  26.098  43.465  13.580
20899W        W92625   7.670   0.521  12.855
20900W        W92626  41.369  23.905  14.858
20901W        W92627   3.694  11.543  13.857
20902W        W92628   0.697  19.231   1.797
20903W        W92629  11.489  38.981  13.086
20904W        W92630   8.329  32.042   4.224
20905W        W92631  16.065   0.285  14.787
20906W        W92632  40.766  21.203   4.140
20907W        W92633  21.732  12.419  10.273
20908W        W92634  23.134   5.611   2.893
20909W        W92635   8.258  42.272  14.036
20910W        W92636  42.452  32.447  12.406
20911W        W92637  29.691   1.191   2.341
20912W        W92638  35.338   3.672  14.337
20913W        W92639  20.993  41.976   2.762
20914W        W92640  15.520   2.620  13.561
20915W        W92641  13.902  16.028   1.008
20916W        W92642  23.759   1.758  12.063
20917W        W92643  40.922  30.620  14.024
20918W        W92644  39.362  33.612  14.807
20919W        W92645   6.425  18.266  12.374
20920W        W92646  11.386  30.856   4.698
20921W        W92647  18.064   8.491  12.036
20922W        W92648  37.104  44.454   2.179
20923W        W92649  35.889   1.003  14.963
20924W        W92650   7.811  30.492  12.077
20925W        W92651  18.863  11.283   1.841
20926W        W92652   2.844  16.006   0.375
20927W        W92653  29.922   6.415  12.448
20928W        W92654  37.251  32.475  12.953
20929W        W92655  33.635  14.100  14.928
20930W        W92656   8.103  25.339   2.797
20931W        W92657  40.417  30.748  13.836
20932W        W92658  26.118   4.121   4.844
20933W        W92659  16.788  30.606   3.617
20934W        W92660  31.984  37.397  10.574
20935W        W92661  23.254  13.757  14.324
20936W        W92662  33.828  39.349   0.788
20937W        W92663  29.867  25.134  13.911
20938W        W92664   0.505  16.430  11.151
20939W        W92665  17.701  43.201   2.323
20940W        W92666   4.733   7.722  12.027
20941W        W92667  25.166  35.948  14.789
20942W        W92668  36.604  36.273   4.564
20943W        W92669   6.868   2.581   1.765
20944W        W92670  44.749  35.031   0.110
20945W        W92671  29.945  17.669  11.403
20946W        W92672  44.301  40.297   0.251
20947W        W92673   5.788  33.869  13.355
20948W        W92674  17.982  19.832  11.919
20949W        W92675  18.604   0.034  11.964
20950W        W92676  32.310  35.876   4.304
20951W        W92677  44.705  12.750  13.536
20952W        W92678  39.031  10.911   1.886
20953W        W92679  11.663  44.360  13.561
20954W        W92680  14.775   4.444  14.711
20955W        W92681   8.445  27.030  12.765
20956W        W92682  27.102  28.794  11.283
20957W        W92683  32.969  12.199   4.494
20958W        W92684  44.839  12.416  13.919
20959W        W92685  14.339   8.599   2.394
20960W        W92686  17.753  26.972  14.936
20961W        W92687  20.138  19.931   1.244
20962W        W92688  34.128  22.217  14.927
20963W        W92689  29.766  13.213   0.842
20964W        W92690  27.216  23.016   1.080
20965W        W92691  21.000   8.208   2.188
20966W        W92692  21.195  36.913  10.683
20967W        W92693   7.721  42.089  12.061
20968W        W92694  31.118  34.869   1.447
20969W        W92695  25.377  10.543  12.048
20970W        W92696   7.699  23.509  12.738
20971W        W92697  42.955  17.057  10.948
20972W        W92698  42.359   1.973  10.747
20973W        W92699  11.763  15.675   2.066
20974W        W92700   0.438  29.626   2.326
20975W        W92701   4.865   0.768  13.928
20976W        W92702   7.377   7.287   1.738
20977W        W92703  13.157  21.022   1.724
20978W        W92704  42.777  38.776  11.657
20979W        W92705  21.043   4.812   3.766
20980W        W92706  33.492  14.038   0.440
20981W        W92707  15.560  39.802   9.780
20982W        W92708  16.223  24.935  10.703
20983W        W92709  32.546  19.700  10.693
20984W        W92710  15.170  24.929  11.038
20985W        W92711  12.783   3.415   3.223
20986W        W92712  34.515  21.986   2.444
20987W        W92713   7.112   8.626  10.514
20988W        W92714   4.453   8.183   2.171
20989W        W92715   4.576  24.236   3.204
20990W        W92716  22.805   7.089  13.540
20991W        W92717   7.866  43.379  14.864
20992W        W92718  29.017  37.084   0.156
20993W        W92719  31.210  41.753  11.088
20994W        W92720   6.368  39.618  14.304
20995W        W92721   7.294  29.681  12.741
20996W        W92722   8.169  10.275  11.190
20997W        W92723  19.101  27.281   2.764
20998W        W92724   3.586   5.064  12.886
20999W        W92725  21.014  43.868   3.894
21000W        W92726  31.260  43.408   5.068
21001W        W92727  20.688  33.454   4.897
21002W        W92728  21.288  36.935   4.235
21003W        W92729  38.384  44.215  12.589
21004W        W92730  31.649   6.254  12.158
21005W        W92731   0.274  22.220  11.815
21006W        W92732  28.151  22.765  10.559
21007W        W92733  32.358  16.724   1.726
21008W        W92734  17.665  22.600  11.616
21009W        W92735  39.308  21.137   4.165
21010W        W92736  36.843  25.204   4.934
21011W        W92737  32.800  28.097   0.902
21012W        W92738  16.647   8.913   1.371
21013W        W92739  21.107  32.645   1.292
21014W        W92740  12.753  33.166  13.954
21015W        W92741   6.881  23.999  12.575
21016W        W92742  26.201  35.658  11.519
21017W        W92743  16.110   4.336  13.529
21018W        W92744  41.826   7.693  14.952
21019W        W92745  35.766  17.809   2.830
21020W        W92746  35.883  39.457   4.713
21021W        W92747   9.995  13.389  12.406
21022W        W92748  21.677  16.793   1.873
21023W        W92749  37.827  16.399  13.456
21024W        W92750   0.192  11.644  10.867
21025W        W92751  15.045  34.489   0.831
21026W        W92752  31.477  23.917  11.463
21027W        W92753  44.382  39.009   2.930
21028W        W92754  30.856  15.819   4.151
21029W        W92755   0.413   7.273  14.863
21030W        W92756  35.125  18.651  12.435
21031W        W92757  22.282  12.866   4.279
21032W        W92758  44.889  29.105  10.746
21033W        W92759  20.986   4.739   0.768
21034W        W92760  11.575   0.329  13.516
21035W        W92761  20.857  39.565  10.597
21036W        W92762  20.463  16.261   0.005
21037W        W92763  39.989   4.357  12.983
21038W        W92764  37.301  28.341  11.468
21039W        W92765  36.717  28.044   4.589
21040W        W92766   2.790  36.058   4.137
21041W        W92767  35.921  29.081   0.407
21042W        W92768  25.956  24.518  14.810
21043W        W92769   2.303  21.497   3.889
21044W        W92770  41.850   2.290  10.745
21045W        W92771  22.051   2.590  11.640
21046W        W92772  32.910  16.551   1.250
21047W        W92773  42.506   1.871   1.409
21048W        W92774  17.726  21.180  13.561
21049W        W92775  21.765  23.946   3.619
21050W        W92776  18.814   8.982  12.465
21051W        W92777   5.406   3.852  13.030
21052W        W92778   9.190  39.390   2.472
21053W        W92779  11.324  41.768   1.893
21054W        W92780  38.752  28.467  11.184
21055W        W92781  28.448  14.649  11.536
21056W        W92782  37.565  42.421  13.264
21057W        W92783  11.591  22.710   4.059
21058W        W92784  37.470   5.173  13.379
21059W        W92785   8.219  35.104  13.792
21060W        W92786  23.976  37.800   2.780
21061W        W92787  33.896  37.906   1.303
21062W        W92788  23.984  16.595  12.808
21063W        W92789  33.916  26.866  11.178
21064W        W92790  41.800  15.040  12.683
21065W        W92791  13.104  23.610  12.099
21066W        W92792  25.034  39.904   3.830
21067W        W92793   4.452  30.746   2.916
21068W        W92794  37.619  44.002   2.241
21069W        W92795  29.701  30.663   3.686
21070W        W92796  42.632  15.773   0.701
21071W        W92797  30.609  13.874  11.630
21072W        W92798  18.162  35.388   0.238
21073W        W92799  11.608   3.532   0.494
21074W        W92800  12.509  32.541  14.578
21075W        W92801  42.365  11.217   3.405
21076W        W92802  10.114  34.070  11.162
21077W        W92803   7.723  28.379  14.364
21078W        W92804  42.870  18.467   0.003
21079W        W92805  16.119  37.602  12.926
21080W        W92806  10.121  19.793  12.909
21081W        W92807   0.100  17.601  14.932
21082W        W92808  23.292  34.157   3.888
21083W        W92809  32.849   2.947  11.136
21084W        W92810  31.553  29.493  10.884
21085W        W92811   1.403  35.508  12.409
21086W        W92812  43.323  30.520   4.666
21087W        W92813  28.231  32.972   4.294
21088W        W92814  40.735   7.429   9.971
21089W        W92815   2.004   6.920   3.613
21090W        W92816  33.866  25.327  14.694
21091W        W92817  21.714   3.413   1.894
21092W        W92818   4.378  25.334   1.715
21093W        W92819  31.081  43.324   4.594
21094W        W92820  42.347  12.189  12.082
21095W        W92821  22.105  12.276   1.177
21096W        W92822  27.211  11.758   2.340
21097W        W92823  38.315  34.489   3.687
21098W        W92824  19.022  28.706   3.087
21099W        W92825   9.376  26.674   1.816
21100W        W92826  40.518  26.749  10.725
21101W        W92827  36.916   4.949  11.061
21102W        W92828  36.133  23.720   1.277
21103W        W92829   8.399   1.691  10.711
21104W        W92830   0.175  40.332  12.419
21105W        W92831   0.834  34.819   1.817
21106W        W92832  25.278   0.734  11.961
21107W        W92833  41.587  42.812  12.509
21108W        W92834  34.577   5.153   1.858
21109W        W92835  43.899  29.485  13.928
21110W        W92836  29.159  14.360   3.178
21111W        W92837  21.963  31.180  11.066
21112W        W92838  31.770  33.498  11.407
21113W        W92839   8.864  21.037  12.896
21114W        W92840  42.515   3.389   0.831
21115W        W92841  43.755   0.271   3.709
21116W        W92842  11.228  32.516   1.344
21117W        W92843   0.447  35.817   0.218
21118W        W92844  31.503   4.427   3.193
21119W        W92845  37.850  27.207  13.303
21120W        W92846  23.672  10.875  11.373
21121W        W92847  40.370  42.083   2.415
21122W        W92848  10.325  17.548  10.293
21123W        W92849  13.696   9.341  10.976
21124W        W92850  25.666  41.077  11.104
21125W        W92851  24.947  24.977   3.287
21126W        W92852  36.874   7.771   2.247
21127W        W92853  19.020  32.084  13.541
21128W        W92854  11.674  41.367   0.306
21129W        W92855  15.801  21.105  13.846
21130W        W92856   1.298  17.981   3.009
21131W        W92857  28.123  28.814   5.185
21132W        W92858   4.647   7.382  13.899
21133W        W92859  22.208  22.329  10.908
21134W        W92860  31.898  35.656   0.924
21135W        W92861  32.944  23.701  14.460
21136W        W92862  18.731   9.735  14.825
21137W        W92863   3.219  43.298  13.172
21138W        W92864  18.490  24.150  10.721
21139W        W92865   9.229   6.807  13.565
21140W        W92866  21.272  38.945   4.559
21141W        W92867  41.616   5.236   2.890
21142W        W92868   4.904   9.873  12.659
21143W        W92869  24.339  15.657   4.479
21144W        W92870   2.916   0.230  11.479
21145W        W92871  20.542   0.888  13.098
21146W        W92872  27.470  23.980  10.748
21147W        W92873  37.316  19.218   3.308
21148W        W92874  39.254  27.474  13.361
21149W        W92875   3.962   6.303  13.375
21150W        W92876   6.329   3.449  14.101
21151W        W92877  29.106  11.569  11.146
21152W        W92878  12.125  13.544  11.614
21153W        W92879  25.014   6.684   4.957
21154W        W92880  21.494  39.939  14.706
21155W        W92881  30.403  22.015   0.279
21156W        W92882   8.266   9.652  14.996
21157W        W92883   1.376  26.199   2.206
21158W        W92884  14.283  38.982   3.704
21159W        W92885  20.392  24.539   2.250
21160W        W92886   4.442   9.295   2.289
21161W        W92887  28.222  42.872  11.224
21162W        W92888  39.028  30.862   1.789
21163W        W92889  31.861   7.816   1.195
21164W        W92890   2.874  40.030  11.651
21165W        W92891   5.060  23.572   2.486
21166W        W92892  43.493   8.816  10.443
21167W        W92893  20.572  39.080   3.265
21168W        W92894  33.992  28.950   0.480
21169W        W92895  44.931  37.622   4.207
21170W        W92896  17.260  29.169  12.428
21171W        W92897  26.648  17.547   0.415
21172W        W92898   1.312  18.821  10.684
21173W        W92899  13.056  24.879  12.853
21174W        W92900  42.915  12.383   3.555
21175W        W92901  31.598  25.738   5.191
21176W        W92902   7.720   2.252  13.278
21177W        W92903   9.193  36.010  14.970
21178W        W92904  20.844   0.658   4.168
21179W        W92905   4.862  22.002  13.728
21180W        W92906  37.125  25.762  11.565
21181W        W92907   9.700  22.112   3.563
21182W        W92908  26.566  13.434   5.038
21183W        W92909  12.253   6.731   0.190
21184W        W92910   9.647  38.356   2.761
21185W        W92911  18.650  33.478   2.627
21186W        W92912   4.641  38.382   0.844
21187W        W92913  14.878  25.114   0.012
21188W        W92914  29.950  32.752   2.679
21189W        W92915   9.245   0.985  14.538
21190W        W92916   2.270   3.736   1.469
21191W        W92917  30.162  36.321   0.358
21192W        W92918  33.012  40.932  12.362
21193W        W92919  28.477  32.010  13.961
21194W        W92920   8.921   8.890   0.882
21195W        W92921   5.378   8.680   3.086
21196W        W92922  25.966   3.710   2.841
21197W        W92923  27.955  40.226  14.385
21198W        W92924  33.235  26.054  13.461
21199W        W92925  19.820  29.062   1.623
21200W        W92926  25.398  33.437   2.718
21201W        W92927   0.078  38.373   0.769
21202W        W92928  13.337  22.136  10.552
21203W        W92929  20.902  31.286   1.392
21204W        W92930  29.228   5.348  10.319
21205W        W92931  19.761  41.573   0.980
21206W        W92932  33.043   0.965   4.618
21207W        W92933  34.170  13.641   0.900
21208W        W92934   5.184  34.204   2.732
21209W        W92935   0.940  26.961   1.941
21210W        W92936  38.654  30.233   2.193
21211W        W92937   6.435  38.558   0.711
21212W        W92938  44.234   5.400  13.850
21213W        W92939   8.421  35.551  10.841
21214W        W92940  29.480  33.702   1.291
21215W        W92941   7.247  24.113  13.540
21216W        W92942  25.235  12.797  12.044
21217W        W92943  15.149  12.624   4.560
21218W        W92944  33.003  32.300   2.840
21219W        W92945  10.829  31.036  12.847
21220W        W92946   6.752  27.267   3.431
21221W        W92947  29.726  42.601  14.789
21222W        W92948   9.722   4.187  14.662
21223W        W92949  34.645   1.910  12.761
21224W        W92950  41.254  24.412  13.034
21225W        W92951  37.553  26.111  13.032
21226W        W92952   1.510  34.149   1.707
21227W        W92953  11.290  23.073  12.460
21228W        W92954  34.966  28.246  10.811
21229W        W92955  34.060  29.896   0.928
21230W        W92956   6.124  38.043   3.812
21231W        W92957  12.347  28.536  13.417
21232W        W92958  36.411   2.179  14.065
21233W        W92959  40.214  17.019   0.042
21234W        W92960  44.415   7.379   9.975
21235W        W92961   8.714  14.151  12.809
21236W        W92962  19.801  11.351   1.685
21237W        W92963  29.782  31.001  12.837
21238W        W92964  34.105  33.947   3.660
21239W        W92965  21.464   5.793   0.764
21240W        W92966   6.307  27.833  13.895
21241W        W92967  13.809  31.480   4.103
21242W        W92968  28.714  10.794  13.923
21243W        W92969  39.996  36.641   2.344
21244W        W92970   0.137  19.771  10.804
21245W        W92971  17.065  32.539  12.846
21246W        W92972  31.648  31.718   1.811
21247W        W92973  30.040  13.598  10.663
21248W        W92974  36.446  34.474  10.917
21249W        W92975   4.477  31.328  13.936
21250W        W92976   0.328   8.379   3.920
21251W        W92977   3.920   4.734  13.065
21252W        W92978  10.171  29.701  12.753
21253W        W92979  36.686  12.077   4.175
21254W        W92980  12.404   8.288   4.165
21255W        W92981  29.898  28.045  11.115
21256W        W92982   8.292  20.643   3.269
21257W        W92983  20.484  17.128   3.766
21258W        W92984  29.420   1.794   4.821
21259W        W92985  17.038  28.139   4.083
21260W        W92986  43.685  15.683   3.548
21261W        W92987  37.835  31.857   3.323
21262W        W92988   2.875   6.869   2.638
21263W        W92989  38.592  30.537   0.803
21264W        W92990   7.725  23.329   3.712
21265W        W92991   5.277  11.199  14.108
21266W        W92992   2.822   6.440   3.399
21267W        W92993  35.425  17.267   3.676
21268W        W92994  23.972  42.933  11.949
21269W        W92995  16.198  16.134   3.651
21270W        W92996  27.226  27.088   3.297
21271W        W92997  27.939   9.403  10.203
21272W        W92998  25.384   9.733  10.765
21273W        W92999   3.880   6.674   1.966
21274W        W93000  42.932  28.048  12.387
21275W        W93001  37.064  41.808  13.642
21276W        W93002  21.474  35.649  11.208
21277W        W93003  24.077  10.797   1.323
21278W        W93004   5.298   7.119  10.682
21279W        W93005  17.255  43.496   2.386
21280W        W93006  41.513   1.530   0.344
21281W        W93007  13.669  20.042   3.707
21282W        W93008  29.512  29.955   1.926
21283W        W93009   7.906  43.046  12.088
21284W        W93010  27.780  24.604   0.378
21285W        W93011  15.298  29.617  13.006
21286W        W93012  11.290  32.154   0.368
21287W        W93013  30.247   8.191   3.382
21288W        W93014  36.566  43.708   2.323
21289W        W93015  26.218   8.687   2.886
21290W        W93016  20.718  17.716   2.602
21291W        W93017  38.393  30.873   4.752
21292W        W93018  22.403  39.563  14.324
21293W        W93019  41.773  13.362  13.421
21294W        W93020  43.990  10.818  11.549
21295W        W93021  41.008  37.828   2.346
21296W        W93022  44.014   3.912   4.118
21297W        W93023  25.087   8.998   0.037
21298W        W93024  33.143   7.368  12.992
21299W        W93025  16.900  21.595   0.803
21300W        W93026  18.577  12.639   2.696
21301W        W93027  37.859   5.750   1.418
21302W        W93028  35.861   6.814   3.201
21303W        W93029  38.300  11.955  14.899
21304W        W93030  26.595  26.996   0.373
21305W        W93031   0.344  36.296   2.431
21306W        W93032   6.701  10.346   1.279
21307W        W93033  25.914   3.336   1.321
21308W        W93034   0.352  42.371  12.291
21309W        W93035   9.406  16.144  11.963
21310W        W93036  40.778  16.816   0.818
21311W        W93037  34.508  11.224  12.487
21312W        W93038  10.149  17.263  10.693
21313W        W93039  13.253  20.510   2.289
21314W        W93040   0.050  37.617  13.921
21315W        W93041  31.151  23.678  10.638
21316W        W93042  26.561  18.576   2.400
21317W        W93043  44.902  37.427   9.909
21318W        W93044  14.780   6.427  11.040
21319W        W93045   5.799  11.187  13.460
21320W        W93046  44.388  31.363  14.922
21321W        W93047  18.397  11.282  14.315
21322W        W93048  35.649  33.072  10.744
21323W        W93049  23.943   8.901  11.589
21324W        W93050  37.382  38.308  11.646
21325W        W93051  40.996  41.136   3.693
21326W        W93052  21.987  19.043  12.813
21327W        W93053  15.792  24.940  12.114
21328W        W93054   2.996  14.912  13.055
21329W        W93055  26.397  21.192  10.810
21330W        W93056  25.624  23.083   4.346
21331W        W93057   3.455  35.258  14.804
21332W        W93058  29.016  29.437   1.269
21333W        W93059   6.961   4.841   2.102
21334W        W93060  42.743  35.613  13.022
21335W        W93061  38.611   6.846   2.639
21336W        W93062  28.450  14.051  10.919
21337W        W93063  16.128  18.507   0.390
21338W        W93064  43.028  13.835  13.753
21339W        W93065   4.284  25.104   3.335
21340W        W93066   3.927  32.650  14.835
21341W        W93067   2.285  11.028  13.614
21342W        W93068   9.668  16.130  14.573
21343W        W93069  14.007  41.891   2.868
21344W        W93070  18.206  35.434  10.858
21345W        W93071  43.469  11.271  13.007
21346W        W93072  24.719  36.956  13.923
21347W        W93073  24.184   9.699  14.055
21348W        W93074  20.829  18.834  14.443
21349W        W93075  24.731  19.169  14.334
21350W        W93076  22.388  21.610   0.030
21351W        W93077  22.124  28.963  14.443
21352W        W93078  44.010  26.419   0.830
21353W        W93079  26.749  15.376   1.713
21354W        W93080   6.901  37.439   4.629
21355W        W93081  16.898   5.888   1.032
21356W        W93082  19.392  36.618   4.185
21357W        W93083  12.749  27.103  13.920
21358W        W93084  39.839   4.220   3.291
21359W        W93085  44.073  42.176   0.785
21360W        W93086  35.839  41.351   0.407
21361W        W93087  40.263   3.455  10.847
21362W        W93088   2.923  29.660  12.649
21363W        W93089   4.398  25.541  12.677
21364W        W93090   0.706  23.789  11.040
21365W        W93091  24.995  21.314   2.467
21366W        W93092  25.589   6.878   2.442
21367W        W93093  18.218  16.562   4.759
21368W        W93094  19.718  27.441  12.920
21369W        W93095  31.676  23.680  10.684
21370W        W93096  18.829  14.735   2.625
21371W        W93097  11.621  15.611   0.415
21372W        W93098   0.992  37.783  12.603
21373W        W93099  42.376  16.154   3.796
21374W        W93100  20.021  18.734   0.040
21375W        W93101  32.514  21.315  13.964
21376W        W93102  11.921  38.404  12.533
21377W        W93103  11.804  37.982   0.335
21378W        W93104  15.528  38.916   1.906
21379W        W93105   9.741  36.688   4.172
21380W        W93106   0.546  44.909  13.914
21381W        W93107  39.389  40.014   4.544
21382W        W93108  10.198  32.433   2.914
21383W        W93109  34.123  43.390  11.144
21384W        W93110  34.075  28.380  11.018
21385W        W93111  37.703  17.543   0.839
21386W        W93112  26.060  27.673  10.886
21387W        W93113  19.698  44.665   4.285
21388W        W93114  25.422  23.507  12.446
21389W        W93115  41.449   1.796   1.878
21390W        W93116  43.331   6.243   0.465
21391W        W93117   4.243  23.294   2.213
21392W        W93118   0.356  36.801  11.461
21393W        W93119  23.000  40.271   4.225
21394W        W93120  39.892  26.619   0.673
21395W        W93121  23.100   0.687  10.574
21396W        W93122  29.208  18.015   4.307
21397W        W93123  43.282  12.282  11.165
21398W        W93124  15.357  28.103   1.763
21399W        W93125  40.990  30.210   4.423
21400W        W93126  10.727   9.593   1.003
21401W        W93127   3.321  20.722   1.813
21402W        W93128  42.356  36.799   3.803
21403W        W93129   0.784  10.111  12.570
21404W        W93130  21.652   6.744   3.446
21405W        W93131  10.804   7.140  14.875
21406W        W93132  32.359  22.117  14.364
21407W        W93133  32.697  15.286  10.990
21408W        W93134   1.474   8.181  13.225
21409W        W93135  11.292  39.827   3.214
21410W        W93136  30.476  32.542  11.873
21411W        W93137   1.557  44.736   3.094
21412W        W93138  27.397  24.004  14.808
21413W        W93139  35.345  19.501  13.304
21414W        W93140  38.513  37.553   4.849
21415W        W93141  21.042  13.912  12.955
21416W        W93142   0.230  41.882  12.396
21417W        W93143   7.544  30.985  11.948
21418W        W93144  41.612   5.791   3.734
21419W        W93145   5.418  17.144   1.352
21420W        W93146  41.073  18.839   4.341
21421W        W93147  16.205  42.419  13.410
21422W        W93148  12.702  27.193  13.405
21423W        W93149  37.324  17.744  12.528
21424W        W93150  12.849  30.892  12.906
21425W        W93151   1.001  35.487   4.382
21426W        W93152  17.117  10.198   2.725
21427W        W93153  14.078  41.888  12.977
21428W        W93154  41.385   5.318  10.364
21429W        W93155  29.983   0.107  11.111
21430W        W93156  10.815  30.096  12.771
21431W        W93157   1.226  10.603  10.647
21432W        W93158  25.380  16.504  11.167
21433W        W93159  23.732   6.006  14.026
21434W        W93160  33.920  14.903  10.642
21435W        W93161  30.481  17.276   0.381
21436W        W93162  14.012  30.296  12.571
21437W        W93163  36.515  42.561  10.926
21438W        W93164  13.277   7.680   0.523
21439W        W93165   9.992  25.905   1.237
21440W        W93166  20.564  39.059  13.084
21441W        W93167   6.726  31.471   1.382
21442W        W93168   9.300  35.514   0.245
21443W        W93169  16.231   5.414  11.030
21444W        W93170   5.199  13.653  12.970
21445W        W93171  42.697  10.658  12.880
21446W        W93172  28.669  41.500   2.148
21447W        W93173  38.902  26.996   3.791
21448W        W93174  40.798  33.816  14.509
21449W        W93175  42.195   0.052   1.880
21450W        W93176  31.074  29.449   0.164
21451W        W93177  13.410  18.009  10.210
21452W        W93178  34.421  26.967   1.717
21453W        W93179  12.564   4.694  14.893
21454W        W93180   3.435   0.330  13.325
21455W        W93181  21.939  33.554  12.860
21456W        W93182  27.251  28.946  12.749
21457W        W93183  29.096   2.846  14.935
21458W        W93184  40.564  15.719  11.855
21459W        W93185  33.528   1.038  11.899
21460W        W93186  29.870  34.188   3.183
21461W        W93187   5.370  37.050  13.927
21462W        W93188  13.261  28.555   1.328
21463W        W93189  28.444   6.373   2.301
21464W        W93190   3.728  16.597  13.048
21465W        W93191  27.722  35.511  11.035
21466W        W93192  32.427  26.416  12.564
21467W        W93193  15.792  33.400  11.837
21468W        W93194  40.788  11.431   1.444
21469W        W93195  24.972   7.990  10.679
21470W        W93196  15.909  30.181   0.881
21471W        W93197  32.633   7.216  13.064
21472W        W93198   2.532  15.829   4.142
21473W        W93199   3.440  37.924  14.496
21474W        W93200   5.643  40.542   1.823
21475W        W93201  15.228  39.520  13.072
21476W        W93202  42.174  34.863   4.096
21477W        W93203  15.031  12.925   2.773
21478W        W93204  33.428  41.331  10.894
21479W        W93205  21.646   9.934   2.951
21480W        W93206   9.090  44.361  11.180
21481W        W93207  39.316  37.601   2.850
21482W        W93208  23.204  38.554  11.083
21483W        W93209  26.027  10.675  10.919
21484W        W93210  12.163  22.707   4.710
21485W        W93211  26.115   3.523   0.327
21486W        W93212   4.423  36.923  12.044
21487W        W93213  17.905  42.127  12.699
21488W        W93214  30.669  35.431   3.615
21489W        W93215  41.369   9.162   3.707
21490W        W93216  16.054  30.370  12.374
21491W        W93217  27.037  38.595   1.687
21492W        W93218  26.216  29.716   1.906
21493W        W93219  24.015  34.049  14.986
21494W        W93220   8.685  35.257  13.405
21495W        W93221  21.008   6.210   3.722
21496W        W93222  10.868  37.160  11.594
21497W        W93223  37.390  20.693  11.903
21498W        W93224   3.700   4.615   2.810
21499W        W93225  37.632  40.077  11.105
21500W        W93226  39.644  41.825   3.809
21501W        W93227  37.626   3.013  13.622
21502W        W93228  41.707  39.498  12.887
21503W        W93229  19.004  35.315  13.117
21504W        W93230  20.109   4.739  13.519
21505W        W93231  17.948   6.865   3.376
21506W        W93232  16.286   6.094   2.052
21507W        W93233  24.605  30.063   3.599
21508W        W93234  16.517  42.934   1.363
21509W        W93235  24.973  35.417  13.908
21510W        W93236   8.865  17.734  14.848
21511W        W93237  38.508  25.583  12.254
21512W        W93238  30.610  37.069  12.491
21513W        W93239  25.143  25.361   0.246
21514W        W93240  27.313  39.545  13.320
21515W        W93241   4.212   1.210  12.112
21516W        W93242   1.238  31.154  14.414
21517W        W93243   1.459  18.627  12.914
21518W        W93244  16.572  25.058   1.830
21519W        W93245  43.709  11.200  13.681
21520W        W93246   2.744  23.813   3.315
21521W        W93247  43.089   2.866  11.825
21522W        W93248   7.701  19.096  11.251
21523W        W93249  33.026  17.658  11.163
21524W        W93250  36.412  26.698   2.229
21525W        W93251  16.617  27.591   0.072
21526W        W93252  21.216   0.536   3.184
21527W        W93253   5.424  11.755   3.186
21528W        W93254  20.823   6.485   2.415
21529W        W93255  22.534  35.310   4.073
21530W        W93256  38.849  32.993  12.937
21531W        W93257   7.338  37.832   1.026
21532W        W93258  20.623  38.147  14.125
21533W        W93259  33.119  28.555   1.826
21534W        W93260  13.689  13.660   1.222
21535W        W93261  24.031  29.844  11.171
21536W        W93262  43.358   7.440  12.406
21537W        W93263   2.405   2.831  13.871
21538W        W93264  40.808  23.101   0.188
21539W        W93265   6.212  16.233  11.013
21540W        W93266   8.425   0.186  12.562
21541W        W93267   4.755  20.974  14.011
21542W        W93268   7.115  26.935   3.621
21543W        W93269  26.660  35.274   3.409
21544W        W93270   5.670   8.333  14.832
21545W        W93271  26.110  23.729   0.313
21546W        W93272  17.749  21.057  11.894
21547W        W93273  30.736  21.442  12.877
21548W        W93274  21.164  10.570  13.343
21549W        W93275  29.596  23.783  11.822
21550W        W93276  16.955  33.451  10.204
21551W        W93277  22.388  24.066   2.202
21552W        W93278  39.592  33.064  14.547
21553W        W93279  15.002   8.333   1.986
21554W        W93280  13.577  23.787   1.285
21555W        W93281   3.384   7.469  12.545
21556W        W93282   1.496  11.584   3.809
21557W        W93283   3.238   2.587   2.285
21558W        W93284   9.640  12.092   4.181
21559W        W93285  26.182  40.955  13.935
21560W        W93286  40.239  37.068   2.501
21561W        W93287   0.763  26.744   0.489
21562W        W93288  14.213  20.000   2.878
21563W        W93289  20.574   7.459  14.335
21564W        W93290  22.150  19.547  11.648
21565W        W93291  29.442  16.383   3.351
21566W        W93292  20.921   0.472   3.662
21567W        W93293  22.465  30.160   1.512
21568W        W93294  23.581  14.679   0.982
21569W        W93295  18.316  13.483   4.480
21570W        W93296  18.132  36.329  14.705
21571W        W93297   3.979   9.319  11.004
21572W        W93298   9.144  37.470   0.856
21573W        W93299  10.446   1.174   2.864
21574W        W93300  44.943  34.055  11.170
21575W        W93301  41.919  28.677   4.620
21576W        W93302  17.777  16.234  11.070
21577W        W93303  21.193  16.213  10.738
21578W        W93304  30.937  32.632  13.788
21579W        W93305  13.324  20.179   4.067
21580W        W93306  43.607  21.536   3.764
21581W        W93307  17.039  22.578  13.886
21582W        W93308  15.469  11.178  12.571
21583W        W93309  44.265  28.169   1.454
21584W        W93310  32.133  30.923   0.319
21585W        W93311  31.695  21.185   1.475
21586W        W93312  13.338  31.839   0.318
21587W        W93313   8.105  42.658   1.342
21588W        W93314  35.953  26.748  13.036
21589W        W93315  12.046  42.365  14.449
21590W        W93316  34.284  36.914   2.440
21591W        W93317  31.961  37.082  11.920
21592W        W93318   0.308  10.693   1.525
21593W        W93319  28.647  22.279  12.139
21594W        W93320   2.362  20.167   3.594
21595W        W93321  41.592  35.082  14.762
21596W        W93322  30.952   6.292  13.420
21597W        W93323  11.211  16.645  12.026
21598W        W93324  37.506  40.208   4.070
21599W        W93325  41.203  10.800   0.016
21600W        W93326  25.773   6.772   2.942
21601W        W93327  30.389   8.834  14.039
21602W        W93328   4.063   4.099   5.199
21603W        W93329  13.722   1.389  11.149
21604W        W93330  25.726   7.862  13.547
21605W        W93331  37.439   6.194  13.390
21606W        W93332  40.111  36.388   3.666
21607W        W93333  10.621   6.100  13.733
21608W        W93334  27.917  41.067   4.082
21609W        W93335  30.547   8.835   0.382
21610W        W93336  28.130  23.753   1.460
21611W        W93337  29.007  19.973   3.189
21612W        W93338   3.414  21.498   1.431
21613W        W93339  24.516  34.702   3.620
21614W        W93340  12.975  22.712   4.244
21615W        W93341  10.296  19.701  13.403
21616W        W93342  31.740  39.013  13.158
21617W        W93343  18.193  21.073   2.625
21618W        W93344   5.448  30.940  13.603
21619W        W93345  27.719  27.456  14.622
21620W        W93346  38.304  37.164  11.516
21621W        W93347  31.020  36.809  13.431
21622W        W93348  37.900  22.723   4.795
21623W        W93349  43.949  42.446  12.135
21624W        W93350  41.512  30.136  14.779
21625W        W93351   8.706  35.111  14.635
21626W        W93352  33.878  23.007  10.594
21627W        W93353  40.913   8.692  14.231
21628W        W93354  23.797  40.855  13.540
21629W        W93355   3.298  24.238   2.753
21630W        W93356  13.596   5.007  14.013
21631W        W93357  44.212   2.174  12.541
21632W        W93358  35.591   7.249   3.301
21633W        W93359  41.280   7.307   2.619
21634W        W93360  13.675  37.048  11.176
21635W        W93361  35.103   1.585  10.889
21636W        W93362   2.980  35.320   4.185
21637W        W93363  25.592  17.599  12.574
21638W        W93364  34.700  12.254  12.014
21639W        W93365  15.388  30.568   2.228
21640W        W93366  14.498   3.760  13.968
21641W        W93367  30.594  14.710  10.939
21642W        W93368  18.199  20.453   0.331
21643W        W93369  40.100  26.715  12.477
21644W        W93370  31.995  36.751   1.778
21645W        W93371  31.878  14.662  11.883
21646W        W93372   0.893   4.594   3.264
21647W        W93373  28.020  34.392   3.785
21648W        W93374  12.529  13.114  12.462
21649W        W93375  12.505  35.489   4.945
21650W        W93376  19.996  37.982   3.862
21651W        W93377   6.246  38.545   1.206
21652W        W93378   4.653  30.555  14.575
21653W        W93379  26.467  38.138  11.489
21654W        W93380  43.198   3.238   1.943
21655W        W93381  40.466  26.058  13.970
21656W        W93382  22.643  31.675  12.593
21657W        W93383  10.496  23.029   0.944
21658W        W93384   2.714  25.081   0.388
21659W        W93385  32.614  19.901  13.452
21660W        W93386  29.068  44.425  14.851
21661W        W93387  41.766  10.858   2.682
21662W        W93388   1.508   9.902  13.792
21663W        W93389  20.609  36.349   0.672
21664W        W93390  10.652   4.127  11.647
21665W        W93391  15.837  28.263   4.753
21666W        W93392  14.649  16.114  12.842
21667W        W93393  27.395  19.211   2.721
21668W        W93394   3.182   2.529   0.423
21669W        W93395  29.544  24.014  10.921
21670W        W93396   2.356  12.626   0.438
21671W        W93397  31.622  12.667   2.938
21672W        W93398   5.663  35.575  10.662
21673W        W93399   4.448  20.339   0.376
21674W        W93400  40.281   1.394  10.717
21675W        W93401  44.613  11.823   3.190
21676W        W93402  10.702  16.707   1.340
21677W        W93403  27.355   2.386  14.688
21678W        W93404   0.706   0.913   0.417
21679W        W93405   8.175  35.753   4.809
21680W        W93406  12.354   2.527   5.031
21681W        W93407  23.726  41.050   0.876
21682W        W93408  41.046  10.033   0.311
21683W        W93409  21.998   1.488   0.702
21684W        W93410  34.320  32.159  14.469
21685W        W93411  27.422  16.239  13.376
21686W        W93412  10.565  24.863  11.516
21687W        W93413  40.481  38.775   4.756
21688W        W93414  35.415  33.375   3.649
21689W        W93415  33.631  31.908   4.053
21690W        W93416  25.617  21.242  11.689
21691W        W93417  43.549  25.098  14.787
21692W        W93418  38.506  28.339  12.277
21693W        W93419  21.585  24.200   1.704
21694W        W93420  34.856  24.187  14.864
21695W        W93421  39.069  15.757  10.618
21696W        W93422  32.631  28.388  11.966
21697W        W93423  36.829  43.797  13.405
21698W        W93424  22.679  11.650  11.889
21699W        W93425  21.213   2.287   0.223
21700W        W93426  25.416  14.772   4.441
21701W        W93427   2.371   2.011  13.397
21702W        W93428  27.536  18.349   2.717
21703W        W93429  16.061   4.026  12.055
21704W        W93430  18.975  39.557   1.499
21705W        W93431  24.413  31.010   4.928
21706W        W93432  28.997  40.043   1.817
21707W        W93433  36.106  14.887  14.914
21708W        W93434  18.987  26.025  14.710
21709W        W93435  42.304   8.877   1.862
21710W        W93436  41.854  16.053   1.223
21711W        W93437   6.316  41.443   9.861
21712W        W93438  15.217   6.650   0.932
21713W        W93439   5.260   4.885   0.943
21714W        W93440  31.427  10.368  14.443
21715W        W93441  38.419  13.712   1.235
21716W        W93442   6.243  19.327   1.051
21717W        W93443  21.036  43.029  11.040
21718W        W93444  21.454  21.744  14.867
21719W        W93445  33.707  42.865   4.097
21720W        W93446  33.813  11.713   4.106
21721W        W93447  10.326  14.971   0.211
21722W        W93448  16.567  14.039  11.169
21723W        W93449  19.477  23.040  12.547
21724W        W93450  37.874  21.739  12.945
21725W        W93451   0.516   8.659  14.040
21726W        W93452  34.585  16.198   4.603
21727W        W93453  36.884   8.760   1.812
21728W        W93454  14.626   8.400   1.214
21729W        W93455  39.310   6.417   0.657
21730W        W93456  24.508  39.426  11.596
21731W        W93457  27.598  30.193  14.670
21732W        W93458  42.531  39.250   3.005
21733W        W93459   8.731  14.911   2.833
21734W        W93460  31.096  39.964   3.713
21735W        W93461  28.723   4.211  12.569
21736W        W93462   4.867  17.790  14.526
21737W        W93463  43.364  17.745   3.692
21738W        W93464  42.297  35.488   3.687
21739W        W93465  28.768   8.108  12.521
21740W        W93466  42.513  35.109   1.876
21741W        W93467   9.665  23.141   1.654
21742W        W93468   0.983  29.082   1.795
21743W        W93469   6.681  11.737  13.443
21744W        W93470  38.416  35.979   4.649
21745W        W93471  10.416  39.843   0.343
21746W        W93472  26.392  11.151   3.717
21747W        W93473  27.621  24.235  13.363
21748W        W93474   2.250  36.029   4.806
21749W        W93475  11.172  26.439   0.885
21750W        W93476  34.436  20.178  10.531
21751W        W93477   2.863  13.781   4.807
21752W        W93478  38.286  10.109  12.847
21753W        W93479  28.197  36.118   4.668
21754W        W93480  12.408  20.321   3.723
21755W        W93481  29.879  42.659   5.012
21756W        W93482  32.525   3.984  10.877
21757W        W93483  21.261  17.749  11.465
21758W        W93484  27.127  40.970  11.524
21759W        W93485  18.287  12.735   0.366
21760W        W93486  16.648  44.079   1.714
21761W        W93487  33.016  22.603  13.853
21762W        W93488  22.092  20.799   5.012
21763W        W93489  21.529   9.445   2.863
21764W        W93490  12.835  22.190   2.159
21765W        W93491  42.568  12.661   2.158
21766W        W93492  28.547   5.666  10.348
21767W        W93493  10.398  38.936   4.127
21768W        W93494   3.460  24.661  11.068
21769W        W93495  44.944   8.214   4.213
21770W        W93496   7.483   8.916   3.954
21771W        W93497  41.442  29.852   1.046
21772W        W93498  17.226  12.451  10.740
21773W        W93499   6.211  39.440   2.280
21774W        W93500   6.789  27.666   3.820
21775W        W93501  22.600  13.803  11.614
21776W        W93502  37.927  42.383  11.518
21777W        W93503  20.418  15.158  11.976
21778W        W93504  13.782  32.068  12.853
21779W        W93505   9.363   8.260   0.182
21780W        W93506  12.645  19.992  14.449
21781W        W93507  16.867  26.867   4.268
21782W        W93508  19.196  24.384   4.716
21783W        W93509  43.495   3.224  10.742
21784W        W93510  29.126  39.240   4.203
21785W        W93511  21.008  10.651   2.303
21786W        W93512  40.881  35.688  12.886
21787W        W93513   5.326  44.378   1.048
21788W        W93514  43.436   4.435   2.342
21789W        W93515  13.129  19.667   4.115
21790W        W93516  25.215  20.917  14.016
21791W        W93517   7.808  15.515   4.592
21792W        W93518  16.250   7.981  14.520
21793W        W93519  23.202  33.563  14.264
21794W        W93520  25.482  17.798  13.404
21795W        W93521  34.078  25.046  10.685
21796W        W93522  38.080  19.686  13.353
21797W        W93523   7.216  33.862   3.327
21798W        W93524  40.870  22.014   1.621
21799W        W93525   9.628  29.629   0.304
21800W        W93526  10.599  20.126   2.209
21801W        W93527   5.530  41.913   4.845
21802W        W93528   4.445  13.316   3.902
21803W        W93529  26.755  17.576   4.960
21804W        W93530  11.891  11.751  10.144
21805W        W93531   3.395  20.466   2.271
21806W        W93532  44.344  41.037   4.377
21807W        W93533  28.552  20.935  12.485
21808W        W93534   0.343   1.771  13.318
21809W        W93535  16.352  22.566  11.072
21810W        W93536  34.031  29.641   2.262
21811W        W93537  44.653  27.479  13.009
21812W        W93538   1.186   8.172   0.329
21813W        W93539  26.922  25.091   4.203
21814W        W93540  41.179  40.286  14.763
21815W        W93541  35.668   1.471   4.111
21816W        W93542  26.096  23.128   4.544
21817W        W93543  38.096  42.051  13.904
21818W        W93544   4.801  17.611  10.452
21819W        W93545  41.906   8.286  12.859
21820W        W93546  31.128  36.076  13.020
21821W        W93547  10.614  33.789   3.137
21822W        W93548   2.457  24.146  12.481
21823W        W93549  17.310  42.874  12.018
21824W        W93550  27.717   6.652  12.962
21825W        W93551  42.467   5.521   2.845
21826W        W93552  37.920   0.036   4.350
21827W        W93553  40.459  19.298   1.735
21828W        W93554  39.648   6.411   1.137
21829W        W93555   7.335  43.725   3.878
21830W        W93556   9.114  23.629  11.622
21831W        W93557  14.823  33.148  12.570
21832W        W93558  39.505  41.982   2.281
21833W        W93559   9.005   0.669  14.915
21834W        W93560   5.255  27.666   1.269
21835W        W93561  30.688   8.462   3.177
21836W        W93562  12.311   1.969   4.006
21837W        W93563   0.972   2.873   2.657
21838W        W93564  32.798  19.226  13.250
21839W        W93565  36.442  37.840   4.654
21840W        W93566  37.117  11.294   1.211
21841W        W93567  21.199  13.130  13.019
21842W        W93568  38.436   7.722  13.540
21843W        W93569  10.388  42.465  11.475
21844W        W93570  14.314  14.712   4.897
21845W        W93571  10.905   8.834  14.366
21846W        W93572   8.672   2.963   4.499
21847W        W93573   2.338   8.192  14.884
21848W        W93574  31.043   3.917   4.966
21849W        W93575  28.156  16.704  10.331
21850W        W93576  10.001  27.118  14.892
21851W        W93577  34.378  38.064   1.169
21852W        W93578  43.560  25.564  11.348
21853W        W93579  30.177  23.246  12.461
21854W        W93580  37.084  14.612   3.450
21855W        W93581  34.047  19.600   0.102
21856W        W93582   1.530  29.075  11.289
21857W        W93583   6.630  20.551  10.707
21858W        W93584  27.876  42.620  14.825
21859W        W93585  37.564  20.996   4.513
21860W        W93586  15.221  24.391  13.098
21861W        W93587  10.794  39.032   0.008
21862W        W93588  31.099  17.351   2.723
21863W        W93589  32.894   6.353  14.224
21864W        W93590  18.636   8.725   0.009
21865W        W93591   2.403  29.070  10.780
21866W        W93592   7.872  22.944   1.171
21867W        W93593  26.936   8.275  13.277
21868W        W93594   7.285   1.672  12.460
21869W        W93595  21.727  38.843   2.795
21870W        W93596  41.487  14.039   1.749
21871W        W93597  34.284  26.635  10.798
21872W        W93598  44.414   9.904   2.585
21873W        W93599   4.261  35.043  10.644
21874W        W93600  43.841   2.481   0.215
21875W        W93601   6.360  43.425   0.442
21876W        W93602  21.348  39.443  12.609
21877W        W93603  35.270   6.751  13.338
21878W        W93604  27.427   1.473  11.932
21879W        W93605   0.695  20.066  13.016
21880W        W93606  18.901   5.294  10.655
21881W        W93607  19.611  22.704   3.554
21882W        W93608  18.696  15.339  11.569
21883W        W93609  18.635  37.212  14.072
21884W        W93610  43.544   3.387  11.710
21885W        W93611  15.219  41.238  11.921
21886W        W93612  10.447  43.019   2.853
21887W        W93613   5.151  44.730  13.979
21888W        W93614  14.330   2.188   3.312
21889W        W93615  29.187  30.483   1.401
21890W        W93616   6.851  19.520  14.411
21891W        W93617   1.923   5.905   2.772
21892W        W93618  42.210  18.278  13.233
21893W        W93619  44.255  28.656  13.920
21894W        W93620  15.019  13.800   0.798
21895W        W93621  18.776  25.231  13.986
21896W        W93622  22.620  27.854  10.762
21897W        W93623  12.769   6.450  12.360
21898W        W93624   5.466   9.661  13.517
21899W        W93625  10.193  38.002  13.470
21900W        W93626  28.417  25.087  13.918
21901W        W93627  32.222  35.783   1.757
21902W        W93628  38.079  18.634   3.124
21903W        W93629   5.689  26.084   1.941
21904W        W93630  33.963  39.498  12.895
21905W        W93631  26.884  40.004  11.736
21906W        W93632  31.004  35.271  14.414
21907W        W93633   4.905  33.450   2.182
21908W        W93634   2.629   0.352   0.580
21909W        W93635  37.058  17.615  12.949
21910W        W93636  25.811  17.689   3.965
21911W        W93637   5.137  25.170   3.805
21912W        W93638  21.170  18.276   1.046
21913W        W93639  12.677  16.061   0.652
21914W        W93640   9.693  41.115   2.644
21915W        W93641  37.158  30.253   4.111
21916W        W93642  42.489   6.616  11.479
21917W        W93643  27.707  39.096   1.360
21918W        W93644   8.615   3.739   0.475
21919W        W93645  23.638  23.130   3.689
21920W        W93646   3.191  14.916   2.324
21921W        W93647  25.508  28.220   2.201
21922W        W93648  37.571  30.708   4.723
21923W        W93649  36.527  29.795  12.394
21924W        W93650   4.766  44.775   2.643
21925W        W93651  15.648  32.460  14.348
21926W        W93652  44.999   6.792  12.504
21927W        W93653  43.911  33.677   0.336
21928W        W93654  11.699  35.122   3.480
21929W        W93655  17.581  22.351   1.103
21930W        W93656  20.137   7.603   2.220
21931W        W93657  32.192   3.745  11.202
21932W        W93658  36.114  10.948  13.356
21933W        W93659  13.645   0.099  11.438
21934W        W93660  42.506  27.895  14.474
21935W        W93661  15.846  25.473  12.072
21936W        W93662  16.353   9.753   4.239
21937W        W93663   2.773  10.214  12.576
21938W        W93664  17.199  19.719  11.601
21939W        W93665  42.373   2.513   2.787
21940W        W93666  41.805  33.989  11.586
21941W        W93667  38.611  14.697   2.222
21942W        W93668   4.912  35.029   4.179
21943W        W93669  28.704  33.038  12.108
21944W        W93670  28.439  27.888   1.687
21945W        W93671  42.262  44.709   0.005
21946W        W93672  23.480  37.494  12.666
21947W        W93673  15.221  22.940   1.706
21948W        W93674  24.466  33.171  11.016
21949W        W93675  39.966   1.201   3.109
21950W        W93676  22.766  38.439  13.351
21951W        W93677  40.172  28.420   3.766
21952W        W93678  43.266  30.076   0.359
21953W        W93679  16.755  19.294   2.804
21954W        W93680  43.736  20.455  11.910
21955W        W93681   8.461  11.647  13.965
21956W        W93682  25.084  35.397   0.679
21957W        W93683  14.269  34.830   4.151
21958W        W93684  23.144   6.273   4.212
21959W        W93685  40.133  12.187  14.811
21960W        W93686  24.447  25.557  13.856
21961W        W93687   1.994  14.677  12.879
21962W        W93688  39.785  19.695   0.291
21963W        W93689  19.721  29.018   2.148
21964W        W93690  19.645  20.628   4.148
21965W        W93691  14.959   3.976  11.705
21966W        W93692  24.190   5.381  10.689
21967W        W93693  13.055  16.055  10.354
21968W        W93694  21.070  44.930   2.861
21969W        W93695  32.840   4.235   1.216
21970W        W93696   6.300  33.982   0.502
21971W        W93697  15.715  19.508   3.773
21972W        W93698  35.268  22.733  13.224
21973W        W93699  43.797  38.053   0.755
21974W        W93700  43.055  39.643   2.880
21975W        W93701  30.647  30.052   1.874
21976W        W93702  29.375  26.656  12.031
21977W        W93703  41.296   5.923   4.997
21978W        W93704  40.520  20.723   1.782
21979W        W93705  13.387   0.620   0.496
21980W        W93706  33.531  44.257   2.411
21981W        W93707  41.316  11.589  10.918
21982W        W93708  38.942  42.832  11.608
21983W        W93709  23.106  37.015   1.965
21984W        W93710  27.648  25.773   3.269
21985W        W93711  11.897  10.689   3.559
21986W        W93712  35.500  14.194  11.997
21987W        W93713  38.499  18.711   3.746
21988W        W93714   7.864  20.411  14.321
21989W        W93715  16.893  34.086   0.738
21990W        W93716   6.765  41.390  12.624
21991W        W93717   8.691  37.569  11.859
21992W        W93718  10.636   8.803   1.690
21993W        W93719  31.060  12.947   3.796
21994W        W93720   2.958   7.945   1.214
21995W        W93721  18.601  38.178   3.589
21996W        W93722  33.125  26.761  12.953
21997W        W93723  28.600  27.633   2.940
21998W        W93724   8.807  17.660  12.202
21999W        W93725  33.639  31.555   1.377
22000W        W93726   4.717   4.294   3.254
22001W        W93727   1.733  27.604  12.814
22002W        W93728  29.871  13.765   3.193
22003W        W93729  40.656  11.954  12.169
22004W        W93730  34.291   7.948   3.895
22005W        W93731  14.747   3.256  11.085
22006W        W93732  17.739   5.731  10.708
22007W        W93733  39.974   8.419   2.571
22008W        W93734  29.472  32.187   2.905
22009W        W93735  42.217  21.653  10.724
22010W        W93736   3.407  14.537  14.426
22011W        W93737  10.718   0.065   3.224
22012W        W93738   9.888  21.954   5.061
22013W        W93739  39.324   3.244   0.316
22014W        W93740   7.732  24.854   5.157
22015W        W93741  11.653  27.759   0.844
22016W        W93742  17.715  36.460  11.751
22017W        W93743  17.391  30.135   3.839
22018W        W93744  36.377  36.076   4.144
22019W        W93745  27.675  39.847   1.654
22020W        W93746  35.614  25.487  11.463
22021W        W93747  24.971  16.832   4.889
22022W        W93748   9.394  21.196   1.981
22023W        W93749  16.310  21.547   4.677
22024W        W93750  38.424  26.307   2.694
22025W        W93751  10.661  25.303   1.363
22026W        W93752  24.145  10.896  12.478
22027W        W93753  35.934  30.220   3.483
22028W        W93754   5.970  38.526   1.745
22029W        W93755  11.878  17.193   3.082
22030W        W93756  41.914  30.557   1.088
22031W        W93757   0.277   4.195  12.937
22032W        W93758  24.902  36.059  11.678
22033W        W93759   9.288   4.411   0.825
22034W        W93760  32.636  12.846   1.342
22035W        W93761   4.276   6.384  12.883
22036W        W93762  39.076  25.088  10.677
22037W        W93763  28.596  30.649   4.341
22038W        W93764  34.967  40.890  14.999
22039W        W93765  34.186  16.053   2.119
22040W        W93766   7.389  14.150   4.438
22041W        W93767   1.498  31.415  10.637
22042W        W93768  20.738  10.728   2.724
22043W        W93769   6.840  28.384  11.930
22044W        W93770  23.143   1.174  12.432
22045W        W93771   5.712  18.012  10.283
22046W        W93772  11.355   7.628  12.793
22047W        W93773  28.982  18.200  11.581
22048W        W93774  24.827  19.403   4.278
22049W        W93775  12.687  17.624   0.263
22050W        W93776  29.471   3.199  14.799
22051W        W93777  39.025   9.817  14.913
22052W        W93778  40.545  32.484   3.645
22053W        W93779   5.430   5.495   1.896
22054W        W93780  28.076  17.867   4.295
22055W        W93781   0.623  25.114  13.853
22056W        W93782  15.304  36.460  11.553
22057W        W93783  17.577   8.430   4.578
22058W        W93784  12.749  42.348   0.823
22059W        W93785  32.571  17.361  14.509
22060W        W93786   1.950  27.142  14.498
22061W        W93787  11.122  10.735   4.580
22062W        W93788  23.045  32.368  12.027
22063W        W93789  12.863  12.910  14.946
22064W        W93790  20.643  32.863  10.917
22065W        W93791   6.326  40.461   0.308
22066W        W93792  11.130  40.158  14.072
22067W        W93793  43.934  22.793   1.990
22068W        W93794  16.698  21.388   3.497
22069W        W93795  17.300  17.688  14.019
22070W        W93796  41.723  33.500  14.427
22071W        W93797  25.184   7.660   2.096
22072W        W93798  15.381  17.784  14.221
22073W        W93799   4.494  26.529  11.101
22074W        W93800   3.899  19.633   0.273
22075W        W93801  17.732   1.545   0.827
22076W        W93802  24.725  18.219  12.535
22077W        W93803  14.696  34.897   3.319
22078W        W93804   4.473  40.333   0.845
22079W        W93805  42.066   2.538  14.818
22080W        W93806  38.461   9.297  13.955
22081W        W93807  30.920   5.374  11.512
22082W        W93808   4.143  37.057   0.119
22083W        W93809   8.896  34.256   2.797
22084W        W93810  39.456  10.218  11.639
22085W        W93811  35.629  12.302  12.278
22086W        W93812  13.749  20.217  14.806
22087W        W93813  27.688  10.324  13.612
22088W        W93814  18.707   0.196  14.877
22089W        W93815  28.534  23.907   3.160
22090W        W93816   1.495  41.862   2.278
22091W        W93817  11.161  27.973  12.637
22092W        W93818  31.459  19.805  13.802
22093W        W93819  37.325  35.591   4.034
22094W        W93820  41.260  13.315  12.029
22095W        W93821  39.913  24.778  14.479
22096W        W93822  32.064  37.572  14.801
22097W        W93823  16.724  15.825  10.430
22098W        W93824  12.740   8.277   2.358
22099W        W93825  18.982  13.792   4.751
22100W        W93826  14.525  41.517   0.652
22101W        W93827  31.490  30.519  14.443
22102W        W93828  22.532  38.437   4.325
22103W        W93829  40.878  35.499   3.207
22104W        W93830  15.042  44.601   3.329
22105W        W93831  36.153  23.042   4.634
22106W        W93832  31.574  18.894   0.369
22107W        W93833  16.389  10.658   2.783
22108W        W93834  27.085  25.039   0.546
22109W        W93835  39.981  19.113   1.765
22110W        W93836  38.797  26.197   0.785
22111W        W93837  37.366   2.196   0.950
22112W        W93838  22.397  29.972   3.371
22113W        W93839  30.978  33.185   0.307
22114W        W93840  19.039  28.858  11.018
22115W        W93841  26.040  22.953  11.964
22116W        W93842  35.906  20.566  12.061
22117W        W93843  36.272   3.552   0.277
22118W        W93844  20.757  42.034  11.555
22119W        W93845  24.846  36.201  14.437
22120W        W93846  25.883   6.278  12.429
22121W        W93847  26.277  14.599   2.149
22122W        W93848  25.467  10.596   4.686
22123W        W93849  10.422   2.437   2.827
22124W        W93850  44.347  30.423  10.526
22125W        W93851  28.491  27.115  10.660
22126W        W93852   7.435  21.658   0.382
22127W        W93853   0.383  10.245   1.759
22128W        W93854   9.044  35.061   0.048
22129W        W93855  29.111  34.827   4.256
22130W        W93856  25.456   4.323  14.332
22131W        W93857   2.150   6.610   0.740
22132W        W93858  33.160  27.013   2.305
22133W        W93859  22.795  28.281   5.037
22134W        W93860  21.140  15.800  14.891
22135W        W93861   4.343  15.380   1.875
22136W        W93862  42.846  19.221  14.378
22137W        W93863  22.809   8.482   3.696
22138W        W93864  12.589   5.996   1.273
22139W        W93865   5.567  35.064  12.895
22140W        W93866  39.444  40.231   2.909
22141W        W93867  31.994  31.913  13.523
22142W        W93868  11.993  41.766  13.823
22143W        W93869  14.810  10.439   2.259
22144W        W93870  44.424  36.821   2.251
22145W        W93871  43.743  39.827  11.166
22146W        W93872  37.851  18.958  12.910
22147W        W93873  13.131  10.104  13.043
22148W        W93874   8.552  35.808   9.667
22149W        W93875  33.590  11.834   1.853
22150W        W93876  17.612  19.339   3.773
22151W        W93877   9.465   5.302   4.201
22152W        W93878  35.746  30.014  13.265
22153W        W93879   7.371  26.610  13.436
22154W        W93880  14.136  28.106   0.455
22155W        W93881  19.685  12.688  13.516
22156W        W93882  19.720   4.855   3.270
22157W        W93883  16.236  40.097   2.659
22158W        W93884  33.358   6.133  14.295
22159W        W93885  17.006  19.164   3.279
22160W        W93886  21.929  13.676  12.883
22161W        W93887  19.734  15.072  13.977
22162W        W93888  43.768  41.754   0.770
22163W        W93889   0.502   7.961  12.304
22164W        W93890  43.320  26.624  10.830
22165W        W93891  14.396  32.047   4.737
22166W        W93892  29.704  29.351   3.308
22167W        W93893   5.152  12.595  11.933
22168W        W93894  38.919   1.528  10.643
22169W        W93895  32.707  16.212   0.381
22170W        W93896   6.791  41.741  13.017
22171W        W93897  40.520  13.124   0.783
22172W        W93898  44.914  43.205  10.729
22173W        W93899   3.751   6.486  14.464
22174W        W93900  23.689   1.425  11.599
22175W        W93901  15.702  41.860  11.504
22176W        W93902  31.797  19.044  12.500
22177W        W93903  44.384  31.439   2.895
22178W        W93904  21.635   0.034   0.396
22179W        W93905  27.134  40.896   2.169
22180W        W93906  25.192   4.709  13.987
22181W        W93907  21.578  39.585   3.724
22182W        W93908  26.616  38.804   3.675
22183W        W93909  37.386  36.025  10.284
22184W        W93910   2.756   0.287   3.335
22185W        W93911  41.488   9.815   4.747
22186W        W93912   2.288  13.347  14.964
22187W        W93913   6.880  17.291  13.575
22188W        W93914  34.790  26.488  13.988
22189W        W93915  35.102  41.830  11.576
22190W        W93916  15.104  23.678   4.089
22191W        W93917  15.571  10.693  10.980
22192W        W93918  35.698  16.682   0.281
22193W        W93919  31.626  34.199   3.668
22194W        W93920  14.256   1.942  10.635
22195W        W93921   2.386  15.770   0.583
22196W        W93922  18.817  12.185   0.914
22197W        W93923  43.552  43.395   1.199
22198W        W93924  41.852  25.451   0.403
22199W        W93925  33.165  18.048   2.430
22200W        W93926  30.523   3.434  13.941
22201W        W93927  32.946   6.425  12.427
22202W        W93928  15.077   7.634   4.151
22203W        W93929  33.469  10.668   2.285
22204W        W93930  38.357  31.016   0.821
22205W        W93931  32.462  27.871  12.003
22206W        W93932  27.827  16.671  11.870
22207W        W93933  37.609  20.742  12.831
22208W        W93934  35.372  15.206  12.668
22209W        W93935  37.927  30.552   3.489
22210W        W93936   2.533  41.475   1.144
22211W        W93937   1.423  17.106   0.478
22212W        W93938   8.031   6.003  14.059
22213W        W93939  44.129  12.924   2.193
22214W        W93940   4.931  28.372  14.611
22215W        W93941  17.752   7.217  13.447
22216W        W93942   9.913  10.149  14.315
22217W        W93943  37.827  17.087   3.337
22218W        W93944  21.465  21.153   1.028
22219W        W93945  32.006   1.373  11.071
22220W        W93946  33.773   6.209   1.867
22221W        W93947  27.425  13.699   3.117
22222W        W93948  29.165  31.699  11.954
22223W        W93949   5.199   3.018  13.591
22224W        W93950  38.728  36.047   1.263
22225W        W93951   2.200   1.645  14.577
22226W        W93952  17.676  22.003  13.990
22227W        W93953  30.120  28.598   3.713
22228W        W93954  34.059  40.470   0.807
22229W        W93955  27.947   3.979   2.898
22230W        W93956  13.352  34.916   2.817
22231W        W93957  44.593  30.884  12.585
22232W        W93958  44.710   4.858   0.832
22233W        W93959  43.955  16.353   0.754
22234W        W93960  27.093   1.973   2.241
22235W        W93961  39.913  31.747   4.932
22236W        W93962  31.486  35.360   0.803
22237W        W93963  16.494  33.002   3.025
22238W        W93964  37.816  36.689  13.672
22239W        W93965  43.758   9.579  11.010
22240W        W93966   0.811  37.182   3.657
22241W        W93967   7.620  44.334   4.108
22242W        W93968  39.541   0.769  14.419
22243W        W93969  30.534  41.417  13.924
22244W        W93970  23.958  10.338  14.126
22245W        W93971  17.308   7.687   1.825
22246W        W93972  36.890  22.776  13.535
22247W        W93973   6.982  27.574  11.643
22248W        W93974  37.683  35.953   1.890
22249W        W93975  29.101  24.772  12.668
22250W        W93976  11.566  15.656  11.115
22251W        W93977  27.186  28.273  10.024
22252W        W93978  25.129  19.297   0.252
22253W        W93979  44.166  25.503   2.277
22254W        W93980  16.635  34.440   4.666
22255W        W93981  12.600  21.083   1.383
22256W        W93982  16.708  40.212   4.731
22257W        W93983  15.316  44.165   4.607
22258W        W93984  19.673  43.962  10.719
22259W        W93985  38.147   0.879   0.747
22260W        W93986  25.929  10.241  11.187
22261W        W93987  42.929   3.540   2.389
22262W        W93988  42.685  44.856   2.611
22263W        W93989  17.097  25.121   0.169
22264W        W93990  11.788  17.203   0.850
22265W        W93991  27.457   5.663   0.300
22266W        W93992   1.383  31.841  11.879
22267W        W93993  34.296  25.586  14.762
22268W        W93994   3.174  26.053  11.938
22269W        W93995   5.202  15.371   2.809
22270W        W93996  16.833  28.052  11.086
22271W        W93997  31.710   7.769   3.662
22272W        W93998  26.914  30.496  14.137
22273W        W93999  32.478  34.207  12.501
22274W        W94000  15.002  43.760   4.807
22275W        W94001  33.187   0.901  14.335
22276W        W94002  21.714  35.990   4.104
22277W        W94003  41.393  25.019  11.890
22278W        W94004   1.626  24.984  13.973
22279W        W94005   9.727  27.669   1.107
22280W        W94006  29.094  43.922   4.302
22281W        W94007  33.450  32.630   0.683
22282W        W94008  19.283   6.294   0.975
22283W        W94009  22.525  42.521  13.926
22284W        W94010  27.459   9.906  11.428
22285W        W94011   2.309  33.810  10.708
22286W        W94012  17.263  17.315   4.110
22287W        W94013  21.694  44.931  14.479
22288W        W94014   2.854  25.982  10.626
22289W        W94015  38.992  35.275   3.537
22290W        W94016   4.698  36.467   3.626
22291W        W94017   9.392   9.055   2.902
22292W        W94018  13.231  25.298  13.561
22293W        W94019  37.035  20.109  10.643
22294W        W94020  44.982  19.624   3.912
22295W        W94021  26.320  14.554  12.590
22296W        W94022  17.685   0.524  14.024
22297W        W94023  33.522  30.389  13.442
22298W        W94024  30.900  28.878  10.674
22299W        W94025  39.850   7.287  11.429
22300W        W94026  28.585   8.287  11.196
22301W        W94027  27.642   3.250   2.796
22302W        W94028  37.064  15.714  12.122
22303W        W94029   6.781  16.575   4.729
22304W        W94030   2.094   0.798   0.401
22305W        W94031  17.055  23.493  12.316
22306W        W94032   0.778  29.151   3.302
22307W        W94033  16.831  20.008  11.926
22308W        W94034   1.263  19.917  13.957
22309W        W94035  31.511   9.348  14.500
22310W        W94036  34.551  38.509   1.392
22311W        W94037  28.053   0.750   4.292
22312W        W94038  11.616  11.212   2.168
22313W        W94039   1.330  33.998   2.243
22314W        W94040  41.154  15.773  10.459
22315W        W94041   5.161  23.679  14.801
22316W        W94042  31.531  44.297   0.248
22317W        W94043  20.264  40.644   3.714
22318W        W94044  23.111  39.286   0.912
22319W        W94045  26.431   1.471   2.690
22320W        W94046  19.519  29.387   3.665
22321W        W94047  22.464  44.223   1.873
22322W        W94048  23.606  11.942   1.614
22323W        W94049  37.906  44.695  12.997
22324W        W94050   7.521   7.600  11.105
22325W        W94051  41.132   2.025  14.708
22326W        W94052   7.432  31.399   3.369
22327W        W94053   5.982   3.256   1.968
22328W        W94054   7.367  18.857  12.706
22329W        W94055  31.250  14.216   0.300
22330W        W94056  30.213   6.684  11.273
22331W        W94057  44.034  41.327   2.931
22332W        W94058   2.976  43.994   3.615
22333W        W94059  36.642   2.644  14.058
22334W        W94060  22.060  43.576   1.286
22335W        W94061   7.912  14.468  14.560
22336W        W94062  21.269  30.431   5.001
22337W        W94063  24.748  24.154   0.402
22338W        W94064  32.914  11.217   0.077
22339W        W94065  14.745  30.162  11.683
22340W        W94066  21.750  24.606  11.543
22341W        W94067   3.601   8.316  14.598
22342W        W94068  32.044  29.780   2.623
22343W        W94069  16.291   4.901   4.809
22344W        W94070   6.141  33.344   1.696
22345W        W94071  27.704  36.651   2.869
22346W        W94072  10.019  36.367  13.799
22347W        W94073  14.783  31.086   3.581
22348W        W94074  33.082  12.099  12.993
22349W        W94075  30.872  34.336   3.740
22350W        W94076  31.416  17.379   0.976
22351W        W94077  34.435  26.208  12.918
22352W        W94078  32.907  38.166  12.943
22353W        W94079  20.546  34.028  10.566
22354W        W94080  24.633  28.466   3.586
22355W        W94081   7.264  25.681   3.756
22356W        W94082  42.944  27.696  10.477
22357W        W94083  22.744  42.908   1.810
22358W        W94084  30.417  43.208  11.976
22359W        W94085  10.655  24.240   4.683
22360W        W94086  33.909  11.380   2.635
22361W        W94087  30.582  16.119  13.117
22362W        W94088  29.593   9.630  12.879
22363W        W94089  15.712  44.730   2.282
22364W        W94090   3.138  11.609  10.816
22365W        W94091  31.944  29.692  13.051
22366W        W94092  13.656  30.068  14.985
22367W        W94093  27.928  16.986   0.475
22368W        W94094  44.876  34.115  12.812
22369W        W94095  20.003  31.773  13.602
22370W        W94096  31.568   4.444   1.840
22371W        W94097  41.732   4.008  11.489
22372W        W94098  13.660  36.130  12.599
22373W        W94099  38.744  44.467   4.627
22374W        W94100  14.810  16.698  13.457
22375W        W94101  42.301  38.008  10.549
22376W        W94102  29.759   6.212   1.792
22377W        W94103  19.818  21.684   4.589
22378W        W94104  29.191  11.050  12.977
22379W        W94105  33.476   6.344  12.868
22380W        W94106  32.601   2.850  10.705
22381W        W94107   8.920  39.642   4.419
22382W        W94108  29.874  30.899   2.783
22383W        W94109  38.099   0.489  11.466
22384W        W94110  16.894  23.107   4.452
22385W        W94111  22.145   4.704   2.378
22386W        W94112  11.787  30.882   0.363
22387W        W94113  38.370   8.937   2.846
22388W        W94114  22.865   7.920   2.514
22389W        W94115  38.996   5.237  13.895
22390W        W94116  20.689  27.695   1.616
22391W        W94117  32.726  14.039  12.508
22392W        W94118  12.186  31.063   4.139
22393W        W94119  12.664  10.881  14.931
22394W        W94120  29.571  23.035   2.797
22395W        W94121  24.000   4.954   3.131
22396W        W94122   9.018  22.012   2.745
22397W        W94123  14.949  44.268  11.145
22398W        W94124  34.996  38.112   3.702
22399W        W94125  24.994  30.953   4.722
22400W        W94126   6.146  33.878   4.243
22401W        W94127  13.700   8.639  11.607
22402W        W94128  20.866  15.515  14.560
22403W        W94129  14.386  35.601  12.710
22404W        W94130  15.732   9.740   4.654
22405W        W94131  16.386  22.584  13.460
22406W        W94132   5.711  34.527  14.463
22407W        W94133  13.435   3.002  12.905
22408W        W94134  33.723  28.329  11.927
22409W        W94135   7.398  11.400  11.075
22410W        W94136  28.126   5.395   4.195
22411W        W94137  38.793   9.111  12.111
22412W        W94138  12.176   7.788   1.268
22413W        W94139   0.777  42.942   4.162
22414W        W94140   4.630  30.135   2.120
22415W        W94141   7.373   7.840  14.271
22416W        W94142   6.352  18.983  11.457
22417W        W94143  44.036  33.857  12.444
22418W        W94144  37.497   7.104   2.246
22419W        W94145  23.028  40.477   2.872
22420W        W94146  40.831  42.620   3.616
22421W        W94147   0.750   9.902   0.069
22422W        W94148  38.257  14.032   2.937
22423W        W94149  30.163  19.676   2.983
22424W        W94150  12.707  41.956   3.108
22425W        W94151  27.278  18.897  13.686
22426W        W94152  10.317  42.901   3.789
22427W        W94153   7.805  42.474   0.905
22428W        W94154  28.111  22.046  11.027
22429W        W94155   4.501  14.126  11.136
22430W        W94156  23.453   3.194   3.384
22431W        W94157  30.015  16.310  14.888
22432W        W94158  28.573  33.620   3.902
22433W        W94159  44.771   7.140   2.116
22434W        W94160  29.040  37.556   1.347
22435W        W94161  33.536  28.691   0.398
22436W        W94162  22.054  17.728   0.309
22437W        W94163  23.406  39.966  11.979
22438W        W94164  11.770  17.971  14.266
22439W        W94165  31.490  10.725   0.275
22440W        W94166  44.489   8.706  14.917
22441W        W94167  33.081   4.725  11.045
22442W        W94168  30.168  40.002  12.517
22443W        W94169  36.520  38.015  12.936
22444W        W94170   9.354  14.665   1.322
22445W        W94171   9.481  36.686   2.743
22446W        W94172   5.297   6.159  10.796
22447W        W94173   8.955  30.989  10.795
22448W        W94174  16.752  25.617  11.182
22449W        W94175  25.075  22.113  11.545
22450W        W94176   9.618   8.624  14.351
22451W        W94177  18.662  27.942  11.184
22452W        W94178   0.706   5.122   2.460
22453W        W94179  41.399  36.254   3.117
22454W        W94180  16.118  43.269  14.248
22455W        W94181   3.839  39.516  10.549
22456W        W94182  22.935  29.719  11.540
22457W        W94183  34.636  42.800   1.967
22458W        W94184  33.197   1.922  12.992
22459W        W94185   1.300  34.602   1.937
22460W        W94186   6.848   9.105  12.085
22461W        W94187  10.826  39.854   1.815
22462W        W94188  41.884  34.460   1.970
22463W        W94189  43.359  33.465  12.349
22464W        W94190  36.548  10.759   2.767
22465W        W94191  19.015  27.165  12.551
22466W        W94192  15.521  22.223   4.110
22467W        W94193  28.575  31.099  14.806
22468W        W94194  14.899  20.754  14.002
22469W        W94195  35.379  23.546  13.337
22470W        W94196  23.549  31.166   0.910
22471W        W94197  11.839  10.272   4.380
22472W        W94198  21.502  28.750   3.358
22473W        W94199  27.946  10.826   1.459
22474W        W94200  29.728   3.932  11.268
22475W        W94201   4.548  20.300   2.000
22476W        W94202  28.700  30.146   4.286
22477W        W94203  16.581   9.250  12.975
22478W        W94204  31.185  23.105  11.751
22479W        W94205  23.599  17.590   3.341
22480W        W94206  19.296   3.619  11.403
22481W        W94207  34.672  31.070  13.401
22482W        W94208   2.453  23.094  14.533
22483W        W94209  40.485  10.306   0.989
22484W        W94210  15.619  43.740  11.375
22485W        W94211  28.202   7.721  10.591
22486W        W94212   0.798  39.543   2.318
22487W        W94213  32.431  15.064   1.230
22488W        W94214   3.363  28.363  10.588
22489W        W94215  23.088  36.130  10.572
22490W        W94216  24.695  25.123  13.961
22491W        W94217  14.733   7.929   0.089
22492W        W94218  10.565   0.073   4.122
22493W        W94219  44.727  18.162  14.547
22494W        W94220  15.340  17.484  13.765
22495W        W94221  20.940   7.896  14.303
22496W        W94222  20.177  37.464  10.051
22497W        W94223  22.904  12.386   1.460
22498W        W94224  20.214  36.008   1.557
22499W        W94225   5.598  20.836  10.579
22500W        W94226   5.696  16.133  14.065
22501W        W94227  13.771  37.455   3.944
22502W        W94228   5.373  38.746  13.421
22503W        W94229   6.877  42.724  12.985
22504W        W94230   4.438  35.926   0.867
22505W        W94231  34.074  17.818   1.522
22506W        W94232  24.781  42.396   3.681
22507W        W94233  44.299  43.414  14.277
22508W        W94234  18.832  10.191  11.190
22509W        W94235  41.865  29.005   4.139
22510W        W94236   6.945   9.403   4.596
22511W        W94237  16.608  14.636   0.869
22512W        W94238  37.108  11.193   2.700
22513W        W94239  21.154  20.843   3.346
22514W        W94240  33.544  44.558   0.999
22515W        W94241   9.193  30.414   4.602
22516W        W94242   2.951  19.148   3.891
22517W        W94243   8.412  42.309   2.974
22518W        W94244  15.618   8.859  12.856
22519W        W94245  40.881   8.128  13.609
22520W        W94246   8.556  42.352  11.046
22521W        W94247  32.605  29.299   0.208
22522W        W94248  28.517  16.673   1.286
22523W        W94249   9.458   8.765  12.382
22524W        W94250  38.425   5.263   2.878
22525W        W94251   4.530  22.641  11.399
22526W        W94252  35.047   4.161   0.174
22527W        W94253  23.636  29.150   3.683
22528W        W94254  42.267  24.157   4.786
22529W        W94255   8.725   6.448  11.030
22530W        W94256  12.755   6.425  13.451
22531W        W94257   3.449   5.081  11.015
22532W        W94258  30.601   7.929  13.315
22533W        W94259  11.399  22.380   3.719
22534W        W94260  25.294  37.721  12.543
22535W        W94261   2.426   2.229   3.556
22536W        W94262  24.983  23.062   3.596
22537W        W94263  43.555  38.529  12.060
22538W        W94264   5.338   9.366   0.230
22539W        W94265  19.549   4.845  10.962
22540W        W94266   1.406  24.638  11.491
22541W        W94267  36.485  24.005  11.530
22542W        W94268  35.420  28.788  13.789
22543W        W94269  21.410   9.102   0.771
22544W        W94270  43.391  33.771  11.858
22545W        W94271  32.521  29.604   2.688
22546W        W94272  29.105  11.340   4.919
22547W        W94273  12.720  25.673  12.413
22548W        W94274  28.888  35.866   2.417
22549W        W94275  44.395  29.045   1.372
22550W        W94276  23.296  19.792  12.070
22551W        W94277  12.418  38.821   0.955
22552W        W94278  14.867   2.502  11.570
22553W        W94279  35.056  10.058   0.816
22554W        W94280   7.356  18.208   1.320
22555W        W94281  22.773   8.381  14.392
22556W        W94282  33.356  10.640  12.081
22557W        W94283  24.697  38.494   0.701
22558W        W94284   1.402  32.911   2.847
22559W        W94285  22.835  20.299  14.795
22560W        W94286  28.376  44.464  11.550
22561W        W94287  27.488  36.077  12.473
22562W        W94288  14.523  41.060   4.849
22563W        W94289  20.067  25.313  11.177
22564W        W94290  44.795   2.268   4.911
22565W        W94291  10.232  28.071   0.909
22566W        W94292  26.211  12.814  11.178
22567W        W94293  36.378   6.800   3.217
22568W        W94294   7.920  13.806  14.831
22569W        W94295   7.708   5.239  12.093
22570W        W94296   7.260  11.182  11.523
22571W        W94297   0.715   5.410   1.977
22572W        W94298  26.275   7.795   4.451
22573W        W94299  23.703   9.297   0.727
22574W        W94300  13.305  20.353  12.903
22575W        W94301  26.370   4.474   1.729
22576W        W94302  38.843  20.212  13.082
22577W        W94303  35.037   9.629   4.674
22578W        W94304  13.136  28.946   0.362
22579W        W94305   0.797  15.380   0.165
22580W        W94306  35.328   1.518   1.931
22581W        W94307  13.821  28.896  13.399
22582W        W94308  25.361  39.782  10.553
22583W        W94309  11.488  25.068  10.672
22584W        W94310  43.541  24.638  11.433
22585W        W94311   8.732  38.985  13.126
22586W        W94312  13.107   4.971  10.291
22587W        W94313   3.393  21.736  10.553
22588W        W94314  23.114   4.306  10.641
22589W        W94315   4.839  17.070   1.676
22590W        W94316  11.835  12.226   3.169
22591W        W94317   3.566  33.308   2.901
22592W        W94318   5.564  34.426   4.800
22593W        W94319   5.737  34.960   2.261
22594W        W94320  31.765  44.949   0.971
22595W        W94321  28.434  32.160   0.305
22596W        W94322  30.586  11.270  13.147
22597W        W94323  34.803  22.723  13.537
22598W        W94324   2.889   1.010  11.179
22599W        W94325  26.525  11.367  10.140
22600W        W94326   8.710  43.116   3.789
22601W        W94327  19.822  37.588   0.956
22602W        W94328  19.756  15.359   3.364
22603W        W94329  17.399  39.932   4.583
22604W        W94330  25.165  10.596   3.696
22605W        W94331  25.670  32.440   4.136
22606W        W94332  37.384  19.064  12.164
22607W        W94333  31.100  34.646  11.169
22608W        W94334  27.601   7.133   0.445
22609W        W94335  21.581  16.153  10.404
22610W        W94336  43.965   7.708   2.846
22611W        W94337  31.563   1.218  14.912
22612W        W94338  39.395   9.701   3.923
22613W        W94339   3.286  15.311  14.758
22614W        W94340  39.347   7.594  13.065
22615W        W94341  24.432  16.188  14.837
22616W        W94342  19.686   9.139   1.339
22617W        W94343   7.875  28.028   4.503
22618W        W94344  26.276  37.455   2.860
22619W        W94345   8.836  39.399  14.872
22620W        W94346  14.386  44.906  14.247
22621W        W94347  42.568  42.437  11.065
22622W        W94348   4.008  16.772   3.726
22623W        W94349  41.166  20.110   0.260
22624W        W94350  32.926  36.372   0.379
22625W        W94351   7.853   6.663  11.499
22626W        W94352  21.551  15.050  14.860
22627W        W94353  24.572  43.043  14.305
22628W        W94354  34.003  15.449  13.485
22629W        W94355  27.523  44.545  12.429
22630W        W94356  27.693  26.897   3.694
22631W        W94357  27.988  44.533  13.061
22632W        W94358  18.523   7.230  11.682
22633W        W94359  15.053  23.093  11.452
22634W        W94360  35.405  21.573  13.770
22635W        W94361  27.181  16.151  14.536
22636W        W94362  17.662  17.061   4.336
22637W        W94363   2.178   4.232   0.275
22638W        W94364  25.625  41.225  13.028
22639W        W94365  38.531   2.467   3.795
22640W        W94366  14.235  18.503  14.888
22641W        W94367   5.781  25.635   2.314
22642W        W94368   7.952  43.826  10.684
22643W        W94369  25.420  41.867  11.663
22644W        W94370   0.533   1.988   0.271
22645W        W94371   2.451   8.614   2.617
22646W        W94372   2.786  37.413  12.084
22647W        W94373  12.593  10.231  12.683
22648W        W94374   7.304  29.505   4.658
22649W        W94375  16.396  25.174   0.904
22650W        W94376  23.226  18.279  13.596
22651W        W94377   7.288  22.941  13.421
22652W        W94378  12.829   1.969   2.211
22653W        W94379  35.305  40.456  14.385
22654W        W94380  31.635  22.098   3.745
22655W        W94381   2.291  20.975  14.299
22656W        W94382  24.621  25.052   4.888
22657W        W94383   5.873   2.760  10.524
22658W        W94384  22.553   7.976   0.374
22659W        W94385  17.195  21.742  11.329
22660W        W94386  40.417  31.694   3.211
22661W        W94387   7.917  23.696  10.260
22662W        W94388  27.602  37.043  11.163
22663W        W94389  17.893  26.774   3.762
22664W        W94390  40.910  30.513  11.964
22665W        W94391   0.922   5.961  14.754
22666W        W94392  25.604  26.004  10.416
22667W        W94393   1.073  23.734   3.705
22668W        W94394  41.497  40.033  13.969
22669W        W94395  26.477  35.345   1.259
22670W        W94396   4.468  26.684   1.341
22671W        W94397  30.958   9.998  12.795
22672W        W94398  38.029  26.566  13.945
22673W        W94399  10.450  41.548  10.239
22674W        W94400  43.519  32.955   3.690
22675W        W94401  19.223  27.246  14.278
22676W        W94402  19.056  34.489   0.349
22677W        W94403  42.627  26.911   4.239
22678W        W94404  29.610  13.331  10.872
22679W        W94405  32.542  34.055   2.754
22680W        W94406  44.998  23.181  12.257
22681W        W94407   1.824  32.046  12.614
22682W        W94408  18.772  31.949   4.068
22683W        W94409  12.230  44.715  13.525
22684W        W94410  12.675  14.193   3.102
22685W        W94411  30.142  22.986   0.326
22686W        W94412   8.186  20.439  13.923
22687W        W94413  16.577  43.867  14.011
22688W        W94414  17.797  44.524  14.038
22689W        W94415  29.905  29.103   3.792
22690W        W94416  10.123  27.923   3.378
22691W        W94417  34.438  32.829   2.416
22692W        W94418  22.676  31.959   1.845
22693W        W94419  24.142  19.583   2.633
22694W        W94420  34.911   7.641  13.117
22695W        W94421  41.933  40.266  11.069
22696W        W94422  32.494  22.999   4.086
22697W        W94423  22.644   5.284  13.525
22698W        W94424  33.360   1.265  10.716
22699W        W94425   9.147   1.260   3.290
22700W        W94426  43.141  24.883  11.668
22701W        W94427   2.792   4.121   2.753
22702W        W94428  34.685  39.762  12.907
22703W        W94429  15.564  11.677   1.217
22704W        W94430  26.673  13.287  11.956
22705W        W94431   4.282   4.955  13.783
22706W        W94432   2.282  34.767  11.649
22707W        W94433  23.369  25.717  14.142
22708W        W94434  35.369   6.019   3.365
22709W        W94435   4.264  17.578   1.884
22710W        W94436   3.394  43.010   3.297
22711W        W94437   0.881  14.368   1.407
22712W        W94438   9.667  21.537   4.847
22713W        W94439  12.174  16.068  12.508
22714W        W94440  15.401   5.513   1.393
22715W        W94441  34.628  25.355  12.598
22716W        W94442  39.319  11.773  14.917
22717W        W94443  38.596  43.296   1.656
22718W        W94444  36.413  38.468   0.251
22719W        W94445  29.406  15.296  12.745
22720W        W94446  12.343  30.048  12.487
22721W        W94447   7.172  37.532   2.900
22722W        W94448  28.463  20.129  11.719
22723W        W94449   3.132  35.571  13.549
22724W        W94450  28.548  24.859  10.760
22725W        W94451  30.341  33.448   3.664
22726W        W94452  20.961  23.207   1.854
22727W        W94453  37.969  10.672   0.824
22728W        W94454   2.295   9.435   1.252
22729W        W94455   1.034   2.757  14.889
22730W        W94456   6.660  42.335   2.051
22731W        W94457   8.207  13.172  11.094
22732W        W94458  41.334   1.284  11.474
22733W        W94459  42.667   6.697  10.946
22734W        W94460  19.156   2.529   3.323
22735W        W94461  31.015  44.280  12.351
22736W        W94462  42.482   1.300   3.951
22737W        W94463   4.631  35.958  13.917
22738W        W94464  11.369  18.307  14.308
22739W        W94465  22.104  32.212   2.356
22740W        W94466  23.222  25.171   3.753
22741W        W94467  17.759  16.819   4.794
22742W        W94468  30.144   1.979  13.083
22743W        W94469   4.302  42.795   4.761
22744W        W94470   8.312  35.108   3.846
22745W        W94471   0.271  39.354   0.466
22746W        W94472  38.848  29.634  12.456
22747W        W94473  36.755  42.950   2.632
22748W        W94474   6.179  28.574   3.126
22749W        W94475  31.092  34.718   0.199
22750W        W94476  44.434  10.279  14.192
22751W        W94477   1.282  39.302   1.018
22752W        W94478   5.246  10.396   4.840
22753W        W94479  38.152   3.472   3.764
22754W        W94480  25.476   5.858   1.619
22755W        W94481  13.567  11.714  13.596
22756W        W94482  21.133  16.659  11.958
22757W        W94483   0.997  15.160   0.997
22758W        W94484  29.679  32.669  14.402
22759W        W94485  37.773  11.290  14.453
22760W        W94486   5.938  25.993  12.571
22761W        W94487  35.477  14.181   0.433
22762W        W94488  23.867  25.033   0.815
22763W        W94489   3.550  12.735  12.565
22764W        W94490  17.001   2.617  10.857
22765W        W94491  32.154   4.859   0.330
22766W        W94492   9.635  10.130   3.230
22767W        W94493  13.563  24.246   3.125
22768W        W94494  40.292   5.683  13.158
22769W        W94495  19.656   6.842  14.984
22770W        W94496  22.630  41.463  12.261
22771W        W94497  33.488  31.123   2.832
22772W        W94498  23.133  20.212   4.319
22773W        W94499  20.698   9.576  14.889
22774W        W94500   9.634  14.869  11.449
22775W        W94501  25.359  29.766   2.301
22776W        W94502   0.863   0.328  11.789
22777W        W94503  42.028  17.537   2.779
22778W        W94504  42.683  21.179   1.783
22779W        W94505  26.193  23.774  11.539
22780W        W94506  36.791  27.026   0.726
22781W        W94507  36.949  22.649  12.530
22782W        W94508  28.176  33.059  12.028
22783W        W94509  13.984  28.712   3.937
22784W        W94510  36.099  26.067   4.649
22785W        W94511  44.159  26.096   1.800
22786W        W94512  31.023  37.408  12.350
22787W        W94513  25.253  24.624   1.336
22788W        W94514  22.554  30.553   1.845
22789W        W94515  26.546  18.314  14.909
22790W        W94516   4.495  44.456  13.035
22791W        W94517  40.798  26.987  13.731
22792W        W94518  41.251   1.238   0.762
22793W        W94519  42.062  38.797  14.525
22794W        W94520   9.741  31.005   0.496
22795W        W94521  40.489  29.042   0.737
22796W        W94522  34.164  21.640   0.564
22797W        W94523  40.503  32.879   2.215
22798W        W94524  14.404  35.047  12.968
22799W        W94525   1.853  32.602  11.846
22800W        W94526  15.035  13.003  11.635
22801W        W94527   9.301  18.160  11.712
22802W        W94528   8.837   7.914  13.431
22803W        W94529  25.285  32.983  11.542
22804W        W94530  43.095  16.650   1.411
22805W        W94531  20.007  38.864   2.350
22806W        W94532  20.366  40.559  10.809
22807W        W94533  13.097   9.228  13.638
22808W        W94534   7.254  33.495   1.688
22809W        W94535  15.146   0.262  13.069
22810W        W94536  27.562   9.310  10.524
22811W        W94537  26.428   4.369   2.554
22812W        W94538  15.638  26.580   4.129
22813W        W94539  23.644  44.029  12.098
22814W        W94540   0.903  12.208  14.635
22815W        W94541  26.434  22.170   0.004
22816W        W94542  28.060  23.829   4.007
22817W        W94543  22.774  10.644  12.713
22818W        W94544  33.085  20.199  13.505
22819W        W94545  32.456  37.976   1.932
22820W        W94546  14.230  29.617   2.207
22821W        W94547  21.248   1.882   1.918
22822W        W94548   8.951  20.557  10.959
22823W        W94549  39.358  26.541  11.188
22824W        W94550  26.910  29.006  14.788
22825W        W94551  19.495   3.897   1.833
22826W        W94552  26.666  30.906  11.584
22827W        W94553  43.812  30.979   3.870
22828W        W94554   7.851  16.759  14.456
22829W        W94555  25.927  29.877  12.677
22830W        W94556  32.543  42.998  11.568
22831W        W94557  30.285  31.585   4.173
22832W        W94558  13.061  22.594  13.085
22833W        W94559   7.471   9.919  12.429
22834W        W94560  42.293  23.538  10.659
22835W        W94561  41.269  11.574  13.083
22836W        W94562  41.432  38.084   3.437
22837W        W94563  14.157  23.098   4.120
22838W        W94564  24.196  32.444   0.894
22839W        W94565   9.775  37.940  12.514
22840W        W94566  39.066   5.670   2.166
22841W        W94567   2.225  42.924   1.267
22842W        W94568  16.496  18.846  14.432
22843W        W94569  27.554   8.377   2.065
22844W        W94570  28.647  33.905   1.043
22845W        W94571  40.260  37.015  10.483
22846W        W94572  32.817  10.778  14.829
22847W        W94573  22.769   0.283   2.446
22848W        W94574  27.939  29.507   0.496
22849W        W94575  44.189  32.760  13.860
22850W        W94576  33.203  40.002  13.867
22851W        W94577  41.271  36.857   1.365
22852W        W94578  43.383  38.051   2.265
22853W        W94579   2.942  32.034   3.721
22854W        W94580  17.155  14.901   1.420
22855W        W94581  23.031  35.902   1.659
22856W        W94582  28.887  33.540  13.898
22857W        W94583  22.265  13.069  10.683
22858W        W94584  26.646  33.520  11.504
22859W        W94585   1.977  30.387  11.170
22860W        W94586  31.579  43.013  14.368
22861W        W94587  20.478   0.733   2.281
22862W        W94588  19.590  19.903   0.335
22863W        W94589  18.738  34.880  11.569
22864W        W94590  38.131  33.857   3.735
22865W        W94591  36.053  37.840   3.728
22866W        W94592  12.750   7.960   1.940
22867W        W94593  20.421  44.226   3.193
22868W        W94594  27.100   8.966   4.346
22869W        W94595  15.728  30.452   4.373
22870W        W94596  15.329  41.002  11.058
22871W        W94597  25.139  37.527   1.626
22872W        W94598   0.933  21.306  11.018
22873W        W94599   1.767   5.635  14.466
22874W        W94600  24.448  34.053   1.866
22875W        W94601  13.352  28.511   3.102
22876W        W94602  42.982  10.825  12.490
22877W        W94603   9.523  22.023   2.654
22878W        W94604  19.659  44.019  14.455
22879W        W94605  26.469  14.173   2.419
22880W        W94606  42.514   8.944   4.158
22881W        W94607  40.014  11.773   0.716
22882W        W94608  26.669  44.346   0.360
22883W        W94609  13.346  39.105  12.369
22884W        W94610  43.429  34.694  11.026
22885W        W94611  41.765   6.942   2.770
22886W        W94612  21.730  16.439   2.828
22887W        W94613  38.595  10.803  10.288
22888W        W94614   3.463  15.114  10.027
22889W        W94615   5.663   7.272   0.098
22890W        W94616   0.499  23.772  13.503
22891W        W94617  11.591  13.958  14.297
22892W        W94618   5.664  42.067   3.254
22893W        W94619  36.468  44.003   3.716
22894W        W94620   6.852   8.949  14.508
22895W        W94621  25.790   9.141   3.238
22896W        W94622  37.865  28.594  13.082
22897W        W94623  20.004  15.727   1.792
22898W        W94624   5.471   4.750   3.336
22899W        W94625  27.392  31.002  13.996
22900W        W94626  43.728  29.818  12.988
22901W        W94627  12.529   4.552  12.122
22902W        W94628  15.198  40.353   0.449
22903W        W94629  12.840   2.946  14.475
22904W        W94630  15.008  33.701   3.624
22905W        W94631  17.830   6.672  11.637
22906W        W94632   7.382  30.442   3.629
22907W        W94633   7.278  34.617   4.724
22908W        W94634   1.864  12.870  10.760
22909W        W94635  11.852  30.532   3.576
22910W        W94636  32.928  15.172   1.179
22911W        W94637  16.803  42.197   2.718
22912W        W94638  17.863  19.730  13.851
22913W        W94639  33.769  20.520   0.818
22914W        W94640  44.089  30.663   0.445
22915W        W94641  32.598   0.275  11.708
22916W        W94642  16.102  40.071  13.078
22917W        W94643  16.164  34.477  10.536
22918W        W94644  37.043  20.556   4.363
22919W        W94645   6.099   1.762   4.207
22920W        W94646   8.573   0.355  11.226
22921W        W94647  41.302  29.040   2.199
22922W        W94648  22.800   5.213  10.196
22923W        W94649  32.096  10.721  11.877
22924W        W94650  10.390   9.902  11.714
22925W        W94651   7.049  19.105   2.783
22926W        W94652  44.740  30.142  13.042
22927W        W94653  32.522   2.759   4.916
22928W        W94654  27.583   9.283  13.878
22929W        W94655  31.035  38.611   0.022
22930W        W94656  20.772  10.825  14.331
22931W        W94657  17.644   9.117  14.908
22932W        W94658  31.467  29.629  12.423
22933W        W94659  28.294  18.282   2.236
22934W        W94660  20.064  26.174   0.300
22935W        W94661  26.227   7.789  13.037
22936W        W94662  44.608  34.860   3.333
22937W        W94663  39.913  33.042  11.207
22938W        W94664  35.480   4.935  12.885
22939W        W94665  32.621  41.245   2.714
22940W        W94666  11.300   2.300   4.274
22941W        W94667  40.822  33.277   2.186
22942W        W94668   9.762  18.176  11.953
22943W        W94669  19.205  19.038  13.548
22944W        W94670  16.680   8.716  14.783
22945W        W94671  24.101   6.325   3.628
22946W        W94672  16.903  25.178   3.741
22947W        W94673   8.385   1.266   0.748
22948W        W94674  18.148  34.092   2.446
22949W        W94675  27.408  24.811  11.619
22950W        W94676  11.182  17.071   3.697
22951W        W94677   6.648   1.296  12.036
22952W        W94678  26.495  12.846   0.708
22953W        W94679  20.835  40.033   1.834
22954W        W94680   0.039  34.110   2.859
22955W        W94681  16.202  10.063   1.062
22956W        W94682   1.492  27.984  12.166
22957W        W94683  14.519  12.838   2.693
22958W        W94684  42.812   8.261  13.964
22959W        W94685   2.231   7.868   4.275
22960W        W94686   6.289  34.125   0.997
22961W        W94687  37.370  36.822  11.245
22962W        W94688  35.910  22.442   3.139
22963W        W94689   0.904  20.767  11.087
22964W        W94690  14.581  21.638  11.147
22965W        W94691   8.705   8.041  12.913
22966W        W94692  17.717   8.340  13.047
22967W        W94693  21.733   8.299  10.488
22968W        W94694  37.428   8.330  10.515
22969W        W94695  19.626  17.302  11.169
22970W        W94696   7.347  18.276   2.611
22971W        W94697   2.184   7.398   2.656
22972W        W94698  10.431  16.255  11.584
22973W        W94699  21.245  10.341  10.739
22974W        W94700  38.028  17.786   1.868
22975W        W94701   1.069  31.051  14.936
22976W        W94702   4.188   4.328   3.249
22977W        W94703  26.227  13.093   1.527
22978W        W94704  20.700  24.168  12.330
22979W        W94705  39.448  30.414   2.600
22980W        W94706  27.895  42.773  13.469
22981W        W94707  31.285  19.631   4.741
22982W        W94708  18.110  17.862  14.746
22983W        W94709   5.847  40.531   2.309
22984W        W94710  14.100  29.975   0.229
22985W        W94711  38.887  44.815  13.615
22986W        W94712   4.463  26.543   0.420
22987W        W94713  15.321  29.034   1.367
22988W        W94714   1.498  11.252  12.596
22989W        W94715   1.524   9.409   2.323
22990W        W94716  15.847  11.819   3.042
22991W        W94717  39.920  40.376  10.699
22992W        W94718  21.200   4.702   3.299
22993W        W94719  18.634  12.295   0.085
22994W        W94720  12.109  18.275  14.909
22995W        W94721  29.362  36.454   3.169
22996W        W94722  39.832  10.404   0.261
22997W        W94723  21.631  32.097   3.417
22998W        W94724  29.654  36.480  10.643
22999W        W94725  38.295  21.691   4.502
23000W        W94726  12.406  25.106  14.063
23001W        W94727  11.300  30.453  10.392
23002W        W94728   5.707   3.673   0.261
23003W        W94729  23.203  30.914  11.035
23004W        W94730   8.026   5.089   0.808
23005W        W94731   4.189  32.592  11.184
23006W        W94732  28.403  32.621  11.916
23007W        W94733  13.262  26.417  13.951
23008W        W94734  33.399  19.268   3.097
23009W        W94735  39.754   1.702  13.019
23010W        W94736   1.900  22.410   3.207
23011W        W94737   1.199  16.235   1.005
23012W        W94738   1.898  37.471   0.231
23013W        W94739  15.612   6.384   4.130
23014W        W94740  40.861  34.538   1.858
23015W        W94741   8.864  14.196   3.613
23016W        W94742  32.518  23.914  10.761
23017W        W94743  25.154  13.713  13.258
23018W        W94744  23.874  18.170   2.773
23019W        W94745   7.086  42.917  11.109
23020W        W94746  36.275  29.927  13.320
23021W        W94747  31.447   2.611   1.206
23022W        W94748   5.412   2.970  10.341
23023W        W94749  23.198  24.431   0.376
23024W        W94750  28.699  16.302  12.936
23025W        W94751  20.573   4.371  10.628
23026W        W94752  24.234  40.324  11.999
23027W        W94753  10.366  15.108   1.178
23028W        W94754   7.219  22.538   2.800
23029W        W94755  31.515   3.200  13.543
23030W        W94756  44.343  44.960  13.148
23031W        W94757  33.431  17.324  11.586
23032W        W94758  12.499  21.932  13.866
23033W        W94759  36.910  33.618   0.371
23034W        W94760  15.144  32.282   0.973
23035W        W94761  30.493  43.777   1.746
23036W        W94762   7.052  24.723  11.920
23037W        W94763  36.403   5.227  13.643
23038W        W94764  24.196  18.850   3.113
23039W        W94765  35.461  29.863  14.885
23040W        W94766   4.173  19.442   2.295
23041W        W94767  37.099  13.068   4.208
23042W        W94768   4.810  37.210   5.108
23043W        W94769   4.964  18.009  12.035
23044W        W94770  35.357   9.444   1.813
23045W        W94771  20.456  44.121   1.766
23046W        W94772   7.397  20.706   4.274
23047W        W94773  36.496  16.610  11.701
23048W        W94774  22.586  36.838  11.490
23049W        W94775   6.154  42.357  10.615
23050W        W94776  43.275   1.525   2.872
23051W        W94777  26.060  37.296  13.856
23052W        W94778  13.353  33.488   1.578
23053W        W94779  13.655   3.946  14.115
23054W        W94780   0.853   4.019  13.467
23055W        W94781  19.393  34.872   0.428
23056W        W94782  34.123  16.151  14.824
23057W        W94783   3.714  36.439   2.813
23058W        W94784  37.166  22.151  11.628
23059W        W94785   4.478  30.820  12.526
23060W        W94786  15.092  41.075   1.185
23061W        W94787  27.746   8.426  13.963
23062W        W94788  41.857  31.736  11.206
23063W        W94789  18.499  21.151   1.765
23064W        W94790  30.207   9.907   2.281
23065W        W94791  24.561  42.716  13.914
23066W        W94792   6.484  35.844  11.214
23067W        W94793   6.592   8.427   0.215
23068W        W94794   1.399  36.050  14.423
23069W        W94795  33.100   3.903  14.012
23070W        W94796  39.315   1.475  12.898
23071W        W94797  30.482  39.291  11.688
23072W        W94798  12.854  11.646  14.387
23073W        W94799   7.216  18.402  12.958
23074W        W94800  14.686   9.540  14.318
23075W        W94801   6.963   4.927   1.224
23076W        W94802  44.266  20.255   1.337
23077W        W94803  16.995  33.040   0.684
23078W        W94804   8.858  18.559   3.899
23079W        W94805  31.258  17.399   5.184
23080W        W94806  41.131  42.814   0.273
23081W        W94807  26.950   4.886   4.354
23082W        W94808  11.295  13.204  14.543
23083W        W94809  19.532  21.561   4.189
23084W        W94810  21.948  38.379   1.735
23085W        W94811  23.530  26.231   4.961
23086W        W94812  12.412  36.305   2.895
23087W        W94813  36.846  23.622  10.760
23088W        W94814  28.033   2.841  13.859
23089W        W94815  28.601   6.343   0.694
23090W        W94816   4.337  19.260   3.308
23091W        W94817  33.321  10.916  13.754
23092W        W94818   3.486  18.410   3.035
23093W        W94819  30.436  23.598   4.766
23094W        W94820  39.511  30.985   3.933
23095W        W94821  41.411  39.639  10.508
23096W        W94822   4.126  32.304   3.630
23097W        W94823  22.270   1.442  14.784
23098W        W94824  39.482  36.370  14.935
23099W        W94825  44.879  25.583  11.946
23100W        W94826  16.261  20.637  13.203
23101W        W94827  25.751  27.003  10.803
23102W        W94828  30.141   7.588   0.539
23103W        W94829  17.776  24.824   2.372
23104W        W94830   3.328  18.525   0.022
23105W        W94831  25.411  11.465   2.842
23106W        W94832  25.016   6.171   0.249
23107W        W94833  36.104  15.548   2.869
23108W        W94834  22.038   6.413   2.804
23109W        W94835  13.278   9.211   0.570
23110W        W94836   6.471  35.486   3.603
23111W        W94837  43.503   8.935  10.936
23112W        W94838  33.970  25.931   3.831
23113W        W94839   3.691  35.550  14.452
23114W        W94840  44.264   4.670   1.055
23115W        W94841  34.127  13.224  11.119
23116W        W94842  38.226   2.206   0.858
23117W        W94843  33.529   6.379  13.385
23118W        W94844  39.111  33.452  12.979
23119W        W94845  24.047   1.403  14.016
23120W        W94846  44.272  41.073   0.821
23121W        W94847  18.930  33.058   1.725
23122W        W94848  38.806  38.950  14.309
23123W        W94849  14.729  33.875   1.888
23124W        W94850  38.063  34.132  12.792
23125W        W94851  27.670  24.494  13.812
23126W        W94852  14.366  29.083   3.784
23127W        W94853  39.871  10.149   2.805
23128W        W94854  41.018  18.566   1.918
23129W        W94855  20.354  29.449   4.113
23130W        W94856  18.542  13.986   4.181
23131W        W94857   0.741  25.317  11.059
23132W        W94858  42.907   3.156   3.239
23133W        W94859  44.874   0.003   1.153
23134W        W94860   3.491   4.520  12.863
23135W        W94861  39.631   2.388   1.720
23136W        W94862   6.636  40.307  12.121
23137W        W94863   1.827  10.362   0.017
23138W        W94864  10.928  22.961   5.150
23139W        W94865  38.001  25.749  13.442
23140W        W94866  39.476  33.879   1.418
23141W        W94867  40.950  33.704  12.944
23142W        W94868   8.608   9.754   3.876
23143W        W94869   5.286   8.868  11.487
23144W        W94870  34.196  22.889  13.550
23145W        W94871  41.745  41.322  14.220
23146W        W94872  35.005  22.213  12.347
23147W        W94873  31.903   5.572   0.952
23148W        W94874   8.636  12.700   0.257
23149W        W94875  26.182  36.781  13.881
23150W        W94876   0.189   8.218   1.172
23151W        W94877  25.560   7.310  12.491
23152W        W94878   7.429  28.050   1.328
23153W        W94879  17.627  32.582  12.073
23154W        W94880  10.854  43.590  11.964
23155W        W94881   3.794  20.131   3.191
23156W        W94882  13.312   4.537   1.022
23157W        W94883  31.565   3.750   2.621
23158W        W94884   0.521  21.970   1.853
23159W        W94885   2.082  11.836   0.908
23160W        W94886   3.451  27.489   1.321
23161W        W94887  25.231  14.551   2.287
23162W        W94888  32.014  28.147   4.859
23163W        W94889   9.292  42.498   4.362
23164W        W94890  28.942  24.097  14.970
23165W        W94891   0.860  35.023   3.579
23166W        W94892  33.847  10.483   1.314
23167W        W94893   8.727   2.718   1.573
23168W        W94894  41.941  22.311  10.920
23169W        W94895  22.703  18.568  13.023
23170W        W94896  18.520  32.593   0.189
23171W        W94897  14.035  33.514  11.145
23172W        W94898  26.075  26.232  10.430
23173W        W94899  12.051  25.734  14.793
23174W        W94900   9.569   1.874   0.292
23175W        W94901  30.952   3.684  10.505
23176W        W94902  41.514  39.845   1.376
23177W        W94903  30.510  16.596  13.970
23178W        W94904   3.691  19.040  10.993
23179W        W94905  16.351  40.338  14.867
23180W        W94906   9.812  38.764   0.981
23181W        W94907  17.783  23.067   4.593
23182W        W94908  22.231   6.096  13.005
23183W        W94909  16.714  14.048  14.449
23184W        W94910  37.548   1.267  10.605
23185W        W94911  33.210  17.814   1.814
23186W        W94912  40.202  16.763   4.110
23187W        W94913  16.992  39.282  14.418
23188W        W94914  28.356  43.059   4.578
23189W        W94915  36.125  27.703   1.865
23190W        W94916   9.949  32.695   1.983
23191W        W94917  26.570  14.859  13.886
23192W        W94918   5.378  30.846  14.123
23193W        W94919  33.856  17.693   2.917
23194W        W94920  27.612  40.969  13.567
23195W        W94921  41.772  36.802  12.363
23196W        W94922   2.994  38.820   4.229
23197W        W94923  18.364  22.169  12.887
23198W        W94924   8.389   5.952   5.493
23199W        W94925  37.275  28.109  11.942
23200W        W94926  38.753   4.662  11.142
23201W        W94927   6.694  28.217  13.130
23202W        W94928   6.266   3.817  12.597
23203W        W94929   1.289  41.837   3.807
23204W        W94930  35.391  34.617   0.345
23205W        W94931   0.451  16.843   0.292
23206W        W94932  42.390  30.986   0.146
23207W        W94933  37.267   0.220  10.279
23208W        W94934  10.298  26.290   2.134
23209W        W94935  25.224   2.290  13.046
23210W        W94936  31.433  24.533   1.155
23211W        W94937  32.632  31.486   1.402
23212W        W94938  28.908  20.693   4.578
23213W        W94939  32.428   3.251   0.489
23214W        W94940  12.368  10.299   1.259
23215W        W94941  20.325  28.571  13.710
23216W        W94942   0.543   8.247  11.859
23217W        W94943   7.909   7.876  12.565
23218W        W94944  39.539  12.349   3.132
23219W        W94945  35.894   7.816   1.042
23220W        W94946  31.066  11.322   4.334
23221W        W94947  26.745  35.156  11.846
23222W        W94948  28.649  12.742  11.612
23223W        W94949  17.724   6.540   4.657
23224W        W94950  21.750  31.481   1.464
23225W        W94951   7.408  24.134  11.163
23226W        W94952  19.753  12.924  12.508
23227W        W94953  31.934   4.278   3.398
23228W        W94954   6.341  21.230   1.581
23229W        W94955  27.479  32.471  10.669
23230W        W94956   8.658   1.282  14.365
23231W        W94957  32.944  38.667  13.924
23232W        W94958  44.973  23.663  11.118
23233W        W94959  19.063  10.199  13.694
23234W        W94960  32.477  27.872   0.297
23235W        W94961  23.275  23.817  13.474
23236W        W94962   0.745   6.709   1.392
23237W        W94963  19.022  25.244  14.713
23238W        W94964   7.395  27.938   2.755
23239W        W94965  11.383  36.466  13.129
23240W        W94966  44.859  41.445   2.142
23241W        W94967  16.139  26.302  10.358
23242W        W94968  15.601  37.829   1.316
23243W        W94969   4.728  37.012  13.457
23244W        W94970  31.942  34.903   4.166
23245W        W94971   4.352  23.582  10.999
23246W        W94972  38.474   5.956   5.116
23247W        W94973   2.794  17.230  14.917
23248W        W94974  18.029  30.145  13.035
23249W        W94975   9.435  33.967  12.164
23250W        W94976   7.412   4.486   1.193
23251W        W94977  14.728   7.178  12.710
23252W        W94978  35.649  24.533   0.200
23253W        W94979  17.389  22.459  12.044
23254W        W94980   0.975  11.683  11.203
23255W        W94981  36.988  29.513  12.364
23256W        W94982  14.605  14.559  12.072
23257W        W94983  43.055  14.394  14.963
23258W        W94984   3.935   1.066  11.178
23259W        W94985   7.104  44.943  12.542
23260W        W94986  13.753   0.319  13.516
23261W        W94987  40.400  32.982  12.462
23262W        W94988   1.121  33.559   3.276
23263W        W94989  10.360  34.153   0.825
23264W        W94990   9.525  32.924   1.833
23265W        W94991  22.101  38.045   4.796
23266W        W94992  35.441   7.162  11.957
23267W        W94993  35.504   3.773  10.994
23268W        W94994  10.322  39.975   1.972
23269W        W94995  44.172  14.267  12.958
23270W        W94996  33.809  44.930   3.807
23271W        W94997  36.404  15.777  13.532
23272W        W94998  32.144   5.827   3.532
23273W        W94999  32.736  40.336  13.421
23274W        W95000  19.824   3.212  10.212
23275W        W95001  33.494  15.574   1.829
23276W        W95002  13.352   1.807   3.125
23277W        W95003  12.238  37.386   2.247
23278W        W95004  11.212  17.233  12.583
23279W        W95005   6.129  25.672  11.066
23280W        W95006  43.373  31.692  13.687
23281W        W95007  13.201  39.996   4.247
23282W        W95008  21.639  19.324  10.493
23283W        W95009  10.211  30.046  13.549
23284W        W95010   3.727  32.570   3.846
23285W        W95011  15.309  40.304  13.269
23286W        W95012   8.746  39.229   3.318
23287W        W95013  15.189  26.372   3.251
23288W        W95014   0.282  41.415   4.875
23289W        W95015   5.525  36.594  14.804
23290W        W95016  20.942   1.079   1.572
23291W        W95017  42.416  14.575  13.796
23292W        W95018  16.241  18.158   0.767
23293W        W95019   0.425  23.109   2.327
23294W        W95020  43.714  43.516  14.559
23295W        W95021  26.702  31.197  13.473
23296W        W95022   2.500  40.119   1.702
23297W        W95023  32.605  18.009  13.468
23298W        W95024  38.878  29.462  11.967
23299W        W95025  28.113  38.816   1.175
23300W        W95026   5.235  16.308   0.808
23301W        W95027   8.254  14.053  14.495
23302W        W95028  38.752  13.253  10.215
23303W        W95029  38.400  36.963   4.107
23304W        W95030  12.425   2.802  10.763
23305W        W95031  40.798  36.542  14.061
23306W        W95032   6.435  28.167  12.161
23307W        W95033   7.859   8.155   1.945
23308W        W95034  27.091  13.786  14.351
23309W        W95035   5.542   3.488  10.251
23310W        W95036   3.618  32.731  14.445
23311W        W95037   9.695  25.204   0.537
23312W        W95038  40.886  37.090   1.842
23313W        W95039  37.378  36.013   1.468
23314W        W95040   6.516  29.451  11.444
23315W        W95041  31.506  16.173   1.223
23316W        W95042  17.328  43.076   3.277
23317W        W95043  10.218   5.863  10.694
23318W        W95044  44.402  34.905   4.823
23319W        W95045   9.733  21.291   0.590
23320W        W95046  12.852  24.172   1.869
23321W        W95047   7.792  11.860   1.673
23322W        W95048  42.454  20.159   3.838
23323W        W95049  28.481  22.094  13.964
23324W        W95050  34.705  20.016   0.263
23325W        W95051  29.775  15.081  14.768
23326W        W95052  30.149  29.179   0.790
23327W        W95053   3.655  40.495  11.870
23328W        W95054   3.373  41.840   5.078
23329W        W95055  22.159  28.119  13.421
23330W        W95056   9.264  28.699  14.840
23331W        W95057  29.045  27.931  13.366
23332W        W95058  19.501  15.766   3.536
23333W        W95059  38.966  28.450   2.372
23334W        W95060  17.471  31.941   0.767
23335W        W95061   9.940  28.731   2.976
23336W        W95062   9.763  12.415   3.805
23337W        W95063   5.703  21.192  11.191
23338W        W95064   1.140   6.274   4.916
23339W        W95065  34.030  23.133   0.982
23340W        W95066   2.010  16.763   1.847
23341W        W95067  40.579  22.544   3.655
23342W        W95068   9.694  24.005  10.669
23343W        W95069  20.457  19.192  14.409
23344W        W95070  36.408  25.251   4.255
23345W        W95071  36.377  15.795  11.206
23346W        W95072   1.804  21.667   4.122
23347W        W95073  10.015  40.224   2.824
23348W        W95074  10.146  15.517   4.799
23349W        W95075  21.446  37.111  13.550
23350W        W95076  43.305  18.643  10.656
23351W        W95077  23.786  32.187  11.000
23352W        W95078  33.930  34.101  14.072
23353W        W95079  14.564  29.087   1.447
23354W        W95080   2.826   4.879   4.140
23355W        W95081   1.007  19.508   1.234
23356W        W95082  21.665  28.464  10.491
23357W        W95083  43.178   1.378   4.784
23358W        W95084  35.012   2.978  13.964
23359W        W95085   9.357  13.163   4.689
23360W        W95086  37.478  33.442  13.738
23361W        W95087  35.644  14.144  13.779
23362W        W95088  39.246   9.228   3.805
23363W        W95089  12.949  12.067  12.015
23364W        W95090  12.318  37.360   3.430
23365W        W95091  27.696   2.327   2.864
23366W        W95092  14.659   5.806   1.006
23367W        W95093  34.161  12.435  13.870
23368W        W95094  24.570  41.250   2.658
23369W        W95095  15.700  16.942  12.590
23370W        W95096   1.406  31.905   3.786
23371W        W95097  13.192  30.056   0.776
23372W        W95098  16.377  23.201  13.134
23373W        W95099  11.901  17.822  13.774
23374W        W95100  22.504  37.647   1.062
23375W        W95101  42.809  15.400  12.073
23376W        W95102  27.211  12.194   3.171
23377W        W95103  42.106   0.847   2.009
23378W        W95104   5.304  13.044  13.622
23379W        W95105  39.567  23.528  11.664
23380W        W95106  29.129  41.106   4.711
23381W        W95107  22.642  22.335   4.658
23382W        W95108   1.493  32.586   0.706
23383W        W95109   1.217   1.787  14.533
23384W        W95110   7.373   2.466   1.788
23385W        W95111  29.037  24.002   1.313
23386W        W95112  22.818  42.461  11.249
23387W        W95113  35.461   8.202   1.294
23388W        W95114   3.439  42.453   3.386
23389W        W95115  38.133  36.443   2.659
23390W        W95116   1.358  41.572   3.038
23391W        W95117  34.445  43.562   4.121
23392W        W95118  25.180   5.559   3.716
23393W        W95119  22.446  17.268   3.734
23394W        W95120  17.821  14.986   1.426
23395W        W95121  23.920   9.406   3.846
23396W        W95122  43.048  38.785   4.657
23397W        W95123  41.915  44.975  13.473
23398W        W95124  31.750  23.810   5.481
23399W        W95125  13.796  38.383   2.189
23400W        W95126   4.535  40.723  12.124
23401W        W95127  30.856  24.618   2.231
23402W        W95128  42.723  33.989  11.704
23403W        W95129  36.815  37.490  13.817
23404W        W95130   2.365  26.302   4.598
23405W        W95131  39.794   2.207  13.048
23406W        W95132  36.028   2.731   0.499
23407W        W95133  35.592  16.241   3.555
23408W        W95134   7.689  12.305   3.700
23409W        W95135   0.378  20.768   2.416
23410W        W95136   4.165  12.183   0.293
23411W        W95137   7.859  44.491   4.541
23412W        W95138  38.542  12.140  10.534
23413W        W95139  41.459  23.597   0.267
23414W        W95140  27.686  16.250  12.914
23415W        W95141  20.827  24.242   3.699
23416W        W95142  18.809  10.676  11.007
23417W        W95143  12.344  42.461  13.052
23418W        W95144  10.896  43.044   2.596
23419W        W95145  14.825  14.285   0.891
23420W        W95146  34.541  22.054  11.614
23421W        W95147   6.404  25.251  12.472
23422W        W95148  22.382   8.715   5.101
23423W        W95149  12.002   8.779   3.160
23424W        W95150  20.705  11.883  14.354
23425W        W95151  22.455  13.640   1.915
23426W        W95152   0.788   6.291   2.640
23427W        W95153  26.068  43.900  13.833
23428W        W95154   6.805  36.454  11.588
23429W        W95155  15.002   9.338   3.014
23430W        W95156   9.457  43.856  13.279
23431W        W95157  27.613  16.038  11.607
23432W        W95158  41.000  24.406   0.053
23433W        W95159  31.079  12.160   0.842
23434W        W95160  39.356  39.933  13.516
23435W        W95161  24.955  36.923   3.332
23436W        W95162  23.590   6.376   2.842
23437W        W95163  10.188  38.598   0.697
23438W        W95164  36.141   4.970   4.670
23439W        W95165  14.623  22.114   3.426
23440W        W95166   9.197  42.062   0.906
23441W        W95167   8.803   0.123  12.217
23442W        W95168  33.009  42.866  10.413
23443W        W95169  14.532   3.862   4.706
23444W        W95170  15.217  14.266   5.097
23445W        W95171   5.349  44.612  11.535
23446W        W95172   1.903  21.997  12.948
23447W        W95173   5.831  39.787   1.188
23448W        W95174   0.210   8.493   0.322
23449W        W95175  11.137  17.341   1.271
23450W        W95176  36.589  13.684  13.750
23451W        W95177  39.486  27.479  11.445
23452W        W95178  24.626  16.810   4.520
23453W        W95179  28.516  42.266   2.837
23454W        W95180  42.056  35.365   1.908
23455W        W95181  10.459  36.565   0.166
23456W        W95182   2.208  36.954   0.266
23457W        W95183   7.024   4.508   3.793
23458W        W95184  30.974  27.071  11.937
23459W        W95185  29.246  33.393   5.126
23460W        W95186   0.424  31.514   4.158
23461W        W95187  38.682   1.992   9.979
23462W        W95188  16.344  36.342   4.269
23463W        W95189  24.094  22.471   3.111
23464W        W95190  40.126  26.897   2.400
23465W        W95191  33.594   3.233   9.857
23466W        W95192  12.382  36.801  12.983
23467W        W95193  36.115  40.944   2.382
23468W        W95194  26.073   9.913  13.898
23469W        W95195   8.231   9.010  13.607
23470W        W95196  41.498  36.175   1.739
23471W        W95197  38.831  20.956  12.526
23472W        W95198   5.848  12.139  14.398
23473W        W95199   8.930   2.740   4.069
23474W        W95200  19.607  32.310   0.980
23475W        W95201  30.391  43.558   3.545
23476W        W95202  28.678  21.959  11.184
23477W        W95203   1.418  26.531  11.243
23478W        W95204   7.306  31.705  10.697
23479W        W95205   5.189  12.190   0.999
23480W        W95206   7.698  25.419  11.136
23481W        W95207  11.468  37.860   0.720
23482W        W95208  27.464  27.567   0.570
23483W        W95209   2.819  42.579  12.691
23484W        W95210  20.573  13.647   0.825
23485W        W95211  26.311  39.285  13.525
23486W        W95212  24.265  21.306   4.076
23487W        W95213  13.643   1.509   2.471
23488W        W95214  41.733  40.787   4.657
23489W        W95215   2.893  39.292  14.920
23490W        W95216  11.914  38.890  13.366
23491W        W95217  10.905  39.933   0.470
23492W        W95218   7.812  25.144   0.004
23493W        W95219  34.705  29.037  12.916
23494W        W95220  23.750  19.629  13.027
23495W        W95221  22.567  30.347   3.795
23496W        W95222   2.267  28.954  14.850
23497W        W95223  15.721  14.087   2.276
23498W        W95224  10.929  30.564  13.494
23499W        W95225  43.752  32.559  14.822
23500W        W95226  23.217  32.910  10.714
23501W        W95227   1.878  40.894  10.618
23502W        W95228  18.326   6.725  12.544
23503W        W95229  19.626  31.166  14.896
23504W        W95230  12.365  37.300  12.825
23505W        W95231   4.334  38.966  11.565
23506W        W95232  11.684  43.338   4.928
23507W        W95233   5.032  38.951   2.945
23508W        W95234  44.473   9.636  11.984
23509W        W95235  29.979  22.178   1.792
23510W        W95236  11.156  15.237  10.784
23511W        W95237  30.526  20.216   0.997
23512W        W95238  44.517  14.135  12.510
23513W        W95239   4.819   0.830   0.929
23514W        W95240  33.618  19.138  11.223
23515W        W95241  12.223  15.529  12.515
23516W        W95242  39.016  36.028  10.687
23517W        W95243  30.919  22.299  12.922
23518W        W95244  23.949  28.711   4.553
23519W        W95245  33.960  18.310   4.348
23520W        W95246  16.101  25.491   0.187
23521W        W95247  34.570  31.889   1.542
23522W        W95248  21.644  43.017  14.275
23523W        W95249  43.249  13.011  11.825
23524W        W95250  14.361  34.350  11.498
23525W        W95251  28.866   7.185   2.788
23526W        W95252   4.897  19.202   3.665
23527W        W95253  29.604  13.700  12.343
23528W        W95254  40.117  17.477  12.068
23529W        W95255  16.664  37.992  14.867
23530W        W95256  16.291  42.592   4.268
23531W        W95257  39.925  26.603   4.098
23532W        W95258  33.038   9.583   1.880
23533W        W95259  30.121  39.001   0.222
23534W        W95260  26.510  37.101   2.327
23535W        W95261  21.525  39.852   2.551
23536W        W95262  12.915  21.471   1.491
23537W        W95263   2.414   6.015   2.841
23538W        W95264  32.885   7.923   0.173
23539W        W95265  24.084   9.638   4.668
23540W        W95266  17.580  40.235   0.558
23541W        W95267   1.898  13.795   2.191
23542W        W95268   4.033  21.096   0.495
23543W        W95269  20.916  34.890   3.401
23544W        W95270  14.761  42.262  11.123
23545W        W95271   4.909  43.578   3.144
23546W        W95272  39.789  25.799   4.259
23547W        W95273  26.453  20.814  11.443
23548W        W95274  14.632  39.644   4.986
23549W        W95275  20.352  25.567  10.313
23550W        W95276  26.058   8.162  13.843
23551W        W95277   7.643  36.463  13.958
23552W        W95278  37.758  23.638   1.959
23553W        W95279   3.193  12.176   4.711
23554W        W95280  23.444  42.683   0.345
23555W        W95281  24.061   4.388  13.359
23556W        W95282  43.971  10.079   1.806
23557W        W95283   1.452  31.523  11.481
23558W        W95284  17.180   0.722  12.925
23559W        W95285  27.634   9.888   0.941
23560W        W95286  31.841   8.194  14.102
23561W        W95287  30.589  23.206   5.063
23562W        W95288  38.602  11.713  13.460
23563W        W95289  13.893   4.666  14.836
23564W        W95290   6.945  15.769   4.519
23565W        W95291   8.199   7.178   3.372
23566W        W95292  41.463  11.163   1.826
23567W        W95293   3.878   5.389   3.167
23568W        W95294  25.688  25.420   2.876
23569W        W95295   2.792  16.805  12.639
23570W        W95296   0.724  10.693   1.854
23571W        W95297   3.938  32.607   0.831
23572W        W95298  42.665  38.371  11.985
23573W        W95299  25.659   0.703  13.919
23574W        W95300   6.473  36.646   1.520
23575W        W95301  42.420  25.629   1.740
23576W        W95302  31.205   9.297   3.756
23577W        W95303  36.869   9.207   0.044
23578W        W95304  19.250  28.047   2.731
23579W        W95305  27.848  16.152   2.287
23580W        W95306   6.840  21.259  14.019
23581W        W95307  33.429  26.171  11.149
23582W        W95308  24.761   5.271  14.838
23583W        W95309   9.718  18.179  14.887
23584W        W95310  44.865  30.505   4.218
23585W        W95311  37.490  19.401   1.401
23586W        W95312  11.008  21.716   0.453
23587W        W95313  39.761   1.742   2.238
23588W        W95314   2.392  28.616  14.475
23589W        W95315  22.388   9.444   3.603
23590W        W95316  43.363  31.126   2.756
23591W        W95317   0.727  33.489  11.099
23592W        W95318  39.780  25.464  14.866
23593W        W95319  31.078  18.488   1.770
23594W        W95320  10.260  43.035  12.391
23595W        W95321   4.413  36.297   3.222
23596W        W95322  29.660  30.172   1.472
23597W        W95323   5.423   8.180   1.348
23598W        W95324  22.148  36.830   2.372
23599W        W95325  16.105  35.589   3.128
23600W        W95326  32.638  26.636   1.819
23601W        W95327   1.998  40.070   0.003
23602W        W95328  44.163  33.883   1.742
23603W        W95329  18.737  18.597  11.557
23604W        W95330  11.714  34.345   4.536
23605W        W95331   7.937  27.907  14.349
23606W        W95332  21.655  19.274  11.014
23607W        W95333  40.276  39.792   2.702
23608W        W95334  21.040  33.916  10.620
23609W        W95335  30.145  19.459  11.913
23610W        W95336  33.984  36.385  10.576
23611W        W95337  13.353   1.270  12.670
23612W        W95338  42.493  34.646   1.402
23613W        W95339  12.710  36.329   0.480
23614W        W95340   2.970  26.989   0.668
23615W        W95341  28.987  22.119  14.794
23616W        W95342   2.192  43.274  14.972
23617W        W95343  23.999  34.512  13.905
23618W        W95344  34.779  29.534   4.685
23619W        W95345  38.929  31.464  13.975
23620W        W95346  33.655  13.676  13.790
23621W        W95347   5.156   9.198  14.278
23622W        W95348  44.921  23.052   2.425
23623W        W95349   6.703  42.241  13.039
23624W        W95350  31.620  32.123  14.858
23625W        W95351  30.166  10.439  13.693
23626W        W95352  36.660  21.400  11.558
23627W        W95353  36.306  12.616  11.093
23628W        W95354   6.923   4.370  10.547
23629W        W95355  30.022   9.621   0.467
23630W        W95356  34.102   2.723  11.464
23631W        W95357  32.832   0.401  12.294
23632W        W95358  23.586  20.137  14.387
23633W        W95359  29.948  35.030  13.464
23634W        W95360  42.292   4.744  11.603
23635W        W95361  20.289   3.247  12.387
23636W        W95362  26.171   6.920  14.631
23637W        W95363  14.101  12.609  14.457
23638W        W95364  23.434  15.884   4.667
23639W        W95365  19.779  18.343  13.589
23640W        W95366  27.677  12.200   1.720
23641W        W95367  43.556  33.060   1.923
23642W        W95368  29.891  34.569   2.845
23643W        W95369  32.670   0.784  10.367
23644W        W95370  24.499  32.694   1.884
23645W        W95371  32.039   3.349  13.295
23646W        W95372  43.676  26.274   0.451
23647W        W95373  32.036  39.490   2.894
23648W        W95374  37.267  38.819   4.998
23649W        W95375  33.875  17.786  11.896
23650W        W95376  31.062  44.909  14.911
23651W        W95377  12.568  23.715  13.581
23652W        W95378  27.926  16.805   4.163
23653W        W95379   5.113  21.666  13.271
23654W        W95380  25.705  10.519   3.901
23655W        W95381   8.232  43.540   2.337
23656W        W95382  12.389   2.947  14.765
23657W        W95383  17.850   9.125  13.481
23658W        W95384   7.816  41.103  14.868
23659W        W95385  35.623  44.825  10.564
23660W        W95386  33.414  30.743   0.456
23661W        W95387   4.777  33.392   2.674
23662W        W95388   6.212  41.358  10.931
23663W        W95389  29.496  44.080  13.931
23664W        W95390  21.571  23.730  14.110
23665W        W95391  43.317  44.056   4.102
23666W        W95392  16.817   3.986  14.506
23667W        W95393  44.188  38.853   0.758
23668W        W95394  28.509  40.087   1.657
23669W        W95395  19.703   0.957   2.753
23670W        W95396   4.837   7.831  11.531
23671W        W95397  44.977  36.691  11.120
23672W        W95398  41.770  26.487  11.092
23673W        W95399  20.113   3.281   2.860
23674W        W95400  19.435  14.848  13.031
23675W        W95401  16.142   9.857  14.979
23676W        W95402   1.258   7.488   1.223
23677W        W95403  14.962  16.707  14.979
23678W        W95404   4.082   3.182   2.413
23679W        W95405  31.029  27.619   3.471
23680W        W95406  31.985  34.999  12.643
23681W        W95407   1.206  35.459  13.390
23682W        W95408  35.431  38.526   4.241
23683W        W95409  35.790  27.947  14.440
23684W        W95410  34.598  37.453  10.957
23685W        W95411  44.287  27.495  13.402
23686W        W95412  25.096   5.910   3.333
23687W        W95413  36.420  13.930  11.502
23688W        W95414   8.811  12.392   3.002
23689W        W95415  10.737   5.786  14.796
23690W        W95416  15.050   6.976  13.649
23691W        W95417   4.060   4.393  12.029
23692W        W95418   0.311  28.208   3.770
23693W        W95419  40.871  29.314  13.805
23694W        W95420  22.059  19.186  13.304
23695W        W95421  44.335  39.866   2.387
23696W        W95422   7.389  39.399   4.598
23697W        W95423  28.582  12.407  13.791
23698W        W95424  39.297   3.792  12.062
23699W        W95425  35.653  19.200   2.150
23700W        W95426   6.348  20.655  13.543
23701W        W95427  10.502  31.857  12.867
23702W        W95428  41.049  33.625   1.250
23703W        W95429  16.373  16.800   1.428
23704W        W95430  30.658   2.615  14.389
23705W        W95431  21.511  23.322  14.980
23706W        W95432   1.412   7.811  14.566
23707W        W95433  36.448  10.919   0.752
23708W        W95434  30.134  15.330   3.627
23709W        W95435  21.452  40.007  12.552
23710W        W95436  32.141  15.916  14.275
23711W        W95437   7.129  20.426  11.970
23712W        W95438  38.921  23.585   9.812
23713W        W95439  30.191   6.839   3.751
23714W        W95440  12.914  10.179   0.421
23715W        W95441   6.822  29.605   1.410
23716W        W95442  27.884  28.207   1.939
23717W        W95443  20.123  15.902   4.161
23718W        W95444  28.120  10.412  10.232
23719W        W95445  13.311  14.352  11.742
23720W        W95446  38.015  28.020   3.213
23721W        W95447  29.704  29.402   4.188
23722W        W95448  21.663   4.178   4.741
23723W        W95449   0.743  24.166  12.449
23724W        W95450  23.518  28.981  11.078
23725W        W95451  11.582   7.483  11.025
23726W        W95452   4.862  34.677  10.727
23727W        W95453  12.739  22.620   4.688
23728W        W95454  20.653   5.891   2.113
23729W        W95455  24.074  21.683  10.665
23730W        W95456  41.773   6.721   3.226
23731W        W95457  32.232  14.216   0.240
23732W        W95458  43.601  19.836   4.267
23733W        W95459  32.610  36.475  12.974
23734W        W95460  29.476  25.202   3.812
23735W        W95461  20.112  10.388  14.219
23736W        W95462  33.437  35.308   1.338
23737W        W95463  20.689  10.207  12.434
23738W        W95464  29.269  18.625  11.532
23739W        W95465   0.744  17.769  12.943
23740W        W95466  39.132  42.893  14.273
23741W        W95467  15.739  41.755  11.008
23742W        W95468  24.019   8.651   2.017
23743W        W95469  42.515  23.013   2.376
23744W        W95470  15.819  27.479  12.410
23745W        W95471   0.282  33.897   4.516
23746W        W95472  25.496  41.801  13.579
23747W        W95473  33.441  39.309  11.144
23748W        W95474  44.418  43.229   2.282
23749W        W95475  13.671  28.147   2.138
23750W        W95476  36.115  14.370  11.633
23751W        W95477   3.367  16.740   0.347
23752W        W95478  11.956   7.609  12.120
23753W        W95479  39.413  30.915   4.433
23754W        W95480  31.147  25.518  12.914
23755W        W95481  16.223  39.487   2.866
23756W        W95482  25.210  13.845  10.504
23757W        W95483  39.943   8.133  13.437
23758W        W95484  25.335  31.056   5.155
23759W        W95485  36.784   1.712  14.261
23760W        W95486  19.090  28.011  12.004
23761W        W95487  39.337  25.229  14.673
23762W        W95488  37.734  30.129   3.728
23763W        W95489   4.636   5.285   1.291
23764W        W95490  23.670  14.053   2.769
23765W        W95491  34.365  20.189  11.430
23766W        W95492  16.030  37.969   9.716
23767W        W95493   7.958  44.069  12.070
23768W        W95494  42.362  19.436   4.352
23769W        W95495  18.566  29.671   2.285
23770W        W95496  42.273   1.530  11.591
23771W        W95497  32.886   1.280   0.997
23772W        W95498  39.821  15.843   2.185
23773W        W95499  37.671  12.079  10.841
23774W        W95500  28.916  19.074  10.692
23775W        W95501  19.969   4.805   4.756
23776W        W95502  25.959  42.903  12.019
23777W        W95503   2.348  37.381  11.402
23778W        W95504  23.827  25.798  10.337
23779W        W95505  10.545  29.094   2.950
23780W        W95506  13.637   4.379   3.208
23781W        W95507   4.674  34.407   3.421
23782W        W95508  44.804  35.536   3.184
23783W        W95509  41.564  43.466  11.045
23784W        W95510  11.671  20.033   0.776
23785W        W95511  19.764  16.675  10.459
23786W        W95512  23.774  21.678  12.958
23787W        W95513   9.239  41.581   4.398
23788W        W95514  27.340  19.569  14.030
23789W        W95515   8.148  32.029  12.416
23790W        W95516  18.294   3.368   4.196
23791W        W95517  36.394  18.693   1.899
23792W        W95518  24.009  36.513  11.937
23793W        W95519  21.618   5.881   2.117
23794W        W95520  26.694  15.356   3.756
23795W        W95521  21.145  19.770  10.361
23796W        W95522   2.084   0.823  11.506
23797W        W95523  10.252   4.492  10.781
23798W        W95524  40.348  12.343  13.447
23799W        W95525  31.619  33.796  14.475
23800W        W95526  21.956  41.074   4.713
23801W        W95527  33.271  12.130   3.589
23802W        W95528  28.464  35.998  13.717
23803W        W95529  39.432  44.612   1.391
23804W        W95530   4.686  34.945  13.853
23805W        W95531  39.015  22.082  10.663
23806W        W95532  31.118   2.404  11.217
23807W        W95533  37.880  25.084   2.718
23808W        W95534  43.908   5.804  10.628
23809W        W95535  31.332  23.998   5.134
23810W        W95536  24.630  31.368  14.323
23811W        W95537  16.939  15.791  10.920
23812W        W95538  15.033  21.563   0.818
23813W        W95539  10.899  31.565  12.638
23814W        W95540  16.036   7.954   0.785
23815W        W95541  38.343  10.272   1.962
23816W        W95542  44.492   8.187  13.492
23817W        W95543   0.219  28.587  10.584
23818W        W95544  22.976  21.704   0.814
23819W        W95545   1.284  25.955  14.232
23820W        W95546  16.137  16.603   0.609
23821W        W95547  15.746  25.355   4.700
23822W        W95548  19.658  25.107   2.385
23823W        W95549  13.202   8.732  11.531
23824W        W95550  41.323  32.966   3.827
23825W        W95551   7.384  35.019   0.965
23826W        W95552  11.562   3.884  14.517
23827W        W95553  37.775  28.619  11.537
23828W        W95554  15.315   1.676  10.654
23829W        W95555  17.896  43.277   1.329
23830W        W95556  41.276   1.327   3.207
23831W        W95557   3.651   0.301   0.286
23832W        W95558  36.375  14.233   2.246
23833W        W95559   2.972  13.405   2.219
23834W        W95560   7.790  26.521   3.239
23835W        W95561  12.691  27.039  11.146
23836W        W95562  37.772  28.941  11.938
23837W        W95563  41.035  16.730   1.688
23838W        W95564  22.047  34.895  14.633
23839W        W95565   0.041  18.076   3.223
23840W        W95566  42.535  30.026  11.076
23841W        W95567  22.281  39.016   1.407
23842W        W95568  27.963  17.844  11.077
23843W        W95569  30.654  44.464   1.513
23844W        W95570  27.143  41.369   3.858
23845W        W95571  28.015  38.329   3.633
23846W        W95572  22.912  34.169   0.957
23847W        W95573   1.421  23.011   0.762
23848W        W95574  17.828  23.596   1.769
23849W        W95575  32.483   2.819  13.726
23850W        W95576  19.196  41.762  13.433
23851W        W95577  16.729   7.830   4.225
23852W        W95578  30.095  40.478   0.980
23853W        W95579   8.882  27.525  10.640
23854W        W95580  30.035  39.067  14.701
23855W        W95581  16.135  27.909   3.110
23856W        W95582  35.573   8.159   1.803
23857W        W95583   3.159  40.457   0.421
23858W        W95584  41.443  33.417   3.571
23859W        W95585   9.397  24.365  10.439
23860W        W95586  30.962  28.993  14.886
23861W        W95587  21.477   4.714  14.039
23862W        W95588  40.261  21.023  14.091
23863W        W95589   1.202   5.188   2.717
23864W        W95590   5.633   5.264   4.589
23865W        W95591  44.324  21.579   1.332
23866W        W95592  23.033  24.472  12.124
23867W        W95593  27.534   1.462   4.657
23868W        W95594  29.706  32.980   3.669
23869W        W95595  29.510   1.814   3.639
23870W        W95596   8.558  42.796   2.790
23871W        W95597  19.314  37.971  14.730
23872W        W95598  13.861  39.081   0.553
23873W        W95599  17.827  18.104   2.313
23874W        W95600   2.482  33.556  14.718
23875W        W95601  16.675   9.308   2.275
23876W        W95602  30.942  12.150   4.990
23877W        W95603  24.003  35.732  13.050
23878W        W95604  28.387  26.724   5.197
23879W        W95605   9.225  24.299   0.398
23880W        W95606  14.760  33.942   4.389
23881W        W95607   0.876  39.746  14.515
23882W        W95608   1.464  12.171   1.177
23883W        W95609   6.788  11.815  11.511
23884W        W95610  29.633  35.381  14.942
23885W        W95611   6.402  35.164   5.149
23886W        W95612  21.659  40.067   4.519
23887W        W95613  11.866  25.448  13.415
23888W        W95614  19.966   6.828   0.667
23889W        W95615   8.133  39.620   0.385
23890W        W95616  21.260  23.563  10.528
23891W        W95617  22.816   2.265  13.759
23892W        W95618   4.100  19.171   1.228
23893W        W95619  14.796   1.902   4.098
23894W        W95620  41.881  19.136   3.505
23895W        W95621  43.313  42.850   2.876
23896W        W95622  28.445   1.647   1.183
23897W        W95623  29.422  26.966   0.395
23898W        W95624   3.265   3.634   4.973
23899W        W95625  42.298  38.118  13.060
23900W        W95626   0.633  41.823  13.339
23901W        W95627  38.655  28.108   2.609
23902W        W95628  27.651  44.036   3.782
23903W        W95629  43.776  30.009   2.200
23904W        W95630  28.436  44.471  12.448
23905W        W95631  21.422  32.006  11.008
23906W        W95632  23.405  41.970  11.205
23907W        W95633  27.384  31.395   2.405
23908W        W95634   6.690  11.036  12.846
23909W        W95635  20.715  43.314   4.109
23910W        W95636   7.694  26.066   2.995
23911W        W95637  38.942  31.428  13.064
23912W        W95638  23.229  42.922  13.471
23913W        W95639   9.352  17.224  12.817
23914W        W95640  21.169   8.966   4.045
23915W        W95641  16.710   9.426   1.387
23916W        W95642  32.578   0.886   4.902
23917W        W95643  19.443  25.500   2.089
23918W        W95644  28.678  36.987   2.745
23919W        W95645   1.257   9.461  11.929
23920W        W95646  31.943  37.506  12.244
23921W        W95647   9.377   4.099   4.032
23922W        W95648  39.948  20.831  11.548
23923W        W95649  18.093  32.473  11.908
23924W        W95650  30.255  15.662  10.876
23925W        W95651  21.260  22.688   0.954
23926W        W95652  39.154  14.495   4.578
23927W        W95653  17.905  10.663   2.748
23928W        W95654  37.898  40.917   2.242
23929W        W95655   3.725  40.146   3.130
23930W        W95656   2.939  27.242  14.830
23931W        W95657   8.789   0.281   0.179
23932W        W95658  25.726   5.621  12.488
23933W        W95659  44.354  18.549  13.974
23934W        W95660  24.707  18.662  12.887
23935W        W95661  18.535   8.039   4.597
23936W        W95662  43.621   9.847   3.045
23937W        W95663  44.796   8.600   3.897
23938W        W95664  38.430  26.417   3.724
23939W        W95665  31.027  30.720   0.369
23940W        W95666  18.244  22.320   2.786
23941W        W95667  14.721  29.853  14.610
23942W        W95668  22.680  38.899   3.980
23943W        W95669   9.395  30.044  14.521
23944W        W95670  17.228  19.027   2.810
23945W        W95671  44.341  16.561  10.678
23946W        W95672  34.416   3.374  13.174
23947W        W95673   8.422  40.938  11.056
23948W        W95674   9.335   6.977   4.091
23949W        W95675  30.564   9.619  11.491
23950W        W95676  16.889   5.330  14.850
23951W        W95677   1.635  20.757   0.889
23952W        W95678   0.387  41.708   1.995
23953W        W95679   8.691  11.428   0.080
23954W        W95680   6.895  35.696   2.813
23955W        W95681  33.197  39.993  11.994
23956W        W95682   3.219   0.794  13.533
23957W        W95683  22.681   8.790   0.947
23958W        W95684  25.052  24.353   2.167
23959W        W95685  25.818  40.599  11.198
23960W        W95686  30.629  42.341  13.017
23961W        W95687  20.127  29.384  14.769
23962W        W95688  27.251  15.817   5.001
23963W        W95689  28.926  19.820   1.870
23964W        W95690   5.616  37.984   3.897
23965W        W95691  31.729   6.764  14.325
23966W        W95692   0.479  32.368  12.566
23967W        W95693  35.066  12.720   4.566
23968W        W95694  20.609  21.523  11.598
23969W        W95695  10.848   5.742   0.933
23970W        W95696  33.976  34.676   0.453
23971W        W95697  13.389  17.793   2.599
23972W        W95698  10.340  19.217  12.118
23973W        W95699  26.609   2.747   1.406
23974W        W95700  34.115   3.994  13.927
23975W        W95701  23.973  28.668   1.389
23976W        W95702   6.148  41.789   0.784
23977W        W95703  44.271  36.046  13.985
23978W        W95704  44.856  44.818  11.452
23979W        W95705  14.632   2.709  12.084
23980W        W95706   6.206  11.743   2.858
23981W        W95707  13.137  14.990  12.584
23982W        W95708  21.241  22.768  12.060
23983W        W95709   3.153  30.983  10.914
23984W        W95710  29.528   6.255  10.684
23985W        W95711  25.927  33.531   0.292
23986W        W95712   2.242  34.557   2.760
23987W        W95713   7.236   2.790  12.150
23988W        W95714  43.519  21.974  13.951
23989W        W95715  37.508  40.192  13.753
23990W        W95716   0.758  27.596   0.865
23991W        W95717  24.010   8.296  13.551
23992W        W95718  34.499  11.400  14.385
23993W        W95719  17.710  26.199  10.885
23994W        W95720  26.167  28.728   1.764
23995W        W95721  34.675  26.590   3.700
23996W        W95722  13.597  18.854   4.177
23997W        W95723  34.644  40.354   1.656
23998W        W95724  40.598  39.865  11.910
23999W        W95725  34.073  15.800  13.053
24000W        W95726  22.165  21.769   3.152
24001W        W95727  27.897  32.622   3.310
24002W        W95728   4.271  26.164  10.491
24003W        W95729  44.324  10.867  10.546
24004W        W95730   0.488  12.463   4.668
24005W        W95731  13.368  44.486   2.917
24006W        W95732  32.530  37.017  12.524
24007W        W95733  25.203   3.709  11.966
24008W        W95734  16.294   0.369   3.190
24009W        W95735  12.618   6.234   3.601
24010W        W95736  35.653  32.980  11.241
24011W        W95737   7.709  41.037   3.410
24012W        W95738  17.157  27.733  13.831
24013W        W95739  23.971  17.420  10.653
24014W        W95740   6.277  21.434  12.024
24015W        W95741   4.940  11.731  12.589
24016W        W95742   2.801  22.089  11.564
24017W        W95743  22.738  22.364   1.941
24018W        W95744  23.306  28.360  10.164
24019W        W95745  37.308  17.792  13.412
24020W        W95746  18.033  22.840   2.785
24021W        W95747   9.258  32.415  10.666
24022W        W95748  21.801  34.961  10.681
24023W        W95749   8.822  23.759   4.233
24024W        W95750  30.545   4.927   4.215
24025W        W95751   8.762  29.411  13.443
24026W        W95752  38.992  29.743   5.089
24027W        W95753  24.831  33.945   4.060
24028W        W95754   4.219  27.116  12.457
24029W        W95755   5.324  13.892   2.910
24030W        W95756  20.558  29.276   3.217
24031W        W95757  22.013   6.381  12.609
24032W        W95758  18.065  24.540  11.450
24033W        W95759   8.164   5.909  14.959
24034W        W95760  33.526  33.609   0.914
24035W        W95761   0.335  27.529   3.400
24036W        W95762  42.609  30.547   3.482
24037W        W95763   0.274  27.193  11.551
24038W        W95764  38.912   5.128   2.188
24039W        W95765  39.114  42.213  11.954
24040W        W95766  25.985  32.469   1.718
24041W        W95767  26.939   0.128  13.862
24042W        W95768  33.184  21.407  10.223
24043W        W95769   5.570  36.449  11.963
24044W        W95770  36.202   3.691  10.120
24045W        W95771  21.555  32.951  12.998
24046W        W95772  12.366  29.670  10.649
24047W        W95773  44.263  11.530   1.743
24048W        W95774  43.759  17.372  11.915
24049W        W95775   0.799  16.813   4.131
24050W        W95776  23.471  17.249   1.766
24051W        W95777  35.283  36.309  14.015
24052W        W95778  26.950  30.882   2.604
24053W        W95779  36.473  32.995  12.365
24054W        W95780   1.190  14.795   1.329
24055W        W95781  27.786  20.551  14.408
24056W        W95782  32.496  30.680   2.366
24057W        W95783  16.226  41.414  14.305
24058W        W95784  16.686  32.105  12.935
24059W        W95785  41.278  30.596  14.856
24060W        W95786  33.039   7.395  11.479
24061W        W95787  18.109   6.427  12.909
24062W        W95788   1.240  10.412  12.553
24063W        W95789  38.558  34.501   3.145
24064W        W95790  37.561   2.322   1.422
24065W        W95791   8.643  33.915   1.335
24066W        W95792  21.287   5.245  13.161
24067W        W95793   3.473  22.642  10.712
24068W        W95794  36.908  39.642   3.327
24069W        W95795  26.761  10.882  14.326
24070W        W95796  30.031   4.670  13.982
24071W        W95797   5.846  12.792   0.078
24072W        W95798  11.836  43.957  11.872
24073W        W95799   6.278   1.892   1.507
24074W        W95800  32.568   2.287   4.153
24075W        W95801  38.840  19.258   0.985
24076W        W95802   1.806  36.538  11.603
24077W        W95803  38.948  32.520  10.373
24078W        W95804  26.537   0.912  14.032
24079W        W95805  44.216   4.454  13.917
24080W        W95806  34.023  37.013   1.736
24081W        W95807   9.135  30.208  11.954
24082W        W95808   5.198  34.411   1.783
24083W        W95809  10.715   0.929   1.280
24084W        W95810   1.920  30.679   4.261
24085W        W95811  36.676  11.233   3.974
24086W        W95812  36.073  43.979   2.346
24087W        W95813  28.927   7.215   3.612
24088W        W95814  14.750   7.663  12.463
24089W        W95815  25.052  37.400   2.624
24090W        W95816  39.025  10.352  14.829
24091W        W95817  38.301   2.318  12.614
24092W        W95818  18.328  11.256  13.438
24093W        W95819  10.893  10.335  13.480
24094W        W95820   4.377  37.629  10.306
24095W        W95821  27.563  29.132   4.631
24096W        W95822   6.997  30.672  10.591
24097W        W95823  22.521  38.077  13.051
24098W        W95824   2.990   5.959   3.528
24099W        W95825  17.052  27.707  14.708
24100W        W95826  38.686  34.672   1.763
24101W        W95827  12.321  14.034  11.655
24102W        W95828  22.935  18.495   9.839
24103W        W95829  38.960  35.156  14.111
24104W        W95830  41.502  15.329   1.418
24105W        W95831  44.891   2.279  10.547
24106W        W95832   2.866  41.393   1.527
24107W        W95833  12.302  26.689   4.822
24108W        W95834   7.468  25.537   4.250
24109W        W95835   0.910  15.337  13.073
24110W        W95836  19.342  19.271   4.879
24111W        W95837   3.547  10.105  11.249
24112W        W95838  14.541  41.829  14.734
24113W        W95839  23.439  28.682   4.398
24114W        W95840  12.381  25.935  13.030
24115W        W95841  29.646  39.069   0.442
24116W        W95842  38.747  38.464  12.113
24117W        W95843  12.678  34.887   0.269
24118W        W95844  37.519  36.950  12.190
24119W        W95845   1.692   7.199  10.748
24120W        W95846  22.482  44.874   2.713
24121W        W95847  13.214  28.631   1.876
24122W        W95848  32.654  24.655   2.758
24123W        W95849   3.744  30.678  11.975
24124W        W95850  38.317   0.006  13.043
24125W        W95851  36.682  38.095   4.257
24126W        W95852  29.938  12.404  12.595
24127W        W95853  30.516  31.868   4.541
24128W        W95854  29.129  39.023   1.341
24129W        W95855  33.176  29.163   2.174
24130W        W95856  42.101   0.874  12.096
24131W        W95857  37.762  18.700  14.853
24132W        W95858  24.741  16.699   2.792
24133W        W95859  15.771  35.404   2.741
24134W        W95860   2.233  33.798   0.421
24135W        W95861   1.413  26.632  12.973
24136W        W95862  40.134  13.490   1.364
24137W        W95863  31.099  37.826   1.346
24138W        W95864   6.432   3.498   2.010
24139W        W95865   1.994   3.321   2.381
24140W        W95866  42.362  15.350   4.303
24141W        W95867  14.651  44.921   3.195
24142W        W95868  42.530  44.574  13.024
24143W        W95869  13.032  27.054  12.022
24144W        W95870  22.670  40.143   3.071
24145W        W95871  42.974  33.173  12.998
24146W        W95872   0.790   3.246   0.048
24147W        W95873  40.376   7.341  12.878
24148W        W95874   4.229   4.240  14.225
24149W        W95875  30.226  12.668  11.564
24150W        W95876   6.992  19.107  12.422
24151W        W95877  19.674  12.403  14.427
24152W        W95878   3.446  22.651   0.328
24153W        W95879  27.185   6.684  10.704
24154W        W95880  15.157  12.307  13.515
24155W        W95881  10.504  33.077   3.515
24156W        W95882  19.500  19.264   2.261
24157W        W95883   3.106  22.775  12.507
24158W        W95884  11.707  18.512   2.429
24159W        W95885  39.194   7.342  12.645
24160W        W95886  24.638   0.544   1.274
24161W        W95887  33.858  11.289   3.813
24162W        W95888  20.559   9.293  13.487
24163W        W95889   7.407  35.256   0.487
24164W        W95890   3.398  40.414  13.813
24165W        W95891   3.398  32.128  10.983
24166W        W95892  14.140  42.992   0.842
24167W        W95893  34.801  30.996   0.902
24168W        W95894  16.249  22.024  11.329
24169W        W95895  39.022   2.660   3.926
24170W        W95896   7.891  42.738   2.235
24171W        W95897  40.943  30.258   1.447
24172W        W95898  34.820   5.165  14.867
24173W        W95899  14.040  34.831   2.369
24174W        W95900  39.280  40.948   3.693
24175W        W95901  12.518   2.002  13.310
24176W        W95902  22.583  17.634   0.864
24177W        W95903   2.933  33.398   4.036
24178W        W95904  36.299  27.221   0.793
24179W        W95905  28.530   9.746  14.787
24180W        W95906  15.088  14.825  14.520
24181W        W95907   5.998   5.363   2.779
24182W        W95908   6.641  26.999   0.819
24183W        W95909  44.334  40.957   2.666
24184W        W95910  17.248   1.388   0.989
24185W        W95911  44.327  26.680   2.535
24186W        W95912  42.426   3.368   4.531
24187W        W95913  43.699  44.750  11.944
24188W        W95914  14.478  30.550  11.032
24189W        W95915  30.984  13.202   4.292
24190W        W95916  14.455  44.076   2.297
24191W        W95917  28.706   6.241   1.823
24192W        W95918   2.545  27.410  10.761
24193W        W95919  41.417  34.307  13.970
24194W        W95920   8.453  14.840   1.806
24195W        W95921   0.954  27.073  14.353
24196W        W95922  38.358  15.766   0.357
24197W        W95923  40.214  37.524   2.763
24198W        W95924  31.398  28.623   2.287
24199W        W95925  24.580  42.812  11.246
24200W        W95926  38.560  10.258   4.284
24201W        W95927  20.013  35.748   0.234
24202W        W95928   5.773  14.782   3.278
24203W        W95929   6.002  11.739   5.157
24204W        W95930  29.556  28.525   1.766
24205W        W95931  32.426  36.212   0.274
24206W        W95932  23.394  12.227   4.983
24207W        W95933  40.579  23.584   4.720
24208W        W95934  29.506  16.525   1.624
24209W        W95935  17.543  38.908  14.943
24210W        W95936   8.945  24.628  13.768
24211W        W95937  18.206   8.192  13.450
24212W        W95938   0.989  28.239   1.439
24213W        W95939   4.460  21.568  12.717
24214W        W95940  33.115  29.003  14.508
24215W        W95941  11.348  29.927  12.139
24216W        W95942  16.204  42.793  12.441
24217W        W95943  29.707  23.790  14.838
24218W        W95944  26.749  40.374   0.463
24219W        W95945  43.846   2.989  11.042
24220W        W95946   3.316  35.187   2.428
24221W        W95947  42.706  35.693  11.960
24222W        W95948   3.534  40.066   3.874
24223W        W95949  15.035   3.683  13.956
24224W        W95950  18.561  24.504   4.168
24225W        W95951  43.301   2.806  10.973
24226W        W95952  15.795   0.853  12.951
24227W        W95953  37.875  19.744  13.902
24228W        W95954   9.287   6.701  12.551
24229W        W95955   9.505  39.792  10.628
24230W        W95956  31.388   7.201  11.828
24231W        W95957  27.003  44.337  14.522
24232W        W95958  43.139  42.018   1.865
24233W        W95959  21.597   6.892   2.365
24234W        W95960  36.451  16.524  14.046
24235W        W95961   5.431  18.931   0.283
24236W        W95962  34.581  12.230   0.857
24237W        W95963  20.634  19.566   2.265
24238W        W95964   0.469  20.712   3.410
24239W        W95965  32.880  12.803   3.342
24240W        W95966  39.542  34.726  12.428
24241W        W95967  38.895  18.772   0.791
24242W        W95968  36.119   5.253  10.641
24243W        W95969  13.754  21.597  10.696
24244W        W95970  10.179  24.957   0.481
24245W        W95971  33.966  31.669   2.820
24246W        W95972  41.555  16.728   5.055
24247W        W95973  42.531  34.526  10.969
24248W        W95974  37.047   9.421   3.377
24249W        W95975  42.927  35.556   1.935
24250W        W95976  19.464  19.745  12.035
24251W        W95977   3.687   7.409   2.369
24252W        W95978  43.013  43.400   1.240
24253W        W95979  39.092  41.476   1.819
24254W        W95980   5.285  33.656  12.435
24255W        W95981  38.836  24.388   4.550
24256W        W95982  14.363  22.078  11.632
24257W        W95983  20.520  42.467  11.477
24258W        W95984   0.707  32.532   4.998
24259W        W95985  41.493  22.085   4.909
24260W        W95986  25.500  22.053   3.198
24261W        W95987  23.272  33.367   1.330
24262W        W95988  37.825   6.970   0.931
24263W        W95989  20.507  12.145  12.464
24264W        W95990  42.074   7.035   0.031
24265W        W95991  40.770   9.068  10.690
24266W        W95992  41.409  18.436  14.278
24267W        W95993  31.381  40.030  12.007
24268W        W95994   2.816  12.704   3.193
24269W        W95995  15.356  29.589   4.803
24270W        W95996  15.600  10.359  12.948
24271W        W95997  31.170  32.500   4.679
24272W        W95998  14.670  31.758   1.679
24273W        W95999  34.141  11.178  13.463
24274W        W96000   5.409  29.557  13.166
24275W        W96001   4.445   2.902  10.765
24276W        W96002   9.771  15.485  13.902
24277W        W96003  30.291  25.960  13.521
24278W        W96004  16.277  25.277  14.729
24279W        W96005   0.268  30.941  14.721
24280W        W96006  25.635  13.719   3.301
24281W        W96007  41.350  35.087   2.254
24282W        W96008  38.920  38.473   4.384
24283W        W96009  39.335   0.512   1.861
24284W        W96010  16.188   2.959   0.842
24285W        W96011  14.910  33.012  14.457
24286W        W96012   7.663  14.850  14.855
24287W        W96013  11.401  12.682  11.888
24288W        W96014   3.206  14.609  13.535
24289W        W96015  11.806   9.682   1.476
24290W        W96016  20.490  42.394   3.892
24291W        W96017  17.130  10.818  11.960
24292W        W96018   3.161  41.576  12.312
24293W        W96019  23.688   0.341   4.716
24294W        W96020  31.497  16.208  11.200
24295W        W96021   2.794  24.886  11.544
24296W        W96022  44.070  43.829  12.064
24297W        W96023  27.786  18.866   2.799
24298W        W96024  17.626  25.541  10.625
24299W        W96025  40.059  20.060   0.518
24300W        W96026   4.629   8.278  13.306
24301W        W96027  10.296  26.563  10.566
24302W        W96028  39.618   1.445  11.919
24303W        W96029  28.201   4.678  13.520
24304W        W96030  44.314  14.291  14.458
24305W        W96031  16.132  13.290   0.066
24306W        W96032   5.804  13.207   4.318
24307W        W96033   8.405  36.598   4.997
24308W        W96034  22.188  40.387   2.931
24309W        W96035  37.466  32.996  10.433
24310W        W96036   2.430  23.102   1.892
24311W        W96037   8.132   5.827   3.179
24312W        W96038   7.378  33.831  12.924
24313W        W96039  30.440   8.158  11.907
24314W        W96040  38.580  26.451   0.358
24315W        W96041  21.145  32.894  13.942
24316W        W96042  39.962  29.080  11.717
24317W        W96043  36.092   6.220  13.945
24318W        W96044  22.221  28.117  14.615
24319W        W96045  34.583  41.747  11.529
24320W        W96046  14.286  26.640  11.978
24321W        W96047   7.492  32.517  10.589
24322W        W96048  13.139  30.861   3.658
24323W        W96049  23.900  33.922   2.763
24324W        W96050   6.407  35.429  10.918
24325W        W96051  19.723  21.540  11.753
24326W        W96052  43.198  11.408   0.968
24327W        W96053  19.704   6.307   1.265
24328W        W96054  14.239   4.641  13.869
24329W        W96055  17.314  28.173   2.803
24330W        W96056  13.172  29.735  11.988
24331W        W96057  31.754  36.469   0.784
24332W        W96058   0.685  33.166   0.699
24333W        W96059  21.548   8.240  14.812
24334W        W96060  37.811   2.736  11.810
24335W        W96061  23.537  11.267   3.278
24336W        W96062  21.547   0.549  12.831
24337W        W96063  34.675   8.734  11.052
24338W        W96064   3.298  11.777   5.075
24339W        W96065  15.593  26.676   3.288
24340W        W96066  36.119   6.392   1.172
24341W        W96067  10.137  17.762   0.289
24342W        W96068  40.828  20.454   0.412
24343W        W96069  43.427  24.056  14.825
24344W        W96070  13.688   4.424   4.194
24345W        W96071  40.530  19.029  10.732
24346W        W96072  34.170   6.901  11.588
24347W        W96073  32.166  34.037  13.459
24348W        W96074  26.563  43.199   2.314
24349W        W96075   8.795  38.485   2.361
24350W        W96076  22.192  23.570   2.580
24351W        W96077  12.066  20.286  12.063
24352W        W96078   1.211  13.139   2.745
24353W        W96079  17.249  19.824   2.342
24354W        W96080  22.622  35.039  12.982
24355W        W96081   9.903   7.286   4.658
24356W        W96082  27.085  11.183  12.155
24357W        W96083  34.642   9.935  11.988
24358W        W96084  34.601   5.346  13.051
24359W        W96085  11.360  44.900   0.202
24360W        W96086  16.759  22.209   1.428
24361W        W96087  30.007  37.613  14.831
24362W        W96088  29.936  24.736   3.684
24363W        W96089  38.661  32.608   2.183
24364W        W96090  35.345  35.018   2.174
24365W        W96091  41.867   6.179  14.783
24366W        W96092  37.571  42.742   0.421
24367W        W96093  14.559  36.296  11.997
24368W        W96094  19.180  40.745  12.553
24369W        W96095  22.937  30.967  13.959
24370W        W96096  41.888  32.139   2.869
24371W        W96097   9.149  14.861  11.648
24372W        W96098  18.320  21.716   2.029
24373W        W96099  14.153  37.081   2.654
24374W        W96100  28.123   6.187  10.690
24375W        W96101   0.007  30.594   0.705
24376W        W96102  31.537  14.841  13.891
24377W        W96103   7.129   1.321  11.169
24378W        W96104   9.550  17.239  14.669
24379W        W96105  36.038  17.049  14.428
24380W        W96106  39.101  33.949   3.914
24381W        W96107   6.830   1.316   3.634
24382W        W96108   1.524  29.956   3.893
24383W        W96109   9.157  38.740  14.362
24384W        W96110  25.555  23.986  12.611
24385W        W96111  44.971  40.784  12.513
24386W        W96112   6.407  26.489   9.874
24387W        W96113  27.867  43.010  12.039
24388W        W96114  13.643   5.323   0.407
24389W        W96115   6.659  28.955   4.512
24390W        W96116   9.066  24.564   2.021
24391W        W96117   4.831   3.674   1.994
24392W        W96118  40.247  10.899   2.215
24393W        W96119  21.565   3.882  11.607
24394W        W96120   1.964  24.577   2.206
24395W        W96121  33.939  35.080  14.346
24396W        W96122   9.795  13.607   4.269
24397W        W96123   2.841  38.066   1.153
24398W        W96124  19.622   6.861   4.606
24399W        W96125  41.248   3.866   0.883
24400W        W96126  18.087   2.331  10.629
24401W        W96127  42.744  16.689   0.602
24402W        W96128  41.996  31.641   0.845
24403W        W96129  19.595   9.273  10.464
24404W        W96130  18.869  10.550   2.913
24405W        W96131  26.040  42.426   1.303
24406W        W96132  13.785  36.870  12.997
24407W        W96133  11.701  36.570  14.365
24408W        W96134  33.865  22.950   3.908
24409W        W96135   7.796  26.147  10.690
24410W        W96136   8.730  44.869   4.743
24411W        W96137   3.953  13.160  14.852
24412W        W96138   1.733  15.522  12.082
24413W        W96139  29.132  42.372  12.969
24414W        W96140  32.242  25.761  12.587
24415W        W96141  19.040   3.379   1.336
24416W        W96142   2.806  29.643   3.414
24417W        W96143   1.973  17.250   4.143
24418W        W96144  27.223   5.662   3.229
24419W        W96145  18.654  44.202   4.536
24420W        W96146  17.292  40.277   2.051
24421W        W96147  28.044  39.597   0.755
24422W        W96148  12.384  37.093   4.609
24423W        W96149  39.582   5.489   0.789
24424W        W96150  25.829   9.863   0.530
24425W        W96151  38.789  24.580  13.013
24426W        W96152  13.610  10.097   1.804
24427W        W96153  33.870  36.535   0.011
24428W        W96154  18.102  13.389  14.497
24429W        W96155  17.510  18.541  14.500
24430W        W96156   6.235  11.165  12.064
24431W        W96157  22.720  16.692  13.326
24432W        W96158  10.142  22.500   2.090
24433W        W96159  31.841  18.561  13.410
24434W        W96160  22.934   8.010  11.310
24435W        W96161   8.580  43.242  14.547
24436W        W96162  44.216  43.541  13.359
24437W        W96163  27.978  20.708  10.707
24438W        W96164  24.436   6.892  11.620
24439W        W96165  13.497  42.500   2.764
24440W        W96166   9.883  22.476  12.366
24441W        W96167  19.718   1.369  10.623
24442W        W96168   9.516  14.907  13.303
24443W        W96169   4.814  37.838  11.483
24444W        W96170  31.418  27.348   2.201
24445W        W96171  24.705  20.060  11.118
24446W        W96172  40.994  10.232   0.794
24447W        W96173  44.602  37.484  10.761
24448W        W96174   2.704   6.605   0.696
24449W        W96175  12.644  44.739  13.860
24450W        W96176  34.433  31.569  13.315
24451W        W96177  24.442  42.509   4.516
24452W        W96178  44.397  33.812  13.554
24453W        W96179  28.507  34.558   3.670
24454W        W96180  40.377  25.996  12.032
24455W        W96181  43.507   5.733  14.357
24456W        W96182  17.079  11.532   3.878
24457W        W96183  29.881  16.603   3.170
24458W        W96184  24.467  27.009  12.597
24459W        W96185  36.291   1.347   0.011
24460W        W96186  11.366  20.733  13.368
24461W        W96187  17.337  38.433  14.941
24462W        W96188  12.009  10.721   1.266
24463W        W96189   0.230  14.146  10.665
24464W        W96190   8.842  19.777   1.882
24465W        W96191  11.332  35.646   2.209
24466W        W96192   4.090   2.496  11.942
24467W        W96193  43.461  24.603  13.972
24468W        W96194  34.048  19.724  11.636
24469W        W96195   1.955  36.403  10.334
24470W        W96196  12.346  27.078   0.851
24471W        W96197  31.131  28.086  13.671
24472W        W96198  15.629   6.480  13.259
24473W        W96199  29.866  19.220   1.274
24474W        W96200  30.486  36.397  13.087
24475W        W96201  11.960  20.193   4.001
24476W        W96202  17.054  21.193   2.402
24477W        W96203   1.909  28.669  13.319
24478W        W96204  10.929  32.111  11.581
24479W        W96205  34.789  41.960   2.241
24480W        W96206  37.515  26.524   3.806
24481W        W96207   7.096  23.472   5.028
24482W        W96208  16.832  18.150   2.162
24483W        W96209  26.737  20.191  14.087
24484W        W96210  29.505  17.093   2.298
24485W        W96211  20.558  37.520   4.428
24486W        W96212  15.173   8.162  14.952
24487W        W96213   7.588   1.726  14.860
24488W        W96214   6.178  36.128   5.042
24489W        W96215  32.453  18.018   1.296
24490W        W96216   1.251   8.973  12.083
24491W        W96217  19.656  34.825   1.157
24492W        W96218  29.559   0.402  11.090
24493W        W96219   7.595  16.815   2.830
24494W        W96220  33.570  24.080  11.501
24495W        W96221  11.953  28.544  14.713
24496W        W96222  29.293  37.403   4.438
24497W        W96223   2.739  10.223   0.813
24498W        W96224  10.525  28.185   4.282
24499W        W96225   8.742  20.490  11.912
24500W        W96226  16.569  15.516  11.171
24501W        W96227   0.745   9.186   2.278
24502W        W96228  36.499  36.945   2.696
24503W        W96229  37.431   3.549  10.568
24504W        W96230   7.918   8.398   1.246
24505W        W96231   9.040  37.392  12.208
24506W        W96232  20.298  20.065  11.004
24507W        W96233  33.571  32.992  13.705
24508W        W96234  16.606  18.278   3.118
24509W        W96235  42.689   8.978  14.326
24510W        W96236  36.119   4.200   2.339
24511W        W96237  27.243  16.835  14.945
24512W        W96238   8.114  22.521   0.854
24513W        W96239  40.718  12.650   0.256
24514W        W96240  24.458  20.261  10.702
24515W        W96241   2.147  44.866  11.550
24516W        W96242  28.875  41.433   4.382
24517W        W96243  28.312  20.126  12.921
24518W        W96244  22.628   3.407   5.035
24519W        W96245  44.392  43.863   1.258
24520W        W96246  35.478  43.681   2.258
24521W        W96247  17.839  36.761  12.155
24522W        W96248  34.992  35.355  14.520
24523W        W96249  35.514   0.091   0.919
24524W        W96250  20.232  38.967   4.508
24525W        W96251  36.078  19.105   2.490
24526W        W96252   0.936   8.094   4.597
24527W        W96253   2.392  14.271  12.950
24528W        W96254  31.002   9.391   2.788
24529W        W96255   8.862   5.374   3.397
24530W        W96256   5.800  31.129  14.298
24531W        W96257   9.164  39.298  11.591
24532W        W96258  38.907   7.930  13.425
24533W        W96259  25.017   1.200  11.958
24534W        W96260   2.249  22.019  12.443
24535W        W96261  22.619  21.277   3.810
24536W        W96262  27.914   1.428  13.815
24537W        W96263  39.980   7.792  11.514
24538W        W96264  36.046  36.384  13.361
24539W        W96265   7.508  40.407  13.033
24540W        W96266  28.937   8.126   0.140
24541W        W96267  11.820  43.859  10.915
24542W        W96268  20.008  44.396   0.987
24543W        W96269  34.454  13.688   1.714
24544W        W96270  32.532  28.238   2.717
24545W        W96271  14.855  28.798  14.024
24546W        W96272  32.025  16.814   1.297
24547W        W96273  27.523  11.051  14.359
24548W        W96274   1.372  30.973   4.589
24549W        W96275  28.365  19.105   3.694
24550W        W96276  43.543  10.562  13.918
24551W        W96277  21.737  38.467  13.453
24552W        W96278  15.797  20.711  13.466
24553W        W96279   8.780  30.184  12.339
24554W        W96280  33.310  38.313  12.145
24555W        W96281  22.368  18.053   2.002
24556W        W96282  15.213   9.443   2.560
24557W        W96283  32.050  31.193  13.993
24558W        W96284  11.237  20.032   0.087
24559W        W96285  32.945  39.694   0.852
24560W        W96286  20.165  41.851  10.339
24561W        W96287  28.972  22.028   1.258
24562W        W96288  36.851  35.351   1.290
24563W        W96289  35.549  22.002   1.459
24564W        W96290  19.644  12.368   4.176
24565W        W96291  36.766   2.751  11.404
24566W        W96292  32.782  12.805  11.899
24567W        W96293   4.757   2.904  13.840
24568W        W96294  36.941  41.895   0.278
24569W        W96295  27.719  39.762  14.461
24570W        W96296   1.518  13.824  12.118
24571W        W96297  44.800  43.857  13.867
24572W        W96298  20.660  16.948   3.307
24573W        W96299  31.870   8.726   1.238
24574W        W96300  15.152  35.118   1.741
24575W        W96301   9.650   7.411   0.194
24576W        W96302  37.003   6.968  13.591
24577W        W96303  28.608   8.823  14.553
24578W        W96304  23.133   4.942   3.418
24579W        W96305  18.407  10.360  10.271
24580W        W96306   1.946  28.557  14.805
24581W        W96307  20.063  39.268  14.418
24582W        W96308  37.039  25.988   1.735
24583W        W96309  12.640  40.071  12.164
24584W        W96310  31.548   3.037  14.469
24585W        W96311  40.802  38.827   2.319
24586W        W96312  28.515  25.443   1.815
24587W        W96313  23.315  26.548  10.270
24588W        W96314  21.643  41.082  14.429
24589W        W96315  15.856   3.879   4.173
24590W        W96316  31.600  35.385   2.717
24591W        W96317   3.784  12.907   0.309
24592W        W96318   5.378  40.802  11.628
24593W        W96319  29.071   4.278   0.345
24594W        W96320  35.521  21.205   4.875
24595W        W96321  27.667  24.777  12.560
24596W        W96322   2.455  36.052   3.291
24597W        W96323  18.270   2.941   3.441
24598W        W96324  32.354  29.288  11.951
24599W        W96325  14.676  29.441   0.089
24600W        W96326   6.404  34.400  12.883
24601W        W96327   9.873  38.897  10.558
24602W        W96328   4.908  12.757  12.431
24603W        W96329  11.430  36.617  12.216
24604W        W96330   1.046   5.975  11.139
24605W        W96331  21.039  25.460   4.191
24606W        W96332  18.175  10.165   2.902
24607W        W96333  42.556  10.681   0.229
24608W        W96334   5.293  29.610   1.868
24609W        W96335  41.804  22.818   0.434
24610W        W96336   7.723  14.170  10.152
24611W        W96337   9.814  16.641   0.370
24612W        W96338  21.596  42.084  13.711
24613W        W96339  16.862  16.788   2.217
24614W        W96340  32.951   6.786   0.472
24615W        W96341  27.598  43.787  10.621
24616W        W96342  43.038  39.244  14.819
24617W        W96343  20.763  44.751   2.374
24618W        W96344  22.467  42.340   1.122
24619W        W96345  28.915  43.874  12.247
24620W        W96346  32.531  44.904  10.482
24621W        W96347   0.445  21.074  10.563
24622W        W96348  20.988  44.934  14.234
24623W        W96349  41.010  23.523  13.447
24624W        W96350  39.513  22.016  14.478
24625W        W96351   0.006  33.150   2.780
24626W        W96352  18.433  28.542  14.708
24627W        W96353  39.953  32.072   1.324
24628W        W96354  37.552  37.438  14.701
24629W        W96355  20.644  38.858   1.928
24630W        W96356   4.958  10.623   1.333
24631W        W96357  31.441  34.858  14.356
24632W        W96358  40.301  37.776  12.461
24633W        W96359  27.091  40.064   4.633
24634W        W96360   9.264  40.447   0.684
24635W        W96361   0.660   7.301   3.110
24636W        W96362  27.534  44.537   3.795
24637W        W96363  25.909   8.786   2.442
24638W        W96364   1.969  31.729  10.600
24639W        W96365   3.287   8.210  13.720
24640W        W96366  19.582  14.816   4.617
24641W        W96367  14.715  41.282  12.032
24642W        W96368  27.538  25.179  10.622
24643W        W96369  27.838  44.774   0.315
24644W        W96370   0.848  39.128   3.647
24645W        W96371  30.387  19.346   1.318
24646W        W96372  31.371  17.741   4.195
24647W        W96373  20.722  33.133  13.745
24648W        W96374  43.456   4.664   1.863
24649W        W96375  30.762   6.897   2.219
24650W        W96376  37.102  21.684   1.778
24651W        W96377  22.349   6.768  10.858
24652W        W96378  12.676  19.173   0.988
24653W        W96379  39.974   3.496  13.320
24654W        W96380   9.195  13.889   1.997
24655W        W96381  19.265  30.118   3.982
24656W        W96382  24.662  25.491   0.998
24657W        W96383  39.160   3.538   4.098
24658W        W96384  32.862  40.778   3.315
24659W        W96385  39.507  43.971   0.359
24660W        W96386  14.813   7.026  14.796
24661W        W96387  39.812  20.139   1.804
24662W        W96388  12.636  17.666  11.714
24663W        W96389   0.375  11.778  12.057
24664W        W96390   5.543  13.037  11.512
24665W        W96391  43.586  16.704   1.227
24666W        W96392  36.147   4.395  11.435
24667W        W96393   0.417  30.568   1.412
24668W        W96394  32.747  14.194  11.557
24669W        W96395  33.360  29.185  14.092
24670W        W96396  42.504  22.638  14.357
24671W        W96397  10.499  30.410  10.254
24672W        W96398  18.614  27.675   4.140
24673W        W96399  28.472  18.593   4.405
24674W        W96400   1.781  35.516   1.318
24675W        W96401   8.475   1.920  11.153
24676W        W96402  15.832  38.272   0.956
24677W        W96403  15.562  12.891  14.286
24678W        W96404  15.273  40.338  11.488
24679W        W96405   6.602  21.975  14.376
24680W        W96406  28.682  31.992   5.056
24681W        W96407  38.601  43.773   1.444
24682W        W96408  30.791   4.754   2.388
24683W        W96409   9.837  20.660  14.326
24684W        W96410  34.892   2.156   9.985
24685W        W96411  35.631  31.601   3.386
24686W        W96412  31.925  38.838  12.607
24687W        W96413  30.625  39.277  12.593
24688W        W96414  31.472   0.937  14.477
24689W        W96415  36.326   0.845  10.363
24690W        W96416  26.145  34.080  14.035
24691W        W96417  41.793  23.594  13.877
24692W        W96418   4.519   4.877  10.569
24693W        W96419  28.436  17.788   3.672
24694W        W96420  15.201  39.005   3.648
24695W        W96421   4.638   5.621  11.205
24696W        W96422  12.246  16.216  13.553
24697W        W96423  28.539  35.474  14.011
24698W        W96424  44.303  33.122   1.274
24699W        W96425  16.890  19.003  14.987
24700W        W96426  12.878  44.490  12.818
24701W        W96427  28.569  16.015  13.785
24702W        W96428  12.736   6.597  10.807
24703W        W96429  16.555  20.231   4.297
24704W        W96430  25.685  15.133  12.516
24705W        W96431  37.441  11.041  13.370
24706W        W96432  20.637  40.366  14.010
24707W        W96433   3.254  32.411   3.821
24708W        W96434  28.546  11.648  11.151
24709W        W96435  17.038  13.343   4.029
24710W        W96436  24.560  44.037  12.118
24711W        W96437  28.126  26.608   4.733
24712W        W96438  23.683   8.746   1.647
24713W        W96439  21.017   5.164   3.124
24714W        W96440  15.371   8.617   4.117
24715W        W96441  14.297  28.922  12.924
24716W        W96442   3.354  31.230  13.456
24717W        W96443  19.003  30.436  12.860
24718W        W96444  21.582  28.897   1.267
24719W        W96445  21.652  29.657   0.467
24720W        W96446  36.726   3.239   4.086
24721W        W96447   7.995  41.137   0.734
24722W        W96448  17.792  20.825   1.292
24723W        W96449   1.242   6.698  10.801
24724W        W96450  13.250  43.577   4.203
24725W        W96451  16.145  18.007   1.692
24726W        W96452  27.600  18.720   3.797
24727W        W96453   3.247  30.583  12.125
24728W        W96454  25.538  23.570  14.558
24729W        W96455  27.117  13.285   1.368
24730W        W96456  20.484   7.184  11.696
24731W        W96457   3.880  20.587   2.527
24732W        W96458   8.914  24.462  11.895
24733W        W96459  33.423  29.124   1.345
24734W        W96460  24.131  36.350   1.353
24735W        W96461  13.583   3.227   0.267
24736W        W96462  28.118  28.604   1.706
24737W        W96463   7.189  44.282   0.865
24738W        W96464  42.845  36.480   4.316
24739W        W96465  24.381  38.511  14.426
24740W        W96466  40.439  17.223   4.211
24741W        W96467  37.992  17.724  14.794
24742W        W96468  21.859  44.568  11.503
24743W        W96469  17.329  14.781   3.334
24744W        W96470  23.031  10.287  10.796
24745W        W96471   6.695  10.876  14.184
24746W        W96472   8.388  21.000   2.227
24747W        W96473  33.929   7.232   0.333
24748W        W96474  28.979  27.882  11.457
24749W        W96475  31.028  21.566  14.474
24750W        W96476  13.418  27.182   1.932
24751W        W96477  28.584  27.236  13.388
24752W        W96478  14.353  14.831   0.230
24753W        W96479  15.049  10.298   2.773
24754W        W96480   2.121   4.281  13.912
24755W        W96481  26.487  37.332  11.955
24756W        W96482  16.594  38.394   4.670
24757W        W96483  30.392  34.376   4.892
24758W        W96484   9.845  38.340  14.013
24759W        W96485  16.351  25.407  11.439
24760W        W96486   8.263   8.356  12.210
24761W        W96487  13.863  28.360   0.048
24762W        W96488  31.620  16.665  11.393
24763W        W96489  38.527  39.088   0.307
24764W        W96490  23.451  37.080  11.530
24765W        W96491  37.437  27.546   1.715
24766W        W96492   9.378  10.195   4.107
24767W        W96493  22.586   1.867  14.031
24768W        W96494  22.157  25.627   3.717
24769W        W96495  20.096  11.267  13.784
24770W        W96496  21.678  42.368  12.893
24771W        W96497  26.603  19.740   3.805
24772W        W96498  39.692  35.429   0.003
24773W        W96499  20.179  22.023  14.655
24774W        W96500   1.885   8.447  14.988
24775W        W96501  16.778  39.471  10.969
24776W        W96502  10.333  33.504  13.897
24777W        W96503  44.182  33.310  11.174
24778W        W96504  23.625  31.074  12.823
24779W        W96505   1.259  14.702  11.137
24780W        W96506   6.228  31.167  14.619
24781W        W96507  11.839   1.077   2.671
24782W        W96508  37.021  40.517   2.198
24783W        W96509  37.061   5.193   4.625
24784W        W96510  13.828   6.643  14.831
24785W        W96511  26.379  14.623   1.644
24786W        W96512  30.506  19.402  14.550
24787W        W96513   5.382  27.109   1.699
24788W        W96514   3.423  15.773   2.051
24789W        W96515   1.321   3.410   3.793
24790W        W96516  35.494   7.845   2.814
24791W        W96517  28.118   4.170   2.446
24792W        W96518  36.860   3.261  12.058
24793W        W96519   1.220  32.886  10.670
24794W        W96520  12.902  24.594   1.544
24795W        W96521  30.876  32.582   3.648
24796W        W96522  13.618   7.607   3.597
24797W        W96523  12.773  18.686   3.399
24798W        W96524  39.252  39.881   3.535
24799W        W96525  25.730  37.781  12.198
24800W        W96526  37.905  13.148   1.815
24801W        W96527  31.362  32.061   0.302
24802W        W96528  34.607   7.655  12.071
24803W        W96529  19.665   4.449  11.595
24804W        W96530  34.516  24.710  13.742
24805W        W96531  26.949  12.677  13.851
24806W        W96532  24.201   3.464  12.392
24807W        W96533   0.377  37.685  14.318
24808W        W96534  19.309  21.120   0.369
24809W        W96535   5.604  20.103  11.236
24810W        W96536  29.286  35.526  14.337
24811W        W96537  40.723  19.379  11.051
24812W        W96538   4.419  13.167   0.808
24813W        W96539  31.664  21.853  14.735
24814W        W96540   9.377  35.053   0.932
24815W        W96541  12.770  34.580  12.433
24816W        W96542  23.301   5.549   1.675
24817W        W96543  11.995  10.969  11.940
24818W        W96544  17.482  18.095  13.718
24819W        W96545  17.285  24.754  13.799
24820W        W96546  25.429  14.314  10.534
24821W        W96547  24.249  12.649  13.530
24822W        W96548  14.089   6.960   0.751
24823W        W96549  33.995  15.544   4.842
24824W        W96550  21.545  16.038  12.572
24825W        W96551  21.569   1.349  12.403
24826W        W96552  35.924  26.398   2.975
24827W        W96553  30.172  31.327  11.138
24828W        W96554  27.399  34.029   3.212
24829W        W96555  35.088  34.669   0.842
24830W        W96556  41.990  10.898   0.863
24831W        W96557  42.070   7.447   4.416
24832W        W96558  10.630   8.236  13.102
24833W        W96559  19.059  17.157  13.883
24834W        W96560  30.971   3.259  11.961
24835W        W96561  21.565   7.269  14.729
24836W        W96562  18.012   2.159  13.963
24837W        W96563  31.087  36.355  14.352
24838W        W96564   8.370  19.669   0.527
24839W        W96565   7.303  26.284  12.486
24840W        W96566  14.785  26.200  13.119
24841W        W96567   5.872  38.878  14.583
24842W        W96568  14.674  35.320  14.982
24843W        W96569  40.780  23.328  14.730
24844W        W96570  33.591   7.784   2.923
24845W        W96571  11.336  26.625  10.896
24846W        W96572   7.560   3.306  12.568
24847W        W96573   3.761   8.948   9.889
24848W        W96574   7.963  33.337  13.448
24849W        W96575  19.679  38.885  11.577
24850W        W96576  17.355  31.005  11.859
24851W        W96577  22.613  32.700   1.333
24852W        W96578  18.768   4.991  14.084
24853W        W96579   6.989  36.659   1.383
24854W        W96580  26.093  28.693  14.333
24855W        W96581  13.064   3.718  12.449
24856W        W96582  13.760  35.645   4.313
24857W        W96583  24.531  27.119   0.209
24858W        W96584  20.782   3.005   1.753
24859W        W96585  37.090  31.960  11.618
24860W        W96586  28.158  26.712   3.882
24861W        W96587  42.436  10.305  12.180
24862W        W96588  15.624  16.917   0.742
24863W        W96589  35.807  28.143   2.352
24864W        W96590  28.178  10.729   4.262
24865W        W96591  44.560  40.405  13.256
24866W        W96592   2.662  31.515   2.643
24867W        W96593  35.795  24.679   3.158
24868W        W96594   5.694   2.697   3.597
24869W        W96595   1.393  11.674   3.314
24870W        W96596  15.307  27.665   4.632
24871W        W96597  37.652   7.887  13.986
24872W        W96598  27.014  42.381   0.148
24873W        W96599   0.883   1.707  14.968
24874W        W96600  14.852  29.875  12.509
24875W        W96601   5.164  40.950   3.637
24876W        W96602   6.948  44.692  11.356
24877W        W96603  42.786   0.334  13.481
24878W        W96604  16.995  34.999  14.832
24879W        W96605  19.673  29.046  11.501
24880W        W96606  43.129  13.008   4.641
24881W        W96607  10.456  28.893   0.061
24882W        W96608   8.037  19.741  12.018
24883W        W96609  30.164  29.939   4.614
24884W        W96610  20.416  31.653   0.941
24885W        W96611  31.331  39.496  13.963
24886W        W96612   3.180  15.819  13.982
24887W        W96613  18.262   8.358  11.564
24888W        W96614   3.756  14.431   4.126
24889W        W96615  24.903   7.643   0.427
24890W        W96616  43.703  34.993   4.158
24891W        W96617  25.649  39.456   1.231
24892W        W96618  16.178  20.571  10.480
24893W        W96619  36.515  41.403   3.644
24894W        W96620  40.299  31.284  14.544
24895W        W96621  37.123   2.613   0.032
24896W        W96622  25.596  41.953   1.859
24897W        W96623  24.644  31.940   3.522
24898W        W96624  24.075  35.601   3.247
24899W        W96625  25.294  36.727   5.224
24900W        W96626  15.333  12.597  13.130
24901W        W96627   5.193  44.709  12.475
24902W        W96628  41.343   7.487   0.397
24903W        W96629  34.161  37.826  12.414
24904W        W96630  42.285  24.062   1.381
24905W        W96631  18.856  34.524  10.773
24906W        W96632  26.617  12.341   0.772
24907W        W96633  45.000   7.277   4.165
24908W        W96634  39.577  10.255  13.130
24909W        W96635  43.716  21.214   2.079
24910W        W96636   1.926  32.194   3.715
24911W        W96637   1.434  41.717  12.009
24912W        W96638  18.796  32.008  13.089
24913W        W96639  35.124   8.137  12.594
24914W        W96640  26.243  27.066  13.913
24915W        W96641  18.178  22.104  14.340
24916W        W96642  22.950  17.256   1.736
24917W        W96643  17.355  16.746  14.873
24918W        W96644  12.409  13.665  14.881
24919W        W96645  34.939  26.740   2.715
24920W        W96646   8.882   4.273   2.849
24921W        W96647   9.644   9.374  13.237
24922W        W96648  27.796  38.908  10.633
24923W        W96649  19.183   8.047   0.380
24924W        W96650   1.654   4.351   3.619
24925W        W96651   2.747  24.132  14.461
24926W        W96652   4.187   5.888  10.260
24927W        W96653  34.646  35.398   2.032
24928W        W96654  32.354  23.020  10.593
24929W        W96655   4.932  37.464   2.498
24930W        W96656  43.314  13.841  14.362
24931W        W96657  28.209  40.039  12.422
24932W        W96658   2.650   5.013  12.490
24933W        W96659  35.552   6.377   1.963
24934W        W96660  28.977  42.297   0.838
24935W        W96661  14.733   4.264  11.367
24936W        W96662  28.967  33.784  10.680
24937W        W96663  26.442  11.297  14.332
24938W        W96664  28.885   2.971  11.561
24939W        W96665  12.403  35.788   2.915
24940W        W96666  17.066  41.978  13.074
24941W        W96667  43.485   4.678   4.122
24942W        W96668   0.752   3.496  14.419
24943W        W96669  33.550  35.985   2.916
24944W        W96670  32.074  32.042   3.411
24945W        W96671  32.488   2.765   3.858
24946W        W96672  42.006  16.466   2.680
24947W        W96673   3.152  19.445  11.993
24948W        W96674  38.455  42.444   0.178
24949W        W96675  33.874  23.640  11.042
24950W        W96676   2.922   0.363   2.833
24951W        W96677  13.500  23.476  10.656
24952W        W96678  16.843  25.431  11.674
24953W        W96679  23.973  39.845  11.170
24954W        W96680  26.527   4.624   4.218
24955W        W96681  23.478  26.466  11.525
24956W        W96682   8.407  23.418   0.676
24957W        W96683   3.480  33.094   2.058
24958W        W96684  26.421  34.198  11.002
24959W        W96685  34.127   0.957   4.767
24960W        W96686  42.269  40.986   4.696
24961W        W96687  43.218  26.480   3.647
24962W        W96688  30.201  23.893  14.936
24963W        W96689  22.195   4.466  14.834
24964W        W96690  39.954  20.271  13.916
24965W        W96691  14.836   9.785   2.754
24966W        W96692  20.107  10.503  11.154
24967W        W96693  36.477  19.975   2.160
24968W        W96694  18.251  39.279  14.519
24969W        W96695   3.048  19.871  14.816
24970W        W96696  34.321  32.482   3.337
24971W        W96697  41.357  19.106   1.483
24972W        W96698  12.063  34.118   2.204
24973W        W96699  34.981  42.506   0.888
24974W        W96700  15.035  34.535   3.672
24975W        W96701  21.427  40.393   4.139
24976W        W96702  18.805   6.157  13.963
24977W        W96703  17.822  34.915  12.084
24978W        W96704  35.555  20.199   0.520
24979W        W96705  32.909  37.839  14.448
24980W        W96706  30.257  29.419   4.694
24981W        W96707  16.247  19.954  13.119
24982W        W96708  42.029  43.855   2.175
24983W        W96709  11.895  16.839  11.587
24984W        W96710  37.725  35.354   4.277
24985W        W96711   7.362  22.234  10.783
24986W        W96712  16.089  25.425   2.289
24987W        W96713  38.631  41.344  12.406
24988W        W96714  20.448  28.927   0.623
24989W        W96715  18.982  33.570   1.864
24990W        W96716  28.480  35.461   1.274
24991W        W96717  43.453  32.470   3.229
24992W        W96718  39.812  12.752   4.621
24993W        W96719   4.697  12.313   4.650
24994W        W96720  36.501  31.119   0.495
24995W        W96721   6.419  36.318  11.059
24996W        W96722  44.179  16.681  11.605
24997W        W96723  42.876  41.345  12.816
24998W        W96724   1.310  30.770   2.383
24999W        W96725  30.033   5.223  12.037
25000W        W96726   6.327  41.897  10.736
25001W        W96727   9.937  17.010  13.348
25002W        W96728  22.494  33.295  13.087
25003W        W96729  10.840  24.517  10.383
25004W        W96730   8.627   7.305  12.372
25005W        W96731   0.881  44.276  11.597
25006W        W96732  44.897   1.761   4.697
25007W        W96733  20.149  15.003  11.138
25008W        W96734  35.335   4.798   4.264
25009W        W96735   7.348  21.231   3.220
25010W        W96736  30.663   7.066  14.903
25011W        W96737  21.279  23.636  14.511
25012W        W96738  14.678  19.546  14.465
25013W        W96739   8.760  44.501   3.428
25014W        W96740  30.323  14.246  12.986
25015W        W96741  22.252  43.874  14.362
25016W        W96742  32.513  39.259  12.565
25017W        W96743  39.778   9.913   0.445
25018W        W96744  24.517  30.586  12.008
25019W        W96745  31.029  13.771  11.363
25020W        W96746  19.952  22.751  14.143
25021W        W96747  28.472  13.670   1.193
25022W        W96748  36.807  18.596   4.139
25023W        W96749  41.082  23.459   3.657
25024W        W96750  23.549  28.565  14.411
25025W        W96751  19.216  19.255  14.541
25026W        W96752  14.724  28.033   3.076
25027W        W96753   0.502  35.873   3.400
25028W        W96754  38.338  34.450   2.696
25029W        W96755  11.349  42.960  14.705
25030W        W96756  16.922  34.101  12.908
25031W        W96757   2.365   1.093   2.690
25032W        W96758  29.768   4.900   4.634
25033W        W96759  24.894   5.362   4.593
25034W        W96760  34.489  16.656   4.290
25035W        W96761  42.599   6.064   3.717
25036W        W96762  31.948   1.476   0.866
25037W        W96763  29.792  32.920  11.538
25038W        W96764  31.433  11.103  12.927
25039W        W96765   5.945   3.816   3.422
25040W        W96766  14.831  27.945  14.987
25041W        W96767  17.559   7.663   2.329
25042W        W96768  32.958  31.636  12.982
25043W        W96769  18.159  33.464  14.530
25044W        W96770  25.711  28.369   2.656
25045W        W96771   7.230  26.598   1.269
25046W        W96772  14.729  32.305   1.784
25047W        W96773  18.489  33.159   1.243
25048W        W96774  19.033  41.367   0.312
25049W        W96775  13.599  22.672  12.977
25050W        W96776  36.602  42.773   0.386
25051W        W96777  38.934   6.557   4.706
25052W        W96778  35.028  38.798   2.851
25053W        W96779  35.500  38.022  13.532
25054W        W96780  42.322  28.557   4.191
25055W        W96781  34.527  10.703  14.899
25056W        W96782  17.420  18.433   5.112
25057W        W96783  32.187  27.012   1.306
25058W        W96784  16.274  42.378  10.646
25059W        W96785  37.578  20.185  13.006
25060W        W96786   9.377  13.641  13.830
25061W        W96787  33.117   0.801   1.264
25062W        W96788   9.401  16.746   3.585
25063W        W96789  27.684  16.739  13.495
25064W        W96790  11.015  28.629  12.333
25065W        W96791  24.805  30.916  13.369
25066W        W96792  16.624  37.011   2.413
25067W        W96793  22.153  17.381   0.706
25068W        W96794  28.142  25.099   3.632
25069W        W96795  20.330  27.031   1.019
25070W        W96796  17.304  11.471  11.833
25071W        W96797  22.091  40.926   2.122
25072W        W96798   8.837  12.657   2.058
25073W        W96799  38.298  15.019   1.931
25074W        W96800  26.230  20.773   2.549
25075W        W96801  40.966  23.675   2.205
25076W        W96802  12.075   4.825  11.216
25077W        W96803   4.881  19.281  14.434
25078W        W96804  42.849  31.023   2.685
25079W        W96805  44.479   7.682   0.780
25080W        W96806  22.167  21.490   3.599
25081W        W96807  27.955  26.563   2.328
25082W        W96808  15.736  44.168  11.651
25083W        W96809   5.421  16.863  11.563
25084W        W96810  38.005   7.120   2.130
25085W        W96811  38.976  20.141   2.362
25086W        W96812   6.628  30.903  14.416
25087W        W96813   8.476  33.180  11.570
25088W        W96814  39.488  35.017   0.829
25089W        W96815  38.985   7.860  10.449
25090W        W96816  28.427  30.986   1.326
25091W        W96817  39.867   5.752   0.430
25092W        W96818   7.308  38.257  10.669
25093W        W96819  37.314  25.718  12.380
25094W        W96820  11.550  36.495   3.227
25095W        W96821   4.663  44.527  13.510
25096W        W96822  21.551  20.239  11.712
25097W        W96823   3.551  21.558  11.520
25098W        W96824  23.233   9.684  12.932
25099W        W96825   7.603  41.257   0.355
25100W        W96826  33.084  44.473  10.370
25101W        W96827   8.912  33.945   1.827
25102W        W96828  28.351  27.501  12.932
25103W        W96829  24.879  39.816   1.300
25104W        W96830  19.139   7.640  13.927
25105W        W96831  30.713   8.447  13.946
25106W        W96832   5.889   2.331  12.425
25107W        W96833  26.724  13.046   1.656
25108W        W96834   3.229  37.196  12.384
25109W        W96835  30.035  42.621  12.550
25110W        W96836   4.695  32.615  13.584
25111W        W96837  26.991   3.999  10.744
25112W        W96838  36.982   9.275  13.975
25113W        W96839   3.759  38.753  11.044
25114W        W96840  31.071  39.517  12.513
25115W        W96841   1.203   1.285   0.368
25116W        W96842  32.899  27.159   3.281
25117W        W96843  33.085  43.277  14.904
25118W        W96844  37.397  42.249  11.522
25119W        W96845  43.771  32.217   4.910
25120W        W96846  27.715   3.399   1.441
25121W        W96847  33.838  36.919   3.338
25122W        W96848  12.701  36.536   1.363
25123W        W96849  22.690  39.570   3.754
25124W        W96850   4.453  30.123  12.842
25125W        W96851  21.036  13.013   4.704
25126W        W96852  39.053  15.821   0.898
25127W        W96853  44.553  17.933  13.227
25128W        W96854  23.078  42.482   1.519
25129W        W96855  34.851   5.727   2.299
25130W        W96856  11.197  19.133   0.977
25131W        W96857   1.763  27.430  11.081
25132W        W96858   2.786  30.013  10.676
25133W        W96859  33.891  10.157   3.819
25134W        W96860  27.405  17.124  13.712
25135W        W96861  12.232  28.755  12.922
25136W        W96862  39.001  14.043  10.490
25137W        W96863   1.198  22.846  12.850
25138W        W96864  17.868  43.885   4.132
25139W        W96865  34.150  13.502   4.128
25140W        W96866  16.427  31.646  14.539
25141W        W96867  33.994   4.763  11.441
25142W        W96868  19.134   8.879  14.941
25143W        W96869  16.659  43.969  13.000
25144W        W96870  14.185  13.268   2.679
25145W        W96871  40.100  15.727   1.754
25146W        W96872  42.592  16.246   0.380
25147W        W96873  24.142  43.852   0.278
25148W        W96874   5.655  31.551   0.448
25149W        W96875  36.922   3.648  10.636
25150W        W96876  34.014  40.044   3.176
25151W        W96877   1.522   8.708  13.022
25152W        W96878  40.475  42.624   2.633
25153W        W96879  27.384   4.775  10.088
25154W        W96880   3.715  33.093  14.959
25155W        W96881   7.421  27.786  14.477
25156W        W96882  24.484  41.315   2.093
25157W        W96883  42.158  13.111  13.844
25158W        W96884   9.804   1.900  12.622
25159W        W96885   6.894  18.152  12.589
25160W        W96886  27.211  15.043  14.909
25161W        W96887  40.600  11.229   3.232
25162W        W96888  30.893  40.112   2.278
25163W        W96889  19.073  12.609  14.994
25164W        W96890   0.297  27.997   0.305
25165W        W96891  23.664  20.081   4.296
25166W        W96892  38.120  36.060  14.273
25167W        W96893  12.179  11.105   1.909
25168W        W96894  14.024  35.386   0.687
25169W        W96895  36.757  29.693   1.104
25170W        W96896  25.770  42.356   2.166
25171W        W96897  14.243  27.599   0.889
25172W        W96898  42.908  10.299   2.327
25173W        W96899  42.511   3.848   1.174
25174W        W96900  16.511  38.558   2.614
25175W        W96901  27.867   0.668   3.823
25176W        W96902  39.017  25.483   2.154
25177W        W96903   9.656  19.638   1.197
25178W        W96904  18.704  26.553  11.145
25179W        W96905  12.796  12.803   3.721
25180W        W96906   6.739  29.553   1.930
25181W        W96907   5.704  12.212   2.824
25182W        W96908  39.578  36.613   0.399
25183W        W96909  36.483  26.999  11.956
25184W        W96910  26.910  16.799  14.523
25185W        W96911  19.572  27.859  12.537
25186W        W96912  11.219  26.531  13.348
25187W        W96913  25.651  21.886   0.302
25188W        W96914  37.544   4.190   4.707
25189W        W96915  44.989  20.828   0.027
25190W        W96916  10.262  35.015  12.069
25191W        W96917  20.172  42.329   0.379
25192W        W96918  40.073   4.496   2.895
25193W        W96919  26.432  29.060   0.970
25194W        W96920  38.388  24.443   1.969
25195W        W96921  40.881  43.218   0.464
25196W        W96922   7.392  26.260  13.834
25197W        W96923   6.746  16.539  14.762
25198W        W96924  32.055  37.538   1.269
25199W        W96925  40.977  21.144  11.113
25200W        W96926   9.629  30.518  12.470
25201W        W96927  17.085  44.069   3.247
25202W        W96928  42.999  41.446   3.227
25203W        W96929  32.005  31.962  12.040
25204W        W96930  13.340   8.269   3.221
25205W        W96931  23.340  39.071  11.904
25206W        W96932  35.264  22.567   0.721
25207W        W96933  10.602  32.388   0.761
25208W        W96934  42.966  12.356  12.809
25209W        W96935   5.736  29.131  12.900
25210W        W96936  26.306   3.156   4.167
25211W        W96937   7.216   0.063   3.723
25212W        W96938  31.362   8.830  14.367
25213W        W96939  19.567  34.078  11.921
25214W        W96940   1.440   5.659   2.648
25215W        W96941  44.927  35.632  11.194
25216W        W96942  15.712   1.460   2.871
25217W        W96943  25.694  15.104   3.743
25218W        W96944  33.365  25.894  11.582
25219W        W96945  24.048   9.148   4.516
25220W        W96946  36.771  20.833   0.723
25221W        W96947  41.354   7.791   4.176
25222W        W96948  17.395  10.052   2.327
25223W        W96949  22.093  32.111  11.424
25224W        W96950  24.105   9.385  10.943
25225W        W96951  22.968   0.942  12.871
25226W        W96952  43.840  15.564  11.530
25227W        W96953   6.867   8.238   1.235
25228W        W96954  31.970   9.744  12.909
25229W        W96955  21.279  19.626  12.899
25230W        W96956   0.357  13.147  13.024
25231W        W96957  41.544   2.840   2.299
25232W        W96958  43.846  16.003   4.753
25233W        W96959  34.862   1.476   0.695
25234W        W96960  12.651  18.181   0.860
25235W        W96961  38.578  38.443  13.445
25236W        W96962  41.967  10.345   2.685
25237W        W96963  30.187  38.881  11.745
25238W        W96964  39.493  37.511  13.409
25239W        W96965   7.141   1.828  14.107
25240W        W96966  26.690  33.837   2.736
25241W        W96967  35.223  15.864   3.563
25242W        W96968  14.065   9.811  13.770
25243W        W96969  32.067  19.032  11.026
25244W        W96970  12.374  39.779   3.695
25245W        W96971  17.240  32.378   3.358
25246W        W96972  31.389  28.137  12.568
25247W        W96973  29.009  38.442   4.712
25248W        W96974  20.537   4.746   3.673
25249W        W96975  30.305  33.908   4.131
25250W        W96976   3.601  13.190   3.647
25251W        W96977  19.541  35.046   1.633
25252W        W96978  23.739  34.581   1.782
25253W        W96979  31.758   0.730  14.877
25254W        W96980  44.007   8.423   0.868
25255W        W96981  32.540  25.987   0.661
25256W        W96982   8.072  39.308  11.615
25257W        W96983  22.761  23.024  13.946
25258W        W96984  32.881   3.794   3.687
25259W        W96985   3.149  15.165   0.263
25260W        W96986  11.871  36.294  14.856
25261W        W96987  34.106  27.183   4.144
25262W        W96988  35.003  13.011  10.783
25263W        W96989   3.999  14.007   5.340
25264W        W96990  41.096  25.579  14.441
25265W        W96991   0.328  15.497  14.392
25266W        W96992  31.962  43.946  14.749
25267W        W96993  36.658  13.726  11.096
25268W        W96994  19.991  37.152   3.745
25269W        W96995  38.299  25.988  12.489
25270W        W96996  37.519  38.751  12.268
25271W        W96997  13.713   3.196  13.809
25272W        W96998  19.120  24.741  14.755
25273W        W96999  26.207  28.164  12.933
25274W        W97000   7.806  32.422  11.771
25275W        W97001  28.307  24.319   3.347
25276W        W97002  34.135  44.675  13.176
25277W        W97003   4.789   3.809  11.782
25278W        W97004  30.625  27.164   0.776
25279W        W97005   2.811  20.681  14.755
25280W        W97006  35.769  28.872   2.552
25281W        W97007  28.753  44.806   3.266
25282W        W97008  23.150  38.960   4.817
25283W        W97009  43.145  38.161  12.006
25284W        W97010   5.670  11.741   1.813
25285W        W97011  15.872  20.652   1.378
25286W        W97012   1.837  12.685   0.493
25287W        W97013  37.593   4.175   0.914
25288W        W97014  30.980  38.969   0.830
25289W        W97015  27.629  36.940   0.095
25290W        W97016  33.349  42.262   0.838
25291W        W97017  38.045  42.988  12.092
25292W        W97018  26.706  24.075  14.289
25293W        W97019  37.910   9.414   3.688
25294W        W97020  25.451  19.795   3.601
25295W        W97021  31.778  18.386   0.030
25296W        W97022  24.476   6.701  14.408
25297W        W97023  10.101  39.853  11.895
25298W        W97024   0.501  26.188   3.724
25299W        W97025  19.994  39.562   4.327
25300W        W97026  19.223  35.852  13.406
25301W        W97027  16.994   1.068  10.756
25302W        W97028   2.788  40.602  10.810
25303W        W97029  13.023  42.017   2.698
25304W        W97030  28.346  44.694  11.992
25305W        W97031  43.321  12.571   0.827
25306W        W97032   1.815  10.163   4.630
25307W        W97033  11.340  19.801  14.152
25308W        W97034  36.430  43.957  14.335
25309W        W97035  20.755  23.757   5.034
25310W        W97036  29.089  25.976   3.650
25311W        W97037   4.894  35.082  14.797
25312W        W97038   0.211  38.063  12.942
25313W        W97039   2.331  18.969  11.841
25314W        W97040  42.772  29.704  10.745
25315W        W97041  16.319   1.271  12.515
25316W        W97042  32.286  23.193  13.859
25317W        W97043  18.176   4.018  14.250
25318W        W97044  27.380  40.811   1.713
25319W        W97045  38.652  12.019   4.158
25320W        W97046  30.954  21.153  12.101
25321W        W97047  35.060  36.431  11.620
25322W        W97048   4.167  31.579   2.684
25323W        W97049  32.964   4.185  13.580
25324W        W97050  39.627  19.235  12.463
25325W        W97051   7.528   5.492   2.790
25326W        W97052  17.269  41.090  13.829
25327W        W97053  26.008  15.840   1.343
25328W        W97054  15.096  41.726   3.269
25329W        W97055  14.711  27.960  14.103
25330W        W97056  22.254   0.954   1.894
25331W        W97057  18.613   6.409   3.143
25332W        W97058   0.353  32.034   1.781
25333W        W97059  42.721  40.095   4.535
25334W        W97060  42.009   0.219   4.589
25335W        W97061  11.909  12.620   0.830
25336W        W97062  25.141  38.921  13.138
25337W        W97063  23.107   8.389  12.474
25338W        W97064  21.586  33.134  13.973
25339W        W97065  39.639  32.405   2.975
25340W        W97066  37.303  23.462  13.937
25341W        W97067  34.507   1.480   1.615
25342W        W97068  37.280  34.198  11.203
25343W        W97069  43.293   9.286   1.737
25344W        W97070  31.951  37.949  12.498
25345W        W97071  23.194   8.630   2.487
25346W        W97072  17.524  44.686   3.946
25347W        W97073  38.927  40.008   4.252
25348W        W97074  10.141   5.438   4.531
25349W        W97075  36.848  16.362   4.848
25350W        W97076  42.038   7.590  11.623
25351W        W97077  11.567  22.053   4.674
25352W        W97078  41.841  42.661   0.474
25353W        W97079  37.579  35.490  11.041
25354W        W97080  41.623  27.688  11.972
25355W        W97081   0.392  42.960  14.480
25356W        W97082  28.728  17.945   2.278
25357W        W97083  23.604   8.898   2.320
25358W        W97084   4.397  34.862   3.385
25359W        W97085  25.027  32.072  12.563
25360W        W97086  30.511  41.332   0.360
25361W        W97087   2.540  34.115  11.085
25362W        W97088   7.245   6.633   9.963
25363W        W97089  27.915  43.767  12.476
25364W        W97090  17.993  36.014   2.764
25365W        W97091   4.631  36.647  10.201
25366W        W97092  30.007  10.191   1.870
25367W        W97093  26.762  24.753   2.280
25368W        W97094  35.178  37.946   0.938
25369W        W97095  31.460  40.629   1.820
25370W        W97096   0.267   3.326  13.499
25371W        W97097  44.543   3.218   4.701
25372W        W97098  22.684  14.214   4.201
25373W        W97099  11.600  29.052   2.145
25374W        W97100  12.593  42.430   2.917
25375W        W97101   3.263   7.169   3.256
25376W        W97102  42.827  32.116   1.358
25377W        W97103  22.139  37.338   3.877
25378W        W97104  10.787   1.862   4.060
25379W        W97105  36.240  32.213  13.823
25380W        W97106  10.478  40.045   1.474
25381W        W97107  44.491  16.797   4.635
25382W        W97108  43.769  25.883   2.230
25383W        W97109  17.348  27.958  11.039
25384W        W97110  29.494  25.674  14.250
25385W        W97111  23.294  14.765   9.747
25386W        W97112   8.472   0.258   3.571
25387W        W97113  44.799  34.016   1.425
25388W        W97114  15.668  34.429  10.242
25389W        W97115  44.844  12.932   2.870
25390W        W97116  15.601  11.861   4.584
25391W        W97117  39.797   1.735  13.926
25392W        W97118  37.903  23.541  14.899
25393W        W97119  33.737   8.222  10.422
25394W        W97120  44.172  40.429  12.343
25395W        W97121  16.984   9.046   3.564
25396W        W97122  22.748  13.714   4.361
25397W        W97123  23.982  15.759  14.871
25398W        W97124  17.296   3.193  13.007
25399W        W97125  19.336  38.419  12.844
25400W        W97126  38.130  34.828   2.168
25401W        W97127  30.436  37.974   0.425
25402W        W97128   6.831  42.092  12.162
25403W        W97129  29.668  12.983   4.596
25404W        W97130  30.530  12.525  11.181
25405W        W97131  27.941  39.435   2.233
25406W        W97132   0.908  35.817   5.030
25407W        W97133  11.786   0.800  12.792
25408W        W97134  41.371  25.467   2.143
25409W        W97135   3.484  23.758   0.920
25410W        W97136  38.912  40.597  10.457
25411W        W97137  33.846  12.927   2.178
25412W        W97138   8.200  38.771   1.193
25413W        W97139  31.488  36.068   3.849
25414W        W97140   9.941   2.226  14.007
25415W        W97141   6.913  12.624   9.983
25416W        W97142  35.878   4.476   4.823
25417W        W97143   8.246  39.701   2.704
25418W        W97144  19.985  42.466   2.205
25419W        W97145  24.064   1.815  14.851
25420W        W97146   3.588  35.808   4.972
25421W        W97147  17.813  16.153  14.317
25422W        W97148  44.814  10.195   3.846
25423W        W97149  15.081  19.225   3.388
25424W        W97150  27.865  37.542  11.941
25425W        W97151  25.699  28.305  13.198
25426W        W97152  17.365  40.317   1.121
25427W        W97153   3.348   9.847   4.270
25428W        W97154  41.309   6.319   2.251
25429W        W97155  32.119  38.358  12.752
25430W        W97156  42.340  26.490   0.015
25431W        W97157  14.175   5.597  11.681
25432W        W97158  25.662  29.593   1.737
25433W        W97159  20.060  43.379  12.871
25434W        W97160   4.692  23.066   3.845
25435W        W97161  42.362  30.759  10.689
25436W        W97162   1.062  25.034  14.478
25437W        W97163  38.514   9.807   4.028
25438W        W97164   2.903  38.534  11.168
25439W        W97165  42.163  23.222  14.803
25440W        W97166  37.580   6.507   4.487
25441W        W97167  14.357  28.015   4.661
25442W        W97168  25.058  29.708  10.656
25443W        W97169  25.782  32.995  10.687
25444W        W97170  39.815  30.964   2.944
25445W        W97171   1.198   2.303  13.322
25446W        W97172  26.494   8.368   1.081
25447W        W97173  24.674  24.624   4.562
25448W        W97174  36.332  40.410  12.929
25449W        W97175  24.671  17.183  10.601
25450W        W97176  24.725   4.639   3.770
25451W        W97177  38.074   1.230  11.101
25452W        W97178  19.268  31.181  14.066
25453W        W97179  10.835  23.588   2.763
25454W        W97180  33.129  12.809  13.564
25455W        W97181  21.257   0.753   1.843
25456W        W97182  29.622  22.032  14.917
25457W        W97183  39.384  33.297  12.160
25458W        W97184  34.001  32.858   1.382
25459W        W97185  37.635  22.050  12.540
25460W        W97186  22.667   3.533   4.510
25461W        W97187  28.500  22.192  14.975
25462W        W97188   2.438  34.627   2.247
25463W        W97189  11.779  27.568   3.299
25464W        W97190  22.111  34.418   4.706
25465W        W97191   5.996  27.448   1.751
25466W        W97192  12.167  13.061   1.825
25467W        W97193  13.094  25.769  14.615
25468W        W97194  17.736  40.521  12.434
25469W        W97195  35.824  30.342   2.760
25470W        W97196   3.444   6.300   1.231
25471W        W97197   8.754  32.050   4.568
25472W        W97198  15.259  32.647   4.208
25473W        W97199  14.899  33.530  14.456
25474W        W97200   7.204  35.537   0.967
25475W        W97201  30.149  14.243  12.480
25476W        W97202  28.569  14.733   1.224
25477W        W97203   3.770   8.292   2.588
25478W        W97204   5.407  39.322  14.488
25479W        W97205  31.553  15.590   3.717
25480W        W97206   8.741  31.419   2.867
25481W        W97207  27.368   3.776   0.721
25482W        W97208  38.925  37.771  10.737
25483W        W97209  28.693  12.564  13.333
25484W        W97210  22.596  40.023   4.046
25485W        W97211  32.101  16.659  10.099
25486W        W97212  30.824   4.832   3.735
25487W        W97213   3.800  13.347  11.893
25488W        W97214  36.510  21.249   2.832
25489W        W97215  10.846  43.912  14.784
25490W        W97216  10.158  21.503  14.537
25491W        W97217  30.579  40.322   1.140
25492W        W97218   9.664  29.006  11.000
25493W        W97219  23.779  21.014  11.166
25494W        W97220  29.624  16.302  14.517
25495W        W97221  40.633  26.707   0.970
25496W        W97222  35.886  27.164  14.713
25497W        W97223  29.444  37.362   2.543
25498W        W97224  44.902  26.379   4.341
25499W        W97225  24.386  11.986  14.883
25500W        W97226  26.388   7.908   4.977
25501W        W97227  19.280  11.813  12.098
25502W        W97228  13.597  14.581  11.351
25503W        W97229  39.034  13.949   1.743
25504W        W97230   1.382  32.623  13.080
25505W        W97231  20.771  14.264   3.298
25506W        W97232  20.462  43.912   2.520
25507W        W97233  29.575   1.693  10.716
25508W        W97234  27.070  32.310   4.974
25509W        W97235  10.746  18.310  12.500
25510W        W97236   5.208  30.178   2.741
25511W        W97237  28.035  14.901   1.430
25512W        W97238   7.164   0.895   0.209
25513W        W97239  44.444  28.862   3.760
25514W        W97240  12.248  29.029   1.837
25515W        W97241  29.186  25.728   9.823
25516W        W97242   2.174  36.990   4.549
25517W        W97243  44.606  38.172  12.182
25518W        W97244   6.989  34.188  12.103
25519W        W97245  26.549  38.586  12.827
25520W        W97246   0.026  40.985   2.275
25521W        W97247   6.869  30.951   1.404
25522W        W97248  30.141  43.670   1.351
25523W        W97249  17.099  17.183  13.822
25524W        W97250  39.378  20.491   3.106
25525W        W97251  12.473  26.615   1.994
25526W        W97252  43.386  39.387   3.160
25527W        W97253  32.564  38.281   3.086
25528W        W97254   0.069  33.078  12.044
25529W        W97255   9.754  23.066  10.210
25530W        W97256  36.499  14.143  10.800
25531W        W97257  31.376  13.260  11.991
25532W        W97258   6.331  35.411   0.046
25533W        W97259  35.225  34.593  12.212
25534W        W97260  28.929   4.723   2.405
25535W        W97261  40.095  18.842   1.319
25536W        W97262  38.172  12.648   2.873
25537W        W97263  35.015  25.477   4.836
25538W        W97264   3.362  39.814   3.428
25539W        W97265  28.481  19.729   1.004
25540W        W97266   3.162   5.343   3.605
25541W        W97267  28.098  35.701   9.900
25542W        W97268  22.822   0.247   1.918
25543W        W97269  20.638  33.068   3.630
25544W        W97270   2.939  20.969   4.630
25545W        W97271   3.668  43.319  13.834
25546W        W97272  34.756  34.459  12.495
25547W        W97273   4.309  40.421  13.295
25548W        W97274   5.652  32.576  11.208
25549W        W97275  21.974  41.624   0.564
25550W        W97276  43.309  18.081   2.325
25551W        W97277  26.555  42.946  13.135
25552W        W97278   8.953   4.327  10.910
25553W        W97279  12.909  40.439  14.327
25554W        W97280  26.508  31.390  12.390
25555W        W97281  29.050  30.692  12.568
25556W        W97282  35.130  42.802   4.235
25557W        W97283  30.295  20.781   4.517
25558W        W97284  15.886   9.495   4.223
25559W        W97285  23.919  12.751  13.154
25560W        W97286  43.938  19.522  14.966
25561W        W97287  27.658  22.303   1.844
25562W        W97288   4.532  32.624   4.242
25563W        W97289  38.778  10.286  10.855
25564W        W97290  13.673  44.935   1.203
25565W        W97291  10.528   8.748   4.857
25566W        W97292  44.483  39.621  13.389
25567W        W97293  38.775  21.256   4.144
25568W        W97294  41.114   5.383   2.926
25569W        W97295   9.505   4.923   0.524
25570W        W97296  34.098  32.412  14.855
25571W        W97297  22.884  29.917   2.341
25572W        W97298  17.592  29.412  11.904
25573W        W97299  17.112  38.836   0.857
25574W        W97300  41.752  42.323   3.955
25575W        W97301  16.055  20.487   4.182
25576W        W97302  21.644   6.486  13.477
25577W        W97303  37.360  13.164   2.910
25578W        W97304   9.117  25.607   2.896
25579W        W97305  28.080  37.089   4.365
25580W        W97306   5.746  16.003  14.576
25581W        W97307  37.447   5.954  13.853
25582W        W97308   7.066  13.301   3.442
25583W        W97309  16.423  30.573   3.273
25584W        W97310  14.625  29.772   0.521
25585W        W97311  30.181   7.118   0.750
25586W        W97312  16.712  25.091  13.032
25587W        W97313   0.467  12.660  12.914
25588W        W97314  29.933  43.493  12.811
25589W        W97315  31.417  36.990   2.674
25590W        W97316  31.038  39.860   1.841
25591W        W97317  16.592  33.009  14.865
25592W        W97318  38.660  17.877   4.208
25593W        W97319  14.058  33.357   3.546
25594W        W97320  20.318  26.675  13.823
25595W        W97321  44.807  31.562   2.110
25596W        W97322   3.253  36.075   1.967
25597W        W97323   2.994   9.603  11.185
25598W        W97324   6.483   9.190   4.618
25599W        W97325  36.186  29.259  13.061
25600W        W97326  29.714  19.957   3.648
25601W        W97327  27.005  13.348   0.376
25602W        W97328  42.073  29.837  13.532
25603W        W97329  38.405   2.039  13.050
25604W        W97330  31.908  16.605  14.358
25605W        W97331  10.370  23.176   9.876
25606W        W97332  37.161  25.994   3.288
25607W        W97333  37.148  44.367   0.292
25608W        W97334  11.356  24.641   4.947
25609W        W97335  13.781  15.210  13.602
25610W        W97336  33.556  30.239   0.415
25611W        W97337  44.746   9.677  13.052
25612W        W97338  15.023  32.629   1.390
25613W        W97339  27.594  36.988   4.565
25614W        W97340  35.143  10.226  12.124
25615W        W97341  40.520  34.993  10.958
25616W        W97342   3.030  42.333   4.180
25617W        W97343  30.374  40.540  13.838
25618W        W97344  26.137  44.354  14.069
25619W        W97345  10.056  23.238  12.995
25620W        W97346  26.792  37.896  14.015
25621W        W97347  36.062  38.470  11.017
25622W        W97348  32.350  34.851   3.818
25623W        W97349  34.566  22.547   0.124
25624W        W97350  24.624  40.016   4.123
25625W        W97351  27.598  14.571   0.383
25626W        W97352  22.247  28.562  13.738
25627W        W97353   3.145  18.162   0.350
25628W        W97354   7.112  23.822   2.408
25629W        W97355  44.474  14.010   0.868
25630W        W97356  37.498  15.115   0.668
25631W        W97357  37.155   3.863  14.333
25632W        W97358  38.981  29.476   4.145
25633W        W97359  40.773  10.213   3.867
25634W        W97360  19.117  15.781   3.851
25635W        W97361  21.164  36.455   2.852
25636W        W97362  24.722  22.247  13.930
25637W        W97363   7.889  17.339   1.281
25638W        W97364  16.458  35.317   0.522
25639W        W97365  30.506  14.590   2.781
25640W        W97366   4.780  26.214   0.904
25641W        W97367  22.575  21.514   4.253
25642W        W97368  24.665   8.711   2.813
25643W        W97369  39.941  11.359  13.007
25644W        W97370  10.586   9.700   3.676
25645W        W97371  16.843   4.385  12.016
25646W        W97372  28.571   8.394   4.548
25647W        W97373   9.477  26.658  10.871
25648W        W97374  29.426   8.908   1.379
25649W        W97375   3.473  27.419  14.748
25650W        W97376   9.112  22.624   3.126
25651W        W97377  19.132  39.638   1.002
25652W        W97378  27.229  29.744   1.797
25653W        W97379  17.847  25.573   0.897
25654W        W97380   6.387  42.884  14.254
25655W        W97381  28.030  18.365   4.312
25656W        W97382  12.277   5.006   1.258
25657W        W97383   2.195   6.311  11.180
25658W        W97384  39.847   1.209   2.206
25659W        W97385  12.665  26.536   3.029
25660W        W97386  43.620  19.676  10.692
25661W        W97387  34.030  37.883   3.876
25662W        W97388  28.568  40.044  12.012
25663W        W97389  43.318  17.098  11.742
25664W        W97390  25.613   7.130  14.031
25665W        W97391  37.090  33.872  12.567
25666W        W97392  17.243   0.904   1.188
25667W        W97393   8.248  16.107  14.378
25668W        W97394   1.568  31.522  14.153
25669W        W97395  23.404  26.988   1.679
25670W        W97396  43.089   4.293   1.958
25671W        W97397  26.979  36.609  12.921
25672W        W97398  10.189   5.820  13.736
25673W        W97399  13.867  39.907  13.502
25674W        W97400  41.070  35.015   1.794
25675W        W97401  13.824  15.668  10.634
25676W        W97402  12.876  34.691  11.602
25677W        W97403   3.958  22.965  14.454
25678W        W97404  23.986  23.414   0.280
25679W        W97405  34.423  29.851   3.671
25680W        W97406  23.603   6.674  10.704
25681W        W97407  18.767  27.868   0.033
25682W        W97408  31.375  23.554  11.081
25683W        W97409  21.159  27.561  12.783
25684W        W97410  19.269  18.598  11.518
25685W        W97411  14.676   5.194  10.425
25686W        W97412  27.900  30.985  14.021
25687W        W97413  19.058  41.982   4.686
25688W        W97414  43.890  27.201   1.814
25689W        W97415  24.208  35.377   9.990
25690W        W97416  37.337  17.094  12.065
25691W        W97417  29.135  13.584  13.785
25692W        W97418  20.516  38.534   0.365
25693W        W97419  24.759  44.271   3.653
25694W        W97420  36.837  22.170  12.638
25695W        W97421  15.729  32.123  13.939
25696W        W97422  40.319   9.732   4.366
25697W        W97423  34.370   6.711  13.794
25698W        W97424  16.563  39.844  12.728
25699W        W97425  28.536  38.039  14.707
25700W        W97426  42.638  27.904   2.449
25701W        W97427  14.247   0.507  11.760
25702W        W97428  30.120  31.595  14.952
25703W        W97429  43.327  44.098   3.282
25704W        W97430  13.155   0.234   0.241
25705W        W97431   9.459  33.414   4.206
25706W        W97432  18.040  21.555   0.258
25707W        W97433  11.189  33.464  11.340
25708W        W97434  24.043   8.630  12.036
25709W        W97435  34.522  18.630  13.035
25710W        W97436  17.067  40.390  10.053
25711W        W97437  10.395  16.280   4.566
25712W        W97438  34.867  12.340   3.756
25713W        W97439  22.178  20.752   2.181
25714W        W97440  19.979  22.920   1.653
25715W        W97441  20.701   5.442   1.357
25716W        W97442  34.830   7.709   0.465
25717W        W97443  28.191   6.337  10.204
25718W        W97444  31.929  23.563  13.437
25719W        W97445   2.588   4.941  13.410
25720W        W97446  32.466  23.120  12.484
25721W        W97447   7.589  17.134   0.814
25722W        W97448  10.199  23.743  13.884
25723W        W97449  11.921   6.804  10.481
25724W        W97450  37.008  26.027  10.705
25725W        W97451  21.630  22.179  11.615
25726W        W97452   1.850  10.149   0.512
25727W        W97453  39.522  34.401  10.910
25728W        W97454  24.998  35.715  14.333
25729W        W97455  31.081  37.563   3.665
25730W        W97456   7.192  36.897   2.271
25731W        W97457  19.527  30.991  12.285
25732W        W97458  33.464  44.417   0.079
25733W        W97459   1.543   8.704  10.731
25734W        W97460   4.220   8.131   1.722
25735W        W97461   3.691  10.453  12.533
25736W        W97462   7.804   8.657  14.491
25737W        W97463  21.323  21.706  12.501
25738W        W97464  23.049  12.877   4.595
25739W        W97465  42.966   3.379   4.552
25740W        W97466  25.247  16.771   2.734
25741W        W97467  38.020  26.782   1.987
25742W        W97468  17.323  21.557   2.158
25743W        W97469  28.405  33.163   3.704
25744W        W97470  34.572   2.162   2.972
25745W        W97471  32.508   2.792   4.381
25746W        W97472  40.800  22.301  14.535
25747W        W97473  28.227   1.990   0.843
25748W        W97474  39.776  12.281   3.606
25749W        W97475  13.571  15.213  10.668
25750W        W97476   6.152  41.166  14.398
25751W        W97477  26.198  11.500  12.505
25752W        W97478   2.687   2.398  14.621
25753W        W97479  17.605   0.245   0.544
25754W        W97480  16.256  17.632   0.738
25755W        W97481  36.268  29.560  11.171
25756W        W97482  15.293  22.461   1.337
25757W        W97483  18.308  10.222   4.836
25758W        W97484  29.053  28.531   1.436
25759W        W97485  22.895  35.959   4.614
25760W        W97486  41.046  10.037  10.326
25761W        W97487  26.443  29.085  13.889
25762W        W97488  17.214  32.993  10.227
25763W        W97489  33.621  24.490   1.664
25764W        W97490   4.348  19.896  13.361
25765W        W97491  39.803  41.369  12.947
25766W        W97492  17.330  23.101   3.218
25767W        W97493  35.336  33.621  13.369
25768W        W97494  19.316  19.259  11.108
25769W        W97495   9.672  16.721  11.068
25770W        W97496  16.220   5.253  13.016
25771W        W97497   8.917   1.867  12.125
25772W        W97498   1.071  33.108  11.100
25773W        W97499  12.192  30.422   1.471
25774W        W97500  21.019  15.513   4.290
25775W        W97501   1.650  24.975   0.335
25776W        W97502  17.563   8.833  11.965
25777W        W97503   6.293  42.981  14.752
25778W        W97504  25.123   7.079  13.271
25779W        W97505  12.500  22.952  11.139
25780W        W97506  36.581   8.864  11.858
25781W        W97507  19.569   9.909   1.723
25782W        W97508  43.313  23.613   4.180
25783W        W97509   4.660  38.298   4.137
25784W        W97510  33.909  29.069   4.012
25785W        W97511  33.848   4.952  13.549
25786W        W97512  43.882  34.496  10.876
25787W        W97513  39.778  18.559   4.270
25788W        W97514  29.610  10.594  14.805
25789W        W97515  13.364   5.359   2.241
25790W        W97516   7.842  38.464   1.987
25791W        W97517  20.604   4.059   2.263
25792W        W97518  13.374  36.479  11.292
25793W        W97519  23.558   2.100   4.823
25794W        W97520  17.498  16.628  11.223
25795W        W97521  13.197  19.313   5.023
25796W        W97522   1.539  26.215  13.293
25797W        W97523  39.239  14.210   2.739
25798W        W97524  21.798  14.326   2.988
25799W        W97525  10.573   2.830  11.008
25800W        W97526  14.288  11.224  14.976
25801W        W97527  40.039  39.013   4.882
25802W        W97528  33.412  10.784   3.630
25803W        W97529  20.184   0.408  13.097
25804W        W97530   2.219  14.582  13.345
25805W        W97531  24.716  44.197  13.502
25806W        W97532  13.142   2.280  10.680
25807W        W97533  40.030  42.134  11.089
25808W        W97534  40.996  32.432   1.731
25809W        W97535  41.998  39.301   3.200
25810W        W97536  20.476   7.310   0.970
25811W        W97537  16.107  35.031  14.256
25812W        W97538   8.831  28.095   0.812
25813W        W97539   3.932  29.429  12.403
25814W        W97540   4.500  32.354  12.937
25815W        W97541   8.261  31.964  11.027
25816W        W97542  36.113   2.420   3.339
25817W        W97543   5.129  11.913   4.102
25818W        W97544  22.586  25.213   2.729
25819W        W97545  13.369  15.766  11.887
25820W        W97546  40.988  33.980   0.396
25821W        W97547  28.542  36.275  12.491
25822W        W97548  40.004   1.990  12.063
25823W        W97549  44.263   4.427  10.815
25824W        W97550   8.314   7.815  13.565
25825W        W97551  15.141   6.444   3.160
25826W        W97552  28.198   5.280   1.832
25827W        W97553  27.749  35.450  14.493
25828W        W97554  14.687  43.800  10.913
25829W        W97555   7.468  19.842  14.969
25830W        W97556  24.482  33.847  14.826
25831W        W97557  10.365  36.570   5.540
25832W        W97558  17.208  13.154   4.824
25833W        W97559  37.431  23.268  11.189
25834W        W97560  13.787  22.499   0.434
25835W        W97561  12.576   5.441   1.343
25836W        W97562  35.961  12.090   3.755
25837W        W97563  43.487  10.511  10.353
25838W        W97564   0.479  33.496   3.681
25839W        W97565  14.626  44.415  13.545
25840W        W97566  12.168  38.248   3.649
25841W        W97567  17.729  21.611  11.514
25842W        W97568   9.755  23.535   3.740
25843W        W97569   1.346  29.726   2.179
25844W        W97570  22.695  32.976  10.685
25845W        W97571  30.512  43.786  14.407
25846W        W97572   1.799  43.549  14.798
25847W        W97573  43.572  22.936  14.138
25848W        W97574  22.955  17.119   3.815
25849W        W97575  33.428  35.017  12.095
25850W        W97576   3.760  19.998  14.901
25851W        W97577  39.217  24.622   4.828
25852W        W97578  33.982  42.320   1.374
25853W        W97579  24.135  37.615  11.533
25854W        W97580  25.639  24.122   1.687
25855W        W97581  30.097  39.493  13.476
25856W        W97582  18.937   7.185   1.643
25857W        W97583  35.416  35.051  12.162
25858W        W97584  23.402  34.364   1.457
25859W        W97585  12.383  43.902   0.365
25860W        W97586   6.190  19.570  12.199
25861W        W97587  21.072  36.316  13.887
25862W        W97588  13.909  27.002   2.181
25863W        W97589  17.258   8.454  14.391
25864W        W97590  20.004  32.478  11.045
25865W        W97591  44.431  24.455  10.765
25866W        W97592  43.874  44.028   3.227
25867W        W97593  17.871  36.574   1.468
25868W        W97594  17.608  39.823   3.298
25869W        W97595  18.335  14.734  14.528
25870W        W97596   6.767  23.550  13.369
25871W        W97597  19.307  44.920   1.177
25872W        W97598  30.081  28.772   1.101
25873W        W97599   1.913  10.235   2.332
25874W        W97600  38.036  40.274  14.048
25875W        W97601  25.551  33.421  11.563
25876W        W97602  17.056  11.696   0.786
25877W        W97603  29.603  22.115   1.392
25878W        W97604  44.943   2.234  13.863
25879W        W97605  41.133  28.106   0.361
25880W        W97606  41.265   4.104   4.233
25881W        W97607  38.816  23.586   3.152
25882W        W97608   9.481   5.386  14.653
25883W        W97609  41.348   3.497  11.997
25884W        W97610  15.692  10.815   3.746
25885W        W97611  37.425  44.909   4.569
25886W        W97612   1.492  23.105  11.945
25887W        W97613  40.040  22.192  12.688
25888W        W97614  12.185  31.565  11.827
25889W        W97615  36.369  35.388  11.163
25890W        W97616  10.594  42.075  10.174
25891W        W97617  30.357  43.212   0.220
25892W        W97618  31.795  32.385   0.363
25893W        W97619  38.703  36.763  10.706
25894W        W97620   6.307  17.239  11.120
25895W        W97621  40.905  21.220   2.483
25896W        W97622   7.910  39.920  13.852
25897W        W97623  25.610  36.026  11.137
25898W        W97624   7.786  25.256  13.936
25899W        W97625  26.924  13.613   2.980
25900W        W97626   4.145  25.195  10.906
25901W        W97627   3.872  17.225   1.923
25902W        W97628  13.229  36.064   1.360
25903W        W97629  27.089  44.249   4.724
25904W        W97630  30.547  43.423  11.162
25905W        W97631  28.176   8.122  13.936
25906W        W97632  18.092  28.476   4.085
25907W        W97633  42.582  28.738  12.028
25908W        W97634  13.949  22.844  12.605
25909W        W97635  22.195   5.596  12.888
25910W        W97636  16.342  14.221  10.728
25911W        W97637  37.115  43.360   2.679
25912W        W97638  11.140  20.509   3.736
25913W        W97639   2.748  38.114  10.914
25914W        W97640  18.851  34.463   3.779
25915W        W97641  29.212  34.497  14.224
25916W        W97642  10.721  33.228  14.768
25917W        W97643  35.856  21.762   1.103
25918W        W97644  42.893   7.623   1.839
25919W        W97645  42.560  25.074  13.866
25920W        W97646   8.457  27.194  10.954
25921W        W97647  29.490   2.122  12.907
25922W        W97648  10.379  19.693  11.888
25923W        W97649  27.746  43.493  12.076
25924W        W97650  33.974  25.341  12.000
25925W        W97651  33.632  24.933   1.927
25926W        W97652  27.507  12.764   0.450
25927W        W97653  38.623  21.564  14.283
25928W        W97654   3.563   9.053   4.890
25929W        W97655   1.736   7.343  13.872
25930W        W97656  13.470  16.198  14.445
25931W        W97657  16.038  23.133   4.118
25932W        W97658  25.200  28.665  10.671
25933W        W97659  41.395  42.564   1.678
25934W        W97660  37.948  12.196   4.747
25935W        W97661  17.746  32.089  11.958
25936W        W97662  17.504  12.783  11.113
25937W        W97663  15.563   4.252  10.772
25938W        W97664  33.415  37.388   3.219
25939W        W97665  31.675  19.743  10.635
25940W        W97666  15.731  43.252  13.499
25941W        W97667   7.287  22.792   2.346
25942W        W97668  19.360  22.733   0.796
25943W        W97669  43.951  22.366   3.796
25944W        W97670  42.928   2.509   2.360
25945W        W97671   9.074  43.807  12.367
25946W        W97672  13.339  34.034   0.002
25947W        W97673  12.354  38.650  11.146
25948W        W97674  20.473  20.903  14.674
25949W        W97675  33.411  17.525   4.272
25950W        W97676  21.044   1.304   2.601
25951W        W97677  29.982   9.420  12.587
25952W        W97678  16.010  37.201   2.737
25953W        W97679  19.008  26.266   2.019
25954W        W97680  10.980  27.568  13.592
25955W        W97681   3.387  39.313   1.773
25956W        W97682  26.677  20.964   2.766
25957W        W97683   5.789   1.237  14.799
25958W        W97684   7.418  28.449   2.676
25959W        W97685   5.071  29.037   5.040
25960W        W97686  11.783  13.381  13.394
25961W        W97687  25.128  16.112  14.071
25962W        W97688   7.647  40.085   2.303
25963W        W97689  38.004  30.424  11.118
25964W        W97690  36.006  12.594  12.888
25965W        W97691  38.339  23.026   1.877
25966W        W97692  31.059  43.008  12.901
25967W        W97693  24.126   9.824  12.926
25968W        W97694  19.758  19.636   4.001
25969W        W97695  27.922  19.349  10.241
25970W        W97696  23.142  25.724   3.758
25971W        W97697  31.836   6.031  10.853
25972W        W97698  39.561  19.555  11.547
25973W        W97699  30.698  34.983   1.758
25974W        W97700  20.708  22.585   3.560
25975W        W97701   6.134  41.325  13.573
25976W        W97702   8.292   0.272  14.958
25977W        W97703  22.693  25.727   1.395
25978W        W97704  43.418  40.387   1.691
25979W        W97705  19.740  36.575   0.580
25980W        W97706  26.438   8.327   0.072
25981W        W97707  13.656  18.315   4.259
25982W        W97708   3.437  10.431  12.082
25983W        W97709   0.734  15.043   0.561
25984W        W97710  29.132  41.322  12.967
25985W        W97711  38.887  41.580   2.678
25986W        W97712   4.840  16.580  13.371
25987W        W97713  25.966  12.859  12.969
25988W        W97714   5.391  33.037  13.871
25989W        W97715  18.546  10.560  12.421
25990W        W97716   2.399   0.600   2.818
25991W        W97717  44.999  29.193   4.912
25992W        W97718  12.773  19.584  12.063
25993W        W97719  35.587   0.219  12.606
25994W        W97720  41.884  36.441  13.185
25995W        W97721   2.450   1.715   3.621
25996W        W97722  37.451  11.595  11.893
25997W        W97723   8.750  27.439   3.450
25998W        W97724  26.160  16.634   1.703
25999W        W97725  30.021  13.389  13.907
26000W        W97726   1.251  18.555  12.444
26001W        W97727  23.505   7.281   0.030
26002W        W97728  42.962   6.844  10.538
26003W        W97729  10.266  34.086  13.158
26004W        W97730  28.397  32.521  12.808
26005W        W97731  41.796  14.243  10.182
26006W        W97732  36.342   3.237   3.756
26007W        W97733  42.463   8.973  13.434
26008W        W97734  19.923   8.371   1.049
26009W        W97735   8.031   6.522  12.009
26010W        W97736  15.672  29.665   3.830
26011W        W97737  43.295   4.524  12.092
26012W        W97738  44.946  32.637   2.003
26013W        W97739  30.491  34.948   1.282
26014W        W97740  27.586  37.831   1.864
26015W        W97741  27.027   1.441  10.925
26016W        W97742   9.863   9.103   4.214
26017W        W97743  29.580  27.511   2.774
26018W        W97744  22.210  30.461   0.810
26019W        W97745   2.124  15.620   3.239
26020W        W97746  44.332  28.095   0.461
26021W        W97747  23.789  21.719  13.912
26022W        W97748  35.733  40.332   3.709
26023W        W97749  18.838  19.460  12.350
26024W        W97750   7.875  32.105  14.958
26025W        W97751  17.973   7.953   0.998
26026W        W97752   7.417  23.024   0.017
26027W        W97753  38.763  29.489  14.036
26028W        W97754  36.080  33.116  12.696
26029W        W97755  18.785  20.792   2.004
26030W        W97756  30.303   8.859   4.855
26031W        W97757  19.693  29.660  11.101
26032W        W97758  44.884  12.599   3.814
26033W        W97759  13.437  25.685  13.259
26034W        W97760   9.276   9.533   2.652
26035W        W97761  37.449  14.587   2.758
26036W        W97762  26.060  44.468   2.784
26037W        W97763  27.160  27.952   1.205
26038W        W97764  12.736   8.977  11.585
26039W        W97765  37.303  20.218  13.466
26040W        W97766  24.753  28.632  14.956
26041W        W97767  26.611  19.550  13.335
26042W        W97768   8.017  33.802   2.866
26043W        W97769  30.054  39.095   4.882
26044W        W97770  42.926  44.209  11.122
26045W        W97771  23.060  11.535  11.566
26046W        W97772  39.581   4.886   1.713
26047W        W97773  40.084  28.989   2.827
26048W        W97774  38.168  35.613   4.351
26049W        W97775  29.568  35.362   2.012
26050W        W97776   3.347  27.983  12.990
26051W        W97777  20.767  19.808   4.067
26052W        W97778  44.916  14.261   2.190
26053W        W97779  22.971  33.781   2.631
26054W        W97780   6.951  40.054  12.465
26055W        W97781  14.566  15.660   0.945
26056W        W97782  43.892  26.591   1.789
26057W        W97783  18.335   6.714  11.634
26058W        W97784   3.665  19.566   3.558
26059W        W97785  25.374   6.332  12.265
26060W        W97786  13.731  30.347  11.964
26061W        W97787   1.724  26.458   0.933
26062W        W97788  17.315   9.610  12.855
26063W        W97789  26.924   9.955  13.026
26064W        W97790  21.924  40.484   4.257
26065W        W97791  44.201   5.480   2.104
26066W        W97792  21.240  24.508  11.475
26067W        W97793  23.733  19.471  14.881
26068W        W97794  24.112   4.262   3.694
26069W        W97795  24.519  30.065   1.227
26070W        W97796  14.221  36.828  13.785
26071W        W97797   2.688  13.639   4.343
26072W        W97798  40.592  15.518   1.828
26073W        W97799  36.991  44.879   2.807
26074W        W97800  31.347  14.342  12.925
26075W        W97801  34.005   2.238  14.261
26076W        W97802  22.518  10.681  12.283
26077W        W97803  25.006  19.357   1.345
26078W        W97804   0.248   6.511  13.484
26079W        W97805   2.295  24.217   4.223
26080W        W97806  34.508  21.782   0.923
26081W        W97807  20.966  31.069  11.033
26082W        W97808  38.633  16.536   1.955
26083W        W97809  20.217   0.366  12.029
26084W        W97810  24.128   8.988   0.755
26085W        W97811  42.850  36.465   2.986
26086W        W97812   1.199  27.533  12.847
26087W        W97813  42.676  40.479   2.844
26088W        W97814  31.737  32.932  13.375
26089W        W97815  15.028  15.227   2.752
26090W        W97816  24.773  25.000  14.856
26091W        W97817  14.803  23.777  11.097
26092W        W97818  22.295  28.938   1.730
26093W        W97819  28.395   0.271   3.679
26094W        W97820  15.676  12.395  13.496
26095W        W97821  27.937  41.405   4.901
26096W        W97822  33.531  36.937  12.970
26097W        W97823  22.096   9.826   4.768
26098W        W97824  29.449  20.528   4.838
26099W        W97825  38.755  13.645   4.123
26100W        W97826  24.766  16.717   1.731
26101W        W97827  33.558  29.944  12.929
26102W        W97828  38.392   1.412  11.702
26103W        W97829  26.052  37.087   1.440
26104W        W97830  36.134  13.982   2.660
26105W        W97831  25.022  33.618  13.604
26106W        W97832  32.519  29.664   1.636
26107W        W97833  18.985  25.725   2.023
26108W        W97834  13.460  29.434   1.367
26109W        W97835  41.426   5.260  13.379
26110W        W97836   6.224   1.000  12.107
26111W        W97837  20.705   3.796  11.128
26112W        W97838  36.008  37.489   4.153
26113W        W97839   3.289  12.157   3.724
26114W        W97840   2.531  20.643  11.717
26115W        W97841  13.075  30.819  14.622
26116W        W97842   3.522  24.616   1.499
26117W        W97843  20.234  17.159   3.084
26118W        W97844   4.729   2.166   1.021
26119W        W97845  43.430  25.008  14.277
26120W        W97846  27.167  41.781   0.866
26121W        W97847  28.153   9.709   4.002
26122W        W97848  44.749  14.942   2.791
26123W        W97849  34.493  16.161   4.099
26124W        W97850   5.473  16.985   5.308
26125W        W97851   2.794  33.934   4.457
26126W        W97852  34.985  37.825  11.818
26127W        W97853  12.205  36.125  10.425
26128W        W97854   1.378  33.424   2.820
26129W        W97855  42.542  42.823  13.460
26130W        W97856  16.782  29.016  10.946
26131W        W97857  27.484  39.570  11.063
26132W        W97858   0.768   0.466   0.710
26133W        W97859  16.444  10.785   0.344
26134W        W97860  33.066  18.980   3.361
26135W        W97861  19.518   6.346  13.493
26136W        W97862   6.827  36.302   3.416
26137W        W97863  20.407  28.613  12.976
26138W        W97864   6.752  40.721   1.093
26139W        W97865  17.298  12.224   1.261
26140W        W97866  41.795  18.986   4.600
26141W        W97867   4.839  32.922   2.324
26142W        W97868  41.937  41.095   1.342
26143W        W97869  15.139  23.023   0.705
26144W        W97870  20.578   7.767   4.666
26145W        W97871  17.261   0.096  12.275
26146W        W97872   4.417   9.241  12.919
26147W        W97873  39.946  21.830  11.709
26148W        W97874  14.764  12.218  14.947
26149W        W97875  30.941  28.425   1.024
26150W        W97876  43.174  39.241   4.180
26151W        W97877  39.594  42.398  12.992
26152W        W97878  38.601  43.461  12.981
26153W        W97879  35.525   7.880   4.582
26154W        W97880  34.998  19.579   0.055
26155W        W97881  40.168  41.818   3.714
26156W        W97882   2.691   2.411   0.732
26157W        W97883   0.309  38.542  11.192
26158W        W97884   0.921  36.307   3.446
26159W        W97885  41.973   3.353   3.572
26160W        W97886  25.567  29.841  13.405
26161W        W97887   3.459   1.298  14.792
26162W        W97888  44.400   9.658   2.107
26163W        W97889  40.972  39.007  13.276
26164W        W97890  42.424  26.593   3.878
26165W        W97891   6.717  26.159   4.385
26166W        W97892  26.186   1.183  11.398
26167W        W97893  35.892  10.832   1.013
26168W        W97894  43.892  34.669   1.925
26169W        W97895  43.319  11.800   3.341
26170W        W97896  34.965  27.203  11.868
26171W        W97897   6.244  30.900   0.066
26172W        W97898  22.603  12.659   4.599
26173W        W97899  12.792  29.617   2.808
26174W        W97900   3.358  27.421  12.886
26175W        W97901  32.514  30.874  11.403
26176W        W97902  18.720  24.425   3.243
26177W        W97903  31.573  16.611  13.953
26178W        W97904  40.381  16.548   2.340
26179W        W97905  41.314  16.229  10.681
26180W        W97906  33.525  36.390  14.172
26181W        W97907  13.779  11.076  14.977
26182W        W97908  11.626  38.189   3.619
26183W        W97909  39.807   9.209  14.733
26184W        W97910   9.746   8.260   1.153
26185W        W97911  35.069   9.726  12.197
26186W        W97912   5.933  11.657   3.659
26187W        W97913   5.022  11.250   2.184
26188W        W97914  35.015  37.910   1.833
26189W        W97915  27.379  20.926   1.797
26190W        W97916  39.639   6.026   0.803
26191W        W97917  10.808   4.712  13.862
26192W        W97918   3.958  21.456   2.236
26193W        W97919   3.887  40.423  12.622
26194W        W97920  22.580  41.266   2.881
26195W        W97921  13.086  29.039   1.259
26196W        W97922  33.107  34.338   4.242
26197W        W97923  21.502  27.055   4.915
26198W        W97924   9.248  12.649   2.843
26199W        W97925   7.559   1.955  10.649
26200W        W97926  24.603  33.182   0.470
26201W        W97927  21.566  22.266  14.914
26202W        W97928  26.071  44.854  14.792
26203W        W97929  23.329   5.702  11.165
26204W        W97930  30.447  22.466   0.965
26205W        W97931  14.724  34.662  13.910
26206W        W97932  31.082  25.677   0.701
26207W        W97933  38.848  23.985   2.775
26208W        W97934  38.765  43.927   3.919
26209W        W97935  20.519  34.659  11.856
26210W        W97936  18.493   3.713   0.375
26211W        W97937   9.874  27.464   2.651
26212W        W97938  41.741  31.837   2.311
26213W        W97939  38.857  43.445  12.498
26214W        W97940  31.802  43.067   3.848
26215W        W97941   3.190  20.667  13.602
26216W        W97942  27.414   1.988  11.993
26217W        W97943  30.712  33.619  14.381
26218W        W97944  36.402   1.163  13.879
26219W        W97945  38.914   4.142  12.973
26220W        W97946  23.615  38.851   1.858
26221W        W97947  16.585   7.263   0.745
26222W        W97948  14.388  18.200  12.208
26223W        W97949  41.418  19.196   3.732
26224W        W97950  34.445  25.664  10.752
26225W        W97951  31.384  36.851   4.839
26226W        W97952   0.624  43.058  12.030
26227W        W97953  42.919  12.898  10.616
26228W        W97954   4.661  17.126   3.567
26229W        W97955   5.765  41.303   2.758
26230W        W97956  34.142  35.452   0.913
26231W        W97957  19.787   9.655   4.714
26232W        W97958  26.965   3.368   0.205
26233W        W97959  42.567  43.755   3.359
26234W        W97960  35.040   0.751  11.939
26235W        W97961  43.535  17.994   3.258
26236W        W97962  30.449  21.804   3.687
26237W        W97963  43.699  36.971   0.693
26238W        W97964  38.804  33.303   2.684
26239W        W97965  37.561   4.390  13.593
26240W        W97966  39.401  26.956   1.738
26241W        W97967  12.637  24.172  10.687
26242W        W97968  19.995  39.969   4.659
26243W        W97969   6.405  38.936   3.338
26244W        W97970   0.906  25.251  13.371
26245W        W97971  26.940  24.873  12.883
26246W        W97972  34.391   5.290  13.976
26247W        W97973  38.413  28.740  14.723
26248W        W97974  22.575  27.120  13.954
26249W        W97975   6.400  25.776  12.502
26250W        W97976   4.046  40.614  12.174
26251W        W97977  13.654  38.819  13.132
26252W        W97978   2.221  44.810   3.898
26253W        W97979  10.064  23.105   0.284
26254W        W97980  23.160  25.140  13.871
26255W        W97981  22.064  16.117  13.298
26256W        W97982   7.170   3.219   4.530
26257W        W97983  28.543   2.664   1.239
26258W        W97984  19.262  24.100   2.917
26259W        W97985   3.682  35.100  12.596
26260W        W97986  29.618  25.149  14.362
26261W        W97987   4.540   9.802   4.960
26262W        W97988  29.122  26.384  13.612
26263W        W97989  32.937  35.440   1.272
26264W        W97990  21.056  26.723  13.285
26265W        W97991  19.774  39.157   4.676
26266W        W97992  10.301  25.238  11.113
26267W        W97993  25.042   6.139  11.255
26268W        W97994  37.112  42.201  14.899
26269W        W97995  15.044  15.672  11.514
26270W        W97996  38.027  13.670  13.895
26271W        W97997  27.645  40.993   3.646
26272W        W97998  14.314   3.586  13.125
26273W        W97999  38.115  30.238  13.828
26274W        W98000   1.217  29.091   1.277
26275W        W98001  39.038  34.325   1.827
26276W        W98002  35.537  15.520   2.259
26277W        W98003  40.318  36.074   0.213
26278W        W98004  41.393  40.533  14.368
26279W        W98005  34.978  33.117  13.930
26280W        W98006  32.313  44.915   1.250
26281W        W98007  32.097  21.021  14.816
26282W        W98008  10.854   2.947   3.394
26283W        W98009   7.468  30.512  11.701
26284W        W98010  22.936  27.528  14.903
26285W        W98011  25.225  42.723  11.459
26286W        W98012   1.237   2.848   2.228
26287W        W98013  22.749  26.544   0.273
26288W        W98014  10.386   3.674   1.879
26289W        W98015  17.578   5.713   2.424
26290W        W98016  19.467  44.522  14.527
26291W        W98017  38.886  17.094  12.474
26292W        W98018   0.312  27.726  13.370
26293W        W98019  37.042  32.155   2.028
26294W        W98020  19.193  32.622  12.535
26295W        W98021   3.926  35.899   0.688
26296W        W98022  37.272  16.039   0.765
26297W        W98023   0.218   4.724   3.892
26298W        W98024   9.672   7.904   0.420
26299W        W98025  32.578   3.123   2.928
26300W        W98026  37.350   3.447  11.933
26301W        W98027   6.310  16.071   3.143
26302W        W98028  10.800  14.666  11.711
26303W        W98029   8.358  31.358   3.559
26304W        W98030  35.132   7.216   1.713
26305W        W98031   2.544  26.093   3.615
26306W        W98032  21.132   9.849   4.908
26307W        W98033  17.555  35.662   2.671
26308W        W98034  31.154  14.900  12.627
26309W        W98035  24.952   2.324   3.624
26310W        W98036  10.306  25.243   2.689
26311W        W98037  20.302  10.765  14.515
26312W        W98038  23.980  40.913  10.930
26313W        W98039  31.859  36.528  10.954
26314W        W98040  23.278  12.725  10.401
26315W        W98041  24.006  44.708   2.742
26316W        W98042  23.115  24.550   2.523
26317W        W98043   9.466  18.157   1.404
26318W        W98044  34.347   4.721   1.682
26319W        W98045   5.771  21.252   1.855
26320W        W98046  23.717  41.372  11.475
26321W        W98047  15.033   9.961  12.094
26322W        W98048   2.408  19.578  11.352
26323W        W98049  24.571   8.088   2.412
26324W        W98050  36.781  34.928   2.183
26325W        W98051   2.264  12.045  13.827
26326W        W98052  15.142  19.001  13.785
26327W        W98053  29.228  40.038   0.456
26328W        W98054  40.248  11.197  10.677
26329W        W98055  30.597  14.015  14.996
26330W        W98056  31.177  27.502   4.742
26331W        W98057  15.907  16.575   2.819
26332W        W98058   6.383  35.328   4.101
26333W        W98059  20.531  28.254  13.315
26334W        W98060  23.734  29.993   4.213
26335W        W98061   6.606  35.834   3.230
26336W        W98062  33.394  23.996  12.954
26337W        W98063  33.926  35.622   2.703
26338W        W98064  18.208   5.833  12.094
26339W        W98065  28.720  28.078   0.826
26340W        W98066  31.203  28.523  12.866
26341W        W98067  39.454  26.388   1.330
26342W        W98068   3.520  26.471   1.049
26343W        W98069   1.691  37.991   2.304
26344W        W98070  34.953  27.719   4.530
26345W        W98071  36.000  29.126  11.235
26346W        W98072   2.941  44.968  11.917
26347W        W98073   8.927   8.288   2.347
26348W        W98074  30.279  17.839  10.457
26349W        W98075   5.889  20.802  13.301
26350W        W98076  32.551  44.109   1.609
26351W        W98077  23.535  34.785  14.199
26352W        W98078  40.642  22.819  11.963
26353W        W98079   3.158  33.204   3.235
26354W        W98080  19.077  33.361   2.376
26355W        W98081   5.589  15.659  13.819
26356W        W98082   5.395  29.678   2.807
26357W        W98083   7.360  36.423   1.083
26358W        W98084  21.287   7.368  11.615
26359W        W98085  44.564  32.331  10.466
26360W        W98086  38.842   1.374   5.019
26361W        W98087   9.186  36.661   3.644
26362W        W98088  34.579  24.674   2.663
26363W        W98089  28.925  25.453   4.383
26364W        W98090   4.213  38.483   4.341
26365W        W98091  15.627  32.996   0.898
26366W        W98092  19.213  11.401   3.374
26367W        W98093  15.019  17.732  11.835
26368W        W98094  23.679  27.403   0.655
26369W        W98095   7.738  31.682  12.888
26370W        W98096   1.756   9.582  11.809
26371W        W98097  42.092   6.633  14.680
26372W        W98098  29.414  35.370  12.980
26373W        W98099  29.719  27.775   5.000
26374W        W98100   4.267  32.512   3.067
26375W        W98101   5.941   5.432   1.877
26376W        W98102  19.297  26.939  14.708
26377W        W98103  19.970   1.524  11.270
26378W        W98104  39.022  32.696   3.692
26379W        W98105  10.161  26.241   4.556
26380W        W98106  12.743  30.186  14.571
26381W        W98107  25.482  39.564   4.585
26382W        W98108  36.101  22.168  13.721
26383W        W98109  34.534  21.496  10.254
26384W        W98110  23.529   4.849   2.639
26385W        W98111  14.635   7.243   3.810
26386W        W98112  22.698  17.674  13.066
26387W        W98113   7.568  11.634   5.056
26388W        W98114  44.378  23.339   3.081
26389W        W98115  24.958   9.016  10.964
26390W        W98116  31.174  11.535  14.157
26391W        W98117  27.177  18.199   4.816
26392W        W98118  30.246  43.356  14.255
26393W        W98119  11.807  24.269   1.758
26394W        W98120  17.827   8.816   4.327
26395W        W98121  21.964   5.445   4.724
26396W        W98122  33.161  41.521   1.891
26397W        W98123  41.528   5.271  14.617
26398W        W98124  42.495  13.091  14.279
26399W        W98125  10.987  24.965  10.585
26400W        W98126  35.696  41.309   0.913
26401W        W98127   1.948  24.521  11.915
26402W        W98128  25.506  28.941  12.426
26403W        W98129   0.147  19.291   1.451
26404W        W98130  17.734  29.187   4.414
26405W        W98131  43.766  21.275  14.505
26406W        W98132   5.716  23.151   3.535
26407W        W98133  22.013   7.296   0.510
26408W        W98134  39.887  35.102  14.025
26409W        W98135  17.029  11.864   5.043
26410W        W98136  41.925  19.985   4.591
26411W        W98137  26.070  13.589   0.047
26412W        W98138  37.038  10.134   4.169
26413W        W98139   3.497  26.679  13.368
26414W        W98140  30.110   7.464   1.646
26415W        W98141  31.452  19.501  11.473
26416W        W98142  22.108   4.255   1.311
26417W        W98143   1.318  20.680   2.362
26418W        W98144  13.688   7.377   3.147
26419W        W98145   1.349  12.614  10.751
26420W        W98146  28.825  35.172   2.456
26421W        W98147   5.434  28.457  14.551
26422W        W98148  15.173  23.435   2.580
26423W        W98149  30.667  11.668   4.315
26424W        W98150  30.212  11.824  13.962
26425W        W98151  28.622   0.814  14.284
26426W        W98152  18.139  12.048  14.759
26427W        W98153  10.193  11.678   0.350
26428W        W98154  40.510   7.757  13.587
26429W        W98155   8.129  42.519  13.601
26430W        W98156  23.166  21.182   0.900
26431W        W98157  28.635   3.208   3.797
26432W        W98158  23.470   2.907   1.062
26433W        W98159  35.143   9.054   4.558
26434W        W98160  37.649   6.865   1.803
26435W        W98161  33.662   8.404   3.209
26436W        W98162  29.718  14.431  11.225
26437W        W98163  28.684   0.232  12.883
26438W        W98164  30.787  30.989  13.310
26439W        W98165  13.199  24.962   0.025
26440W        W98166  28.638  35.832   4.695
26441W        W98167   9.730  28.471   2.547
26442W        W98168   8.216  41.750  13.948
26443W        W98169  29.223  39.104  10.253
26444W        W98170  35.538  29.245  11.541
26445W        W98171  17.763  17.385   0.479
26446W        W98172   0.845   1.266   4.694
26447W        W98173  39.756  31.149  14.460
26448W        W98174  17.462  39.014  10.117
26449W        W98175  36.334  44.317   3.111
26450W        W98176  30.578  14.017   2.123
26451W        W98177  14.334  25.003   1.305
26452W        W98178  38.860  18.125   1.511
26453W        W98179   1.421   9.660   1.880
26454W        W98180  38.748  19.526   1.419
26455W        W98181  40.365   6.120  10.269
26456W        W98182  16.568  15.270   3.835
26457W        W98183  44.194  15.822  12.029
26458W        W98184   9.096  32.701  12.017
26459W        W98185  30.974   3.281  11.439
26460W        W98186   8.659  40.716   3.416
26461W        W98187  32.357  36.602  14.941
26462W        W98188  39.798  38.609   3.256
26463W        W98189  33.061  19.797  11.632
26464W        W98190   9.812   4.716   4.770
26465W        W98191  32.009  16.800   0.772
26466W        W98192  35.594  23.714  14.892
26467W        W98193  24.705  19.539   0.934
26468W        W98194   5.952  36.602  12.289
26469W        W98195  39.863  37.602   3.320
26470W        W98196  24.170  36.443   3.684
26471W        W98197  12.701  19.089  13.136
26472W        W98198  23.113  31.534  11.718
26473W        W98199  14.739  19.589   1.209
26474W        W98200  14.088  10.942   3.207
26475W        W98201  20.670  40.339   0.838
26476W        W98202  41.790  27.026  11.521
26477W        W98203  37.587  39.099   2.821
26478W        W98204   5.130  16.738  14.159
26479W        W98205  25.990  19.029   4.224
26480W        W98206  14.737  23.278  13.864
26481W        W98207  32.091  41.005  12.436
26482W        W98208  23.770   1.551   0.232
26483W        W98209  39.909  11.167  12.534
26484W        W98210  30.133   8.307   1.373
26485W        W98211  25.029  10.413   0.420
26486W        W98212  32.002  43.826   2.653
26487W        W98213  23.255  20.694  11.807
26488W        W98214  34.657  27.749   4.095
26489W        W98215  15.801  10.827  10.546
26490W        W98216  37.364  36.109   4.126
26491W        W98217  35.165   6.130  11.915
26492W        W98218  17.809  28.083  12.397
26493W        W98219  14.184  31.627   4.445
26494W        W98220  22.709  39.160   2.953
26495W        W98221  42.363  43.250  11.442
26496W        W98222  27.146  14.033  13.862
26497W        W98223  42.559  42.754  14.892
26498W        W98224   9.235   5.405   3.747
26499W        W98225  11.700  10.441  10.141
26500W        W98226  13.320  18.236  14.439
26501W        W98227  43.788  34.859  12.149
26502W        W98228  37.567  38.813   0.387
26503W        W98229  36.433  38.586  14.719
26504W        W98230  29.391   4.285   3.612
26505W        W98231  31.085  34.751  12.874
26506W        W98232  31.429  25.405  14.883
26507W        W98233  30.798  44.213  14.303
26508W        W98234  22.835  21.235   9.858
26509W        W98235  37.401  20.192   4.298
26510W        W98236  18.113  42.235  14.018
26511W        W98237   8.570  44.829  14.997
26512W        W98238   7.777  19.897   4.096
26513W        W98239  35.216   1.034   4.959
26514W        W98240  26.696  35.803   1.361
26515W        W98241  28.022  29.562  10.657
26516W        W98242  41.300  22.224  14.443
26517W        W98243  19.230  34.108  13.254
26518W        W98244  25.909   4.964  13.990
26519W        W98245  29.759   1.664  12.930
26520W        W98246  19.455  32.321   3.751
26521W        W98247  12.367   2.470  14.022
26522W        W98248  38.099   7.775  11.744
26523W        W98249  43.317   2.822   1.174
26524W        W98250  25.035  42.114  12.372
26525W        W98251  23.053  16.337   0.870
26526W        W98252  34.533  33.382  13.871
26527W        W98253  10.683   9.190   1.344
26528W        W98254   7.909  30.860  11.621
26529W        W98255  24.430  12.865  13.074
26530W        W98256  23.100  36.434   4.601
26531W        W98257  37.897  24.086   1.764
26532W        W98258  25.140  41.795   1.992
26533W        W98259  30.822  40.269   5.050
26534W        W98260   9.666  38.548   3.786
26535W        W98261   4.004  38.969  10.079
26536W        W98262  35.375  10.713  14.469
26537W        W98263   2.291   2.322  11.503
26538W        W98264   6.587  15.984   3.608
26539W        W98265  34.577  38.052  12.606
26540W        W98266   7.790  43.841  11.628
26541W        W98267   4.939  30.919  12.877
26542W        W98268  11.795  18.028   2.254
26543W        W98269  43.245  34.463  14.233
26544W        W98270  10.406  41.714   2.335
26545W        W98271  36.085  40.711  12.454
26546W        W98272   3.990  21.148   1.364
26547W        W98273   5.415   1.047   0.397
26548W        W98274  17.856  28.987   3.458
26549W        W98275  36.564  13.307   0.264
26550W        W98276  20.248   7.193   4.626
26551W        W98277  41.107  17.063   2.658
26552W        W98278  17.598  29.995  11.063
26553W        W98279   2.869  12.394  10.678
26554W        W98280  27.064   9.019   4.881
26555W        W98281  22.505  31.641   3.156
26556W        W98282  23.736  17.797   4.759
26557W        W98283  37.913  11.302  12.800
26558W        W98284  34.375   2.355  12.919
26559W        W98285  17.526  25.118   3.827
26560W        W98286  12.590  12.281   3.688
26561W        W98287   0.781   9.595  12.631
26562W        W98288  41.932  19.723   2.623
26563W        W98289  36.629  33.356  12.028
26564W        W98290  27.221  15.761  13.467
26565W        W98291  41.732  44.506  13.598
26566W        W98292  34.355  17.270  14.388
26567W        W98293  15.775  15.704  12.110
26568W        W98294  27.941   8.863   4.627
26569W        W98295  23.427  40.757   1.198
26570W        W98296  42.035  16.549  11.059
26571W        W98297   5.138  30.865   4.889
26572W        W98298  44.423  34.952  14.379
26573W        W98299  40.998   0.775   0.733
26574W        W98300  35.505  44.009  11.531
26575W        W98301  12.242   6.103   2.268
26576W        W98302   2.272  34.561  11.143
26577W        W98303   6.829  42.976   1.812
26578W        W98304  38.969  10.191   2.248
26579W        W98305  27.957   2.897   2.233
26580W        W98306  31.102   1.933  13.884
26581W        W98307  41.414   2.713  12.503
26582W        W98308  10.335  15.118   2.661
26583W        W98309   2.473  30.924  12.356
26584W        W98310   3.941   8.932  13.596
26585W        W98311  25.602  12.450  12.144
26586W        W98312  41.020  24.703   1.426
26587W        W98313  24.372  41.900  13.594
26588W        W98314  37.670  42.124  14.176
26589W        W98315  32.561   6.181   3.819
26590W        W98316  44.049  40.331  13.332
26591W        W98317  16.804   9.120   0.921
26592W        W98318  15.291  17.252  12.526
26593W        W98319  31.091  23.677  13.872
26594W        W98320   6.903  17.668   0.774
26595W        W98321  25.254   5.426  12.316
26596W        W98322  40.981  37.897  14.236
26597W        W98323  36.493   8.650  13.227
26598W        W98324   5.770   2.392   3.191
26599W        W98325  30.974  11.053   1.680
26600W        W98326  30.260  32.026   3.913
26601W        W98327  42.540  18.639   1.195
26602W        W98328  13.130  12.175  12.472
26603W        W98329  13.683   1.611   4.674
26604W        W98330  38.151  23.980  10.937
26605W        W98331  29.024   6.133  14.924
26606W        W98332  34.071  13.322   0.489
26607W        W98333  21.149  14.858   3.773
26608W        W98334  29.670  15.580   3.593
26609W        W98335  16.483  32.888  12.415
26610W        W98336  18.602  25.687   3.670
26611W        W98337  30.509  23.264   2.612
26612W        W98338  27.902  38.940  14.915
26613W        W98339  32.368  34.494  11.444
26614W        W98340  35.132   2.707  14.827
26615W        W98341   1.993  16.035   2.417
26616W        W98342   6.835   7.212  14.403
26617W        W98343  18.795  18.285   3.265
26618W        W98344  36.710   3.676  11.348
26619W        W98345  14.528   5.801   1.521
26620W        W98346  36.076  18.102  12.423
26621W        W98347  31.320   8.138   3.765
26622W        W98348  14.456   8.575   3.234
26623W        W98349  37.550  43.889   4.540
26624W        W98350   7.867  22.504  12.547
26625W        W98351  30.680  25.100   2.350
26626W        W98352  14.002  10.405   3.384
26627W        W98353  20.492   7.137   3.824
26628W        W98354  21.074   1.476   0.761
26629W        W98355  19.359  42.020  11.002
26630W        W98356  32.955  16.402  12.574
26631W        W98357  23.667  37.935  14.369
26632W        W98358  22.164  23.770   1.006
26633W        W98359  25.010  17.213  13.235
26634W        W98360  20.538  27.244  13.405
26635W        W98361  23.744  16.754   1.762
26636W        W98362  33.670  23.671   5.047
26637W        W98363  33.236   9.601  11.226
26638W        W98364  18.073  40.115  10.158
26639W        W98365  26.959  33.127   3.214
26640W        W98366  39.176  10.780   1.374
26641W        W98367  43.945  22.117   4.241
26642W        W98368  32.537  37.393   1.113
26643W        W98369  30.960  41.303  10.972
26644W        W98370   8.361  28.136   0.593
26645W        W98371  38.782  41.899  12.160
26646W        W98372  25.211   4.408  10.620
26647W        W98373  40.084  39.223  14.828
26648W        W98374  21.542  44.434  14.512
26649W        W98375   5.019  10.357   3.284
26650W        W98376  10.577  34.032   1.306
26651W        W98377  32.496   2.212  12.592
26652W        W98378   4.984  33.800   1.288
26653W        W98379  16.048  43.883  13.943
26654W        W98380  34.365  18.616   3.906
26655W        W98381  35.554  18.047   3.299
26656W        W98382   4.505  11.794  12.340
26657W        W98383  35.443  40.404  13.861
26658W        W98384  44.177  18.572   3.606
26659W        W98385  33.809  22.486  12.709
26660W        W98386  43.452   4.156  11.773
26661W        W98387  28.125   9.708   2.838
26662W        W98388  32.844  20.634   3.613
26663W        W98389  34.608   5.569   2.883
26664W        W98390  42.886  21.207  11.049
26665W        W98391  18.252  26.026  11.661
26666W        W98392   5.739  40.046  14.828
26667W        W98393   7.543  14.589  12.792
26668W        W98394   1.847  40.256   4.057
26669W        W98395   0.544  26.770  14.339
26670W        W98396  35.137   8.004   3.740
26671W        W98397  33.168  13.802   0.766
26672W        W98398   4.463  33.767  11.084
26673W        W98399  18.558  10.946   0.066
26674W        W98400  28.503  21.777  13.537
26675W        W98401   3.326  11.296   4.845
26676W        W98402  16.297   3.802   3.432
26677W        W98403  36.000  28.485  10.695
26678W        W98404  15.082  20.167   2.401
26679W        W98405  26.705  29.673   4.544
26680W        W98406  34.310  14.080  13.315
26681W        W98407  29.172  10.975   2.712
26682W        W98408   4.713  23.662   3.260
26683W        W98409  27.179  22.471   0.979
26684W        W98410  22.729  23.193   4.097
26685W        W98411  23.276  36.446   3.644
26686W        W98412  13.141  16.756   3.677
26687W        W98413  21.547  30.350  10.643
26688W        W98414  34.408   5.328  11.470
26689W        W98415  26.784  14.905   4.062
26690W        W98416  20.338  13.759  10.683
26691W        W98417   3.208   5.232   0.383
26692W        W98418  29.624  31.688   2.800
26693W        W98419  31.002  25.637   1.775
26694W        W98420  12.521  18.683  12.845
26695W        W98421  26.221   0.321   0.570
26696W        W98422  42.994  21.251  14.577
26697W        W98423  40.859  40.643   3.680
26698W        W98424   3.774  13.777   4.900
26699W        W98425  22.571  13.678   2.447
26700W        W98426  42.489  17.214   4.316
26701W        W98427  18.863  26.704   1.774
26702W        W98428   3.576  14.832  10.447
26703W        W98429   1.574  38.123  11.615
26704W        W98430  30.381  32.450   0.076
26705W        W98431  22.513   8.868  11.851
26706W        W98432  26.116  18.262   4.602
26707W        W98433  27.754  39.437  10.650
26708W        W98434  42.899  39.297  13.379
26709W        W98435  18.150  41.710  14.860
26710W        W98436  14.399  12.734  12.299
26711W        W98437  34.008  13.057   3.368
26712W        W98438  19.980  36.983  11.380
26713W        W98439  25.234  39.525   0.373
26714W        W98440  12.312  19.247  13.436
26715W        W98441  11.318  31.596  10.943
26716W        W98442   8.351  29.662  11.045
26717W        W98443  25.930   1.170  13.920
26718W        W98444  12.134  40.500  13.614
26719W        W98445  14.143   5.070   1.389
26720W        W98446  37.973   4.752  14.719
26721W        W98447  14.117  10.717  12.290
26722W        W98448  35.547  34.406  13.908
26723W        W98449  41.818   7.607  12.981
26724W        W98450   1.774  16.980   0.092
26725W        W98451  12.549  25.961   3.181
26726W        W98452  42.360  24.272  11.891
26727W        W98453  39.632   5.386  11.504
26728W        W98454   7.198  15.646  10.487
26729W        W98455  13.725  33.083   0.922
26730W        W98456  36.604  38.999   1.835
26731W        W98457   3.432   9.098  13.708
26732W        W98458  42.287  37.514   3.233
26733W        W98459  20.079  39.680   1.927
26734W        W98460  39.523  40.080   1.329
26735W        W98461  13.350   8.317  11.232
26736W        W98462   8.526   2.440   4.191
26737W        W98463  32.575  25.560   0.979
26738W        W98464  35.683  37.630   1.375
26739W        W98465  32.976  25.956  11.205
26740W        W98466  13.252  15.214   3.663
26741W        W98467  41.267  41.366  11.187
26742W        W98468  41.334  43.576  13.545
26743W        W98469  33.373  40.381   3.952
26744W        W98470  21.068  16.699  10.640
26745W        W98471  12.868  31.021  13.750
26746W        W98472  32.450  18.677   2.771
26747W        W98473  15.738  39.504  11.809
26748W        W98474  33.830  13.798   2.958
26749W        W98475  29.862  17.893  13.512
26750W        W98476  43.721   1.833   2.191
26751W        W98477  37.821  33.346  10.272
26752W        W98478  32.224   5.320   1.268
26753W        W98479  20.803  32.048   3.377
26754W        W98480   0.510  20.036   0.728
26755W        W98481  11.459   6.349   4.405
26756W        W98482  17.330   3.446  13.881
26757W        W98483  18.523  34.525  13.479
26758W        W98484   3.423  13.552   2.596
26759W        W98485  41.171   3.419  11.085
26760W        W98486   8.868  26.588   2.706
26761W        W98487  23.744  40.542   0.834
26762W        W98488  20.597   7.461  12.561
26763W        W98489  27.699  14.708  11.609
26764W        W98490  29.265  30.327   3.765
26765W        W98491  30.497  37.235   4.183
26766W        W98492  25.612   1.734   4.579
26767W        W98493  14.193  40.320  14.287
26768W        W98494  35.307  20.759  14.485
26769W        W98495  32.402  16.425   1.312
26770W        W98496  16.280   2.297  13.586
26771W        W98497  40.953  19.424   1.785
26772W        W98498  35.091  29.923  13.993
26773W        W98499  30.218  24.258   3.750
26774W        W98500  41.239  24.437   1.031
26775W        W98501  14.895  17.365  13.479
26776W        W98502  33.113  30.244   0.942
26777W        W98503  21.641  29.356  11.553
26778W        W98504   0.845  12.435  14.129
26779W        W98505  36.120  24.062  13.753
26780W        W98506   3.982  20.481  11.702
26781W        W98507  26.855  19.496   1.897
26782W        W98508  11.734   6.563  13.533
26783W        W98509  18.057  41.784  11.919
26784W        W98510   2.983  24.141  11.123
26785W        W98511   0.649  44.237   1.262
26786W        W98512  31.196  26.461  11.583
26787W        W98513  42.989  33.014  10.911
26788W        W98514   0.122   2.351   1.335
26789W        W98515  12.898   1.922  14.306
26790W        W98516  31.125  21.906  12.570
26791W        W98517   7.671  35.354  11.673
26792W        W98518  40.194  15.310  13.294
26793W        W98519  19.055  22.726  12.340
26794W        W98520  11.858  43.977  10.412
26795W        W98521  44.035   7.602  14.419
26796W        W98522  15.221  12.999   0.908
26797W        W98523  11.093   4.758  10.843
26798W        W98524  17.980  12.760   0.861
26799W        W98525  27.907  12.447   0.296
26800W        W98526   8.776  20.202   2.677
26801W        W98527  28.640  18.780   3.382
26802W        W98528  23.185  29.484   1.452
26803W        W98529  38.617  33.793   1.474
26804W        W98530  14.186  42.237   3.272
26805W        W98531  14.540  10.248  10.920
26806W        W98532  14.087  10.943   1.736
26807W        W98533   2.553  22.281  12.012
26808W        W98534  14.383  42.327  13.006
26809W        W98535  41.941  14.208   0.860
26810W        W98536  17.543   2.001  13.870
26811W        W98537  34.529  25.493  12.118
26812W        W98538   5.148  10.335  11.505
26813W        W98539  22.123  37.905   1.384
26814W        W98540  23.153  12.113  14.367
26815W        W98541  18.383  13.879   2.790
26816W        W98542   2.165   6.276   4.580
26817W        W98543   6.054  36.327  11.862
26818W        W98544  37.101  20.924   4.747
26819W        W98545  37.029  11.179   0.695
26820W        W98546  27.388  12.232   2.663
26821W        W98547  21.665   2.841  11.299
26822W        W98548  14.966   0.528  13.937
26823W        W98549   3.852  27.102   2.931
26824W        W98550  14.074  19.148   4.038
26825W        W98551  37.868  13.092   2.694
26826W        W98552  34.440  33.909  11.450
26827W        W98553  44.416  13.118  14.287
26828W        W98554  16.834   0.281  11.991
26829W        W98555  42.357  44.682   3.373
26830W        W98556  17.692   2.421  13.563
26831W        W98557  28.486  10.104   1.476
26832W        W98558  22.061  27.199   4.264
26833W        W98559   3.237  25.611  11.667
26834W        W98560  10.297  37.590  10.760
26835W        W98561  34.948  29.058   3.452
26836W        W98562  24.161  10.140   4.655
26837W        W98563  42.997  35.119  14.770
26838W        W98564   7.476  40.657   3.672
26839W        W98565  41.557  22.748  14.319
26840W        W98566  44.236  29.112  12.098
26841W        W98567   1.420  44.430   2.682
26842W        W98568  39.471  23.309   2.754
26843W        W98569   4.953  44.719   0.269
26844W        W98570  40.787  13.528   1.973
26845W        W98571  19.832  17.739  11.643
26846W        W98572   2.366   7.173  12.617
26847W        W98573  35.071  21.936   0.773
26848W        W98574  35.559  37.547  14.981
26849W        W98575  32.600  28.099  11.551
26850W        W98576  44.529  29.976   4.598
26851W        W98577  10.366  29.026   2.286
26852W        W98578  42.438  32.652  12.871
26853W        W98579   0.394  11.251   3.183
26854W        W98580   5.158  10.350  12.557
26855W        W98581  20.025  33.252  14.334
26856W        W98582  38.878  36.955   1.871
26857W        W98583  29.042  42.002  13.473
26858W        W98584  32.193  40.420  11.672
26859W        W98585   2.810  21.403  11.144
26860W        W98586  42.933   0.392  13.994
26861W        W98587  25.882  31.755   2.532
26862W        W98588  44.458   8.977   2.231
26863W        W98589  41.852  14.706   1.037
26864W        W98590  28.499   3.058  13.977
26865W        W98591  36.940  37.577  11.264
26866W        W98592  37.576  23.296   3.094
26867W        W98593  36.463   1.453   3.667
26868W        W98594  31.966  44.700   0.511
26869W        W98595  13.152  12.777  12.946
26870W        W98596  16.975  16.782  12.061
26871W        W98597  25.126  14.796  14.564
26872W        W98598  44.209  40.924  14.910
26873W        W98599  10.762  22.786   0.228
26874W        W98600  29.164  36.540   1.311
26875W        W98601  32.673  25.723  10.442
26876W        W98602   3.901  19.767   2.589
26877W        W98603  20.698  26.475   5.375
26878W        W98604  18.552   5.680   2.796
26879W        W98605  12.245  34.566   2.358
26880W        W98606  24.549  10.595  12.271
26881W        W98607  32.999  20.456  10.765
26882W        W98608  42.642  23.211   4.502
26883W        W98609  23.681  43.944  13.105
26884W        W98610  31.494   4.456  11.585
26885W        W98611  39.132  13.686   2.619
26886W        W98612  18.762  33.658  10.747
26887W        W98613  43.660   8.538  11.722
26888W        W98614  44.442  38.362  11.705
26889W        W98615  36.882   3.673   4.313
26890W        W98616  33.442  12.379   4.614
26891W        W98617   3.697  44.714  11.595
26892W        W98618  26.580  12.830  11.738
26893W        W98619  30.583  38.813  14.497
26894W        W98620   2.702  41.512   2.037
26895W        W98621   4.141  32.954  11.550
26896W        W98622   9.781   4.472   0.642
26897W        W98623  39.579  44.799   4.586
26898W        W98624  11.272  16.479   0.096
26899W        W98625  17.732   3.904   2.037
26900W        W98626  27.612  43.541   3.680
26901W        W98627  15.682  37.307   0.899
26902W        W98628   5.317  27.438   0.771
26903W        W98629  32.882  19.579  11.194
26904W        W98630  16.546  29.105  14.351
26905W        W98631  39.500  39.318  13.872
26906W        W98632   6.794  32.600   1.489
26907W        W98633  15.662   6.921   0.844
26908W        W98634   4.003   7.840   2.211
26909W        W98635  32.518  20.299  10.674
26910W        W98636  33.185  40.357   3.467
26911W        W98637  16.799  39.490  13.003
26912W        W98638  44.301  37.064   2.691
26913W        W98639  43.297  43.257  12.861
26914W        W98640  32.025  30.752  11.236
26915W        W98641   5.163  34.577  11.913
26916W        W98642  24.667  44.910  10.926
26917W        W98643  35.885  24.753  11.979
26918W        W98644  39.832  21.238   0.842
26919W        W98645  37.315  43.997   3.663
26920W        W98646  43.015  12.839  14.015
26921W        W98647   8.890  22.695  12.450
26922W        W98648   4.432  21.263  11.494
26923W        W98649  42.299  13.579   2.363
26924W        W98650   0.742   9.848  10.797
26925W        W98651  19.175  23.084   3.106
26926W        W98652  35.225  39.785   5.310
26927W        W98653  37.496  16.678   3.233
26928W        W98654  36.855  10.356   3.739
26929W        W98655  34.480  33.423  10.503
26930W        W98656  39.584  19.407   1.675
26931W        W98657   3.102  15.421   2.296
26932W        W98658  16.023  36.509  12.426
26933W        W98659  26.011  10.757   0.546
26934W        W98660  11.557  43.546  12.459
26935W        W98661  23.001  28.644  12.789
26936W        W98662  31.608  25.248  11.059
26937W        W98663  33.329   4.325   3.422
26938W        W98664  37.567  40.883  14.249
26939W        W98665  24.793  26.907  14.437
26940W        W98666  44.278  30.091   2.295
26941W        W98667  11.592  37.544  11.175
26942W        W98668  23.704  29.920   3.698
26943W        W98669  25.952  13.753   2.736
26944W        W98670   6.486  28.396   2.743
26945W        W98671  19.760  38.359   3.569
26946W        W98672  21.803  26.170   5.000
26947W        W98673  38.027   8.902   5.292
26948W        W98674  40.301   2.970   4.778
26949W        W98675   5.712  43.069   1.082
26950W        W98676  14.288   0.838   1.941
26951W        W98677  14.206   4.176   0.869
26952W        W98678  27.104  26.135  11.096
26953W        W98679  12.773   2.509   2.231
26954W        W98680  26.388  34.082   0.542
26955W        W98681  23.506  17.137   0.863
26956W        W98682  28.116  21.638  12.335
26957W        W98683  39.386   5.218   3.872
26958W        W98684  20.616  29.545  14.076
26959W        W98685  40.181  14.004   1.304
26960W        W98686   8.107   6.198  13.268
26961W        W98687   3.497  10.869  11.782
26962W        W98688  31.571  40.981   3.627
26963W        W98689  33.664  16.308   4.658
26964W        W98690  11.784   4.872   4.572
26965W        W98691  27.773   1.088  10.044
26966W        W98692  11.109  26.477  12.309
26967W        W98693  26.590  37.983   3.317
26968W        W98694  41.928  15.651   3.329
26969W        W98695  25.896  23.029   0.815
26970W        W98696  25.878   3.653   4.938
26971W        W98697   4.959   5.320   2.806
26972W        W98698  44.501  21.857   3.624
26973W        W98699  23.942  39.486   2.727
26974W        W98700  35.256  42.922  10.755
26975W        W98701   0.020  39.399   0.922
26976W        W98702   6.667  44.305   3.749
26977W        W98703  35.895  13.879   3.537
26978W        W98704  11.135  16.305  10.618
26979W        W98705  36.561  11.612  11.986
26980W        W98706  30.094  35.415  10.988
26981W        W98707   1.201  31.766   2.857
26982W        W98708   2.916  38.962  11.444
26983W        W98709  21.221  13.631   4.164
26984W        W98710  32.707  44.787  12.261
26985W        W98711  22.595  25.924   2.346
26986W        W98712  25.522  28.872  10.292
26987W        W98713  39.559   7.911   3.764
26988W        W98714   8.367   7.894   4.086
26989W        W98715  32.055  15.228   0.019
26990W        W98716  19.679  28.467   4.599
26991W        W98717  35.592   1.429   1.457
26992W        W98718  13.219  38.971  14.913
26993W        W98719   3.417  32.561  14.921
26994W        W98720   2.324  33.628  11.184
26995W        W98721  40.390  28.676  12.163
26996W        W98722  41.942  22.938  13.488
26997W        W98723  30.432  12.880   1.348
26998W        W98724  15.216  29.223  13.328
26999W        W98725  11.252  32.380  14.903
27000W        W98726  34.353  27.098  11.043
27001W        W98727  38.946  41.328  13.327
27002W        W98728  26.323  19.238   4.572
27003W        W98729  12.784  17.877  12.169
27004W        W98730  27.877   3.967   4.192
27005W        W98731  22.621  41.078   0.806
27006W        W98732  20.752  20.780  14.239
27007W        W98733  32.344  34.849   0.951
27008W        W98734  30.513  34.496  14.522
27009W        W98735  28.075  39.392  11.702
27010W        W98736  37.519  22.039   3.287
27011W        W98737  35.324  43.235   0.273
27012W        W98738  23.103  28.986   2.637
27013W        W98739  13.349   5.726  12.868
27014W        W98740  40.970   9.123   4.672
27015W        W98741  28.360  17.828   2.681
27016W        W98742  34.498   2.817  14.846
27017W        W98743  12.793   8.232  11.242
27018W        W98744  34.796  44.276  11.874
27019W        W98745  16.331  26.069   4.324
27020W        W98746  44.812  39.984  10.632
27021W        W98747  41.521  25.510  11.152
27022W        W98748  23.959  24.711  13.584
27023W        W98749   0.430   4.376   3.135
27024W        W98750  19.192   3.767  14.739
27025W        W98751  40.319  15.521   0.381
27026W        W98752  11.231  39.455   2.496
27027W        W98753  23.081  15.378  13.331
27028W        W98754  37.520   7.368  14.364
27029W        W98755  39.437   1.695   4.633
27030W        W98756   0.400  27.473   1.230
27031W        W98757  27.117   9.866   4.232
27032W        W98758  31.009   9.411  10.617
27033W        W98759   0.333  44.295  13.347
27034W        W98760  29.636  36.299   2.226
27035W        W98761  22.620  28.096  14.293
27036W        W98762   3.340  17.690   0.467
27037W        W98763  37.892  12.630   1.735
27038W        W98764   2.322  36.576  14.035
27039W        W98765   8.601  34.391   0.757
27040W        W98766  14.804  35.460  14.490
27041W        W98767   7.775   4.188   3.378
27042W        W98768  28.734  12.148   3.335
27043W        W98769   9.705  19.041   4.593
27044W        W98770  27.966  44.916   2.430
27045W        W98771   5.826   5.460   0.035
27046W        W98772  10.993  17.206   2.850
27047W        W98773  12.951   0.535  12.000
27048W        W98774   5.074  28.471   0.419
27049W        W98775   8.770   0.316   4.492
27050W        W98776  37.818  25.585   3.393
27051W        W98777   0.858  30.726   1.701
27052W        W98778  13.155  13.573   4.532
27053W        W98779  26.544   5.232  11.127
27054W        W98780  43.062  43.273  11.053
27055W        W98781  43.763  14.614  13.653
27056W        W98782   3.053   0.979  13.030
27057W        W98783  38.544  24.467   3.740
27058W        W98784  23.247  15.841   1.803
27059W        W98785  15.208  18.483  11.138
27060W        W98786  14.285  39.251  11.473
27061W        W98787   4.648  10.045  14.728
27062W        W98788   1.583  38.058   4.603
27063W        W98789  37.362  27.820   3.097
27064W        W98790  25.436  14.949   2.071
27065W        W98791  25.052   0.039  10.568
27066W        W98792  13.723  29.589   0.179
27067W        W98793  16.316  25.792  14.839
27068W        W98794  23.564  37.965  12.928
27069W        W98795  35.081   4.837   3.807
27070W        W98796  41.910  38.296  14.441
27071W        W98797   7.190   7.240   0.333
27072W        W98798  29.027   9.665   0.261
27073W        W98799  41.478  23.466   1.461
27074W        W98800  38.440  20.268  12.775
27075W        W98801  41.427  32.704   1.910
27076W        W98802  20.107  10.680   0.981
27077W        W98803  23.557  11.209   3.800
27078W        W98804  37.040  19.678   3.338
27079W        W98805  19.208   7.222  12.405
27080W        W98806  28.542  33.219   1.791
27081W        W98807   1.554  30.170  14.810
27082W        W98808  32.996  43.899  12.306
27083W        W98809  17.049  18.679   1.497
27084W        W98810  43.021   1.050  11.854
27085W        W98811  43.223   0.946   0.323
27086W        W98812  34.782   2.836  14.419
27087W        W98813  23.009  12.179  10.148
27088W        W98814  28.156  34.420   0.902
27089W        W98815  43.876  31.449  13.755
27090W        W98816  18.161  32.109  10.955
27091W        W98817  21.594  18.703  12.739
27092W        W98818  40.357   9.757  11.372
27093W        W98819  20.475  20.376  14.059
27094W        W98820  22.725  18.813   2.655
27095W        W98821  23.197   2.211   0.501
27096W        W98822  16.240  40.926   2.179
27097W        W98823  28.064  20.282  12.008
27098W        W98824  15.765   6.219   1.347
27099W        W98825  13.101  30.467  10.849
27100W        W98826  36.757   9.686   4.165
27101W        W98827   6.926  16.395   3.731
27102W        W98828  10.122  41.816  10.904
27103W        W98829  21.378  31.147   1.187
27104W        W98830  18.231  40.276  13.548
27105W        W98831  18.076  34.961   3.700
27106W        W98832  16.087  11.682  12.099
27107W        W98833  18.304  40.072   1.922
27108W        W98834  29.786  25.001  11.134
27109W        W98835  19.226  25.058  13.710
27110W        W98836  32.032   0.375  14.253
27111W        W98837  44.350   2.695   1.227
27112W        W98838  35.654  17.140  13.672
27113W        W98839   0.253  43.370  12.950
27114W        W98840   7.967  41.265   1.234
27115W        W98841   8.903  27.477  14.340
27116W        W98842   9.426  21.542   2.385
27117W        W98843  24.648  33.299   3.278
27118W        W98844  23.011  43.576  14.483
27119W        W98845  15.110  35.029  13.680
27120W        W98846   9.828  23.790   4.192
27121W        W98847  31.023  28.157   2.004
27122W        W98848  34.342  21.986   4.682
27123W        W98849  22.914  41.273  12.644
27124W        W98850  20.132  18.620  13.337
27125W        W98851  15.840  25.160   3.226
27126W        W98852   6.824  41.605  11.297
27127W        W98853  16.735  37.831   3.327
27128W        W98854   2.185   6.742  12.434
27129W        W98855  32.445  14.376   1.914
27130W        W98856  15.344   2.648  10.693
27131W        W98857  14.407   1.855   2.349
27132W        W98858  26.541   3.489   0.913
27133W        W98859  20.106  27.997   2.908
27134W        W98860  25.949  10.559   3.058
27135W        W98861   3.417   7.363   2.797
27136W        W98862  36.383  22.604   0.821
27137W        W98863   0.328   4.709  12.902
27138W        W98864   5.766  14.656  11.366
27139W        W98865  25.779  33.628  11.974
27140W        W98866  33.348   4.332   4.744
27141W        W98867   4.869   7.058   0.572
27142W        W98868  29.432  18.913   3.577
27143W        W98869   0.647  35.514  11.833
27144W        W98870  40.353   2.578  11.305
27145W        W98871  39.377  34.075  11.878
27146W        W98872  33.594   8.077  13.467
27147W        W98873  31.079  27.702   2.947
27148W        W98874  29.489  25.936  10.984
27149W        W98875  24.583  36.880   1.953
27150W        W98876  16.245  14.842  11.859
27151W        W98877  30.612  20.353  12.044
27152W        W98878  28.888   8.896  13.787
27153W        W98879   9.771  12.095   1.932
27154W        W98880  22.543  30.638   2.824
27155W        W98881  44.370  38.574  10.725
27156W        W98882  33.997  44.500  10.521
27157W        W98883  28.033  18.236  10.722
27158W        W98884  24.266  26.718   0.432
27159W        W98885  11.108  34.163  13.288
27160W        W98886  12.152  27.519  11.547
27161W        W98887  19.774  43.094  12.517
27162W        W98888   8.359  17.620   1.941
27163W        W98889  12.144  41.257   1.900
27164W        W98890   2.364  17.133   2.223
27165W        W98891   5.911  41.098   3.222
27166W        W98892  38.436  28.103   0.802
27167W        W98893  15.331  30.993  11.889
27168W        W98894  39.109   4.274  11.954
27169W        W98895  20.682   3.778   4.664
27170W        W98896   4.792   4.222  12.723
27171W        W98897  28.114   9.690   0.774
27172W        W98898  39.085  23.121   3.289
27173W        W98899  19.074   5.494   3.236
27174W        W98900  25.391   8.112   2.831
27175W        W98901   7.409  25.006  11.056
27176W        W98902   5.373   5.210  14.876
27177W        W98903  15.058  27.179   2.887
27178W        W98904  38.562  14.642   1.270
27179W        W98905  32.400   9.716  11.384
27180W        W98906   0.884   0.779   4.523
27181W        W98907  12.906  13.324   0.294
27182W        W98908  22.178  10.638   4.848
27183W        W98909  15.024  42.022  10.754
27184W        W98910  28.233   1.256  10.264
27185W        W98911  37.590  15.690  12.052
27186W        W98912  40.285  34.494  12.139
27187W        W98913  34.425  38.287   0.386
27188W        W98914  20.269  14.354   1.975
27189W        W98915   0.752   4.512   1.784
27190W        W98916  33.216  36.968   0.716
27191W        W98917  28.108   7.132  11.188
27192W        W98918  29.226   8.309  14.747
27193W        W98919  25.246  38.528   2.645
27194W        W98920  40.365  31.603   4.600
27195W        W98921   5.813  15.095   0.262
27196W        W98922  26.928  14.289  12.475
27197W        W98923   3.527  29.704  11.186
27198W        W98924   1.720  20.996   2.317
27199W        W98925  28.404  42.339  11.972
27200W        W98926  44.290  24.438  14.307
27201W        W98927  14.297   7.131  11.457
27202W        W98928  24.833  10.799   4.384
27203W        W98929   6.611  17.017  14.921
27204W        W98930  30.328  42.372   5.012
27205W        W98931   7.642  44.455  12.085
27206W        W98932  19.647   3.941  10.847
27207W        W98933  41.267  44.328  12.350
27208W        W98934  21.091  30.585   4.267
27209W        W98935  10.729   0.547   0.239
27210W        W98936  13.441  14.599  14.851
27211W        W98937   3.310   9.632   1.225
27212W        W98938  42.771  17.633  13.866
27213W        W98939  23.948  23.337   0.815
27214W        W98940   0.936  11.737   3.567
27215W        W98941  25.483  24.062   2.177
27216W        W98942  10.900   3.371  12.983
27217W        W98943   9.665  22.349   2.289
27218W        W98944   4.871  11.928   4.972
27219W        W98945   6.401  33.614   0.917
27220W        W98946  35.326  35.412  12.902
27221W        W98947  18.514   7.780   1.133
27222W        W98948  33.568  28.452   2.112
27223W        W98949   0.402  43.748   4.171
27224W        W98950  38.914  15.993   1.362
27225W        W98951  10.280  41.205   2.250
27226W        W98952  28.759  40.530  12.131
27227W        W98953  36.424  18.280  10.753
27228W        W98954   6.715   8.862  10.785
27229W        W98955  24.468   0.588   9.785
27230W        W98956  37.877  30.603  13.451
27231W        W98957  21.754  36.265   0.978
27232W        W98958  11.860  10.227   1.330
27233W        W98959  12.662  43.547  10.604
27234W        W98960   9.148  33.532  14.799
27235W        W98961  42.302  33.606   4.593
27236W        W98962  33.409  20.226  10.559
27237W        W98963  14.252  25.447  11.175
27238W        W98964  35.651   7.587  13.559
27239W        W98965  38.953   7.207  11.681
27240W        W98966  42.922   2.291   0.258
27241W        W98967  11.053  44.208   2.347
27242W        W98968  10.787  39.110   2.610
27243W        W98969  35.430   1.229   3.713
27244W        W98970  30.573  25.182   3.693
27245W        W98971   6.261  14.428  10.684
27246W        W98972  10.734   8.685  10.628
27247W        W98973  36.832   8.300  14.052
27248W        W98974  23.059  28.729  14.332
27249W        W98975  17.463   7.608  11.482
27250W        W98976  43.979  44.885   2.314
27251W        W98977   3.086  34.054   1.841
27252W        W98978  15.165  31.781  11.427
27253W        W98979  34.090  25.929   0.795
27254W        W98980  30.089  42.930   4.136
27255W        W98981  14.168   9.822   0.990
27256W        W98982  24.519  16.144   4.593
27257W        W98983  36.915  40.389   2.774
27258W        W98984  13.340  39.778   0.272
27259W        W98985  17.620  10.130  11.573
27260W        W98986  22.503  14.339   0.681
27261W        W98987  14.700   2.753  14.834
27262W        W98988  38.410  28.777   1.381
27263W        W98989  23.740   9.400   2.320
27264W        W98990  36.511  36.332   3.716
27265W        W98991  43.264   8.198   1.271
27266W        W98992  41.457  36.448  11.872
27267W        W98993  24.478  40.186   1.880
27268W        W98994   5.799  37.289   0.519
27269W        W98995  36.406   1.721  12.513
27270W        W98996  20.667  19.879  14.501
27271W        W98997  19.867   7.746   3.645
27272W        W98998  22.676  19.593  10.427
27273W        W98999  42.656  21.955   4.990
27274W        W99000  33.651  23.095  11.626
27275W        W99001   6.965  15.424  12.084
27276W        W99002  30.923  30.675  11.090
27277W        W99003  19.828  32.081   4.465
27278W        W99004  44.026   5.283   1.091
27279W        W99005  35.897  40.782   4.397
27280W        W99006  19.781  13.168  13.692
27281W        W99007  12.399  42.452  11.631
27282W        W99008  18.664  43.803  14.758
27283W        W99009  10.260  22.140  11.465
27284W        W99010  18.762  22.994   3.867
27285W        W99011  10.688  29.943  10.949
27286W        W99012  17.755  20.938  14.021
27287W        W99013   1.133  30.875  12.525
27288W        W99014  15.645  42.309   0.339
27289W        W99015   9.220  37.180   3.625
27290W        W99016  26.905   9.827   3.380
27291W        W99017  35.247   4.308   3.153
27292W        W99018  15.267   0.938   3.376
27293W        W99019  43.630  18.511   0.303
27294W        W99020  31.649  17.385  11.186
27295W        W99021  35.375  37.062   4.085
27296W        W99022  22.160   2.508   4.356
27297W        W99023  24.620  43.232  13.819
27298W        W99024  22.232  14.584  14.500
27299W        W99025  36.542  38.990   0.962
27300W        W99026   9.604   7.585  14.333
27301W        W99027  25.652  11.643  10.658
27302W        W99028  11.088  31.416  14.037
27303W        W99029  25.519  32.089  12.962
27304W        W99030   7.215  18.216   3.589
27305W        W99031  33.630  16.163   3.607
27306W        W99032  21.770  10.409   9.962
27307W        W99033  16.255  12.630   3.677
27308W        W99034   1.417   8.173  11.870
27309W        W99035  22.267   2.744  14.292
27310W        W99036   6.688  11.377  14.267
27311W        W99037  26.762  27.168  13.985
27312W        W99038  30.897  12.280   1.651
27313W        W99039  13.260  19.194   3.967
27314W        W99040   7.723  21.729   1.908
27315W        W99041  20.535  20.772   1.356
27316W        W99042  21.218  25.318   0.814
27317W        W99043  30.628  24.350  13.262
27318W        W99044   2.184  41.260  12.388
27319W        W99045  44.996   0.700  11.997
27320W        W99046  38.810  44.715  14.990
27321W        W99047  39.866   6.778   3.256
27322W        W99048   5.957   1.024   3.214
27323W        W99049  38.321  38.618   1.285
27324W        W99050  31.041   0.001  12.923
27325W        W99051  24.504  33.882  12.447
27326W        W99052  19.235  17.621  11.026
27327W        W99053  20.712  32.945   2.100
27328W        W99054  24.184  29.013   0.751
27329W        W99055  17.680  31.374   1.881
27330W        W99056  41.086   2.696  12.052
27331W        W99057  38.292  33.325  11.445
27332W        W99058  35.689  25.777  13.034
27333W        W99059  37.550   5.686  14.291
27334W        W99060  41.297   4.850  11.192
27335W        W99061  18.963  27.651  14.488
27336W        W99062  31.083  20.454   2.774
27337W        W99063  36.374  39.308   4.795
27338W        W99064  33.323  19.641   4.634
27339W        W99065  28.946   8.843   0.777
27340W        W99066  36.367  17.074  11.909
27341W        W99067  21.539  20.169  14.495
27342W        W99068   8.301  24.606   3.248
27343W        W99069  28.198  31.068  14.433
27344W        W99070   1.208   4.651   0.909
27345W        W99071  42.275  40.214   3.163
27346W        W99072  14.414  12.267   1.307
27347W        W99073  11.064   2.280   0.837
27348W        W99074  25.429  27.961  12.370
27349W        W99075  13.282  31.331   0.385
27350W        W99076  35.434  29.448  12.029
27351W        W99077  22.892  43.728  13.271
27352W        W99078  38.863   5.877   0.461
27353W        W99079  23.242  36.949   1.467
27354W        W99080  31.037  32.028  14.310
27355W        W99081  27.987  27.155  14.972
27356W        W99082   4.176  39.441  11.742
27357W        W99083  16.121  17.775   1.215
27358W        W99084  18.100  21.845  14.793
27359W        W99085  22.964  15.119  14.254
27360W        W99086  19.629  15.396   3.889
27361W        W99087   7.324  40.452  10.726
27362W        W99088  35.569  26.207  13.573
27363W        W99089   4.044  30.493   1.314
27364W        W99090  14.526  35.908  13.520
27365W        W99091  10.963  23.040  13.316
27366W        W99092  18.596  25.254  12.531
27367W        W99093  23.993  43.440  12.100
27368W        W99094  23.640  13.773   3.440
27369W        W99095  20.301  22.521   0.918
27370W        W99096  28.820   8.782   4.780
27371W        W99097  42.934  23.638   4.545
27372W        W99098  15.389  30.894   4.608
27373W        W99099  39.457  13.289   0.361
27374W        W99100  10.768  38.392  11.958
27375W        W99101  12.197  11.676  13.019
27376W        W99102  20.502  26.555  11.031
27377W        W99103   1.365  32.927  11.502
27378W        W99104  29.641  29.479  14.759
27379W        W99105   2.356  10.318   4.553
27380W        W99106  31.962  15.103   4.997
27381W        W99107  20.072  33.188  13.462
27382W        W99108  10.205   0.707  11.597
27383W        W99109  12.676   9.413  13.868
27384W        W99110  27.055  25.020   1.048
27385W        W99111   7.757  13.954   9.647
27386W        W99112  31.497   1.438  10.501
27387W        W99113  38.078  41.381  12.506
27388W        W99114  28.696  34.547   0.283
27389W        W99115  26.497  13.253   3.827
27390W        W99116  11.087   0.523   1.278
27391W        W99117  33.152   5.000   4.389
27392W        W99118  41.227  33.604  14.321
27393W        W99119   3.830  13.746  13.723
27394W        W99120   1.623  33.935  13.558
27395W        W99121  13.266  36.341  10.793
27396W        W99122  34.928   5.348   3.664
27397W        W99123  15.330  25.789   2.774
27398W        W99124  26.614  18.710   4.524
27399W        W99125  24.281  24.636   1.486
27400W        W99126  38.904   5.641  10.566
27401W        W99127   8.449  35.308   4.624
27402W        W99128  25.609  27.938  10.235
27403W        W99129  13.662  12.382   0.252
27404W        W99130   8.304  43.368   4.778
27405W        W99131  11.819  13.383   4.813
27406W        W99132  28.464   2.036   0.373
27407W        W99133  20.656  13.554  12.962
27408W        W99134  31.296  31.544   0.071
27409W        W99135  37.896   6.181  11.938
27410W        W99136  35.828  39.994   1.901
27411W        W99137  37.772   9.679  14.360
27412W        W99138  10.222   4.197   0.448
27413W        W99139   8.793  39.827  12.584
27414W        W99140   5.201  25.470  14.957
27415W        W99141   0.223  24.484  14.320
27416W        W99142  38.913   3.543  14.765
27417W        W99143   6.437  32.356   3.281
27418W        W99144   8.597  12.282  14.961
27419W        W99145   6.162  44.815  14.062
27420W        W99146   2.569  28.956   0.279
27421W        W99147  31.389  27.151   1.186
27422W        W99148  10.080  22.679   5.029
27423W        W99149  29.021  22.768   4.536
27424W        W99150  41.004   9.143   2.296
27425W        W99151  30.878  37.447   2.218
27426W        W99152  38.289   7.062  12.374
27427W        W99153  18.377  25.088   2.262
27428W        W99154  13.577  37.553  13.969
27429W        W99155  21.125  15.867   2.354
27430W        W99156   5.880  24.442   2.841
27431W        W99157  43.302  21.083  12.410
27432W        W99158  16.047  44.213  13.476
27433W        W99159  37.028   6.320  12.480
27434W        W99160  26.548  37.011  12.873
27435W        W99161  38.060   7.685   1.639
27436W        W99162  43.831  22.093  11.955
27437W        W99163  10.681  20.051   3.239
27438W        W99164  26.109  23.019  12.995
27439W        W99165  14.759  28.849  12.151
27440W        W99166  15.056  17.776   4.948
27441W        W99167  37.571  38.658  14.196
27442W        W99168  19.837  14.071   1.935
27443W        W99169  31.162  19.340  13.641
27444W        W99170  25.592  22.316   2.762
27445W        W99171  26.355  15.692   2.597
27446W        W99172  27.636  40.981  14.609
27447W        W99173  42.772  17.323   3.274
27448W        W99174   5.494  11.896  14.051
27449W        W99175  11.789   3.858  12.138
27450W        W99176  40.657  33.608  10.149
27451W        W99177   1.728   3.479   1.430
27452W        W99178   1.364  15.760   0.990
27453W        W99179  18.677  31.688  13.587
27454W        W99180   3.280  30.699   3.639
27455W        W99181  20.335  31.584  10.475
27456W        W99182   6.803  38.337  14.342
27457W        W99183  21.498  38.487   1.431
27458W        W99184  21.156  16.320   2.091
27459W        W99185  17.089  39.971  11.517
27460W        W99186  17.622  38.736  11.456
27461W        W99187  22.746   9.162   1.332
27462W        W99188  42.772  17.734  12.137
27463W        W99189  23.569  25.461  12.653
27464W        W99190  29.960  24.130   4.172
27465W        W99191   3.381  34.106   3.279
27466W        W99192  24.617  41.756  13.144
27467W        W99193  36.292  10.917  14.276
27468W        W99194   6.228  27.416  14.883
27469W        W99195   8.323  40.382  10.787
27470W        W99196   9.594  18.669  14.776
27471W        W99197  16.113  19.523  14.503
27472W        W99198  15.232  44.061   1.655
27473W        W99199  26.592  17.112   1.281
27474W        W99200  43.803   9.177  11.295
27475W        W99201  18.808   9.041   1.741
27476W        W99202  43.028  39.503  11.597
27477W        W99203   5.423  11.731  11.921
27478W        W99204  34.557  31.407  12.005
27479W        W99205  17.711  11.465  12.668
27480W        W99206  13.302  16.493  12.373
27481W        W99207  18.720  38.186   4.495
27482W        W99208  36.085  32.964   1.671
27483W        W99209  16.959   3.129  10.794
27484W        W99210  26.778  32.086   1.717
27485W        W99211  29.625   9.212   1.778
27486W        W99212   3.296   6.155   4.678
27487W        W99213  32.669  38.828   2.129
27488W        W99214  21.145  43.954   0.695
27489W        W99215  44.266  20.279  13.419
27490W        W99216  19.173  37.340  12.822
27491W        W99217   8.910   8.215  11.445
27492W        W99218  15.617  30.222  14.931
27493W        W99219   5.818   7.176  12.565
27494W        W99220  15.738  13.819   1.799
27495W        W99221   8.876   4.666  14.332
27496W        W99222  15.385  30.528   3.380
27497W        W99223   1.532  15.928  13.270
27498W        W99224  13.103   6.674  13.149
27499W        W99225  37.714  39.612   2.835
27500W        W99226  21.735  23.965  12.944
27501W        W99227  16.868  13.784  12.018
27502W        W99228   6.177  34.332   1.982
27503W        W99229  22.112   8.834  13.464
27504W        W99230  27.151  28.974   1.172
27505W        W99231   2.892  26.725  14.917
27506W        W99232  29.006  26.046  11.354
27507W        W99233  10.908   5.675   4.954
27508W        W99234  30.806   4.882  12.394
27509W        W99235  44.024  15.140  12.904
27510W        W99236  17.260  28.817  12.780
27511W        W99237  11.683  20.973   1.911
27512W        W99238  26.461   6.675  12.934
27513W        W99239  13.857  39.083  12.126
27514W        W99240  31.034   2.911   1.012
27515W        W99241  22.953   0.014  10.157
27516W        W99242  31.220  17.660   1.808
27517W        W99243  42.253  44.437  12.608
27518W        W99244  30.633  12.779   2.717
27519W        W99245   1.090  33.879   1.805
27520W        W99246  43.225  29.515   3.632
27521W        W99247   4.355  12.281   0.755
27522W        W99248   6.407  23.751  12.532
27523W        W99249  38.335  13.084   3.311
27524W        W99250  24.450   5.949  11.993
27525W        W99251  29.018  36.404  12.314
27526W        W99252  43.811  28.483  14.783
27527W        W99253   2.921  18.378   1.911
27528W        W99254  27.106  29.857   2.698
27529W        W99255  39.814  27.611  11.002
27530W        W99256  39.082   8.885  13.158
27531W        W99257   9.044   5.644  11.962
27532W        W99258  36.749  32.952  13.585
27533W        W99259  21.553   7.580   4.986
27534W        W99260  10.876  30.078  10.400
27535W        W99261   1.147  24.789  12.316
27536W        W99262  26.862  41.445  11.531
27537W        W99263  33.109  44.822   0.841
27538W        W99264   4.338  23.091  11.198
27539W        W99265  22.962   3.833  10.891
27540W        W99266  21.832  12.712   5.030
27541W        W99267  16.108  25.036   0.492
27542W        W99268   5.456  32.149   2.499
27543W        W99269  11.849  41.586  12.194
27544W        W99270  29.949   4.438   3.603
27545W        W99271  40.414  35.009  11.462
27546W        W99272  29.089  43.849  12.732
27547W        W99273   0.829   1.181  14.974
27548W        W99274  24.513  23.765  12.055
27549W        W99275  42.772  29.747   3.650
27550W        W99276  38.505  15.681   4.562
27551W        W99277  27.833   8.373   1.633
27552W        W99278   4.922   9.836  11.479
27553W        W99279  21.672  14.325  13.303
27554W        W99280   2.521   0.525  13.786
27555W        W99281  15.699  33.995   3.140
27556W        W99282  22.864  32.593   0.357
27557W        W99283  20.664  34.210   0.136
27558W        W99284  31.390  18.611   2.210
27559W        W99285  35.379  16.641  14.854
27560W        W99286  15.398  39.909   4.599
27561W        W99287  41.193  16.756   1.179
27562W        W99288  27.521  43.602   5.318
27563W        W99289  20.496  36.343   3.329
27564W        W99290  38.940  13.884  14.505
27565W        W99291   8.844  42.925   5.179
27566W        W99292  19.494   9.652  10.784
27567W        W99293   7.390  32.035   1.036
27568W        W99294  40.907  41.600  12.549
27569W        W99295  22.538  37.563  10.234
27570W        W99296  22.911   9.753   0.514
27571W        W99297  13.306  20.599   2.799
27572W        W99298  21.599  26.049  10.672
27573W        W99299   8.262  18.617   1.165
27574W        W99300  32.206   7.615  11.779
27575W        W99301  41.213  15.150  14.901
27576W        W99302   7.940   1.509   0.676
27577W        W99303  17.987  15.719   2.806
27578W        W99304  41.448  25.229   4.088
27579W        W99305  34.962  35.464   1.309
27580W        W99306  29.767   9.713   1.915
27581W        W99307  41.994  14.182  13.809
27582W        W99308  14.053  36.099   3.698
27583W        W99309  41.172  36.008   4.539
27584W        W99310  24.102  32.722   3.655
27585W        W99311  42.803  14.151   1.997
27586W        W99312  31.580  17.561   3.722
27587W        W99313  10.787  28.055  13.987
27588W        W99314   1.643   1.367   4.550
27589W        W99315   2.987  39.895   1.821
27590W        W99316  43.359  31.882   4.942
27591W        W99317  11.913  28.369   4.076
27592W        W99318  20.759  31.338  12.432
27593W        W99319  26.237  18.659   2.925
27594W        W99320  26.963  21.293  12.981
27595W        W99321  14.670   2.966  13.437
27596W        W99322  42.864  31.194   3.643
27597W        W99323  33.976   0.545   1.418
27598W        W99324  23.602   3.293   1.665
27599W        W99325  25.457  36.830   1.955
27600W        W99326  42.167   6.360   5.199
27601W        W99327  24.669   8.906  13.045
27602W        W99328   5.976  38.169  10.912
27603W        W99329  42.928   9.819   0.445
27604W        W99330  40.322  43.335   4.570
27605W        W99331  33.118  11.394  13.549
27606W        W99332  10.679  22.223   4.503
27607W        W99333  10.195  11.815   0.861
27608W        W99334  13.278  41.006   2.601
27609W        W99335  30.592  18.651  11.401
27610W        W99336  40.199   8.620   2.162
27611W        W99337  21.218  28.359  10.706
27612W        W99338   6.815   6.822   0.241
27613W        W99339  19.624  24.982  14.024
27614W        W99340  19.099  28.558   3.559
27615W        W99341  37.525  20.087  11.961
27616W        W99342  39.905  37.924   1.411
27617W        W99343  10.720  24.920   2.716
27618W        W99344  29.625   0.888   2.759
27619W        W99345   4.291  23.721   3.579
27620W        W99346  22.101  44.280  12.997
27621W        W99347  16.605   1.864   5.034
27622W        W99348  14.122   1.315  12.953
27623W        W99349  36.594  39.905   0.455
27624W        W99350   5.613  21.740   1.958
27625W        W99351   4.836  39.078  12.692
27626W        W99352  29.396   3.937  11.655
27627W        W99353  17.560  24.629  11.585
27628W        W99354   1.480  17.380   4.154
27629W        W99355  12.904  42.808   3.148
27630W        W99356   4.115  25.748  14.392
27631W        W99357  15.084  42.580   2.307
27632W        W99358  33.052  34.001  14.437
27633W        W99359  29.943  26.272   5.000
27634W        W99360  38.546  20.565  12.369
27635W        W99361  10.677   4.126  14.757
27636W        W99362   5.356  44.302  13.522
27637W        W99363  39.655   8.359   4.083
27638W        W99364   1.607  33.895  12.357
27639W        W99365   1.508  19.474  11.474
27640W        W99366  44.332   3.741   1.335
27641W        W99367  23.158  33.205   1.884
27642W        W99368   4.403  33.686   2.330
27643W        W99369  34.140  42.417   4.264
27644W        W99370  31.737  38.476  14.018
27645W        W99371  20.786  25.660   1.702
27646W        W99372  11.382  17.494   1.796
27647W        W99373  35.448  24.644   2.122
27648W        W99374  42.381  21.956   4.532
27649W        W99375  25.160  10.680   1.397
27650W        W99376  30.165  11.820   0.016
27651W        W99377  26.619   8.302  14.594
27652W        W99378  21.285  12.746   4.169
27653W        W99379  18.086   0.742  13.831
27654W        W99380  32.075  14.129   2.160
27655W        W99381   3.857  39.067  11.447
27656W        W99382  33.283  32.361   0.274
27657W        W99383  11.235  23.480  14.725
27658W        W99384  29.388  42.271  14.583
27659W        W99385   1.757  18.729   3.761
27660W        W99386  36.795  11.809  14.024
27661W        W99387   9.654  18.307  13.889
27662W        W99388  10.594  37.711   4.523
27663W        W99389  23.974   7.877  14.018
27664W        W99390  13.277  40.029  12.898
27665W        W99391  42.155   3.776   0.808
27666W        W99392   1.799   0.975  11.906
27667W        W99393  30.900  17.021  11.923
27668W        W99394  35.182  43.333   4.215
27669W        W99395  22.528  22.257   3.619
27670W        W99396  28.095  40.300  13.442
27671W        W99397  27.434  27.868  13.377
27672W        W99398  37.922   6.432  13.301
27673W        W99399  29.005  21.857   1.762
27674W        W99400  37.236  34.993   2.442
27675W        W99401   6.055  33.502   4.581
27676W        W99402  33.359  13.194   0.067
27677W        W99403   9.179  36.848  10.145
27678W        W99404  16.172   9.007   3.775
27679W        W99405  39.437  37.961   3.224
27680W        W99406  30.284  23.061   1.263
27681W        W99407  15.678  17.131  12.125
27682W        W99408   2.474   6.237  10.757
27683W        W99409  16.857  33.895  11.376
27684W        W99410  35.963   5.202  12.881
27685W        W99411  17.151  12.765   4.484
27686W        W99412  26.129  16.555   4.098
27687W        W99413  10.862   4.912   4.811
27688W        W99414  43.026  27.950  14.340
27689W        W99415   4.171  44.437   4.151
27690W        W99416  12.210  35.254  12.052
27691W        W99417  44.506   4.347  12.044
27692W        W99418  38.399   1.734   0.970
27693W        W99419  36.413  16.088   0.080
27694W        W99420  26.289  11.655   2.129
27695W        W99421  18.615  29.800  11.842
27696W        W99422   0.461   8.827  12.658
27697W        W99423  26.044  14.764   3.580
27698W        W99424  36.125   1.846   3.691
27699W        W99425  22.251  15.794  10.001
27700W        W99426   6.235  27.938  14.912
27701W        W99427  27.164  34.481  14.429
27702W        W99428  27.897  43.850   0.696
27703W        W99429  44.502  33.955  12.054
27704W        W99430  17.220  35.475  14.786
27705W        W99431   5.340  19.455  11.890
27706W        W99432  15.964  39.052   4.107
27707W        W99433  14.719  42.620   1.196
27708W        W99434   0.204   5.417   0.211
27709W        W99435  32.894  41.405   0.428
27710W        W99436  15.322  15.230   4.206
27711W        W99437  10.752  20.194   0.792
27712W        W99438   7.888  34.907  11.483
27713W        W99439  24.118  35.470  14.344
27714W        W99440  31.680   7.391  10.382
27715W        W99441  38.923  11.412   2.023
27716W        W99442  17.658  10.872   2.310
27717W        W99443  35.935   7.739  11.654
27718W        W99444  23.955  38.888  14.610
27719W        W99445  23.506  21.688  12.488
27720W        W99446  14.344  20.985  11.045
27721W        W99447  42.886  30.739  10.649
27722W        W99448  12.695  17.750  11.212
27723W        W99449   6.172  16.100  14.261
27724W        W99450  19.047  23.298  10.354
27725W        W99451  13.557  33.172  11.610
27726W        W99452  18.270  23.623  11.135
27727W        W99453  12.271  15.759   4.740
27728W        W99454  33.895  22.235   1.240
27729W        W99455  11.646  31.414   3.790
27730W        W99456  33.944  16.666  12.408
27731W        W99457  21.920  11.322   0.419
27732W        W99458  25.650  25.672   4.370
27733W        W99459   9.679  34.608   2.345
27734W        W99460   1.293  12.300  13.816
27735W        W99461  18.194  43.299   2.194
27736W        W99462  22.605   5.149  11.081
27737W        W99463  24.983  19.387  10.583
27738W        W99464  12.597  21.216  11.950
27739W        W99465  41.940  14.471   2.217
27740W        W99466  37.332   1.296   1.297
27741W        W99467   3.770   0.961  12.160
27742W        W99468  32.184  11.534   2.257
27743W        W99469  33.330  14.626  12.134
27744W        W99470  27.948  24.882  12.989
27745W        W99471  17.754  26.425  14.193
27746W        W99472  16.751  25.885   3.235
27747W        W99473   1.375  33.494  12.051
27748W        W99474  15.684   1.874  10.950
27749W        W99475  16.555  15.715   3.585
27750W        W99476  29.601  24.689   4.648
27751W        W99477  36.577  43.405   2.796
27752W        W99478  18.873  14.365   3.370
27753W        W99479  25.225  15.878  13.063
27754W        W99480  21.210   3.598   3.370
27755W        W99481  17.363  33.257   4.237
27756W        W99482  38.956  19.298  13.313
27757W        W99483  32.428  28.451   2.256
27758W        W99484  23.580  34.902   2.173
27759W        W99485  11.153  15.793  14.377
27760W        W99486   7.419  34.598  12.537
27761W        W99487  40.853   6.166   4.830
27762W        W99488  19.095   6.370   2.612
27763W        W99489  22.328  15.118  12.611
27764W        W99490  42.484  19.215   3.919
27765W        W99491  16.755  42.456   1.671
27766W        W99492  27.370  21.155  13.270
27767W        W99493  41.412   1.693  12.469
27768W        W99494  14.145   9.516  12.580
27769W        W99495   9.748  28.365  11.767
27770W        W99496  31.466  44.865  14.594
27771W        W99497   2.352   6.142   0.659
27772W        W99498  30.985  29.925  12.945
27773W        W99499  11.207   6.093  11.248
27774W        W99500   0.759  22.131  11.637
27775W        W99501  17.909  23.301  14.360
27776W        W99502   9.550  27.964  11.519
27777W        W99503   5.245  38.484   2.836
27778W        W99504  19.226  32.023  12.810
27779W        W99505  27.606  40.583  10.998
27780W        W99506  14.085  44.992  13.263
27781W        W99507  10.357   6.681  12.065
27782W        W99508  36.077   7.427  13.306
27783W        W99509  32.501  34.814  12.286
27784W        W99510  26.118  43.415   2.461
27785W        W99511  28.297   4.238   0.849
27786W        W99512  29.522   2.041   2.641
27787W        W99513  11.398  28.482  14.550
27788W        W99514  33.437  27.288   4.561
27789W        W99515  24.235  16.198   1.113
27790W        W99516   3.525  42.308  10.721
27791W        W99517  15.157  43.298  12.441
27792W        W99518  39.854  22.686  11.434
27793W        W99519   6.382  41.401   1.515
27794W        W99520  42.885  38.338  10.945
27795W        W99521  10.268  24.476   2.479
27796W        W99522  41.873  44.876  10.623
27797W        W99523   2.712  36.588   2.380
27798W        W99524  17.653  11.022   1.040
27799W        W99525  29.514   4.121  13.087
27800W        W99526  39.402  42.017  11.586
27801W        W99527  24.164  16.526  13.992
27802W        W99528  12.573  20.318  12.095
27803W        W99529  22.025  37.350   0.460
27804W        W99530  11.926  25.597   3.232
27805W        W99531  19.598  22.162   4.619
27806W        W99532  21.026  41.182   1.249
27807W        W99533  33.873  39.363  12.392
27808W        W99534  25.217  38.084   3.792
27809W        W99535  30.618  13.213   1.704
27810W        W99536  35.679  27.695   4.938
27811W        W99537  19.521  29.009  10.664
27812W        W99538  10.839  42.799   0.878
27813W        W99539  26.119  28.574  14.826
27814W        W99540  32.338  14.684  10.396
27815W        W99541   8.778   4.211  14.994
27816W        W99542  32.030  35.078  11.939
27817W        W99543  44.199  42.451   1.736
27818W        W99544  31.866  35.425   3.273
27819W        W99545   0.773  36.143   2.140
27820W        W99546  40.595  42.390   0.941
27821W        W99547  31.827   3.389  12.426
27822W        W99548  30.979  30.011   3.208
27823W        W99549   5.470  20.707  14.052
27824W        W99550  28.925  31.999  11.552
27825W        W99551  20.162  34.886   4.426
27826W        W99552   3.490  24.485  12.847
27827W        W99553  30.057   5.841  14.907
27828W        W99554  28.106  18.937   3.277
27829W        W99555  42.463  10.219  11.247
27830W        W99556   4.237  20.964  11.869
27831W        W99557  43.997   4.910  12.501
27832W        W99558  42.277   6.970   2.804
27833W        W99559  11.570   3.404  13.356
27834W        W99560  38.096  17.935  14.333
27835W        W99561   2.933   0.218  10.820
27836W        W99562  38.417  42.419   1.154
27837W        W99563  11.409   3.496   3.688
27838W        W99564  25.707  36.878  14.036
27839W        W99565  33.996  10.226   1.744
27840W        W99566  26.771  37.382   2.728
27841W        W99567  34.600   6.097   4.074
27842W        W99568  20.808  43.913  12.415
27843W        W99569  20.687  18.544  14.876
27844W        W99570  32.520  31.100  12.374
27845W        W99571   5.676  27.085   0.451
27846W        W99572   8.304  43.026   2.386
27847W        W99573  15.827   1.965   0.323
27848W        W99574  40.509  18.199  10.884
27849W        W99575  44.868  43.848  12.357
27850W        W99576  35.405  43.557   1.350
27851W        W99577  24.151  24.714   0.465
27852W        W99578  37.220  26.674  12.331
27853W        W99579  36.115  11.632   2.749
27854W        W99580  16.353  21.775  14.040
27855W        W99581   1.998  15.075  13.334
27856W        W99582  34.943  29.562   2.145
27857W        W99583   3.969  16.712   1.915
27858W        W99584  29.599   4.394   2.181
27859W        W99585  19.235  16.288   3.871
27860W        W99586  16.581  40.009  13.864
27861W        W99587  16.797   8.378   2.335
27862W        W99588   4.370   0.332  13.210
27863W        W99589   1.312  19.624   3.921
27864W        W99590  41.415  40.914   2.412
27865W        W99591  26.720  12.334   3.231
27866W        W99592  22.045   0.235  12.081
27867W        W99593  33.995   4.696  10.940
27868W        W99594  38.092  26.998  11.005
27869W        W99595   9.642  38.441  10.641
27870W        W99596  21.974  10.836   2.220
27871W        W99597  14.715   0.934  14.224
27872W        W99598  28.015  44.340   3.981
27873W        W99599  25.647  11.154  14.940
27874W        W99600  30.791  23.138   1.139
27875W        W99601   1.912  43.306  13.905
27876W        W99602  35.119  35.357   3.135
27877W        W99603  32.212  35.306  14.962
27878W        W99604   5.216   0.257   4.778
27879W        W99605  24.170  18.654   4.091
27880W        W99606  43.521  24.176  11.678
27881W        W99607  36.644  39.899  11.174
27882W        W99608  44.041   5.711   0.744
27883W        W99609  27.907  20.768  14.868
27884W        W99610  38.480  21.207  11.608
27885W        W99611  38.571  13.009   4.194
27886W        W99612   6.827  36.370  12.462
27887W        W99613  42.349  41.596   1.966
27888W        W99614   1.362   4.763  10.907
27889W        W99615   1.647  25.716   0.276
27890W        W99616  18.233  31.978  11.982
27891W        W99617  27.615  40.357   0.910
27892W        W99618   0.919  25.475   3.474
27893W        W99619  40.066  36.544   4.553
27894W        W99620  17.685  22.310   2.612
27895W        W99621  35.675  40.866   0.544
27896W        W99622  23.717  18.349  11.542
27897W        W99623  14.878  25.262   4.991
27898W        W99624  34.790  20.205   2.682
27899W        W99625  42.319  13.380  13.443
27900W        W99626  34.758  38.386   2.743
27901W        W99627  19.267  17.559   1.953
27902W        W99628  41.337  37.128   0.894
27903W        W99629  42.716   8.090   1.864
27904W        W99630   2.302  24.184  10.690
27905W        W99631   1.975  23.519  10.474
27906W        W99632  20.402  28.266   0.990
27907W        W99633  13.603  33.016  14.085
27908W        W99634  26.176  19.727  11.054
27909W        W99635   8.737  36.821  12.462
27910W        W99636  32.945   7.193  14.842
27911W        W99637  44.239  25.561   3.617
27912W        W99638  32.576  10.150  10.972
27913W        W99639  39.823  16.677  12.427
27914W        W99640  38.220   0.897   4.846
27915W        W99641  44.419  44.564  13.515
27916W        W99642  15.717   5.136   1.337
27917W        W99643   7.333  37.587   3.797
27918W        W99644  23.681  16.591  14.895
27919W        W99645  25.628  34.544  11.957
27920W        W99646  22.914   6.005   1.792
27921W        W99647   7.842   5.246  13.889
27922W        W99648  23.599  42.925   2.122
27923W        W99649  16.243  27.199  12.395
27924W        W99650  39.620  11.123   3.212
27925W        W99651   0.785  18.710  10.846
27926W        W99652   4.824  36.821  11.706
27927W        W99653  14.356  37.898  13.604
27928W        W99654  42.364  28.690   2.780
27929W        W99655  38.036  33.456  13.364
27930W        W99656  33.785  28.995   0.953
27931W        W99657  31.922  14.803   3.275
27932W        W99658   8.431  16.322  12.036
27933W        W99659  28.550  23.733  14.342
27934W        W99660  44.343  17.704   3.660
27935W        W99661  30.655  34.337  12.034
27936W        W99662  40.537  36.087  11.807
27937W        W99663   3.761  16.054   5.510
27938W        W99664  42.965   2.439   4.550
27939W        W99665   8.295  39.365   2.302
27940W        W99666  19.003  41.225  12.521
27941W        W99667  17.588  42.533   0.866
27942W        W99668  43.437  31.402   2.325
27943W        W99669  34.852  17.649   0.524
27944W        W99670  14.592   3.905  12.517
27945W        W99671  10.689  40.502  12.895
27946W        W99672  32.820   9.453  11.505
27947W        W99673   3.242  30.967   1.325
27948W        W99674  44.663  34.034   0.914
27949W        W99675  30.309  23.015   2.213
27950W        W99676   8.396  22.925   9.967
27951W        W99677  13.344  23.559   4.958
27952W        W99678  41.895  10.576   3.151
27953W        W99679  42.862   9.816   1.295
27954W        W99680  36.882  11.676  12.543
27955W        W99681  15.312  19.695   2.500
27956W        W99682   2.799  12.148   3.918
27957W        W99683   3.143  29.327   3.741
27958W        W99684  36.655   4.374  13.333
27959W        W99685  24.389   7.171  11.122
27960W        W99686  12.775  25.203   2.824
27961W        W99687   8.749  20.414  14.951
27962W        W99688  39.912  34.053  14.270
27963W        W99689  31.530  18.217   1.900
27964W        W99690   2.841  21.759  10.767
27965W        W99691  21.585  41.979  10.536
27966W        W99692  15.698  25.845   4.864
27967W        W99693  14.763  21.178   2.318
27968W        W99694  22.660   4.253  10.888
27969W        W99695   6.104  22.187  11.188
27970W        W99696  25.926  22.005  11.233
27971W        W99697   5.490  30.026  12.917
27972W        W99698  23.318  31.656   1.784
27973W        W99699  20.058  17.212  13.945
27974W        W99700   9.424  34.310   5.074
27975W        W99701  24.073   8.918   4.061
27976W        W99702   3.344  42.366   4.936
27977W        W99703   4.786  19.732  11.613
27978W        W99704  20.038  22.481   2.978
27979W        W99705   7.249  14.313   3.587
27980W        W99706  43.669  21.715  10.829
27981W        W99707   4.174  17.701   2.840
27982W        W99708   4.989  28.990   2.596
27983W        W99709   7.426  22.219   0.736
27984W        W99710  40.453  41.289   4.538
27985W        W99711   1.016  43.541  13.317
27986W        W99712  30.941  40.348  12.054
27987W        W99713  35.802  28.055  12.424
27988W        W99714  17.051  15.171   1.878
27989W        W99715  19.000   9.240   3.676
27990W        W99716  14.080  25.064   3.136
27991W        W99717  39.634  28.524   1.813
27992W        W99718  35.824  17.129   2.163
27993W        W99719  34.631   8.167   4.289
27994W        W99720   0.431  21.982   0.487
27995W        W99721  21.515   8.087  11.956
27996W        W99722  25.199   4.621   3.551
27997W        W99723   0.008  35.099  11.197
27998W        W99724  25.793  35.159   4.006
27999W        W99725  27.632   4.839   2.697
28000W        W99726  24.358   8.241   2.870
28001W        W99727  19.100   4.736   0.009
28002W        W99728  30.650  42.431   1.453
28003W        W99729  22.234   5.336   1.611
28004W        W99730  24.182   8.932  11.161
28005W        W99731  18.456  35.391  12.358
28006W        W99732  32.520  27.943   3.655
28007W        W99733  19.265   6.511   0.060
28008W        W99734   1.943  12.803   2.928
28009W        W99735  42.026  30.399   1.599
28010W        W99736  38.529   3.571  13.430
28011W        W99737  19.064  30.097  11.655
28012W        W99738  35.505  16.357   2.705
28013W        W99739  15.606  31.868   4.063
28014W        W99740   9.343  12.777   0.006
28015W        W99741  24.519  17.243   4.791
28016W        W99742  41.822  38.819   3.417
28017W        W99743  13.834  43.479  14.940
28018W        W99744  14.270  17.244  11.020
28019W        W99745  24.061  17.089  12.452
28020W        W99746  27.202  29.572   4.576
28021W        W99747  30.705  28.810  13.439
28022W        W99748  30.291  22.105  11.722
28023W        W99749  15.638  15.662   4.130
28024W        W99750  29.558  26.370   1.778
28025W        W99751  40.793  44.242  13.370
28026W        W99752  10.521   3.467  11.928
28027W        W99753  21.656  32.882  11.459
28028W        W99754  38.411   2.332  14.804
28029W        W99755  36.169  20.618   4.408
28030W        W99756   2.517  28.562   0.896
28031W        W99757   5.820  28.798   2.258
28032W        W99758  34.746   2.359  14.739
28033W        W99759  44.229  30.000  12.131
28034W        W99760  29.451  42.136   0.713
28035W        W99761   3.601  22.632   4.245
28036W        W99762   7.890  41.365  12.960
28037W        W99763  33.615  44.901  10.525
28038W        W99764  34.015  18.161  10.621
28039W        W99765  34.065  19.689  12.611
28040W        W99766  22.162  30.834   3.205
28041W        W99767  14.887  35.395   4.640
28042W        W99768   3.028   4.239  12.011
28043W        W99769  25.008   4.175  13.309
28044W        W99770  26.607  10.866  10.271
28045W        W99771  10.900  21.002   4.373
28046W        W99772   8.849  18.546   1.882
28047W        W99773  24.296  38.430  11.183
28048W        W99774  29.052  30.815  10.983
28049W        W99775   2.958  33.435   0.051
28050W        W99776  17.000   9.449  12.165
28051W        W99777  14.408  27.431  13.001
28052W        W99778  19.848  23.639   0.209
28053W        W99779  18.805  14.630   4.166
28054W        W99780  41.964   9.147  11.280
28055W        W99781  20.229  13.199  12.951
28056W        W99782  41.103  29.725  11.571
28057W        W99783  30.093   9.316   1.962
28058W        W99784   2.872  25.148   3.053
28059W        W99785  31.609  25.490   2.640
28060W        W99786   1.678  29.850   5.155
28061W        W99787  17.718  38.658   5.063
28062W        W99788  25.122  32.417   1.349
28063W        W99789  39.801   9.293   3.791
28064W        W99790  20.161  37.833   1.883
28065W        W99791  30.568  40.942  11.355
28066W        W99792  10.798   1.674  14.040
28067W        W99793   8.377  14.180   3.427
28068W        W99794  32.003  23.707   2.464
28069W        W99795   9.096  43.371  13.547
28070W        W99796  28.959  42.528   1.331
28071W        W99797  44.708   6.686   0.671
28072W        W99798  21.590  34.653  13.731
28073W        W99799   4.169  14.330  11.499
28074W        W99800  19.986  16.757   4.294
28075W        W99801   2.438  33.418   0.715
28076W        W99802  26.396   4.793   1.033
28077W        W99803  24.733   3.456  12.074
28078W        W99804  28.091  27.564  12.271
28079W        W99805  29.216  14.817   1.937
28080W        W99806   5.561  32.282   4.521
28081W        W99807   3.667  14.642  13.795
28082W        W99808   3.433   1.217  13.308
28083W        W99809  44.749  27.766  13.463
28084W        W99810  42.131  17.804  13.438
28085W        W99811   9.257   8.636   2.116
28086W        W99812  32.120  41.176  11.937
28087W        W99813  28.223  41.017  11.615
28088W        W99814  10.092  10.757  10.877
28089W        W99815  39.584  25.691   3.801
28090W        W99816  22.037  17.843   2.609
28091W        W99817  22.967  32.139  13.448
28092W        W99818  36.610  27.461  14.848
28093W        W99819   8.825  23.528  10.735
28094W        W99820  43.368   4.855  13.973
28095W        W99821  16.298  31.411   0.013
28096W        W99822  27.946   4.049  14.675
28097W        W99823  39.495   2.179  13.818
28098W        W99824  35.425  15.115   0.456
28099W        W99825  18.708  25.443   3.230
28100W        W99826  43.940  21.495   1.682
28101W        W99827  13.339  33.410   1.050
28102W        W99828  34.344   6.231   4.518
28103W        W99829  27.685  31.058   0.826
28104W        W99830  14.020  38.872  11.188
28105W        W99831  14.252  17.481   5.093
28106W        W99832   0.351  10.839   0.531
28107W        W99833   6.672  33.796   4.210
28108W        W99834   8.845  15.088   3.314
28109W        W99835  17.647  44.568   2.775
28110W        W99836   4.816   0.300   2.162
28111W        W99837   4.893   7.417  12.980
28112W        W99838  19.077  25.024   0.184
28113W        W99839  27.047   6.406  14.472
28114W        W99840  35.408  21.470   2.335
28115W        W99841   7.679   1.338   4.626
28116W        W99842  41.557  25.176  14.162
28117W        W99843  40.828   1.150   3.396
28118W        W99844  29.982  17.289   0.574
28119W        W99845  29.685  34.374  14.007
28120W        W99846  35.380   2.865   4.249
28121W        W99847   4.935  35.636  13.546
28122W        W99848  24.496  37.403  13.770
28123W        W99849  16.544  31.983  10.268
28124W        W99850  11.432  14.658  14.464
28125W        W99851  40.026  36.003  12.439
28126W        W99852  20.323   6.285   4.643
28127W        W99853  12.647  14.726  14.440
28128W        W99854   0.483   4.152   2.656
28129W        W99855   7.299  26.265  11.121
28130W        W99856  11.430  35.714  11.755
28131W        W99857  30.632  28.563   1.924
28132W        W99858  40.034  40.904  13.084
28133W        W99859  34.973   1.844  14.274
28134W        W99860   3.023  35.358   1.939
28135W        W99861  10.614  16.527  14.312
28136W        W99862  30.220  17.073   4.499
28137W        W99863  15.588  24.557   3.861
28138W        W99864  30.337   1.821   1.491
28139W        W99865  29.671  11.637   0.926
28140W        W99866  44.653  29.354   3.691
28141W        W99867  35.500  39.544  13.465
28142W        W99868  30.359  34.324   3.816
28143W        W99869  16.736   0.024   2.743
28144W        W99870  28.109   9.883  12.958
28145W        W99871  38.576  20.595   2.263
28146W        W99872   2.677  22.372  12.510
28147W        W99873  35.642  36.349   0.246
28148W        W99874  20.169  25.613  14.451
28149W        W99875  41.613  37.982  11.199
28150W        W99876  37.845   7.245   2.606
28151W        W99877  35.346  32.473   1.689
28152W        W99878  39.055  10.892   4.612
28153W        W99879  13.948   4.898   0.301
28154W        W99880   8.810   9.903   4.355
28155W        W99881  12.566  15.221   0.024
28156W        W99882  40.132  21.511  12.095
28157W        W99883  29.052  12.364  14.362
28158W        W99884  11.820  40.427   3.353
28159W        W99885   9.249  37.054  14.969
28160W        W99886  25.323  26.677  12.726
28161W        W99887  24.486  42.357   0.838
28162W        W99888  39.818  25.290   1.472
28163W        W99889  42.335  13.870   1.916
28164W        W99890  28.822  25.634   4.856
28165W        W99891   6.453  14.640  11.108
28166W        W99892  12.852   0.290  10.672
28167W        W99893  27.979  30.530  12.135
28168W        W99894  34.168  20.099   0.252
28169W        W99895  10.940  17.783   1.858
28170W        W99896  43.714   1.403   2.624
28171W        W99897  14.692  23.085   4.657
28172W        W99898   9.885  35.607   3.185
28173W        W99899  13.792  21.984   3.623
28174W        W99900   4.773  31.579   4.561
28175W        W99901   6.822  10.239   0.420
28176W        W99902   7.606  27.046   3.788
28177W        W99903  28.667  16.552   1.851
28178W        W99904  37.026  44.335  13.355
28179W        W99905   5.991  39.043   1.871
28180W        W99906   3.785  32.146   3.079
28181W        W99907  37.758  19.206   0.993
28182W        W99908  40.970  43.501   3.654
28183W        W99909   4.201  22.290   3.153
28184W        W99910  43.807  36.992  10.744
28185W        W99911   7.889  14.888   1.209
28186W        W99912  41.029   1.335   0.263
28187W        W99913   5.715  16.567  14.987
28188W        W99914  23.577  38.649  12.042
28189W        W99915  22.253  15.118   1.431
28190W        W99916  11.144  33.372  12.386
28191W        W99917  32.918  39.174   0.932
28192W        W99918  42.063  32.330  13.009
28193W        W99919  40.371  27.579   4.136
28194W        W99920  37.007  27.417   1.955
28195W        W99921   6.107  41.831  13.749
28196W        W99922  35.782   6.168  13.126
28197W        W99923  23.303   3.933  13.626
28198W        W99924   3.878   4.916  14.457
28199W        W99925  41.189  43.453  12.158
28200W        W99926  32.212  30.432  12.652
28201W        W99927   5.612   7.249  12.100
28202W        W99928  13.293  26.831   3.656
28203W        W99929  25.183  38.713   3.127
28204W        W99930  17.510  23.528   3.695
28205W        W99931  30.519  17.417   2.312
28206W        W99932  13.843  41.303  11.374
28207W        W99933   6.902  22.491  12.460
28208W        W99934  12.314   1.827   0.432
28209W        W99935  10.249  14.459   4.497
28210W        W99936   7.999  13.136   3.099
28211W        W99937   8.888  16.268   3.421
28212W        W99938  29.620   3.724  14.837
28213W        W99939  38.844  32.518  12.038
28214W        W99940  40.572   2.297   0.245
28215W        W99941  20.574  10.798  11.503
28216W        W99942   9.193  14.483  10.684
28217W        W99943  37.267   3.761  14.819
28218W        W99944  12.816  41.079   3.933
28219W        W99945  36.945  31.462   2.670
28220W        W99946  13.637  28.153  13.775
28221W        W99947  20.580  22.882  12.890
28222W        W99948  36.004  24.207   1.389
28223W        W99949  11.675   3.206   2.257
28224W        W99950  26.594  39.366   0.280
28225W        W99951  27.154  33.364  12.986
28226W        W99952  37.354  42.841   4.055
28227W        W99953  43.946  26.147  13.109
28228W        W99954  17.348  17.757  14.557
28229W        W99955   2.378  11.611   0.530
28230W        W99956  10.399  16.803  10.564
28231W        W99957  43.923  42.329  13.535
28232W        W99958  44.888  44.290   0.411
28233W        W99959  25.590  33.154  12.002
28234W        W99960  42.789  10.309   0.512
28235W        W99961   9.886  11.055  10.496
28236W        W99962  43.959  38.307  11.086
28237W        W99963   9.642  25.248   3.318
28238W        W99964  10.326  23.768  14.407
28239W        W99965  12.596   7.207  11.121
28240W        W99966  40.455  36.282  14.353
28241W        W99967  36.884  44.267   3.591
28242W        W99968  33.391  21.725   2.728
28243W        W99969  19.289   0.094  14.280
28244W        W99970  17.171  23.738  12.800
28245W        W99971   3.931  36.239  11.267
28246W        W99972  17.745   5.271  13.336
28247W        W99973  40.526  11.243  14.684
28248W        W99974  35.213  10.732  11.935
28249W        W99975  12.853  19.079  14.999
28250W        W99976   8.175   9.252   0.361
28251W        W99977  12.122  32.005   2.909
28252W        W99978   2.037   4.342   0.868
28253W        W99979  10.724  37.635   2.770
28254W        W99980   1.412  41.355  12.894
28255W        W99981   2.447  38.344   3.583
28256W        W99982  24.059  36.199  13.386
28257W        W99983  27.936  40.534  12.467
28258W        W99984  10.425   5.237   2.235
28259W        W99985  15.533  21.177  13.386
28260W        W99986  17.278  34.158  11.523
28261W        W99987  40.725   4.749  14.258
28262W        W99988  36.075  29.927  11.466
28263W        W99989  10.868  17.557   0.815
28264W        W99990  18.082  33.345   1.980
28265W        W99991   4.726   9.192  13.316
28266W        W99992  25.163  34.967  14.833
28267W        W99993  34.158  22.192  11.947
28268W        W99994   7.738  10.362  12.431
28269W        W99995   8.451  26.807   0.901
28270W        W99996  33.944  29.978  11.674
28271W        W99997  44.750  18.527   4.627
28272W        W99998  38.506  37.020   1.504
28273W        W99999  26.490  14.746  12.098
28274W        W    0   6.784  38.788  13.524
28275W        W    1   8.781  26.063  10.013
28276W        W    2  38.046  44.313  10.204
28277W        W    3   0.888  22.529   1.398
28278W        W    4   9.860  25.538  13.042
28279W        W    5  33.040   9.060   3.064
28280W        W    6  42.209  25.372   2.107
28281W        W    7  29.667  12.825  12.527
28282W        W    8  42.053  22.208   1.246
28283W        W    9  31.530  32.223  12.005
28284W        W   10  43.423   9.294   3.742
28285W        W   11  15.781   6.935  14.488
28286W        W   12  28.943   3.416   0.878
28287W        W   13   0.333  42.331   3.824
28288W        W   14  11.419   0.278  10.633
28289W        W   15  24.110  29.407  12.952
28290W        W   16   0.313  27.519  10.698
28291W        W   17  29.664  11.800  14.853
28292W        W   18  26.970  41.355   4.848
28293W        W   19   3.136  30.095   2.729
28294W        W   20   5.259  36.432   0.238
28295W        W   21  10.601  16.333  10.549
28296W        W   22   7.547  38.927  11.094
28297W        W   23   5.511  41.402  14.310
28298W        W   24  26.096   4.290   2.153
28299W        W   25   9.131  19.591  11.517
28300W        W   26  11.201   9.249   1.618
28301W        W   27  18.121   4.847  11.711
28302W        W   28  29.371  11.746  13.520
28303W        W   29   6.415  39.709  12.537
28304W        W   30  33.392  42.364  14.918
28305W        W   31  41.965  16.174  11.451
28306W        W   32  30.907   5.699   2.020
28307W        W   33  35.462   9.926   4.555
28308W        W   34  37.648  23.146  10.744
28309W        W   35  28.022  18.596   5.004
28310W        W   36  33.293  34.674  10.555
28311W        W   37   7.931  40.251   9.989
28312W        W   38   4.162  20.309  12.401
28313W        W   39  28.395  29.424  14.872
28314W        W   40   3.395  15.075  13.447
28315W        W   41   4.673  25.305   2.140
28316W        W   42  25.104  24.615  11.599
28317W        W   43  17.383  11.604   2.659
28318W        W   44  27.451  35.546  14.910
28319W        W   45  26.679  24.409   2.658
28320W        W   46  26.521  28.215  10.712
28321W        W   47   9.415  43.887  10.609
28322W        W   48   0.742  38.060  12.954
28323W        W   49  43.197  32.530  14.878
28324W        W   50   0.983  11.801   3.050
28325W        W   51  22.787  31.637  11.224
28326W        W   52   3.275  34.496  14.560
28327W        W   53  23.347  37.946  12.460
28328W        W   54  29.904  39.254  13.048
28329W        W   55  30.141  41.624  12.460
28330W        W   56  44.640  18.817  12.132
28331W        W   57  44.955   9.657   4.744
28332W        W   58  35.310  14.252   2.000
28333W        W   59  38.451  19.204  14.726
28334W        W   60  25.428  27.163   3.946
28335W        W   61  42.796  32.499   1.837
28336W        W   62  32.396  25.616  14.845
28337W        W   63  13.200  36.192  11.695
28338W        W   64  21.060  34.673  13.784
28339W        W   65  42.466  14.374  10.693
28340W        W   66  32.643  17.357   0.757
28341W        W   67  24.765  26.652   0.306
28342W        W   68  10.360   4.686   2.186
28343W        W   69  26.039   1.853   2.850
28344W        W   70  10.223  30.604   5.240
28345W        W   71  26.637  30.059   1.987
28346W        W   72  33.875  10.078   0.166
28347W        W   73  33.438  37.941  11.167
28348W        W   74  32.888  37.666  12.915
28349W        W   75  27.981   5.285   0.302
28350W        W   76  26.449  33.721   1.951
28351W        W   77   5.105  30.548   1.306
28352W        W   78   3.525  24.433   2.347
28353W        W   79  24.319   1.477   4.259
28354W        W   80  44.871  22.469   3.227
28355W        W   81  18.083  27.685   2.143
28356W        W   82  42.415  28.856  13.112
28357W        W   83   4.916  22.419   1.289
28358W        W   84  37.489  16.751   0.426
28359W        W   85  29.599  17.787  13.072
28360W        W   86  38.892  30.954  12.037
28361W        W   87  13.897  26.537  14.448
28362W        W   88   1.174  29.807  12.958
28363W        W   89  22.949   5.902   3.281
28364W        W   90  41.279   8.707  12.013
28365W        W   91  35.987  40.058   3.363
28366W        W   92  38.595  42.494  13.292
28367W        W   93  27.646   0.101   9.881
28368W        W   94  29.339  35.349   2.468
28369W        W   95  12.883  35.518   3.569
28370W        W   96  15.692  36.686   4.094
28371W        W   97   5.438  25.467  13.313
28372W        W   98  23.690  20.516  13.074
28373W        W   99  42.919  33.948   0.432
28374W        W  100  30.035   4.884   2.810
28375W        W  101   5.811  41.006   4.863
28376W        W  102  37.149  30.161  13.125
28377W        W  103  44.391  36.410   0.249
28378W        W  104  15.676  36.076  11.590
28379W        W  105  29.890  33.037   2.243
28380W        W  106  36.375  10.445  12.599
28381W        W  107  18.159  14.109   0.587
28382W        W  108   5.165  26.948  14.339
28383W        W  109  12.173  27.142   0.233
28384W        W  110   1.902  24.150  13.913
28385W        W  111   5.877  44.056   4.651
28386W        W  112  14.198   0.669   1.466
28387W        W  113  44.724  12.709  12.619
28388W        W  114  35.975  18.762  14.651
28389W        W  115  39.425  25.201  13.385
28390W        W  116  33.178  13.119   4.990
28391W        W  117  32.043  10.300   1.777
28392W        W  118  38.924  28.125   0.492
28393W        W  119   9.005  12.760  14.275
28394W        W  120  10.982   9.790  12.899
28395W        W  121  40.127  42.385  12.985
28396W        W  122  22.039  20.516  12.042
28397W        W  123  44.232  28.385   3.711
28398W        W  124  21.095  22.323   1.767
28399W        W  125  14.716  39.791  13.024
28400W        W  126   3.560  41.791   1.233
28401W        W  127  35.948  33.581   3.520
28402W        W  128   7.476   0.767   1.219
28403W        W  129   8.908  30.473  11.545
28404W        W  130  42.835  12.087  11.026
28405W        W  131   6.851  11.854   3.181
28406W        W  132  19.722  34.662   5.053
28407W        W  133  12.209  26.548  12.479
28408W        W  134  14.060  28.837   2.905
28409W        W  135   4.099  27.965  14.470
28410W        W  136  41.244  12.665   2.531
28411W        W  137  33.215  13.140  14.090
28412W        W  138  31.856  26.372   4.124
28413W        W  139  16.529  15.311  14.946
28414W        W  140  29.713  34.070  12.664
28415W        W  141  10.731  30.558  13.009
28416W        W  142  29.919  24.962  13.015
28417W        W  143   8.722  22.993  10.770
28418W        W  144  17.158  11.802   2.193
28419W        W  145  39.354  44.236   2.769
28420W        W  146  21.224   6.637   0.151
28421W        W  147  32.157  19.091   4.288
28422W        W  148   1.854   7.068   2.279
28423W        W  149   2.353   1.912   4.121
28424W        W  150  35.777  35.442   4.937
28425W        W  151  19.307  43.989   0.325
28426W        W  152  27.404   8.120   0.318
28427W        W  153  15.803  25.152  14.566
28428W        W  154   4.261  31.125  13.499
28429W        W  155  19.790  40.015   4.159
28430W        W  156  36.930  19.723  12.065
28431W        W  157   1.801  29.979   3.090
28432W        W  158  15.807  39.515  13.372
28433W        W  159   7.225  41.819   3.188
28434W        W  160  44.081  33.142   4.120
28435W        W  161  26.442  31.893  12.371
28436W        W  162  21.955  41.607   4.546
28437W        W  163  42.937  12.574  11.950
28438W        W  164   9.370   1.474  12.032
28439W        W  165  29.352  32.056   0.290
28440W        W  166  43.541  23.615   3.702
28441W        W  167  25.723  37.424   4.180
28442W        W  168   0.023   8.331  10.637
28443W        W  169   6.737  40.024   4.830
28444W        W  170  14.149   5.635   2.425
28445W        W  171  19.552  32.845   3.762
28446W        W  172  41.745   4.837  11.443
28447W        W  173  33.165  37.906  13.335
28448W        W  174  28.482   8.120   2.425
28449W        W  175  19.601   1.655   4.151
28450W        W  176  17.550  11.592   3.669
28451W        W  177   8.211  25.434   1.948
28452W        W  178  38.017  42.913   3.168
28453W        W  179  10.529  12.560   1.139
28454W        W  180  39.841  34.956  14.525
28455W        W  181  25.947   1.989   0.420
28456W        W  182  12.230  28.076   3.780
28457W        W  183  39.295  31.915  11.004
28458W        W  184  34.907  23.413  11.060
28459W        W  185  44.712   3.154   0.254
28460W        W  186   0.912  29.944   3.645
28461W        W  187   2.321  22.543   2.920
28462W        W  188  31.947  18.998  11.969
28463W        W  189   5.632  43.319   3.670
28464W        W  190  36.047  19.517   2.801
28465W        W  191   9.356  16.245   3.790
28466W        W  192  24.053  40.978  11.426
28467W        W  193  11.730   7.254  12.913
28468W        W  194  27.611  26.813  12.526
28469W        W  195  32.826  30.508  11.556
28470W        W  196  26.671  43.958   0.006
28471W        W  197   0.799  31.759   1.691
28472W        W  198  23.545  23.721  12.945
28473W        W  199  20.274  27.109   1.509
28474W        W  200  44.415  26.144  12.848
28475W        W  201  27.952  10.735  13.431
28476W        W  202  23.432  36.029   1.148
28477W        W  203  18.183  24.493   2.418
28478W        W  204  37.445   6.178  11.642
28479W        W  205  34.008  19.387   1.902
28480W        W  206  26.221   4.054   3.170
28481W        W  207  34.863  25.133   5.205
28482W        W  208  22.426  38.961   0.473
28483W        W  209  33.503   3.259   1.478
28484W        W  210  18.705  34.747  14.332
28485W        W  211   3.435  34.252   4.208
28486W        W  212  19.502  31.437  14.456
28487W        W  213  41.220  24.831  14.882
28488W        W  214  20.238  17.982   2.743
28489W        W  215  30.626  18.305   4.252
28490W        W  216  41.411  38.441  13.798
28491W        W  217  42.023  19.468  14.847
28492W        W  218  20.209  16.337  13.336
28493W        W  219  30.592   7.345   0.364
28494W        W  220  16.276  13.093   4.620
28495W        W  221  44.048  22.529   3.335
28496W        W  222   0.287  12.838   0.778
28497W        W  223  44.511   8.487  14.426
28498W        W  224  26.600   1.515  13.548
28499W        W  225  10.106  38.061  12.978
28500W        W  226  12.752  16.298   1.604
28501W        W  227  29.009  28.820  14.702
28502W        W  228   5.532  38.308   1.904
28503W        W  229   8.227  24.884  11.598
28504W        W  230  35.009  16.680   4.243
28505W        W  231  10.304  26.246   4.073
28506W        W  232  12.112   4.152   1.058
28507W        W  233   6.257   2.387   3.410
28508W        W  234   8.275  43.376  13.617
28509W        W  235   1.758  31.664   0.986
28510W        W  236  26.573  44.957  14.458
28511W        W  237  18.081  36.681   2.142
28512W        W  238  37.850  27.158  10.592
28513W        W  239  30.970   6.622  13.009
28514W        W  240  20.537  40.923   1.420
28515W        W  241   3.877  18.188  14.884
28516W        W  242  33.728  37.617  12.593
28517W        W  243  40.301  36.791  14.295
28518W        W  244  33.600  16.239   4.145
28519W        W  245  12.141  40.550  14.132
28520W        W  246  18.827  16.119   1.805
28521W        W  247  21.025  19.814   3.367
28522W        W  248   1.394  29.388   1.676
28523W        W  249  39.825  19.001  14.900
28524W        W  250  26.248   3.387   4.665
28525W        W  251  32.963   2.345  11.587
28526W        W  252  43.589  33.301   4.069
28527W        W  253   9.653  12.927   3.086
28528W        W  254  27.483   5.333  13.377
28529W        W  255  39.879  37.995   4.632
28530W        W  256  28.535  25.695   4.197
28531W        W  257  25.060  11.191  11.867
28532W        W  258  42.208   6.779   1.157
28533W        W  259   1.429  17.839   2.455
28534W        W  260  20.185  27.534   1.247
28535W        W  261  24.658  19.835   1.357
28536W        W  262  11.437   7.682  12.278
28537W        W  263  44.823  34.377  13.719
28538W        W  264  20.681  38.017   4.653
28539W        W  265  19.295  30.751  14.831
28540W        W  266   9.318  22.587   3.624
28541W        W  267   7.684  22.718  14.724
28542W        W  268  15.228  13.402   2.870
28543W        W  269  21.205  34.152   0.225
28544W        W  270  12.772  35.978  12.003
28545W        W  271  26.118   5.237  13.610
28546W        W  272  42.617  25.956   1.423
28547W        W  273  41.326   1.274   2.069
28548W        W  274  43.779  37.172   2.777
28549W        W  275   5.507  36.187   3.796
28550W        W  276   2.853  11.684  14.817
28551W        W  277  27.677   7.787   4.800
28552W        W  278  27.518  35.429   2.198
28553W        W  279  26.503   3.907   2.767
28554W        W  280  35.506  31.059   4.220
28555W        W  281  38.576  38.145  14.937
28556W        W  282  24.513  30.390   1.663
28557W        W  283  21.404  16.863  12.452
28558W        W  284  35.589  30.515  10.955
28559W        W  285  34.051  28.628  10.560
28560W        W  286   0.359  29.038  10.353
28561W        W  287  13.758  18.021   4.703
28562W        W  288  35.687  28.050  11.030
28563W        W  289  35.399  28.962   3.201
28564W        W  290  41.466   5.817  12.602
28565W        W  291  41.251   6.906   1.326
28566W        W  292   2.459  44.948   4.381
28567W        W  293  38.009  13.690   1.692
28568W        W  294  19.015   7.852  13.170
28569W        W  295  33.074  19.717   0.586
28570W        W  296  37.505   8.892   2.187
28571W        W  297  39.585  22.170  11.486
28572W        W  298   6.852   2.890   4.079
28573W        W  299   0.712  41.722   2.711
28574W        W  300   7.864  32.793   1.418
28575W        W  301  10.790  32.832  13.484
28576W        W  302  22.687  31.327   0.713
28577W        W  303   0.483  37.143   0.682
28578W        W  304  37.117  12.313   3.291
28579W        W  305  43.443  22.599   1.224
28580W        W  306   6.165  14.910   2.869
28581W        W  307  43.950  12.804  13.846
28582W        W  308   1.191  22.936   4.125
28583W        W  309   4.876  26.800  11.981
28584W        W  310   0.251  24.988   5.089
28585W        W  311  17.309  10.809  12.426
28586W        W  312  21.003  15.310   3.213
28587W        W  313  16.700  32.332  10.694
28588W        W  314  25.144  38.410   2.152
28589W        W  315  21.439  25.078   3.065
28590W        W  316   3.337  22.647   3.633
28591W        W  317  44.230   9.608   1.626
28592W        W  318  33.358  24.556   2.146
28593W        W  319  34.192  32.902  10.985
28594W        W  320  40.853  12.815  11.882
28595W        W  321   0.741  16.991  10.505
28596W        W  322  12.749  32.918   4.196
28597W        W  323  33.908  16.295  13.354
28598W        W  324   8.224  26.022   4.227
28599W        W  325  13.358  38.577  11.081
28600W        W  326  29.867   8.960   0.796
28601W        W  327  18.297  22.674   4.469
28602W        W  328  42.784   4.946  11.632
28603W        W  329  24.926  20.289   1.919
28604W        W  330  39.206  19.620  14.064
28605W        W  331   3.009  15.874   1.265
28606W        W  332  21.479   0.757  14.788
28607W        W  333  23.988  14.810   1.275
28608W        W  334  21.534  12.730  12.916
28609W        W  335  31.612   7.934   4.166
28610W        W  336  33.353  20.690   4.944
28611W        W  337  42.118  33.709  13.960
28612W        W  338  19.176  39.445   1.972
28613W        W  339  35.830  15.894  12.380
28614W        W  340  17.551  11.621  10.526
28615W        W  341  24.420   1.924   1.731
28616W        W  342  30.216  25.078  11.411
28617W        W  343   4.798  14.092  13.679
28618W        W  344   3.693   8.234  14.107
28619W        W  345   3.313  35.034  12.993
28620W        W  346   4.868  30.466   4.678
28621W        W  347  24.636  18.300   3.675
28622W        W  348  44.853   9.827  11.669
28623W        W  349  11.292  19.803  10.998
28624W        W  350  42.299  44.886   3.833
28625W        W  351  14.054   2.881   4.616
28626W        W  352   2.446  39.153  11.467
28627W        W  353  17.571   3.391  14.328
28628W        W  354  24.773  36.547   2.397
28629W        W  355  14.273  25.263   3.578
28630W        W  356  40.203  26.174  14.953
28631W        W  357  34.307  35.509   0.222
28632W        W  358  42.887  19.755  14.315
28633W        W  359  33.523   1.515   1.842
28634W        W  360  30.588  19.072  10.695
28635W        W  361   0.350   5.649   1.369
28636W        W  362  37.734  13.221  14.841
28637W        W  363  33.350  20.329   1.322
28638W        W  364   6.916  37.541  14.657
28639W        W  365  40.816   0.078  12.056
28640W        W  366   4.256  40.984   0.684
28641W        W  367   8.415  28.632   2.393
28642W        W  368  28.624   6.873   4.730
28643W        W  369  21.669   2.485   0.291
28644W        W  370  25.888  25.048   2.349
28645W        W  371  33.186  17.655   4.728
28646W        W  372  31.821  25.972   2.640
28647W        W  373  24.834  43.823   0.897
28648W        W  374  28.181  19.061   2.308
28649W        W  375   7.816  27.941   2.274
28650W        W  376   0.367  19.863   3.679
28651W        W  377  36.349  10.261  13.109
28652W        W  378  18.127  23.705   3.074
28653W        W  379  32.505  39.278  11.543
28654W        W  380  12.765  39.525  11.541
28655W        W  381  40.415  28.191  10.540
28656W        W  382   4.872  10.732   2.332
28657W        W  383  44.816  17.144  13.657
28658W        W  384  41.675   6.151  10.961
28659W        W  385  27.975  44.218  12.674
28660W        W  386  33.799  21.433  11.983
28661W        W  387  25.150  41.326  12.836
28662W        W  388   5.690  37.882   0.644
28663W        W  389   8.926  42.315  11.443
28664W        W  390  29.418  38.367   4.091
28665W        W  391   7.264  22.621   0.390
28666W        W  392  19.658   0.050  13.110
28667W        W  393  12.590  36.632   3.293
28668W        W  394  34.333   2.234  13.828
28669W        W  395   9.859  27.465   3.601
28670W        W  396  15.815  40.377  10.638
28671W        W  397   9.335   2.810  12.330
28672W        W  398  11.339  19.620  14.743
28673W        W  399   4.018  20.302  13.450
28674W        W  400   6.293  10.934  10.159
28675W        W  401  25.654  16.514  12.411
28676W        W  402  13.294  17.495  12.869
28677W        W  403  28.653  22.587   4.896
28678W        W  404  27.899  11.330  12.998
28679W        W  405  36.896  16.026   0.357
28680W        W  406   6.321  29.394   4.622
28681W        W  407  33.077  32.881   0.940
28682W        W  408  24.089  25.004  10.887
28683W        W  409   6.921   2.875  12.931
28684W        W  410   6.401   2.010  14.397
28685W        W  411  13.810  20.009   0.723
28686W        W  412  43.128  35.782   3.713
28687W        W  413  31.655   6.012   3.696
28688W        W  414  43.998  22.692   1.034
28689W        W  415   0.474  40.175  13.892
28690W        W  416  35.859  43.264   1.457
28691W        W  417  17.193  13.855   4.070
28692W        W  418   3.784   4.694  10.960
28693W        W  419   2.289  38.847   0.909
28694W        W  420   9.032   1.382   2.710
28695W        W  421  31.468  38.229   2.831
28696W        W  422   5.837  42.588   2.353
28697W        W  423  29.532  25.462   4.243
28698W        W  424  12.808   3.017   1.340
28699W        W  425  25.995   9.387   1.882
28700W        W  426  16.031  13.733   0.766
28701W        W  427   9.296  17.258   3.463
28702W        W  428   3.242  21.124  10.494
28703W        W  429   1.918   5.853   1.855
28704W        W  430   6.232   4.356   4.677
28705W        W  431  35.978  29.585   2.167
28706W        W  432   7.850   2.901   4.839
28707W        W  433  41.881  32.121  12.552
28708W        W  434  35.002  20.762  13.603
28709W        W  435  35.765  30.151  10.565
28710W        W  436  44.329  34.487   2.154
28711W        W  437  20.632  11.096  14.800
28712W        W  438  31.581  37.341   0.021
28713W        W  439  32.819  32.493   0.481
28714W        W  440  36.747  26.158   3.015
28715W        W  441  11.167  17.847  12.484
28716W        W  442  24.655  11.639   1.279
28717W        W  443  17.112  18.195  14.711
28718W        W  444  28.677  21.586  13.994
28719W        W  445  25.976  12.230  14.250
28720W        W  446  27.725   5.355   2.847
28721W        W  447  15.622  20.539  12.959
28722W        W  448  32.538  30.312  11.933
28723W        W  449  19.308  19.568  10.672
28724W        W  450   3.684  15.750   3.069
28725W        W  451  13.078  17.336  13.498
28726W        W  452  11.920   2.427   2.698
28727W        W  453  42.727  32.148   3.672
28728W        W  454   0.374  26.340   9.987
28729W        W  455  30.412  13.999   0.563
28730W        W  456  36.253  17.563   0.869
28731W        W  457   0.975   1.319   1.368
28732W        W  458  28.387  19.558   2.751
28733W        W  459  22.597  43.595   4.236
28734W        W  460  32.432  11.183   4.508
28735W        W  461  25.972  33.044   3.081
28736W        W  462  32.994  18.659  14.606
28737W        W  463   3.194  22.604   3.110
28738W        W  464  41.441  10.330   4.616
28739W        W  465   6.155  20.143  13.796
28740W        W  466  43.974  18.556   4.845
28741W        W  467  28.630  11.391   1.694
28742W        W  468  36.294  24.667   1.921
28743W        W  469  18.743   4.163   4.187
28744W        W  470  16.691   8.205  12.972
28745W        W  471   4.705  25.870  13.000
28746W        W  472  23.498  36.490  14.110
28747W        W  473  39.069   3.244   3.686
28748W        W  474  29.113  24.911  14.344
28749W        W  475  13.416  37.470   2.320
28750W        W  476  41.497  18.224   0.419
28751W        W  477  27.594   1.278   3.224
28752W        W  478  39.145  12.747   2.265
28753W        W  479  19.067   5.493   1.258
28754W        W  480  22.118  14.657   4.644
28755W        W  481  39.839  43.370  12.336
28756W        W  482  14.006   7.632   2.251
28757W        W  483   3.746  11.369  11.533
28758W        W  484   8.613   0.969  12.113
28759W        W  485  25.036   3.217  10.042
28760W        W  486  39.111   4.462  14.916
28761W        W  487   0.778   7.183  14.500
28762W        W  488  25.283  18.217  10.967
28763W        W  489  21.980   1.735  11.898
28764W        W  490  41.845  33.127   3.684
28765W        W  491  25.209  28.445  13.281
28766W        W  492  44.566  22.295  14.596
28767W        W  493  40.537  13.131   2.167
28768W        W  494  43.935   4.751   2.361
28769W        W  495  11.709  43.862  13.398
28770W        W  496  12.309  33.032   4.559
28771W        W  497   1.407  30.880   3.643
28772W        W  498  20.167  36.437   4.648
28773W        W  499  16.346  37.337   2.121
28774W        W  500  16.085  42.968   4.656
28775W        W  501  41.361  36.979  12.616
28776W        W  502  25.470   3.323  11.192
28777W        W  503  26.725  15.553  12.914
28778W        W  504  26.218  41.334  11.019
28779W        W  505  28.070  16.374   2.686
28780W        W  506   9.356  30.985   0.837
28781W        W  507  13.861   3.812  14.586
28782W        W  508   1.720  31.002  12.951
28783W        W  509  40.404  34.414  12.627
28784W        W  510  17.664  36.293  10.798
28785W        W  511  12.681  10.431   3.854
28786W        W  512  31.722  14.208   1.203
28787W        W  513  32.639  37.759   3.276
28788W        W  514  37.047  30.750  12.186
28789W        W  515  30.936  20.118  14.741
28790W        W  516   9.120   6.379   1.753
28791W        W  517  24.015  25.948  12.044
28792W        W  518  25.190  11.601   1.203
28793W        W  519   8.862  15.942   0.459
28794W        W  520  38.595  40.860  11.999
28795W        W  521  23.022   8.270   2.152
28796W        W  522  25.148   9.847   2.346
28797W        W  523   5.337   9.923  11.767
28798W        W  524   2.798  27.509  13.499
28799W        W  525  35.889  13.758   2.250
28800W        W  526  21.112  13.048  11.033
28801W        W  527   9.154  33.680   0.717
28802W        W  528  17.662   3.709   3.266
28803W        W  529  33.593  33.905   3.647
28804W        W  530  22.054  44.567   4.866
28805W        W  531  27.401  10.144   1.351
28806W        W  532   5.701  14.381   0.943
28807W        W  533   9.857   8.102  13.464
28808W        W  534  22.678  39.315   4.758
28809W        W  535  11.682  32.954   4.203
28810W        W  536  43.788  43.539   2.491
28811W        W  537  42.508   7.162  12.306
28812W        W  538   7.995   0.027   4.546
28813W        W  539   5.280  39.045  12.983
28814W        W  540  12.417  10.406   0.282
28815W        W  541  10.718  37.327  14.013
28816W        W  542   8.620  39.857   2.341
28817W        W  543  32.100  20.252   3.557
28818W        W  544  41.543  24.774  13.845
28819W        W  545   5.154  41.957   3.953
28820W        W  546   0.757   6.276   2.136
28821W        W  547  37.506  17.326  13.430
28822W        W  548  12.032  14.740   4.599
28823W        W  549  29.487  23.142   4.479
28824W        W  550  34.136  24.218   2.263
28825W        W  551  44.458  23.982  10.541
28826W        W  552   6.783  15.478  14.763
28827W        W  553  13.316  15.166  13.354
28828W        W  554  32.204  15.910   1.275
28829W        W  555   0.515  25.084   2.265
28830W        W  556  37.339  31.585  11.010
28831W        W  557  33.202  19.109   0.815
28832W        W  558   0.455  31.487   3.228
28833W        W  559  32.676  16.221  12.992
28834W        W  560  15.788  23.265   3.669
28835W        W  561  31.938  30.669   2.653
28836W        W  562   5.703   5.858  12.120
28837W        W  563  22.144  36.100  13.370
28838W        W  564  40.804  44.251   0.357
28839W        W  565  32.994  11.876   1.272
28840W        W  566  43.377   4.894  12.458
28841W        W  567  33.235  26.984   1.383
28842W        W  568  38.620  14.852  13.724
28843W        W  569  22.853  17.434  10.923
28844W        W  570   3.448   3.224  11.411
28845W        W  571   1.858  30.132   0.786
28846W        W  572   4.951   4.499  13.579
28847W        W  573   5.276  34.673  12.399
28848W        W  574  29.604  39.089   3.805
28849W        W  575  15.989  11.377   3.302
28850W        W  576  42.153  14.656  11.838
28851W        W  577   1.619  20.981  13.996
28852W        W  578  22.240  24.079   2.713
28853W        W  579  23.646   7.661  10.723
28854W        W  580  21.658  33.438   3.861
28855W        W  581  40.945  18.101   1.395
28856W        W  582  19.962  24.622   0.820
28857W        W  583  23.579  40.590   1.687
28858W        W  584  14.825  39.069   0.891
28859W        W  585  26.852  31.398   2.419
28860W        W  586  25.482  36.939   3.282
28861W        W  587  37.848  36.574   3.049
28862W        W  588  18.705  30.866  12.890
28863W        W  589  13.985  21.644  12.586
28864W        W  590  14.701  44.850  11.865
28865W        W  591  23.144  27.543   4.126
28866W        W  592   0.498  25.775  11.116
28867W        W  593  26.180  12.680  13.467
28868W        W  594  34.011  24.733   3.395
28869W        W  595  18.240  43.853  12.443
28870W        W  596  11.884  30.435   0.625
28871W        W  597  42.041  39.111  12.871
28872W        W  598   4.517  10.877   4.598
28873W        W  599  24.490  42.205   4.095
28874W        W  600  21.038  41.537   3.757
28875W        W  601  19.759  17.845   1.293
28876W        W  602  12.371  26.372  13.847
28877W        W  603  42.044  36.608   1.429
28878W        W  604  43.441   7.711   3.692
28879W        W  605  13.281  27.659   4.799
28880W        W  606  33.467   7.865   3.908
28881W        W  607  36.269  34.745  13.544
28882W        W  608  23.148  36.306  11.990
28883W        W  609  22.177  40.423   4.713
28884W        W  610  28.149  42.914  13.027
28885W        W  611   3.968  33.964  14.899
28886W        W  612   9.356   9.838   1.703
28887W        W  613  38.041   9.631   2.236
28888W        W  614  35.798  34.620   4.156
28889W        W  615  19.764   1.768  12.587
28890W        W  616  42.018  33.957   4.306
28891W        W  617  17.373   9.727  11.384
28892W        W  618  23.057  14.739   5.420
28893W        W  619  27.232   6.890  12.872
28894W        W  620  15.630  34.474  14.691
28895W        W  621   6.436   6.889   4.571
28896W        W  622  13.163   9.446   3.872
28897W        W  623  16.239  18.559  13.074
28898W        W  624   7.184  27.454  14.821
28899W        W  625  14.878  33.606   0.308
28900W        W  626   7.369  34.300  10.933
28901W        W  627   8.661  20.037  12.134
28902W        W  628  11.655  13.568   4.137
28903W        W  629  32.320   3.844  14.338
28904W        W  630   0.384  35.503  13.472
28905W        W  631  20.582   4.390  14.097
28906W        W  632  24.993  37.310  12.655
28907W        W  633   3.375   8.250   0.042
28908W        W  634  30.822  41.047   4.077
28909W        W  635  11.015   0.778   0.797
28910W        W  636  16.070  27.160   2.874
28911W        W  637  18.580  34.364   2.342
28912W        W  638  39.086  22.125  11.385
28913W        W  639  25.138   5.582  14.990
28914W        W  640  27.351  28.752  10.215
28915W        W  641  44.110  18.536  13.498
28916W        W  642   8.291   5.719  11.481
28917W        W  643  42.574   4.122   1.932
28918W        W  644  26.677  15.304  12.462
28919W        W  645  34.032  44.233  10.065
28920W        W  646  18.338  24.503  12.880
28921W        W  647   1.923   6.288  12.403
28922W        W  648  10.922  37.095   2.131
28923W        W  649  34.836  40.489   2.687
28924W        W  650  31.572  28.772   4.171
28925W        W  651  21.461  35.280   1.066
28926W        W  652  41.043   1.791   4.340
28927W        W  653   0.912   2.721  13.994
28928W        W  654   2.713  44.180   3.199
28929W        W  655  24.470  15.288  13.077
28930W        W  656  41.445   9.623   3.920
28931W        W  657  20.913  37.890  14.456
28932W        W  658  35.182  11.202   0.435
28933W        W  659  43.791  38.270   1.302
28934W        W  660   6.417  12.745  10.058
28935W        W  661   9.879   4.131  12.963
28936W        W  662  30.418  20.972   2.400
28937W        W  663  38.745  42.008   2.969
28938W        W  664   5.732  36.292   3.342
28939W        W  665  35.362  17.617   0.407
28940W        W  666  30.831   0.813   1.799
28941W        W  667   4.923   5.683   4.999
28942W        W  668  26.957  27.718  11.678
28943W        W  669   5.955   4.422   0.068
28944W        W  670  10.197  11.481  14.770
28945W        W  671   1.069   5.169  11.950
28946W        W  672   2.001  36.889   1.977
28947W        W  673  42.449  35.655  12.609
28948W        W  674  14.219  30.669   4.103
28949W        W  675  28.348  17.002   2.398
28950W        W  676  32.623  12.133   0.873
28951W        W  677  35.005  17.540   2.488
28952W        W  678  41.425  24.303  13.600
28953W        W  679  39.142  32.747  14.283
28954W        W  680   1.301  32.348  14.749
28955W        W  681  20.240  17.323  10.756
28956W        W  682   3.742  21.974   0.867
28957W        W  683  19.151   0.456  14.946
28958W        W  684  10.568   7.304   0.785
28959W        W  685  35.811   1.284   2.130
28960W        W  686  32.538  30.240   3.187
28961W        W  687  26.063  36.793  12.904
28962W        W  688  18.790  29.404   0.773
28963W        W  689  33.467   0.263   3.274
28964W        W  690  37.656  11.361   4.341
28965W        W  691  30.112  38.798   1.345
28966W        W  692   7.872   7.160   2.253
28967W        W  693  38.404   6.627   3.053
28968W        W  694  18.068  13.761   1.017
28969W        W  695  37.601  17.059  11.637
28970W        W  696  11.497  27.114  12.021
28971W        W  697   6.825  25.608   0.825
28972W        W  698  44.368  26.965  10.432
28973W        W  699  42.546  18.688  12.523
28974W        W  700  42.038   1.852   2.799
28975W        W  701  12.277  40.272   3.518
28976W        W  702   4.314  34.479   0.811
28977W        W  703  38.539  22.204   3.815
28978W        W  704   8.616  31.043  11.251
28979W        W  705  15.261  36.299   2.933
28980W        W  706  40.110  10.877   4.102
28981W        W  707  12.847  21.980  13.475
28982W        W  708   7.818  20.694  13.039
28983W        W  709   6.327  21.739  11.612
28984W        W  710   2.837  19.020  11.933
28985W        W  711   8.037  44.789   0.772
28986W        W  712  24.808  37.872  10.484
28987W        W  713  21.052  17.650   0.255
28988W        W  714   1.148  31.946  11.431
28989W        W  715  20.116  37.923   3.374
28990W        W  716  30.140  42.304   3.616
28991W        W  717  28.522  19.975  12.480
28992W        W  718  13.346  41.264   3.183
28993W        W  719   4.249  24.700   4.542
28994W        W  720  22.577  28.936   3.835
28995W        W  721  20.107  19.257  12.603
28996W        W  722  33.340  17.346   9.825
28997W        W  723  40.498  13.817  11.148
28998W        W  724  14.089  40.787   0.922
28999W        W  725  19.023  22.082  13.856
29000W        W  726  36.050   9.830   1.203
29001W        W  727   4.455  15.136   0.325
29002W        W  728  40.153  19.622   2.366
29003W        W  729  24.078  17.118   4.535
29004W        W  730  43.360  20.652  14.567
29005W        W  731  31.991  29.974   1.334
29006W        W  732  25.511  14.656   1.615
29007W        W  733  29.883  23.596   0.735
29008W        W  734  27.976   1.841  13.040
29009W        W  735   0.121  36.105  12.898
29010W        W  736  12.390  41.093   3.663
29011W        W  737   1.192   1.768   1.531
29012W        W  738  34.118   8.189  12.986
29013W        W  739  43.502  26.959  13.628
29014W        W  740  41.291  29.443  10.687
29015W        W  741  28.264  29.899   4.426
29016W        W  742  39.879  31.631   4.442
29017W        W  743  35.174  40.005  14.057
29018W        W  744  43.341  18.989   1.193
29019W        W  745  41.940  33.905   1.244
29020W        W  746   7.089  23.627  12.952
29021W        W  747  43.023  39.107   2.774
29022W        W  748  30.451  44.934   3.622
29023W        W  749   7.459  12.924   3.744
29024W        W  750   4.874  16.839   4.827
29025W        W  751  36.876   4.423   0.409
29026W        W  752   2.104  18.496   2.843
29027W        W  753  15.768  23.736   3.852
29028W        W  754  24.107   7.957   0.858
29029W        W  755  29.279  25.614   2.312
29030W        W  756  36.447  11.242   4.453
29031W        W  757   4.340  21.252  12.312
29032W        W  758   3.382  22.858   4.891
29033W        W  759  31.966  40.024   3.802
29034W        W  760  27.943  31.157   3.297
29035W        W  761   5.814  40.924  13.059
29036W        W  762   5.486   8.708  14.478
29037W        W  763  16.943   2.393  10.394
29038W        W  764   9.289  29.735   1.765
29039W        W  765   5.429  38.809   0.203
29040W        W  766  12.686   4.681   3.721
29041W        W  767  30.415  25.019  13.883
29042W        W  768  21.686  21.695   3.747
29043W        W  769   9.855  34.301   0.049
29044W        W  770   3.437  39.986   0.331
29045W        W  771   2.325  30.888   3.704
29046W        W  772  32.385   1.841   2.211
29047W        W  773  38.821  43.386   0.307
29048W        W  774  41.825  23.174   3.814
29049W        W  775   5.114   6.471   1.979
29050W        W  776   4.302   5.633  14.549
29051W        W  777  31.972  34.522  13.437
29052W        W  778  41.319  42.427   3.681
29053W        W  779  27.385   9.917   3.233
29054W        W  780  31.191  41.977   2.596
29055W        W  781  33.475  20.963   3.136
29056W        W  782  29.621   9.240   0.449
29057W        W  783  12.754  11.118   2.692
29058W        W  784  12.417   6.053   1.762
29059W        W  785  16.044  10.152  11.641
29060W        W  786  38.510   0.470   3.883
29061W        W  787   0.826   5.683  14.344
29062W        W  788   3.141  38.395  14.533
29063W        W  789  44.718  31.925   4.276
29064W        W  790  29.661   2.891  11.068
29065W        W  791  38.482  39.357  14.470
29066W        W  792  40.324   4.465   0.900
29067W        W  793  15.165  39.613   1.641
29068W        W  794  36.798   5.813   1.360
29069W        W  795  40.418  22.265   3.259
29070W        W  796  16.721  11.658  14.807
29071W        W  797  24.209  14.244  11.621
29072W        W  798   4.051  25.640   3.309
29073W        W  799  35.935  25.954   0.944
29074W        W  800  23.046  30.662   1.751
29075W        W  801  11.196   2.807   4.225
29076W        W  802  33.040   5.489  11.558
29077W        W  803   1.329  32.627  12.037
29078W        W  804  25.618  19.725  14.448
29079W        W  805   2.003  20.691   3.094
29080W        W  806  23.075   5.158  10.645
29081W        W  807  12.376   6.319  14.865
29082W        W  808  35.450   5.005   1.305
29083W        W  809  12.669   4.962   0.435
29084W        W  810   5.325  20.115   3.384
29085W        W  811  28.544   6.463   3.237
29086W        W  812   2.235  15.348   0.302
29087W        W  813  20.506   7.725   2.690
29088W        W  814  14.524   5.358   1.245
29089W        W  815  40.570  22.554   0.814
29090W        W  816  30.935  44.248   3.803
29091W        W  817   5.211   5.736  10.473
29092W        W  818  13.651  13.176   1.792
29093W        W  819  26.586   6.360  13.523
29094W        W  820   2.727  21.485   4.656
29095W        W  821  25.086   8.135   2.319
29096W        W  822   1.458  32.408   3.688
29097W        W  823  15.322   0.723  12.838
29098W        W  824   5.732   8.304   4.752
29099W        W  825  44.348  30.599  13.038
29100W        W  826  38.518  42.922   2.006
29101W        W  827  43.215   4.721   2.792
29102W        W  828  43.856  15.626   0.493
29103W        W  829  35.640  30.096  11.247
29104W        W  830  42.190  39.550   2.705
29105W        W  831   5.191  13.582  11.961
29106W        W  832   8.639  18.582  12.911
29107W        W  833  44.781  26.693   2.800
29108W        W  834  18.010  29.920   1.142
29109W        W  835  10.229  24.479   3.845
29110W        W  836   6.560  18.898   2.686
29111W        W  837  40.196   7.314  12.393
29112W        W  838   7.775  33.532  12.006
29113W        W  839   9.004  19.092   0.235
29114W        W  840  29.673  21.052  13.358
29115W        W  841  32.899  24.662   0.337
29116W        W  842   9.763  10.822   4.571
29117W        W  843  43.334  23.469   0.800
29118W        W  844  29.596  20.796  10.710
29119W        W  845  32.328  10.695  12.860
29120W        W  846  44.449  21.412  12.618
29121W        W  847   7.676  35.135  14.857
29122W        W  848   9.818  30.102   4.162
29123W        W  849  11.301  37.016  10.906
29124W        W  850   9.851  12.821  14.937
29125W        W  851  13.042  35.901   0.499
29126W        W  852  17.840   5.221  14.843
29127W        W  853   4.657  17.536   2.857
29128W        W  854  29.765  16.609  11.833
29129W        W  855  33.357  23.071  10.637
29130W        W  856   6.421  31.782   0.296
29131W        W  857  33.877   4.091  14.821
29132W        W  858   1.507   2.214   3.069
29133W        W  859  11.225  23.782   0.703
29134W        W  860  14.660  12.621   0.326
29135W        W  861  39.070  25.226   4.211
29136W        W  862  25.980   9.598  13.487
29137W        W  863  41.431  29.115  13.889
29138W        W  864  19.175  14.790   3.832
29139W        W  865  20.327  41.920   4.031
29140W        W  866  10.369  42.908  10.726
29141W        W  867  22.570  37.355  10.703
29142W        W  868  19.682  11.143  10.649
29143W        W  869  32.407  43.953   4.614
29144W        W  870  29.629  12.102   0.708
29145W        W  871  11.704   4.842   3.578
29146W        W  872  13.277  17.208  11.709
29147W        W  873   6.686   5.650  13.041
29148W        W  874  39.841  29.178   3.276
29149W        W  875   8.200  38.028   4.089
29150W        W  876  21.574   5.397   2.372
29151W        W  877  40.940  38.564   4.650
29152W        W  878   4.122   4.695   1.019
29153W        W  879  42.127  20.286   0.300
29154W        W  880  24.054  17.808   4.037
29155W        W  881   3.552  44.355   1.986
29156W        W  882  22.625  23.771  14.330
29157W        W  883  39.166   6.896  13.471
29158W        W  884  17.520  43.780   3.174
29159W        W  885   5.779  15.689  10.009
29160W        W  886  22.007  42.959   4.121
29161W        W  887  10.860   1.264  14.740
29162W        W  888  31.245  12.346   3.152
29163W        W  889  31.451  37.443   1.436
29164W        W  890  38.445   4.383  12.763
29165W        W  891  25.242   5.693  11.038
29166W        W  892  13.011  31.855  10.223
29167W        W  893  16.743  22.098  13.898
29168W        W  894  25.217  38.836  10.604
29169W        W  895  11.067  40.391   1.910
29170W        W  896  23.975   8.728  14.286
29171W        W  897  25.494  17.554  14.901
29172W        W  898  44.437  30.213   0.335
29173W        W  899  10.828  10.085   3.923
29174W        W  900  23.525  18.819   4.680
29175W        W  901  37.746  41.927   2.694
29176W        W  902  14.016   6.797   4.806
29177W        W  903   4.011  34.464   2.308
29178W        W  904  36.522  25.485   2.320
29179W        W  905  32.105  20.215   4.072
29180W        W  906  11.833  19.788  12.044
29181W        W  907   4.750   9.760   3.861
29182W        W  908  19.089  22.154  11.537
29183W        W  909  42.086  39.046   2.755
29184W        W  910  28.327  43.288   2.873
29185W        W  911  44.283  42.322   4.295
29186W        W  912  19.624  43.062   2.740
29187W        W  913  16.160   8.593  10.992
29188W        W  914  41.304   8.342  11.226
29189W        W  915  22.061  20.020  11.887
29190W        W  916   8.403  18.706  12.066
29191W        W  917  10.898  32.632  13.960
29192W        W  918   3.327  37.950   2.935
29193W        W  919  23.092  36.606  12.409
29194W        W  920  32.665   9.006   2.721
29195W        W  921   3.264  22.939   2.258
29196W        W  922   3.064  15.170   4.966
29197W        W  923  30.367  18.792   2.172
29198W        W  924  44.911  10.106  11.204
29199W        W  925  23.911  14.770   4.207
29200W        W  926  31.962   8.613  10.774
29201W        W  927   3.592  27.789   4.168
29202W        W  928   6.847  30.594   4.592
29203W        W  929  36.067  26.029   0.237
29204W        W  930   5.456  33.541   0.295
29205W        W  931  38.501  43.683   4.294
29206W        W  932  23.993  34.382  11.221
29207W        W  933  40.889  14.039  11.694
29208W        W  934   7.777  21.084  10.256
29209W        W  935  28.550  18.673   3.894
29210W        W  936  13.543  27.663  11.455
29211W        W  937  20.011  31.104  11.541
29212W        W  938  26.780   1.794   9.970
29213W        W  939   2.852  32.429  13.373
29214W        W  940  14.907   2.012  13.419
29215W        W  941  35.774  23.247   3.680
29216W        W  942  30.606  12.258   2.753
29217W        W  943  26.271  35.842  14.875
29218W        W  944  22.701  13.336   1.275
29219W        W  945   8.249  39.106   1.643
29220W        W  946   8.344  21.346  14.768
29221W        W  947  40.123  29.635   3.290
29222W        W  948  11.868  41.363   2.337
29223W        W  949  12.512  27.563   0.207
29224W        W  950   8.307  40.948  14.895
29225W        W  951  17.550   1.326   4.272
29226W        W  952  20.691  25.525   0.508
29227W        W  953   0.129  17.580   4.055
29228W        W  954  41.808  11.156  14.361
29229W        W  955  31.494  25.971   3.049
29230W        W  956  33.560  11.145   1.298
29231W        W  957  10.105  38.675  14.848
29232W        W  958  42.656   0.459  10.524
29233W        W  959   3.340   5.815   2.405
29234W        W  960  11.428  41.458  13.017
29235W        W  961  40.500  27.710   2.674
29236W        W  962  12.686  24.489  14.405
29237W        W  963  34.811  20.351  12.878
29238W        W  964  24.069  32.145   4.752
29239W        W  965  25.102  22.986  10.698
29240W        W  966  30.933  23.945   4.115
29241W        W  967  31.492  20.422   1.873
29242W        W  968  17.179  34.118   3.680
29243W        W  969   8.496   9.773  12.402
29244W        W  970  13.863  26.679   3.348
29245W        W  971   2.216  42.347  13.879
29246W        W  972  32.244  43.545  13.871
29247W        W  973  26.596   5.717   4.249
29248W        W  974  34.864  25.526   1.285
29249W        W  975  37.825  22.553  14.048
29250W        W  976  43.857  30.423  12.851
29251W        W  977   2.008  13.805  12.183
29252W        W  978  40.768  40.022   0.853
29253W        W  979  39.336  14.023   4.608
29254W        W  980  24.969  40.963   3.895
29255W        W  981  28.537   0.797   4.535
29256W        W  982   8.678  41.995  12.025
29257W        W  983  16.705  33.269   1.728
29258W        W  984  38.585  10.206  11.443
29259W        W  985   4.908  38.040  14.415
29260W        W  986  27.662  23.498   2.736
29261W        W  987  22.388  11.682  12.293
29262W        W  988   8.784  24.211  12.574
29263W        W  989  28.956  11.506   0.282
29264W        W  990  34.962  27.739  10.590
29265W        W  991  20.093  40.446  10.364
29266W        W  992   4.381  20.398  14.306
29267W        W  993   0.990   8.480  14.955
29268W        W  994  32.431  10.204   4.407
29269W        W  995  23.083  29.738   3.194
29270W        W  996   5.093  32.004   2.834
29271W        W  997  18.346  30.526  11.584
29272W        W  998  10.436  25.879  11.724
29273W        W  999  43.083   8.855   2.524
29274W        W 1000  31.535  36.494   1.795
29275W        W 1001  27.031  28.126  13.872
29276W        W 1002  35.473   5.174  13.522
29277W        W 1003   1.436  16.082   2.396
29278W        W 1004   3.451  11.705  11.764
29279W        W 1005  37.413   0.070  11.330
29280W        W 1006  24.281  40.879   2.297
29281W        W 1007  42.471  22.084   0.439
29282W        W 1008   9.444  44.287  11.543
29283W        W 1009  25.906  42.085   0.175
29284W        W 1010  40.468   4.448  10.931
29285W        W 1011  33.174  41.631   5.392
29286W        W 1012  26.406  21.799  11.633
29287W        W 1013  11.393  31.948   0.843
29288W        W 1014  31.963  20.833  11.507
29289W        W 1015  32.797  42.783   1.271
29290W        W 1016  40.027   8.621  11.207
29291W        W 1017   2.949   3.056   1.291
29292W        W 1018   5.726  17.360   0.316
29293W        W 1019  11.908  14.350  14.292
29294W        W 1020   3.977  39.955  14.479
29295W        W 1021  33.843  15.600   0.811
29296W        W 1022  24.229  38.740   5.255
29297W        W 1023  27.708  40.031  12.531
29298W        W 1024  42.705  18.424  10.098
29299W        W 1025   2.150  42.843   0.765
29300W        W 1026  12.052  13.819  12.842
29301W        W 1027  37.549  22.322  10.304
29302W        W 1028  21.049   6.800  13.915
29303W        W 1029  24.927  44.109   0.016
29304W        W 1030  11.194  11.383  12.113
29305W        W 1031  18.117   8.414   2.667
29306W        W 1032  43.999   1.942   4.615
29307W        W 1033  35.639  26.586  11.087
29308W        W 1034  10.771  35.118  11.944
29309W        W 1035  15.724  41.799  13.879
29310W        W 1036  17.454  12.288  11.833
29311W        W 1037  17.212  32.767  13.335
29312W        W 1038  28.046  27.580  14.205
29313W        W 1039   0.424  13.662  10.528
29314W        W 1040  16.237  16.693   4.540
29315W        W 1041  16.097  16.332  12.041
29316W        W 1042  24.792  33.918  13.281
29317W        W 1043  36.079  35.544  13.305
29318W        W 1044  13.156  29.374   3.529
29319W        W 1045  11.321  35.959   1.754
29320W        W 1046  38.761  21.289   1.949
29321W        W 1047  26.884  30.970   1.226
29322W        W 1048  35.801   9.443  12.120
29323W        W 1049   0.617  15.821   0.447
29324W        W 1050   1.163  17.778   1.771
29325W        W 1051  32.070  38.418  10.668
29326W        W 1052  14.796  15.526   4.681
29327W        W 1053  17.027   9.168   0.437
29328W        W 1054   9.181  36.062  12.584
29329W        W 1055  21.236   1.409   1.245
29330W        W 1056  12.720  23.246  10.583
29331W        W 1057   1.010   8.739   2.433
29332W        W 1058  23.145   8.428  13.528
29333W        W 1059   7.814   4.385   1.997
29334W        W 1060  23.164   9.352   3.252
29335W        W 1061  31.470   6.953   2.622
29336W        W 1062  15.043  10.337  10.142
29337W        W 1063  41.039  39.574   1.530
29338W        W 1064  29.063  31.592  10.561
29339W        W 1065  32.973  16.198   0.847
29340W        W 1066  37.012  15.218  11.984
29341W        W 1067  15.744  21.715   4.025
29342W        W 1068  40.110  27.892   3.685
29343W        W 1069  22.615  38.458  13.861
29344W        W 1070  20.560  19.841   2.709
29345W        W 1071  30.366  30.145  12.087
29346W        W 1072  21.513   3.428  11.860
29347W        W 1073  34.670  25.528   2.800
29348W        W 1074  18.339  43.409  11.526
29349W        W 1075  32.501  41.123   0.924
29350W        W 1076  16.769  24.876   3.312
29351W        W 1077  43.237  29.061  14.405
29352W        W 1078   2.910  17.782   1.240
29353W        W 1079   3.819  27.105  11.526
29354W        W 1080  30.093  33.032  14.726
29355W        W 1081  27.032   9.436   4.547
29356W        W 1082  17.770  21.175  14.491
29357W        W 1083  24.657  21.428   4.518
29358W        W 1084  16.357  37.372  12.502
29359W        W 1085   1.957  43.753   4.500
29360W        W 1086  23.310  44.238  10.503
29361W        W 1087  35.993  39.383   4.151
29362W        W 1088  39.056  38.871   2.852
29363W        W 1089   7.206  28.804  13.497
29364W        W 1090  20.540  44.844   4.107
29365W        W 1091   4.652  14.201  11.633
29366W        W 1092  24.028  30.179  11.579
29367W        W 1093  37.020  24.253   4.101
29368W        W 1094   9.796   6.000  14.353
29369W        W 1095   4.298  27.394   3.045
29370W        W 1096   3.695  43.408   1.339
29371W        W 1097   2.960   6.751   1.689
29372W        W 1098  37.671   3.309   4.404
29373W        W 1099  35.361   6.226  13.394
29374W        W 1100  44.075   4.018  11.115
29375W        W 1101   2.493  21.945   4.632
29376W        W 1102  25.628   8.804  10.418
29377W        W 1103  21.087   2.334   4.692
29378W        W 1104  40.651  19.552   4.567
29379W        W 1105  36.832  27.944  14.885
29380W        W 1106  13.420  28.612  13.604
29381W        W 1107  10.251  33.688   9.863
29382W        W 1108   4.865  10.109  11.912
29383W        W 1109   4.041  10.635  12.912
29384W        W 1110  41.700  21.486   2.871
29385W        W 1111  38.171  30.502  14.837
29386W        W 1112  16.065  41.403   0.760
29387W        W 1113  41.840  20.741   0.371
29388W        W 1114  42.145  42.048   3.148
29389W        W 1115   9.706  36.546  12.601
29390W        W 1116   2.776  25.694  12.034
29391W        W 1117  14.987  10.586  11.055
29392W        W 1118  18.484  18.109  13.842
29393W        W 1119  30.510   4.442  10.669
29394W        W 1120  20.203  21.991   4.770
29395W        W 1121  41.739   9.995  11.595
29396W        W 1122  28.773  25.414   9.742
29397W        W 1123   8.003   1.968   1.327
29398W        W 1124   6.526  23.750   2.484
29399W        W 1125  42.459  41.052  13.050
29400W        W 1126  38.399  14.395  11.116
29401W        W 1127  37.983   0.608   3.121
29402W        W 1128  27.121  34.165  13.472
29403W        W 1129  15.489   6.861   4.256
29404W        W 1130   6.085  40.801  13.489
29405W        W 1131  40.644  21.230   5.128
29406W        W 1132   1.258   9.277   4.541
29407W        W 1133   4.944  20.790   4.115
29408W        W 1134   8.302   2.729   3.667
29409W        W 1135  37.100  43.921   1.331
29410W        W 1136  18.244  23.724  12.098
29411W        W 1137  16.583  13.247  10.921
29412W        W 1138  30.585  19.785   3.254
29413W        W 1139   3.965   3.331   1.141
29414W        W 1140  11.280  18.760  14.548
29415W        W 1141  33.207  30.425   0.076
29416W        W 1142  38.865  10.357  10.340
29417W        W 1143  42.419  16.222  11.195
29418W        W 1144  33.535   5.684   3.624
29419W        W 1145  15.282  25.213  10.621
29420W        W 1146  34.695  33.186   2.909
29421W        W 1147  41.990  17.027  11.760
29422W        W 1148  44.854  44.817   4.584
29423W        W 1149  20.520  28.461  11.228
29424W        W 1150  14.071  37.077  13.375
29425W        W 1151  40.158   3.878  14.493
29426W        W 1152  30.998  44.982  10.646
29427W        W 1153  33.495   3.453  14.223
29428W        W 1154  10.679   8.186   4.057
29429W        W 1155   1.798   9.139   4.560
29430W        W 1156  41.509   7.991   0.253
29431W        W 1157  28.641  40.528  14.973
29432W        W 1158  37.768  35.965  11.243
29433W        W 1159   8.403  29.885   3.506
29434W        W 1160  31.072  44.511  13.858
29435W        W 1161  15.227  37.531  13.837
29436W        W 1162  13.948  19.944   2.356
29437W        W 1163  34.525  14.244  13.799
29438W        W 1164   5.008  14.170   5.056
29439W        W 1165  31.100  33.539   1.458
29440W        W 1166   5.371  43.286  11.119
29441W        W 1167   6.892  19.741   4.313
29442W        W 1168  34.052   7.162  12.934
29443W        W 1169  30.785  12.688  13.333
29444W        W 1170  40.864  19.853  11.215
29445W        W 1171  23.893  27.703  14.561
29446W        W 1172  33.344  35.900   0.403
29447W        W 1173  17.760  13.711  11.193
29448W        W 1174  22.239  30.677   1.317
29449W        W 1175  22.040  37.078  14.863
29450W        W 1176  43.220  27.142   2.892
29451W        W 1177  28.512  40.043  14.810
29452W        W 1178  25.321   1.518  11.550
29453W        W 1179  15.624  21.797  10.998
29454W        W 1180  33.555  23.048   4.618
29455W        W 1181  14.328   7.884   0.474
29456W        W 1182   8.161  44.405   1.729
29457W        W 1183   1.406   9.346   0.997
29458W        W 1184  26.012  42.902  11.146
29459W        W 1185  20.053  43.984  13.665
29460W        W 1186  21.586  42.407   0.852
29461W        W 1187  38.962  35.201   2.732
29462W        W 1188  33.571  15.696   1.303
29463W        W 1189  37.025   8.900   3.625
29464W        W 1190  33.616  36.207   4.885
29465W        W 1191  18.699  25.713  14.141
29466W        W 1192  39.839  31.825   0.890
29467W        W 1193  27.928  26.119   1.191
29468W        W 1194  36.005   4.909  11.574
29469W        W 1195  23.549  26.781   1.215
29470W        W 1196  39.949   0.005   4.258
29471W        W 1197  36.902  15.342  11.111
29472W        W 1198   1.375   4.794   0.317
29473W        W 1199  28.119  43.847  11.995
29474W        W 1200  20.510  11.625  14.765
29475W        W 1201  16.511  38.938   2.155
29476W        W 1202  43.398   1.766  12.220
29477W        W 1203  41.802  25.586  13.959
29478W        W 1204  36.538  41.320  14.797
29479W        W 1205  41.999   5.906  10.653
29480W        W 1206  43.358  40.150   3.722
29481W        W 1207  16.568  19.657   0.164
29482W        W 1208   8.843  44.069  11.992
29483W        W 1209  31.642  25.192  14.351
29484W        W 1210  24.564  44.260   9.775
29485W        W 1211  42.075  24.492   0.048
29486W        W 1212   6.936   4.048   3.582
29487W        W 1213  16.199  26.153  13.320
29488W        W 1214   6.010  36.140   3.793
29489W        W 1215  27.474  23.465   1.307
29490W        W 1216  22.992   4.727  10.362
29491W        W 1217  20.205  20.591   0.394
29492W        W 1218  34.300  29.073  11.512
29493W        W 1219  28.121  42.921   4.101
29494W        W 1220  34.991  23.942  13.901
29495W        W 1221  25.363  40.067   2.422
29496W        W 1222  44.538  18.277   3.331
29497W        W 1223  19.628   6.201  11.606
29498W        W 1224   9.844  42.978  11.578
29499W        W 1225  17.020   5.728  12.993
29500W        W 1226  31.071  35.605   0.682
29501W        W 1227  38.029   0.730   0.234
29502W        W 1228  31.092  41.141   1.314
29503W        W 1229  29.435   9.915   1.454
29504W        W 1230  43.939  36.617   0.417
29505W        W 1231  35.379  32.705  10.433
29506W        W 1232  41.245   5.423   4.071
29507W        W 1233  40.852   0.251  14.296
29508W        W 1234  14.363   9.695  13.368
29509W        W 1235  11.535  26.799   0.945
29510W        W 1236  43.748  39.469  12.839
29511W        W 1237  17.661  23.480  13.908
29512W        W 1238  34.138  10.635  14.053
29513W        W 1239  22.308  42.927   3.701
29514W        W 1240  39.344   9.760   2.902
29515W        W 1241   1.651  15.455  11.207
29516W        W 1242  10.319   2.738  11.432
29517W        W 1243  27.814  15.804  12.047
29518W        W 1244  39.398   4.698   3.804
29519W        W 1245  34.867  20.641  12.038
29520W        W 1246  22.196  25.460   5.013
29521W        W 1247  39.343  37.009   2.110
29522W        W 1248  13.596  24.006  14.591
29523W        W 1249  24.805  27.783  14.236
29524W        W 1250  28.713  41.374   0.760
29525W        W 1251  41.521  25.842  12.554
29526W        W 1252   8.924   0.791   5.082
29527W        W 1253  20.860  31.937  10.252
29528W        W 1254  26.527  30.645  13.541
29529W        W 1255  25.274   1.745  11.086
29530W        W 1256  40.815  42.419   4.608
29531W        W 1257   5.211   0.242  12.309
29532W        W 1258  23.491  37.921   2.851
29533W        W 1259   0.857   2.972  11.992
29534W        W 1260  30.329  36.971   3.740
29535W        W 1261  17.430  17.973   2.787
29536W        W 1262   3.751  21.088   2.933
29537W        W 1263  24.063  23.676   1.227
29538W        W 1264  34.460  42.032  11.951
29539W        W 1265  25.445  34.825   1.740
29540W        W 1266  42.565  22.898   3.240
29541W        W 1267  40.794   2.879   1.034
29542W        W 1268  14.110  41.522  14.695
29543W        W 1269  10.004  32.833  10.365
29544W        W 1270  12.640  20.462  10.729
29545W        W 1271  16.531  22.774   3.700
29546W        W 1272  39.508  26.154  11.544
29547W        W 1273   5.938  23.463  11.581
29548W        W 1274  24.679   4.461  10.595
29549W        W 1275  41.550   6.328  12.514
29550W        W 1276  27.502  44.892  14.512
29551W        W 1277   3.340  32.340   0.393
29552W        W 1278  24.974  33.447  13.071
29553W        W 1279   5.899   6.985   9.897
29554W        W 1280  38.271  25.594   4.176
29555W        W 1281  21.539  43.020   1.258
29556W        W 1282  33.770  24.620   4.781
29557W        W 1283   0.844  37.037  11.539
29558W        W 1284  33.012   5.828  11.191
29559W        W 1285  36.018  28.612   2.182
29560W        W 1286  35.728  29.888   2.538
29561W        W 1287   6.980  17.420   4.929
29562W        W 1288  29.193  39.557  12.493
29563W        W 1289  19.551  26.061  11.070
29564W        W 1290  18.501  16.631  12.064
29565W        W 1291  32.471  23.886  11.443
29566W        W 1292  32.119  13.606   2.735
29567W        W 1293  31.944  28.214   0.651
29568W        W 1294  42.013  20.772   4.130
29569W        W 1295   8.499   7.002   5.650
29570W        W 1296  22.719  35.703  14.899
29571W        W 1297  42.269   2.568   3.587
29572W        W 1298   8.085  36.552  14.186
29573W        W 1299  20.561  16.496  14.542
29574W        W 1300   6.478   3.673   4.647
29575W        W 1301  13.548   8.784  11.140
29576W        W 1302  14.214  27.055   0.203
29577W        W 1303   5.299  41.855   1.788
29578W        W 1304  35.670   9.350  11.267
29579W        W 1305  13.639  33.052   3.416
29580W        W 1306  41.639  44.188  14.445
29581W        W 1307  38.884  13.795   3.088
29582W        W 1308  18.116  34.532  14.434
29583W        W 1309  27.118  31.807   2.216
29584W        W 1310  10.816  16.058  12.884
29585W        W 1311   2.408  34.637  13.981
29586W        W 1312  38.314   3.497  13.920
29587W        W 1313  34.993   6.660   0.375
29588W        W 1314   1.346   8.961  13.780
29589W        W 1315  44.218  14.554   4.562
29590W        W 1316  37.854  30.699  12.559
29591W        W 1317  42.370  37.001   1.465
29592W        W 1318   2.530   2.284   1.207
29593W        W 1319  43.274  26.936   4.783
29594W        W 1320  23.879  37.562  12.983
29595W        W 1321  38.192  24.465  11.146
29596W        W 1322  37.047  20.722  13.476
29597W        W 1323  31.532   9.990   3.747
29598W        W 1324  42.949  21.088  13.955
29599W        W 1325  34.985   1.840   2.245
29600W        W 1326  43.272   3.829   4.544
29601W        W 1327  29.702   3.237  10.028
29602W        W 1328  10.724   1.976  10.728
29603W        W 1329  35.443  10.675   2.130
29604W        W 1330  26.939  22.080   2.241
29605W        W 1331  25.710   8.751   2.911
29606W        W 1332  28.495   3.253  12.220
29607W        W 1333  34.986  32.697   2.760
29608W        W 1334  38.645  13.775  10.196
29609W        W 1335   2.161  43.541   3.877
29610W        W 1336  30.185  25.119  10.209
29611W        W 1337  14.721   9.300  13.832
29612W        W 1338  36.971   4.546  13.796
29613W        W 1339  12.289  21.195  11.545
29614W        W 1340  23.579  22.667  14.526
29615W        W 1341  24.051  41.984  12.434
29616W        W 1342  10.862   5.175  14.812
29617W        W 1343  34.826  13.801  14.512
29618W        W 1344  40.269   4.804  12.963
29619W        W 1345   7.444   7.245  11.974
29620W        W 1346  12.124  43.486  12.406
29621W        W 1347  41.877   9.887  13.819
29622W        W 1348  11.280  19.112  14.938
29623W        W 1349  22.784  18.105  13.813
29624W        W 1350   2.894  32.089   0.303
29625W        W 1351   3.263  21.399  10.922
29626W        W 1352  44.460  39.469   2.714
29627W        W 1353  18.668  16.716  12.540
29628W        W 1354  30.553  30.550   2.041
29629W        W 1355  42.497   0.939  14.325
29630W        W 1356  17.165   0.810   1.699
29631W        W 1357   1.335  24.118  14.940
29632W        W 1358  11.227  37.943  14.473
29633W        W 1359  11.659  19.842   1.288
29634W        W 1360  19.598  28.453  13.031
29635W        W 1361  26.127  11.596   1.216
29636W        W 1362  13.743  40.263   2.413
29637W        W 1363  36.340   8.635   3.824
29638W        W 1364  12.868  28.995   4.650
29639W        W 1365  29.084  13.067   4.313
29640W        W 1366  39.495  23.010  13.493
29641W        W 1367  10.660  27.093   4.431
29642W        W 1368  44.875  22.028  14.286
29643W        W 1369  38.476  10.030  13.305
29644W        W 1370   6.875  14.891  12.972
29645W        W 1371  25.474  16.749   3.965
29646W        W 1372   5.162  23.835   3.769
29647W        W 1373  11.575   6.793  14.825
29648W        W 1374  42.790  41.011   2.725
29649W        W 1375  30.671  30.871  10.615
29650W        W 1376  35.615  19.233   2.653
29651W        W 1377  39.814  40.589   1.296
29652W        W 1378  15.868  27.936  11.168
29653W        W 1379  44.866  17.236  14.636
29654W        W 1380  34.723  26.226  13.354
29655W        W 1381   0.699  21.208   4.643
29656W        W 1382  24.486  17.170   2.800
29657W        W 1383  22.290  10.838   3.304
29658W        W 1384  32.253  10.244   0.305
29659W        W 1385  28.856  40.412   1.417
29660W        W 1386  40.821   4.285   1.692
29661W        W 1387   1.429  21.578  14.228
29662W        W 1388  29.873   0.202  13.509
29663W        W 1389  10.092  28.438   3.392
29664W        W 1390  38.802  17.176   2.138
29665W        W 1391   3.903  14.629  14.302
29666W        W 1392  18.953  24.122   0.415
29667W        W 1393  14.136  35.436  13.818
29668W        W 1394  27.506   2.582  12.575
29669W        W 1395  25.035  23.167  12.397
29670W        W 1396  33.096  10.473   2.615
29671W        W 1397  25.353  10.811  12.593
29672W        W 1398  33.566  14.059  13.173
29673W        W 1399  12.261  12.097   1.649
29674W        W 1400  26.444  25.561  14.892
29675W        W 1401   4.423  22.171  11.947
29676W        W 1402  27.730  15.885   5.214
29677W        W 1403  38.226  41.998  10.587
29678W        W 1404   6.139  15.197  14.324
29679W        W 1405  41.230  44.990   2.685
29680W        W 1406  16.073  27.412   1.312
29681W        W 1407  36.509  23.996   2.297
29682W        W 1408  39.201   4.223   2.440
29683W        W 1409  13.636  28.108   0.623
29684W        W 1410  31.415  40.494  12.929
29685W        W 1411  11.690  22.804  12.689
29686W        W 1412  27.703  11.553   2.190
29687W        W 1413  18.504  24.735   2.771
29688W        W 1414   6.460  19.184   0.404
29689W        W 1415   6.563  29.528  14.550
29690W        W 1416  18.974  44.246  13.534
29691W        W 1417  16.968  11.342   4.863
29692W        W 1418  41.279  21.387  14.011
29693W        W 1419  34.927   7.811  10.786
29694W        W 1420  19.194  38.367   4.313
29695W        W 1421  22.641  12.577  14.424
29696W        W 1422  12.340   2.239   2.389
29697W        W 1423  18.225  41.214  14.797
29698W        W 1424  31.489  40.525  10.512
29699W        W 1425  38.035   9.422   3.176
29700W        W 1426  20.161  21.174   5.068
29701W        W 1427  14.777  31.896  11.752
29702W        W 1428  42.102  42.437   0.904
29703W        W 1429   0.979  10.349   3.269
29704W        W 1430  10.462  10.860  12.020
29705W        W 1431  22.082   5.081  11.080
29706W        W 1432  32.318  41.902  12.809
29707W        W 1433  25.353   1.222   5.019
29708W        W 1434  15.261  28.162   2.869
29709W        W 1435  37.058   3.172   3.230
29710W        W 1436  20.701   8.493  10.633
29711W        W 1437  21.146  32.900  14.877
29712W        W 1438  26.159  37.981  10.974
29713W        W 1439  27.856  13.296  10.231
29714W        W 1440  27.572  26.042  14.400
29715W        W 1441  30.862   1.312   2.896
29716W        W 1442  31.611  44.456   4.619
29717W        W 1443   2.820  19.250   1.919
29718W        W 1444  17.848  21.592   0.740
29719W        W 1445  41.989  28.477  13.368
29720W        W 1446  39.495  16.558   1.838
29721W        W 1447  24.911  12.836   1.698
29722W        W 1448   3.352  14.386  12.602
29723W        W 1449  17.325  33.428   1.455
29724W        W 1450   6.729   5.895   2.820
29725W        W 1451  42.000  42.386   2.799
29726W        W 1452  28.032  33.103   2.395
29727W        W 1453  27.085   8.913  11.984
29728W        W 1454  33.838  31.938   2.283
29729W        W 1455  35.502  30.908  12.473
29730W        W 1456  13.093   5.017   3.971
29731W        W 1457  14.870  38.278  12.060
29732W        W 1458   0.982  22.289  11.185
29733W        W 1459  21.615   8.867   1.200
29734W        W 1460   0.908  25.734   2.742
29735W        W 1461   3.667   5.754   4.664
29736W        W 1462  16.292  11.317   2.338
29737W        W 1463   3.732   3.305  10.580
29738W        W 1464  10.355  41.256   3.592
29739W        W 1465  37.667   7.666  11.500
29740W        W 1466  28.562   2.753   2.582
29741W        W 1467  24.476  14.879   0.534
29742W        W 1468  16.748  21.923   0.451
29743W        W 1469  16.993  19.251  11.665
29744W        W 1470  13.265  31.148   1.736
29745W        W 1471  28.881   3.844  11.594
29746W        W 1472  39.390  14.711   2.887
29747W        W 1473  26.725  15.279  11.128
29748W        W 1474  43.536  13.424   1.797
29749W        W 1475   9.114  10.587   3.020
29750W        W 1476  23.577  12.893  11.449
29751W        W 1477   4.713   7.785   4.033
29752W        W 1478  24.685  33.275   1.397
29753W        W 1479  18.354  36.863  12.097
29754W        W 1480  32.664  21.974   1.019
29755W        W 1481  31.603   9.949   4.257
29756W        W 1482  39.384  26.638  12.984
29757W        W 1483  43.272  43.812  11.910
29758W        W 1484  13.076  22.597   0.864
29759W        W 1485  25.004  13.837   2.624
29760W        W 1486   8.839   6.321   2.985
29761W        W 1487  43.860   2.156  14.768
29762W        W 1488  33.688  42.620  12.080
29763W        W 1489  29.139   1.515   0.761
29764W        W 1490  21.501  26.152   1.762
29765W        W 1491   5.910  37.852  11.515
29766W        W 1492  15.826   7.175   1.269
29767W        W 1493   3.024   5.201  11.252
29768W        W 1494   2.333   6.605  13.310
29769W        W 1495  19.152  13.277   4.623
29770W        W 1496  11.175   5.371   1.722
29771W        W 1497   9.254  30.945  14.799
29772W        W 1498  10.215  14.510  11.222
29773W        W 1499  11.900  25.249  14.755
29774W        W 1500  40.068  12.496  11.875
29775W        W 1501  34.036  14.312   2.239
29776W        W 1502  43.942  43.709   4.339
29777W        W 1503  10.663   4.759   2.959
29778W        W 1504  22.250   3.419  13.141
29779W        W 1505  25.395   4.165   0.812
29780W        W 1506  14.304  10.272  14.063
29781W        W 1507   5.499  40.166   2.126
29782W        W 1508   3.395  44.148  14.422
29783W        W 1509  13.201  29.565  14.941
29784W        W 1510  27.456  42.031  12.558
29785W        W 1511  40.990  36.487   2.310
29786W        W 1512  13.722  29.033  12.515
29787W        W 1513   2.518   5.255  12.036
29788W        W 1514  25.528  40.433   0.665
29789W        W 1515  18.907  15.067   2.251
29790W        W 1516  25.162   5.814   4.719
29791W        W 1517  44.342  27.192  11.284
29792W        W 1518  12.757  27.951   0.467
29793W        W 1519   5.434  38.948   1.182
29794W        W 1520  18.042  36.289  10.454
29795W        W 1521  27.614  33.662   0.687
29796W        W 1522  36.422  24.114  10.310
29797W        W 1523  11.919  20.956   0.833
29798W        W 1524  27.562  21.196   2.282
29799W        W 1525  31.123  22.653   2.293
29800W        W 1526  39.310  44.910   0.009
29801W        W 1527  36.951  12.240   2.403
29802W        W 1528  30.068  30.183  13.600
29803W        W 1529  21.687  28.914  13.360
29804W        W 1530  23.274  20.504   2.590
29805W        W 1531  25.519  43.774  10.674
29806W        W 1532  13.850  15.196  14.609
29807W        W 1533   4.601  17.159  10.686
29808W        W 1534  27.975  32.935  14.482
29809W        W 1535  34.868  23.011   4.066
29810W        W 1536   2.716  35.511  11.927
29811W        W 1537  23.713  35.356   1.247
29812W        W 1538  19.556  30.031   1.346
29813W        W 1539  30.429   6.183  13.495
29814W        W 1540  15.018   7.543   3.661
29815W        W 1541  25.813  32.164  14.573
29816W        W 1542  38.741  37.105  13.101
29817W        W 1543  24.784  36.553  12.803
29818W        W 1544  24.169  29.268   3.870
29819W        W 1545  43.080  10.481  14.523
29820W        W 1546  30.121  23.830   1.392
29821W        W 1547  32.408  32.619   4.250
29822W        W 1548  37.885   8.022   4.701
29823W        W 1549  40.689  40.784   1.661
29824W        W 1550  13.197  33.719   3.811
29825W        W 1551  24.977  37.988  11.734
29826W        W 1552  42.741   2.211   4.962
29827W        W 1553  31.496  40.310   3.792
29828W        W 1554  43.534  39.628  13.947
29829W        W 1555  17.525  11.225  12.232
29830W        W 1556  11.727  21.028   4.680
29831W        W 1557  44.214  15.362  13.429
29832W        W 1558  12.864  44.443   1.690
29833W        W 1559  24.619  17.748   3.629
29834W        W 1560   0.783   7.172   3.594
29835W        W 1561  43.424  44.620  14.784
29836W        W 1562  15.731  35.811   0.004
29837W        W 1563  13.054   8.151   2.781
29838W        W 1564  10.746  36.412  14.143
29839W        W 1565  13.886  28.588   0.513
29840W        W 1566  33.819   9.272  14.012
29841W        W 1567  19.274  37.066   3.188
29842W        W 1568   7.354  27.475   1.742
29843W        W 1569   5.932  15.352  10.995
29844W        W 1570   5.217  35.528  12.902
29845W        W 1571  33.102  20.226   3.805
29846W        W 1572   6.773  29.873   3.303
29847W        W 1573  11.588  31.695   4.865
29848W        W 1574   5.378  38.280   0.835
29849W        W 1575  29.743  19.937   0.970
29850W        W 1576  12.681  40.031  13.069
29851W        W 1577  22.903   5.733  13.387
29852W        W 1578  16.749   9.775  14.697
29853W        W 1579   2.493  23.547  10.636
29854W        W 1580  42.798  28.562  12.447
29855W        W 1581   6.154  32.570   3.708
29856W        W 1582  22.036  16.637   3.375
29857W        W 1583  40.903   6.412  13.234
29858W        W 1584  41.607   0.189  12.594
29859W        W 1585  42.425  22.940   4.896
29860W        W 1586  27.115  34.684  13.573
29861W        W 1587  15.529  40.436   0.876
29862W        W 1588   6.406  24.617   1.433
29863W        W 1589  36.157   5.981  11.030
29864W        W 1590  16.002  20.994   4.661
29865W        W 1591  33.141  16.136   4.361
29866W        W 1592  39.069  23.590   3.611
29867W        W 1593  16.229  16.396   3.181
29868W        W 1594  36.785  24.094  14.716
29869W        W 1595  22.212  43.759  11.181
29870W        W 1596  12.160  38.064  11.757
29871W        W 1597  25.466   3.870   2.873
29872W        W 1598  16.850   9.755   2.797
29873W        W 1599  39.020  35.984   0.830
29874W        W 1600   1.836  18.231   3.588
29875W        W 1601  34.071   0.648  11.134
29876W        W 1602  19.178   4.698  13.457
29877W        W 1603  26.394  43.376   3.244
29878W        W 1604  13.847  27.847   3.059
29879W        W 1605  39.361   2.297  14.331
29880W        W 1606  18.253  35.325  13.755
29881W        W 1607  36.029  16.530  14.359
29882W        W 1608   4.399  13.915   1.374
29883W        W 1609  30.817  42.356   2.852
29884W        W 1610  23.459  15.818  12.394
29885W        W 1611  40.691  43.950  11.543
29886W        W 1612  14.718  25.106  12.514
29887W        W 1613  12.310  20.077  13.863
29888W        W 1614  29.324   1.510  11.148
29889W        W 1615   4.775  27.678   4.580
29890W        W 1616   1.567   4.891   4.410
29891W        W 1617  14.886  35.064   3.758
29892W        W 1618   4.614  41.468  12.451
29893W        W 1619  33.898   6.350  12.546
29894W        W 1620   3.081  27.868   5.071
29895W        W 1621  31.102  29.610  10.279
29896W        W 1622   8.752  13.115  11.515
29897W        W 1623  39.608  14.555  11.091
29898W        W 1624  20.168  19.519   2.842
29899W        W 1625   0.568  18.105  11.842
29900W        W 1626  39.034  43.551   4.148
29901W        W 1627   6.723  30.019  11.847
29902W        W 1628  43.821  12.666  11.598
29903W        W 1629  36.188  42.531   0.999
29904W        W 1630  42.378  38.091  14.309
29905W        W 1631  23.282   1.683  12.344
29906W        W 1632  38.913   7.646  11.976
29907W        W 1633   0.031   5.817  11.447
29908W        W 1634  37.084  17.185   2.645
29909W        W 1635  43.440  31.150  14.423
29910W        W 1636  11.336   4.872   1.129
29911W        W 1637  26.433  31.374  11.449
29912W        W 1638  12.445   1.755  11.424
29913W        W 1639  17.103  31.911  12.151
29914W        W 1640  34.800   6.498   3.776
29915W        W 1641  37.287  34.419   4.596
29916W        W 1642  32.370  19.288  11.960
29917W        W 1643   9.902   0.761   2.808
29918W        W 1644  38.861  36.187   4.197
29919W        W 1645  27.235   1.553   4.223
29920W        W 1646  19.089  23.815  12.657
29921W        W 1647  31.147  25.096   0.557
29922W        W 1648  42.429  44.388  12.121
29923W        W 1649  28.268  22.539  12.413
29924W        W 1650  26.698  29.119  10.962
29925W        W 1651  20.749  21.179   3.224
29926W        W 1652   4.757  42.551   4.671
29927W        W 1653   0.937  32.392  10.523
29928W        W 1654  20.115  35.047  13.838
29929W        W 1655   2.255  20.720  12.162
29930W        W 1656  16.607  16.962  13.759
29931W        W 1657  38.942  34.600  11.651
29932W        W 1658   0.925  29.443   3.726
29933W        W 1659  42.077   8.982   5.085
29934W        W 1660  18.831   8.272   2.165
29935W        W 1661   7.758   0.512   0.747
29936W        W 1662  19.287  36.440   0.964
29937W        W 1663  38.085  11.666  13.588
29938W        W 1664  43.174  22.924  13.809
29939W        W 1665  13.323   6.598  14.032
29940W        W 1666  24.425  18.467   5.200
29941W        W 1667   0.709  28.686   0.503
29942W        W 1668  43.204  42.956  14.176
29943W        W 1669  22.565  17.359  14.498
29944W        W 1670  16.812  31.573  14.881
29945W        W 1671   7.942  30.359  11.539
29946W        W 1672  41.595   6.222  11.457
29947W        W 1673  41.096  27.822  14.895
29948W        W 1674  10.846   7.677  11.456
29949W        W 1675  34.526  11.296   1.054
29950W        W 1676  23.489  42.672  13.864
29951W        W 1677  39.864  35.700   4.823
29952W        W 1678  11.292  17.400  11.236
29953W        W 1679  28.066  30.481   1.925
29954W        W 1680  33.933   9.342   0.354
29955W        W 1681  40.610  12.365  14.802
29956W        W 1682  25.997  17.243  12.436
29957W        W 1683  17.249   8.948  10.699
29958W        W 1684  44.818  40.186   0.311
29959W        W 1685  15.106  17.292  11.616
29960W        W 1686  35.387  39.714  14.862
29961W        W 1687  39.792  11.608   3.359
29962W        W 1688  26.740  42.763  11.613
29963W        W 1689  10.652  13.729  12.886
29964W        W 1690  44.789  40.520  14.930
29965W        W 1691  24.331  33.395  12.476
29966W        W 1692   4.328  14.291   2.537
29967W        W 1693   4.971  44.419  11.138
29968W        W 1694  22.576  30.936   1.038
29969W        W 1695  15.699  18.233   4.373
29970W        W 1696  39.006   2.936  11.809
29971W        W 1697  10.803  10.157   1.396
29972W        W 1698  37.566  16.989   2.628
29973W        W 1699  28.192  24.983   4.449
29974W        W 1700  44.863  42.860   5.147
29975W        W 1701  12.400  15.513  10.710
29976W        W 1702  35.014  36.511  13.615
29977W        W 1703   5.018  24.767   0.771
29978W        W 1704  42.854  14.157   3.783
29979W        W 1705  19.305  31.529  11.043
29980W        W 1706  12.336  36.637   0.273
29981W        W 1707  40.723  39.952  13.413
29982W        W 1708  37.840  17.157  13.056
29983W        W 1709  44.886  20.520  14.628
29984W        W 1710  21.197   0.836  13.976
29985W        W 1711  38.496   9.357   2.309
29986W        W 1712   8.339  34.271  12.187
29987W        W 1713  15.789  11.063   4.186
29988W        W 1714  20.215  27.438   4.343
29989W        W 1715  30.981  11.677   4.726
29990W        W 1716   3.924   3.665  10.903
29991W        W 1717  34.327  41.254  12.426
29992W        W 1718  32.456  13.364  13.462
29993W        W 1719   1.374   0.769  14.353
29994W        W 1720   8.122  21.107   0.715
29995W        W 1721   1.458   3.032  13.986
29996W        W 1722  25.274  19.752   0.908
29997W        W 1723  18.100  41.869   2.808
29998W        W 1724  29.971  12.825   0.164
29999W        W 1725  31.626   7.254   0.483
30000W        W 1726  17.702  12.471   2.188
30001W        W 1727  11.939  15.345  11.280
30002W        W 1728  26.971   9.687  12.572
30003W        W 1729  23.608  36.055  12.830
30004W        W 1730  38.539  10.287   0.030
30005W        W 1731  38.387  24.572  10.690
30006W        W 1732  22.642  10.778   4.639
30007W        W 1733   1.735  39.653   3.292
30008W        W 1734  30.213   5.852   3.861
30009W        W 1735  25.665  40.803  14.822
30010W        W 1736  10.223  25.432   4.797
30011W        W 1737   4.747  26.560   3.185
30012W        W 1738  17.613  39.941   5.491
30013W        W 1739  33.883  30.912   3.106
30014W        W 1740  24.093  14.065  14.603
30015W        W 1741  31.893  29.028   3.848
30016W        W 1742  16.630  32.207   1.700
30017W        W 1743   0.013  11.226   1.406
30018W        W 1744  34.944  37.541   0.255
30019W        W 1745  43.082   0.436  13.018
30020W        W 1746  33.908  33.456   3.751
30021W        W 1747  42.593  22.354  11.049
30022W        W 1748  34.412   2.648   4.217
30023W        W 1749  31.405  10.925   4.644
30024W        W 1750   4.514  37.222   4.682
30025W        W 1751  32.492   7.879  12.140
30026W        W 1752  20.690   2.162  12.684
30027W        W 1753  36.360   6.924  14.748
30028W        W 1754   0.257   2.499   2.197
30029W        W 1755  23.593  18.182   0.240
30030W        W 1756  10.566  35.903   0.312
30031W        W 1757  22.644  39.354   4.239
30032W        W 1758   5.193  15.571  11.079
30033W        W 1759  43.779  10.982   4.390
30034W        W 1760  35.056  43.428  13.585
30035W        W 1761  26.395  15.840  11.250
30036W        W 1762  25.994   2.477   0.291
30037W        W 1763  10.119  11.772  12.944
30038W        W 1764  18.838  18.069   4.142
30039W        W 1765  32.340   4.173   3.683
30040W        W 1766  32.517  37.964   4.209
30041W        W 1767  28.497  14.818  10.386
30042W        W 1768  26.918  27.479   3.455
30043W        W 1769  17.323   1.640  10.717
30044W        W 1770   9.444  18.071  12.709
30045W        W 1771  36.794  17.159  12.894
30046W        W 1772  42.249  25.079   4.829
30047W        W 1773  19.673  17.137   4.094
30048W        W 1774  15.089  43.433  14.373
30049W        W 1775  20.274  34.665   2.349
30050W        W 1776   3.849  19.949  10.356
30051W        W 1777  38.456  33.510  14.500
30052W        W 1778  34.897  42.777   1.328
30053W        W 1779  41.371  15.701  13.363
30054W        W 1780  37.146   7.688   3.626
30055W        W 1781  19.084   0.487   2.268
30056W        W 1782  13.892  41.411   0.459
30057W        W 1783  26.973  40.353  14.080
30058W        W 1784  23.132   5.667  10.697
30059W        W 1785  26.520  33.258   1.012
30060W        W 1786  14.276  33.069   1.794
30061W        W 1787  15.593   5.860   0.006
30062W        W 1788   1.293  27.457  14.392
30063W        W 1789  20.505  31.442  12.925
30064W        W 1790   2.730  41.781  12.543
30065W        W 1791  19.808  14.290   3.446
30066W        W 1792  41.036  41.437   4.609
30067W        W 1793  44.781   9.758  14.170
30068W        W 1794  37.093  36.063   4.568
30069W        W 1795  42.190  13.357  11.167
30070W        W 1796  12.884  41.502   3.276
30071W        W 1797  26.193  29.411  12.630
30072W        W 1798  12.178   1.512  14.036
30073W        W 1799   1.932  34.118  11.964
30074W        W 1800  29.507   3.685   3.657
30075W        W 1801  32.996  36.493  11.622
30076W        W 1802  44.993   1.405  10.643
30077W        W 1803  42.860  43.988   1.802
30078W        W 1804  42.809   4.650  12.053
30079W        W 1805  17.072   1.868   2.741
30080W        W 1806   4.217  41.366  12.122
30081W        W 1807  22.651  33.936  12.522
30082W        W 1808   7.987  41.689  12.552
30083W        W 1809   2.540   8.168   4.591
30084W        W 1810   7.772  22.944   5.240
30085W        W 1811  15.710   1.240  13.965
30086W        W 1812  34.518  33.926  13.809
30087W        W 1813   5.806  23.217  12.012
30088W        W 1814  11.258  31.411   1.486
30089W        W 1815  10.339   3.729  10.419
30090W        W 1816  28.160  25.104  12.588
30091W        W 1817   0.311  13.671   4.551
30092W        W 1818  41.360  28.586   2.483
30093W        W 1819   4.433  39.377  14.848
30094W        W 1820   6.452  42.832  11.982
30095W        W 1821   4.570  10.819  13.524
30096W        W 1822  18.626   2.971  14.875
30097W        W 1823   3.925  28.911  12.149
30098W        W 1824  24.896  11.134  14.953
30099W        W 1825   0.318  18.132   0.851
30100W        W 1826  11.295  39.583   4.560
30101W        W 1827  24.174  30.331   2.837
30102W        W 1828  10.568  44.340   4.615
30103W        W 1829   7.874  22.064  13.478
30104W        W 1830  18.286  33.558  10.583
30105W        W 1831   6.787  13.567   1.903
30106W        W 1832  10.102  23.984  12.461
30107W        W 1833  23.938  23.515   2.210
30108W        W 1834  17.690   8.158  13.533
30109W        W 1835  24.163   5.876  10.854
30110W        W 1836  32.455  37.636  10.600
30111W        W 1837  35.550  21.108   4.346
30112W        W 1838  28.198  38.730   0.297
30113W        W 1839  14.491  34.113  12.874
30114W        W 1840  16.609   2.730  14.090
30115W        W 1841  44.649  18.742  13.552
30116W        W 1842  33.404  12.496   5.114
30117W        W 1843  31.229  27.697  12.727
30118W        W 1844   1.887   6.271   0.414
30119W        W 1845   5.279  15.133  12.002
30120W        W 1846  24.620  22.695  13.017
30121W        W 1847  31.744  27.000   5.027
30122W        W 1848   4.827  33.657  10.715
30123W        W 1849   7.630  19.448   2.255
30124W        W 1850  35.087  31.963   3.107
30125W        W 1851  31.171   6.772  13.458
30126W        W 1852  35.185  15.074  13.754
30127W        W 1853  41.346  20.554   0.483
30128W        W 1854   4.393   5.994  14.918
30129W        W 1855  17.156   0.861   2.792
30130W        W 1856   0.678  19.481   0.246
30131W        W 1857  10.353  28.816  13.519
30132W        W 1858   3.784  42.261   1.264
30133W        W 1859  26.636  41.953   3.339
30134W        W 1860  17.686   9.679  12.501
30135W        W 1861  32.676  15.031   3.954
30136W        W 1862  14.554  27.715   1.291
30137W        W 1863  40.543  17.996   0.466
30138W        W 1864  10.641  25.621  10.633
30139W        W 1865  16.226  28.647  11.387
30140W        W 1866   4.800  21.245   1.838
30141W        W 1867  32.564  39.625  11.103
30142W        W 1868   9.232   3.828  14.726
30143W        W 1869   1.022  13.658  12.163
30144W        W 1870  33.696  19.041  13.923
30145W        W 1871  14.048  25.082   1.755
30146W        W 1872  14.618  21.653   2.191
30147W        W 1873  15.995   8.364   0.454
30148W        W 1874  14.589   4.166   0.195
30149W        W 1875   3.236  20.008   1.435
30150W        W 1876  42.060  15.718   0.589
30151W        W 1877   5.688  36.416  13.903
30152W        W 1878  41.301   3.516   1.800
30153W        W 1879   9.319   9.141  14.798
30154W        W 1880  33.451   5.724   1.266
30155W        W 1881  34.501  40.854  12.772
30156W        W 1882  22.185  42.872   2.182
30157W        W 1883  25.801   7.678   4.298
30158W        W 1884  11.641   3.068   4.138
30159W        W 1885  21.608  41.027  12.641
30160W        W 1886  18.266  23.159   3.159
30161W        W 1887  40.332  24.154   1.892
30162W        W 1888  32.418   8.988  13.592
30163W        W 1889  24.768   2.733  13.227
30164W        W 1890   7.902   8.439   4.767
30165W        W 1891  14.702  26.670  11.433
30166W        W 1892  28.904  14.542   1.602
30167W        W 1893   9.088  30.515   2.247
30168W        W 1894   7.145   1.430  12.007
30169W        W 1895  44.327   6.965  11.620
30170W        W 1896  43.178  32.045   3.468
30171W        W 1897   8.364  41.230  13.840
30172W        W 1898  12.735  16.663   3.106
30173W        W 1899   4.246  30.881   4.655
30174W        W 1900  26.616  12.922   2.352
30175W        W 1901  27.648  33.037   1.624
30176W        W 1902  34.047  17.852   2.031
30177W        W 1903  21.597  10.330  14.111
30178W        W 1904  42.579  33.935  12.384
30179W        W 1905  16.189  16.911   3.157
30180W        W 1906  34.164  40.835   1.475
30181W        W 1907  19.092  22.590   3.393
30182W        W 1908  19.719  13.777  14.343
30183W        W 1909  16.545  28.515   4.786
30184W        W 1910  10.000   4.012   1.713
30185W        W 1911   4.360  44.283  13.875
30186W        W 1912  28.416  31.101   0.322
30187W        W 1913  28.547  25.569   0.005
30188W        W 1914  12.138   7.651  14.284
30189W        W 1915  32.050  23.580   0.482
30190W        W 1916   6.005  17.503  11.578
30191W        W 1917  38.733  13.212   0.001
30192W        W 1918  35.665  28.089   3.745
30193W        W 1919  12.719  30.059  10.687
30194W        W 1920  12.376  26.057   1.210
30195W        W 1921   2.804   7.214   1.925
30196W        W 1922  34.301  10.883  11.027
30197W        W 1923   2.587   1.678   0.545
30198W        W 1924  29.431  35.934   3.539
30199W        W 1925   6.222  20.784   0.037
30200W        W 1926  10.215   6.662   0.325
30201W        W 1927   9.760  14.624  11.019
30202W        W 1928  22.438  11.817   2.344
30203W        W 1929  41.355  23.494   3.226
30204W        W 1930  11.531  27.478   4.249
30205W        W 1931  31.216  11.949  12.944
30206W        W 1932  38.860  28.521  13.994
30207W        W 1933  18.204  40.833   4.850
30208W        W 1934   0.892   3.665   3.165
30209W        W 1935  22.654   5.538   0.884
30210W        W 1936  35.143  16.162  14.728
30211W        W 1937  43.479   0.822  11.818
30212W        W 1938   1.243  13.269  13.918
30213W        W 1939  40.233  37.645   4.116
30214W        W 1940  44.199   0.972   0.373
30215W        W 1941  18.711  24.216   4.595
30216W        W 1942  14.734  28.453  13.560
30217W        W 1943  39.562   2.894  13.561
30218W        W 1944  13.307  44.661   4.726
30219W        W 1945   3.985   6.078  10.694
30220W        W 1946  25.246   2.954  10.902
30221W        W 1947  10.608  13.574  14.496
30222W        W 1948  23.743  16.656   2.643
30223W        W 1949  20.614  35.109  12.072
30224W        W 1950  18.359  38.538   4.296
30225W        W 1951  19.099   1.448  11.219
30226W        W 1952  34.519   6.136  12.021
30227W        W 1953  13.154  42.697  14.909
30228W        W 1954  21.017   7.418   4.333
30229W        W 1955  32.438  17.598   3.373
30230W        W 1956   0.699  35.034  14.684
30231W        W 1957   6.858  27.337   1.532
30232W        W 1958  16.060  24.030   3.180
30233W        W 1959  41.080  35.014   0.867
30234W        W 1960  37.993  40.345  11.389
30235W        W 1961  41.572  24.361  12.526
30236W        W 1962  11.287  29.086   1.754
30237W        W 1963  16.036  42.979   2.290
30238W        W 1964  30.529  30.251  12.961
30239W        W 1965  27.744  21.268  13.628
30240W        W 1966  26.023  28.411   4.190
30241W        W 1967  30.215   1.466  13.799
30242W        W 1968  21.935  24.488  14.241
30243W        W 1969  30.188   0.859  14.666
30244W        W 1970  31.598  32.799   3.729
30245W        W 1971  33.532   9.418  10.847
30246W        W 1972  37.945  32.862  10.594
30247W        W 1973  29.927  17.050   4.051
30248W        W 1974  20.089  20.751  11.664
30249W        W 1975  41.889  39.816   3.143
30250W        W 1976  23.666  23.774   0.900
30251W        W 1977  25.112  28.613  14.325
30252W        W 1978  28.108  15.281  14.578
30253W        W 1979  35.916  33.362   0.259
30254W        W 1980  28.843  12.152  14.787
30255W        W 1981   0.978  33.157  14.664
30256W        W 1982  32.487  15.469   0.820
30257W        W 1983   7.635  29.082   4.701
30258W        W 1984  21.641  40.568  14.478
30259W        W 1985  18.405  14.226  14.394
30260W        W 1986  37.969  36.131   2.296
30261W        W 1987  34.941  34.197  12.082
30262W        W 1988  40.096   1.415  13.269
30263W        W 1989  18.753  22.176  14.271
30264W        W 1990   0.511  38.458  13.657
30265W        W 1991  33.398   2.322  10.687
30266W        W 1992  10.763  28.910  11.029
30267W        W 1993  22.137  28.439  12.766
30268W        W 1994  39.669   4.630  12.541
30269W        W 1995  10.020  43.811  14.439
30270W        W 1996  23.003  42.314   4.456
30271W        W 1997  32.439  10.755   3.132
30272W        W 1998  43.328   0.322  13.490
30273W        W 1999   6.812  39.730   1.800
30274W        W 2000  32.669  37.538   5.088
30275W        W 2001  33.173  41.339   4.111
30276W        W 2002  17.036   8.155   1.930
30277W        W 2003  37.981   2.363  11.074
30278W        W 2004  36.110   6.475   4.291
30279W        W 2005  10.520   1.984   2.318
30280W        W 2006  19.483  15.237   1.344
30281W        W 2007  20.860  41.374  13.686
30282W        W 2008  41.764  18.875  12.947
30283W        W 2009  18.985  32.377   2.317
30284W        W 2010  33.794  39.877   0.818
30285W        W 2011   7.217  18.205  11.586
30286W        W 2012   6.756   6.311  10.828
30287W        W 2013   2.363  10.158  10.624
30288W        W 2014   7.711  13.571  14.027
30289W        W 2015  19.719   8.326  14.199
30290W        W 2016  41.420  37.182   3.620
30291W        W 2017  30.501   1.079   4.721
30292W        W 2018   4.441  33.813   1.319
30293W        W 2019  35.175  12.391   4.173
30294W        W 2020  33.902  30.476  11.595
30295W        W 2021  13.592  21.044   3.597
30296W        W 2022  36.602  25.598  11.647
30297W        W 2023  29.766  15.700   0.715
30298W        W 2024   2.775  13.216   1.773
30299W        W 2025  23.077  39.709  13.655
30300W        W 2026   7.454   5.389  13.069
30301W        W 2027  42.192   2.182   3.217
30302W        W 2028  29.709  17.143   4.536
30303W        W 2029  21.066  21.244   0.733
30304W        W 2030  38.608  19.127  11.644
30305W        W 2031  21.104  36.576  11.240
30306W        W 2032  34.453   6.368  12.528
30307W        W 2033   2.349  13.669   4.809
30308W        W 2034  33.810  37.074  10.737
30309W        W 2035  31.206  15.637  10.678
30310W        W 2036  43.295  11.203  14.467
30311W        W 2037   2.982   9.548  11.914
30312W        W 2038  28.582  39.450   1.481
30313W        W 2039  26.400  36.822  11.935
30314W        W 2040  13.638  29.004  11.621
30315W        W 2041  11.814   1.847  14.528
30316W        W 2042  13.021  14.254  12.171
30317W        W 2043  44.324  18.483   4.212
30318W        W 2044   9.858  34.459   3.695
30319W        W 2045  44.947  33.981   0.466
30320W        W 2046  35.355  25.941  12.137
30321W        W 2047  20.346  20.638   1.859
30322W        W 2048  19.666  40.343   3.654
30323W        W 2049   6.443  42.492   2.906
30324W        W 2050  16.129  19.957   4.194
30325W        W 2051  32.530   8.157  14.817
30326W        W 2052   6.787  30.594  14.797
30327W        W 2053  44.048   1.386   1.288
30328W        W 2054  25.221   3.135   0.869
30329W        W 2055  31.535  42.485   1.180
30330W        W 2056  12.790  35.008   0.779
30331W        W 2057  33.018  14.452  10.956
30332W        W 2058  35.997  16.313  13.870
30333W        W 2059  32.084  19.487  10.802
30334W        W 2060   5.147  40.864   4.169
30335W        W 2061  10.320  19.006  10.649
30336W        W 2062  28.570  13.724  12.115
30337W        W 2063   6.270  10.637  11.992
30338W        W 2064   6.867   4.095  11.124
30339W        W 2065   9.397  19.374  12.379
30340W        W 2066  10.248  42.849  11.910
30341W        W 2067  25.689  32.179  12.094
30342W        W 2068  14.047  14.343   3.161
30343W        W 2069  21.645   1.556  12.853
30344W        W 2070  21.210  41.407   5.080
30345W        W 2071  38.818  41.919   3.462
30346W        W 2072  17.066  18.003   1.735
30347W        W 2073  31.483   3.579   0.302
30348W        W 2074  30.411  30.914   2.859
30349W        W 2075  41.257  20.188  12.926
30350W        W 2076  11.155  39.454  12.406
30351W        W 2077  19.209  12.814  13.362
30352W        W 2078   3.104  14.136   9.851
30353W        W 2079  24.149  14.744  11.503
30354W        W 2080  12.174  33.117   4.083
30355W        W 2081  11.663  23.695   3.133
30356W        W 2082  44.209  24.113  13.893
30357W        W 2083   7.901  31.940  13.496
30358W        W 2084  30.115  39.469   1.787
30359W        W 2085  12.101  18.666   0.265
30360W        W 2086  42.612  10.203  14.648
30361W        W 2087  25.171  27.565  10.878
30362W        W 2088  16.335  27.177  14.391
30363W        W 2089  43.328  12.857  13.501
30364W        W 2090  13.824  18.491  11.462
30365W        W 2091  25.124   5.557   0.903
30366W        W 2092   2.900  42.011   0.846
30367W        W 2093  27.095  20.762  11.946
30368W        W 2094  19.276  42.412  12.624
30369W        W 2095  18.081   8.325  13.981
30370W        W 2096  26.276  25.314  14.465
30371W        W 2097  28.452  40.429  11.036
30372W        W 2098  43.742  41.523  14.389
30373W        W 2099  37.856  21.562  13.812
30374W        W 2100   9.169  44.973   1.352
30375W        W 2101  19.024   2.811  13.503
30376W        W 2102  38.992  27.535  14.000
30377W        W 2103  28.017  17.233   5.039
30378W        W 2104  10.318  44.495   2.114
30379W        W 2105  42.570  23.671   4.930
30380W        W 2106  16.784  16.169  13.741
30381W        W 2107  15.851  36.438  13.268
30382W        W 2108  21.672  10.311   1.416
30383W        W 2109   6.150  12.646  14.248
30384W        W 2110  31.122  37.636  11.875
30385W        W 2111  34.680  18.395  12.543
30386W        W 2112  26.658  44.482  10.334
30387W        W 2113   4.155  39.436  13.422
30388W        W 2114  31.211  25.411   5.347
30389W        W 2115   3.467  17.574   1.927
30390W        W 2116  19.460  10.650   0.325
30391W        W 2117  25.958  26.056  13.703
30392W        W 2118   4.718   8.857   2.294
30393W        W 2119  27.934   0.872   1.552
30394W        W 2120  15.617   2.738  14.915
30395W        W 2121  27.893  35.771  12.405
30396W        W 2122  11.854  16.858  13.913
30397W        W 2123  37.990  22.988   2.279
30398W        W 2124   5.382  31.160  12.567
30399W        W 2125   7.083  42.931   1.336
30400W        W 2126  25.159  40.282   1.243
30401W        W 2127  24.558  34.443   0.769
30402W        W 2128  20.735  35.762  13.419
30403W        W 2129  38.850   7.422  13.513
30404W        W 2130  18.385  10.389  11.970
30405W        W 2131  43.439  16.218   1.441
30406W        W 2132  32.479  14.407  11.155
30407W        W 2133  21.209  32.641  10.333
30408W        W 2134  22.900  44.868  13.814
30409W        W 2135  18.304  41.336  11.644
30410W        W 2136  14.962  30.212  14.303
30411W        W 2137  28.932  20.640   3.720
30412W        W 2138  32.256  39.776  12.044
30413W        W 2139  14.628  21.053   1.302
30414W        W 2140  43.008  13.360   1.815
30415W        W 2141   9.777  14.075   4.085
30416W        W 2142  30.561  24.367   0.948
30417W        W 2143  40.757  13.737  12.579
30418W        W 2144  36.630  19.699   3.691
30419W        W 2145   3.021  35.047  13.474
30420W        W 2146  13.748  18.761  12.945
30421W        W 2147   2.419  37.524  12.421
30422W        W 2148  24.997  30.104  12.007
30423W        W 2149  27.884  39.883   0.352
30424W        W 2150   3.258  17.024  11.997
30425W        W 2151  39.778  13.756   1.067
30426W        W 2152   4.210  21.987   2.725
30427W        W 2153  37.039  31.142   2.267
30428W        W 2154  25.605  28.050   4.352
30429W        W 2155  33.987  18.687  12.402
30430W        W 2156   3.781   5.063   4.923
30431W        W 2157  14.610  10.255  11.959
30432W        W 2158  30.212  10.946  12.950
30433W        W 2159  18.234  40.571  13.091
30434W        W 2160  10.698  31.917  12.015
30435W        W 2161  17.293   2.976  11.670
30436W        W 2162  29.050  17.535   4.176
30437W        W 2163  31.126  14.150   9.919
30438W        W 2164   8.795  41.549  14.544
30439W        W 2165  30.977  24.767   1.730
30440W        W 2166   4.732  37.978   1.762
30441W        W 2167  31.890  34.622   0.780
30442W        W 2168  12.295   2.702   2.150
30443W        W 2169  29.419  15.422  11.076
30444W        W 2170  42.969   5.742   3.046
30445W        W 2171  11.171  43.422   2.838
30446W        W 2172   5.640  27.730   3.346
30447W        W 2173   0.396  19.631  14.831
30448W        W 2174  33.024  35.483   0.181
30449W        W 2175  30.136  20.553  11.935
30450W        W 2176   3.351  12.906  13.970
30451W        W 2177  19.178  17.287   2.405
30452W        W 2178   6.996   1.776  13.601
30453W        W 2179  33.377  44.875  14.457
30454W        W 2180  23.503  27.421  14.348
30455W        W 2181  31.925  13.866   3.155
30456W        W 2182  18.294   2.880  12.002
30457W        W 2183  36.272  14.274   1.701
30458W        W 2184  38.106  30.077   4.137
30459W        W 2185  12.827  27.261  11.593
30460W        W 2186  22.529   0.231  11.593
30461W        W 2187  28.034   0.968  12.076
30462W        W 2188  40.908   9.872  13.835
30463W        W 2189  23.683  35.724   4.132
30464W        W 2190  12.656  38.619  13.826
30465W        W 2191   4.434  34.113  12.144
30466W        W 2192  40.574  43.403   3.041
30467W        W 2193  36.761  24.179   3.614
30468W        W 2194  25.895  24.617   3.761
30469W        W 2195  27.306  29.235   1.914
30470W        W 2196  32.973  37.321   4.150
30471W        W 2197   9.300  18.286  11.222
30472W        W 2198  26.967  28.110  14.853
30473W        W 2199  15.437  28.592  12.588
30474W        W 2200  16.100  11.857  13.461
30475W        W 2201  27.601  18.637   4.318
30476W        W 2202  40.827  23.003  13.313
30477W        W 2203  15.613  35.969   4.634
30478W        W 2204  35.717  38.844  11.110
30479W        W 2205   7.887  10.239  13.361
30480W        W 2206  31.396  21.287   3.315
30481W        W 2207  27.063   7.446  13.264
30482W        W 2208  29.671  39.616   3.864
30483W        W 2209  34.491   5.922   0.738
30484W        W 2210  17.447  30.831   2.961
30485W        W 2211  24.814  19.553  12.191
30486W        W 2212  15.817  42.022  14.788
30487W        W 2213  12.457  34.896  13.788
30488W        W 2214   6.973  19.793  14.860
30489W        W 2215  31.563  34.452  12.012
30490W        W 2216  17.804  29.515  10.987
30491W        W 2217  37.362  20.080  12.530
30492W        W 2218  29.904  38.305  11.899
30493W        W 2219  35.956  29.957  13.745
30494W        W 2220   5.462  31.832  13.351
30495W        W 2221  39.375   9.756   4.423
30496W        W 2222   1.776  15.189   1.616
30497W        W 2223  20.112  44.925  13.322
30498W        W 2224  38.519  27.650   2.128
30499W        W 2225  22.601   5.330  11.568
30500W        W 2226   2.172  38.567  14.867
30501W        W 2227  30.334   2.881  12.909
30502W        W 2228  28.684  20.802   3.287
30503W        W 2229   9.553  21.201   2.921
30504W        W 2230  22.956  17.744  14.556
30505W        W 2231  26.979  22.748  14.050
30506W        W 2232  36.849  30.931   0.003
30507W        W 2233  12.273   0.017  13.095
30508W        W 2234  42.827  39.267   4.570
30509W        W 2235  10.728  18.818  11.709
30510W        W 2236   7.402  32.565  14.828
30511W        W 2237  29.152  20.259   0.439
30512W        W 2238   6.754  11.586   0.727
30513W        W 2239   7.695  12.067   4.296
30514W        W 2240   5.729  40.791   2.747
30515W        W 2241   7.655   0.610   1.748
30516W        W 2242  40.001  31.028   1.366
30517W        W 2243  10.773  34.174  13.706
30518W        W 2244  34.461   3.846  11.112
30519W        W 2245   9.141  29.877   4.554
30520W        W 2246  32.826  19.679   1.961
30521W        W 2247   4.166  22.193  13.897
30522W        W 2248  11.902  19.774   2.618
30523W        W 2249  43.879  38.089  11.553
30524W        W 2250  41.397  44.205  14.964
30525W        W 2251   5.709  13.570   3.971
30526W        W 2252  16.323   9.739   1.498
30527W        W 2253  31.135  43.979  12.842
30528W        W 2254  41.869   1.299  11.937
30529W        W 2255  26.683   7.147  11.865
30530W        W 2256  10.036  28.612  14.128
30531W        W 2257   5.223  19.360   1.277
30532W        W 2258   6.397  10.256  10.702
30533W        W 2259   5.333  24.230   1.326
30534W        W 2260  27.932   7.834   1.433
30535W        W 2261  29.872  11.860   3.242
30536W        W 2262  44.979   9.317   0.426
30537W        W 2263   9.063  31.470  13.849
30538W        W 2264  24.053  44.412   0.917
30539W        W 2265   3.461   3.945   3.616
30540W        W 2266   0.912  38.557  12.953
30541W        W 2267   9.116   5.373  13.471
30542W        W 2268  24.038  37.518  10.782
30543W        W 2269  39.068  20.203  13.969
30544W        W 2270  16.607  13.124  14.224
30545W        W 2271   2.975   6.047  14.419
30546W        W 2272  19.370  34.374   1.210
30547W        W 2273  31.663  29.329  14.678
30548W        W 2274  15.580  32.903   1.417
30549W        W 2275  13.694  19.511   0.377
30550W        W 2276   6.186  28.982  12.625
30551W        W 2277  25.615  33.171   1.227
30552W        W 2278  18.343  12.113   3.381
30553W        W 2279   3.303  30.986   2.795
30554W        W 2280  26.574   0.871  11.908
30555W        W 2281  30.345  19.982  11.092
30556W        W 2282  34.541  27.083  10.570
30557W        W 2283  28.039  14.609   1.013
30558W        W 2284   8.639  25.673  10.743
30559W        W 2285  20.111  36.939   2.798
30560W        W 2286  29.877   5.498  14.302
30561W        W 2287   9.855  13.824   2.778
30562W        W 2288  38.952  23.454   1.275
30563W        W 2289  24.202  19.663   1.125
30564W        W 2290  30.499  41.224  14.410
30565W        W 2291   0.237  13.313   2.826
30566W        W 2292  42.024  19.691  13.156
30567W        W 2293  10.177  35.477   3.594
30568W        W 2294  23.172  40.943   0.788
30569W        W 2295  22.758  14.799  10.327
30570W        W 2296  35.986  33.467   4.029
30571W        W 2297  40.904  43.232  11.631
30572W        W 2298  27.174   7.314   3.255
30573W        W 2299  31.429   7.675  11.509
30574W        W 2300  28.146  40.813   4.487
30575W        W 2301  25.594  17.868   0.984
30576W        W 2302   1.057  22.457  14.411
30577W        W 2303  18.947   1.903  11.352
30578W        W 2304  30.504   3.904  10.657
30579W        W 2305  34.800  36.038  10.889
30580W        W 2306  26.275  14.100   3.748
30581W        W 2307  17.765  40.057   1.891
30582W        W 2308  21.230   8.314  10.660
30583W        W 2309  18.841  43.449  11.398
30584W        W 2310  33.297  35.185  10.694
30585W        W 2311  11.712  17.490  13.393
30586W        W 2312  17.956  15.220   3.667
30587W        W 2313  12.267  14.313   1.635
30588W        W 2314  24.012  11.254  12.926
30589W        W 2315   7.640   8.523   4.254
30590W        W 2316  13.729  23.225   4.406
30591W        W 2317  39.885  20.771  13.823
30592W        W 2318  25.476  38.447   4.067
30593W        W 2319  14.412  36.232   4.232
30594W        W 2320  15.216  31.931  14.251
30595W        W 2321  15.677  13.729   3.095
30596W        W 2322   2.955  22.624   1.250
30597W        W 2323  26.268   7.168   0.398
30598W        W 2324  20.795  15.092  12.907
30599W        W 2325  32.416  21.612   4.694
30600W        W 2326  37.979   6.865   0.439
30601W        W 2327   9.342  23.511   4.475
30602W        W 2328  29.754  29.885  13.319
30603W        W 2329  26.707  23.744   1.931
30604W        W 2330  27.414  40.522  13.887
30605W        W 2331  37.776  21.679   4.509
30606W        W 2332   3.318  19.760  10.972
30607W        W 2333   6.219   2.007   3.767
30608W        W 2334  39.915  38.901  10.408
30609W        W 2335  25.100  40.828   4.378
30610W        W 2336  26.011  22.754   0.379
30611W        W 2337  20.797   0.811   0.561
30612W        W 2338  21.291  29.521   2.311
30613W        W 2339  37.550   8.167  11.472
30614W        W 2340   1.213  10.098  10.756
30615W        W 2341   8.504  26.752   3.829
30616W        W 2342  18.324  37.336  12.401
30617W        W 2343  32.368  42.423   1.777
30618W        W 2344  10.950  26.579   3.648
30619W        W 2345  15.697  16.415   0.854
30620W        W 2346  43.463  23.099  12.554
30621W        W 2347   1.425  34.990  10.701
30622W        W 2348  44.875   9.161  13.013
30623W        W 2349  22.569   7.051   2.102
30624W        W 2350   3.451   2.432  14.986
30625W        W 2351  35.925  20.098  11.494
30626W        W 2352  18.219  32.068   1.851
30627W        W 2353  41.115  23.012   3.317
30628W        W 2354  38.873   0.277   1.253
30629W        W 2355  40.052   9.163  13.362
30630W        W 2356  29.737  12.724   2.395
30631W        W 2357  37.532   6.678   0.241
30632W        W 2358  31.651  22.740   2.308
30633W        W 2359   7.366  14.315   1.784
30634W        W 2360   8.749  10.287  14.221
30635W        W 2361   3.380  16.195   0.339
30636W        W 2362  29.881  21.707  12.706
30637W        W 2363   6.765  22.229  12.024
30638W        W 2364  35.076  40.382  14.870
30639W        W 2365  17.959  30.959   4.921
30640W        W 2366   1.661  42.745   0.651
30641W        W 2367  10.828  10.414  12.110
30642W        W 2368  21.007  29.377  13.789
30643W        W 2369  15.565  25.669   2.333
30644W        W 2370  29.602  43.828   0.352
30645W        W 2371  16.001  31.545   4.175
30646W        W 2372  40.164  38.496  13.804
30647W        W 2373  32.649   1.957   3.742
30648W        W 2374  22.343  37.577   3.333
30649W        W 2375  20.194  14.649  14.377
30650W        W 2376  15.887  44.028   0.870
30651W        W 2377  32.848  29.692  11.085
30652W        W 2378  19.766   3.332   2.482
30653W        W 2379  34.377  25.035  11.910
30654W        W 2380  16.603  15.169  12.106
30655W        W 2381  35.172   7.780   1.427
30656W        W 2382  11.133   3.119  13.379
30657W        W 2383   1.364  35.595   4.740
30658W        W 2384  13.815  14.208  11.668
30659W        W 2385  28.660  44.928  13.758
30660W        W 2386  27.965  38.593   0.733
30661W        W 2387  18.417  23.372   0.498
30662W        W 2388  33.128   2.284  13.418
30663W        W 2389   2.290  21.145   3.189
30664W        W 2390  15.220   2.495  14.003
30665W        W 2391   7.152  27.561   3.277
30666W        W 2392  40.074  17.743   1.881
30667W        W 2393  36.611  33.002  10.364
30668W        W 2394  40.046  12.583   3.202
30669W        W 2395  13.063  36.860   3.443
30670W        W 2396  11.277  31.943  12.607
30671W        W 2397  39.930  27.139   1.505
30672W        W 2398  36.370   8.710   1.776
30673W        W 2399  35.554   0.185  13.468
30674W        W 2400  25.208  39.944   4.837
30675W        W 2401  24.499  28.904   1.335
30676W        W 2402   2.779  41.007   3.281
30677W        W 2403  40.236  13.662  12.626
30678W        W 2404  26.681  11.610   3.781
30679W        W 2405  15.490  12.194  11.635
30680W        W 2406  29.631  19.242  13.326
30681W        W 2407  36.637  28.942  14.898
30682W        W 2408  30.073  16.287   4.106
30683W        W 2409   5.537  15.603  11.916
30684W        W 2410  16.609   2.516  12.105
30685W        W 2411  39.112  11.556  11.141
30686W        W 2412  20.698  44.061   4.978
30687W        W 2413   0.431  33.678  12.986
30688W        W 2414  30.447   6.485  13.931
30689W        W 2415  25.732  38.526  12.904
30690W        W 2416  28.416   0.343   2.695
30691W        W 2417   0.312  30.923  12.892
30692W        W 2418  29.023   6.700   2.932
30693W        W 2419  13.535  42.708   4.293
30694W        W 2420   1.406  23.697   4.576
30695W        W 2421  29.108  16.307   4.603
30696W        W 2422  42.928  33.928  14.549
30697W        W 2423  21.146  19.179  10.586
30698W        W 2424   9.378  32.961  13.431
30699W        W 2425  39.866  20.809  13.270
30700W        W 2426  38.609  23.474   1.777
30701W        W 2427  38.145  10.893   0.390
30702W        W 2428   6.883  17.174   3.212
30703W        W 2429   2.525  28.687  11.093
30704W        W 2430   0.969  34.581  14.585
30705W        W 2431  27.058   0.182   3.796
30706W        W 2432  10.436  17.553  13.963
30707W        W 2433  36.044  38.382   3.126
30708W        W 2434  21.128  21.987   4.654
30709W        W 2435  29.634  21.750   3.103
30710W        W 2436   4.163  18.222   0.379
30711W        W 2437  35.512  37.067   2.795
30712W        W 2438  36.638  28.574  14.418
30713W        W 2439  40.532  42.024   0.219
30714W        W 2440  31.294  22.276  13.291
30715W        W 2441  42.822  40.950   3.237
30716W        W 2442  25.450  22.795   3.640
30717W        W 2443   2.824  42.862  14.523
30718W        W 2444  26.124  27.188  14.751
30719W        W 2445  16.007   3.527   2.074
30720W        W 2446  10.527  19.874   1.749
30721W        W 2447  33.942   3.448  12.476
30722W        W 2448  13.321  27.417  12.472
30723W        W 2449   8.127  25.719  13.975
30724W        W 2450  43.315  19.657   1.882
30725W        W 2451  29.206  35.452   0.799
30726W        W 2452  41.289  42.447  14.081
30727W        W 2453   9.130  14.067  13.625
30728W        W 2454  29.097  31.446   0.489
30729W        W 2455  11.018  21.682  14.516
30730W        W 2456  22.221  27.030  11.652
30731W        W 2457  11.836  10.479  12.037
30732W        W 2458   5.158  34.924   1.603
30733W        W 2459   2.948  32.855  12.105
30734W        W 2460  24.589  20.693   1.852
30735W        W 2461  38.368  35.356  13.080
30736W        W 2462  34.032  14.370  13.970
30737W        W 2463   9.836   8.188  11.530
30738W        W 2464  10.535  15.769  11.234
30739W        W 2465  21.679   5.404  11.429
30740W        W 2466  14.230   9.988   0.514
30741W        W 2467  25.562   1.729   2.697
30742W        W 2468  18.227  44.542   0.292
30743W        W 2469  27.579  26.309  12.611
30744W        W 2470  15.177  38.569   3.346
30745W        W 2471  18.683  38.846   2.744
30746W        W 2472  41.019   9.379   1.377
30747W        W 2473   1.946   1.412  12.338
30748W        W 2474  43.513  30.231  10.979
30749W        W 2475   9.804  10.416   2.797
30750W        W 2476  22.173  30.939  14.987
30751W        W 2477   1.586  19.749  11.027
30752W        W 2478  14.327  41.582  11.136
30753W        W 2479  37.085   8.721   4.515
30754W        W 2480  40.483   1.637   3.714
30755W        W 2481  40.575  31.809  14.763
30756W        W 2482  26.413  35.909  13.793
30757W        W 2483  10.384  22.928  14.862
30758W        W 2484   4.371  34.956   1.630
30759W        W 2485  33.349  33.940   1.374
30760W        W 2486   9.926  38.440   0.286
30761W        W 2487   6.269  13.264   4.131
30762W        W 2488  33.456   6.241  10.560
30763W        W 2489  28.649  38.418  10.735
30764W        W 2490  12.214  17.918   1.986
30765W        W 2491  33.366   0.936  13.842
30766W        W 2492  13.540   4.562   0.330
30767W        W 2493   4.996   3.802   4.370
30768W        W 2494  39.904  41.573   1.177
30769W        W 2495  40.090   8.686   1.343
30770W        W 2496  32.858  42.698   3.158
30771W        W 2497  28.039  40.259   3.357
30772W        W 2498  44.535  22.860   4.995
30773W        W 2499  32.536  44.438  12.646
30774W        W 2500  34.810   6.326   0.956
30775W        W 2501  38.428  30.754  10.444
30776W        W 2502  11.105  20.581  11.477
30777W        W 2503  30.881  17.736  13.323
30778W        W 2504  43.000  43.901  14.066
30779W        W 2505  39.017  41.005  11.100
30780W        W 2506  27.124  35.289  11.394
30781W        W 2507  21.598  35.366   4.900
30782W        W 2508  33.373  43.850   2.680
30783W        W 2509   7.637  33.855  14.324
30784W        W 2510  35.303  34.514   4.895
30785W        W 2511  40.017   7.826   1.456
30786W        W 2512   4.404  27.963   1.820
30787W        W 2513  22.331  18.209   3.834
30788W        W 2514  39.075  44.820   4.460
30789W        W 2515   9.190  34.883  12.095
30790W        W 2516  43.973  43.954   2.712
30791W        W 2517  14.778  17.550   3.115
30792W        W 2518   3.593  39.944   4.419
30793W        W 2519  10.861  30.460   4.198
30794W        W 2520   1.801  41.379   4.700
30795W        W 2521  24.007  32.532  10.666
30796W        W 2522  35.480  15.326  14.526
30797W        W 2523   4.315  32.337  14.800
30798W        W 2524  22.572  21.248  14.460
30799W        W 2525  37.099  21.182   0.491
30800W        W 2526  22.610  35.390   1.227
30801W        W 2527   6.562   8.551   1.925
30802W        W 2528  20.555  13.017   0.295
30803W        W 2529  11.891  27.624   4.565
30804W        W 2530  42.722  42.878  13.961
30805W        W 2531  37.841  24.157   2.765
30806W        W 2532  41.977  19.610   1.696
30807W        W 2533  41.827  17.133   1.275
30808W        W 2534  12.051  41.880   0.813
30809W        W 2535  29.661   8.361  13.877
30810W        W 2536  29.038  24.555   5.332
30811W        W 2537  21.291  11.736  13.277
30812W        W 2538  24.760  29.025   1.766
30813W        W 2539  40.239  20.225  11.818
30814W        W 2540  18.160  19.256  13.863
30815W        W 2541  20.084   8.418   2.799
30816W        W 2542  37.422  32.365   0.197
30817W        W 2543  17.360   0.379   4.418
30818W        W 2544  41.478  32.596   4.612
30819W        W 2545  36.627  10.555  12.112
30820W        W 2546   6.260   0.694  14.853
30821W        W 2547   1.249  43.858   1.870
30822W        W 2548  22.454  42.011  14.070
30823W        W 2549  27.971  24.530   1.899
30824W        W 2550  11.612   5.543   0.412
30825W        W 2551   6.341  22.489   2.790
30826W        W 2552  35.553  21.079  11.579
30827W        W 2553   6.936  27.074  11.634
30828W        W 2554  12.082  33.635  10.131
30829W        W 2555   2.318  22.810   4.661
30830W        W 2556   0.933  15.048   1.723
30831W        W 2557  11.978  22.952   0.145
30832W        W 2558  43.994  36.840   3.406
30833W        W 2559  15.248  30.845  12.392
30834W        W 2560   8.740  19.018   4.638
30835W        W 2561  14.917   1.464  13.442
30836W        W 2562  25.148  34.627  13.500
30837W        W 2563  40.318  27.383   2.316
30838W        W 2564  39.761   3.868  13.003
30839W        W 2565  37.988  22.606   0.494
30840W        W 2566  19.745  37.388   0.481
30841W        W 2567  22.253  31.642   4.934
30842W        W 2568  13.972  22.302  11.912
30843W        W 2569   2.533  12.647  11.547
30844W        W 2570  40.105  32.557   2.201
30845W        W 2571  39.466  41.515  11.527
30846W        W 2572  21.265  29.179   3.222
30847W        W 2573   0.338  31.683  11.939
30848W        W 2574  25.265   2.821  13.398
30849W        W 2575  31.046  14.346  10.994
30850W        W 2576  34.202   8.985   4.692
30851W        W 2577  39.336   9.901  13.454
30852W        W 2578  43.947  17.790  12.147
30853W        W 2579  13.639   0.823  13.453
30854W        W 2580  27.565  12.647   1.425
30855W        W 2581   6.797   6.283  11.439
30856W        W 2582  17.601  27.083   1.745
30857W        W 2583   0.566  11.283   0.430
30858W        W 2584  25.219  26.844  14.139
30859W        W 2585  19.144   7.260   2.098
30860W        W 2586   6.116  39.066   4.623
30861W        W 2587  37.366  39.256  11.383
30862W        W 2588   8.262  10.308  10.294
30863W        W 2589   9.271   3.631   2.428
30864W        W 2590   8.759  31.868  11.130
30865W        W 2591  20.163   9.410   0.154
30866W        W 2592  27.736  23.228   1.686
30867W        W 2593   7.221  35.070  12.548
30868W        W 2594   6.375  30.355  11.152
30869W        W 2595  16.800  23.168   1.770
30870W        W 2596  23.622  40.617  10.646
30871W        W 2597   6.394  13.279  10.779
30872W        W 2598  40.068   0.410  13.184
30873W        W 2599  14.869  36.987   4.786
30874W        W 2600  12.616  41.818  14.048
30875W        W 2601   2.646  28.453   1.745
30876W        W 2602  14.555  17.894  11.686
30877W        W 2603   2.436  35.049  12.075
30878W        W 2604  10.107  40.366   1.691
30879W        W 2605   6.504  29.526  10.689
30880W        W 2606  41.557  27.315  11.151
30881W        W 2607  44.066  23.044  12.601
30882W        W 2608   1.474  14.262  14.700
30883W        W 2609  22.132  11.350  12.617
30884W        W 2610  11.848  38.529  11.120
30885W        W 2611   1.911   3.381  11.473
30886W        W 2612  38.979  34.820  14.542
30887W        W 2613   6.095  35.929  13.779
30888W        W 2614  44.973  26.226   2.868
30889W        W 2615   4.770   8.626   4.794
30890W        W 2616  44.900  30.205   1.870
30891W        W 2617  18.756  31.725  12.634
30892W        W 2618   7.493  43.800  12.073
30893W        W 2619  11.372  17.702  12.975
30894W        W 2620  40.420  19.777   4.174
30895W        W 2621  19.425  14.204  14.515
30896W        W 2622  40.521   1.950  13.450
30897W        W 2623  21.367  25.784   0.977
30898W        W 2624   0.783   2.020  13.429
30899W        W 2625  31.389  20.016  12.930
30900W        W 2626   5.958  41.027  13.949
30901W        W 2627  11.080   7.227  12.637
30902W        W 2628   6.374  18.796  12.838
30903W        W 2629  23.509  44.944  10.292
30904W        W 2630  36.556  44.471  13.475
30905W        W 2631  11.057   8.085  14.377
30906W        W 2632  24.154  11.682   1.474
30907W        W 2633  42.405   6.289  14.924
30908W        W 2634  30.736  33.176  13.023
30909W        W 2635  12.236  28.930  14.511
30910W        W 2636  14.132  12.677  13.259
30911W        W 2637  21.356   4.402   3.812
30912W        W 2638   8.628   5.834   2.309
30913W        W 2639  41.221  40.060   1.749
30914W        W 2640  17.975  35.388  12.228
30915W        W 2641   4.011   9.894  11.098
30916W        W 2642  16.703  10.016  12.412
30917W        W 2643  11.396  19.600   1.753
30918W        W 2644  26.685  25.339  12.444
30919W        W 2645  14.310  32.940   3.675
30920W        W 2646  44.579  31.816  13.476
30921W        W 2647  35.601  32.378  12.397
30922W        W 2648  30.485  39.344   1.342
30923W        W 2649   9.604  34.925   3.791
30924W        W 2650  15.426   6.013  13.457
30925W        W 2651   8.258  37.046   3.628
30926W        W 2652   6.449  19.746  13.641
30927W        W 2653  13.929   8.914   2.350
30928W        W 2654  32.734  30.602  14.573
30929W        W 2655  20.209  21.185  10.713
30930W        W 2656  43.783  17.584   3.440
30931W        W 2657   6.541  39.260  11.128
30932W        W 2658   1.368  34.969  13.499
30933W        W 2659   3.942   9.023   0.841
30934W        W 2660  16.732  13.606  13.998
30935W        W 2661  37.516  30.403  12.852
30936W        W 2662  18.144  11.949   2.931
30937W        W 2663  35.913  43.307   4.824
30938W        W 2664  27.098   1.456   1.351
30939W        W 2665  36.892  35.889   2.350
30940W        W 2666  38.398  27.921   4.051
30941W        W 2667  34.409  32.979   3.305
30942W        W 2668  13.146  36.310   0.172
30943W        W 2669  28.146  44.599   1.548
30944W        W 2670  30.156   1.275  14.331
30945W        W 2671  28.654  43.053   4.164
30946W        W 2672  18.319  36.916  14.484
30947W        W 2673  28.204  26.508  10.455
30948W        W 2674  21.306   3.116   4.361
30949W        W 2675  41.309   8.136  13.894
30950W        W 2676  24.143  43.907  12.851
30951W        W 2677   8.871  16.552  13.847
30952W        W 2678  22.669  27.602  12.802
30953W        W 2679  33.125   2.811  10.704
30954W        W 2680   5.737  41.547   2.286
30955W        W 2681  26.026  31.178  12.531
30956W        W 2682   0.700   7.868  10.981
30957W        W 2683  22.756  13.270  13.891
30958W        W 2684  44.402  32.138   9.989
30959W        W 2685  40.863  44.017  12.892
30960W        W 2686   9.124  35.054  13.609
30961W        W 2687  34.989  28.583  12.930
30962W        W 2688   7.392   2.262  14.998
30963W        W 2689   0.715  26.708   2.843
30964W        W 2690  21.085   7.708   4.779
30965W        W 2691  36.940  12.778   1.206
30966W        W 2692  17.516  16.756  14.013
30967W        W 2693   0.202  43.358   2.788
30968W        W 2694   5.913  13.310  11.960
30969W        W 2695  22.731  38.523   3.613
30970W        W 2696  27.596   1.230  11.495
30971W        W 2697  29.146  13.062  13.836
30972W        W 2698  38.410  13.963  12.441
30973W        W 2699  32.959   3.664  13.564
30974W        W 2700   1.959  35.879   4.061
30975W        W 2701  42.267  44.535  10.762
30976W        W 2702  13.444  12.323   3.176
30977W        W 2703  25.750  24.845  13.555
30978W        W 2704  20.855  34.014   0.893
30979W        W 2705  39.333  27.131  12.855
30980W        W 2706  36.963  19.227  11.877
30981W        W 2707  19.679  19.985  14.314
30982W        W 2708  39.575   3.453  10.983
30983W        W 2709  15.798   0.138   4.650
30984W        W 2710  11.637  10.814  14.942
30985W        W 2711   8.457  43.418   2.787
30986W        W 2712  39.960  28.073   3.161
30987W        W 2713  43.227  15.613   2.636
30988W        W 2714  12.741  24.482  12.983
30989W        W 2715  26.728  44.152   2.309
30990W        W 2716  11.594   4.790  11.011
30991W        W 2717  14.748   1.641  11.171
30992W        W 2718   7.302  44.234  14.340
30993W        W 2719  44.492  37.725   4.976
30994W        W 2720  31.070  37.932  12.320
30995W        W 2721  43.312  36.099   0.952
30996W        W 2722   4.504  11.827   4.604
30997W        W 2723  14.897   2.960   0.449
30998W        W 2724   9.564  29.142   1.903
30999W        W 2725  42.147  21.147  14.627
31000W        W 2726  27.226  30.197   0.441
31001W        W 2727  12.299  20.766  12.067
31002W        W 2728  37.597   5.463  13.810
31003W        W 2729  44.895  40.821  14.527
31004W        W 2730   7.770   8.142  14.468
31005W        W 2731  17.106  28.176  11.902
31006W        W 2732  27.580  20.799   3.856
31007W        W 2733  10.831  19.841  14.849
31008W        W 2734  14.246   6.278   4.639
31009W        W 2735   0.760  34.594   3.287
31010W        W 2736   9.260  36.848  13.102
31011W        W 2737  39.753  34.577   0.983
31012W        W 2738  34.694  12.561   4.192
31013W        W 2739   9.372  33.968  11.643
31014W        W 2740  20.732  31.485  10.833
31015W        W 2741  16.072   9.334  11.830
31016W        W 2742   2.473  11.851  13.371
31017W        W 2743  24.771  11.405  13.956
31018W        W 2744   4.953  36.500   4.117
31019W        W 2745  39.682   3.280  11.450
31020W        W 2746  39.761  35.492   0.880
31021W        W 2747  37.800  14.877   1.835
31022W        W 2748   0.849  17.686   0.480
31023W        W 2749  22.760  34.334  11.613
31024W        W 2750  17.607  29.843   1.791
31025W        W 2751  31.451   6.902   3.150
31026W        W 2752  15.747  28.464  11.169
31027W        W 2753  16.396  44.673   1.725
31028W        W 2754  31.481  20.703  11.677
31029W        W 2755  43.261   6.399   2.307
31030W        W 2756   8.094  11.611  10.581
31031W        W 2757  15.227  39.483   3.897
31032W        W 2758  43.925   8.216  12.070
31033W        W 2759  43.875  31.606  14.279
31034W        W 2760  17.210  34.578   0.662
31035W        W 2761  12.280  40.068  14.941
31036W        W 2762   1.364  19.313  10.484
31037W        W 2763   8.793  43.124  14.087
31038W        W 2764  42.760  30.536   3.003
31039W        W 2765   0.986  43.493  11.129
31040W        W 2766  28.302  14.257  10.008
31041W        W 2767  11.970  12.401   4.539
31042W        W 2768  32.712  36.558   2.768
31043W        W 2769  33.954  39.506   4.773
31044W        W 2770  27.534  11.582  13.407
31045W        W 2771  29.233  36.987  10.414
31046W        W 2772  34.462   1.930  14.312
31047W        W 2773  44.861  40.329   2.614
31048W        W 2774  40.338  11.275   0.683
31049W        W 2775  20.833  12.049   0.519
31050W        W 2776  42.207  11.722  10.560
31051W        W 2777  30.386   7.240  14.456
31052W        W 2778   4.967  22.252  12.926
31053W        W 2779  35.222  28.450   3.026
31054W        W 2780  14.106  19.129   3.004
31055W        W 2781  35.131   6.409   1.420
31056W        W 2782   5.625  39.094   4.765
31057W        W 2783  16.748  28.093  14.964
31058W        W 2784  22.010   4.374   2.761
31059W        W 2785  40.823  32.863  12.930
31060W        W 2786  16.079  10.846   3.276
31061W        W 2787  22.642  25.510   0.523
31062W        W 2788   7.444  37.174  11.444
31063W        W 2789  34.348  13.829  10.667
31064W        W 2790  34.660  37.579   2.894
31065W        W 2791   5.582  29.683  14.865
31066W        W 2792   5.399  32.753  14.299
31067W        W 2793  23.116  26.025   2.692
31068W        W 2794   9.709  27.095   1.858
31069W        W 2795   8.133  32.787   2.119
31070W        W 2796  28.896   2.350  13.720
31071W        W 2797  25.949   5.004   2.915
31072W        W 2798   1.093  34.030  12.355
31073W        W 2799   8.225   1.039   0.317
31074W        W 2800   9.545  41.936   4.674
31075W        W 2801  41.282  32.834  12.029
31076W        W 2802   8.857   1.851   1.215
31077W        W 2803  36.561   6.714   2.748
31078W        W 2804  32.624  30.071  13.315
31079W        W 2805  16.084  32.918   1.198
31080W        W 2806  35.493   9.410   4.485
31081W        W 2807   5.478  19.163  11.503
31082W        W 2808  33.983   8.098   0.837
31083W        W 2809  29.215   1.923   2.121
31084W        W 2810  10.354  33.142  11.712
31085W        W 2811  26.487  29.170   2.343
31086W        W 2812  28.444  34.989   2.157
31087W        W 2813  19.325  36.019  14.219
31088W        W 2814  13.869  20.187   3.246
31089W        W 2815  27.613  39.542  12.326
31090W        W 2816  12.745  17.080   2.804
31091W        W 2817   7.340  16.599  11.626
31092W        W 2818  17.243  30.072  10.436
31093W        W 2819  12.782  21.628   2.805
31094W        W 2820  39.386  44.294   1.798
31095W        W 2821  38.515  26.998   1.726
31096W        W 2822   8.366  28.555   4.893
31097W        W 2823  43.406  22.525   3.925
31098W        W 2824  41.729   0.728   4.672
31099W        W 2825   9.287  32.617   2.754
31100W        W 2826  29.656  41.926  11.858
31101W        W 2827  37.602  35.947  10.754
31102W        W 2828  34.950  41.275  11.094
31103W        W 2829  24.055  28.660   3.749
31104W        W 2830  11.932  42.793   0.486
31105W        W 2831   2.780  41.502  11.597
31106W        W 2832  21.818  28.137   1.686
31107W        W 2833  24.507  25.913   4.741
31108W        W 2834  26.094  37.486   0.227
31109W        W 2835   5.154  18.692  10.407
31110W        W 2836  33.795  44.039  10.490
31111W        W 2837   3.959  16.100  14.460
31112W        W 2838  44.296  20.104  13.932
31113W        W 2839   5.704  20.504   3.870
31114W        W 2840  36.569  32.479  13.502
31115W        W 2841  34.607  39.315  10.544
31116W        W 2842  10.310   6.570  14.445
31117W        W 2843  43.521   0.820  12.321
31118W        W 2844   1.762  25.983  13.972
31119W        W 2845  29.895  19.708   2.020
31120W        W 2846  35.780  38.397  13.926
31121W        W 2847  39.249  32.999  13.814
31122W        W 2848  18.712  11.372   2.330
31123W        W 2849  26.657  28.996   1.429
31124W        W 2850  19.151   3.021  10.696
31125W        W 2851  37.307  22.603   4.168
31126W        W 2852   2.235  36.155  12.476
31127W        W 2853  40.107  12.047  12.120
31128W        W 2854  11.347  25.590   1.317
31129W        W 2855   6.682  38.067  12.396
31130W        W 2856  24.244  26.213   1.646
31131W        W 2857   7.456  12.735   2.878
31132W        W 2858  38.382   7.110  11.840
31133W        W 2859  36.017  24.484   3.591
31134W        W 2860  11.807  40.513   1.360
31135W        W 2861   6.543  34.124   3.767
31136W        W 2862   5.384  31.174   2.322
31137W        W 2863  33.537  16.687  14.471
31138W        W 2864  39.906  23.217  13.698
31139W        W 2865  31.114  19.557   3.025
31140W        W 2866  40.074   0.545  12.118
31141W        W 2867  14.552  11.897   2.633
31142W        W 2868  19.696   9.642  14.926
31143W        W 2869   7.375  29.507  11.341
31144W        W 2870  32.973  26.900   3.722
31145W        W 2871   6.871   5.131   3.243
31146W        W 2872  23.739  20.765  13.974
31147W        W 2873  31.453  31.581   0.551
31148W        W 2874  27.315   6.408  14.947
31149W        W 2875  24.202  27.960  12.944
31150W        W 2876  34.273  43.860  10.602
31151W        W 2877  38.424  25.646  13.766
31152W        W 2878  16.286  14.379  11.429
31153W        W 2879  20.370   1.701  14.905
31154W        W 2880  38.421  27.943  13.208
31155W        W 2881  18.298  13.620  12.086
31156W        W 2882   0.304  36.862   2.091
31157W        W 2883  39.292  28.739  13.791
31158W        W 2884   6.833   6.222   4.653
31159W        W 2885  31.061  34.417  13.729
31160W        W 2886  17.807  39.210  12.327
31161W        W 2887  35.073   3.312  11.950
31162W        W 2888   4.818  10.603  11.821
31163W        W 2889   8.566  22.426  10.133
31164W        W 2890   8.700  34.915   3.542
31165W        W 2891  44.180   0.434   9.852
31166W        W 2892   7.935  25.735   2.294
31167W        W 2893  21.701  13.229  13.876
31168W        W 2894   4.541  13.294  13.097
31169W        W 2895  42.872   9.603   1.782
31170W        W 2896   9.749  21.914   0.617
31171W        W 2897  19.702   3.994  11.848
31172W        W 2898   3.832  42.905   4.605
31173W        W 2899  20.308  38.533  13.950
31174W        W 2900  13.216   4.647  10.696
31175W        W 2901   7.149   5.812  14.509
31176W        W 2902  25.437  42.982   0.282
31177W        W 2903  31.192  17.116  12.791
31178W        W 2904   7.405  20.312  13.394
31179W        W 2905   0.666  43.899   3.737
31180W        W 2906  28.427  39.896   3.280
31181W        W 2907  28.418  29.913  10.648
31182W        W 2908  21.084   2.220  13.760
31183W        W 2909  24.767   1.732   0.872
31184W        W 2910  43.261  16.481  14.822
31185W        W 2911  42.748  43.467   1.719
31186W        W 2912  35.779  42.894   3.143
31187W        W 2913   4.732   8.901   0.900
31188W        W 2914  44.246  39.550  12.075
31189W        W 2915   8.804   2.029  10.737
31190W        W 2916  13.692  26.694   4.372
31191W        W 2917  29.036  21.021  10.944
31192W        W 2918  20.493  38.581   1.252
31193W        W 2919  38.684  41.453  11.909
31194W        W 2920  34.319  23.696   2.885
31195W        W 2921  34.040  15.107  12.559
31196W        W 2922  23.725  17.031   2.286
31197W        W 2923  16.187  19.027   1.794
31198W        W 2924   0.966  19.242   4.087
31199W        W 2925  18.122  26.114   3.270
31200W        W 2926  36.987  19.777  13.412
31201W        W 2927  31.634  44.045  11.953
31202W        W 2928   5.284  14.338   2.642
31203W        W 2929  37.389  12.603   1.405
31204W        W 2930  43.301  19.031   2.684
31205W        W 2931  37.987  31.879   2.398
31206W        W 2932  17.319  26.384  12.034
31207W        W 2933  44.991  30.837   3.175
31208W        W 2934  26.196  15.052  12.434
31209W        W 2935  36.322  27.273  11.186
31210W        W 2936  20.058  23.496   4.519
31211W        W 2937  25.978  23.157   3.022
31212W        W 2938  34.056  34.619   3.314
31213W        W 2939  11.200  25.059   0.561
31214W        W 2940   0.831  19.623   3.716
31215W        W 2941  25.693  19.121   4.644
31216W        W 2942  19.780  21.988  14.309
31217W        W 2943  24.732   2.904   1.165
31218W        W 2944  21.238  15.659   1.333
31219W        W 2945   9.164  14.833   3.992
31220W        W 2946  42.477  22.211  11.552
31221W        W 2947  43.279  39.982  11.622
31222W        W 2948   6.689  13.355  14.295
31223W        W 2949  22.720  10.817   1.862
31224W        W 2950  42.305  19.100  14.531
31225W        W 2951  31.995  26.022   5.021
31226W        W 2952  17.155   3.454  11.671
31227W        W 2953   9.898   8.358   2.703
31228W        W 2954  31.500  15.190   1.314
31229W        W 2955  36.583  11.130  13.339
31230W        W 2956  28.390  40.543  13.795
31231W        W 2957   4.769   5.446  10.515
31232W        W 2958   4.755  27.388  11.195
31233W        W 2959   2.894  24.568  14.688
31234W        W 2960  33.386  23.166   0.476
31235W        W 2961  26.895  28.190   0.797
31236W        W 2962  40.342  40.731   5.233
31237W        W 2963  15.328  18.210   0.950
31238W        W 2964  29.428  14.200   0.831
31239W        W 2965  20.982  44.771  10.642
31240W        W 2966  26.586   2.417  11.631
31241W        W 2967  39.348  14.300  10.743
31242W        W 2968   6.289   4.692  14.750
31243W        W 2969  30.027  28.568  11.868
31244W        W 2970  33.969   6.899  12.069
31245W        W 2971  23.626   8.857   4.612
31246W        W 2972  18.695   8.911  10.747
31247W        W 2973  21.952  13.707  13.823
31248W        W 2974  23.086   4.809   2.392
31249W        W 2975  12.789  12.238   4.175
31250W        W 2976  10.165  11.808  10.761
31251W        W 2977  40.757   0.965   3.865
31252W        W 2978  39.652  42.367   4.443
31253W        W 2979  37.440  12.330  11.672
31254W        W 2980  20.160  10.877   0.507
31255W        W 2981  39.194  40.983  10.621
31256W        W 2982  16.771  39.385   2.255
31257W        W 2983  19.751  13.570  13.331
31258W        W 2984   7.620  17.098  12.051
31259W        W 2985  22.280  27.473   0.845
31260W        W 2986  25.156  22.676  12.426
31261W        W 2987  37.397  29.165   0.448
31262W        W 2988  21.678  26.105  11.547
31263W        W 2989  28.930   3.885  13.767
31264W        W 2990  36.381  16.241  14.593
31265W        W 2991  42.421  13.589  14.506
31266W        W 2992   8.656   2.196  13.927
31267W        W 2993  43.412  21.215  10.811
31268W        W 2994  34.065  24.630   4.328
31269W        W 2995  37.400  43.514   1.347
31270W        W 2996  29.747  39.985   0.593
31271W        W 2997  21.134  25.925  13.391
31272W        W 2998  25.116  36.086   4.386
31273W        W 2999  21.963  44.218   1.742
31274W        W 3000  26.180  35.516   1.631
31275W        W 3001  15.758  35.956   2.889
31276W        W 3002  27.023  27.001   0.971
31277W        W 3003  21.272  29.784  13.931
31278W        W 3004  20.723  25.693  13.624
31279W        W 3005   7.798  24.246   0.568
31280W        W 3006  13.367  16.467  13.925
31281W        W 3007  22.221  41.304  14.034
31282W        W 3008  10.389  22.983   2.317
31283W        W 3009  21.552  20.615   0.338
31284W        W 3010   8.738  28.488   1.159
31285W        W 3011  27.729  21.817  12.062
31286W        W 3012  38.951  22.194   3.449
31287W        W 3013   9.914   8.839  13.985
31288W        W 3014  12.111   9.865   4.580
31289W        W 3015  17.294  18.546  11.566
31290W        W 3016  25.008  31.377   0.134
31291W        W 3017  12.241  14.544  11.596
31292W        W 3018  20.545  10.094  13.094
31293W        W 3019   6.709   4.905  10.638
31294W        W 3020  25.970  29.660   3.792
31295W        W 3021   9.692  15.814   3.735
31296W        W 3022   4.149   2.220  13.765
31297W        W 3023  28.312  18.704   1.148
31298W        W 3024   7.905  22.266  14.881
31299W        W 3025  34.885  42.844  14.450
31300W        W 3026  38.520  41.360  14.625
31301W        W 3027   5.273  25.967   0.130
31302W        W 3028   8.923  34.083  14.029
31303W        W 3029  15.224  41.575  14.078
31304W        W 3030  32.572   6.011  11.019
31305W        W 3031  14.666   0.471   3.869
31306W        W 3032  33.999  36.131   2.640
31307W        W 3033  29.504  19.029   0.323
31308W        W 3034  28.817  22.012   2.535
31309W        W 3035  17.571  35.311  13.958
31310W        W 3036  40.009   3.316   2.027
31311W        W 3037  24.812   2.657  10.926
31312W        W 3038  14.529  38.961   9.838
31313W        W 3039  30.624  38.337   2.445
31314W        W 3040  40.482  34.048   0.631
31315W        W 3041   0.665  44.348   2.201
31316W        W 3042   5.979  18.910  13.167
31317W        W 3043  18.491  36.857  11.572
31318W        W 3044   1.930  26.437   2.829
31319W        W 3045  28.718   3.833   0.093
31320W        W 3046  37.302   8.956   4.101
31321W        W 3047  22.034  36.531  10.808
31322W        W 3048  25.824  34.924   0.774
31323W        W 3049  26.128  39.541  10.652
31324W        W 3050  12.170   2.199  13.628
31325W        W 3051   9.991   1.458   2.747
31326W        W 3052  35.554  15.757  13.490
31327W        W 3053  21.102  43.399  12.371
31328W        W 3054  22.280  18.146   4.862
31329W        W 3055  32.360   6.429   1.742
31330W        W 3056   1.442  43.353  13.697
31331W        W 3057  13.883  31.661   3.196
31332W        W 3058  37.065  10.636  11.619
31333W        W 3059  44.857  27.104   3.212
31334W        W 3060  38.465   3.660   0.224
31335W        W 3061  36.134  17.064   0.752
31336W        W 3062  39.229  44.278   4.694
31337W        W 3063  21.015  40.700   1.474
31338W        W 3064  29.134   9.626   1.114
31339W        W 3065  44.593  44.692  13.996
31340W        W 3066   6.637  11.493   4.253
31341W        W 3067   6.201   7.908   4.312
31342W        W 3068  41.983  41.111   3.202
31343W        W 3069   5.372  24.510  10.960
31344W        W 3070  29.498   0.797  13.117
31345W        W 3071   1.920  21.162   4.150
31346W        W 3072  41.773  37.799  12.525
31347W        W 3073  31.537  25.416   0.731
31348W        W 3074   4.913  25.228   3.177
31349W        W 3075   3.845  37.821   3.796
31350W        W 3076  25.686  29.656   4.613
31351W        W 3077   9.413  23.001   3.302
31352W        W 3078  28.903  22.664  14.858
31353W        W 3079  10.695   3.474   4.168
31354W        W 3080  19.134  33.661  14.838
31355W        W 3081  35.373   7.483  12.897
31356W        W 3082   6.758  19.297  12.846
31357W        W 3083  33.004  31.296   2.739
31358W        W 3084  27.211  29.224  14.419
31359W        W 3085  38.759   9.699   3.224
31360W        W 3086  32.516  34.056   4.112
31361W        W 3087  40.774  23.210  13.787
31362W        W 3088  12.836   1.281   3.697
31363W        W 3089  40.096  30.416   0.914
31364W        W 3090  39.256  25.712  11.566
31365W        W 3091   4.245  25.186   2.362
31366W        W 3092  18.666  12.544   4.497
31367W        W 3093   6.241  10.118   4.793
31368W        W 3094  30.577  13.376   4.600
31369W        W 3095  42.365  40.457  13.982
31370W        W 3096  19.563  21.526  12.251
31371W        W 3097   5.908  13.759  14.725
31372W        W 3098  22.140   4.732  11.897
31373W        W 3099  32.020  18.534  11.118
31374W        W 3100  19.095   8.369  14.983
31375W        W 3101  22.442   7.973  14.348
31376W        W 3102  34.487  14.751  11.510
31377W        W 3103  16.125  21.096   4.153
31378W        W 3104  24.741  16.771   0.712
31379W        W 3105  15.820  32.885   1.882
31380W        W 3106   8.593  41.094   3.043
31381W        W 3107  28.402   5.762   9.854
31382W        W 3108  37.272  11.802  14.958
31383W        W 3109  28.527  27.387  12.440
31384W        W 3110  40.500  12.598  11.571
31385W        W 3111   1.727  42.464   3.800
31386W        W 3112  32.958   9.390  13.495
31387W        W 3113  25.370  35.855   1.800
31388W        W 3114   9.245   1.917  14.033
31389W        W 3115   7.041  19.622  12.462
31390W        W 3116  40.080  28.940   3.720
31391W        W 3117  40.769  44.474  11.555
31392W        W 3118  43.726   1.735  10.535
31393W        W 3119  12.941  26.707   2.229
31394W        W 3120  34.204  30.152   2.390
31395W        W 3121   7.853  16.301   0.552
31396W        W 3122  20.084  44.460  12.162
31397W        W 3123   4.870  38.071   1.242
31398W        W 3124  30.067  28.746   4.193
31399W        W 3125  33.668   0.317  13.782
31400W        W 3126  31.855   8.291   2.184
31401W        W 3127  25.771   9.264  10.573
31402W        W 3128  19.725  41.508  11.969
31403W        W 3129  36.911  37.168   2.896
31404W        W 3130  30.966  44.405  11.474
31405W        W 3131  25.117  28.033   4.551
31406W        W 3132  15.524  15.446  14.925
31407W        W 3133  12.672  28.448   4.492
31408W        W 3134  25.517  44.245   4.737
31409W        W 3135   8.815  39.499  11.015
31410W        W 3136  19.637  27.649  13.438
31411W        W 3137  10.360   1.942  13.881
31412W        W 3138  37.463   2.054  14.659
31413W        W 3139  13.329  44.958   0.813
31414W        W 3140  15.252  26.094  12.936
31415W        W 3141   0.949  18.150   2.321
31416W        W 3142  33.387  41.336  10.047
31417W        W 3143  38.704  17.228  14.838
31418W        W 3144  36.308  24.645   3.196
31419W        W 3145  26.243  35.593   2.140
31420W        W 3146  22.240   3.211   1.020
31421W        W 3147  32.094  14.675   2.816
31422W        W 3148  38.583   7.265   2.963
31423W        W 3149   1.185  22.701  14.876
31424W        W 3150   8.406   4.074  12.221
31425W        W 3151  28.032  14.515   0.094
31426W        W 3152   1.484  18.974  11.628
31427W        W 3153  29.072  25.575  14.991
31428W        W 3154  22.803  29.352   4.070
31429W        W 3155  44.412  28.739  11.140
31430W        W 3156   0.689   4.861   4.100
31431W        W 3157  21.238  31.045   2.614
31432W        W 3158  20.811  15.729   4.757
31433W        W 3159   2.727  26.457  10.738
31434W        W 3160  14.065  18.669   4.271
31435W        W 3161  32.919  39.374   0.450
31436W        W 3162  42.180  30.902   2.276
31437W        W 3163  21.938  18.149   3.242
31438W        W 3164  15.804  13.722  13.539
31439W        W 3165   6.157  27.944  10.228
31440W        W 3166  30.167  44.661   1.653
31441W        W 3167   9.039  41.027   3.298
31442W        W 3168  23.147  37.476   2.200
31443W        W 3169  20.775  29.336  11.719
31444W        W 3170  10.111  11.852   4.146
31445W        W 3171  10.615   4.726   3.991
31446W        W 3172  44.814  27.721   0.483
31447W        W 3173  13.287  30.978   2.223
31448W        W 3174  41.906  33.370  10.747
31449W        W 3175  27.896   3.212  13.078
31450W        W 3176  29.704  43.940  13.405
31451W        W 3177   9.630  37.624  14.252
31452W        W 3178  40.871  34.907  13.507
31453W        W 3179  35.388  29.609   2.781
31454W        W 3180  31.828  44.229  11.476
31455W        W 3181  36.081   6.989   2.738
31456W        W 3182   6.304  14.715  12.139
31457W        W 3183  19.608  26.522  14.060
31458W        W 3184   7.731  37.182  14.910
31459W        W 3185  35.307  24.540   3.101
31460W        W 3186  19.608  23.532   4.776
31461W        W 3187  20.272  23.053  13.811
31462W        W 3188  23.994  42.189   4.244
31463W        W 3189  38.105  19.661  12.451
31464W        W 3190   2.762  29.112   2.655
31465W        W 3191  33.066  41.840  13.760
31466W        W 3192   6.815  12.108  13.827
31467W        W 3193   7.303  23.301  11.608
31468W        W 3194  12.855  16.333   4.363
31469W        W 3195  27.335  12.271  14.816
31470W        W 3196  22.105  42.399   0.760
31471W        W 3197  25.752  11.226   0.465
31472W        W 3198  12.868  30.513   4.580
31473W        W 3199   0.382  37.842   5.296
31474W        W 3200   5.621   8.764  12.449
31475W        W 3201  30.512  11.960   1.397
31476W        W 3202  17.996  16.674  12.074
31477W        W 3203  18.594   6.998   4.766
31478W        W 3204   4.136   4.777   3.703
31479W        W 3205  37.637   8.479   3.248
31480W        W 3206  29.495  39.548   1.335
31481W        W 3207  20.424  13.844  14.953
31482W        W 3208  35.447  34.431  10.462
31483W        W 3209   0.511   4.369   2.198
31484W        W 3210  27.068  39.735  12.866
31485W        W 3211  18.593  14.332   2.931
31486W        W 3212  19.398  22.105   2.299
31487W        W 3213  29.707  12.102   5.128
31488W        W 3214  10.435  10.191   3.608
31489W        W 3215   0.670  22.089   3.032
31490W        W 3216   3.430  22.837  13.925
31491W        W 3217  30.780  31.570   0.006
31492W        W 3218  16.847  22.315  13.438
31493W        W 3219   6.172  11.342  14.230
31494W        W 3220  37.060  32.757   5.088
31495W        W 3221  32.655   6.508  10.996
31496W        W 3222  24.304   1.905   1.079
31497W        W 3223  43.353   9.696   0.191
31498W        W 3224  28.594  15.140   4.328
31499W        W 3225  13.168  16.322  13.403
31500W        W 3226   1.761  37.176   4.194
31501W        W 3227  29.159  17.255  12.872
31502W        W 3228  35.456  18.897  12.060
31503W        W 3229   7.371  36.413   4.569
31504W        W 3230   0.974  23.742  12.698
31505W        W 3231   6.263  15.066   0.519
31506W        W 3232   7.173  13.164   2.752
31507W        W 3233   6.301  15.702  10.918
31508W        W 3234  17.602   9.339  12.086
31509W        W 3235   9.614  20.763   3.783
31510W        W 3236   7.524   6.399  14.584
31511W        W 3237  23.025  33.152  14.536
31512W        W 3238   1.743  38.526  14.511
31513W        W 3239  29.590  30.463   4.162
31514W        W 3240  23.733  27.131   9.873
31515W        W 3241  34.641  37.582  14.819
31516W        W 3242  41.993   7.020  10.700
31517W        W 3243  21.835   9.149  10.960
31518W        W 3244  44.876  36.883  12.579
31519W        W 3245  42.994  38.882  14.456
31520W        W 3246  16.575  12.354   2.872
31521W        W 3247   9.286  34.819  13.163
31522W        W 3248  32.999  29.942   1.343
31523W        W 3249  25.093  37.663  13.512
31524W        W 3250  19.999  35.733   1.173
31525W        W 3251   0.491  23.686   0.871
31526W        W 3252  35.272   5.075  12.075
31527W        W 3253  38.707  40.873  13.239
31528W        W 3254  15.597  22.269  14.867
31529W        W 3255  12.273  26.263  12.021
31530W        W 3256  20.332  38.032   4.262
31531W        W 3257   0.889  34.868  13.309
31532W        W 3258  16.158  32.220  14.470
31533W        W 3259  12.746  26.392   3.523
31534W        W 3260  36.419  40.570   2.700
31535W        W 3261  16.030   3.785   1.173
31536W        W 3262  25.930   6.634  11.614
31537W        W 3263  26.121   2.142  14.871
31538W        W 3264   2.823  17.357   0.764
31539W        W 3265  11.641  34.431   2.229
31540W        W 3266  27.534  38.937   2.336
31541W        W 3267  33.108  14.747   4.067
31542W        W 3268  22.831   6.189  11.571
31543W        W 3269  34.500   9.520   4.259
31544W        W 3270  28.367  35.133   1.662
31545W        W 3271   1.634   7.068  13.019
31546W        W 3272   6.110  12.102   0.919
31547W        W 3273  40.015  36.401  11.196
31548W        W 3274  36.393  14.251   4.126
31549W        W 3275   0.520  28.428   2.266
31550W        W 3276   9.131   6.021   0.913
31551W        W 3277  26.021  23.041  14.965
31552W        W 3278  36.568  27.064   3.202
31553W        W 3279  14.204   5.170   4.660
31554W        W 3280   1.505   2.048  11.183
31555W        W 3281  28.455  16.356  13.407
31556W        W 3282  30.581  28.501  14.271
31557W        W 3283  44.960  44.280  14.136
31558W        W 3284  17.241  34.843   2.733
31559W        W 3285  44.334   3.758  14.341
31560W        W 3286  23.219  39.083   0.050
31561W        W 3287  16.209  12.822   3.203
31562W        W 3288   8.393  31.441  12.973
31563W        W 3289  42.824   2.444  11.660
31564W        W 3290  20.158  43.547  11.888
31565W        W 3291  31.992  38.939  14.196
31566W        W 3292  20.210   8.679   0.739
31567W        W 3293  19.762   0.052   1.402
31568W        W 3294  25.609  28.409   1.733
31569W        W 3295   6.857  38.129   2.340
31570W        W 3296  16.041  13.029  12.621
31571W        W 3297  12.727  37.593   0.319
31572W        W 3298  43.998  41.916   1.853
31573W        W 3299  20.043  40.313  14.401
31574W        W 3300  25.023  10.208  12.971
31575W        W 3301   0.472  43.545  11.124
31576W        W 3302  28.636  18.102   4.520
31577W        W 3303  22.474  20.429  10.758
31578W        W 3304   2.339  23.428   1.433
31579W        W 3305   2.259  40.692  14.603
31580W        W 3306   5.520  28.967  11.540
31581W        W 3307  43.747  27.144  11.610
31582W        W 3308  30.506  10.920  14.351
31583W        W 3309  28.467  12.124   1.162
31584W        W 3310  34.527  36.901   3.703
31585W        W 3311  35.569  34.515   3.220
31586W        W 3312  28.889  32.884   2.494
31587W        W 3313   4.303  30.604  13.396
31588W        W 3314  18.215   6.750   2.946
31589W        W 3315  29.609  16.632  14.946
31590W        W 3316  38.433  33.037  12.594
31591W        W 3317  18.614  14.668   2.072
31592W        W 3318   3.283   5.235   4.503
31593W        W 3319  11.524  22.101  11.227
31594W        W 3320  23.715   2.034   2.747
31595W        W 3321  32.666  35.984  12.844
31596W        W 3322  34.598  23.573   2.432
31597W        W 3323  43.956  18.237  10.997
31598W        W 3324  30.439  14.935   0.841
31599W        W 3325  32.171  16.204   0.428
31600W        W 3326   9.927  30.527   3.889
31601W        W 3327  38.090  15.827  12.018
31602W        W 3328  29.490  12.212  11.639
31603W        W 3329  44.868  39.930  13.653
31604W        W 3330  10.458  26.631   2.747
31605W        W 3331   1.843  21.673  13.883
31606W        W 3332  19.967  19.092   3.394
31607W        W 3333  23.251   0.278   1.443
31608W        W 3334  40.062  43.802  10.627
31609W        W 3335   7.835  34.581  12.853
31610W        W 3336  21.156  21.478   0.278
31611W        W 3337   7.092   3.881  10.704
31612W        W 3338  12.611  36.093   3.323
31613W        W 3339  33.633  38.827  11.173
31614W        W 3340  19.682  15.806   5.033
31615W        W 3341  13.887  21.450   3.737
31616W        W 3342   4.720  20.020  12.028
31617W        W 3343  37.308  38.366  13.867
31618W        W 3344  28.154   0.457   3.127
31619W        W 3345  12.021  20.508  13.983
31620W        W 3346  35.563  42.099  11.030
31621W        W 3347   2.177  29.436   4.196
31622W        W 3348   1.521  42.513  14.958
31623W        W 3349  16.376  28.506  12.967
31624W        W 3350  44.502  25.283   3.245
31625W        W 3351   2.772  21.318  14.432
31626W        W 3352  11.774  32.542  13.726
31627W        W 3353  13.105  30.042  11.232
31628W        W 3354   2.697  26.563   4.224
31629W        W 3355  32.164   7.145  10.477
31630W        W 3356  31.652  23.767   4.216
31631W        W 3357  28.202  15.559   2.226
31632W        W 3358  32.994  31.679  10.452
31633W        W 3359  38.387  10.569  13.291
31634W        W 3360  16.392  13.786   2.924
31635W        W 3361   9.421  42.214  14.702
31636W        W 3362   3.280  10.874  10.795
31637W        W 3363  33.375  38.062   4.117
31638W        W 3364  28.093  19.669  12.805
31639W        W 3365  28.466   8.841   3.311
31640W        W 3366  30.489  41.783   0.653
31641W        W 3367  19.981   2.844  12.530
31642W        W 3368  36.437  42.388  13.477
31643W        W 3369  37.899  42.434   3.452
31644W        W 3370   1.799  32.963  13.577
31645W        W 3371  11.897  40.112  13.371
31646W        W 3372  15.262  16.352   0.196
31647W        W 3373  36.444   9.997   0.860
31648W        W 3374  21.509  38.002   2.319
31649W        W 3375  14.128   4.146  13.977
31650W        W 3376   8.162  27.546  11.176
31651W        W 3377  40.534  22.045  14.883
31652W        W 3378  32.665  36.644   4.732
31653W        W 3379  27.961  31.857  13.413
31654W        W 3380   8.540  32.491   2.221
31655W        W 3381  42.797  41.289   0.803
31656W        W 3382  12.826  21.503  10.685
31657W        W 3383  38.026  17.294   1.694
31658W        W 3384   8.261  27.767  12.978
31659W        W 3385  25.591  32.936   3.424
31660W        W 3386  38.764   9.464  10.637
31661W        W 3387   0.886  14.124   1.877
31662W        W 3388  40.964   9.113  14.544
31663W        W 3389  21.326  33.861  14.215
31664W        W 3390   1.034  29.595   3.236
31665W        W 3391   5.391  37.116   4.654
31666W        W 3392   1.899  26.594   3.747
31667W        W 3393  20.278  34.149   2.351
31668W        W 3394  14.275  19.045  13.952
31669W        W 3395  39.858  28.518   2.811
31670W        W 3396  24.236  23.706  10.205
31671W        W 3397  29.927  18.973   2.985
31672W        W 3398  16.176  33.421  13.034
31673W        W 3399  30.245  43.029  10.264
31674W        W 3400  44.527   4.041   4.900
31675W        W 3401  22.132  43.415  10.639
31676W        W 3402  15.332  17.238   2.580
31677W        W 3403   0.782   7.856  10.446
31678W        W 3404  27.657  35.518   4.049
31679W        W 3405  28.708  20.030  13.799
31680W        W 3406  10.843  16.663   0.738
31681W        W 3407  35.945   6.656   0.421
31682W        W 3408  26.123  11.217   0.835
31683W        W 3409  32.075  15.754  10.659
31684W        W 3410  40.738  34.984  14.529
31685W        W 3411   2.814  28.580   4.887
31686W        W 3412  13.864  39.790   4.538
31687W        W 3413   8.221  30.771   4.462
31688W        W 3414   0.994  40.107   3.354
31689W        W 3415   4.229  24.679   3.042
31690W        W 3416  29.791  24.206  13.341
31691W        W 3417   6.890  22.240   1.882
31692W        W 3418   9.212  19.112   0.815
31693W        W 3419  42.410  22.148  14.519
31694W        W 3420  33.791   5.492   3.173
31695W        W 3421  25.535   0.723   0.494
31696W        W 3422   9.721  31.517   2.772
31697W        W 3423  28.047  38.378   3.089
31698W        W 3424   2.931   7.604   0.391
31699W        W 3425  30.430  23.513   3.749
31700W        W 3426   2.268  30.046  12.924
31701W        W 3427  21.745  18.346  10.725
31702W        W 3428  13.851  38.521   5.611
31703W        W 3429   7.300  14.546   4.809
31704W        W 3430  11.325  33.367  14.861
31705W        W 3431  10.093   8.319  11.073
31706W        W 3432  18.721  10.068   2.121
31707W        W 3433   6.721  30.958  12.301
31708W        W 3434   8.784   7.732  11.574
31709W        W 3435  38.063  24.203   3.243
31710W        W 3436  15.343   1.292  12.657
31711W        W 3437  16.699  26.096  13.143
31712W        W 3438   8.735  11.865   1.056
31713W        W 3439  42.102   0.458  10.500
31714W        W 3440   6.352  14.107  10.238
31715W        W 3441  36.116  37.204  13.191
31716W        W 3442  15.227  30.558  14.946
31717W        W 3443  43.285  39.607   2.192
31718W        W 3444  16.917  26.435  12.430
31719W        W 3445  32.253   7.604   2.771
31720W        W 3446  13.139  41.011   1.192
31721W        W 3447  31.195   6.523   4.746
31722W        W 3448   0.427  22.017  14.968
31723W        W 3449  15.822  14.564   1.673
31724W        W 3450   4.019  24.498  12.889
31725W        W 3451  37.848   9.681  13.862
31726W        W 3452  17.320  19.746   4.103
31727W        W 3453  24.226  12.390   5.328
31728W        W 3454  20.116  23.851   4.114
31729W        W 3455   5.507  27.606   1.770
31730W        W 3456  36.561  18.701  14.400
31731W        W 3457  31.573  40.544  11.055
31732W        W 3458  42.802  38.931  13.981
31733W        W 3459  16.562   4.850  13.084
31734W        W 3460   9.901  10.743   2.396
31735W        W 3461  37.693   9.703  12.116
31736W        W 3462  15.737   2.259   4.181
31737W        W 3463   8.955  32.979   4.619
31738W        W 3464   3.867   1.805   0.935
31739W        W 3465  43.534  25.304   0.261
31740W        W 3466  12.102  10.993   0.844
31741W        W 3467  40.365  28.119  12.050
31742W        W 3468   4.373  35.946   1.782
31743W        W 3469  21.254  24.080   0.384
31744W        W 3470   7.398  26.855  11.647
31745W        W 3471  39.919   5.839   3.195
31746W        W 3472  34.200  37.946   0.715
31747W        W 3473  25.502  25.484   1.951
31748W        W 3474  20.740  13.830  11.510
31749W        W 3475  27.527  38.432   4.876
31750W        W 3476  25.628  31.499   1.306
31751W        W 3477  20.040  13.148   4.324
31752W        W 3478  39.788  42.743   2.291
31753W        W 3479  27.163   5.428   1.719
31754W        W 3480  25.013  23.282   2.331
31755W        W 3481  37.820  39.833  13.548
31756W        W 3482   6.252  18.887  13.633
31757W        W 3483  22.707  11.598  10.989
31758W        W 3484  24.258  21.990  13.863
31759W        W 3485  15.790  15.061   0.988
31760W        W 3486  13.831  18.593   1.464
31761W        W 3487  23.960   3.664  11.971
31762W        W 3488  29.443  15.273   2.258
31763W        W 3489  17.459   2.653   4.178
31764W        W 3490  32.619  13.233  11.617
31765W        W 3491  36.322  37.525   1.914
31766W        W 3492  37.893  34.443  14.066
31767W        W 3493  22.347   3.241  14.429
31768W        W 3494  14.592  32.881  14.874
31769W        W 3495  40.942  10.576   0.396
31770W        W 3496  44.717  43.159   2.708
31771W        W 3497  17.801  18.102   0.704
31772W        W 3498  26.506  30.554   1.873
31773W        W 3499  29.467  18.055   1.425
31774W        W 3500  25.270  29.058  12.886
31775W        W 3501  29.848  35.143   3.526
31776W        W 3502  33.293  34.420  11.012
31777W        W 3503  19.533  25.108  14.954
31778W        W 3504  19.140   0.581  14.421
31779W        W 3505  25.454  30.620  11.940
31780W        W 3506  37.927  31.536  13.615
31781W        W 3507  24.452  21.480  13.525
31782W        W 3508  23.749  22.271  11.652
31783W        W 3509  29.905  31.823   1.671
31784W        W 3510  31.800   2.333  13.029
31785W        W 3511   6.680  17.098   0.786
31786W        W 3512  16.274  43.069  12.873
31787W        W 3513   3.701  24.882  10.681
31788W        W 3514  23.423  27.481   3.224
31789W        W 3515  23.668  37.341   4.836
31790W        W 3516  11.904   5.311  12.890
31791W        W 3517  14.092  44.241   1.074
31792W        W 3518  13.999  10.553  11.072
31793W        W 3519  36.372   6.804  10.912
31794W        W 3520  34.592  36.933   2.833
31795W        W 3521  27.143   7.211  10.707
31796W        W 3522  14.519   1.854  13.753
31797W        W 3523  10.560  26.588   4.604
31798W        W 3524  37.277   7.863  13.022
31799W        W 3525  12.112  13.791   0.308
31800W        W 3526  44.819   7.004  12.937
31801W        W 3527  43.893  13.527   0.284
31802W        W 3528  29.114  20.745   0.007
31803W        W 3529  12.829  10.938  13.000
31804W        W 3530  44.473  43.904  14.328
31805W        W 3531   0.929  32.421  12.347
31806W        W 3532  23.537  16.008  14.760
31807W        W 3533  26.200  16.606   0.804
31808W        W 3534   1.199   5.862  12.414
31809W        W 3535  30.228  44.326   4.632
31810W        W 3536  37.489  38.379   1.345
31811W        W 3537  25.632   3.420  10.714
31812W        W 3538  18.461  20.026  12.961
31813W        W 3539  33.302   0.542   4.767
31814W        W 3540   6.244  17.357   4.267
31815W        W 3541  38.041  22.087  13.899
31816W        W 3542  42.929   0.766   1.543
31817W        W 3543  12.369  20.873  14.981
31818W        W 3544  34.732   8.517  12.621
31819W        W 3545  31.604  30.436  10.748
31820W        W 3546  29.039  10.344  14.993
31821W        W 3547  21.116   1.465   4.437
31822W        W 3548  29.527  19.684   4.149
31823W        W 3549  36.890  43.371  14.596
31824W        W 3550  20.136  30.162  14.390
31825W        W 3551  41.518   9.381   0.508
31826W        W 3552  39.627  21.321  11.113
31827W        W 3553   7.625  38.733   3.860
31828W        W 3554  44.078  27.716   0.204
31829W        W 3555  26.592   9.700   5.131
31830W        W 3556  28.682   7.776   2.799
31831W        W 3557  34.361  18.511  13.515
31832W        W 3558  21.030  31.940   2.623
31833W        W 3559  37.393  30.219   1.142
31834W        W 3560  35.414  37.667  12.531
31835W        W 3561   3.373  18.796   0.524
31836W        W 3562  36.953  43.862  14.406
31837W        W 3563  16.406   7.866   0.432
31838W        W 3564  18.712  12.604  12.471
31839W        W 3565  13.911  11.359   4.212
31840W        W 3566   4.688  30.709   2.033
31841W        W 3567  23.144   2.479  12.977
31842W        W 3568  13.130  38.504   2.881
31843W        W 3569  21.033  29.901   3.701
31844W        W 3570  13.928  11.378   1.265
31845W        W 3571  44.918  20.227   2.321
31846W        W 3572  33.084  44.486   2.187
31847W        W 3573  17.248  28.683   9.855
31848W        W 3574  18.942   3.832   1.124
31849W        W 3575   4.368  35.635  11.463
31850W        W 3576  20.787  12.868  11.398
31851W        W 3577  17.390  34.134   3.203
31852W        W 3578  38.962  25.134   1.747
31853W        W 3579  23.666  10.494   2.122
31854W        W 3580  13.137   6.434   1.407
31855W        W 3581  14.705  16.359   2.705
31856W        W 3582  40.312  26.767  12.934
31857W        W 3583  17.455   2.053  11.092
31858W        W 3584  26.453  38.985   1.265
31859W        W 3585  13.379  43.714  13.894
31860W        W 3586  28.514  30.692   1.765
31861W        W 3587  21.756  37.021   1.253
31862W        W 3588  36.658   2.815   3.798
31863W        W 3589  41.535  39.967  13.051
31864W        W 3590  37.300  20.250   2.768
31865W        W 3591  11.580  38.911  13.751
31866W        W 3592  42.290  42.587  13.880
31867W        W 3593  10.864  24.526  11.818
31868W        W 3594   8.246   7.891  14.490
31869W        W 3595  29.599  23.483   2.207
31870W        W 3596  36.642  26.089   4.625
31871W        W 3597  24.271  29.649   2.260
31872W        W 3598   4.720  33.332  11.094
31873W        W 3599  41.463  29.151  14.768
31874W        W 3600  10.254  27.601  14.972
31875W        W 3601  15.196  44.771  12.487
31876W        W 3602  39.060  35.877  10.145
31877W        W 3603  15.402  22.912  12.924
31878W        W 3604  36.828  18.583  11.191
31879W        W 3605  41.604  20.553   0.946
31880W        W 3606  36.324  43.876   2.783
31881W        W 3607  33.647  19.965  10.948
31882W        W 3608   7.620  39.137  13.365
31883W        W 3609  12.192  33.310   0.072
31884W        W 3610  22.147   4.328  12.684
31885W        W 3611  32.511  43.562   0.053
31886W        W 3612  44.385  33.341  12.852
31887W        W 3613  42.943  43.708   4.128
31888W        W 3614  38.321   6.366   3.932
31889W        W 3615  30.892  34.437  11.588
31890W        W 3616  38.320  28.271  14.946
31891W        W 3617  12.041  36.462  12.376
31892W        W 3618  11.105  33.923  11.091
31893W        W 3619   7.098   6.475   3.365
31894W        W 3620  44.937  43.927  14.942
31895W        W 3621  37.346  37.092   1.116
31896W        W 3622  16.282  40.887   3.359
31897W        W 3623  14.266  24.001   0.381
31898W        W 3624   7.963  34.095  13.974
31899W        W 3625  43.049  17.648  12.549
31900W        W 3626  24.425  30.555   4.137
31901W        W 3627  19.270   5.974   2.315
31902W        W 3628  17.424  38.416  13.995
31903W        W 3629   4.247   0.906   1.627
31904W        W 3630  11.542   5.446   4.964
31905W        W 3631  43.022   9.668  10.567
31906W        W 3632  21.202   5.665   0.340
31907W        W 3633  15.503  31.591  13.035
31908W        W 3634  39.762   3.293  12.352
31909W        W 3635   6.212  35.132   2.392
31910W        W 3636   6.718   4.715  10.147
31911W        W 3637  27.256   4.838   3.504
31912W        W 3638   7.498  31.881   4.120
31913W        W 3639  18.403  26.771   5.064
31914W        W 3640  12.210  43.785   2.823
31915W        W 3641   6.752  35.704   1.480
31916W        W 3642   4.902   0.237  11.061
31917W        W 3643  37.406   0.014  14.401
31918W        W 3644  24.605   4.836  12.520
31919W        W 3645  10.782  16.713   0.222
31920W        W 3646  36.041  17.855   3.318
31921W        W 3647   4.501  16.715   2.787
31922W        W 3648   5.474  28.188   2.649
31923W        W 3649  44.955   9.907   3.418
31924W        W 3650   5.903  23.695  14.315
31925W        W 3651  42.870  23.410   4.084
31926W        W 3652   7.396  43.274   4.139
31927W        W 3653  20.641  15.123   3.552
31928W        W 3654   1.008  30.332  10.875
31929W        W 3655  43.767   7.277   2.218
31930W        W 3656  33.594  34.658  10.116
31931W        W 3657  31.015  17.776  11.455
31932W        W 3658   4.722  30.359  13.561
31933W        W 3659  21.179  39.983  10.604
31934W        W 3660  30.765  15.678  11.117
31935W        W 3661  10.829  41.780   2.017
31936W        W 3662  28.123  20.494   2.461
31937W        W 3663  37.033  14.537   0.744
31938W        W 3664  40.415  39.000  10.278
31939W        W 3665  42.912  25.608   2.826
31940W        W 3666  37.512  19.531  11.054
31941W        W 3667  16.143  17.017   1.845
31942W        W 3668   6.791  13.721   3.295
31943W        W 3669  38.456  38.461  11.198
31944W        W 3670   2.777  11.230   0.797
31945W        W 3671  37.644  12.657  13.479
31946W        W 3672  31.329  42.886   3.737
31947W        W 3673  24.966   3.731   3.829
31948W        W 3674  17.833  24.152   2.855
31949W        W 3675  37.552  28.952  12.424
31950W        W 3676  39.468  38.907   1.495
31951W        W 3677  30.651  13.288  14.243
31952W        W 3678   4.459  19.454  14.671
31953W        W 3679  30.957  41.633   1.253
31954W        W 3680  14.306  20.080  14.881
31955W        W 3681  22.470   2.657  12.514
31956W        W 3682   9.353  30.483  14.244
31957W        W 3683  39.233  25.081   0.144
31958W        W 3684  16.763   3.845   4.665
31959W        W 3685  24.391  30.984  11.685
31960W        W 3686  32.053  43.327   2.666
31961W        W 3687  30.179  15.425   0.541
31962W        W 3688  10.524  40.264   3.868
31963W        W 3689  16.575  11.181  10.869
31964W        W 3690   6.478  26.293  12.677
31965W        W 3691   7.542  35.383  13.018
31966W        W 3692  23.730  11.174  13.528
31967W        W 3693  16.797  32.588   4.744
31968W        W 3694  10.613  15.963   3.118
31969W        W 3695  44.130   3.406  13.041
31970W        W 3696  20.507   4.420   4.177
31971W        W 3697  25.279  44.921   3.306
31972W        W 3698  36.406  26.931   1.764
31973W        W 3699  38.797  28.493  14.984
31974W        W 3700  39.797   4.573   4.595
31975W        W 3701  30.242  12.204  12.230
31976W        W 3702  11.025  43.718  12.468
31977W        W 3703  24.248  37.868   3.632
31978W        W 3704   5.243  10.193  14.825
31979W        W 3705  32.429   1.727  14.374
31980W        W 3706  30.154  19.246  13.473
31981W        W 3707  44.688  25.437   2.332
31982W        W 3708  30.128  44.059  12.013
31983W        W 3709  10.803   3.000   2.460
31984W        W 3710  26.829   1.754   5.029
31985W        W 3711  20.288  38.433   2.244
31986W        W 3712  12.617  33.612  13.737
31987W        W 3713  43.334  24.607  10.421
31988W        W 3714   8.881  32.352   1.841
31989W        W 3715  34.019  32.173   4.742
31990W        W 3716  42.840  44.487   2.247
31991W        W 3717  19.058  37.007   2.706
31992W        W 3718  34.977  42.691  11.472
31993W        W 3719  29.630  14.123   2.203
31994W        W 3720  20.538  35.993  13.000
31995W        W 3721   5.847  44.483   4.347
31996W        W 3722  37.876   8.029   2.076
31997W        W 3723   6.941  21.515   4.112
31998W        W 3724  32.870   5.304  13.867
31999W        W 3725  17.327  25.726  14.020
32000W        W 3726  41.871  39.317   0.320
32001W        W 3727  13.382  35.909   0.900
32002W        W 3728  14.214  26.085   3.178
32003W        W 3729  10.608  26.133  10.501
32004W        W 3730  29.973  12.688  12.028
32005W        W 3731  19.621  23.639   3.666
32006W        W 3732  42.037  35.383  10.648
32007W        W 3733  15.334   1.687   4.114
32008W        W 3734  17.984  24.708  11.916
32009W        W 3735  10.050  34.889  12.521
32010W        W 3736  15.678   8.260  10.804
32011W        W 3737   3.720   8.053   1.772
32012W        W 3738   4.851  25.412   4.844
32013W        W 3739   5.794  32.638  10.730
32014W        W 3740  41.395   0.384  14.042
32015W        W 3741  15.563  29.172  12.878
32016W        W 3742  43.105   6.437  10.865
32017W        W 3743   6.934   0.756   1.286
32018W        W 3744   1.761  35.543   3.360
32019W        W 3745  25.523  44.740   2.665
32020W        W 3746  16.852   3.463   1.991
32021W        W 3747   3.528  28.825   0.972
32022W        W 3748  14.330  30.617  13.478
32023W        W 3749   6.857   1.245  13.817
32024W        W 3750  44.765   4.293  14.848
32025W        W 3751  22.487  43.075  13.862
32026W        W 3752  37.960  15.490   1.314
32027W        W 3753  26.862  17.247  10.593
32028W        W 3754  44.955  10.880  11.677
32029W        W 3755  10.249  28.463  12.494
32030W        W 3756  16.172  44.435  11.514
32031W        W 3757   9.572  25.726  11.974
32032W        W 3758  39.282   0.971  13.060
32033W        W 3759  42.485  12.926  11.200
32034W        W 3760   7.425  22.787  10.416
32035W        W 3761   6.387  27.131   1.645
32036W        W 3762   1.930  19.751  11.415
32037W        W 3763  12.560  39.138  11.111
32038W        W 3764   5.014  10.594  13.315
32039W        W 3765   1.188   2.931  11.197
32040W        W 3766  16.833  26.558   3.532
32041W        W 3767   0.751  41.304   1.725
32042W        W 3768  43.897  19.268  10.943
32043W        W 3769  19.506  36.118   3.199
32044W        W 3770  36.216  28.183   4.449
32045W        W 3771  40.937  27.463   3.825
32046W        W 3772  21.067  42.585  13.534
32047W        W 3773   7.488  44.413  13.870
32048W        W 3774  31.347  41.201   3.186
32049W        W 3775  27.558  32.701  14.293
32050W        W 3776   3.748  44.249   3.985
32051W        W 3777  12.498  37.607   2.752
32052W        W 3778  28.921  16.249   3.250
32053W        W 3779   0.118  29.032  11.753
32054W        W 3780  37.957  32.309   2.097
32055W        W 3781  31.135  24.205   3.207
32056W        W 3782  24.996  20.629  14.487
32057W        W 3783  21.718  35.806  10.435
32058W        W 3784  24.517  31.635   0.732
32059W        W 3785  19.707   4.270   2.498
32060W        W 3786   3.260   3.659   2.099
32061W        W 3787  15.762   9.132  12.388
32062W        W 3788  23.446  26.527   4.206
32063W        W 3789  15.450  18.517   4.019
32064W        W 3790   9.115  11.737  11.468
32065W        W 3791  34.312  35.328  11.659
32066W        W 3792  41.423  10.392   0.334
32067W        W 3793   8.144  35.941  10.586
32068W        W 3794  17.762  43.985  12.181
32069W        W 3795  40.519  16.154   1.176
32070W        W 3796  44.989  12.322   4.780
32071W        W 3797  39.652  27.567   0.791
32072W        W 3798  34.582   3.851  13.021
32073W        W 3799  38.433  33.470  13.707
32074W        W 3800  44.990  39.395  11.374
32075W        W 3801  20.250  24.933  13.464
32076W        W 3802   5.911   2.354  11.907
32077W        W 3803  12.684   3.263  10.745
32078W        W 3804  40.034   6.225  10.682
32079W        W 3805  25.694  38.542  13.431
32080W        W 3806  17.721  20.201   0.241
32081W        W 3807  10.909  25.648   3.683
32082W        W 3808   0.961  26.465   3.752
32083W        W 3809  10.151  14.915  12.514
32084W        W 3810   4.058   9.615  12.050
32085W        W 3811  13.510  36.846  11.625
32086W        W 3812  22.955  14.314   0.360
32087W        W 3813  42.440   9.401  11.504
32088W        W 3814  34.479   8.954  12.887
32089W        W 3815  26.366  29.063   3.187
32090W        W 3816  26.039  24.416   3.295
32091W        W 3817  26.224  13.311   2.663
32092W        W 3818  44.430  15.708   3.163
32093W        W 3819  35.995  32.814  14.335
32094W        W 3820  32.875   7.427   1.916
32095W        W 3821   2.552  40.024   2.801
32096W        W 3822  19.335  40.357   2.168
32097W        W 3823  10.166  36.093   0.024
32098W        W 3824  20.681  41.929   3.645
32099W        W 3825   4.468  26.471   3.613
32100W        W 3826  19.229   4.765  12.464
32101W        W 3827  41.873   7.880   0.900
32102W        W 3828  42.890   7.243  12.623
32103W        W 3829  26.734  43.242   4.048
32104W        W 3830  27.673  12.824  10.413
32105W        W 3831  44.407  43.447   1.802
32106W        W 3832   8.190  35.059  10.652
32107W        W 3833  37.293   2.336  12.441
32108W        W 3834  14.923   6.430   0.494
32109W        W 3835  19.717   0.341   1.833
32110W        W 3836  31.687  32.466  11.506
32111W        W 3837  31.616  42.909  13.806
32112W        W 3838   8.405  41.298  10.692
32113W        W 3839   6.465  19.694   4.601
32114W        W 3840  40.382  23.165  10.891
32115W        W 3841  19.948   4.175  12.434
32116W        W 3842   1.463  24.985   2.192
32117W        W 3843   2.918  44.880   2.199
32118W        W 3844  43.994  21.658  12.728
32119W        W 3845  23.594  38.196   1.448
32120W        W 3846  15.031  26.158  12.465
32121W        W 3847   0.660   7.268   2.569
32122W        W 3848  33.118  27.620   1.820
32123W        W 3849   8.883  43.802   0.291
32124W        W 3850  29.672  22.129  12.991
32125W        W 3851  33.406   8.952  10.802
32126W        W 3852  42.301  32.777   2.362
32127W        W 3853  17.967  13.047  13.533
32128W        W 3854  24.475  23.665  14.366
32129W        W 3855   4.804  16.906  11.111
32130W        W 3856  17.818  19.054   4.150
32131W        W 3857  14.135  14.825   1.206
32132W        W 3858  34.147  15.766  12.139
32133W        W 3859  41.985  15.482  10.754
32134W        W 3860  37.305  18.072  13.878
32135W        W 3861  25.823  36.534   2.229
32136W        W 3862  39.882  31.149  11.214
32137W        W 3863  39.272  15.606   3.216
32138W        W 3864  22.183   1.709  14.347
32139W        W 3865  17.266  13.812  11.023
32140W        W 3866  42.173  23.108   2.025
32141W        W 3867   8.762  32.148   3.146
32142W        W 3868  19.772   3.529  11.159
32143W        W 3869  41.830  21.207   2.426
32144W        W 3870  11.311  25.639   0.310
32145W        W 3871   1.500  23.083  14.683
32146W        W 3872  23.474  42.881  10.193
32147W        W 3873  18.721  40.090  13.438
32148W        W 3874   8.743  44.796  14.524
32149W        W 3875  29.966  12.876  11.173
32150W        W 3876  23.164  26.994   2.187
32151W        W 3877  44.136  22.747   4.660
32152W        W 3878  33.956  43.577   0.432
32153W        W 3879  39.759  11.841   2.319
32154W        W 3880   7.705  17.948  10.250
32155W        W 3881  31.929  18.826  13.830
32156W        W 3882   4.596  39.310   4.003
32157W        W 3883  38.960  33.506   3.156
32158W        W 3884  28.075  41.824   3.042
32159W        W 3885   3.907   1.266   2.882
32160W        W 3886  43.465  17.150  14.512
32161W        W 3887  24.365  14.087   3.625
32162W        W 3888  19.614  29.610  10.603
32163W        W 3889  39.340  35.753   1.304
32164W        W 3890  26.241   9.177   2.319
32165W        W 3891  41.738  13.316   3.644
32166W        W 3892  44.927  14.890  14.846
32167W        W 3893  29.622  22.579  10.332
32168W        W 3894   5.899   4.155   9.712
32169W        W 3895  31.112  13.874   2.310
32170W        W 3896   2.183   1.124  14.476
32171W        W 3897  23.622  28.132   0.190
32172W        W 3898  17.236   7.391   0.825
32173W        W 3899   7.156  11.574   4.223
32174W        W 3900  25.476  29.505   3.673
32175W        W 3901  29.022  40.600   4.619
32176W        W 3902  33.236  33.982   2.022
32177W        W 3903  32.048  16.258  13.041
32178W        W 3904   7.059  16.862  12.888
32179W        W 3905   6.596  44.324   0.073
32180W        W 3906  28.207  26.029   0.749
32181W        W 3907   9.982  36.857  13.960
32182W        W 3908   7.577  30.349   4.108
32183W        W 3909  42.514   1.299  12.987
32184W        W 3910  39.403  22.765   1.535
32185W        W 3911  43.848  43.461   1.943
32186W        W 3912  35.989   2.162   2.324
32187W        W 3913   7.304   8.198   4.550
32188W        W 3914  14.290  25.157  14.815
32189W        W 3915  19.952  24.483  11.945
32190W        W 3916   5.389   5.434   5.027
32191W        W 3917  21.018  10.836  10.716
32192W        W 3918  31.620  26.031  13.586
32193W        W 3919  35.044  19.131   0.353
32194W        W 3920  39.412  18.232   2.255
32195W        W 3921  44.697   1.311   3.810
32196W        W 3922  33.506   7.404   0.600
32197W        W 3923   2.671  15.628   3.175
32198W        W 3924  32.512   0.283   3.301
32199W        W 3925  23.865  11.381  14.242
32200W        W 3926  17.828  20.123   3.279
32201W        W 3927  30.854  28.953  12.366
32202W        W 3928  32.007  24.144  10.629
32203W        W 3929   6.399  34.620   1.198
32204W        W 3930  38.959  23.371   4.477
32205W        W 3931  42.262   0.004  13.066
32206W        W 3932   0.893  22.974   3.202
32207W        W 3933  42.570  35.165  12.612
32208W        W 3934  26.018  26.145   0.520
32209W        W 3935   9.082  36.544  14.090
32210W        W 3936  40.043  29.148   4.562
32211W        W 3937   8.362  29.963   4.038
32212W        W 3938  41.280  30.414  14.387
32213W        W 3939  13.801  18.515  14.377
32214W        W 3940  21.619   5.743  14.853
32215W        W 3941   8.262  34.862   1.353
32216W        W 3942  19.030  44.953   2.199
32217W        W 3943  41.314  26.754   1.488
32218W        W 3944  43.893  25.227  13.409
32219W        W 3945  11.259  13.310  12.639
32220W        W 3946   9.692   7.407  12.145
32221W        W 3947   6.222  31.031  10.677
32222W        W 3948  14.606  38.417   4.823
32223W        W 3949  34.503  37.507   0.737
32224W        W 3950  21.669  12.272   2.878
32225W        W 3951  23.181   3.200   4.109
32226W        W 3952  34.154   6.316  14.022
32227W        W 3953   8.186  39.957  11.075
32228W        W 3954  37.044  26.744  14.015
32229W        W 3955  18.538   3.503   1.402
32230W        W 3956  18.639  31.159   3.404
32231W        W 3957  18.180  44.915  11.647
32232W        W 3958  21.650  19.779   2.729
32233W        W 3959   2.118  27.760   0.898
32234W        W 3960  22.590  15.949   5.007
32235W        W 3961  21.613  42.535  13.408
32236W        W 3962  19.738   3.260  10.721
32237W        W 3963  28.011  37.906  14.896
32238W        W 3964  22.586   9.874   0.888
32239W        W 3965  19.802  32.969  14.738
32240W        W 3966  25.251   0.211   3.746
32241W        W 3967  19.747  42.484  11.005
32242W        W 3968   9.307   9.215  13.919
32243W        W 3969  31.486  18.768   4.920
32244W        W 3970  36.292  38.410   3.591
32245W        W 3971  23.578  40.424   2.194
32246W        W 3972  10.114  32.301  13.639
32247W        W 3973  26.098  29.701  13.570
32248W        W 3974  33.040  22.764   4.605
32249W        W 3975  25.735  40.013   0.481
32250W        W 3976  30.631  29.177  13.043
32251W        W 3977  42.384   4.295   1.420
32252W        W 3978   9.117   8.041  11.887
32253W        W 3979  17.575   8.452   2.857
32254W        W 3980  17.705  35.118   0.408
32255W        W 3981  13.709   7.019  12.499
32256W        W 3982  10.173  27.055  11.155
32257W        W 3983   5.851  36.085  12.312
32258W        W 3984   9.362  38.771  12.006
32259W        W 3985  23.117  33.701  11.127
32260W        W 3986   4.463   5.808  12.095
32261W        W 3987  23.744  14.176  14.057
32262W        W 3988  44.801  13.544   1.067
32263W        W 3989  42.934  25.575   1.653
32264W        W 3990   6.428   7.766  10.139
32265W        W 3991   9.400  38.267  14.251
32266W        W 3992  19.509   2.514   3.682
32267W        W 3993   0.772  42.335  13.998
32268W        W 3994  40.576  17.177  13.338
32269W        W 3995  38.410  44.719  12.627
32270W        W 3996  23.114   4.148  14.420
32271W        W 3997   2.726  42.368  13.758
32272W        W 3998  28.442  38.067   1.867
32273W        W 3999   4.037  32.399   4.213
32274W        W 4000  32.006  44.743  10.559
32275W        W 4001  38.554  22.247  12.867
32276W        W 4002   1.503  28.088   1.352
32277W        W 4003  38.120  20.942  13.264
32278W        W 4004  34.466   6.213  13.602
32279W        W 4005  27.956  12.982   0.258
32280W        W 4006  37.437   9.664   3.626
32281W        W 4007  10.234  21.033  12.474
32282W        W 4008   7.961  27.688  12.566
32283W        W 4009  31.905  21.647  11.183
32284W        W 4010  30.630  31.849  13.483
32285W        W 4011   7.427  18.937  12.209
32286W        W 4012  30.063  22.569   0.634
32287W        W 4013  18.853   7.978  13.652
32288W        W 4014  24.923  33.590   2.911
32289W        W 4015  24.184  15.985   3.716
32290W        W 4016  17.253  31.615   1.119
32291W        W 4017  22.613   1.919  14.565
32292W        W 4018  40.092   5.740  14.538
32293W        W 4019  40.888   1.225   2.886
32294W        W 4020  25.161  24.159  13.440
32295W        W 4021  31.430  12.298  13.765
32296W        W 4022  30.104  33.518  12.001
32297W        W 4023  19.143  28.007   1.373
32298W        W 4024  31.011  41.901   5.614
32299W        W 4025  28.431  15.077   2.213
32300W        W 4026  39.624   6.545  12.914
32301W        W 4027   0.390  17.193   2.652
32302W        W 4028  26.141  33.847   4.151
32303W        W 4029  12.888   5.900  14.434
32304W        W 4030  31.120  31.514  14.581
32305W        W 4031  44.803  31.330  14.381
32306W        W 4032  40.502  15.140   1.190
32307W        W 4033  30.348  22.354  12.169
32308W        W 4034  32.995   4.296  11.279
32309W        W 4035  29.199  25.905   5.097
32310W        W 4036  31.915  30.463  13.482
32311W        W 4037  21.258  20.811   2.306
32312W        W 4038  10.535  18.879   1.154
32313W        W 4039  40.323   3.755  12.078
32314W        W 4040  35.270   0.052  11.392
32315W        W 4041  33.706  33.075  11.481
32316W        W 4042   9.368  14.807  14.176
32317W        W 4043  20.188  17.479  12.509
32318W        W 4044  33.862  15.321  13.003
32319W        W 4045  29.921  12.791   1.196
32320W        W 4046  25.962  44.777  13.797
32321W        W 4047  39.289  35.258  10.948
32322W        W 4048  20.462  22.125   3.654
32323W        W 4049  24.678  22.051   1.736
32324W        W 4050  13.114  29.020  13.484
32325W        W 4051   8.839  30.448  13.042
32326W        W 4052   3.674   4.268   1.519
32327W        W 4053  34.096  21.626   3.844
32328W        W 4054   7.301  25.966  10.699
32329W        W 4055  21.169  24.664   4.305
32330W        W 4056  13.512  28.814  11.036
32331W        W 4057  23.489  26.096   0.365
32332W        W 4058  14.788  33.341  12.073
32333W        W 4059   8.699   8.700   3.827
32334W        W 4060  38.144  38.848  11.105
32335W        W 4061  18.448  35.429   3.002
32336W        W 4062   9.783   9.187   2.169
32337W        W 4063  36.844  17.214  12.010
32338W        W 4064  32.169  35.378   4.164
32339W        W 4065  20.516  24.658  14.218
32340W        W 4066  38.437  34.867  10.517
32341W        W 4067  34.644  24.192   4.645
32342W        W 4068  44.874  38.498  10.923
32343W        W 4069  11.728  22.604   0.437
32344W        W 4070  19.399  21.018  12.309
32345W        W 4071  10.418  39.529  12.834
32346W        W 4072   0.864  29.764   4.191
32347W        W 4073   5.194   6.652   3.318
32348W        W 4074  24.254  35.961   4.574
32349W        W 4075  38.083  41.449   1.948
32350W        W 4076  39.112   6.154  11.468
32351W        W 4077  18.172  35.902  12.169
32352W        W 4078  38.951   3.187  11.064
32353W        W 4079   2.778  28.762  13.078
32354W        W 4080  25.104  32.641  13.456
32355W        W 4081  36.337  20.010  12.414
32356W        W 4082   2.425  24.842   0.017
32357W        W 4083  18.147   3.097  11.548
32358W        W 4084  19.354  23.725   5.202
32359W        W 4085   8.304  28.613   1.906
32360W        W 4086  26.650   1.893   0.916
32361W        W 4087   6.739   8.438   4.218
32362W        W 4088  18.071  20.873   1.744
32363W        W 4089  15.615   3.227  11.962
32364W        W 4090  43.351  43.758  11.011
32365W        W 4091  44.904  36.657  12.060
32366W        W 4092  20.331  43.986   1.260
32367W        W 4093  31.905   7.197  11.864
32368W        W 4094  44.233  12.625   3.231
32369W        W 4095  32.064   3.351   1.895
32370W        W 4096   9.392  27.446   2.836
32371W        W 4097  28.103  39.893   4.580
32372W        W 4098  38.955  39.222  13.825
32373W        W 4099  24.574   8.202   1.589
32374W        W 4100  20.325  40.041   4.231
32375W        W 4101  36.463  24.491  14.553
32376W        W 4102   7.276  41.419  11.463
32377W        W 4103  37.098  32.480   4.661
32378W        W 4104  10.294  13.697   4.087
32379W        W 4105  36.485  43.433  14.244
32380W        W 4106  25.478   6.392  14.416
32381W        W 4107  14.231  41.403   2.927
32382W        W 4108  12.116  41.893  10.873
32383W        W 4109  40.387   6.551   0.641
32384W        W 4110   8.837  36.915  14.365
32385W        W 4111  23.742  42.276  12.927
32386W        W 4112  25.667  26.105   4.011
32387W        W 4113  12.273   5.511   1.789
32388W        W 4114  20.693  40.288  11.108
32389W        W 4115   5.920  35.136  10.693
32390W        W 4116  18.665  12.695  14.360
32391W        W 4117   1.349  10.710  11.517
32392W        W 4118  41.605   3.288   2.662
32393W        W 4119   5.293  33.859   2.364
32394W        W 4120  21.260  39.449   2.252
32395W        W 4121  36.039  14.805   4.913
32396W        W 4122  29.738  33.072  12.048
32397W        W 4123  42.779  44.366  12.566
32398W        W 4124  21.118  41.822   3.265
32399W        W 4125  20.132  44.027  14.682
32400W        W 4126  12.118  28.016  13.492
32401W        W 4127  13.146   9.836   4.669
32402W        W 4128  34.902   0.495   0.663
32403W        W 4129   7.902  42.820  10.788
32404W        W 4130  15.677  16.257   2.388
32405W        W 4131  44.756  34.910   4.384
32406W        W 4132   1.903  32.679   3.537
32407W        W 4133   4.214  24.213  10.471
32408W        W 4134  29.073   0.647   0.458
32409W        W 4135   6.088   7.328  10.257
32410W        W 4136   8.692  36.634  10.018
32411W        W 4137  23.764  24.189  12.873
32412W        W 4138   4.070  23.668   1.907
32413W        W 4139  27.518  29.640  11.529
32414W        W 4140  24.240  35.698   3.713
32415W        W 4141  40.806  41.103  10.437
32416W        W 4142  36.353  24.013  12.428
32417W        W 4143   1.471   1.171   0.821
32418W        W 4144  39.558  36.164   1.821
32419W        W 4145  19.595  38.058  14.290
32420W        W 4146  13.918  37.896  13.265
32421W        W 4147  23.949  34.816   3.807
32422W        W 4148  14.333  33.316  12.500
32423W        W 4149  37.345  31.527  11.524
32424W        W 4150  42.780  44.641  14.371
32425W        W 4151  32.938   3.746  12.998
32426W        W 4152  32.363  37.020  14.374
32427W        W 4153  31.787  40.828   4.081
32428W        W 4154  20.106  11.705   0.870
32429W        W 4155  20.184  10.618   1.819
32430W        W 4156  44.893  26.709   0.516
32431W        W 4157   0.705  21.532  10.564
32432W        W 4158  18.804  15.674  13.609
32433W        W 4159  19.688  34.834   3.657
32434W        W 4160  17.761  15.160   0.928
32435W        W 4161  28.424  10.162   2.823
32436W        W 4162  28.406   7.179   3.644
32437W        W 4163  13.031  18.086   1.359
32438W        W 4164  19.173  18.596  12.855
32439W        W 4165  22.151  27.607   3.860
32440W        W 4166  24.577  36.732   1.013
32441W        W 4167  38.572  12.142   3.294
32442W        W 4168  24.172  35.423  13.444
32443W        W 4169  23.227  14.501   3.699
32444W        W 4170   2.218   7.381   5.249
32445W        W 4171   9.132  34.149  11.182
32446W        W 4172  11.325  16.089   1.354
32447W        W 4173  32.116  41.373  14.916
32448W        W 4174  36.109   4.418  10.927
32449W        W 4175   5.699  23.277  13.875
32450W        W 4176  43.964  42.261  14.046
32451W        W 4177  31.406  10.122  13.300
32452W        W 4178  37.525  27.315   3.173
32453W        W 4179  16.179  24.702  12.360
32454W        W 4180   5.093  32.624   3.682
32455W        W 4181  13.270  40.414  14.760
32456W        W 4182  28.205   6.364  11.527
32457W        W 4183  40.474   1.305  14.090
32458W        W 4184  39.870   6.917   1.273
32459W        W 4185  22.979  37.987   2.884
32460W        W 4186   5.819  35.391  11.636
32461W        W 4187  23.265  26.523  14.409
32462W        W 4188  39.745   3.234   0.018
32463W        W 4189  22.906  24.513   3.006
32464W        W 4190  43.682  40.889  12.261
32465W        W 4191  28.974   5.758  13.582
32466W        W 4192   1.691  33.913   3.708
32467W        W 4193  24.952  16.538  14.313
32468W        W 4194  29.939  37.497   1.813
32469W        W 4195   7.345  33.405  11.167
32470W        W 4196   2.261  16.537   3.325
32471W        W 4197  32.629   9.791  11.866
32472W        W 4198   7.701   1.526   4.141
32473W        W 4199  39.687  12.843   0.467
32474W        W 4200  26.735  32.076  11.996
32475W        W 4201   8.679  11.047  11.158
32476W        W 4202   2.930  26.456  10.265
32477W        W 4203  21.822  26.096   1.326
32478W        W 4204  37.521  37.961   2.139
32479W        W 4205   8.433  13.197  12.877
32480W        W 4206   3.797  14.615  11.190
32481W        W 4207   5.533   2.412   0.736
32482W        W 4208  24.601   0.393   2.800
32483W        W 4209   7.924  11.661   0.347
32484W        W 4210  25.316  39.149   5.004
32485W        W 4211  18.181  16.801  13.305
32486W        W 4212   2.834   9.239   2.902
32487W        W 4213  44.964  32.495  13.380
32488W        W 4214  10.133   5.936   4.654
32489W        W 4215  20.754  18.781   1.808
32490W        W 4216  13.749  17.403   4.877
32491W        W 4217  41.377   7.917  13.436
32492W        W 4218  14.248  12.041   0.029
32493W        W 4219  17.503  34.957  13.019
32494W        W 4220  25.693  44.992  10.925
32495W        W 4221  37.045  30.488   3.058
32496W        W 4222  17.588   2.475  14.065
32497W        W 4223  16.732  12.862   0.248
32498W        W 4224  22.293   9.911   2.167
32499W        W 4225  13.288   4.123   5.037
32500W        W 4226  43.378  43.178  10.634
32501W        W 4227  12.389  24.199   4.095
32502W        W 4228  44.775  26.354   2.406
32503W        W 4229   6.585  33.553   4.671
32504W        W 4230  23.563  14.118  14.524
32505W        W 4231  16.511  37.420   4.676
32506W        W 4232   1.349  44.478   0.600
32507W        W 4233  30.568   9.936   3.102
32508W        W 4234   4.218  27.703  11.948
32509W        W 4235  21.160  23.105  10.278
32510W        W 4236  28.533  11.743  13.961
32511W        W 4237  15.098  31.440   1.802
32512W        W 4238   5.374  31.659  14.377
32513W        W 4239   4.112  32.664  12.803
32514W        W 4240   2.757  12.945  12.841
32515W        W 4241   8.621  30.168  11.854
32516W        W 4242  20.511  38.925   2.422
32517W        W 4243  38.449   3.179  11.175
32518W        W 4244   0.780  27.251   0.490
32519W        W 4245  15.109  42.399  12.458
32520W        W 4246   8.881  19.057  10.471
32521W        W 4247  38.751  32.526  10.873
32522W        W 4248   9.492  42.457   0.197
32523W        W 4249  31.853  19.648  14.105
32524W        W 4250  25.241   3.260  14.393
32525W        W 4251  38.805  25.994  14.885
32526W        W 4252  27.420  11.278   2.867
32527W        W 4253  10.195  34.846   2.279
32528W        W 4254  20.588  29.224   2.170
32529W        W 4255  39.823  35.488  12.098
32530W        W 4256  10.192  11.339   4.178
32531W        W 4257  24.380  35.188   3.720
32532W        W 4258  29.229   5.828  12.602
32533W        W 4259   1.218  27.381  13.788
32534W        W 4260  24.608  39.781   4.575
32535W        W 4261   4.935  40.046   5.037
32536W        W 4262  36.143   1.439   1.758
32537W        W 4263   6.634   5.920  14.563
32538W        W 4264  32.109  26.490  10.121
32539W        W 4265  39.515  13.076  12.444
32540W        W 4266  16.873  10.841  10.622
32541W        W 4267   2.963  44.945   0.399
32542W        W 4268  21.227  31.775  13.701
32543W        W 4269  40.504  23.661  11.687
32544W        W 4270  28.745  38.988  11.510
32545W        W 4271  27.075  35.804   2.760
32546W        W 4272  24.475  31.433   2.789
32547W        W 4273  28.315  44.013   4.254
32548W        W 4274   1.690  35.536  11.934
32549W        W 4275  18.237  32.851   3.108
32550W        W 4276   8.185   5.000   4.196
32551W        W 4277  16.587  19.560  11.912
32552W        W 4278  22.156  16.206   2.282
32553W        W 4279  13.888  17.232  13.265
32554W        W 4280   4.359  20.625   2.745
32555W        W 4281  36.419   1.675  13.923
32556W        W 4282  41.717   1.959   3.191
32557W        W 4283   2.287  30.000  10.492
32558W        W 4284  44.409  34.463   4.143
32559W        W 4285  10.215  18.171  11.679
32560W        W 4286  42.058   4.393  12.228
32561W        W 4287   6.378  28.680   0.556
32562W        W 4288   8.057  42.477  11.201
32563W        W 4289  16.204  21.172   0.652
32564W        W 4290  30.158  34.637  13.832
32565W        W 4291  23.273  25.234  14.814
32566W        W 4292  35.929  26.910   4.132
32567W        W 4293  25.465   6.743  12.580
32568W        W 4294  32.945  43.424  11.218
32569W        W 4295  13.038   5.842   3.630
32570W        W 4296  37.470  34.644   3.803
32571W        W 4297  35.608   2.764   3.769
32572W        W 4298  38.341  13.690  12.903
32573W        W 4299  27.246  18.713   0.525
32574W        W 4300  25.412  40.401  13.348
32575W        W 4301  19.746  19.123   0.334
32576W        W 4302  33.099  43.785   1.300
32577W        W 4303   3.586   4.550   0.868
32578W        W 4304   5.743   3.975   5.504
32579W        W 4305  23.535  24.033   1.347
32580W        W 4306  30.620  10.647  13.884
32581W        W 4307   7.823  34.016   2.210
32582W        W 4308  36.990  33.165   1.849
32583W        W 4309  36.374  10.800   0.207
32584W        W 4310  21.040   9.249   1.637
32585W        W 4311  40.465  33.683   1.465
32586W        W 4312  12.789  22.950  14.608
32587W        W 4313   0.473  43.308   0.306
32588W        W 4314  42.475  30.210   4.303
32589W        W 4315  16.220  24.172   4.007
32590W        W 4316  25.025   0.367  13.003
32591W        W 4317   6.957  14.451  10.977
32592W        W 4318  20.636  23.485   2.227
32593W        W 4319  43.006  10.100   1.843
32594W        W 4320  34.496  37.431  12.384
32595W        W 4321  14.897  41.827   4.359
32596W        W 4322  15.761  19.610   1.249
32597W        W 4323  42.282   7.399  12.720
32598W        W 4324  10.206  10.913  13.546
32599W        W 4325  17.358  39.381  14.784
32600W        W 4326  34.066   3.786   1.160
32601W        W 4327  36.330  19.531  13.412
32602W        W 4328  10.024   9.247  12.913
32603W        W 4329   4.887  16.065   2.715
32604W        W 4330  12.546  13.196  10.756
32605W        W 4331  38.625   4.900   4.187
32606W        W 4332   8.851  39.590   0.938
32607W        W 4333  23.438  17.114  12.922
32608W        W 4334   2.703  28.991  14.346
32609W        W 4335  15.209  13.095   1.917
32610W        W 4336  41.022  36.016   1.898
32611W        W 4337  11.101  29.999   4.442
32612W        W 4338  33.048  32.031   3.303
32613W        W 4339  26.028   6.230   0.294
32614W        W 4340  17.229   4.503   0.755
32615W        W 4341  19.732  14.179  13.488
32616W        W 4342  33.044  40.493   0.926
32617W        W 4343   6.196  22.169   4.057
32618W        W 4344  11.764  26.279   2.465
32619W        W 4345  40.156  27.003   3.263
32620W        W 4346  10.811  26.584  10.719
32621W        W 4347  19.469  31.383  11.956
32622W        W 4348  18.485  12.358  13.556
32623W        W 4349  15.643  23.637  12.813
32624W        W 4350  16.589  17.762  12.648
32625W        W 4351  38.620   9.405   2.814
32626W        W 4352  30.963  32.110  11.056
32627W        W 4353   5.786  30.826   2.300
32628W        W 4354  24.612  10.735   0.164
32629W        W 4355  42.501  28.447  13.446
32630W        W 4356  11.565  32.091  13.554
32631W        W 4357  24.137  39.189  13.414
32632W        W 4358   2.824  19.227  13.454
32633W        W 4359  19.033  41.415   4.238
32634W        W 4360  26.881  37.319   1.367
32635W        W 4361  23.713  44.060   1.715
32636W        W 4362  27.864  40.350   2.435
32637W        W 4363  15.381   9.351  11.509
32638W        W 4364  30.902  20.724  14.007
32639W        W 4365   4.798  15.167  12.200
32640W        W 4366  27.984  11.153   3.887
32641W        W 4367  38.486  25.195  14.043
32642W        W 4368  25.712  36.674   1.507
32643W        W 4369  31.933  29.690   3.150
32644W        W 4370  30.521   9.486   2.184
32645W        W 4371  39.420  12.594   1.867
32646W        W 4372  40.498  26.016   2.248
32647W        W 4373   7.449   3.174   5.059
32648W        W 4374  37.297  27.746   0.281
32649W        W 4375  35.036  22.013   2.221
32650W        W 4376   3.727  26.884   0.046
32651W        W 4377   8.565  20.666   3.715
32652W        W 4378  20.932  27.286  10.587
32653W        W 4379  31.145  15.193  11.886
32654W        W 4380  15.589  40.286  11.951
32655W        W 4381  12.326  35.355  11.578
32656W        W 4382  30.678   7.623  11.136
32657W        W 4383  35.562   3.677   4.478
32658W        W 4384  19.602  40.837  13.790
32659W        W 4385  14.995  38.250   4.534
32660W        W 4386  12.778   4.707   4.240
32661W        W 4387   6.909  14.330  10.067
32662W        W 4388   4.938  32.533  13.135
32663W        W 4389  30.606  35.174  10.489
32664W        W 4390  40.050  44.875   0.008
32665W        W 4391  25.518  21.098  11.172
32666W        W 4392  14.778   7.170   2.186
32667W        W 4393   4.470  42.096   0.183
32668W        W 4394   9.261   0.059   0.316
32669W        W 4395  20.177  36.209  11.123
32670W        W 4396   6.326   8.612  13.804
32671W        W 4397  26.356  35.320  14.912
32672W        W 4398  44.588   4.710  11.174
32673W        W 4399  44.747  39.781  14.495
32674W        W 4400   1.126  18.986   2.779
32675W        W 4401   7.369  20.096   2.532
32676W        W 4402   6.671  12.924   9.631
32677W        W 4403   3.853  40.652   3.075
32678W        W 4404  33.154  33.687   0.255
32679W        W 4405  26.354  41.501   0.905
32680W        W 4406  34.523   1.042   0.351
32681W        W 4407  39.359  25.591  13.748
32682W        W 4408  20.128   2.206  10.504
32683W        W 4409  33.523  31.135   1.060
32684W        W 4410  22.117  20.101   4.787
32685W        W 4411  30.228  28.457  13.351
32686W        W 4412  23.689  15.367  12.342
32687W        W 4413   8.772   4.897   3.199
32688W        W 4414  22.305   3.004  12.867
32689W        W 4415  14.157   4.961  10.927
32690W        W 4416  23.315   9.728  11.922
32691W        W 4417  27.018   8.673  12.433
32692W        W 4418  10.414  14.236   3.058
32693W        W 4419   7.793  34.517  11.154
32694W        W 4420  10.639   1.909   0.923
32695W        W 4421  29.886  27.106  12.514
32696W        W 4422  44.387  42.436  13.793
32697W        W 4423  22.756  22.423  13.397
32698W        W 4424  35.773  14.626  12.072
32699W        W 4425  33.352  27.825   3.742
32700W        W 4426  38.054  10.073   0.842
32701W        W 4427  33.678  42.562   0.362
32702W        W 4428  16.442  36.266  12.672
32703W        W 4429  26.596  30.625   3.365
32704W        W 4430  37.388   3.793   1.312
32705W        W 4431  13.245  23.132   4.194
32706W        W 4432  36.750  17.393  11.095
32707W        W 4433  40.437  44.560   4.118
32708W        W 4434  15.417   6.391   0.349
32709W        W 4435  27.942  18.615  12.003
32710W        W 4436  12.368  24.219   2.115
32711W        W 4437  35.595  19.213   0.302
32712W        W 4438  30.433  36.670  10.896
32713W        W 4439  12.305  23.652   0.909
32714W        W 4440  42.915  34.036   3.087
32715W        W 4441  40.909  11.127   4.523
32716W        W 4442  42.451   2.244   0.010
32717W        W 4443  25.128   7.139  12.732
32718W        W 4444  12.118  21.211   1.238
32719W        W 4445  12.612  40.463  13.827
32720W        W 4446  29.442  23.467   3.446
32721W        W 4447  34.461  15.646  11.292
32722W        W 4448  37.984   4.962   3.623
32723W        W 4449  13.288   2.448   4.829
32724W        W 4450  21.545   9.556  11.668
32725W        W 4451  44.527  42.442  10.761
32726W        W 4452  30.383  20.495  11.105
32727W        W 4453   9.859   7.302  14.690
32728W        W 4454  21.251  40.878  10.559
32729W        W 4455  24.234  27.065   1.244
32730W        W 4456  23.459  44.795   2.296
32731W        W 4457  28.668  32.074  14.459
32732W        W 4458   5.240  44.644   4.086
32733W        W 4459   3.640   7.168   4.051
32734W        W 4460  16.262  12.740   5.017
32735W        W 4461  31.060  16.702   0.884
32736W        W 4462   6.348  13.763   2.124
32737W        W 4463  16.143  35.481   0.918
32738W        W 4464  44.228   9.707  12.887
32739W        W 4465   0.973  30.040   4.634
32740W        W 4466  20.756   9.613  13.130
32741W        W 4467  38.545  28.252  13.657
32742W        W 4468   1.902  43.329   1.257
32743W        W 4469  14.434  14.777  12.545
32744W        W 4470  11.150   7.789   2.840
32745W        W 4471  42.595  20.542   2.683
32746W        W 4472   5.316  29.159  12.331
32747W        W 4473  40.008  20.836   1.626
32748W        W 4474   0.904  28.934   4.638
32749W        W 4475  25.092   9.361   0.428
32750W        W 4476  16.743  25.446  14.877
32751W        W 4477  22.082  42.491   3.901
32752W        W 4478   1.791  13.738   3.241
32753W        W 4479  31.059  29.399  12.196
32754W        W 4480  37.710  30.528   1.868
32755W        W 4481  29.104  25.262  11.466
32756W        W 4482  28.324  14.530  10.791
32757W        W 4483  18.238  33.033   4.516
32758W        W 4484   8.220  20.530   0.016
32759W        W 4485  25.015  25.699   0.629
32760W        W 4486   6.283  29.898  11.578
32761W        W 4487  25.257   1.477  10.289
32762W        W 4488  13.508   9.436   4.298
32763W        W 4489  44.756  17.619   0.321
32764W        W 4490  37.275   1.863  14.211
32765W        W 4491  24.375  29.925   3.131
32766W        W 4492  30.514   9.915  11.894
32767W        W 4493  30.336  36.363   3.447
32768W        W 4494   3.853  23.573   2.854
32769W        W 4495  39.582  35.486  13.629
32770W        W 4496  11.731  31.712  12.636
32771W        W 4497  37.492  31.469   3.800
32772W        W 4498  44.356  31.541   4.449
32773W        W 4499  38.447  13.395  13.806
32774W        W 4500   2.768  25.040   3.538
32775W        W 4501  34.310  35.044   2.210
32776W        W 4502  27.124  22.299   0.218
32777W        W 4503  42.485  21.872  14.956
32778W        W 4504  20.007  28.135  12.443
32779W        W 4505  44.486   3.008  13.020
32780W        W 4506  17.980   0.211   2.407
32781W        W 4507  26.827  42.032  13.026
32782W        W 4508  41.669  30.165  12.097
32783W        W 4509  40.721   1.863   2.424
32784W        W 4510   2.956  28.555  10.852
32785W        W 4511  27.486  12.129   0.295
32786W        W 4512  17.665  13.057  14.414
32787W        W 4513   0.921  36.405   1.698
32788W        W 4514  38.538   8.826  14.274
32789W        W 4515  41.963  13.674   0.854
32790W        W 4516   0.814  27.763  13.579
32791W        W 4517   2.897  28.172   0.824
32792W        W 4518  18.388  16.354   0.887
32793W        W 4519  39.964  42.951   4.605
32794W        W 4520  35.354  31.404   1.807
32795W        W 4521   7.848  37.341  10.495
32796W        W 4522  38.503   4.454   4.928
32797W        W 4523  20.310   1.882  11.116
32798W        W 4524  23.013  33.835   0.188
32799W        W 4525  10.255  19.201   3.393
32800W        W 4526  19.533  43.461   2.442
32801W        W 4527  24.658  27.545  13.794
32802W        W 4528   9.134  44.311  13.464
32803W        W 4529  26.301  35.095   3.833
32804W        W 4530  34.486  40.997  11.159
32805W        W 4531  32.632  23.704   5.096
32806W        W 4532  16.811  37.376  11.656
32807W        W 4533  24.011  44.062  14.784
32808W        W 4534  12.642  23.439  14.465
32809W        W 4535  21.971  20.179   2.650
32810W        W 4536  40.065  15.756  13.977
32811W        W 4537   1.901   7.937   0.051
32812W        W 4538  10.376  34.084  12.124
32813W        W 4539  11.646  40.844   3.154
32814W        W 4540  44.805  21.570   4.424
32815W        W 4541  20.030  13.565   1.900
32816W        W 4542  16.999  13.043  11.159
32817W        W 4543  24.591  28.676   2.146
32818W        W 4544  31.760  13.764   4.116
32819W        W 4545   6.893   3.999   9.737
32820W        W 4546  25.490   4.188   4.178
32821W        W 4547  10.742  43.919   1.593
32822W        W 4548  29.963   1.649   3.856
32823W        W 4549   7.033  33.013  11.314
32824W        W 4550  39.887  39.320   0.339
32825W        W 4551  38.291  43.936  13.975
32826W        W 4552  15.615  38.272   9.751
32827W        W 4553  43.801  29.889  14.259
32828W        W 4554   5.964  31.084   2.710
32829W        W 4555   0.267   5.659  11.999
32830W        W 4556  10.928  25.745   3.161
32831W        W 4557  42.252   7.038  14.260
32832W        W 4558   9.361  31.897   0.623
32833W        W 4559   9.368  25.652   4.248
32834W        W 4560  20.688  16.844   1.480
32835W        W 4561  19.626  21.194   4.679
32836W        W 4562  39.151  15.280  12.959
32837W        W 4563  40.491  29.005  14.780
32838W        W 4564   1.818  41.881  11.601
32839W        W 4565  20.105   1.980  14.462
32840W        W 4566  33.219  42.909  13.353
32841W        W 4567  41.798   8.633  14.533
32842W        W 4568  23.843  42.101  11.967
32843W        W 4569   5.164   2.056  13.913
32844W        W 4570  12.389  34.844  11.554
32845W        W 4571   8.387   4.295   5.500
32846W        W 4572  23.024  43.959   3.262
32847W        W 4573  15.864  42.867  11.492
32848W        W 4574  41.965  24.762   3.326
32849W        W 4575  31.414  40.794  13.390
32850W        W 4576  17.584  33.440  12.913
32851W        W 4577  32.878  29.462  12.960
32852W        W 4578  38.612  16.583  12.993
32853W        W 4579  32.887  42.730   2.205
32854W        W 4580  35.554   5.748  13.405
32855W        W 4581  31.075  29.676  10.823
32856W        W 4582  28.464  33.445  13.094
32857W        W 4583  21.552  12.876   9.741
32858W        W 4584  23.622  14.565   4.598
32859W        W 4585  22.076  29.908   1.760
32860W        W 4586   1.013   1.184  12.589
32861W        W 4587   7.803  20.124  11.070
32862W        W 4588  15.324  38.600   4.371
32863W        W 4589  30.082  44.435   4.155
32864W        W 4590  44.428   5.975  14.955
32865W        W 4591  20.101  39.818  13.360
32866W        W 4592  40.465  18.803  14.870
32867W        W 4593  29.199  10.335  14.495
32868W        W 4594  42.535  38.849   4.632
32869W        W 4595  36.370  35.475   0.239
32870W        W 4596   3.249  42.710  12.438
32871W        W 4597   4.268  23.096   1.316
32872W        W 4598  13.433   8.823   2.342
32873W        W 4599  29.451  43.305   3.684
32874W        W 4600  35.565   2.429  14.486
32875W        W 4601  36.429  13.441   4.595
32876W        W 4602  13.958  10.857   4.105
32877W        W 4603  19.856  21.134   4.232
32878W        W 4604  20.119  20.031  13.948
32879W        W 4605  41.772  19.756   4.129
32880W        W 4606  22.669  32.365   0.941
32881W        W 4607   2.817  42.526   3.732
32882W        W 4608  12.473  12.237  11.847
32883W        W 4609  39.728  15.281  11.975
32884W        W 4610  13.070   5.795   2.358
32885W        W 4611   6.731  11.117  14.970
32886W        W 4612  33.490  21.220   3.576
32887W        W 4613  35.030   9.437   4.205
32888W        W 4614  28.191  35.754   4.003
32889W        W 4615   8.919  35.872  11.738
32890W        W 4616  30.714   9.060  14.901
32891W        W 4617  41.467  42.616  10.715
32892W        W 4618  22.628   6.170  14.793
32893W        W 4619  17.215   0.902   0.658
32894W        W 4620  26.166   7.650  12.560
32895W        W 4621  28.171  42.406  13.158
32896W        W 4622  31.258  25.951   4.531
32897W        W 4623  40.811   7.190   1.245
32898W        W 4624  29.022  16.595   2.327
32899W        W 4625   1.706  10.391   1.838
32900W        W 4626   3.207  24.959   4.287
32901W        W 4627  44.291  28.417   2.828
32902W        W 4628  31.585  26.223   5.451
32903W        W 4629  23.717  39.895   4.869
32904W        W 4630   3.763  14.152  14.530
32905W        W 4631  23.198   5.038   0.207
32906W        W 4632  31.406  34.822   0.873
32907W        W 4633   0.693   5.776  10.815
32908W        W 4634  17.585  36.950   4.038
32909W        W 4635  19.540  14.612  13.725
32910W        W 4636   5.337   5.786  12.713
32911W        W 4637  24.229  24.730  11.689
32912W        W 4638   7.615  37.960  14.221
32913W        W 4639   3.570  41.417  13.281
32914W        W 4640  11.771   7.786   0.029
32915W        W 4641  19.961  17.879   4.975
32916W        W 4642  43.253  24.636  13.509
32917W        W 4643   7.311  37.759   0.526
32918W        W 4644  18.814  36.098  10.811
32919W        W 4645  26.290   6.356   0.729
32920W        W 4646   4.292   0.917   1.128
32921W        W 4647  21.174  12.461   2.868
32922W        W 4648  14.863   4.866  12.600
32923W        W 4649  22.826   0.726  12.424
32924W        W 4650   8.457  27.261  13.876
32925W        W 4651  39.400  22.620  13.803
32926W        W 4652  29.718   5.312   2.627
32927W        W 4653  23.255  43.620  13.663
32928W        W 4654  40.531  29.123  12.491
32929W        W 4655  42.489  25.689  11.108
32930W        W 4656  12.296  38.766  12.496
32931W        W 4657  39.315  20.527   3.620
32932W        W 4658  22.732  44.804  14.308
32933W        W 4659  35.041   1.123  12.522
32934W        W 4660  20.208  31.840  14.066
32935W        W 4661  35.566   1.214  12.578
32936W        W 4662   3.949  43.245  12.436
32937W        W 4663  24.657   7.466  12.017
32938W        W 4664  38.494   9.232   3.283
32939W        W 4665   6.635  17.251   1.950
32940W        W 4666  44.386   7.632   3.655
32941W        W 4667  13.251  32.747   4.757
32942W        W 4668  29.425  12.853  14.450
32943W        W 4669  17.786  15.727   4.334
32944W        W 4670   0.448  16.309   3.922
32945W        W 4671  33.116  14.369  12.519
32946W        W 4672  11.253   8.439  11.620
32947W        W 4673  34.772  18.945   3.790
32948W        W 4674   5.307  14.864  11.552
32949W        W 4675   9.309   7.021  12.022
32950W        W 4676  29.686   0.819   3.700
32951W        W 4677   2.051   5.774   0.459
32952W        W 4678  27.373   0.380  11.587
32953W        W 4679   5.974  24.016  14.730
32954W        W 4680   4.806  29.684  14.463
32955W        W 4681  28.453  26.137   1.203
32956W        W 4682  38.905   9.891   4.587
32957W        W 4683  12.713  42.404  10.950
32958W        W 4684  19.655   1.754   2.280
32959W        W 4685  28.942  33.413  12.863
32960W        W 4686  11.450  41.253  12.153
32961W        W 4687   1.263  43.925  11.129
32962W        W 4688  14.841  32.155  13.946
32963W        W 4689  42.319  25.188  11.095
32964W        W 4690  22.798  13.725  12.487
32965W        W 4691  26.188  10.446  12.143
32966W        W 4692  26.926  34.408   0.992
32967W        W 4693  19.639  33.402   0.020
32968W        W 4694   6.339   5.900  12.377
32969W        W 4695  34.955  36.573   0.891
32970W        W 4696  27.175  18.029  10.954
32971W        W 4697  31.503   2.377  10.888
32972W        W 4698  22.034  14.755  12.369
32973W        W 4699  28.675  35.023   0.465
32974W        W 4700  14.793  29.607   2.942
32975W        W 4701  24.459  12.738   1.913
32976W        W 4702   0.502  21.620  14.493
32977W        W 4703  37.250   3.671  11.419
32978W        W 4704  37.358  21.964   4.597
32979W        W 4705   7.383  40.790  14.927
32980W        W 4706  28.595  18.755   0.160
32981W        W 4707  23.326   1.285   0.023
32982W        W 4708  10.430  21.030   4.086
32983W        W 4709  37.572  10.588  11.801
32984W        W 4710  44.569   1.877  13.839
32985W        W 4711  23.558  41.129  10.648
32986W        W 4712  40.771  30.122  11.643
32987W        W 4713  37.028  27.595   4.542
32988W        W 4714  30.176  25.017  11.922
32989W        W 4715  22.202  37.863  10.681
32990W        W 4716  23.534  19.331  10.818
32991W        W 4717  20.146  10.849  13.393
32992W        W 4718  39.481  14.391   0.740
32993W        W 4719   0.983   8.876  11.508
32994W        W 4720  17.336  25.960  10.601
32995W        W 4721  39.491  10.701  10.397
32996W        W 4722  42.310   8.434   2.802
32997W        W 4723   9.288  12.157   2.693
32998W        W 4724  37.908  15.374   1.825
32999W        W 4725  40.461  41.366  14.425
33000W        W 4726  41.411  12.611   1.124
33001W        W 4727  20.698   2.254   1.250
33002W        W 4728  15.299  31.963   4.935
33003W        W 4729   1.384  36.182  11.591
33004W        W 4730  18.184  20.279  14.826
33005W        W 4731  20.236  33.017   1.015
33006W        W 4732  30.642  23.009  11.038
33007W        W 4733  16.068  13.284  13.040
33008W        W 4734  17.264  15.321   3.213
33009W        W 4735  43.532  42.907   3.332
33010W        W 4736  19.023   5.003  12.890
33011W        W 4737  22.298   8.906  12.970
33012W        W 4738  38.021   4.273  13.356
33013W        W 4739   9.700   3.026   1.767
33014W        W 4740  22.887   6.921  12.698
33015W        W 4741  41.307   7.753  14.841
33016W        W 4742  18.328  44.342  12.852
33017W        W 4743   4.347  18.739   3.170
33018W        W 4744   2.715   0.816  14.774
33019W        W 4745  25.968  22.652  14.212
33020W        W 4746  19.625  37.283   4.921
33021W        W 4747  36.078  20.376   3.323
33022W        W 4748  14.577  26.724  10.941
33023W        W 4749  14.470  39.094   4.193
33024W        W 4750  42.379  40.609  14.561
33025W        W 4751  41.788  35.248  10.196
33026W        W 4752  14.734  38.720   3.890
33027W        W 4753   5.459  37.515   4.958
33028W        W 4754  10.643  42.920  10.283
33029W        W 4755  40.322  22.985  13.942
33030W        W 4756  42.826  10.175  10.515
33031W        W 4757  38.587  23.184  11.021
33032W        W 4758  41.900  13.940   1.311
33033W        W 4759  19.709  15.795  12.862
33034W        W 4760  29.437  14.397   1.729
33035W        W 4761  28.043  17.656  14.336
33036W        W 4762  16.104   7.462  14.499
33037W        W 4763  25.670  34.654  11.029
33038W        W 4764   6.206  17.762  14.449
33039W        W 4765  30.604  39.754  12.369
33040W        W 4766   2.462  18.067  11.688
33041W        W 4767  25.289  14.721  12.411
33042W        W 4768  22.193  10.233  10.211
33043W        W 4769  25.581  14.860  13.370
33044W        W 4770  28.191  27.075  11.656
33045W        W 4771  25.697  18.644   2.928
33046W        W 4772   5.848  35.940   0.250
33047W        W 4773  38.991  14.970   4.498
33048W        W 4774   2.728  16.524  10.622
33049W        W 4775  22.744  21.656  11.107
33050W        W 4776   4.817  36.967   0.888
33051W        W 4777  14.881  23.700  14.787
33052W        W 4778  29.303  22.169  13.361
33053W        W 4779  32.056  24.473  11.024
33054W        W 4780  24.116  43.454  13.108
33055W        W 4781  30.098  27.146   1.785
33056W        W 4782  36.425  11.878  12.419
33057W        W 4783   3.192  40.117   0.836
33058W        W 4784   7.956  22.766   4.548
33059W        W 4785  13.867   7.078  11.747
33060W        W 4786  21.587  18.032  11.139
33061W        W 4787   0.538  19.238  11.489
33062W        W 4788  38.579  32.836   2.696
33063W        W 4789   8.945  13.453  12.638
33064W        W 4790  11.101  34.938  12.647
33065W        W 4791  43.753  21.704  12.277
33066W        W 4792   0.735  21.117   2.229
33067W        W 4793   1.170  40.137   2.863
33068W        W 4794   3.149  33.198   1.660
33069W        W 4795   6.113  44.877   2.295
33070W        W 4796  14.553  36.038  12.454
33071W        W 4797  13.600  44.959   3.142
33072W        W 4798  33.931  17.751   1.032
33073W        W 4799   8.297   1.213   2.329
33074W        W 4800  26.582  16.114   0.221
33075W        W 4801   4.450   7.874   0.420
33076W        W 4802   1.731  32.618  11.003
33077W        W 4803  27.513   4.773  12.143
33078W        W 4804  44.124   0.358  11.424
33079W        W 4805  38.566   8.962   1.349
33080W        W 4806  23.708  17.056   1.343
33081W        W 4807  30.089  41.858   0.992
33082W        W 4808  35.234  12.528   0.321
33083W        W 4809   5.554  42.449   0.379
33084W        W 4810   4.295  36.080  10.558
33085W        W 4811  11.693   5.480  11.598
33086W        W 4812  32.065  40.493   2.879
33087W        W 4813  26.990  30.737   1.687
33088W        W 4814  33.931  14.139   4.565
33089W        W 4815  20.510  29.592  13.572
33090W        W 4816  15.613  35.416   0.868
33091W        W 4817  15.013  41.316   0.734
33092W        W 4818  28.015  44.323  12.174
33093W        W 4819  28.330  33.601   2.502
33094W        W 4820  18.258   1.974   0.398
33095W        W 4821  25.027   1.283  11.142
33096W        W 4822   4.755   8.176  12.348
33097W        W 4823   2.144   0.479  11.131
33098W        W 4824  21.748  37.115  12.784
33099W        W 4825  26.175  34.637  14.366
33100W        W 4826  32.423  15.019  13.821
33101W        W 4827  28.696  43.733   4.057
33102W        W 4828  33.605  31.999  10.722
33103W        W 4829  38.945  13.223   3.899
33104W        W 4830  39.385  43.087   3.451
33105W        W 4831  22.724  27.660  14.037
33106W        W 4832   6.375   9.645   3.704
33107W        W 4833  18.879  40.244   0.179
33108W        W 4834  41.042  21.513   1.673
33109W        W 4835  31.007  12.999  14.775
33110W        W 4836   1.402  11.927   0.335
33111W        W 4837   6.818  36.643  11.104
33112W        W 4838   6.318   1.927   2.891
33113W        W 4839  21.544  39.302   1.842
33114W        W 4840  26.978   8.880   0.405
33115W        W 4841  37.480  10.788   1.833
33116W        W 4842  28.909  41.509  11.928
33117W        W 4843  40.237  41.978   4.759
33118W        W 4844   4.534   2.614   0.797
33119W        W 4845  20.657  15.699  11.700
33120W        W 4846  17.085  24.377  11.936
33121W        W 4847  43.216  16.605  12.406
33122W        W 4848  21.122   4.178   3.406
33123W        W 4849  29.133  34.940  12.907
33124W        W 4850  24.398  26.177   5.549
33125W        W 4851   0.764  33.123  10.701
33126W        W 4852  38.500  26.215  10.667
33127W        W 4853  33.542  15.826   4.801
33128W        W 4854  40.589   4.451   2.117
33129W        W 4855   9.619   8.720  10.715
33130W        W 4856  27.205   5.309  12.917
33131W        W 4857  16.137  41.272   1.267
33132W        W 4858  34.475  33.096   1.469
33133W        W 4859  41.992  23.242   0.677
33134W        W 4860   6.251   3.760   2.422
33135W        W 4861  30.629  37.434  13.016
33136W        W 4862  21.129  21.129  14.331
33137W        W 4863  27.587  30.130   4.769
33138W        W 4864  13.842  31.916   0.951
33139W        W 4865  21.564  23.998   0.815
33140W        W 4866   9.202  33.968  14.476
33141W        W 4867  17.616  28.520  12.571
33142W        W 4868  31.738  19.309  12.949
33143W        W 4869  31.688  32.412   4.591
33144W        W 4870  36.343  34.510  10.417
33145W        W 4871  38.283  32.354  14.576
33146W        W 4872  29.132  35.598  10.730
33147W        W 4873  41.900  40.409  14.261
33148W        W 4874  10.862  10.500   2.647
33149W        W 4875  15.811  32.644   4.306
33150W        W 4876  21.691  27.532  12.892
33151W        W 4877  21.275  24.610   0.360
33152W        W 4878  38.856  15.688   3.570
33153W        W 4879  42.790  22.605  12.370
33154W        W 4880   9.774  24.257  12.162
33155W        W 4881  35.048  20.292  13.349
33156W        W 4882  37.849  39.324   3.243
33157W        W 4883   2.266   1.403  14.052
33158W        W 4884   9.820  26.347  10.577
33159W        W 4885   6.309   4.269   5.458
33160W        W 4886  16.004  28.388   3.245
33161W        W 4887  35.003  41.834  12.502
33162W        W 4888  20.346  43.251  14.325
33163W        W 4889  18.539  36.486  10.598
33164W        W 4890   5.886  17.043   3.314
33165W        W 4891   1.361  13.388   4.100
33166W        W 4892   1.213  38.051   4.240
33167W        W 4893  44.249  18.069  10.182
33168W        W 4894  35.106  22.226   1.207
33169W        W 4895  41.500  38.470  12.482
33170W        W 4896  11.689  24.062  10.902
33171W        W 4897  17.426   6.961  14.466
33172W        W 4898  33.018  27.192  10.612
33173W        W 4899  24.548  13.120  10.614
33174W        W 4900  39.857  28.996  12.709
33175W        W 4901  20.775  27.505   0.376
33176W        W 4902  14.204  10.693  13.769
33177W        W 4903  21.772  35.896   0.536
33178W        W 4904   5.768   4.938  10.775
33179W        W 4905  20.141  27.725  11.768
33180W        W 4906   6.772   3.825   2.225
33181W        W 4907  21.683  37.505  12.009
33182W        W 4908  22.614   0.551   4.207
33183W        W 4909   2.522   7.307  13.092
33184W        W 4910   3.093  17.194   0.351
33185W        W 4911   2.482  36.280  13.326
33186W        W 4912  23.490   0.755   2.266
33187W        W 4913  22.691  39.034   0.045
33188W        W 4914  10.951   7.730   4.155
33189W        W 4915  28.920   7.316   2.274
33190W        W 4916  30.863  34.360   4.651
33191W        W 4917   5.310  40.004  10.976
33192W        W 4918  22.431  42.518  12.181
33193W        W 4919  24.603  27.089   5.526
33194W        W 4920  20.794  31.283   0.470
33195W        W 4921   6.666   7.680  10.593
33196W        W 4922  23.740  43.038   1.631
33197W        W 4923  12.335  38.569  13.410
33198W        W 4924   6.782   0.815   3.707
33199W        W 4925   8.656  43.122   1.883
33200W        W 4926  16.818   4.510  11.149
33201W        W 4927   7.242  10.246   3.265
33202W        W 4928  11.341  22.704  13.427
33203W        W 4929  41.409  43.086   4.226
33204W        W 4930  44.407  20.350  12.908
33205W        W 4931  38.012  21.796   3.239
33206W        W 4932  12.242  35.677  14.277
33207W        W 4933  14.957  19.207   2.001
33208W        W 4934  17.267   7.784   0.434
33209W        W 4935   3.349  18.203  13.077
33210W        W 4936   5.843  44.039   0.846
33211W        W 4937  17.007  43.389   0.626
33212W        W 4938  33.505  12.967   5.359
33213W        W 4939   4.211  35.561  14.456
33214W        W 4940  28.698  38.127  13.918
33215W        W 4941  17.262   6.189   3.310
33216W        W 4942  40.359   2.195  11.650
33217W        W 4943  27.483   8.655   4.526
33218W        W 4944   4.431  20.767  12.439
33219W        W 4945   0.810   2.220  12.497
33220W        W 4946  26.442  22.207  13.813
33221W        W 4947  40.300  14.884  11.607
33222W        W 4948  42.218   9.685  12.965
33223W        W 4949  35.903   7.669  12.174
33224W        W 4950   5.362  43.645   2.275
33225W        W 4951  26.705  13.444   2.493
33226W        W 4952  39.586  22.739   3.660
33227W        W 4953   7.841  43.232   3.352
33228W        W 4954  25.996  23.478  11.908
33229W        W 4955   2.740  26.193  12.206
33230W        W 4956  23.367   4.828   3.879
33231W        W 4957   4.959  33.901  12.939
33232W        W 4958  34.849   3.666  12.628
33233W        W 4959  21.064   1.167   4.837
33234W        W 4960   3.332  17.033   0.794
33235W        W 4961  13.848  40.595   1.526
33236W        W 4962  30.696  29.038   0.660
33237W        W 4963  22.981  40.953  13.908
33238W        W 4964   7.704  12.253  12.069
33239W        W 4965  29.961   2.537  10.641
33240W        W 4966   4.233  30.092  11.522
33241W        W 4967  35.668  34.082   2.894
33242W        W 4968  40.706  23.549  10.724
33243W        W 4969  21.629  41.742   0.193
33244W        W 4970  35.321   6.431   3.704
33245W        W 4971  27.549  16.854   2.357
33246W        W 4972  23.509   3.068  10.500
33247W        W 4973  33.129  23.248  14.268
33248W        W 4974  17.094  27.240   4.517
33249W        W 4975  20.287  41.986  11.400
33250W        W 4976   6.267   6.376   0.851
33251W        W 4977  22.334  33.975  14.522
33252W        W 4978  10.633  42.933  12.776
33253W        W 4979  34.810  33.204  12.094
33254W        W 4980  38.525   1.921   3.858
33255W        W 4981  41.708  17.663  10.602
33256W        W 4982   8.976   6.499   0.761
33257W        W 4983   6.621   0.308  11.939
33258W        W 4984  14.695  38.485   1.831
33259W        W 4985   1.937   9.206  14.404
33260W        W 4986  44.515  26.443  10.209
33261W        W 4987  32.598   7.575  14.909
33262W        W 4988  36.926   9.843   3.675
33263W        W 4989  43.306  33.697   4.597
33264W        W 4990  36.552  27.972   1.742
33265W        W 4991  37.128  12.430  12.075
33266W        W 4992  44.545  39.556  10.648
33267W        W 4993  11.659  14.341  12.346
33268W        W 4994  10.614  37.454  12.564
33269W        W 4995  40.999  10.184  12.955
33270W        W 4996   3.009  11.723  12.184
33271W        W 4997  42.432  40.500  11.025
33272W        W 4998  11.909  19.576   0.737
33273W        W 4999  44.961  27.890   4.205
33274W        W 5000  37.004  17.999   0.454
33275W        W 5001  39.160  19.667   2.164
33276W        W 5002   0.918  24.529  10.591
33277W        W 5003  17.423   7.646  10.683
33278W        W 5004   7.674  14.513   2.160
33279W        W 5005  19.082  29.985  12.142
33280W        W 5006  10.738  41.878  12.595
33281W        W 5007   3.284  15.766  14.524
33282W        W 5008   0.945  11.392  13.107
33283W        W 5009  16.735  18.508  14.947
33284W        W 5010  31.652  20.239  10.776
33285W        W 5011  18.112   0.495   1.999
33286W        W 5012  11.740   2.768  12.752
33287W        W 5013  38.266   0.955  13.884
33288W        W 5014  24.426   4.909  10.725
33289W        W 5015  44.733  15.308   3.292
33290W        W 5016  44.412  24.986  12.256
33291W        W 5017  44.344  25.265  12.671
33292W        W 5018  24.345  25.761   4.217
33293W        W 5019  19.427  12.711   4.903
33294W        W 5020  40.995  12.318  11.985
33295W        W 5021  15.042  28.032   2.165
33296W        W 5022  37.746  29.670   0.046
33297W        W 5023  15.024  40.791  14.702
33298W        W 5024  22.173  32.438  12.247
33299W        W 5025  25.775  14.691  10.688
33300W        W 5026  15.162  17.179   4.159
33301W        W 5027  29.468   7.972   2.991
33302W        W 5028  31.613  11.804   4.243
33303W        W 5029  40.205  28.130   2.713
33304W        W 5030  21.367  16.075   1.671
33305W        W 5031  24.391  28.060  11.581
33306W        W 5032  36.971  20.562  11.623
33307W        W 5033   7.614  27.565  14.042
33308W        W 5034  41.682  43.354  13.878
33309W        W 5035  22.472  32.681   3.251
33310W        W 5036  13.129  23.927   3.166
33311W        W 5037  43.503  29.148   1.857
33312W        W 5038  24.503  40.703  13.178
33313W        W 5039  26.476  15.750   4.569
33314W        W 5040   7.783  38.854  13.776
33315W        W 5041  37.824  36.841  10.975
33316W        W 5042  22.809  37.551   3.082
33317W        W 5043  41.939  26.514   4.110
33318W        W 5044  28.195  37.413  14.169
33319W        W 5045  12.297  19.247   2.359
33320W        W 5046  13.126  20.597  10.694
33321W        W 5047   3.392   4.193  14.257
33322W        W 5048   9.670  40.391   4.946
33323W        W 5049  22.160  23.045  12.154
33324W        W 5050  29.585  16.495   3.836
33325W        W 5051  43.248  23.550   2.260
33326W        W 5052  35.072   6.497   5.071
33327W        W 5053  12.928  29.513   1.385
33328W        W 5054  29.208  14.543   4.231
33329W        W 5055  10.771  20.606   2.390
33330W        W 5056  21.965  13.245  12.507
33331W        W 5057  23.301  37.647   5.091
33332W        W 5058  18.687  30.440   5.181
33333W        W 5059  22.734   3.259   2.684
33334W        W 5060  25.683  35.610   1.467
33335W        W 5061  14.709   3.401   3.118
33336W        W 5062  38.880  24.272  11.475
33337W        W 5063  14.575  13.909  12.841
33338W        W 5064   7.870  32.356   4.010
33339W        W 5065  33.060  36.952  12.454
33340W        W 5066   4.695  33.455  12.857
33341W        W 5067   5.822  13.823   4.524
33342W        W 5068  21.784  11.623  14.803
33343W        W 5069  16.321  24.614   0.254
33344W        W 5070  13.244  35.843  12.535
33345W        W 5071  17.251  12.580  12.890
33346W        W 5072  19.159  20.134  14.495
33347W        W 5073  25.128  21.278   1.984
33348W        W 5074  30.503   7.962  13.828
33349W        W 5075   9.911  23.760   0.947
33350W        W 5076  41.970  24.029  14.080
33351W        W 5077  19.671  43.285   1.390
33352W        W 5078   0.607   4.468  13.334
33353W        W 5079   2.221   6.788   1.241
33354W        W 5080  25.568  29.624  12.930
33355W        W 5081  37.802  42.046  12.994
33356W        W 5082  31.988  11.623   3.946
33357W        W 5083  11.004   2.064   2.469
33358W        W 5084  42.317  36.288  14.848
33359W        W 5085  38.914  18.310   2.004
33360W        W 5086  18.436  43.738   3.288
33361W        W 5087   4.950  28.809   3.775
33362W        W 5088   7.271   7.965   3.649
33363W        W 5089  27.056   0.017  13.271
33364W        W 5090  15.791   2.572   1.737
33365W        W 5091  42.963  27.059  10.669
33366W        W 5092  28.582  28.760   1.506
33367W        W 5093  40.832  12.130   0.261
33368W        W 5094  19.498  20.790  14.997
33369W        W 5095  12.835  37.415   4.079
33370W        W 5096  28.416  42.782  13.485
33371W        W 5097   6.585   2.308   4.743
33372W        W 5098   7.740  43.304  11.610
33373W        W 5099  20.221   9.220  12.092
33374W        W 5100  34.575  18.779   2.410
33375W        W 5101   7.164  20.939  11.952
33376W        W 5102  13.817  13.607  12.491
33377W        W 5103  41.583  17.607  12.814
33378W        W 5104  17.452  24.022  10.766
33379W        W 5105   3.937  22.699  12.195
33380W        W 5106   0.767  42.652  14.719
33381W        W 5107  10.656   1.055   2.331
33382W        W 5108  21.052  12.176  12.426
33383W        W 5109   2.949  17.433  13.366
33384W        W 5110  22.799  38.489  11.444
33385W        W 5111  12.292  12.592  12.686
33386W        W 5112  35.861  13.206   1.442
33387W        W 5113   9.779  20.766   0.374
33388W        W 5114  13.744  29.489   0.715
33389W        W 5115  23.582   3.933   4.183
33390W        W 5116  41.409  19.286  13.722
33391W        W 5117  38.453  34.418  12.583
33392W        W 5118   5.871  38.072   3.344
33393W        W 5119  29.636  40.978   1.380
33394W        W 5120  20.229   5.233   1.462
33395W        W 5121   6.115  20.776   1.434
33396W        W 5122  32.371  34.500   1.648
33397W        W 5123  32.312  33.299  14.007
33398W        W 5124  29.679   2.562   4.240
33399W        W 5125  15.357   6.214   2.723
33400W        W 5126   0.032  28.685   4.786
33401W        W 5127  11.607  41.897  10.675
33402W        W 5128  26.468  36.375   4.907
33403W        W 5129  41.907  39.682   2.291
33404W        W 5130  10.847  18.457  14.440
33405W        W 5131  34.635   4.199  14.275
33406W        W 5132   5.254  27.890   4.561
33407W        W 5133  29.388  29.779   3.946
33408W        W 5134   8.748  14.588  11.436
33409W        W 5135  23.221  15.053  10.177
33410W        W 5136  16.729  38.249   1.836
33411W        W 5137  30.444   2.353   0.209
33412W        W 5138  34.357  16.609  14.842
33413W        W 5139   0.920  37.967  10.498
33414W        W 5140  25.068  35.884   2.890
33415W        W 5141  13.335   1.755  11.915
33416W        W 5142  29.441  23.880  10.446
33417W        W 5143  37.109  17.753   4.973
33418W        W 5144   9.631   5.033   3.785
33419W        W 5145   2.206  30.418   3.890
33420W        W 5146  17.667  30.354   1.890
33421W        W 5147  13.365  40.850  12.061
33422W        W 5148   3.421  35.529  13.121
33423W        W 5149  13.761  43.833  13.567
33424W        W 5150   9.685  37.350   5.463
33425W        W 5151  18.067  30.211  11.176
33426W        W 5152  15.097  29.678   0.297
33427W        W 5153  14.066  32.149   3.768
33428W        W 5154  38.849  31.786  14.381
33429W        W 5155  18.567  18.661   2.681
33430W        W 5156  22.096  14.159  13.575
33431W        W 5157  35.000  18.741  11.491
33432W        W 5158  18.330  22.184   4.294
33433W        W 5159   1.461   8.244   4.702
33434W        W 5160  26.944   9.867  11.597
33435W        W 5161  15.343  29.058  14.811
33436W        W 5162  11.701  38.447  13.990
33437W        W 5163  20.544  40.133  12.501
33438W        W 5164  18.495  12.951  12.027
33439W        W 5165   6.756  23.456   4.614
33440W        W 5166  38.367   9.501  13.356
33441W        W 5167  11.109  20.144  11.975
33442W        W 5168  34.930  30.587  13.253
33443W        W 5169  27.521  39.431  12.838
33444W        W 5170   0.792  17.402  10.909
33445W        W 5171  15.342  41.320   0.294
33446W        W 5172  35.926  33.207   3.137
33447W        W 5173  44.889  24.613  10.584
33448W        W 5174  19.233  40.528  13.994
33449W        W 5175  40.304   4.991   3.336
33450W        W 5176  37.586   3.954  13.331
33451W        W 5177  15.145  37.009   9.744
33452W        W 5178  14.072   5.139  12.636
33453W        W 5179  24.720  17.564   1.153
33454W        W 5180  13.545  34.972   0.012
33455W        W 5181  28.432  34.115  11.494
33456W        W 5182   6.000   8.227   3.828
33457W        W 5183  22.894  30.829   0.302
33458W        W 5184  39.306  29.241   3.235
33459W        W 5185  30.894  41.602  14.420
33460W        W 5186  29.525  44.055   3.179
33461W        W 5187   3.467  24.132   1.306
33462W        W 5188   9.981  33.827  14.856
33463W        W 5189   1.602  18.073  13.574
33464W        W 5190  28.437  28.712  13.425
33465W        W 5191   1.729  11.464  11.614
33466W        W 5192  19.844  29.006   0.686
33467W        W 5193  10.419  42.806   1.168
33468W        W 5194   3.744  13.604  12.837
33469W        W 5195   4.663   9.673  13.078
33470W        W 5196   9.361  43.028  11.342
33471W        W 5197  10.334   8.615   0.363
33472W        W 5198  37.296  10.801   3.252
33473W        W 5199   9.161  16.909  11.100
33474W        W 5200  25.090  28.974   0.779
33475W        W 5201   3.850  12.718  14.012
33476W        W 5202  44.501  30.001  12.588
33477W        W 5203  42.357  15.602  11.929
33478W        W 5204   5.066   8.456   3.439
33479W        W 5205  33.053  44.314   4.088
33480W        W 5206   9.826   5.833   1.760
33481W        W 5207  17.255  16.845  11.639
33482W        W 5208  26.387  22.831   2.269
33483W        W 5209  31.425   5.660   4.509
33484W        W 5210   9.702  11.373  14.960
33485W        W 5211  36.557  12.666  10.275
33486W        W 5212  22.928   0.450  11.017
33487W        W 5213   7.756  44.036   2.731
33488W        W 5214  32.967  42.507  13.542
33489W        W 5215  18.419  22.676   3.104
33490W        W 5216   7.840  40.559  14.436
33491W        W 5217   6.892  38.494  14.833
33492W        W 5218  15.189  23.402  12.879
33493W        W 5219  11.388   3.428  14.315
33494W        W 5220  34.931   4.680   3.327
33495W        W 5221   7.102  10.686   0.321
33496W        W 5222  35.342  27.712   0.347
33497W        W 5223  16.638   2.672   0.788
33498W        W 5224  31.187  10.829   4.174
33499W        W 5225   6.774   2.039   4.343
33500W        W 5226  34.503  24.475  11.814
33501W        W 5227  25.779  33.098   4.381
33502W        W 5228  33.193  16.191   2.446
33503W        W 5229  22.030  23.534  12.962
33504W        W 5230  41.284  22.414  13.925
33505W        W 5231  29.725  17.755   2.839
33506W        W 5232  16.864  44.294  13.900
33507W        W 5233  42.001   3.266  10.431
33508W        W 5234  16.399  33.997  10.539
33509W        W 5235  31.602  26.968   2.478
33510W        W 5236  16.746  44.819  13.825
33511W        W 5237  18.195  25.659  14.258
33512W        W 5238  15.529  11.895  12.073
33513W        W 5239  33.949  27.650   1.226
33514W        W 5240  21.969  36.638   3.352
33515W        W 5241   4.236   0.748  13.488
33516W        W 5242  29.028  12.844   3.039
33517W        W 5243   0.156  16.470  11.521
33518W        W 5244  36.721  18.065  11.146
33519W        W 5245  42.251  35.876  11.692
33520W        W 5246  27.504  11.795  13.915
33521W        W 5247  24.072  21.789   0.807
33522W        W 5248  36.874   9.603  11.581
33523W        W 5249   3.377  44.955   2.452
33524W        W 5250  22.176  16.120   1.327
33525W        W 5251  37.836  39.314  10.561
33526W        W 5252  27.963  13.774   3.241
33527W        W 5253   6.726  29.583  13.092
33528W        W 5254  42.566  14.622   3.754
33529W        W 5255   4.284  28.324   0.475
33530W        W 5256  44.922  23.198   0.434
33531W        W 5257   6.655  30.740   4.131
33532W        W 5258  34.490  18.665   4.912
33533W        W 5259  43.910  20.266   2.276
33534W        W 5260   2.464  30.003   3.700
33535W        W 5261  26.623   6.428   2.697
33536W        W 5262  24.314   3.165  12.818
33537W        W 5263  27.800  30.624  10.641
33538W        W 5264  20.627  36.167   2.851
33539W        W 5265  39.307  39.950  10.756
33540W        W 5266  33.959   6.952   2.359
33541W        W 5267  40.923  24.964   4.678
33542W        W 5268   6.459  25.215  14.579
33543W        W 5269  44.433   5.872  14.450
33544W        W 5270   8.612  12.393   4.120
33545W        W 5271  11.109  13.622   0.427
33546W        W 5272  38.570  15.994  12.076
33547W        W 5273   1.406  18.782   1.418
33548W        W 5274  25.990  34.951  13.923
33549W        W 5275  22.844  28.220   0.836
33550W        W 5276  23.051  28.652  13.295
33551W        W 5277  35.614  34.035  13.291
33552W        W 5278  30.625  15.271   0.279
33553W        W 5279  30.827  19.253  14.948
33554W        W 5280  35.182  31.605  12.787
33555W        W 5281  25.924  33.502  10.775
33556W        W 5282  40.742  19.304   0.196
33557W        W 5283   4.219  26.088   0.335
33558W        W 5284   8.308  10.228  13.965
33559W        W 5285  32.171  18.253   2.753
33560W        W 5286  21.333  44.256   5.135
33561W        W 5287  12.310   5.168   3.239
33562W        W 5288  11.441  17.702   4.576
33563W        W 5289  39.594   2.653  14.017
33564W        W 5290  19.170   2.850  13.003
33565W        W 5291  43.879  41.003  14.493
33566W        W 5292  22.628  26.405   0.750
33567W        W 5293   0.736  42.253   1.958
33568W        W 5294  31.118  39.528  13.489
33569W        W 5295  32.181  30.644  12.185
33570W        W 5296  21.671  25.622   2.288
33571W        W 5297  26.593  33.998  11.774
33572W        W 5298  33.185   3.485   0.886
33573W        W 5299  24.518  21.096   2.330
33574W        W 5300  23.776  21.292   1.942
33575W        W 5301  27.596  27.979  11.196
33576W        W 5302  14.407   6.976  14.323
33577W        W 5303  42.165   6.667  13.279
33578W        W 5304  41.918  15.985   2.460
33579W        W 5305  34.571  32.937   0.968
33580W        W 5306   8.448  20.626  10.949
33581W        W 5307  42.492  24.218  12.809
33582W        W 5308  27.530  34.592  11.426
33583W        W 5309  39.308  13.872  11.985
33584W        W 5310  38.345  21.603  12.537
33585W        W 5311  39.345  26.362   1.845
33586W        W 5312  41.058   7.738   2.811
33587W        W 5313  13.193  34.490  10.636
33588W        W 5314  27.727  14.092   2.248
33589W        W 5315  28.672  32.602  14.301
33590W        W 5316  26.596  43.839  11.596
33591W        W 5317  39.316   0.879   3.602
33592W        W 5318   8.128  14.860  13.943
33593W        W 5319  17.729  35.052  12.569
33594W        W 5320  23.734  12.540  10.219
33595W        W 5321  25.745  11.183  11.616
33596W        W 5322  33.597  14.504   1.968
33597W        W 5323  38.859  27.020  14.019
33598W        W 5324  26.656  32.382   0.699
33599W        W 5325  27.588  15.038   2.573
33600W        W 5326   2.369  22.707   2.406
33601W        W 5327  23.245   3.415  12.136
33602W        W 5328  44.649  14.877   4.507
33603W        W 5329  13.072  12.061   2.397
33604W        W 5330  21.133  16.807   1.877
33605W        W 5331  23.970  17.220   1.874
33606W        W 5332  12.693  19.762   3.451
33607W        W 5333  27.014  25.520  14.883
33608W        W 5334  24.990   3.359  11.039
33609W        W 5335   5.771  43.497   0.761
33610W        W 5336   5.257  39.874  12.538
33611W        W 5337  32.570  19.737   0.770
33612W        W 5338   1.928  11.155   2.186
33613W        W 5339  19.693  21.806   1.730
33614W        W 5340  32.894  16.275  11.067
33615W        W 5341  10.224  26.073   3.589
33616W        W 5342  38.439  26.955  12.795
33617W        W 5343  34.445  20.588   4.634
33618W        W 5344   2.519  27.207  14.432
33619W        W 5345  43.352  33.539   1.943
33620W        W 5346  29.043  26.002  13.255
33621W        W 5347  40.380  13.177   4.383
33622W        W 5348  20.016   3.008   2.149
33623W        W 5349  21.510  14.533  14.992
33624W        W 5350  35.379  18.486  11.193
33625W        W 5351  40.070   6.941   3.728
33626W        W 5352  33.475  10.212  11.862
33627W        W 5353   7.268   6.933   5.067
33628W        W 5354  10.696  24.959   0.433
33629W        W 5355  34.061   2.247   2.841
33630W        W 5356  21.478  28.597   2.403
33631W        W 5357   8.106  29.052   1.664
33632W        W 5358   9.284  40.780   2.612
33633W        W 5359   2.266  41.960  14.769
33634W        W 5360  36.432  17.034  14.090
33635W        W 5361  32.829  10.591  11.154
33636W        W 5362  34.446  40.595   3.012
33637W        W 5363  39.049  27.593   2.161
33638W        W 5364  37.866   6.276   3.186
33639W        W 5365  42.334   3.038  14.571
33640W        W 5366  35.284  33.819  14.838
33641W        W 5367  42.603  21.585   1.239
33642W        W 5368  33.611  30.256  11.975
33643W        W 5369  21.108  37.644  11.298
33644W        W 5370  19.719  42.602   0.327
33645W        W 5371  22.062  27.974   2.127
33646W        W 5372  22.034  11.996   2.652
33647W        W 5373  16.229  12.098   3.688
33648W        W 5374  38.842   2.888   2.326
33649W        W 5375  18.074  42.372   3.004
33650W        W 5376  26.791  38.859   2.806
33651W        W 5377   7.775  39.549   3.224
33652W        W 5378  32.526  37.005   2.951
33653W        W 5379  23.502   4.800  11.661
33654W        W 5380  39.044  26.047   2.248
33655W        W 5381  41.769  26.963  13.992
33656W        W 5382  30.447   3.614  14.439
33657W        W 5383  40.290  25.655   4.315
33658W        W 5384  31.153  28.530  13.387
33659W        W 5385  11.794  29.496   0.177
33660W        W 5386  24.209  39.412   1.727
33661W        W 5387   5.638  25.694  13.744
33662W        W 5388  23.670  37.493  11.700
33663W        W 5389  30.606  38.895   0.009
33664W        W 5390  16.633   3.222  14.934
33665W        W 5391  13.148  13.360   2.783
33666W        W 5392  30.344  43.900   2.225
33667W        W 5393  27.556  11.313   0.745
33668W        W 5394  42.267  31.457  13.019
33669W        W 5395  33.709   4.201   3.761
33670W        W 5396  32.983  38.860   0.470
33671W        W 5397  32.514  36.859  13.911
33672W        W 5398  38.211  17.603   4.142
33673W        W 5399  37.440  38.982  13.812
33674W        W 5400  18.267  11.852  12.002
33675W        W 5401  35.953  25.093  13.286
33676W        W 5402  31.514  43.876  13.507
33677W        W 5403   7.873   9.364  13.736
33678W        W 5404   7.489  21.167  11.597
33679W        W 5405  22.729   7.947   3.712
33680W        W 5406  37.396   7.898   3.156
33681W        W 5407  42.803  14.675   1.852
33682W        W 5408   6.442   3.940  12.073
33683W        W 5409  23.521  36.137  12.334
33684W        W 5410  27.897   6.844  12.511
33685W        W 5411  41.497  28.625  14.767
33686W        W 5412   2.517  19.845  12.914
33687W        W 5413  39.527  14.202   1.246
33688W        W 5414  17.299  35.627   2.195
33689W        W 5415   2.483  10.779   0.711
33690W        W 5416  13.828   9.217   4.636
33691W        W 5417  12.294  11.646   1.908
33692W        W 5418  36.892  34.864   0.640
33693W        W 5419   9.289  32.827   4.994
33694W        W 5420  35.448  22.663  14.797
33695W        W 5421  21.090   2.320  11.408
33696W        W 5422  32.041  16.285   0.947
33697W        W 5423   3.347  14.571   3.803
33698W        W 5424  13.778   3.261  14.776
33699W        W 5425  30.454  19.114  12.637
33700W        W 5426   5.189  23.250  10.715
33701W        W 5427  28.394  31.624  14.327
33702W        W 5428  41.332  39.090  10.664
33703W        W 5429  26.012  36.038   2.879
33704W        W 5430  14.094  23.568   9.915
33705W        W 5431  17.275  24.201  10.296
33706W        W 5432  20.713  14.090   1.326
33707W        W 5433   3.244   2.394  10.473
33708W        W 5434  44.040  14.273   1.657
33709W        W 5435  13.123  14.098   4.293
33710W        W 5436  31.480  24.899   1.773
33711W        W 5437   2.399  12.071   1.285
33712W        W 5438  11.217  16.310  13.092
33713W        W 5439  31.825  21.566  13.083
33714W        W 5440  14.088  33.820   3.771
33715W        W 5441  36.782  33.422   2.741
33716W        W 5442  37.934  30.042  14.731
33717W        W 5443  25.177  10.364   2.266
33718W        W 5444   9.094  15.169  11.170
33719W        W 5445  38.957   3.224   3.169
33720W        W 5446  41.034  43.244   0.989
33721W        W 5447  16.876  26.750  13.701
33722W        W 5448   4.551  35.493   4.163
33723W        W 5449  21.609  21.059  13.087
33724W        W 5450  23.285   2.463  13.816
33725W        W 5451   1.956  19.295   3.375
33726W        W 5452   8.900  38.390  11.864
33727W        W 5453  29.955  15.432   4.632
33728W        W 5454  17.035  22.634   3.639
33729W        W 5455  40.700  26.682  13.259
33730W        W 5456  35.208  29.951   2.406
33731W        W 5457   9.302  21.134  12.276
33732W        W 5458  23.865  37.028  10.719
33733W        W 5459  14.825  42.339   3.732
33734W        W 5460  35.796   1.783   2.002
33735W        W 5461  28.874  34.454  13.849
33736W        W 5462   3.766  12.325   3.578
33737W        W 5463   6.892   1.283   1.295
33738W        W 5464  37.211  17.729  14.297
33739W        W 5465  27.049   1.056  10.591
33740W        W 5466   9.357   1.477   1.241
33741W        W 5467  40.586  15.317  11.540
33742W        W 5468  13.707  37.502  14.734
33743W        W 5469  44.818  42.237   2.986
33744W        W 5470  10.818   6.949   2.230
33745W        W 5471  20.794  33.465  10.682
33746W        W 5472  44.148  19.765   4.527
33747W        W 5473  19.653  26.236  12.046
33748W        W 5474  18.823  19.022   1.842
33749W        W 5475  29.175  38.660   1.747
33750W        W 5476  42.492   5.282   0.790
33751W        W 5477  36.034  20.608   3.922
33752W        W 5478  22.556  38.903  13.610
33753W        W 5479  11.951  37.596  12.957
33754W        W 5480  17.114   3.922  12.945
33755W        W 5481   6.355   2.931   1.166
33756W        W 5482  39.271  34.344   3.653
33757W        W 5483  14.735  43.853  11.407
33758W        W 5484   7.340   9.763  10.445
33759W        W 5485   0.726  14.377  12.860
33760W        W 5486  41.912  34.001  13.496
33761W        W 5487   7.409   2.727   2.246
33762W        W 5488  16.049  18.977  11.180
33763W        W 5489   6.195  32.852   1.592
33764W        W 5490  27.483  37.610  13.441
33765W        W 5491  34.722   0.984   3.577
33766W        W 5492   5.507  24.044  14.931
33767W        W 5493  36.542   2.541  13.445
33768W        W 5494   1.172  26.195  12.327
33769W        W 5495  23.808  17.036  12.021
33770W        W 5496  27.586  20.792  13.567
33771W        W 5497  12.481  44.786  14.353
33772W        W 5498  16.518   4.116  13.807
33773W        W 5499  34.001  14.595   4.326
33774W        W 5500  32.394  33.711  10.795
33775W        W 5501   6.664   4.998   0.828
33776W        W 5502  11.665   7.999  11.050
33777W        W 5503  30.376   2.017   4.455
33778W        W 5504  24.318  38.547   2.777
33779W        W 5505   1.501  16.615   3.078
33780W        W 5506  11.331   8.820   2.403
33781W        W 5507  23.716   1.109   3.585
33782W        W 5508   8.689  26.572  10.432
33783W        W 5509  27.394   9.759  13.774
33784W        W 5510   1.998  41.015   4.365
33785W        W 5511   3.164  29.590  13.137
33786W        W 5512  35.566  17.118   1.703
33787W        W 5513  23.326   4.802  13.511
33788W        W 5514  14.577  30.070  11.192
33789W        W 5515   8.475  41.018   0.887
33790W        W 5516  31.677  41.559  11.205
33791W        W 5517  21.119  43.627  11.889
33792W        W 5518  24.524   3.944  12.668
33793W        W 5519  13.190  11.947  13.257
33794W        W 5520  25.376   6.170   4.307
33795W        W 5521  33.099  10.683  14.176
33796W        W 5522  37.623  39.446  14.586
33797W        W 5523  22.934  27.626   2.271
33798W        W 5524   7.815   9.890  14.794
33799W        W 5525  17.456   6.985  12.786
33800W        W 5526  38.042  42.973  11.562
33801W        W 5527   4.897  34.911   3.396
33802W        W 5528  28.064  23.547   0.535
33803W        W 5529   8.110  25.267  13.012
33804W        W 5530  26.416  10.246  11.056
33805W        W 5531  16.621  19.504  13.778
33806W        W 5532  16.702   0.904  12.829
33807W        W 5533  15.508  26.890  14.229
33808W        W 5534  16.113  42.088   4.068
33809W        W 5535   1.789  11.815  13.848
33810W        W 5536  42.857  26.379   1.969
33811W        W 5537  24.932   2.808   3.053
33812W        W 5538  23.588  12.208  12.114
33813W        W 5539  13.683  13.699  11.671
33814W        W 5540  40.663   8.680  11.106
33815W        W 5541  19.858  42.627  13.288
33816W        W 5542  40.710  44.384  10.788
33817W        W 5543   1.082  38.325   2.750
33818W        W 5544  16.506  38.106  11.185
33819W        W 5545  13.753   8.302   1.255
33820W        W 5546   6.669  25.112   0.060
33821W        W 5547  14.960   7.928  10.679
33822W        W 5548  20.142   4.422   3.783
33823W        W 5549  14.855  32.370  14.868
33824W        W 5550  22.667   8.432  11.585
33825W        W 5551   8.295  35.854  10.106
33826W        W 5552  34.473  15.219   4.457
33827W        W 5553   0.378   1.462  14.999
33828W        W 5554  43.693  19.725   4.765
33829W        W 5555   8.818  16.845  14.351
33830W        W 5556  43.690   7.817  10.737
33831W        W 5557  29.731   4.246  14.068
33832W        W 5558  40.258   1.689   2.293
33833W        W 5559  28.704  37.890   0.187
33834W        W 5560  27.385  32.641  11.994
33835W        W 5561  27.985  25.033  14.506
33836W        W 5562  40.162  40.007  12.790
33837W        W 5563  29.885   0.176  12.630
33838W        W 5564  14.269   9.577   1.427
33839W        W 5565  38.965   4.531  14.420
33840W        W 5566  14.190  30.511  13.003
33841W        W 5567   5.344  35.197   1.208
33842W        W 5568  38.391  32.462   1.737
33843W        W 5569  28.737  40.385  12.972
33844W        W 5570   1.985  16.792   2.960
33845W        W 5571  13.763  37.061  13.950
33846W        W 5572  25.483   8.988  10.909
33847W        W 5573   6.440  22.220  14.795
33848W        W 5574  11.139  36.134   2.203
33849W        W 5575  25.495   3.957   1.265
33850W        W 5576  14.261  44.511  13.941
33851W        W 5577  30.143   5.455  12.499
33852W        W 5578  19.054  27.700   3.812
33853W        W 5579  37.456   0.350  13.964
33854W        W 5580  35.072  31.912  14.980
33855W        W 5581  20.069   2.342   2.831
33856W        W 5582  35.625  25.069  12.436
33857W        W 5583   0.763  18.789  13.583
33858W        W 5584   1.828  30.971  11.707
33859W        W 5585   5.012  13.723   3.323
33860W        W 5586  21.509  35.591   2.357
33861W        W 5587   4.153  13.664  11.006
33862W        W 5588  18.026  37.449  13.319
33863W        W 5589   9.865  39.160  14.978
33864W        W 5590  23.544  20.749   2.953
33865W        W 5591   6.219   0.145   3.157
33866W        W 5592  40.561  41.199   1.382
33867W        W 5593  16.656  14.119  13.916
33868W        W 5594  29.598  13.126  10.407
33869W        W 5595  27.347   4.057   1.983
33870W        W 5596  38.599  27.655   4.779
33871W        W 5597  24.921  28.636  12.884
33872W        W 5598   1.838  29.555  12.445
33873W        W 5599  21.522  22.556   2.253
33874W        W 5600  26.024  22.265  13.501
33875W        W 5601  30.386  30.664   3.306
33876W        W 5602  44.197   5.701  11.069
33877W        W 5603  41.709  13.186  14.874
33878W        W 5604   0.351   5.361   3.183
33879W        W 5605  23.680  13.379  11.412
33880W        W 5606  30.610   7.384   2.326
33881W        W 5607  43.450  41.267  11.088
33882W        W 5608  41.657  40.030   3.556
33883W        W 5609  19.102  32.103   0.464
33884W        W 5610  37.809  38.400  13.816
33885W        W 5611   5.888   0.614  13.504
33886W        W 5612  25.328  33.821  13.230
33887W        W 5613  12.675  32.330  10.737
33888W        W 5614  38.931  40.531  14.201
33889W        W 5615  37.940  29.460  13.040
33890W        W 5616  33.673   7.020  11.637
33891W        W 5617  14.908   6.992  14.216
33892W        W 5618  20.268  41.476  11.661
33893W        W 5619  11.769   2.029   3.076
33894W        W 5620  33.244  41.036  10.480
33895W        W 5621  17.259  42.961   0.106
33896W        W 5622  31.077  44.410   9.923
33897W        W 5623  20.998  40.827   3.215
33898W        W 5624  29.295  24.039   4.246
33899W        W 5625  28.576   7.950   4.822
33900W        W 5626   9.847  44.354   2.348
33901W        W 5627  11.383  15.811  13.072
33902W        W 5628  15.356   9.252   3.371
33903W        W 5629  28.944  30.906   1.208
33904W        W 5630  35.541  23.625   2.271
33905W        W 5631  23.821  10.300   0.699
33906W        W 5632   5.236  26.613  13.920
33907W        W 5633  31.380  23.712  11.954
33908W        W 5634   0.457   3.414   2.403
33909W        W 5635  12.733  19.061  13.646
33910W        W 5636  37.555   2.475  13.432
33911W        W 5637   3.448   0.627   2.010
33912W        W 5638  23.752  20.939  13.409
33913W        W 5639  25.137   3.658  13.370
33914W        W 5640  10.631  43.565   1.228
33915W        W 5641   4.354  21.779   2.243
33916W        W 5642  37.250  32.177   4.208
33917W        W 5643  41.093  38.018   3.864
33918W        W 5644  40.528   1.468  13.594
33919W        W 5645   6.780   0.315   3.766
33920W        W 5646  19.642  35.359   1.132
33921W        W 5647  13.277  34.481  10.094
33922W        W 5648  25.228  10.872   2.309
33923W        W 5649  17.152  36.063   4.619
33924W        W 5650   1.013  11.734   0.760
33925W        W 5651  22.250  39.866   0.851
33926W        W 5652  39.127  22.696   1.961
33927W        W 5653  40.489  15.289  14.333
33928W        W 5654   6.508   4.915   9.726
33929W        W 5655   9.305  24.949   4.120
33930W        W 5656  43.390  40.834  12.671
33931W        W 5657  33.164   7.006   3.647
33932W        W 5658   8.135  29.225  10.929
33933W        W 5659  31.100  30.538  10.609
33934W        W 5660  15.601  14.240   3.274
33935W        W 5661  44.438  20.198   4.538
33936W        W 5662  34.812  30.986  11.534
33937W        W 5663  15.731  41.956  12.812
33938W        W 5664  39.313   1.985  13.074
33939W        W 5665  11.358  22.306   0.731
33940W        W 5666   6.204  20.244  14.852
33941W        W 5667  22.405  12.201   4.623
33942W        W 5668  44.983  44.917   3.552
33943W        W 5669  42.942  21.528   4.562
33944W        W 5670  19.603  21.854   0.920
33945W        W 5671  23.963  44.893   2.248
33946W        W 5672  31.520  19.215   2.876
33947W        W 5673  39.359  25.209  11.525
33948W        W 5674  34.181  34.034   1.994
33949W        W 5675  24.708   4.845  13.853
33950W        W 5676   5.484   7.258  11.169
33951W        W 5677  44.891   7.665   4.929
33952W        W 5678  30.148   1.393   1.291
33953W        W 5679  29.293  25.055  11.018
33954W        W 5680  26.539  44.927  14.967
33955W        W 5681  35.438  28.278  13.901
33956W        W 5682  25.162  21.560  11.163
33957W        W 5683  30.158   1.916  12.069
33958W        W 5684  14.642  19.912  10.435
33959W        W 5685   5.457  23.674  11.588
33960W        W 5686   0.423  22.681  11.616
33961W        W 5687  30.540  22.682   1.912
33962W        W 5688  43.018   3.033   2.382
33963W        W 5689  27.240   9.851   0.538
33964W        W 5690  42.358  41.913   1.186
33965W        W 5691  23.122  29.570  13.788
33966W        W 5692  28.547   6.400  12.157
33967W        W 5693  42.926   6.818  14.325
33968W        W 5694  17.695  34.407  11.370
33969W        W 5695  26.641   1.496   1.813
33970W        W 5696  19.193  43.090   3.521
33971W        W 5697  26.611  34.036  14.841
33972W        W 5698  32.664  30.067   0.726
33973W        W 5699   5.411  31.438  10.708
33974W        W 5700  10.808  34.884  14.511
33975W        W 5701   0.147  43.936   3.731
33976W        W 5702  27.623   5.426  11.499
33977W        W 5703  42.079  25.914   1.405
33978W        W 5704  28.554  28.724  14.470
33979W        W 5705  28.166  28.168  11.871
33980W        W 5706  10.128  11.759  11.610
33981W        W 5707   0.562   6.771  14.759
33982W        W 5708  44.035  16.071   2.759
33983W        W 5709   6.657  30.898   1.884
33984W        W 5710  23.534  39.572   4.236
33985W        W 5711  40.270  17.199  10.795
33986W        W 5712  14.198  34.507   4.563
33987W        W 5713  39.271  29.928   1.630
33988W        W 5714  16.077  33.520   4.493
33989W        W 5715   4.406   1.488  10.721
33990W        W 5716  41.022   5.711   4.611
33991W        W 5717  37.514   6.158  12.545
33992W        W 5718  11.110  25.145   4.319
33993W        W 5719  21.971   9.708  11.449
33994W        W 5720  20.500   3.871  11.586
33995W        W 5721   7.705  13.549   0.885
33996W        W 5722   3.976  12.219  13.940
33997W        W 5723  44.761   4.949   3.757
33998W        W 5724  12.423  16.673  10.774
33999W        W 5725  27.902  30.327   0.744
34000W        W 5726  33.567  35.498  12.596
34001W        W 5727  10.612  26.304   0.168
34002W        W 5728   0.053  31.982  13.452
34003W        W 5729  39.862  43.029   1.878
34004W        W 5730  38.429  23.183  14.944
34005W        W 5731  36.263   6.647   2.328
34006W        W 5732  41.506   9.899   0.538
34007W        W 5733  34.553   9.833  12.997
34008W        W 5734  20.604  29.594   3.657
34009W        W 5735  30.209  44.936   4.066
34010W        W 5736  16.133  18.158  11.488
34011W        W 5737  12.609  18.736   1.658
34012W        W 5738   7.946  32.074  11.415
34013W        W 5739  24.353  24.076   3.563
34014W        W 5740  43.559  16.016  13.123
34015W        W 5741  36.950  25.098  14.807
34016W        W 5742  37.609  12.017  14.053
34017W        W 5743  30.893  17.256   1.039
34018W        W 5744  40.176   0.499   0.848
34019W        W 5745  23.474   5.673   0.820
34020W        W 5746  21.169   9.369   0.412
34021W        W 5747   7.769   0.784  12.413
34022W        W 5748   6.119  42.383   1.954
34023W        W 5749   4.957   9.357   3.574
34024W        W 5750  10.906  24.123  14.212
34025W        W 5751  23.013  31.488   0.311
34026W        W 5752   9.405  19.022  14.389
34027W        W 5753  36.308  43.268  10.548
34028W        W 5754   9.682  41.292   0.733
34029W        W 5755  19.041  18.161  11.671
34030W        W 5756  12.412  29.662  14.278
34031W        W 5757  31.461  33.124   0.121
34032W        W 5758   6.425  15.489   3.622
34033W        W 5759  16.974  30.514  10.515
34034W        W 5760  41.293  44.477   0.405
34035W        W 5761  38.988  12.730   4.012
34036W        W 5762   3.447  26.708   2.867
34037W        W 5763  26.191  36.303  14.033
34038W        W 5764  39.517  21.480   2.372
34039W        W 5765  24.704  41.139   1.582
34040W        W 5766  21.727   9.325  12.148
34041W        W 5767  38.915  18.864  14.054
34042W        W 5768  19.564  25.754  11.929
34043W        W 5769  26.549   9.902  12.347
34044W        W 5770  27.417  39.443   2.324
34045W        W 5771  30.101  31.889   2.958
34046W        W 5772  19.130  15.048  10.918
34047W        W 5773  21.647  26.466   4.232
34048W        W 5774  19.057  32.519  13.850
34049W        W 5775  34.470  26.923   2.845
34050W        W 5776  19.831  34.917   2.391
34051W        W 5777  23.751  22.546  14.996
34052W        W 5778  14.987  34.005  12.787
34053W        W 5779  22.189   0.466  13.880
34054W        W 5780  20.128  27.608  12.623
34055W        W 5781  31.390  19.351  12.402
34056W        W 5782   0.662  10.132  13.918
34057W        W 5783  26.005   3.780  10.702
34058W        W 5784   2.434   5.422  14.007
34059W        W 5785  18.141  34.129   0.966
34060W        W 5786  22.659  25.664  12.540
34061W        W 5787   1.710   5.366   4.541
34062W        W 5788  10.766  44.178  12.545
34063W        W 5789   0.876  15.690   3.451
34064W        W 5790   7.316  30.576  12.979
34065W        W 5791  22.206  42.723  11.755
34066W        W 5792  15.592  31.590  11.635
34067W        W 5793  18.787  37.323  10.277
34068W        W 5794  31.091  29.367   0.683
34069W        W 5795  36.868  30.032   2.865
34070W        W 5796  27.368  41.305   0.886
34071W        W 5797  33.491  24.248  12.519
34072W        W 5798  21.051  19.647   2.672
34073W        W 5799  41.866   5.325  13.669
34074W        W 5800   6.805  30.170  11.368
34075W        W 5801  41.963  14.212   1.763
34076W        W 5802  41.900   8.131  14.422
34077W        W 5803  43.512  29.878   3.308
34078W        W 5804   0.854  28.740   1.354
34079W        W 5805   3.028  43.677  10.691
34080W        W 5806   9.749  10.491   1.496
34081W        W 5807   4.930  22.596  12.498
34082W        W 5808   0.042  28.837   1.227
34083W        W 5809  43.554  31.639  12.805
34084W        W 5810  28.031   5.409  11.804
34085W        W 5811   9.940   8.801  12.585
34086W        W 5812   4.265  13.067  11.081
34087W        W 5813  12.475  14.294  12.066
34088W        W 5814  18.769  29.845   3.871
34089W        W 5815  21.252  26.812  13.889
34090W        W 5816  21.530   5.975  13.549
34091W        W 5817   8.372   7.616  14.943
34092W        W 5818   6.393  17.539  11.931
34093W        W 5819  30.320  42.237  14.257
34094W        W 5820   7.831   3.983  14.444
34095W        W 5821  17.299  17.651  12.056
34096W        W 5822  23.273   3.677   3.254
34097W        W 5823   8.231   2.689   4.541
34098W        W 5824   7.531  41.820  11.658
34099W        W 5825  35.950  42.319   3.957
34100W        W 5826  33.686   2.325   1.288
34101W        W 5827   6.891  22.638   3.675
34102W        W 5828  20.629  30.503  13.711
34103W        W 5829  31.002   6.279  11.117
34104W        W 5830  32.154  10.466   2.247
34105W        W 5831   8.469  42.284   0.420
34106W        W 5832  41.943  15.062   2.580
34107W        W 5833  18.089  42.039  10.502
34108W        W 5834  18.003  41.589  12.969
34109W        W 5835  44.770  38.300   1.194
34110W        W 5836  20.603  44.762  14.509
34111W        W 5837   1.961   2.743  10.408
34112W        W 5838  41.608  29.658   4.290
34113W        W 5839  22.941   6.333   1.182
34114W        W 5840  28.971  31.651  12.643
34115W        W 5841   4.899  43.302  10.919
34116W        W 5842   5.941  36.547   1.333
34117W        W 5843  40.383  39.423  10.577
34118W        W 5844  34.421  31.374   4.637
34119W        W 5845   0.500  18.708  13.072
34120W        W 5846  26.318  43.772   4.695
34121W        W 5847  25.891  23.697  12.351
34122W        W 5848   9.706  27.471   4.084
34123W        W 5849  18.268   8.275   1.274
34124W        W 5850  26.460   4.519  12.741
34125W        W 5851   0.979  42.336   4.170
34126W        W 5852  21.167   1.343  12.708
34127W        W 5853   8.871   8.944   0.375
34128W        W 5854   5.845  40.467  13.839
34129W        W 5855  41.478   7.907  11.036
34130W        W 5856  17.230   5.400  12.542
34131W        W 5857   6.472  31.639  12.282
34132W        W 5858  39.827  39.860  10.609
34133W        W 5859  22.515  24.182  10.162
34134W        W 5860  33.284  13.173   2.846
34135W        W 5861  32.007  11.563   4.483
34136W        W 5862   5.901  30.871  11.496
34137W        W 5863  10.447  39.615  14.075
34138W        W 5864  10.942  42.831  10.721
34139W        W 5865  35.129  11.616  10.719
34140W        W 5866  16.538   3.329   2.847
34141W        W 5867  39.394  24.287   2.814
34142W        W 5868  13.577   5.062   0.880
34143W        W 5869   2.551  39.503   2.886
34144W        W 5870  18.942  31.055  10.705
34145W        W 5871  28.993   0.919  13.941
34146W        W 5872   2.984  25.720  12.494
34147W        W 5873  14.250   1.038   0.970
34148W        W 5874  36.038  31.186   2.329
34149W        W 5875   2.723  40.084   4.142
34150W        W 5876  12.891  27.539   2.117
34151W        W 5877  25.709  28.116  11.987
34152W        W 5878  10.655  25.029  13.297
34153W        W 5879  33.271  44.854  13.161
34154W        W 5880  24.717  11.544   2.465
34155W        W 5881  16.621  15.810   1.378
34156W        W 5882  15.898  29.590   4.752
34157W        W 5883  31.568  16.489   0.842
34158W        W 5884  43.787   6.837   4.531
34159W        W 5885   1.048   0.570   3.178
34160W        W 5886  29.656  44.810   1.662
34161W        W 5887  37.082  24.902   0.888
34162W        W 5888   2.275  22.728  11.959
34163W        W 5889  41.441  25.045   4.587
34164W        W 5890  38.968   1.468  12.501
34165W        W 5891  34.175   8.379   4.145
34166W        W 5892  37.314  27.670  11.666
34167W        W 5893  13.239   2.792  13.358
34168W        W 5894  30.031  23.748  10.615
34169W        W 5895  36.858   1.962  12.444
34170W        W 5896  33.298  41.834   2.307
34171W        W 5897  17.570  42.873   4.698
34172W        W 5898  17.264   9.325  11.700
34173W        W 5899  18.279   0.827   1.241
34174W        W 5900  22.037  37.843  11.198
34175W        W 5901  36.619  35.070   2.666
34176W        W 5902  14.792  39.759   3.698
34177W        W 5903  22.823   2.064   4.692
34178W        W 5904   8.119  40.406  13.659
34179W        W 5905   8.652  36.661  10.969
34180W        W 5906  21.108  31.003   0.758
34181W        W 5907  28.156  12.707  14.862
34182W        W 5908   4.842  23.126   4.806
34183W        W 5909  37.852  24.090  11.672
34184W        W 5910  40.257  37.824  11.147
34185W        W 5911  17.030   1.224   4.627
34186W        W 5912  13.790   2.258  13.690
34187W        W 5913  19.712  38.109   3.124
34188W        W 5914  17.337  14.294  13.345
34189W        W 5915  11.914  27.519  13.498
34190W        W 5916  23.707  12.252   9.614
34191W        W 5917   1.569  25.683  11.536
34192W        W 5918  29.675  15.583   1.749
34193W        W 5919  10.590  25.553   2.376
34194W        W 5920  17.813   9.347   0.799
34195W        W 5921  34.396  38.997   1.518
34196W        W 5922  32.423  14.260  12.077
34197W        W 5923  10.056  18.630  13.881
34198W        W 5924  28.187  10.100   1.905
34199W        W 5925  43.508  26.275   2.592
34200W        W 5926   5.903  11.945   3.227
34201W        W 5927   6.814  29.993  12.350
34202W        W 5928   6.992  40.054  13.863
34203W        W 5929   5.391   3.758   2.235
34204W        W 5930  43.607  37.451  12.894
34205W        W 5931  30.262  40.060  14.697
34206W        W 5932  36.342  22.221   3.821
34207W        W 5933   7.327  33.315  12.119
34208W        W 5934  23.549   5.239   3.617
34209W        W 5935  26.451   5.045  12.472
34210W        W 5936  32.750   0.784   4.202
34211W        W 5937  23.759  42.830  12.486
34212W        W 5938  21.547  34.142   2.685
34213W        W 5939  31.981   9.107  14.485
34214W        W 5940  40.033   9.340   3.156
34215W        W 5941  24.107  26.746  10.627
34216W        W 5942  26.976  30.051   4.797
34217W        W 5943  43.233  44.957   1.777
34218W        W 5944  14.046  17.238   1.330
34219W        W 5945  41.998  37.933  13.463
34220W        W 5946   2.729  29.365   4.151
34221W        W 5947  40.367   8.889   4.095
34222W        W 5948  35.919  24.993   5.094
34223W        W 5949  16.127  23.505  13.463
34224W        W 5950  41.881  28.688  14.358
34225W        W 5951   3.958   9.126  11.921
34226W        W 5952  21.166  28.669  14.869
34227W        W 5953  34.461  23.318   3.967
34228W        W 5954   5.471   8.443  10.568
34229W        W 5955   1.524   5.600  11.163
34230W        W 5956  44.492  38.994   2.385
34231W        W 5957  12.959   6.878   2.802
34232W        W 5958  44.926   1.214  14.863
34233W        W 5959  33.498  44.456  11.234
34234W        W 5960  44.401   6.077   4.569
34235W        W 5961   2.208  13.698  10.979
34236W        W 5962  29.556  27.892  14.071
34237W        W 5963  44.590  44.471   2.950
34238W        W 5964  33.420  18.964   2.397
34239W        W 5965  11.113  32.416   0.815
34240W        W 5966  30.130  44.368   9.923
34241W        W 5967  15.103  20.720  11.578
34242W        W 5968  19.164  34.045   1.771
34243W        W 5969  40.845  31.536  13.456
34244W        W 5970  27.038  41.872   2.213
34245W        W 5971  35.296  42.942  13.497
34246W        W 5972  43.073  31.582  14.988
34247W        W 5973  40.827  20.751   3.730
34248W        W 5974  30.508  16.411   1.958
34249W        W 5975  41.685  27.908  13.955
34250W        W 5976  42.265  22.814  12.868
34251W        W 5977  41.318  37.785   4.267
34252W        W 5978  20.625  12.797  13.968
34253W        W 5979   8.185   3.477  14.890
34254W        W 5980  12.839  25.665  11.560
34255W        W 5981   3.918  21.807  10.591
34256W        W 5982  21.519  38.843  12.746
34257W        W 5983  22.277  20.810  13.611
34258W        W 5984  11.525   9.606   1.938
34259W        W 5985  33.500  43.478   0.195
34260W        W 5986  21.369  37.577   5.030
34261W        W 5987   2.192  11.245  11.480
34262W        W 5988  42.498  24.926   3.211
34263W        W 5989  27.171  36.830   0.337
34264W        W 5990   5.478  30.570  11.472
34265W        W 5991  37.227  32.983   4.626
34266W        W 5992  16.119  38.765   1.186
34267W        W 5993  43.670  11.447   0.256
34268W        W 5994   1.305   4.297   3.269
34269W        W 5995  44.708  14.740   2.296
34270W        W 5996   8.256  36.433  10.738
34271W        W 5997  34.210   9.990   2.157
34272W        W 5998  38.610  16.024  13.000
34273W        W 5999  39.803  39.601   0.786
34274W        W 6000  40.281  21.718  12.562
34275W        W 6001  36.585  31.543   1.797
34276W        W 6002  13.389  31.199  11.883
34277W        W 6003  30.658  35.842   0.822
34278W        W 6004  33.880  30.350   1.666
34279W        W 6005  13.735   5.531   1.811
34280W        W 6006   9.299  28.959   0.767
34281W        W 6007  11.351  16.148  11.082
34282W        W 6008  39.526  34.639   4.015
34283W        W 6009  32.031   4.971  13.806
34284W        W 6010  39.440  42.454   2.556
34285W        W 6011  29.603  19.562   0.548
34286W        W 6012   0.270  33.306   1.095
34287W        W 6013  40.185  37.130   4.240
34288W        W 6014  38.662   1.045  14.776
34289W        W 6015  43.674  10.905  11.153
34290W        W 6016  25.577  34.327  13.382
34291W        W 6017  35.565  26.034   2.880
34292W        W 6018  15.143   3.792   1.856
34293W        W 6019  18.611  29.205  14.033
34294W        W 6020   0.402  41.910   0.077
34295W        W 6021   3.297   4.275  13.357
34296W        W 6022  13.635   6.630  11.628
34297W        W 6023  15.684  26.950   5.092
34298W        W 6024  16.530  11.341  13.853
34299W        W 6025   4.137  29.067  10.765
34300W        W 6026  37.588  32.528  13.781
34301W        W 6027  39.451  11.242   1.186
34302W        W 6028  12.883  10.086  13.496
34303W        W 6029  31.175  18.296   4.245
34304W        W 6030   6.748  31.398   3.223
34305W        W 6031  30.060  44.031   0.445
34306W        W 6032  34.583  26.397   2.885
34307W        W 6033  12.421  23.085  12.107
34308W        W 6034  29.289  26.094   0.742
34309W        W 6035  25.813  40.718  14.304
34310W        W 6036  38.795  36.685  12.798
34311W        W 6037  27.994  40.550  11.633
34312W        W 6038  41.319  38.648   0.034
34313W        W 6039  11.309   7.191   3.371
34314W        W 6040  20.712  16.303   2.715
34315W        W 6041  24.883  34.974   3.888
34316W        W 6042  26.959  29.712  13.416
34317W        W 6043  17.806  10.592   1.886
34318W        W 6044  23.501   2.692  12.005
34319W        W 6045   9.450   6.481   1.001
34320W        W 6046  34.305  34.615   2.475
34321W        W 6047  36.406   2.221  12.407
34322W        W 6048  32.536  21.512   2.198
34323W        W 6049   6.700  33.108  14.866
34324W        W 6050  34.768  21.594  11.730
34325W        W 6051  31.468  23.281   9.467
34326W        W 6052  43.194  32.949  12.271
34327W        W 6053  35.982  29.533  13.444
34328W        W 6054  42.208  23.601   0.143
34329W        W 6055   2.514  12.190  12.988
34330W        W 6056  28.302  18.585  14.779
34331W        W 6057   1.824   8.828  12.357
34332W        W 6058   2.429  25.560  11.115
34333W        W 6059  18.267  10.113   3.411
34334W        W 6060  19.542  36.719   2.363
34335W        W 6061  28.227   4.478  13.023
34336W        W 6062  13.667  20.546   3.828
34337W        W 6063  31.017   6.433   1.339
34338W        W 6064  15.833  36.395   1.331
34339W        W 6065  40.189   4.545  12.531
34340W        W 6066  18.840  13.846  11.025
34341W        W 6067   6.959  26.072  14.038
34342W        W 6068  26.065   2.393   2.200
34343W        W 6069  38.858  42.483   0.865
34344W        W 6070   6.004   8.401  12.439
34345W        W 6071  21.034  42.703  10.618
34346W        W 6072   2.313   0.714   2.293
34347W        W 6073  38.032   3.466  10.292
34348W        W 6074  36.905  27.118  12.213
34349W        W 6075   5.694  37.057   1.405
34350W        W 6076  27.608  17.162  13.210
34351W        W 6077  29.327  38.498   1.244
34352W        W 6078  34.355  41.295  11.544
34353W        W 6079  16.990  11.301  14.178
34354W        W 6080  13.306  10.086   0.097
34355W        W 6081  28.531  42.523   4.664
34356W        W 6082  31.031   0.674  14.476
34357W        W 6083  10.005  44.754   2.927
34358W        W 6084  29.493  18.632   2.259
34359W        W 6085  42.988   7.882  13.643
34360W        W 6086  41.579  22.175  13.508
34361W        W 6087  34.897  31.446  12.406
34362W        W 6088  26.908   2.874   3.248
34363W        W 6089  24.696  11.178   0.867
34364W        W 6090  30.445  19.712  13.515
34365W        W 6091  18.097  36.929  13.449
34366W        W 6092  17.471  12.295   4.051
34367W        W 6093  37.307  13.441  14.988
34368W        W 6094   6.153  24.576  12.283
34369W        W 6095  21.561  11.111  14.835
34370W        W 6096  34.959  43.564   1.012
34371W        W 6097  24.031  23.958   3.161
34372W        W 6098  36.446   9.171   4.676
34373W        W 6099  30.966  10.278   4.274
34374W        W 6100  25.195  22.915  11.953
34375W        W 6101  27.628  28.687   4.971
34376W        W 6102  15.906  21.510  14.171
34377W        W 6103   3.092   2.388   1.820
34378W        W 6104  35.144  21.667   3.836
34379W        W 6105  12.203  23.312  13.981
34380W        W 6106  27.400   2.887   3.082
34381W        W 6107  40.386   1.221   1.503
34382W        W 6108   5.758  20.685  11.861
34383W        W 6109   6.779  35.732  14.507
34384W        W 6110  10.320  11.150   2.855
34385W        W 6111   6.255  18.025   3.289
34386W        W 6112  36.513  13.078   2.364
34387W        W 6113  31.846  26.674  14.539
34388W        W 6114  17.236   0.332  13.777
34389W        W 6115  35.418   1.030   0.230
34390W        W 6116   4.686  20.127  13.932
34391W        W 6117  44.883  39.827   0.674
34392W        W 6118  26.833  17.096  12.394
34393W        W 6119  14.335  27.137   1.851
34394W        W 6120  34.389  23.221  13.914
34395W        W 6121  34.955  13.308   0.561
34396W        W 6122   5.232  40.393  13.231
34397W        W 6123  23.813  26.498   4.592
34398W        W 6124  34.157  10.068   0.891
34399W        W 6125  16.238  30.607   3.783
34400W        W 6126  26.783   6.440  14.917
34401W        W 6127  12.150  20.228   2.793
34402W        W 6128  20.956   4.349  13.236
34403W        W 6129  21.994   8.887  14.416
34404W        W 6130  12.863  40.986   3.424
34405W        W 6131  16.620  37.585  12.096
34406W        W 6132  36.650  17.355   3.716
34407W        W 6133  31.918  25.186  14.872
34408W        W 6134   7.242   8.048  13.232
34409W        W 6135   8.721   0.796  14.516
34410W        W 6136  31.448  18.665   2.747
34411W        W 6137  43.020   5.171  14.976
34412W        W 6138  42.841   8.110   3.616
34413W        W 6139   1.603  26.464  12.500
34414W        W 6140  16.807  37.330   1.847
34415W        W 6141  28.030  27.054  14.461
34416W        W 6142  24.671  18.488   4.202
34417W        W 6143  37.027  24.586  14.697
34418W        W 6144   2.794   1.500  13.946
34419W        W 6145  33.049  14.803   0.390
34420W        W 6146  31.777  37.080  14.446
34421W        W 6147  17.913   1.604  13.050
34422W        W 6148  44.366  18.811  11.485
34423W        W 6149  16.095  34.819   4.137
34424W        W 6150  26.010  22.790  11.468
34425W        W 6151  32.830  18.291  12.396
34426W        W 6152  40.057  31.334   0.879
34427W        W 6153  19.171   2.709  11.128
34428W        W 6154  14.705  22.106  10.905
34429W        W 6155  10.808  33.584   1.426
34430W        W 6156   4.338  41.964   0.663
34431W        W 6157  26.684  31.120   3.420
34432W        W 6158  30.936  31.304   4.940
34433W        W 6159  34.430   2.658   2.796
34434W        W 6160  13.799   8.492  13.431
34435W        W 6161  30.833  12.736   3.341
34436W        W 6162  36.008  27.204   1.216
34437W        W 6163  23.605   7.362   4.659
34438W        W 6164  40.927  16.519  13.750
34439W        W 6165  26.168  38.413  14.119
34440W        W 6166  37.143   1.465  10.912
34441W        W 6167  12.605  15.770   9.932
34442W        W 6168  17.076  14.896  14.529
34443W        W 6169  40.093  22.840   0.932
34444W        W 6170  18.486  30.428  13.064
34445W        W 6171  11.777   8.890  13.899
34446W        W 6172  10.229   7.087   3.444
34447W        W 6173  35.962  15.273   4.455
34448W        W 6174   3.065  12.841  12.414
34449W        W 6175  40.279   5.792  13.650
34450W        W 6176   5.239  16.888   2.615
34451W        W 6177   5.221  26.057   0.638
34452W        W 6178  11.497   2.818  14.983
34453W        W 6179  11.265  25.231   5.646
34454W        W 6180  34.605   1.178   1.195
34455W        W 6181  11.745  34.461  13.924
34456W        W 6182  44.788  19.206  13.822
34457W        W 6183  13.305  25.277  10.340
34458W        W 6184   8.731  13.350   2.607
34459W        W 6185  43.597  12.839   2.339
34460W        W 6186  24.644   6.408   1.905
34461W        W 6187  40.196  14.586  12.454
34462W        W 6188  17.792  14.896   0.489
34463W        W 6189  19.658  31.677  14.005
34464W        W 6190  10.336  12.899  13.475
34465W        W 6191  41.784  28.074   1.265
34466W        W 6192   6.904  14.344   0.458
34467W        W 6193   3.484  44.711   0.518
34468W        W 6194  25.863  19.069  14.846
34469W        W 6195   2.040  17.224   5.088
34470W        W 6196   7.154   4.678  10.894
34471W        W 6197  36.412  32.105   0.177
34472W        W 6198   4.766  40.267   3.167
34473W        W 6199  44.381  37.519  12.154
34474W        W 6200   4.668  25.037   3.666
34475W        W 6201   6.721  34.870   1.608
34476W        W 6202  31.476   9.801   1.236
34477W        W 6203  34.976   4.140  14.656
34478W        W 6204  34.343  20.660  14.358
34479W        W 6205  41.758  20.137  13.062
34480W        W 6206  43.561  44.902  11.045
34481W        W 6207  42.315  13.596   2.948
34482W        W 6208  35.857  43.733  12.535
34483W        W 6209  32.642  13.803  13.963
34484W        W 6210  11.390   2.744   1.823
34485W        W 6211  33.125  32.428   3.700
34486W        W 6212  31.482   7.222   1.499
34487W        W 6213  26.717  34.883   1.200
34488W        W 6214   1.596  43.818   4.897
34489W        W 6215   4.735  26.743  13.297
34490W        W 6216   8.685   5.326   2.437
34491W        W 6217  37.304  16.163   3.239
34492W        W 6218  18.602  28.375   2.351
34493W        W 6219  24.790  30.245   0.785
34494W        W 6220  28.907  30.529  13.105
34495W        W 6221  40.122  30.827  14.361
34496W        W 6222   8.205   3.732  13.542
34497W        W 6223  16.208  33.665   0.043
34498W        W 6224  11.422  22.899  11.946
34499W        W 6225  37.010  30.762  13.995
34500W        W 6226  27.047   9.136  13.505
34501W        W 6227  42.284  17.483  14.753
34502W        W 6228  27.079   9.795   2.363
34503W        W 6229  39.092  30.477  14.418
34504W        W 6230  44.931   4.024  14.406
34505W        W 6231  44.898  41.155   5.115
34506W        W 6232  18.786  21.519   4.716
34507W        W 6233  19.497  18.656   0.178
34508W        W 6234  15.189  38.390   4.985
34509W        W 6235  21.181  29.121  11.485
34510W        W 6236  44.365  30.375   2.787
34511W        W 6237   7.741  11.835   3.409
34512W        W 6238  19.126  16.469  14.548
34513W        W 6239  16.788  40.467  14.003
34514W        W 6240  16.165   4.874  10.253
34515W        W 6241  15.402  25.047   1.258
34516W        W 6242  16.090  21.775   2.627
34517W        W 6243  29.416  26.559  11.133
34518W        W 6244  17.128  21.647  12.927
34519W        W 6245  38.201  21.351  12.032
34520W        W 6246  44.672  21.531  10.684
34521W        W 6247  34.350  26.794  11.463
34522W        W 6248   7.826  20.942   4.113
34523W        W 6249  17.359  14.916  12.390
34524W        W 6250  13.237  34.739   3.304
34525W        W 6251   5.908   0.000  12.114
34526W        W 6252   2.375  24.749   3.371
34527W        W 6253   4.410  28.615  12.340
34528W        W 6254  41.388   2.026  10.761
34529W        W 6255   1.795  40.868  11.521
34530W        W 6256  16.413  27.637   2.785
34531W        W 6257   7.721  31.452  13.370
34532W        W 6258   4.926   9.188  13.783
34533W        W 6259  39.366  15.742   1.351
34534W        W 6260  39.110   2.287   4.788
34535W        W 6261  38.858   0.800  12.821
34536W        W 6262  44.270  44.147  11.127
34537W        W 6263  37.708  27.391  11.805
34538W        W 6264   3.869  33.436  13.443
34539W        W 6265   9.814  42.495   3.609
34540W        W 6266  10.561  23.270   0.282
34541W        W 6267  17.866   4.217   0.287
34542W        W 6268  27.475  43.530  12.597
34543W        W 6269  12.972   9.183   3.057
34544W        W 6270   4.736  14.086   4.146
34545W        W 6271  30.075   5.481  11.018
34546W        W 6272  44.725  17.312   3.336
34547W        W 6273  40.026   4.683   2.391
34548W        W 6274  24.938   8.159   0.262
34549W        W 6275  29.276   9.818  12.446
34550W        W 6276  38.345  28.142   2.190
34551W        W 6277  34.776  21.666   3.358
34552W        W 6278  18.385  16.056   4.889
34553W        W 6279   2.959  28.299  13.023
34554W        W 6280  15.167  19.505  11.136
34555W        W 6281   4.944  44.728  13.066
34556W        W 6282  18.150  36.782  14.954
34557W        W 6283  15.057  41.137   9.758
34558W        W 6284  21.665  25.215   2.604
34559W        W 6285  18.765  24.859  14.362
34560W        W 6286  39.468  34.970  13.747
34561W        W 6287  22.757   2.923  14.408
34562W        W 6288  41.596   2.273  14.810
34563W        W 6289  33.451  41.123  12.563
34564W        W 6290  15.221  33.383  13.957
34565W        W 6291  33.098  17.580   1.346
34566W        W 6292   1.348  28.907  13.979
34567W        W 6293   5.957  21.722   2.934
34568W        W 6294  29.748   0.650   2.313
34569W        W 6295  19.575  11.371   0.517
34570W        W 6296  19.102  21.094  14.877
34571W        W 6297  27.926  31.599  10.770
34572W        W 6298   1.419  34.481   2.427
34573W        W 6299  20.276  38.836   3.629
34574W        W 6300   6.450   9.499  15.000
34575W        W 6301  38.911  13.383   1.790
34576W        W 6302  13.148  20.211  13.420
34577W        W 6303  25.178  10.350  10.666
34578W        W 6304  36.405  32.521  12.147
34579W        W 6305  37.846  20.106  12.398
34580W        W 6306   0.507   8.249   1.841
34581W        W 6307  12.594  11.370  12.857
34582W        W 6308  39.088  24.146   2.338
34583W        W 6309  10.392  30.874   2.750
34584W        W 6310   6.708  35.044  12.579
34585W        W 6311  26.011  17.032  13.968
34586W        W 6312  15.557  25.050   1.749
34587W        W 6313  15.612  31.344   1.821
34588W        W 6314   3.860  34.127   3.058
34589W        W 6315  23.695  37.940  11.487
34590W        W 6316  19.796   4.722   1.313
34591W        W 6317   3.392  13.067  11.040
34592W        W 6318   7.936  20.124  11.643
34593W        W 6319  19.600  32.397  12.188
34594W        W 6320  38.790  17.259   1.624
34595W        W 6321  44.237  20.485  14.782
34596W        W 6322  32.740   2.220   3.148
34597W        W 6323  34.522  34.851   4.688
34598W        W 6324  17.235  17.131   0.729
34599W        W 6325  42.167   5.707  13.419
34600W        W 6326  23.209  10.734   0.985
34601W        W 6327  41.332  37.784  13.003
34602W        W 6328  21.151   7.124   0.366
34603W        W 6329   9.846  21.029   4.168
34604W        W 6330  26.026  42.026  13.512
34605W        W 6331  23.849   7.114   4.265
34606W        W 6332  19.079   0.434   4.353
34607W        W 6333  30.868   5.256  14.366
34608W        W 6334  25.745  18.257   2.372
34609W        W 6335  10.457   5.974   2.837
34610W        W 6336  40.544   5.303   2.725
34611W        W 6337   9.850   3.716  11.141
34612W        W 6338  22.949   0.422  12.927
34613W        W 6339  44.762  25.189  13.942
34614W        W 6340   4.854  19.241   4.175
34615W        W 6341  41.794  18.693  10.727
34616W        W 6342  16.075   2.999   4.527
34617W        W 6343  32.641  33.429   2.340
34618W        W 6344  29.001  32.497  13.862
34619W        W 6345  43.399  23.759   2.739
34620W        W 6346  14.108  33.608  13.524
34621W        W 6347   6.262  23.004  12.928
34622W        W 6348  28.451  13.801  13.952
34623W        W 6349   7.636  41.536  11.112
34624W        W 6350  35.003  29.419   0.729
34625W        W 6351  12.809  39.352  13.425
34626W        W 6352   7.199  31.696   1.386
34627W        W 6353  43.486  17.010  12.220
34628W        W 6354   9.665  41.363   0.217
34629W        W 6355  33.426  18.649   0.685
34630W        W 6356  19.960  32.045  11.313
34631W        W 6357  17.116  24.556  10.654
34632W        W 6358  18.052  10.361  12.935
34633W        W 6359  27.653  28.015   0.318
34634W        W 6360   3.888   7.704  11.766
34635W        W 6361   3.807  28.186   0.293
34636W        W 6362  28.998  43.369  12.976
34637W        W 6363  24.296  33.807   3.810
34638W        W 6364  32.173  17.848  14.045
34639W        W 6365  33.694  22.432  12.180
34640W        W 6366  30.386  43.941  12.468
34641W        W 6367   2.389  29.914  13.883
34642W        W 6368   9.818  41.428   2.258
34643W        W 6369  28.416  21.769   4.202
34644W        W 6370  21.583  25.184  13.230
34645W        W 6371  26.067  26.477  14.032
34646W        W 6372  22.725  40.138  12.952
34647W        W 6373  36.465   4.235   1.562
34648W        W 6374   1.384  27.285  14.933
34649W        W 6375   3.812  12.789  11.171
34650W        W 6376  20.299   0.262   0.146
34651W        W 6377  19.333  29.454   0.744
34652W        W 6378  43.857  24.535   2.614
34653W        W 6379  21.451  33.048  11.025
34654W        W 6380  26.077  25.080   4.649
34655W        W 6381  42.145  37.297  13.696
34656W        W 6382  27.416  11.574  12.119
34657W        W 6383  24.095  39.649  10.713
34658W        W 6384  27.157  21.244   4.953
34659W        W 6385  20.996   2.949  13.044
34660W        W 6386   5.671   7.983   9.648
34661W        W 6387  33.061  44.346   5.023
34662W        W 6388  38.494  11.720  12.263
34663W        W 6389  20.204  34.287   0.434
34664W        W 6390  28.084  19.781  14.492
34665W        W 6391  24.467  22.775  11.201
34666W        W 6392  41.155  35.936   4.023
34667W        W 6393  35.951   7.300   2.318
34668W        W 6394  24.162  19.739  14.980
34669W        W 6395  16.068   8.780  11.467
34670W        W 6396  36.385  40.436   0.261
34671W        W 6397   2.298  39.678   3.308
34672W        W 6398  37.125   0.378  11.640
34673W        W 6399  31.207  41.322  11.431
34674W        W 6400  12.366  30.062  13.784
34675W        W 6401  30.450   7.124  11.156
34676W        W 6402   3.969  40.844   2.546
34677W        W 6403  41.039  20.302   4.517
34678W        W 6404   1.159  31.458  13.861
34679W        W 6405  33.080  42.788   4.931
34680W        W 6406  21.744  36.389   3.741
34681W        W 6407   5.600  33.634   1.400
34682W        W 6408  40.545  28.261  12.514
34683W        W 6409  42.297  16.515  14.812
34684W        W 6410  34.026  29.383  12.466
34685W        W 6411  39.721  38.423   1.477
34686W        W 6412  25.461  17.554   3.153
34687W        W 6413  19.548  29.897   4.832
34688W        W 6414   1.418   3.410  12.660
34689W        W 6415  33.593  31.133  14.584
34690W        W 6416  14.706   6.306  13.709
34691W        W 6417  24.453   1.377  10.752
34692W        W 6418  37.985  34.917   4.176
34693W        W 6419   5.295  32.403   3.260
34694W        W 6420  25.098  17.325  11.411
34695W        W 6421  19.082  39.691  10.784
34696W        W 6422  32.081  23.153   3.328
34697W        W 6423  31.662  41.696   9.827
34698W        W 6424  24.755   1.821   3.074
34699W        W 6425  41.057   8.659  12.937
34700W        W 6426  37.435  10.818  14.221
34701W        W 6427  28.996  30.859   2.873
34702W        W 6428   6.673  43.947   2.701
34703W        W 6429  26.253  44.484   0.616
34704W        W 6430  40.335  41.991  10.653
34705W        W 6431  21.005  16.752   4.672
34706W        W 6432   0.517  15.099  11.542
34707W        W 6433  13.771   1.334  13.425
34708W        W 6434  26.778  18.037   3.176
34709W        W 6435  25.052   8.044   1.754
34710W        W 6436  28.069   5.755  12.166
34711W        W 6437   6.854  23.026  11.607
34712W        W 6438  10.334  20.681   2.639
34713W        W 6439  11.692  17.515   9.864
34714W        W 6440  31.929  29.771   0.858
34715W        W 6441  32.914  43.938  13.369
34716W        W 6442  30.192  34.808   0.281
34717W        W 6443  18.125   6.417   3.896
34718W        W 6444  24.201   6.666  11.158
34719W        W 6445   6.716   2.900  14.787
34720W        W 6446  44.578  26.095  14.380
34721W        W 6447   3.660  17.740  12.957
34722W        W 6448  37.514  27.947  10.370
34723W        W 6449  44.544  22.030   4.130
34724W        W 6450   8.657  11.149   4.666
34725W        W 6451  42.251  42.270   3.821
34726W        W 6452  15.771  28.714  14.901
34727W        W 6453  13.054  18.259  12.511
34728W        W 6454  29.017  35.477   2.101
34729W        W 6455  29.649   5.361  10.664
34730W        W 6456  41.807   9.437   3.595
34731W        W 6457  13.402  41.228   0.398
34732W        W 6458  13.581  41.839  12.954
34733W        W 6459  44.355  43.878  10.671
34734W        W 6460   3.368  27.708   4.629
34735W        W 6461  17.117  30.234   5.145
34736W        W 6462   1.808   9.731  12.305
34737W        W 6463  18.136  17.622   4.699
34738W        W 6464  15.154  12.624   1.715
34739W        W 6465  31.913   6.452   2.014
34740W        W 6466   1.883  25.518  10.820
34741W        W 6467  38.811   2.397  12.619
34742W        W 6468  42.359  10.796   2.147
34743W        W 6469  38.859   2.738   4.667
34744W        W 6470  14.148  38.041  11.956
34745W        W 6471  35.341  41.426  12.367
34746W        W 6472   8.693  19.823  13.484
34747W        W 6473  36.602   1.702   4.609
34748W        W 6474  32.989  31.806   2.773
34749W        W 6475   6.932  27.267   2.917
34750W        W 6476  15.281   8.693  14.891
34751W        W 6477  34.583   7.187   1.758
34752W        W 6478  15.738   3.639  13.390
34753W        W 6479  41.753  36.734   0.847
34754W        W 6480  13.859  27.457   1.895
34755W        W 6481  30.092  10.574  10.712
34756W        W 6482   2.641  18.247   0.982
34757W        W 6483  34.868   0.302  11.091
34758W        W 6484  24.577  32.549  13.563
34759W        W 6485  21.967  21.320  11.875
34760W        W 6486  15.770  16.747  10.717
34761W        W 6487  41.876   4.821  12.500
34762W        W 6488  15.297   1.225   2.685
34763W        W 6489  33.486  20.718   0.398
34764W        W 6490  41.938  27.219   2.281
34765W        W 6491  13.494  13.734  12.863
34766W        W 6492  10.206  30.182  14.089
34767W        W 6493  34.330  32.070  11.181
34768W        W 6494  43.407  29.448  12.014
34769W        W 6495  23.756  33.593  14.869
34770W        W 6496  39.272   1.928  14.914
34771W        W 6497  44.480   4.262  14.318
34772W        W 6498  28.053  31.883   2.671
34773W        W 6499   0.724  31.671  11.124
34774W        W 6500  38.512   4.495  13.784
34775W        W 6501  43.406  42.495  11.415
34776W        W 6502  32.272  27.440  13.408
34777W        W 6503  26.668  43.017   0.969
34778W        W 6504  42.055   0.669  14.389
34779W        W 6505  13.304  30.457   4.131
34780W        W 6506  28.432  41.911  13.128
34781W        W 6507  11.844   0.790   3.133
34782W        W 6508  30.401  19.673   4.265
34783W        W 6509  20.021  29.560  12.827
34784W        W 6510   7.387  16.656   1.772
34785W        W 6511  39.212  39.851   2.643
34786W        W 6512  30.580   9.575  12.862
34787W        W 6513  40.257  10.255  10.627
34788W        W 6514  12.224  35.369  14.688
34789W        W 6515  11.919   6.116  13.372
34790W        W 6516  31.552  25.106   4.379
34791W        W 6517   2.912  18.651   0.319
34792W        W 6518  14.169   9.125   0.060
34793W        W 6519  12.880  29.856  12.950
34794W        W 6520  39.091  21.930   4.458
34795W        W 6521  25.263  43.060  12.533
34796W        W 6522  19.075   7.706  12.680
34797W        W 6523  31.970  25.163   2.458
34798W        W 6524  37.866  25.460  14.983
34799W        W 6525  19.526  16.750  14.438
34800W        W 6526  28.398  38.750   3.305
34801W        W 6527  19.768   7.828  11.574
34802W        W 6528  13.609  43.004  14.839
34803W        W 6529  25.248   1.960  10.613
34804W        W 6530   8.385  35.968  13.086
34805W        W 6531  40.375  14.177   0.189
34806W        W 6532  34.065   0.902   0.572
34807W        W 6533   1.061  20.437   0.419
34808W        W 6534  30.177  20.168  13.503
34809W        W 6535   5.160  31.433   0.362
34810W        W 6536   4.402  44.388   4.604
34811W        W 6537   6.273  39.159  11.651
34812W        W 6538   1.233  12.147  11.566
34813W        W 6539  28.592  16.153  11.503
34814W        W 6540  42.806  13.787   4.178
34815W        W 6541  19.023  14.713   4.712
34816W        W 6542  38.558  37.520  12.901
34817W        W 6543  24.114  15.750   4.969
34818W        W 6544  25.274  32.916   1.621
34819W        W 6545  20.023  19.299   2.345
34820W        W 6546   1.623   7.846  12.819
34821W        W 6547  25.254  16.012   1.927
34822W        W 6548   7.783   5.769  13.216
34823W        W 6549   0.419  44.275   3.443
34824W        W 6550   8.824   4.326  10.386
34825W        W 6551  36.856  13.545  14.201
34826W        W 6552  42.229   8.748  14.277
34827W        W 6553  41.397  22.531   0.336
34828W        W 6554  17.076  25.044  12.407
34829W        W 6555  30.175  34.911   2.577
34830W        W 6556  40.397  19.636  14.453
34831W        W 6557  20.992   8.688  14.086
34832W        W 6558  28.956   5.783   1.838
34833W        W 6559  32.062  13.097  11.395
34834W        W 6560  42.171  32.431  13.838
34835W        W 6561  17.618  29.431   3.214
34836W        W 6562  11.245  26.512  12.807
34837W        W 6563  33.490  19.825  12.463
34838W        W 6564  17.726   2.218   4.071
34839W        W 6565  42.494   0.844   1.289
34840W        W 6566   7.381  16.678   4.715
34841W        W 6567  13.227  28.606  14.894
34842W        W 6568  33.656   6.795  14.531
34843W        W 6569  38.952  34.094   4.922
34844W        W 6570  16.711  40.077   0.392
34845W        W 6571  13.335  41.387  14.494
34846W        W 6572  11.351  40.652   2.791
34847W        W 6573  44.057   6.756  14.822
34848W        W 6574   9.306  32.032  10.271
34849W        W 6575  12.372  31.984  10.531
34850W        W 6576  32.587   1.943   4.600
34851W        W 6577   1.949  41.907  14.374
34852W        W 6578  31.160  11.591   0.830
34853W        W 6579   0.881   1.537  13.554
34854W        W 6580  17.321  37.942   0.105
34855W        W 6581  28.411   1.352   1.920
34856W        W 6582  28.817  20.106  12.073
34857W        W 6583  32.595  35.913  11.092
34858W        W 6584  33.983   8.754  12.986
34859W        W 6585  22.805  43.392  11.450
34860W        W 6586  40.765  11.121  10.716
34861W        W 6587  34.374   0.405  10.783
34862W        W 6588  30.749  16.821  10.906
34863W        W 6589  25.303  20.131   4.255
34864W        W 6590  29.476  39.561   0.451
34865W        W 6591  27.048  38.087   3.588
34866W        W 6592   4.384  18.090  14.914
34867W        W 6593  38.154  44.055   1.258
34868W        W 6594  32.547  37.465  14.570
34869W        W 6595  18.865  19.656   4.122
34870W        W 6596  15.586  35.880   3.831
34871W        W 6597   9.321  15.891   4.204
34872W        W 6598  21.977  43.479  14.541
34873W        W 6599  38.013  28.458  14.560
34874W        W 6600  36.185  38.002   4.210
34875W        W 6601  13.568  16.116  10.582
34876W        W 6602  16.666  21.937   4.754
34877W        W 6603  38.311  41.719  12.129
34878W        W 6604  36.128  38.380   0.742
34879W        W 6605  18.567  41.387  11.183
34880W        W 6606  21.784  41.330  11.728
34881W        W 6607   0.260  29.923  13.058
34882W        W 6608  29.542  33.431   2.173
34883W        W 6609   7.260  14.827   2.255
34884W        W 6610   4.687  39.540  13.493
34885W        W 6611  44.940  20.322   4.658
34886W        W 6612  40.512  31.536   2.721
34887W        W 6613  27.073  35.437  10.376
34888W        W 6614   3.997   2.345   4.509
34889W        W 6615  39.350  18.269  11.094
34890W        W 6616  32.056  42.460  13.440
34891W        W 6617  10.204  20.423  14.867
34892W        W 6618  38.451   4.295   1.421
34893W        W 6619  39.332  21.769   3.640
34894W        W 6620  26.066   3.472  11.983
34895W        W 6621  25.021  44.315   0.852
34896W        W 6622  33.853  27.180  12.679
34897W        W 6623  24.632   9.142   0.538
34898W        W 6624  32.914   8.296   2.440
34899W        W 6625  33.847  41.523  14.215
34900W        W 6626  13.767  18.819  11.851
34901W        W 6627  10.181  32.333   1.678
34902W        W 6628  35.397   5.911   1.302
34903W        W 6629  30.213  29.438   3.444
34904W        W 6630   0.042  33.826  12.413
34905W        W 6631  21.702  23.197  11.462
34906W        W 6632  44.375   1.432   4.632
34907W        W 6633  11.277   3.847  14.005
34908W        W 6634  16.060  33.330   0.878
34909W        W 6635   5.694  35.852   4.129
34910W        W 6636  35.601  39.719  11.886
34911W        W 6637  31.680  11.611   1.416
34912W        W 6638  25.707  28.514  13.659
34913W        W 6639  27.940  15.032   4.053
34914W        W 6640  24.390  32.276   3.198
34915W        W 6641  16.720  43.465  13.096
34916W        W 6642  29.057  25.246  12.496
34917W        W 6643  25.990  13.201  14.222
34918W        W 6644   0.910  26.044  10.676
34919W        W 6645  20.471   5.806  12.916
34920W        W 6646  41.948  32.144  14.696
34921W        W 6647   6.357  38.585  14.573
34922W        W 6648  18.602  21.059  10.601
34923W        W 6649   4.282  24.244   2.755
34924W        W 6650   3.842  13.630  12.325
34925W        W 6651  18.543  16.203  12.403
34926W        W 6652  20.632   5.939  10.737
34927W        W 6653  14.081  24.584  12.551
34928W        W 6654  13.267  44.763  13.035
34929W        W 6655   6.740  11.254   2.447
34930W        W 6656  37.148  10.894  12.062
34931W        W 6657  28.252   9.509   3.526
34932W        W 6658  40.903  15.639  12.627
34933W        W 6659  37.054  19.616   0.622
34934W        W 6660  43.604  14.274  13.165
34935W        W 6661  12.645  42.352   3.899
34936W        W 6662  14.066  17.145  13.728
34937W        W 6663  25.026  18.054  13.570
34938W        W 6664  37.533  35.651   0.781
34939W        W 6665  35.304  12.071  11.516
34940W        W 6666  38.760  35.547  12.065
34941W        W 6667  42.812  23.620  14.381
34942W        W 6668  44.992   4.917  13.929
34943W        W 6669  20.161  35.275   0.408
34944W        W 6670  27.879  16.739  13.014
34945W        W 6671  26.567  19.974   5.145
34946W        W 6672  38.775  14.141  11.911
34947W        W 6673  43.426   3.088   3.262
34948W        W 6674   6.576   7.394   5.534
34949W        W 6675  12.664  39.463  14.284
34950W        W 6676  32.351  31.193   3.188
34951W        W 6677  19.871  29.045   3.795
34952W        W 6678  25.774  24.908  11.204
34953W        W 6679  29.702  25.199   4.735
34954W        W 6680  20.578  42.811   3.189
34955W        W 6681  39.100  37.848  13.961
34956W        W 6682  22.761  39.384   0.506
34957W        W 6683  14.068   5.714  14.895
34958W        W 6684  13.112   9.155   1.356
34959W        W 6685   9.656  25.786  14.229
34960W        W 6686   2.784  19.803   0.960
34961W        W 6687  28.705  30.720   3.821
34962W        W 6688  33.587  18.741  14.772
34963W        W 6689  29.807   4.272  14.894
34964W        W 6690  31.169  18.586   3.389
34965W        W 6691  22.039   0.006  12.545
34966W        W 6692  14.620  19.550   0.309
34967W        W 6693   6.854  24.513  10.611
34968W        W 6694   4.277  33.074   4.296
34969W        W 6695  24.678  33.537  12.100
34970W        W 6696   9.315  24.795   1.153
34971W        W 6697  41.870  41.538  12.429
34972W        W 6698  37.059  39.021   2.762
34973W        W 6699  33.947   8.469  13.427
34974W        W 6700   3.879  20.151  12.985
34975W        W 6701  13.093  10.650  11.385
34976W        W 6702   7.576  15.717   3.684
34977W        W 6703  30.677  24.762  12.016
34978W        W 6704  17.377  24.140  11.551
34979W        W 6705  14.438  38.753  11.517
34980W        W 6706  14.583  38.864   2.240
34981W        W 6707  38.253  23.121   3.727
34982W        W 6708   8.689   9.249  12.400
34983W        W 6709  12.213  19.738   4.769
34984W        W 6710  18.140  29.616   1.936
34985W        W 6711  16.557  39.943   1.399
34986W        W 6712  41.069   0.359   2.345
34987W        W 6713  33.894  11.967   2.411
34988W        W 6714  38.026  19.992  14.868
34989W        W 6715  39.618   9.339  11.698
34990W        W 6716  24.860  42.627   3.189
34991W        W 6717  42.812  10.237  12.602
34992W        W 6718  36.530  17.090   4.528
34993W        W 6719  44.238  19.717  11.574
34994W        W 6720   8.677  18.864   0.885
34995W        W 6721  36.956  28.707  10.623
34996W        W 6722  36.314  18.666   3.847
34997W        W 6723  19.784   7.048  11.207
34998W        W 6724  14.940  25.466   2.878
34999W        W 6725  16.571  23.192   2.233
35000W        W 6726  27.593  20.560  12.098
35001W        W 6727  36.494  18.194  14.286
35002W        W 6728  21.006  10.602   3.212
35003W        W 6729  14.165  24.976   2.633
35004W        W 6730  17.562   0.810  14.448
35005W        W 6731  11.056  19.877   2.061
35006W        W 6732  34.683  12.916  13.050
35007W        W 6733  14.873  42.712   0.267
35008W        W 6734  26.161  33.003  12.569
35009W        W 6735  34.427  31.181  14.249
35010W        W 6736  42.096  26.081  11.146
35011W        W 6737  40.005   0.437  10.490
35012W        W 6738  14.195  18.674  12.084
35013W        W 6739  27.885  43.253   2.205
35014W        W 6740  33.143  31.171   0.286
35015W        W 6741   0.449   2.350  11.890
35016W        W 6742   3.681   3.780   1.274
35017W        W 6743  25.331  24.258   5.244
35018W        W 6744  19.521  20.551  12.164
35019W        W 6745   2.341  30.043  11.482
35020W        W 6746  29.031  17.220  10.902
35021W        W 6747  18.191  18.235  12.818
35022W        W 6748  13.434   7.846  10.778
35023W        W 6749  18.165   2.826   2.945
35024W        W 6750  23.991  32.737   1.814
35025W        W 6751  38.763   5.808  13.464
35026W        W 6752  31.605  25.624  10.225
35027W        W 6753  40.094  32.275  14.554
35028W        W 6754  29.207  30.593   0.220
35029W        W 6755  30.528  13.079   0.032
35030W        W 6756  24.994  18.335   4.771
35031W        W 6757  19.820  24.224   1.798
35032W        W 6758   4.821  44.403  12.210
35033W        W 6759  38.743  44.303   5.095
35034W        W 6760  38.392   6.239   1.806
35035W        W 6761  33.902  15.861   1.710
35036W        W 6762  18.091  43.897  11.482
35037W        W 6763  39.175   8.577  11.431
35038W        W 6764  39.521  25.101   1.110
35039W        W 6765  24.620  26.799   5.094
35040W        W 6766  25.759  25.067   5.077
35041W        W 6767  23.442  39.926  13.339
35042W        W 6768  13.542  17.798  11.113
35043W        W 6769   2.244  36.436   0.520
35044W        W 6770  22.482   2.304  11.517
35045W        W 6771  41.267  31.274   0.259
35046W        W 6772  24.708  28.485  10.678
35047W        W 6773  36.323  17.085  10.996
35048W        W 6774   4.556  39.553  12.081
35049W        W 6775   9.574  33.811  12.633
35050W        W 6776  28.751  13.176   4.699
35051W        W 6777  40.771  22.708  13.903
35052W        W 6778  13.709  36.962  10.670
35053W        W 6779  34.361   6.246   3.627
35054W        W 6780  28.971  13.631   1.410
35055W        W 6781  15.601  12.167   0.432
35056W        W 6782  27.107  14.117   3.062
35057W        W 6783  30.650  27.984   5.080
35058W        W 6784   2.359  14.919  12.405
35059W        W 6785  16.514  34.406   3.281
35060W        W 6786  37.810  41.519   4.946
35061W        W 6787  40.975  38.416   3.276
35062W        W 6788  35.179   8.583   0.487
35063W        W 6789   3.885  38.313   3.508
35064W        W 6790  38.060  13.925  10.767
35065W        W 6791  25.808  34.894   3.035
35066W        W 6792  25.623  19.252   5.165
35067W        W 6793  39.126   9.864   1.293
35068W        W 6794  10.707  18.531  13.002
35069W        W 6795   0.275   5.663   2.753
35070W        W 6796  26.132  22.795  12.498
35071W        W 6797  35.360  32.659  12.903
35072W        W 6798  29.875   0.779   4.183
35073W        W 6799  20.660  35.278   4.898
35074W        W 6800  29.893   8.822  13.904
35075W        W 6801  30.611  42.476   0.036
35076W        W 6802  31.512  43.706   2.840
35077W        W 6803  27.266  22.174   3.606
35078W        W 6804   8.708  21.768   3.870
35079W        W 6805  18.063  17.169  11.929
35080W        W 6806  41.210  36.385  13.795
35081W        W 6807  36.554  40.293   0.793
35082W        W 6808  10.432   9.823  14.308
35083W        W 6809  29.188   9.321  14.027
35084W        W 6810  33.345  19.204  14.867
35085W        W 6811  24.918   3.197  13.470
35086W        W 6812  18.584   4.772   1.901
35087W        W 6813  38.260  39.014  11.608
35088W        W 6814  42.534  18.616   1.711
35089W        W 6815   4.399  17.648   4.736
35090W        W 6816   0.147   7.455  11.494
35091W        W 6817   5.899  30.845  13.333
35092W        W 6818   8.124   0.870   1.940
35093W        W 6819  13.664  19.397   4.183
35094W        W 6820  12.322  37.790  12.151
35095W        W 6821   8.565   7.420   4.280
35096W        W 6822  38.383  28.214  10.571
35097W        W 6823  23.541  43.857   3.296
35098W        W 6824   9.111   8.647   5.148
35099W        W 6825  30.988   6.763   2.654
35100W        W 6826  37.351  14.225   0.129
35101W        W 6827   8.191  40.881   3.536
35102W        W 6828  35.363  24.076   0.892
35103W        W 6829  12.132  31.452   3.192
35104W        W 6830  20.541  40.963   2.917
35105W        W 6831  10.342  40.470  14.681
35106W        W 6832  31.587  17.554   2.755
35107W        W 6833   3.944  15.679  10.459
35108W        W 6834  25.146  22.044   0.357
35109W        W 6835  20.733  26.436  12.964
35110W        W 6836  15.863  22.778  11.073
35111W        W 6837  42.752  33.489  14.289
35112W        W 6838   3.963  44.482   2.747
35113W        W 6839  22.509  28.122   9.785
35114W        W 6840   3.730  12.937  13.553
35115W        W 6841  35.630  20.171  11.923
35116W        W 6842  24.929  10.703  11.727
35117W        W 6843  12.249  22.559   0.659
35118W        W 6844  14.445   7.297   0.107
35119W        W 6845  22.825  38.440  12.815
35120W        W 6846   1.460   6.449  14.428
35121W        W 6847  39.497  35.674   0.425
35122W        W 6848  38.895  43.825  10.227
35123W        W 6849  34.533  27.909  13.275
35124W        W 6850  31.083  23.157  11.252
35125W        W 6851  29.630  21.696   2.195
35126W        W 6852   3.450   6.193  13.245
35127W        W 6853  13.287  30.011  13.822
35128W        W 6854  29.845   1.110  13.746
35129W        W 6855  19.630  26.094   3.835
35130W        W 6856  19.015  12.357   0.447
35131W        W 6857  12.707  23.156  14.022
35132W        W 6858   8.622  38.977   0.075
35133W        W 6859  38.826  44.285   9.949
35134W        W 6860   3.874  19.098   3.746
35135W        W 6861  41.918   1.595  13.410
35136W        W 6862  36.617   3.384   0.650
35137W        W 6863   7.864  44.318  12.546
35138W        W 6864  16.056  41.408  13.815
35139W        W 6865  21.184   7.661   1.460
35140W        W 6866  35.873  11.201   1.407
35141W        W 6867   0.008   8.699  14.884
35142W        W 6868   7.785   6.381  10.588
35143W        W 6869  20.074  23.334   2.670
35144W        W 6870  15.900  17.051   0.343
35145W        W 6871  36.439  19.075  13.158
35146W        W 6872  16.304  42.245   2.784
35147W        W 6873  33.003  34.846  12.462
35148W        W 6874   9.915   3.506   1.815
35149W        W 6875  15.526  34.507  11.184
35150W        W 6876  22.066  12.771  12.943
35151W        W 6877  36.033  18.274   4.081
35152W        W 6878   7.849  42.027   4.792
35153W        W 6879  23.159  11.874   3.174
35154W        W 6880  19.288   6.850   1.399
35155W        W 6881  27.538   5.761   3.840
35156W        W 6882  15.576   8.156  13.433
35157W        W 6883  38.451   9.480  12.000
35158W        W 6884  40.296   0.829  13.855
35159W        W 6885  25.746  29.700  14.274
35160W        W 6886  26.450   5.812  12.915
35161W        W 6887  30.311  35.403  13.337
35162W        W 6888  16.980  41.475   1.786
35163W        W 6889  12.332  33.956  11.368
35164W        W 6890  22.510   7.937  11.613
35165W        W 6891  28.975  31.373   2.901
35166W        W 6892  30.366   4.798   1.516
35167W        W 6893  26.661   7.884  10.642
35168W        W 6894   8.388  36.963   0.887
35169W        W 6895  42.919  25.183  12.006
35170W        W 6896  18.752  37.865  12.932
35171W        W 6897  31.044  35.446   4.530
35172W        W 6898  28.999  15.670   0.498
35173W        W 6899  43.984  43.949   2.180
35174W        W 6900  41.820   3.778  14.498
35175W        W 6901  12.709  11.300  13.369
35176W        W 6902   1.833  20.131   1.277
35177W        W 6903  41.963  18.237  12.104
35178W        W 6904  17.750  33.013  11.153
35179W        W 6905  42.043  34.216  13.957
35180W        W 6906  41.087  33.447   0.416
35181W        W 6907   4.427  35.415  14.006
35182W        W 6908  20.794  38.825   3.673
35183W        W 6909   9.880  39.966   4.097
35184W        W 6910  29.563   3.224   1.642
35185W        W 6911   7.624  25.610   2.707
35186W        W 6912  20.953  35.949   4.713
35187W        W 6913  41.947  37.044   1.758
35188W        W 6914  34.560  11.926   1.673
35189W        W 6915  44.079  17.744  13.394
35190W        W 6916   4.399  43.354   3.226
35191W        W 6917  16.727  30.989   2.404
35192W        W 6918   8.295   7.087  14.997
35193W        W 6919  17.792  31.058  12.759
35194W        W 6920  39.764  34.824  13.318
35195W        W 6921   9.822   7.340   2.245
35196W        W 6922   1.805  39.082   0.949
35197W        W 6923  38.650  41.049   0.430
35198W        W 6924   1.958  31.987  13.650
35199W        W 6925   2.491  17.557  13.576
35200W        W 6926  27.720  35.145   4.423
35201W        W 6927  29.420  11.184   4.076
35202W        W 6928  29.487  26.599   0.778
35203W        W 6929   8.018  24.506  14.251
35204W        W 6930  12.338  25.352   0.030
35205W        W 6931   2.468  20.159  10.695
35206W        W 6932   5.364  20.974   1.057
35207W        W 6933   4.396  27.014   0.744
35208W        W 6934  40.812  36.836   0.221
35209W        W 6935  42.093  25.976  12.857
35210W        W 6936  21.087  19.355   4.306
35211W        W 6937  31.195   6.414   0.354
35212W        W 6938  15.093  34.488  14.826
35213W        W 6939  37.624   9.262   5.056
35214W        W 6940   1.898  26.230   2.278
35215W        W 6941  29.697  34.940   0.325
35216W        W 6942  22.233  13.641  14.266
35217W        W 6943  12.051  31.370   1.268
35218W        W 6944   5.790  16.643   4.324
35219W        W 6945   9.442  37.908  13.882
35220W        W 6946   8.477  28.973  13.414
35221W        W 6947  40.900  33.353   4.482
35222W        W 6948  16.728  44.950   4.277
35223W        W 6949  30.641  11.544   2.289
35224W        W 6950   5.399  44.050  10.676
35225W        W 6951  12.626  24.140  14.013
35226W        W 6952   9.244  23.521  14.427
35227W        W 6953  11.684  18.527  13.287
35228W        W 6954  15.168   8.363  13.747
35229W        W 6955   5.811  32.864   0.802
35230W        W 6956  30.630  31.338  13.649
35231W        W 6957   3.874  43.227  10.670
35232W        W 6958   2.796  44.322  11.708
35233W        W 6959  26.739  21.134   3.675
35234W        W 6960   7.313  39.270  12.381
35235W        W 6961  28.428  16.300   0.165
35236W        W 6962  13.413  28.254  11.057
35237W        W 6963  33.117  13.577  13.800
35238W        W 6964   3.268  21.536   4.544
35239W        W 6965   4.640  18.317   5.277
35240W        W 6966  29.631  42.450  12.840
35241W        W 6967  23.158  29.089  13.010
35242W        W 6968  32.961  40.068   1.216
35243W        W 6969   6.504  44.995  10.728
35244W        W 6970  28.820  26.418   2.749
35245W        W 6971  16.726  16.903  11.590
35246W        W 6972  33.419  20.994  13.030
35247W        W 6973  19.501  37.494   4.457
35248W        W 6974  15.569  33.312   1.796
35249W        W 6975   9.390   7.895  13.410
35250W        W 6976  36.471   8.128  10.901
35251W        W 6977  44.503  24.286   3.202
35252W        W 6978  20.703   2.345  12.205
35253W        W 6979  12.668  40.946  11.565
35254W        W 6980  21.105   5.619   4.380
35255W        W 6981  21.541  25.204   1.696
35256W        W 6982   3.915  28.110  11.337
35257W        W 6983  10.867  29.537  11.610
35258W        W 6984  43.433  22.082  12.563
35259W        W 6985  37.818  28.125  14.943
35260W        W 6986   8.593  17.149  10.518
35261W        W 6987  29.708  23.704   4.247
35262W        W 6988   2.793  25.976   2.431
35263W        W 6989   3.411   2.092   2.265
35264W        W 6990  16.066  26.461   2.384
35265W        W 6991  40.266  42.946  10.645
35266W        W 6992  14.638  13.832   2.309
35267W        W 6993  19.202   5.644  11.007
35268W        W 6994  44.396  32.818  12.754
35269W        W 6995  15.169  14.645  10.623
35270W        W 6996   4.931  29.551  12.972
35271W        W 6997  36.625  15.045  13.755
35272W        W 6998  11.120   3.517   1.353
35273W        W 6999  20.644  23.991  11.837
35274W        W 7000  41.842  13.422   1.296
35275W        W 7001  22.626  25.100   0.186
35276W        W 7002  29.119   7.337   4.083
35277W        W 7003   3.793  17.250  11.110
35278W        W 7004  27.029   5.349  14.346
35279W        W 7005  15.642  13.032  11.017
35280W        W 7006  24.986  35.443  14.770
35281W        W 7007  17.691  41.562  13.422
35282W        W 7008  39.586  38.855   0.947
35283W        W 7009  19.326  33.148   4.166
35284W        W 7010   9.291  38.387   3.425
35285W        W 7011   9.346  33.326  13.793
35286W        W 7012  42.838  11.665   4.555
35287W        W 7013  18.068  22.601   0.281
35288W        W 7014  15.067   8.351   1.473
35289W        W 7015  33.066  32.692  14.920
35290W        W 7016  36.864   0.235   3.900
35291W        W 7017  23.612  37.041  12.939
35292W        W 7018  28.996  33.591   4.219
35293W        W 7019  21.723  15.686  12.212
35294W        W 7020  21.544   4.899   1.694
35295W        W 7021  21.001  30.576   2.438
35296W        W 7022  29.555   0.345   4.207
35297W        W 7023  26.554  17.220   2.190
35298W        W 7024  23.066  18.173  10.974
35299W        W 7025  24.502  32.609  13.040
35300W        W 7026   1.057  33.009   4.236
35301W        W 7027   0.898  39.390  11.413
35302W        W 7028  44.411   9.409   3.501
35303W        W 7029  18.737  43.349   3.455
35304W        W 7030  16.997  31.661   2.986
35305W        W 7031   5.172   2.038   4.081
35306W        W 7032   9.726  11.679  14.520
35307W        W 7033  28.099  12.928   3.242
35308W        W 7034  28.929  29.993  10.721
35309W        W 7035  27.125  10.962  11.403
35310W        W 7036  27.880   3.861  13.841
35311W        W 7037  37.449  12.363   4.607
35312W        W 7038  13.633  33.432   3.841
35313W        W 7039  14.198  22.486  13.914
35314W        W 7040  15.129   6.752  10.613
35315W        W 7041  39.341  33.916   3.149
35316W        W 7042  30.976  17.679   3.118
35317W        W 7043   5.383  10.522   2.296
35318W        W 7044   1.446  38.584  10.705
35319W        W 7045  24.922  34.397  14.046
35320W        W 7046  21.254  10.856   0.826
35321W        W 7047   7.352  18.859  13.206
35322W        W 7048   9.759   7.700  11.649
35323W        W 7049  39.574  17.281  11.212
35324W        W 7050   0.570  30.414  10.613
35325W        W 7051   4.872  20.625   2.879
35326W        W 7052   4.181  18.270   3.373
35327W        W 7053  27.482  13.793   1.360
35328W        W 7054  44.976  19.142  12.436
35329W        W 7055  27.487  35.573   3.529
35330W        W 7056  23.446  12.965   0.208
35331W        W 7057   4.825  35.895  10.588
35332W        W 7058  42.861  43.228  13.527
35333W        W 7059  32.195  31.412  14.436
35334W        W 7060  31.327  28.945   3.746
35335W        W 7061  12.494   1.359  13.104
35336W        W 7062  29.176   8.645  12.004
35337W        W 7063  38.147  14.372  12.769
35338W        W 7064   2.992  11.522   1.402
35339W        W 7065  37.900  20.303  11.123
35340W        W 7066  33.216  37.522   2.767
35341W        W 7067   9.849  22.593   3.692
35342W        W 7068  17.605  10.328   1.481
35343W        W 7069  25.979  18.930  10.706
35344W        W 7070  26.140  17.392   1.250
35345W        W 7071   6.633  40.347  13.172
35346W        W 7072  39.094  42.356  13.412
35347W        W 7073   2.819   8.987  11.991
35348W        W 7074  33.910  21.241   0.831
35349W        W 7075  26.898   4.128   3.750
35350W        W 7076  23.990  11.623   9.979
35351W        W 7077  13.862  35.204  11.671
35352W        W 7078  26.502  38.291   3.719
35353W        W 7079   5.672  37.912  13.301
35354W        W 7080  29.549  28.650   4.577
35355W        W 7081  27.152  38.118  12.118
35356W        W 7082  15.235  42.635   1.418
35357W        W 7083   6.872  39.506  10.789
35358W        W 7084   4.185  28.693   1.470
35359W        W 7085  36.457  34.165   0.855
35360W        W 7086  31.631  15.210  12.732
35361W        W 7087  42.283  44.914  12.025
35362W        W 7088  41.509   2.158  11.249
35363W        W 7089   0.892  23.290  12.986
35364W        W 7090  43.253  42.086  10.658
35365W        W 7091  36.903  25.578  13.863
35366W        W 7092  20.103  30.135   2.608
35367W        W 7093  17.753  30.515   4.685
35368W        W 7094  32.469  10.591   0.645
35369W        W 7095  32.117  42.030   2.888
35370W        W 7096  36.972  30.382   1.876
35371W        W 7097  38.958  34.113  12.168
35372W        W 7098  32.947   9.566  14.412
35373W        W 7099  18.066   7.455   1.131
35374W        W 7100  16.788  29.857   2.211
35375W        W 7101   6.896   7.950   4.292
35376W        W 7102  44.454   2.970  12.174
35377W        W 7103  11.785  12.496  12.576
35378W        W 7104  13.739  34.390  11.975
35379W        W 7105  26.972   0.978   3.404
35380W        W 7106   0.839  18.113   2.826
35381W        W 7107   6.359  12.628  13.303
35382W        W 7108  39.890  44.147  13.064
35383W        W 7109  11.623  41.308   1.871
35384W        W 7110   6.095  32.111   5.087
35385W        W 7111  17.343  28.726   0.821
35386W        W 7112  10.480  25.656   9.723
35387W        W 7113  35.097   0.705   3.091
35388W        W 7114   4.517  15.849   2.394
35389W        W 7115  10.116  43.013   4.264
35390W        W 7116   8.220  34.298  12.682
35391W        W 7117  37.609   6.919  12.963
35392W        W 7118  25.185  20.839   2.291
35393W        W 7119  37.174  35.498  12.332
35394W        W 7120  11.655  27.618   1.931
35395W        W 7121  25.376  24.271  13.955
35396W        W 7122   3.322  13.389  10.647
35397W        W 7123  19.252  41.758   2.345
35398W        W 7124  21.164   6.415   4.997
35399W        W 7125  10.891   7.176  11.659
35400W        W 7126  10.855  12.197   3.288
35401W        W 7127  14.798   8.098  14.604
35402W        W 7128  23.440   5.174   1.137
35403W        W 7129  11.158  41.533   0.335
35404W        W 7130   6.296   1.333   4.880
35405W        W 7131  31.489  20.337  14.617
35406W        W 7132  32.541  16.522  14.975
35407W        W 7133  17.345  25.272  13.795
35408W        W 7134  23.708  19.281  12.594
35409W        W 7135   0.026  16.682   0.953
35410W        W 7136   5.380  18.218  13.951
35411W        W 7137  39.539   8.746  14.550
35412W        W 7138   7.703  37.544  12.129
35413W        W 7139  10.339  12.962  11.041
35414W        W 7140  37.351  23.620  10.821
35415W        W 7141  33.472   2.384  12.933
35416W        W 7142  26.378  15.094   1.941
35417W        W 7143   5.434   2.508   4.035
35418W        W 7144  33.442  40.876   4.161
35419W        W 7145  22.723  33.222   4.075
35420W        W 7146  43.800   9.830   1.387
35421W        W 7147  42.732   5.412  12.536
35422W        W 7148  14.139   6.139  11.676
35423W        W 7149   1.734  41.042   0.861
35424W        W 7150  35.820  41.871   4.777
35425W        W 7151  41.854   5.149   2.176
35426W        W 7152   3.344  23.607   1.404
35427W        W 7153  39.137  14.794   2.076
35428W        W 7154  40.911  18.049   0.040
35429W        W 7155  40.445   7.444  10.605
35430W        W 7156  13.194  36.972   2.945
35431W        W 7157  19.634  36.018   0.914
35432W        W 7158  10.286  40.380  12.081
35433W        W 7159  18.974   2.938  12.523
35434W        W 7160  11.762  43.518  13.853
35435W        W 7161  18.782  13.338  11.139
35436W        W 7162  33.629   5.459   9.847
35437W        W 7163  37.991  29.521   1.842
35438W        W 7164  38.837  15.619   4.139
35439W        W 7165   6.229   9.619  14.005
35440W        W 7166  18.139  14.316   2.661
35441W        W 7167  28.412  17.594   3.168
35442W        W 7168  34.675  27.198  11.422
35443W        W 7169  43.706  13.726  12.407
35444W        W 7170   7.636  31.553   0.802
35445W        W 7171  34.548  17.353   2.653
35446W        W 7172  16.417  34.125  14.768
35447W        W 7173   2.750  26.425  11.754
35448W        W 7174  41.253  24.224  14.476
35449W        W 7175  39.493  24.052  13.508
35450W        W 7176   9.951  33.621   4.094
35451W        W 7177  24.014  21.475   3.189
35452W        W 7178   7.432  40.137  13.613
35453W        W 7179  25.115   9.348  12.390
35454W        W 7180  18.201  38.779  14.427
35455W        W 7181  28.218  18.973  11.152
35456W        W 7182   1.647  26.435  13.759
35457W        W 7183  37.789  43.941  13.868
35458W        W 7184  11.341   9.170  13.908
35459W        W 7185  26.099  44.027   4.297
35460W        W 7186  24.510  10.904   4.758
35461W        W 7187  25.967   4.781  13.410
35462W        W 7188  14.600  28.403   1.732
35463W        W 7189  26.626  32.471   0.189
35464W        W 7190  25.088  28.124   2.514
35465W        W 7191  20.768  12.601  12.547
35466W        W 7192  13.037  29.563  11.111
35467W        W 7193  22.137  34.086  11.174
35468W        W 7194  37.103  34.437   4.116
35469W        W 7195  14.581  35.141  13.782
35470W        W 7196   5.809  17.303  11.050
35471W        W 7197  35.330   3.481   2.174
35472W        W 7198  14.128  44.176   3.267
35473W        W 7199  34.948  26.171  14.371
35474W        W 7200  33.481  16.655   3.815
35475W        W 7201  16.359  26.638  13.288
35476W        W 7202  39.797  32.454  12.026
35477W        W 7203  39.559  37.736  12.913
35478W        W 7204   0.342  24.512  12.606
35479W        W 7205  38.877   3.933  10.668
35480W        W 7206  44.307   8.462   0.423
35481W        W 7207  27.419  26.417  11.809
35482W        W 7208  39.443  40.025   4.023
35483W        W 7209   3.732  25.431  14.949
35484W        W 7210   6.746  14.264  10.542
35485W        W 7211   9.536  27.799  13.874
35486W        W 7212  34.863  21.610   4.338
35487W        W 7213  10.208  13.379  11.595
35488W        W 7214  25.481  43.661   3.687
35489W        W 7215  17.123  33.140  12.944
35490W        W 7216  26.167  31.066  10.695
35491W        W 7217  35.016  34.995  11.202
35492W        W 7218  29.137  27.336   0.605
35493W        W 7219  26.048  29.483   2.322
35494W        W 7220  36.351  32.906   3.274
35495W        W 7221  34.106   8.098   1.735
35496W        W 7222   2.423  18.171  11.182
35497W        W 7223  38.125  16.757   1.440
35498W        W 7224  32.713   5.453   1.031
35499W        W 7225  38.880  15.527   0.307
35500W        W 7226  42.359  10.141  13.885
35501W        W 7227  17.212  36.608  13.841
35502W        W 7228   2.275   7.147  10.739
35503W        W 7229  20.148  10.350  10.655
35504W        W 7230   1.958  20.291  14.445
35505W        W 7231  19.335  34.511   2.806
35506W        W 7232  44.989  16.319  12.669
35507W        W 7233   1.366  40.358   0.865
35508W        W 7234  17.563  14.325   4.859
35509W        W 7235  11.143  20.630  14.332
35510W        W 7236  13.644  24.280  11.904
35511W        W 7237  10.295  15.484   0.215
35512W        W 7238   9.020   5.053   0.310
35513W        W 7239  30.158   7.294  12.800
35514W        W 7240  39.767  40.282   1.747
35515W        W 7241  35.456  23.733   3.645
35516W        W 7242  29.065   1.551  10.698
35517W        W 7243  40.700  44.871   2.728
35518W        W 7244  20.020  32.186  14.413
35519W        W 7245  20.075  21.524   2.429
35520W        W 7246  36.846  28.477   1.921
35521W        W 7247  33.106  36.027   0.867
35522W        W 7248  38.599  15.876  11.529
35523W        W 7249   2.933   4.800   1.424
35524W        W 7250  42.542  38.902   3.735
35525W        W 7251  25.592  12.363  14.571
35526W        W 7252   9.903  18.570   4.187
35527W        W 7253  21.762  24.046  12.068
35528W        W 7254  13.682   6.676  12.908
35529W        W 7255  13.798   7.465  10.757
35530W        W 7256  42.838  24.624   2.485
35531W        W 7257  38.779  39.968  13.406
35532W        W 7258  32.295  33.101   4.083
35533W        W 7259  34.618   1.860   4.703
35534W        W 7260  41.650   5.735  13.390
35535W        W 7261  41.737  25.609  12.988
35536W        W 7262  14.921   9.760  14.728
35537W        W 7263  23.722  32.910  12.999
35538W        W 7264  12.755  20.054   1.844
35539W        W 7265  16.894  11.687  12.547
35540W        W 7266  33.481  36.276  11.623
35541W        W 7267   1.211  26.576  13.457
35542W        W 7268  17.961  21.897   2.921
35543W        W 7269  32.599  27.630   1.790
35544W        W 7270  10.021  25.621  11.577
35545W        W 7271  25.244  33.623   3.926
35546W        W 7272  33.308  15.125  12.129
35547W        W 7273  37.425   3.858  12.849
35548W        W 7274  21.393   2.353  13.371
35549W        W 7275  40.593  23.637   3.667
35550W        W 7276   6.760  37.218   2.785
35551W        W 7277  26.106  42.948   2.190
35552W        W 7278  25.319  38.102  12.187
35553W        W 7279  20.722  21.236  13.478
35554W        W 7280   8.949  11.557  13.842
35555W        W 7281  42.777  27.158   3.372
35556W        W 7282   8.559  33.931  12.518
35557W        W 7283  44.458  16.412   9.845
35558W        W 7284  29.600   9.730   4.224
35559W        W 7285   9.408  44.246   1.731
35560W        W 7286  20.844  39.884   1.281
35561W        W 7287  19.031  36.946   4.503
35562W        W 7288  17.314  21.196  13.950
35563W        W 7289  43.234  25.613   0.858
35564W        W 7290   3.248  19.996  14.093
35565W        W 7291   5.717  20.750   1.994
35566W        W 7292  20.762  38.354   3.879
35567W        W 7293   2.787  39.765   4.615
35568W        W 7294  36.967  19.034   4.400
35569W        W 7295  15.800  40.154  14.380
35570W        W 7296  24.099  38.755   4.363
35571W        W 7297  26.800  21.667  11.232
35572W        W 7298  14.266   1.740  14.421
35573W        W 7299   3.423  15.754  10.578
35574W        W 7300  33.423  39.498   2.240
35575W        W 7301  14.792  10.730   3.717
35576W        W 7302   1.754  11.725   1.307
35577W        W 7303  42.543  39.370  14.777
35578W        W 7304  10.713  15.538  14.250
35579W        W 7305  28.394   3.964   4.311
35580W        W 7306  39.598  28.887  13.394
35581W        W 7307  31.058   2.719   4.288
35582W        W 7308   4.010   6.524   3.733
35583W        W 7309  27.647  35.676   2.725
35584W        W 7310  38.952   7.941   2.745
35585W        W 7311  12.800  17.520   0.809
35586W        W 7312  18.009  11.081   4.054
35587W        W 7313   9.481  25.726   3.241
35588W        W 7314   6.758  12.288  13.347
35589W        W 7315  32.444   0.861   2.187
35590W        W 7316  18.780  14.813   3.126
35591W        W 7317  22.654  33.947   2.281
35592W        W 7318  11.166  44.437  13.344
35593W        W 7319   4.944  26.472   1.357
35594W        W 7320  34.044  40.941   3.700
35595W        W 7321  21.263  10.833   2.744
35596W        W 7322  35.521  44.746  12.386
35597W        W 7323  42.985  36.803  13.928
35598W        W 7324  38.421  10.360   2.947
35599W        W 7325  39.300  17.246   3.290
35600W        W 7326  28.007  34.371  11.443
35601W        W 7327  39.959  12.095  10.380
35602W        W 7328  22.425  17.228   1.720
35603W        W 7329   1.919  40.759   3.916
35604W        W 7330   0.683  36.308   4.598
35605W        W 7331  38.974  26.338  12.947
35606W        W 7332   6.551  35.413  12.973
35607W        W 7333  35.983  35.397  14.694
35608W        W 7334   4.900   5.388   1.952
35609W        W 7335  33.982  36.872   4.923
35610W        W 7336  14.002  33.129   2.237
35611W        W 7337  42.792  42.870   4.605
35612W        W 7338  14.959  31.008  14.969
35613W        W 7339  39.428  30.941   2.603
35614W        W 7340   9.062  43.541   3.682
35615W        W 7341   5.753  28.090  12.991
35616W        W 7342  37.116  25.088  13.981
35617W        W 7343  42.414  24.671  12.562
35618W        W 7344  16.534   3.214   4.654
35619W        W 7345  16.070  29.541   0.251
35620W        W 7346  34.962  16.349  12.374
35621W        W 7347  26.888  32.671   1.780
35622W        W 7348  11.720  10.968  10.266
35623W        W 7349   6.220  12.603   0.998
35624W        W 7350  32.306  43.074   3.707
35625W        W 7351  13.144  28.203   2.685
35626W        W 7352  36.298   9.113  13.048
35627W        W 7353  19.580  36.504  11.579
35628W        W 7354  14.211  44.743  12.061
35629W        W 7355  16.644   4.814   3.810
35630W        W 7356  14.624  14.870  14.299
35631W        W 7357  33.119  20.587   1.744
35632W        W 7358  19.170  28.797  14.687
35633W        W 7359  15.172   5.262  10.614
35634W        W 7360  29.066  11.684   1.815
35635W        W 7361  36.273   8.136   2.372
35636W        W 7362  27.180  38.580   3.040
35637W        W 7363  26.550  27.428  11.089
35638W        W 7364  31.945  18.109  11.382
35639W        W 7365  24.067  21.011  14.677
35640W        W 7366  13.594  20.359   1.040
35641W        W 7367  25.154  29.335   2.486
35642W        W 7368  36.956   8.703   0.911
35643W        W 7369  13.197   2.730   3.155
35644W        W 7370  30.684   6.375   3.616
35645W        W 7371  35.464  16.705  13.858
35646W        W 7372  17.261  30.518   1.627
35647W        W 7373  18.605  40.886  11.609
35648W        W 7374  15.362  41.950  12.413
35649W        W 7375  37.885  41.000   0.912
35650W        W 7376  15.923   8.868  11.963
35651W        W 7377  16.438  37.171   5.159
35652W        W 7378   2.336  33.096   1.357
35653W        W 7379  42.307   7.717   1.177
35654W        W 7380  20.727  17.795  14.328
35655W        W 7381   0.125  18.332  11.712
35656W        W 7382  40.321  41.072  14.870
35657W        W 7383  29.259  44.483   3.282
35658W        W 7384  19.633   8.175   2.791
35659W        W 7385  18.064  12.905   3.618
35660W        W 7386  12.115  18.782   4.563
35661W        W 7387  15.859  16.811  10.202
35662W        W 7388   2.770  27.427  12.042
35663W        W 7389   8.226   0.057   1.389
35664W        W 7390  10.018  26.501  10.113
35665W        W 7391   7.132  44.294   2.810
35666W        W 7392   9.197  24.246  12.895
35667W        W 7393  14.250  32.044   1.738
35668W        W 7394  37.648  16.287  12.563
35669W        W 7395   1.950  27.720  12.363
35670W        W 7396  31.398  20.663   2.334
35671W        W 7397   7.591  30.512  13.440
35672W        W 7398  19.825  33.876   2.354
35673W        W 7399  17.651  34.784   4.827
35674W        W 7400  14.676  40.234  11.101
35675W        W 7401  44.797  37.165   2.404
35676W        W 7402  20.972   9.085  11.097
35677W        W 7403   3.776  32.159  14.854
35678W        W 7404  11.268  23.789  11.030
35679W        W 7405  23.056  43.698  11.836
35680W        W 7406   9.268  20.314  13.839
35681W        W 7407   7.576  27.446   4.160
35682W        W 7408  38.031  38.190   2.153
35683W        W 7409   7.074  10.587  10.703
35684W        W 7410  26.654  25.917   1.820
35685W        W 7411   9.649  18.618   1.179
35686W        W 7412   2.719  15.320   4.126
35687W        W 7413  15.029  32.609  11.167
35688W        W 7414  41.625   0.890   1.834
35689W        W 7415   3.021  21.592  11.649
35690W        W 7416  27.713  34.788   0.482
35691W        W 7417  14.782  33.065   4.728
35692W        W 7418  38.327   6.930  14.137
35693W        W 7419  23.214   1.172   4.311
35694W        W 7420  39.477  34.628   1.946
35695W        W 7421  29.519   4.919  10.325
35696W        W 7422  39.725  35.050  10.699
35697W        W 7423  36.824  18.371   2.810
35698W        W 7424  18.112  40.885  11.467
35699W        W 7425  28.470  32.562   1.159
35700W        W 7426  27.001   9.819   2.874
35701W        W 7427  11.055   8.311  10.494
35702W        W 7428   1.919  14.399  10.674
35703W        W 7429  12.745   1.296  14.866
35704W        W 7430  17.758  26.166  10.373
35705W        W 7431   4.337  40.441   2.899
35706W        W 7432  34.787  28.701  13.386
35707W        W 7433   3.519  24.554  13.960
35708W        W 7434  36.938   0.292  12.963
35709W        W 7435  23.509  21.811  10.783
35710W        W 7436  33.054  15.256   4.272
35711W        W 7437  38.575  15.565  10.641
35712W        W 7438  12.323  18.067  10.671
35713W        W 7439   8.241  27.170   2.603
35714W        W 7440  34.264  43.309   4.541
35715W        W 7441  15.988  28.045  10.326
35716W        W 7442   4.296   8.931   4.808
35717W        W 7443  24.198  26.587   4.909
35718W        W 7444   6.456  11.844  12.691
35719W        W 7445  33.924  23.393   3.669
35720W        W 7446  34.835   1.001  11.522
35721W        W 7447   9.041  23.060  14.348
35722W        W 7448  31.485  24.893  14.727
35723W        W 7449   8.845  43.435   1.511
35724W        W 7450  27.474  35.007  14.583
35725W        W 7451  20.224  13.368   1.418
35726W        W 7452  19.126  31.596  14.780
35727W        W 7453  38.332  36.504   4.331
35728W        W 7454   4.614  22.207   0.900
35729W        W 7455  43.978   9.794   0.787
35730W        W 7456   3.830  41.988  11.956
35731W        W 7457  24.076  44.085  10.563
35732W        W 7458  24.969  34.897  13.897
35733W        W 7459  38.297   0.549   1.237
35734W        W 7460  41.852   2.733   1.904
35735W        W 7461  36.411  44.203  10.733
35736W        W 7462  22.629  41.954  11.541
35737W        W 7463  40.004  14.189   3.236
35738W        W 7464   8.137  33.108   1.714
35739W        W 7465  27.764   7.172   1.866
35740W        W 7466   5.349  32.228   4.992
35741W        W 7467  43.335   1.527   1.834
35742W        W 7468  16.395   6.763  13.972
35743W        W 7469  21.044  17.163  14.907
35744W        W 7470   6.381  13.071  13.995
35745W        W 7471   8.485   4.500  13.974
35746W        W 7472  16.570  18.138   3.624
35747W        W 7473  28.684  44.884  11.564
35748W        W 7474   9.355  21.191  13.181
35749W        W 7475  41.062   8.289   4.076
35750W        W 7476  24.552  30.857   1.913
35751W        W 7477  41.323  27.080   4.603
35752W        W 7478   1.760  35.113   1.880
35753W        W 7479  10.145  40.068   0.706
35754W        W 7480  14.698  15.887  10.309
35755W        W 7481  12.800  14.582  12.805
35756W        W 7482   4.248  11.061   3.597
35757W        W 7483  25.584   6.366   2.697
35758W        W 7484  15.017  35.983  13.413
35759W        W 7485  39.337   0.887  12.561
35760W        W 7486  23.241  44.099  13.341
35761W        W 7487   2.782  32.388   1.094
35762W        W 7488  40.852   6.768   3.161
35763W        W 7489  16.527  15.600  14.510
35764W        W 7490  40.337   8.230   1.393
35765W        W 7491  26.963  16.381   3.826
35766W        W 7492  15.281  38.961  10.185
35767W        W 7493  31.106  36.696   3.986
35768W        W 7494  39.661  34.451   4.486
35769W        W 7495  10.084  25.049  11.551
35770W        W 7496  41.745  41.523   0.792
35771W        W 7497  35.276  33.517   1.258
35772W        W 7498  20.662   3.652  14.907
35773W        W 7499  24.529  28.980   3.596
35774W        W 7500  18.249  33.558   4.372
35775W        W 7501  28.991  33.038  14.961
35776W        W 7502   7.813  43.226   2.388
35777W        W 7503   3.263   7.732   3.141
35778W        W 7504  32.355  21.250  10.813
35779W        W 7505  30.022   2.936   3.799
35780W        W 7506  36.373  38.517   4.095
35781W        W 7507  34.883  35.865   3.096
35782W        W 7508  38.306   4.891   3.208
35783W        W 7509  29.573  15.206  13.215
35784W        W 7510  37.341   6.699  11.681
35785W        W 7511  29.543  33.998   4.904
35786W        W 7512  33.572  32.547  13.453
35787W        W 7513  24.671  22.080   3.704
35788W        W 7514   2.830  34.366   0.969
35789W        W 7515  19.249  39.937   1.793
35790W        W 7516  36.985  42.553  10.696
35791W        W 7517  15.405  43.796   0.776
35792W        W 7518  12.641  28.430  12.987
35793W        W 7519   7.244  20.105   0.734
35794W        W 7520   0.630  24.673   3.869
35795W        W 7521  21.078  40.131  11.935
35796W        W 7522  23.837  41.336   1.436
35797W        W 7523  38.236  20.215   0.823
35798W        W 7524   3.997  23.484   0.854
35799W        W 7525  32.026  22.478   2.660
35800W        W 7526   6.499  31.384   1.870
35801W        W 7527   3.298   8.726  11.359
35802W        W 7528  16.250  38.744  13.389
35803W        W 7529  30.958   9.797   0.401
35804W        W 7530  17.669  41.377   4.994
35805W        W 7531  13.377  41.518   1.318
35806W        W 7532  37.417  15.152  10.452
35807W        W 7533  44.878  39.824   2.539
35808W        W 7534   0.377  44.704  10.068
35809W        W 7535  24.788   2.794   1.718
35810W        W 7536  25.055  43.968  11.531
35811W        W 7537   1.524  19.059   4.644
35812W        W 7538  34.625  43.524  12.981
35813W        W 7539  37.378   0.032  10.834
35814W        W 7540  19.999  35.495  14.741
35815W        W 7541   3.038  27.020  11.863
35816W        W 7542  35.477  20.119  10.603
35817W        W 7543  15.201  37.457   0.199
35818W        W 7544   4.055  40.472  14.543
35819W        W 7545  28.668  41.024   2.367
35820W        W 7546  22.291  11.802   3.160
35821W        W 7547  11.978  14.286  11.956
35822W        W 7548  10.652  24.162  14.675
35823W        W 7549  32.947  12.124   3.986
35824W        W 7550  32.833  30.418   1.473
35825W        W 7551  19.471  24.524   0.741
35826W        W 7552  16.103  10.321  13.649
35827W        W 7553  32.073  34.054  14.302
35828W        W 7554   1.820  37.039  13.425
35829W        W 7555  37.550  32.663   4.904
35830W        W 7556   0.344  30.993  13.817
35831W        W 7557   6.150  26.803   0.705
35832W        W 7558   5.261  21.209  10.688
35833W        W 7559  14.788  12.561   4.177
35834W        W 7560   9.163   2.441   0.835
35835W        W 7561  21.278  34.658   0.220
35836W        W 7562   2.979  14.675   1.844
35837W        W 7563  36.370  10.940  10.788
35838W        W 7564   9.714  31.994  11.979
35839W        W 7565  29.936  35.817  10.704
35840W        W 7566  11.067  39.951  14.931
35841W        W 7567  25.018  36.538   1.901
35842W        W 7568  27.741  25.863   1.611
35843W        W 7569   9.122  13.898  14.222
35844W        W 7570  39.150  19.646   5.083
35845W        W 7571  33.968  18.167  11.562
35846W        W 7572  39.332   7.328   0.300
35847W        W 7573  39.752  17.960   4.122
35848W        W 7574  38.762  14.813  14.232
35849W        W 7575  39.267  22.993   2.385
35850W        W 7576  33.221  12.234   0.315
35851W        W 7577  19.287  29.542   2.529
35852W        W 7578  42.305   8.394   0.426
35853W        W 7579  22.992  39.463   1.400
35854W        W 7580  34.407  15.769  14.051
35855W        W 7581  30.943  42.511   0.995
35856W        W 7582  27.537   6.719   2.785
35857W        W 7583  22.943  34.395  13.779
35858W        W 7584  38.899   3.006  14.755
35859W        W 7585   0.304  17.136  10.768
35860W        W 7586   9.336  26.927  12.394
35861W        W 7587  25.210  24.358   0.333
35862W        W 7588  38.586  25.439   3.760
35863W        W 7589  35.583  30.063   1.071
35864W        W 7590  43.523  17.849  12.477
35865W        W 7591  33.071  20.235   2.245
35866W        W 7592  16.635  27.073   4.690
35867W        W 7593  41.729  20.570   2.852
35868W        W 7594   6.113  21.633   1.802
35869W        W 7595  32.368  24.388  14.888
35870W        W 7596   9.321  39.748   3.860
35871W        W 7597  10.019  24.969  10.673
35872W        W 7598  25.619  40.071   4.555
35873W        W 7599  43.469  23.714   0.231
35874W        W 7600  19.645   5.575   9.911
35875W        W 7601  31.733  33.291   0.890
35876W        W 7602  19.281  41.581   3.775
35877W        W 7603  12.705  30.711  13.382
35878W        W 7604  29.676  24.088   0.849
35879W        W 7605  41.095   2.413  12.918
35880W        W 7606   4.190  43.421   0.500
35881W        W 7607  22.721  40.438  10.761
35882W        W 7608   8.726  16.115  14.992
35883W        W 7609  11.501  21.368   5.082
35884W        W 7610  23.481  31.537  13.003
35885W        W 7611  12.168   6.399   2.719
35886W        W 7612  31.538  30.833  11.085
35887W        W 7613  34.822  14.665  14.465
35888W        W 7614  12.684  23.353   0.278
35889W        W 7615  36.563  20.072  10.413
35890W        W 7616  43.496  10.344   1.807
35891W        W 7617  35.141  35.624   1.798
35892W        W 7618  22.759  10.626  11.849
35893W        W 7619  33.921  31.367  13.422
35894W        W 7620  40.110  21.098  11.099
35895W        W 7621  12.824  28.463  12.056
35896W        W 7622  18.618   2.460  14.869
35897W        W 7623  35.143  36.395   3.824
35898W        W 7624  27.923  36.204   2.686
35899W        W 7625  11.547  36.119  12.124
35900W        W 7626  25.645  22.101  11.675
35901W        W 7627  15.447  39.911   3.181
35902W        W 7628  18.562  24.161  13.422
35903W        W 7629  23.597   7.390  12.851
35904W        W 7630  35.619  27.630  12.643
35905W        W 7631  20.926  40.744  11.124
35906W        W 7632   0.450  44.265  11.892
35907W        W 7633  24.575   3.684   1.920
35908W        W 7634   2.445  41.468  12.010
35909W        W 7635  13.770   6.273   3.639
35910W        W 7636  41.905  12.286  14.414
35911W        W 7637   6.220  32.832  14.866
35912W        W 7638  38.410   0.813  11.023
35913W        W 7639   5.851   1.805  12.459
35914W        W 7640  36.916   3.055  14.178
35915W        W 7641  19.664  34.120   1.907
35916W        W 7642  28.963  17.109   2.281
35917W        W 7643  12.248  26.210  11.049
35918W        W 7644  33.437  31.208  14.114
35919W        W 7645  34.358  42.950  11.116
35920W        W 7646   9.644   4.374  11.586
35921W        W 7647  14.057  24.521   3.216
35922W        W 7648   4.890  23.149  12.599
35923W        W 7649  11.215  16.279  13.593
35924W        W 7650  35.761  33.984  14.753
35925W        W 7651  11.672  11.657   3.895
35926W        W 7652  11.606  39.222  12.400
35927W        W 7653  17.770  36.874  13.029
35928W        W 7654  24.672  33.021   4.364
35929W        W 7655  33.445  34.447   3.060
35930W        W 7656  16.588  26.464   4.061
35931W        W 7657   8.300  10.615   3.352
35932W        W 7658  30.030  20.325   1.200
35933W        W 7659  25.077  39.338  10.603
35934W        W 7660  33.488  34.391  14.038
35935W        W 7661   1.896   8.367  12.959
35936W        W 7662  28.729  23.428  12.362
35937W        W 7663  26.085  44.493   4.068
35938W        W 7664  35.946  27.198  12.770
35939W        W 7665  42.854  43.321  14.931
35940W        W 7666   2.276  10.222  14.370
35941W        W 7667  13.155   2.910  11.169
35942W        W 7668   8.110  36.070   3.202
35943W        W 7669  16.791  14.232  13.379
35944W        W 7670  33.615  36.915  12.447
35945W        W 7671   1.173  36.467   2.139
35946W        W 7672  40.461  11.376   4.789
35947W        W 7673  41.952  12.668   4.572
35948W        W 7674  12.626  16.030   3.404
35949W        W 7675  13.174  16.005   4.119
35950W        W 7676  15.627  23.182  11.410
35951W        W 7677  12.770  22.582   3.784
35952W        W 7678  34.819   8.822   3.597
35953W        W 7679  26.478  23.345   2.150
35954W        W 7680   9.193  27.544  13.052
35955W        W 7681  44.222   6.748  14.307
35956W        W 7682  31.679   0.965  11.165
35957W        W 7683  16.056  31.064  13.380
35958W        W 7684   3.882  36.031   4.569
35959W        W 7685  13.817  24.519   1.769
35960W        W 7686  36.864   6.509   1.790
35961W        W 7687  12.585  17.126   0.446
35962W        W 7688  18.535  42.424  13.800
35963W        W 7689  26.105  44.819  14.287
35964W        W 7690  15.148  40.576  12.832
35965W        W 7691  36.942   8.452   1.356
35966W        W 7692  26.961  33.050  14.496
35967W        W 7693  30.132  24.962   4.556
35968W        W 7694   5.354  39.992   1.252
35969W        W 7695  34.916   7.513   5.025
35970W        W 7696   6.558  30.366  12.650
35971W        W 7697  13.217  36.772   4.511
35972W        W 7698   2.479  20.994  11.154
35973W        W 7699  23.224  22.701   1.389
35974W        W 7700   1.268   6.605  12.156
35975W        W 7701  26.580   3.188  13.050
35976W        W 7702  17.765   4.252   4.157
35977W        W 7703   0.867   8.236   2.230
35978W        W 7704  22.211   6.715  12.195
35979W        W 7705  20.976  37.396  13.137
35980W        W 7706   6.915  18.699   2.222
35981W        W 7707  37.173   6.686   4.759
35982W        W 7708  37.531  41.668  13.944
35983W        W 7709   3.256   9.829   2.120
35984W        W 7710   6.214   7.381   3.289
35985W        W 7711  25.532  21.213   4.578
35986W        W 7712  27.370  29.898   0.037
35987W        W 7713  31.641  15.274   3.307
35988W        W 7714  10.813  17.135   0.501
35989W        W 7715  25.474  14.037   2.411
35990W        W 7716  25.023  16.810  11.358
35991W        W 7717  12.297  23.031  14.400
35992W        W 7718  32.466  12.255  14.134
35993W        W 7719  29.848  10.367   4.936
35994W        W 7720  18.964  12.831  11.128
35995W        W 7721  42.637  39.445  13.900
35996W        W 7722  35.925  39.833  13.393
35997W        W 7723  21.998  20.555   3.413
35998W        W 7724  21.215  40.521  13.292
35999W        W 7725  14.135  36.034   1.387
36000W        W 7726   1.129  24.618   1.688
36001W        W 7727   7.271  39.856  10.779
36002W        W 7728  37.525   4.219   2.927
36003W        W 7729  31.570  14.835   4.231
36004W        W 7730  17.622  34.299   2.294
36005W        W 7731  33.444   9.308  10.345
36006W        W 7732  10.643   9.940  10.864
36007W        W 7733  38.850   7.334   3.483
36008W        W 7734   7.294  40.344   0.203
36009W        W 7735  22.981  15.712   4.076
36010W        W 7736  35.992  39.152   0.256
36011W        W 7737   7.733  28.157  11.120
36012W        W 7738   8.234  23.187   5.140
36013W        W 7739  38.049  17.384   4.592
36014W        W 7740  15.154  17.595   1.458
36015W        W 7741  34.945   5.703   4.101
36016W        W 7742   3.229  36.998  10.696
36017W        W 7743  21.834  15.169  12.796
36018W        W 7744  19.651  29.222   1.131
36019W        W 7745  40.404  29.032  10.416
36020W        W 7746  28.981   7.946   3.198
36021W        W 7747  43.378  31.234  12.100
36022W        W 7748  13.277  39.868  14.774
36023W        W 7749  36.745  17.781  14.510
36024W        W 7750   0.262  42.875   0.486
36025W        W 7751   2.884  19.159   4.817
36026W        W 7752  24.176  31.954   2.276
36027W        W 7753  43.813  19.879   3.132
36028W        W 7754  20.839   4.306   3.813
36029W        W 7755   4.441   5.608   0.919
36030W        W 7756  35.848  20.838   4.744
36031W        W 7757  21.666  32.006   0.581
36032W        W 7758  41.015   7.655   4.921
36033W        W 7759  22.818  21.458   0.348
36034W        W 7760  28.572  19.031   1.620
36035W        W 7761  24.180  36.022  12.089
36036W        W 7762   0.605  32.296   3.397
36037W        W 7763  12.348  35.008   4.732
36038W        W 7764  35.072  27.429   4.125
36039W        W 7765  17.713  27.168   2.693
36040W        W 7766  35.820  31.953  12.000
36041W        W 7767  14.111  31.931  12.504
36042W        W 7768  37.304   4.767  10.750
36043W        W 7769  21.499   2.855  13.081
36044W        W 7770  28.918  18.628   4.649
36045W        W 7771  29.477  42.911  13.342
36046W        W 7772  42.989  34.414   4.611
36047W        W 7773  32.829   4.079  11.704
36048W        W 7774  19.391  23.302  13.368
36049W        W 7775  20.958  44.204   1.794
36050W        W 7776  21.096  18.530   2.803
36051W        W 7777   8.852  19.593   0.293
36052W        W 7778  26.460  15.793   3.550
36053W        W 7779  25.549  16.494  13.922
36054W        W 7780  23.106  42.665  11.637
36055W        W 7781  42.869  25.435  12.855
36056W        W 7782  43.252  14.859   1.989
36057W        W 7783  35.464  37.581   4.082
36058W        W 7784  10.280   0.209   4.560
36059W        W 7785  32.573  11.570  12.543
36060W        W 7786  20.052   9.620   3.855
36061W        W 7787  28.456  27.934  14.891
36062W        W 7788   1.879  17.696  11.652
36063W        W 7789  44.918  25.816   2.025
36064W        W 7790  12.773  27.593   3.372
36065W        W 7791  37.552  42.723   3.197
36066W        W 7792  23.166  22.024   2.753
36067W        W 7793  26.766  14.394  13.952
36068W        W 7794  32.356  39.942   1.656
36069W        W 7795  26.596  30.416  13.068
36070W        W 7796  44.535  26.717   4.153
36071W        W 7797  25.713  29.939   4.168
36072W        W 7798  20.553  44.002  13.884
36073W        W 7799  34.315  13.905  14.382
36074W        W 7800  43.684  11.816   2.975
36075W        W 7801  10.451  14.193  12.907
36076W        W 7802   3.991  11.781  12.412
36077W        W 7803  10.638  25.270   3.089
36078W        W 7804  29.256  17.430   2.608
36079W        W 7805  26.458  26.138  13.993
36080W        W 7806  35.430  32.849  13.934
36081W        W 7807  16.888  43.269  14.941
36082W        W 7808  39.716   9.347   1.812
36083W        W 7809   3.696  32.547  11.407
36084W        W 7810  15.888  19.805  13.988
36085W        W 7811  41.440  22.035   0.469
36086W        W 7812  27.592   3.209   4.387
36087W        W 7813  26.554   3.519  14.943
36088W        W 7814  33.255   7.702  12.567
36089W        W 7815  16.958   3.633  10.674
36090W        W 7816  36.857  23.236  12.121
36091W        W 7817  18.282  19.658  11.529
36092W        W 7818  28.501  23.794   4.240
36093W        W 7819  23.082  21.095   1.750
36094W        W 7820   5.166   1.270   2.295
36095W        W 7821  26.480   4.127   4.064
36096W        W 7822  43.455  13.247   0.396
36097W        W 7823  15.923  41.421  11.684
36098W        W 7824  42.003  21.664   3.288
36099W        W 7825  39.382  39.606  12.916
36100W        W 7826  40.340  26.949   4.952
36101W        W 7827  10.664  32.974   4.248
36102W        W 7828  40.858  13.586  13.862
36103W        W 7829  18.508   6.775  14.521
36104W        W 7830  43.384  32.994  14.796
36105W        W 7831   9.778  27.956   2.502
36106W        W 7832  17.559   6.021  12.179
36107W        W 7833  32.463  23.320   1.730
36108W        W 7834  21.825  36.362   1.938
36109W        W 7835  39.539  31.180   2.137
36110W        W 7836  32.691   0.807  14.440
36111W        W 7837  16.005  44.201   3.286
36112W        W 7838  36.845  43.266  13.414
36113W        W 7839  10.385  15.331  10.918
36114W        W 7840   4.779  33.537   3.786
36115W        W 7841  26.036  36.396  12.113
36116W        W 7842  32.592  34.380   0.231
36117W        W 7843  40.485  44.085   0.768
36118W        W 7844  25.615   3.722   1.711
36119W        W 7845  18.067  22.073   0.259
36120W        W 7846  25.464  38.955  11.672
36121W        W 7847  13.336  35.357  14.727
36122W        W 7848  35.787   2.274   3.718
36123W        W 7849  42.246  29.439   0.381
36124W        W 7850   1.792  10.886  10.679
36125W        W 7851  18.673  35.379  11.497
36126W        W 7852   9.310  28.104   0.491
36127W        W 7853  43.378  14.078   3.740
36128W        W 7854  24.967   5.109   2.743
36129W        W 7855  32.848   6.841  12.736
36130W        W 7856   6.601   0.501   3.319
36131W        W 7857  35.959  14.557   4.052
36132W        W 7858  39.528  18.592   0.024
36133W        W 7859  11.882  27.837   4.084
36134W        W 7860  42.201   6.825  11.121
36135W        W 7861   4.754  43.824   0.054
36136W        W 7862  12.308   2.403   3.372
36137W        W 7863   5.702  44.412  10.377
36138W        W 7864   9.716  41.024   3.832
36139W        W 7865  19.035  37.861   2.672
36140W        W 7866  13.323  32.105  11.877
36141W        W 7867  17.093  28.529  13.487
36142W        W 7868  27.063  38.423  10.644
36143W        W 7869  28.426  33.621  10.365
36144W        W 7870  23.991   7.082   1.963
36145W        W 7871  38.146   1.215  13.434
36146W        W 7872  13.921   5.881   2.810
36147W        W 7873   7.889  33.095  12.940
36148W        W 7874   0.881  26.584  10.720
36149W        W 7875  14.296  38.117   5.096
36150W        W 7876  16.167  24.208  12.178
36151W        W 7877  13.134  33.839   1.280
36152W        W 7878  36.022  13.261   2.303
36153W        W 7879  32.572  34.075  11.108
36154W        W 7880  32.949  26.953   4.639
36155W        W 7881  30.400  38.481  12.027
36156W        W 7882  11.805  38.461  12.009
36157W        W 7883   3.785  19.276  10.542
36158W        W 7884  15.851   9.306   1.932
36159W        W 7885  32.888  13.965  11.099
36160W        W 7886  21.121  32.881   3.369
36161W        W 7887  20.172  20.095   3.362
36162W        W 7888  40.327  25.053  14.273
36163W        W 7889  26.379  40.655   4.940
36164W        W 7890  12.566  28.791   1.041
36165W        W 7891  37.484  22.374   0.540
36166W        W 7892  30.388  32.957   2.455
36167W        W 7893  37.380  22.746  14.261
36168W        W 7894   1.839   9.209   0.409
36169W        W 7895  27.789  40.128   3.793
36170W        W 7896   6.957  32.520  11.390
36171W        W 7897  41.988  12.893  11.613
36172W        W 7898  28.118   1.309   3.278
36173W        W 7899  31.914  27.981   1.939
36174W        W 7900  32.854  22.283   1.382
36175W        W 7901  21.256  31.506   0.467
36176W        W 7902   8.610  37.692   4.217
36177W        W 7903  11.746  11.890  13.584
36178W        W 7904  17.052  39.915   4.981
36179W        W 7905  34.322  29.574  13.309
36180W        W 7906  20.921   2.705   1.338
36181W        W 7907  10.120  29.107   1.019
36182W        W 7908  39.133  14.520   1.140
36183W        W 7909  34.474  37.334  14.352
36184W        W 7910  44.745   1.371   2.724
36185W        W 7911  27.458   4.900  13.081
36186W        W 7912  26.712   3.439   4.902
36187W        W 7913   1.785  29.105   3.091
36188W        W 7914   7.096  16.155  10.563
36189W        W 7915   2.239  40.268   5.033
36190W        W 7916  20.713  44.855   4.584
36191W        W 7917   5.607   7.859   0.971
36192W        W 7918  31.475  29.978  10.988
36193W        W 7919  16.955   4.657   4.249
36194W        W 7920  31.055  17.474  13.736
36195W        W 7921   3.745  19.629   1.300
36196W        W 7922  30.647  27.738   0.159
36197W        W 7923   0.383  43.227   1.956
36198W        W 7924  32.529  43.952  10.036
36199W        W 7925  24.021  19.360   3.090
36200W        W 7926  15.336  17.213   1.103
36201W        W 7927  42.994  31.572   2.620
36202W        W 7928  10.664  35.096   4.316
36203W        W 7929  33.986  35.916   4.591
36204W        W 7930   7.132  36.485  12.862
36205W        W 7931  32.860  14.543  12.933
36206W        W 7932  27.419  24.290   4.646
36207W        W 7933  12.800   2.181  14.792
36208W        W 7934   0.277  14.313  11.149
36209W        W 7935  31.411  27.674   1.219
36210W        W 7936   9.006  44.698   0.917
36211W        W 7937  16.707  17.919   0.812
36212W        W 7938   7.719  33.613  13.878
36213W        W 7939  40.033   2.931   3.802
36214W        W 7940  14.699   1.990  14.274
36215W        W 7941  38.816  14.167  14.921
36216W        W 7942  40.990  16.093  14.995
36217W        W 7943   2.457  35.162   4.103
36218W        W 7944  33.458  12.625   9.877
36219W        W 7945   7.757  32.032   2.456
36220W        W 7946   8.602  16.205  12.506
36221W        W 7947   3.228  29.572   4.200
36222W        W 7948  22.102  35.525  10.667
36223W        W 7949  12.323  21.008   4.014
36224W        W 7950  44.789   5.500   3.771
36225W        W 7951  12.383  12.313   0.228
36226W        W 7952  34.063  12.587  14.778
36227W        W 7953  19.487  37.018   1.786
36228W        W 7954  16.502  28.273   3.247
36229W        W 7955  11.736  35.296  13.484
36230W        W 7956  35.876  31.395  14.993
36231W        W 7957  31.592  38.499  12.814
36232W        W 7958   1.425   8.604   0.744
36233W        W 7959  17.759  18.363   2.746
36234W        W 7960   0.747  32.941   4.633
36235W        W 7961   8.266  21.271  10.426
36236W        W 7962  26.970  13.554  13.885
36237W        W 7963  26.102   1.540   9.977
36238W        W 7964   9.647  25.333  10.661
36239W        W 7965   2.757   9.660   1.937
36240W        W 7966  42.072   3.519   2.656
36241W        W 7967   2.404   8.795  10.248
36242W        W 7968   2.048   8.129  10.744
36243W        W 7969  42.012  32.447   0.525
36244W        W 7970  39.701  26.514  13.368
36245W        W 7971  16.352  41.105   1.720
36246W        W 7972   7.927  39.321   4.542
36247W        W 7973  23.631  27.226   2.101
36248W        W 7974  31.929  39.788   1.909
36249W        W 7975  37.751  40.002   0.894
36250W        W 7976  31.282  26.552   2.353
36251W        W 7977   4.894  42.250   5.084
36252W        W 7978  43.903  30.484   3.997
36253W        W 7979  17.391  25.896  10.082
36254W        W 7980  16.127  25.376  10.975
36255W        W 7981   7.150   0.527  13.454
36256W        W 7982  28.464  37.382   1.098
36257W        W 7983  14.184  37.592   2.794
36258W        W 7984  25.578  30.614   1.404
36259W        W 7985  42.957  34.598   2.616
36260W        W 7986   2.657  39.396  13.822
36261W        W 7987  38.632  24.214  10.999
36262W        W 7988   3.258  11.847  13.885
36263W        W 7989  29.075  11.120   1.787
36264W        W 7990  14.633  20.515  12.516
36265W        W 7991  20.069   6.724  14.725
36266W        W 7992   6.270   9.190   0.393
36267W        W 7993  43.996  10.754   3.955
36268W        W 7994  20.957  33.137   1.325
36269W        W 7995  18.191  42.979  14.690
36270W        W 7996  27.399  41.402  14.811
36271W        W 7997   5.644   3.398  12.967
36272W        W 7998  39.601  37.520   1.461
36273W        W 7999  16.595  24.087   2.210
36274W        W 8000  27.636  13.795  12.671
36275W        W 8001   0.992  10.263   4.148
36276W        W 8002  22.785   0.273   3.834
36277W        W 8003   4.671   8.438  12.808
36278W        W 8004   8.467  42.763  11.361
36279W        W 8005  21.145  11.637  14.246
36280W        W 8006  12.227  41.706   2.958
36281W        W 8007   7.932  35.080  12.839
36282W        W 8008  12.892  22.035   3.150
36283W        W 8009  38.372  32.238   2.404
36284W        W 8010  36.227  25.248   1.441
36285W        W 8011  18.694  36.296  12.140
36286W        W 8012  25.684  39.868  13.073
36287W        W 8013  23.773   9.182   0.207
36288W        W 8014  37.348  40.688  13.805
36289W        W 8015  27.486   3.507  12.949
36290W        W 8016  41.946   9.629   4.907
36291W        W 8017  19.163  10.183   3.786
36292W        W 8018   3.250  15.658   0.467
36293W        W 8019  40.990  30.608   0.604
36294W        W 8020  40.871  12.233   0.766
36295W        W 8021  27.990  33.144  13.487
36296W        W 8022  38.556  10.760  10.807
36297W        W 8023  31.923  42.525  14.462
36298W        W 8024  36.510  35.881  12.790
36299W        W 8025   6.935  34.649  12.345
36300W        W 8026  28.730  25.773   1.445
36301W        W 8027  18.013  34.020  10.631
36302W        W 8028  11.262  33.495  14.017
36303W        W 8029  39.921  16.691  14.723
36304W        W 8030   2.867   4.517  11.595
36305W        W 8031  32.366  20.263  11.176
36306W        W 8032   4.772  43.951  10.199
36307W        W 8033  35.154  19.113   2.428
36308W        W 8034  44.444  25.130   2.009
36309W        W 8035  32.703  21.651  10.694
36310W        W 8036  28.990  23.276   4.602
36311W        W 8037  13.517   8.203  14.480
36312W        W 8038  37.503   5.432   4.566
36313W        W 8039  16.142  40.939  14.057
36314W        W 8040  28.120   2.762   3.586
36315W        W 8041   7.187  25.934  13.498
36316W        W 8042  30.664  39.059  13.315
36317W        W 8043  11.745  23.770   1.631
36318W        W 8044  38.767  12.382   2.288
36319W        W 8045  22.051  16.128  14.814
36320W        W 8046   8.616  41.583   1.831
36321W        W 8047   4.214  20.799  14.666
36322W        W 8048  37.189  33.674  13.105
36323W        W 8049  19.663  11.713  12.964
36324W        W 8050  40.482  41.283   0.500
36325W        W 8051   0.887  21.653  14.033
36326W        W 8052   0.346  44.985  11.506
36327W        W 8053  37.285  36.967   2.545
36328W        W 8054   4.276  31.499  12.987
36329W        W 8055  44.752   5.373  13.959
36330W        W 8056  42.880  13.225   0.891
36331W        W 8057  25.423  12.126  11.672
36332W        W 8058  33.905  19.187   3.275
36333W        W 8059  26.438  16.171  13.374
36334W        W 8060  41.012  25.398   1.744
36335W        W 8061  22.624   2.713   3.564
36336W        W 8062  33.945  44.927   4.926
36337W        W 8063  17.064  25.164   2.877
36338W        W 8064  13.361  41.006   2.072
36339W        W 8065  12.189   8.096  13.070
36340W        W 8066  27.178   1.857   0.876
36341W        W 8067  23.437  19.080  14.746
36342W        W 8068  15.152  38.070  13.830
36343W        W 8069  28.971  30.729  14.777
36344W        W 8070  44.048  42.986   3.227
36345W        W 8071  33.927  17.936   3.385
36346W        W 8072  19.515  10.900  12.509
36347W        W 8073  38.879  15.099  10.612
36348W        W 8074   1.402  25.169  11.539
36349W        W 8075   1.216  32.926   0.422
36350W        W 8076  39.628  44.984  11.217
36351W        W 8077  20.785   6.034   4.141
36352W        W 8078  30.189   6.523   1.852
36353W        W 8079  38.999  33.168   1.189
36354W        W 8080  29.149   1.285  14.306
36355W        W 8081  15.276  20.471  12.005
36356W        W 8082  10.629  14.739   4.768
36357W        W 8083  28.157  13.413   4.136
36358W        W 8084   0.311  40.544   2.328
36359W        W 8085  16.231  27.497  12.814
36360W        W 8086   1.943  17.710   4.880
36361W        W 8087  30.447  16.896   1.785
36362W        W 8088   7.289  15.393   4.589
36363W        W 8089  22.720  19.007  12.090
36364W        W 8090  28.365   7.315   2.778
36365W        W 8091   7.211  42.398  13.741
36366W        W 8092   8.389  16.822  14.703
36367W        W 8093   6.114  17.062   4.662
36368W        W 8094  36.170   3.340   3.296
36369W        W 8095  32.075  30.336  10.330
36370W        W 8096  16.074  16.560   2.340
36371W        W 8097   4.790  38.366  10.550
36372W        W 8098  42.691   6.570   3.592
36373W        W 8099   4.476   5.936  12.994
36374W        W 8100  31.385   7.396   3.407
36375W        W 8101  42.549  13.727   4.636
36376W        W 8102  31.687  32.981  11.497
36377W        W 8103  39.381  31.979  13.493
36378W        W 8104  41.934  20.235   1.169
36379W        W 8105   3.968  27.263   0.941
36380W        W 8106  44.718  33.923   3.432
36381W        W 8107  16.545  41.805  10.753
36382W        W 8108   7.958  44.908   2.445
36383W        W 8109   1.790   4.411   1.846
36384W        W 8110  33.553  34.057  10.734
36385W        W 8111  40.022  38.510   4.675
36386W        W 8112  29.194  32.573  12.333
36387W        W 8113  19.412  39.111   3.150
36388W        W 8114   6.260  42.268  11.119
36389W        W 8115  21.526  39.023   2.330
36390W        W 8116  15.289  17.702   0.957
36391W        W 8117  16.639  38.666   0.963
36392W        W 8118   9.903  12.162   0.414
36393W        W 8119  11.609  37.377   3.651
36394W        W 8120   2.976   0.741  11.606
36395W        W 8121  32.966  20.073   0.973
36396W        W 8122  23.338  11.102   4.274
36397W        W 8123  15.827  11.291   0.940
36398W        W 8124  17.068  25.904   0.849
36399W        W 8125  19.623  19.828  13.472
36400W        W 8126  33.920   3.533  13.935
36401W        W 8127  38.767  44.316   3.199
36402W        W 8128   5.319  27.440  13.504
36403W        W 8129  36.058  13.738   0.735
36404W        W 8130  28.257  42.252  11.153
36405W        W 8131  44.045   0.764  13.602
36406W        W 8132  39.432  20.050  14.300
36407W        W 8133  23.963  20.527  14.459
36408W        W 8134  24.074   4.376   4.678
36409W        W 8135  20.632  31.184   0.969
36410W        W 8136  33.412  13.611  10.726
36411W        W 8137  43.920  13.663   4.683
36412W        W 8138  43.947  29.866  14.793
36413W        W 8139  30.509  19.635   3.764
36414W        W 8140  29.791   9.465   0.914
36415W        W 8141  24.877  12.912   4.887
36416W        W 8142   8.676  18.689  13.807
36417W        W 8143  44.750  11.319   2.399
36418W        W 8144   1.916   8.980  10.996
36419W        W 8145  14.231  41.355  12.214
36420W        W 8146  31.531  42.940  11.087
36421W        W 8147  17.112  27.017   1.526
36422W        W 8148   5.681  22.317   4.024
36423W        W 8149   4.820  41.607   1.830
36424W        W 8150  20.558   9.715   2.826
36425W        W 8151  30.931   9.336  12.359
36426W        W 8152  17.998  20.280  12.897
36427W        W 8153   8.244  34.606   2.648
36428W        W 8154   9.777  17.166   2.800
36429W        W 8155   1.432  35.006   2.272
36430W        W 8156  32.298  19.151  14.899
36431W        W 8157  32.496  18.606  12.639
36432W        W 8158   0.416  24.265   4.660
36433W        W 8159   5.695  32.217   1.248
36434W        W 8160   6.151  28.488   1.843
36435W        W 8161   4.450  25.482  14.069
36436W        W 8162  29.893   2.836  13.890
36437W        W 8163  28.087   1.896  13.547
36438W        W 8164  18.636  10.561  11.503
36439W        W 8165  14.324  16.285   1.127
36440W        W 8166   2.676  14.125  11.863
36441W        W 8167  25.620  37.852   2.273
36442W        W 8168  35.087  28.131   0.451
36443W        W 8169  27.990   0.917  11.203
36444W        W 8170   7.646  29.637   3.425
36445W        W 8171  12.981  33.779  12.469
36446W        W 8172  36.803  28.300  13.988
36447W        W 8173  16.758  30.866  14.280
36448W        W 8174  40.822  11.670   2.758
36449W        W 8175  15.092  22.489  13.083
36450W        W 8176  35.139  11.293  11.189
36451W        W 8177  43.021  36.391  13.607
36452W        W 8178  18.638   7.694   4.207
36453W        W 8179   9.767  25.530  14.657
36454W        W 8180   1.558  18.170  14.503
36455W        W 8181  28.745  19.799  11.393
36456W        W 8182   2.797   6.365  14.019
36457W        W 8183  44.015  41.434  10.695
36458W        W 8184  26.494  31.156  10.300
36459W        W 8185  18.561   4.820   3.603
36460W        W 8186  16.695  30.188  13.908
36461W        W 8187  30.965   5.617   3.455
36462W        W 8188  33.175  27.456  14.363
36463W        W 8189  15.094  15.260  12.366
36464W        W 8190  21.919  39.062   0.445
36465W        W 8191   4.310  15.240   2.877
36466W        W 8192  37.927  43.933   3.132
36467W        W 8193   8.387  33.505   1.482
36468W        W 8194   2.687  23.051  10.642
36469W        W 8195   0.426  15.653  14.922
36470W        W 8196   2.253  17.214   2.729
36471W        W 8197  33.849  36.012  14.301
36472W        W 8198  23.701   6.317   3.323
36473W        W 8199  23.484  40.264   2.675
36474W        W 8200  39.433   2.785   0.517
36475W        W 8201  16.204  14.920   4.186
36476W        W 8202  14.715  13.149  12.123
36477W        W 8203  42.606  27.430  10.805
36478W        W 8204  15.573  36.713  14.202
36479W        W 8205  15.946  18.035   2.349
36480W        W 8206  13.745  40.453  13.520
36481W        W 8207  25.575  39.396   3.578
36482W        W 8208  26.129  11.594  10.918
36483W        W 8209  33.053  13.563  12.933
36484W        W 8210   4.280  28.818   0.314
36485W        W 8211  30.397   5.900  10.705
36486W        W 8212  29.214  43.801  11.260
36487W        W 8213  33.569  12.874  11.700
36488W        W 8214  13.192  10.266   2.078
36489W        W 8215   9.892  14.556   4.142
36490W        W 8216   2.450  43.793  13.533
36491W        W 8217  24.499  31.449   4.198
36492W        W 8218  14.334  38.984   1.214
36493W        W 8219  37.911  18.137   3.324
36494W        W 8220   9.180  27.014   2.628
36495W        W 8221   7.352  17.748  13.981
36496W        W 8222  37.432  37.419  11.938
36497W        W 8223  10.362   1.506   2.386
36498W        W 8224   4.791  36.340   0.503
36499W        W 8225  26.625  41.872  11.726
36500W        W 8226  25.109  22.828   0.749
36501W        W 8227  26.859   8.671  14.927
36502W        W 8228   4.235  21.489   4.711
36503W        W 8229  40.731   8.194   3.225
36504W        W 8230  23.318   2.848   1.651
36505W        W 8231   1.546   4.303  11.747
36506W        W 8232  41.451  12.327   2.881
36507W        W 8233   1.947  19.510   2.139
36508W        W 8234  39.781   1.859   0.828
36509W        W 8235   9.621  38.503   1.368
36510W        W 8236   8.405  26.408  10.024
36511W        W 8237   2.623  20.608   4.889
36512W        W 8238  39.111  38.042  13.454
36513W        W 8239  38.056   1.845  11.044
36514W        W 8240  11.988  34.806  11.911
36515W        W 8241  27.700   7.913  10.698
36516W        W 8242  44.668   1.837  10.698
36517W        W 8243  29.467   9.139   3.798
36518W        W 8244   7.618  18.112   1.782
36519W        W 8245  42.345   2.596   1.904
36520W        W 8246  32.473  21.740   2.900
36521W        W 8247  39.178   7.308   0.794
36522W        W 8248  37.576  37.860   2.653
36523W        W 8249   7.425  18.116  12.588
36524W        W 8250  24.291  22.493  14.012
36525W        W 8251  37.529   4.037   1.773
36526W        W 8252  31.376  14.689  14.950
36527W        W 8253   4.721  18.049   1.329
36528W        W 8254   5.164   7.028   4.163
36529W        W 8255   2.313  33.548   1.694
36530W        W 8256   7.766  26.097  11.661
36531W        W 8257   7.467  29.418  10.333
36532W        W 8258  38.822  23.151   3.750
36533W        W 8259  14.086   2.241  13.274
36534W        W 8260   9.716  24.935   1.451
36535W        W 8261  44.321  18.021  11.860
36536W        W 8262  43.374  31.033   3.618
36537W        W 8263  18.574  13.610  13.953
36538W        W 8264  21.775  40.494  11.146
36539W        W 8265   2.736   4.664   2.816
36540W        W 8266  35.768  21.751  14.777
36541W        W 8267   5.660  43.327  11.775
36542W        W 8268  39.873  15.583   3.088
36543W        W 8269  25.385  27.673  13.975
36544W        W 8270  13.762  13.279  14.941
36545W        W 8271  22.096  44.260  11.918
36546W        W 8272  36.581  37.135  11.945
36547W        W 8273  37.068   8.713  10.659
36548W        W 8274  43.943   2.406   4.378
36549W        W 8275  30.333   8.541  11.126
36550W        W 8276  25.746  33.518   0.774
36551W        W 8277  29.630  17.656   2.310
36552W        W 8278  13.203  25.433  14.064
36553W        W 8279  41.224   2.791   4.914
36554W        W 8280  42.023  43.390  14.447
36555W        W 8281  20.778  33.103   4.145
36556W        W 8282  44.874  14.319   0.758
36557W        W 8283  37.372  43.216   3.160
36558W        W 8284  33.929  20.667  13.046
36559W        W 8285   8.837  28.898   2.237
36560W        W 8286  13.693   9.429  12.389
36561W        W 8287   6.269  10.327   0.366
36562W        W 8288  30.889  31.313  11.660
36563W        W 8289  12.674  38.987  11.587
36564W        W 8290  33.496  30.865  12.820
36565W        W 8291  40.587   4.708   1.302
36566W        W 8292   3.505   7.836  14.405
36567W        W 8293  43.194  41.512   1.283
36568W        W 8294  25.647  11.541   3.767
36569W        W 8295  41.615  43.007   0.180
36570W        W 8296  38.586  31.361   4.864
36571W        W 8297   6.188  29.469  11.071
36572W        W 8298   1.525  22.612  14.474
36573W        W 8299  30.923  19.725   2.260
36574W        W 8300  30.661   1.285  13.588
36575W        W 8301  32.580   3.919  13.340
36576W        W 8302  21.046  30.524  14.019
36577W        W 8303  38.710  16.207   0.890
36578W        W 8304   2.279  11.552  12.367
36579W        W 8305  30.337   3.294  12.595
36580W        W 8306  41.882  26.108  11.614
36581W        W 8307  28.024   0.238   4.066
36582W        W 8308  14.676  41.314  10.827
36583W        W 8309   3.234  23.495  11.367
36584W        W 8310  19.853  33.812  11.563
36585W        W 8311  34.498  16.065  11.007
36586W        W 8312   7.710  22.022  14.390
36587W        W 8313  27.475  13.770   0.023
36588W        W 8314   8.855   0.915  11.647
36589W        W 8315  23.540  39.310  11.505
36590W        W 8316   5.812  34.055   1.170
36591W        W 8317   9.435  25.184   9.842
36592W        W 8318  18.757  17.817  14.400
36593W        W 8319  18.281  15.820  12.662
36594W        W 8320  17.485  44.850  14.414
36595W        W 8321  19.090  20.602   2.880
36596W        W 8322  36.957  40.782   1.725
36597W        W 8323   5.349   4.270  13.882
36598W        W 8324  36.930   7.980   4.009
36599W        W 8325  15.104  30.950  10.482
36600W        W 8326  35.270   9.628   3.149
36601W        W 8327  18.773  41.546   3.773
36602W        W 8328   5.355  16.285   5.382
36603W        W 8329  27.214  36.011  14.996
36604W        W 8330  26.004  25.476  12.016
36605W        W 8331  43.653   4.439  13.347
36606W        W 8332   3.724  18.194   1.294
36607W        W 8333  14.916   5.404   1.584
36608W        W 8334  20.928  37.866  11.926
36609W        W 8335   6.797  10.802   3.802
36610W        W 8336  23.480  18.980  12.968
36611W        W 8337  12.590  11.210  11.958
36612W        W 8338  44.312   0.992   4.371
36613W        W 8339  31.626  20.674   0.952
36614W        W 8340  39.022  26.589  14.942
36615W        W 8341  37.302  26.225  11.639
36616W        W 8342  26.130  20.550  12.518
36617W        W 8343  41.887  11.168  11.909
36618W        W 8344  44.941  14.390  13.891
36619W        W 8345   6.420  12.576   3.438
36620W        W 8346  38.945  20.693  13.580
36621W        W 8347   8.608  39.077  14.539
36622W        W 8348  36.955  11.926  12.077
36623W        W 8349  10.815  19.549  11.210
36624W        W 8350  37.081  26.533  14.870
36625W        W 8351  12.111   8.762   1.813
36626W        W 8352   8.364  10.387   1.922
36627W        W 8353   1.471  24.416   2.287
36628W        W 8354  24.275  30.048  10.766
36629W        W 8355  29.196  27.801   0.809
36630W        W 8356  30.377  19.613  12.580
36631W        W 8357  17.860  36.004  12.644
36632W        W 8358  26.000  33.414  11.280
36633W        W 8359  18.289  29.707  13.031
36634W        W 8360  18.141  23.694   4.642
36635W        W 8361  24.242  43.041  12.379
36636W        W 8362  38.066  18.468  10.744
36637W        W 8363  23.622   2.419   0.251
36638W        W 8364  22.685  34.086  12.045
36639W        W 8365   7.240  38.919  14.990
36640W        W 8366  10.676   4.492   1.787
36641W        W 8367  38.157  23.458  11.134
36642W        W 8368   8.919  19.544  12.494
36643W        W 8369  28.499   0.189  11.962
36644W        W 8370  34.539  42.409  12.972
36645W        W 8371  29.369  23.779   9.941
36646W        W 8372  23.032   0.061  12.569
36647W        W 8373  30.246   3.242   4.167
36648W        W 8374  39.079   7.791   3.736
36649W        W 8375  31.125  34.934  13.940
36650W        W 8376  43.664  16.592   4.168
36651W        W 8377  24.703  37.441   2.187
36652W        W 8378  12.018  39.103   5.050
36653W        W 8379   2.793   1.703   4.310
36654W        W 8380  39.988  37.178   0.734
36655W        W 8381  38.501  20.867   3.996
36656W        W 8382  43.345  12.328   3.288
36657W        W 8383  24.916  44.592  14.841
36658W        W 8384  43.395  21.026   9.700
36659W        W 8385  21.577   6.776  13.895
36660W        W 8386  42.348  19.688   4.786
36661W        W 8387   9.732   4.478  13.367
36662W        W 8388  17.501  14.223  14.987
36663W        W 8389   1.398  16.048   2.921
36664W        W 8390   4.143  44.781   3.215
36665W        W 8391   7.015  38.520  13.152
36666W        W 8392  22.151   5.204   3.757
36667W        W 8393  15.776  30.500   1.859
36668W        W 8394  20.604  27.621  11.536
36669W        W 8395   6.018  16.100   4.424
36670W        W 8396  38.312  35.339  12.208
36671W        W 8397  22.994  28.659  11.801
36672W        W 8398  15.545   7.817   0.721
36673W        W 8399  12.147  13.799  14.380
36674W        W 8400  30.377  27.037   1.298
36675W        W 8401  17.200  21.753  14.842
36676W        W 8402  11.679  11.124   1.118
36677W        W 8403  18.546  40.765   4.171
36678W        W 8404  37.694  34.872  11.644
36679W        W 8405  15.657  30.608  12.596
36680W        W 8406  35.633  40.654   4.854
36681W        W 8407  37.446  28.604  13.401
36682W        W 8408   3.472  25.739   1.901
36683W        W 8409  40.318  27.873  14.221
36684W        W 8410  16.666  42.095  12.773
36685W        W 8411  44.539  31.595  13.003
36686W        W 8412   1.609   2.463   2.256
36687W        W 8413  41.488  38.043   2.422
36688W        W 8414  43.936  12.972  12.013
36689W        W 8415  38.157  44.383   0.837
36690W        W 8416  36.952  12.840   4.949
36691W        W 8417  38.533  10.261  14.069
36692W        W 8418   7.716  33.247   4.242
36693W        W 8419  12.844  13.280   2.137
36694W        W 8420  41.266  11.746   4.091
36695W        W 8421  18.335  41.933   1.871
36696W        W 8422   2.329  29.984   3.185
36697W        W 8423  17.740  12.590  11.514
36698W        W 8424  41.004  42.201   1.716
36699W        W 8425  37.780   1.503  12.445
36700W        W 8426   9.223  28.697  11.171
36701W        W 8427   6.522  35.405   0.541
36702W        W 8428  12.228  22.001   4.198
36703W        W 8429   7.865   1.883   0.269
36704W        W 8430   1.649   4.313   1.359
36705W        W 8431   6.120  29.125  10.262
36706W        W 8432  30.396  22.655  13.849
36707W        W 8433  12.198  36.795  11.967
36708W        W 8434  38.080  42.201  14.461
36709W        W 8435  29.011  21.542   2.426
36710W        W 8436   5.665  24.234  12.929
36711W        W 8437  17.867  13.458   2.271
36712W        W 8438   1.005  16.162   4.652
36713W        W 8439   6.612  36.812   4.155
36714W        W 8440   1.859  20.212   0.332
36715W        W 8441  41.404  36.337  10.411
36716W        W 8442  21.065  40.002  13.396
36717W        W 8443   8.780  12.604   3.573
36718W        W 8444  33.392  15.757  13.961
36719W        W 8445  34.886  33.398  13.475
36720W        W 8446  32.532   6.744  12.296
36721W        W 8447  17.058  38.577  13.034
36722W        W 8448   8.501  32.621   3.415
36723W        W 8449   5.822  39.793  11.701
36724W        W 8450  38.923  19.639  11.968
36725W        W 8451  40.270  21.602  14.857
36726W        W 8452  28.066  28.863  14.758
36727W        W 8453  28.133  13.939  11.900
36728W        W 8454   6.737  21.693  10.865
36729W        W 8455  12.725   7.019  11.697
36730W        W 8456  13.141  22.480   1.839
36731W        W 8457  35.032  29.957  12.556
36732W        W 8458   3.178  23.020  11.586
36733W        W 8459  18.072  17.013  13.751
36734W        W 8460  12.041  35.598   0.547
36735W        W 8461  42.910  22.041  11.778
36736W        W 8462   6.595  31.988   5.012
36737W        W 8463  27.498   8.822  12.299
36738W        W 8464  21.742  10.713   1.777
36739W        W 8465   6.123  30.306  12.410
36740W        W 8466   0.245   6.763   0.705
36741W        W 8467  11.852  15.611   2.578
36742W        W 8468  32.414  32.403  11.969
36743W        W 8469   0.257   5.364   2.244
36744W        W 8470  21.157  19.272  12.524
36745W        W 8471  44.486   8.197  12.064
36746W        W 8472  13.692  38.689   9.622
36747W        W 8473  37.022  14.326  12.056
36748W        W 8474  29.904  18.679  13.871
36749W        W 8475   0.878  22.736  13.989
36750W        W 8476  44.282  22.728  13.804
36751W        W 8477   8.362  11.200  10.765
36752W        W 8478   6.222   6.912   0.915
36753W        W 8479  14.117  23.719  12.612
36754W        W 8480  40.799  10.666   3.627
36755W        W 8481  34.725   2.588   2.148
36756W        W 8482  21.224   6.316  11.541
36757W        W 8483  14.508  27.760   0.413
36758W        W 8484  35.156   8.213   0.843
36759W        W 8485  27.111  16.054   0.042
36760W        W 8486   2.283  10.306  13.833
36761W        W 8487  21.064  43.232  10.575
36762W        W 8488  13.178  33.231   4.054
36763W        W 8489  26.545   0.489   4.076
36764W        W 8490   0.103  43.381   1.256
36765W        W 8491   3.965  26.955   3.410
36766W        W 8492  30.145  26.781   3.629
36767W        W 8493  39.980  36.895  14.724
36768W        W 8494  12.679  38.104  11.944
36769W        W 8495  30.670  26.480  11.668
36770W        W 8496  15.418  20.672  13.837
36771W        W 8497  18.292  20.344  11.049
36772W        W 8498  44.853  40.507   4.577
36773W        W 8499  16.627  10.867  14.037
36774W        W 8500  32.173   5.778  14.079
36775W        W 8501  25.306  29.152   1.753
36776W        W 8502  26.212  27.478   1.165
36777W        W 8503   6.686  19.148   0.885
36778W        W 8504  15.206  13.321  12.053
36779W        W 8505  31.422   2.299  10.388
36780W        W 8506  23.520   2.930  13.400
36781W        W 8507   9.640   6.873  11.115
36782W        W 8508  20.679  26.727  12.533
36783W        W 8509  43.486   1.947   3.768
36784W        W 8510   7.242  19.924   2.993
36785W        W 8511   3.011  30.485  11.336
36786W        W 8512   4.973  21.305   4.124
36787W        W 8513  19.484  24.413  11.741
36788W        W 8514  22.646  38.062   1.361
36789W        W 8515  36.601  19.058   4.026
36790W        W 8516   6.028   5.191   3.665
36791W        W 8517   5.626  15.208  14.244
36792W        W 8518  41.347  34.974   1.307
36793W        W 8519  42.580  34.484  10.438
36794W        W 8520  29.553  37.932  13.951
36795W        W 8521  18.583  41.380  10.305
36796W        W 8522  31.133  13.175   1.832
36797W        W 8523  15.507   4.455   0.653
36798W        W 8524   0.486  32.137  11.172
36799W        W 8525  12.407  13.322   0.544
36800W        W 8526  36.089   3.815  11.342
36801W        W 8527  17.046  15.262  14.893
36802W        W 8528  23.967  19.152  13.043
36803W        W 8529  28.105  32.519  10.631
36804W        W 8530  14.184  13.034   4.528
36805W        W 8531  35.974  12.828   0.760
36806W        W 8532  40.886  22.194  10.781
36807W        W 8533  11.899  20.523  14.869
36808W        W 8534   2.039  33.309   2.312
36809W        W 8535   9.873  30.919   2.695
36810W        W 8536  14.509  21.275   2.795
36811W        W 8537  20.576  19.531  12.580
36812W        W 8538   2.952  18.039  12.434
36813W        W 8539  13.333  13.577  14.908
36814W        W 8540  27.786  34.600   2.295
36815W        W 8541  12.067  27.204  14.727
36816W        W 8542  21.153   0.454  13.509
36817W        W 8543   7.834  16.234   0.049
36818W        W 8544  22.751  13.720  13.330
36819W        W 8545  40.602  19.722  14.927
36820W        W 8546  20.353  43.985   0.134
36821W        W 8547  44.025  20.621  10.678
36822W        W 8548  35.430  17.090  11.483
36823W        W 8549  42.541  34.146  13.774
36824W        W 8550  25.723  26.700   0.923
36825W        W 8551  18.095  29.385   2.930
36826W        W 8552   1.919   1.597   4.186
36827W        W 8553  34.658   7.800   1.332
36828W        W 8554  18.674  15.763   3.600
36829W        W 8555  44.456  35.605  13.743
36830W        W 8556  22.040  35.844  12.402
36831W        W 8557   9.015  30.046  12.776
36832W        W 8558   0.765  26.499   0.961
36833W        W 8559   4.878  13.675   5.055
36834W        W 8560  30.906  37.483   5.065
36835W        W 8561  21.600  18.343   1.346
36836W        W 8562  23.557  36.560  12.631
36837W        W 8563  16.157  26.898   1.239
36838W        W 8564  29.586  22.998  10.667
36839W        W 8565  27.838  36.530   0.940
36840W        W 8566   5.282   5.876  13.237
36841W        W 8567  42.226  15.237   4.792
36842W        W 8568  38.496  34.876   4.678
36843W        W 8569  43.964  25.493   2.812
36844W        W 8570  18.318  16.253   1.822
36845W        W 8571   2.983  41.168  10.979
36846W        W 8572  44.947  21.583   3.412
36847W        W 8573  20.594  25.263   3.317
36848W        W 8574  17.285  39.391  13.608
36849W        W 8575  24.953  12.182  12.822
36850W        W 8576  37.420   9.095  13.313
36851W        W 8577   7.165   3.892  13.721
36852W        W 8578   7.196  34.576   0.742
36853W        W 8579  29.980  17.180  11.545
36854W        W 8580  34.864  13.259   3.733
36855W        W 8581  43.508  36.764   4.592
36856W        W 8582  19.757  14.120   1.391
36857W        W 8583  34.625  25.329  11.550
36858W        W 8584  32.865  19.913   5.031
36859W        W 8585   5.364  39.358   3.621
36860W        W 8586  20.585   4.548   1.989
36861W        W 8587   3.798  29.082   3.159
36862W        W 8588   0.372  27.412   2.397
36863W        W 8589  13.205   6.753  10.647
36864W        W 8590  15.816  29.180   0.766
36865W        W 8591  36.042  42.527  11.934
36866W        W 8592  24.920  44.514   3.201
36867W        W 8593  40.986  26.508   0.099
36868W        W 8594   6.174  11.152  12.791
36869W        W 8595   5.158  22.472   2.181
36870W        W 8596  24.398   3.305   1.027
36871W        W 8597  16.545  29.001  12.133
36872W        W 8598  23.954  19.095   1.206
36873W        W 8599  12.766   5.407   4.873
36874W        W 8600  38.297  31.455  12.559
36875W        W 8601  37.858   0.993   1.619
36876W        W 8602  16.241  24.988  13.298
36877W        W 8603  12.373  10.667   3.248
36878W        W 8604  18.579  19.364   2.535
36879W        W 8605  15.733  38.293   3.877
36880W        W 8606  34.777  22.212   2.847
36881W        W 8607  35.139  22.663   1.487
36882W        W 8608   8.592  10.683   0.481
36883W        W 8609  10.424  25.117   0.042
36884W        W 8610  28.629  24.374  12.013
36885W        W 8611   4.654  34.879  11.159
36886W        W 8612   5.662  33.227   3.661
36887W        W 8613  38.507  11.390  12.666
36888W        W 8614  29.231  27.130   1.956
36889W        W 8615  29.399  29.497  14.189
36890W        W 8616  17.249  44.852  13.954
36891W        W 8617  15.696  27.944  13.538
36892W        W 8618   0.243  15.401  11.207
36893W        W 8619  33.343   7.110   4.779
36894W        W 8620  21.064  20.304  12.410
36895W        W 8621  39.026   4.473  13.375
36896W        W 8622   9.424  27.969   2.897
36897W        W 8623  41.121  22.810   2.854
36898W        W 8624  18.965  20.335   1.768
36899W        W 8625  11.354  28.995  14.622
36900W        W 8626  15.358  29.585   1.178
36901W        W 8627   6.572  36.595   0.523
36902W        W 8628  31.151  14.313  11.497
36903W        W 8629  18.201  41.224  13.889
36904W        W 8630  18.612  25.566   2.358
36905W        W 8631  36.569   8.342  11.834
36906W        W 8632  29.146   2.757  13.524
36907W        W 8633  18.590   5.701   0.001
36908W        W 8634  18.071   3.286   1.466
36909W        W 8635  29.419  31.676   1.818
36910W        W 8636   0.686  15.962   2.176
36911W        W 8637  22.225  21.220   3.146
36912W        W 8638  33.360  44.917   0.379
36913W        W 8639   4.394  27.954   4.304
36914W        W 8640  12.642   4.046  12.067
36915W        W 8641  32.899  23.470   1.982
36916W        W 8642  22.157  36.072  10.564
36917W        W 8643   5.923  21.320   4.214
36918W        W 8644   8.160  26.207   2.405
36919W        W 8645  37.637  13.158  13.424
36920W        W 8646  21.071  29.887  12.014
36921W        W 8647   6.726   7.045   4.163
36922W        W 8648  34.088  18.869  12.978
36923W        W 8649  43.858  37.667   2.903
36924W        W 8650   8.756  34.766   1.207
36925W        W 8651  24.672  19.683  14.917
36926W        W 8652   3.692   2.377   3.270
36927W        W 8653   3.729   8.132   3.086
36928W        W 8654  30.471  28.928   4.537
36929W        W 8655  17.782  16.602  13.601
36930W        W 8656   3.738  30.567  14.061
36931W        W 8657   3.718   7.662  11.270
36932W        W 8658   5.262  39.459  10.982
36933W        W 8659  21.984  29.528  12.348
36934W        W 8660  20.660  38.051   2.221
36935W        W 8661  13.158   8.390   3.702
36936W        W 8662   9.447  14.221  11.068
36937W        W 8663  27.399  26.116   1.212
36938W        W 8664  38.242  12.643  10.186
36939W        W 8665  17.198  28.451   2.360
36940W        W 8666  35.574   3.240  14.418
36941W        W 8667  36.075  36.330  11.591
36942W        W 8668  22.616  12.354  10.453
36943W        W 8669  36.652  41.901  12.173
36944W        W 8670  10.349   6.453  11.548
36945W        W 8671  10.355  24.496  10.104
36946W        W 8672  13.248  12.176  10.717
36947W        W 8673   9.755  23.895  13.522
36948W        W 8674  37.592  38.049  12.987
36949W        W 8675  12.926   0.051   2.381
36950W        W 8676  31.360  32.026   4.781
36951W        W 8677   6.123  11.878  10.006
36952W        W 8678  43.983  24.375  11.611
36953W        W 8679   6.978  15.108   9.744
36954W        W 8680   9.186  21.538   4.590
36955W        W 8681  23.507  19.337  11.656
36956W        W 8682  44.922  18.255   3.686
36957W        W 8683  36.586  25.630   0.612
36958W        W 8684   0.886  34.828  11.357
36959W        W 8685  26.878  30.058   0.067
36960W        W 8686  16.132  29.586  13.508
36961W        W 8687   5.368  40.777   4.652
36962W        W 8688  12.342  29.460   3.072
36963W        W 8689  19.799   8.441   2.319
36964W        W 8690  26.591  27.216  14.928
36965W        W 8691  31.108  41.938   3.608
36966W        W 8692  29.595  26.141   2.892
36967W        W 8693  21.537  17.834   0.270
36968W        W 8694  24.059  16.583  10.420
36969W        W 8695  43.265  38.492  13.801
36970W        W 8696  14.818  11.298  14.942
36971W        W 8697  17.062   8.439   2.785
36972W        W 8698  24.595  21.153  10.700
36973W        W 8699  14.669  32.092   3.625
36974W        W 8700  21.164  40.867  12.404
36975W        W 8701  36.888  20.531   2.908
36976W        W 8702  20.725  35.623  12.037
36977W        W 8703  24.062   5.974   2.654
36978W        W 8704   4.351  23.654  12.846
36979W        W 8705  34.905  18.687   9.774
36980W        W 8706  40.302  29.524  14.945
36981W        W 8707  31.917   6.096   1.010
36982W        W 8708  37.818  29.988   1.392
36983W        W 8709   9.219  40.879  11.417
36984W        W 8710  41.317  10.764   3.597
36985W        W 8711  42.392   2.747  11.180
36986W        W 8712  35.809   4.728  10.648
36987W        W 8713  14.609   2.810   1.934
36988W        W 8714  22.105  37.128   3.385
36989W        W 8715  19.299  39.540  14.884
36990W        W 8716   8.761   8.378   1.426
36991W        W 8717  26.011  24.187   2.322
36992W        W 8718  12.841  41.487   1.311
36993W        W 8719  36.376  34.965  10.724
36994W        W 8720  36.255  28.178  12.670
36995W        W 8721   9.908  32.816   4.574
36996W        W 8722  23.877  12.719   9.766
36997W        W 8723  18.274  11.537  11.168
36998W        W 8724  29.935  11.361  14.862
36999W        W 8725  13.376  41.475   5.115
37000W        W 8726  44.216  36.780   0.810
37001W        W 8727   6.375  14.791   0.958
37002W        W 8728  42.957  25.575  12.356
37003W        W 8729  34.338  12.434  14.358
37004W        W 8730  33.924   4.224  11.741
37005W        W 8731  23.315  15.453  13.918
37006W        W 8732  32.449   4.463   3.272
37007W        W 8733   0.934  20.144  13.477
37008W        W 8734  42.243  27.895  11.705
37009W        W 8735  40.698  42.084   2.806
37010W        W 8736  36.104  25.618  11.489
37011W        W 8737  16.892  18.058   2.686
37012W        W 8738  15.682  25.217  10.122
37013W        W 8739  25.651   3.393   3.574
37014W        W 8740  27.452  27.154  11.195
37015W        W 8741  27.241  33.470   3.528
37016W        W 8742  37.101  31.278   4.082
37017W        W 8743  13.847  34.063   3.175
37018W        W 8744  40.932  34.461   2.819
37019W        W 8745  15.588  42.309   3.193
37020W        W 8746  25.577  34.462   0.659
37021W        W 8747  22.180  22.099   4.854
37022W        W 8748  43.382  37.761   0.822
37023W        W 8749  23.044  17.275  12.607
37024W        W 8750  25.638   5.351  13.779
37025W        W 8751  11.218  12.809  13.402
37026W        W 8752  25.663   1.788   1.663
37027W        W 8753  40.489  19.178   3.626
37028W        W 8754   3.739  21.020   0.087
37029W        W 8755  30.728  38.882  11.929
37030W        W 8756  36.872  43.364  10.515
37031W        W 8757  32.699  34.825   3.423
37032W        W 8758  11.707  18.142   3.252
37033W        W 8759  32.450   5.831   1.245
37034W        W 8760  40.064   5.695   2.344
37035W        W 8761  27.695  10.530   1.100
37036W        W 8762  17.537  32.580  12.583
37037W        W 8763  12.484  32.191   4.901
37038W        W 8764   8.454  21.379  12.890
37039W        W 8765  21.917  36.444  11.296
37040W        W 8766  34.901  25.459  13.897
37041W        W 8767  33.608  15.032   1.856
37042W        W 8768  28.685   0.350  14.700
37043W        W 8769  40.357   1.929   4.186
37044W        W 8770  30.602  18.665   1.717
37045W        W 8771  27.621   4.007  13.012
37046W        W 8772   9.659  12.855   2.578
37047W        W 8773  39.302   3.677   4.623
37048W        W 8774  11.681  23.506   4.210
37049W        W 8775   0.351   2.900   1.374
37050W        W 8776  20.593  43.122   0.476
37051W        W 8777  33.004  31.070   3.845
37052W        W 8778  28.123  37.001   0.905
37053W        W 8779  27.871  36.783   3.596
37054W        W 8780  10.260  22.596   0.254
37055W        W 8781  14.727  27.921  13.587
37056W        W 8782   3.992  36.573   4.444
37057W        W 8783  31.033  31.967   1.784
37058W        W 8784  36.778  29.090  14.437
37059W        W 8785  33.042  30.340   3.080
37060W        W 8786  29.185  12.711  11.580
37061W        W 8787  14.270  26.994  11.600
37062W        W 8788   5.321  28.475   3.693
37063W        W 8789  11.286  22.067  12.314
37064W        W 8790   7.885  28.580   4.541
37065W        W 8791  30.365  20.119   2.820
37066W        W 8792  18.227  23.112  12.811
37067W        W 8793   6.375   7.405  11.556
37068W        W 8794   8.103  35.904   2.274
37069W        W 8795  23.614  31.439  11.611
37070W        W 8796   1.371   1.397  12.951
37071W        W 8797  20.225   0.730  11.024
37072W        W 8798  44.857   5.821   4.686
37073W        W 8799   5.348  12.564  12.908
37074W        W 8800  18.962  15.283   1.369
37075W        W 8801   2.310  41.360   4.841
37076W        W 8802   1.232  13.902   4.118
37077W        W 8803  29.513  26.705  13.447
37078W        W 8804  23.485  23.210  11.187
37079W        W 8805  43.926  14.002  12.038
37080W        W 8806   2.800  17.538  14.340
37081W        W 8807   0.055   2.219  12.952
37082W        W 8808  42.884  12.838  11.508
37083W        W 8809  25.334  44.346   2.239
37084W        W 8810  41.431  19.497   2.755
37085W        W 8811  39.850  41.264  14.745
37086W        W 8812  35.987  43.940   3.210
37087W        W 8813   5.370  39.863  13.509
37088W        W 8814  31.441  43.266   4.234
37089W        W 8815  29.366  35.296   3.433
37090W        W 8816  32.448  40.872  11.684
37091W        W 8817  14.699  27.452  12.379
37092W        W 8818  42.837  33.119  11.400
37093W        W 8819   2.929  30.990  12.145
37094W        W 8820   1.429  16.795   3.545
37095W        W 8821   6.657  33.533  13.988
37096W        W 8822   5.060  24.657  12.891
37097W        W 8823  14.560  27.762  14.568
37098W        W 8824  40.530   9.372  13.495
37099W        W 8825   5.130  10.996   0.454
37100W        W 8826   7.460  26.037  12.074
37101W        W 8827  30.043  41.783  11.578
37102W        W 8828  27.982  19.267  11.527
37103W        W 8829  18.180  38.195   2.345
37104W        W 8830  34.957   4.984  11.662
37105W        W 8831  36.435  21.612  12.079
37106W        W 8832  22.516  34.589  11.994
37107W        W 8833  37.129  32.398   0.976
37108W        W 8834  41.752  21.421   0.957
37109W        W 8835  21.094  27.928   0.416
37110W        W 8836  26.987  19.324   4.041
37111W        W 8837  11.799  10.853  11.077
37112W        W 8838  31.957  31.550   3.614
37113W        W 8839  12.579  11.865   4.481
37114W        W 8840  21.484  24.470  11.980
37115W        W 8841  26.592  21.990   2.605
37116W        W 8842  19.287  32.622  14.745
37117W        W 8843  24.081   1.218   0.584
37118W        W 8844  19.053  25.505   0.394
37119W        W 8845  33.461  43.352   0.714
37120W        W 8846  11.226  26.142   0.468
37121W        W 8847  32.838  14.815  12.066
37122W        W 8848  14.799  37.812  11.625
37123W        W 8849  19.617   5.747  10.671
37124W        W 8850  44.866  26.955  13.642
37125W        W 8851  31.458  13.858  11.614
37126W        W 8852  17.073   2.198  14.942
37127W        W 8853  33.681  33.550  14.292
37128W        W 8854  21.062   0.598   1.390
37129W        W 8855  43.567   5.304   3.684
37130W        W 8856   7.927  28.493   2.271
37131W        W 8857  32.448   6.664   3.661
37132W        W 8858  23.851   3.242  13.687
37133W        W 8859   1.772  21.769   1.621
37134W        W 8860  41.277  40.375   0.273
37135W        W 8861  14.727   0.433  10.618
37136W        W 8862  24.449  11.341  11.123
37137W        W 8863  42.395  12.930   0.806
37138W        W 8864  10.308  44.784  11.177
37139W        W 8865  37.583  44.531   0.531
37140W        W 8866  22.816  15.888  12.990
37141W        W 8867  30.739  37.433  14.726
37142W        W 8868  17.109   8.364  14.880
37143W        W 8869  17.300  16.806  13.503
37144W        W 8870  38.508  30.170  12.988
37145W        W 8871  37.455  22.526  12.400
37146W        W 8872  41.287  27.960   1.421
37147W        W 8873  16.160  41.370   4.630
37148W        W 8874   9.392  16.201  13.494
37149W        W 8875   8.386   6.817  11.149
37150W        W 8876  14.374  37.820  12.377
37151W        W 8877   9.628  29.463  11.521
37152W        W 8878  43.371  40.986  10.645
37153W        W 8879   9.936  33.519   0.284
37154W        W 8880   1.638  34.447  12.878
37155W        W 8881  40.166  28.237   0.178
37156W        W 8882  20.242  31.728   2.258
37157W        W 8883  15.927  12.765  14.870
37158W        W 8884  30.145  16.382  11.150
37159W        W 8885  26.044  18.659   2.455
37160W        W 8886  25.410  12.044   1.372
37161W        W 8887  15.258  31.446   0.896
37162W        W 8888  29.040  20.257   1.202
37163W        W 8889  43.363  42.950   2.377
37164W        W 8890  36.966  30.946   2.785
37165W        W 8891  37.809  25.454   4.343
37166W        W 8892  35.676   5.908   4.693
37167W        W 8893  15.325  20.399   3.316
37168W        W 8894  15.215  36.624  14.874
37169W        W 8895  41.758  28.175  14.411
37170W        W 8896  20.156  36.828  13.800
37171W        W 8897  11.887  22.622   3.670
37172W        W 8898  35.369  12.609  10.710
37173W        W 8899  35.817  38.348   1.740
37174W        W 8900  16.110  36.817   4.391
37175W        W 8901  14.122  30.099   3.287
37176W        W 8902  15.166  30.812   3.813
37177W        W 8903  37.053  18.513  13.924
37178W        W 8904   2.526  34.581  14.922
37179W        W 8905  14.418  28.988   0.921
37180W        W 8906  29.530  32.535   3.870
37181W        W 8907  41.758  37.652   5.004
37182W        W 8908  12.689  30.342  11.122
37183W        W 8909  41.468  22.139   2.920
37184W        W 8910  33.591  23.514   0.124
37185W        W 8911   9.445   0.279   3.788
37186W        W 8912  26.225  26.679   1.687
37187W        W 8913  25.128  33.415  11.219
37188W        W 8914  37.378  40.385  14.228
37189W        W 8915  44.492  22.395   3.684
37190W        W 8916  18.123  19.828   4.532
37191W        W 8917  31.417  28.220  14.460
37192W        W 8918  17.142  28.588  12.320
37193W        W 8919   7.265   8.014   3.142
37194W        W 8920   3.659  17.592   2.742
37195W        W 8921   8.084  37.320  11.220
37196W        W 8922  31.732  16.435   4.127
37197W        W 8923  15.244  16.290   4.174
37198W        W 8924   2.748  22.066  13.836
37199W        W 8925  31.406  11.147   0.561
37200W        W 8926  16.979  29.241  12.987
37201W        W 8927   0.925  18.771   3.196
37202W        W 8928  37.129  37.288   4.263
37203W        W 8929   0.904  25.114   3.896
37204W        W 8930   4.902   4.552  12.279
37205W        W 8931  36.419  10.089   3.681
37206W        W 8932   6.423  17.109  14.446
37207W        W 8933  28.451  10.313  14.024
37208W        W 8934  14.529  37.544   0.382
37209W        W 8935   7.232  12.310   4.383
37210W        W 8936   8.329  41.042   4.182
37211W        W 8937  39.598  22.773  11.873
37212W        W 8938  19.069  44.478   1.971
37213W        W 8939  44.898   2.573  13.389
37214W        W 8940  11.424  19.802  12.389
37215W        W 8941  18.138   6.918  10.803
37216W        W 8942  38.241  37.985   4.636
37217W        W 8943   3.992  44.219   2.216
37218W        W 8944   7.116  40.484  13.379
37219W        W 8945  17.841  29.692  14.283
37220W        W 8946  26.540  30.570   4.232
37221W        W 8947  20.723  15.764  11.186
37222W        W 8948   6.784  36.854  12.059
37223W        W 8949  22.757  22.348  12.534
37224W        W 8950  35.594   4.969   3.832
37225W        W 8951   0.186   5.847  10.904
37226W        W 8952  19.945  31.115   0.336
37227W        W 8953  18.163  36.994  13.982
37228W        W 8954  27.985  24.757   1.431
37229W        W 8955  43.810  26.547  13.447
37230W        W 8956  24.616  11.269   4.354
37231W        W 8957  16.370  16.563   1.909
37232W        W 8958  21.959  12.822   1.370
37233W        W 8959  36.430  28.763   0.324
37234W        W 8960  33.356  26.665   3.168
37235W        W 8961   9.635   9.578   1.361
37236W        W 8962  44.952   3.783  14.867
37237W        W 8963  22.181  42.253  11.542
37238W        W 8964  29.183  41.745   3.813
37239W        W 8965  21.074   8.864  10.651
37240W        W 8966  42.071  27.107  12.402
37241W        W 8967  43.052  11.735   2.320
37242W        W 8968  13.166  24.852   2.756
37243W        W 8969   1.874  24.265   3.787
37244W        W 8970  41.358  24.894   0.787
37245W        W 8971   4.419  34.764   2.123
37246W        W 8972  19.236  38.941   1.813
37247W        W 8973  35.659   6.112  11.084
37248W        W 8974   0.380  21.468  13.993
37249W        W 8975  30.426   1.759  14.361
37250W        W 8976  23.531  10.012   2.209
37251W        W 8977  26.610  18.833   0.771
37252W        W 8978  28.569  36.534   3.719
37253W        W 8979  44.367  15.615   1.693
37254W        W 8980  37.506  24.529  11.522
37255W        W 8981  11.665   6.210  14.473
37256W        W 8982  27.183   0.330  11.105
37257W        W 8983   1.931  42.854   4.084
37258W        W 8984   9.880  13.775   1.456
37259W        W 8985  29.101   5.266  14.466
37260W        W 8986  35.909  15.895   3.252
37261W        W 8987   2.552   3.128  14.463
37262W        W 8988  30.155  16.549   0.788
37263W        W 8989  37.876  30.902   3.103
37264W        W 8990  23.024  14.573   3.221
37265W        W 8991  29.373  38.121  12.648
37266W        W 8992  29.120   7.290  13.062
37267W        W 8993   2.856  31.653  14.953
37268W        W 8994  17.026  34.515   3.364
37269W        W 8995  25.148  16.755   4.379
37270W        W 8996  26.211   6.849   2.658
37271W        W 8997  31.581  35.130   2.172
37272W        W 8998   6.186  24.910  14.910
37273W        W 8999   2.682  21.098   1.736
37274W        W 9000  18.602  22.690  13.067
37275W        W 9001  13.824  40.705   4.200
37276W        W 9002  33.396  16.330  11.571
37277W        W 9003  42.326  26.152   1.803
37278W        W 9004  21.570  13.321   2.741
37279W        W 9005   5.043   8.295  11.368
37280W        W 9006  21.377  15.204  11.529
37281W        W 9007  34.931   5.232   2.655
37282W        W 9008  24.870  27.020  10.639
37283W        W 9009  44.991   4.937  10.941
37284W        W 9010  16.040  10.299  14.672
37285W        W 9011  16.092  17.110  12.888
37286W        W 9012   5.320  19.025   1.649
37287W        W 9013  17.640  42.917  11.622
37288W        W 9014  17.302  14.721   2.788
37289W        W 9015  11.149  15.144   1.093
37290W        W 9016  39.440  25.880   1.327
37291W        W 9017  13.406  25.010  13.188
37292W        W 9018   7.825  23.565   1.937
37293W        W 9019  29.534  35.387   2.944
37294W        W 9020  44.206  38.331  12.993
37295W        W 9021  27.926  23.999  14.908
37296W        W 9022  36.110  44.662  11.187
37297W        W 9023  17.984  18.806  14.037
37298W        W 9024  38.052  29.087   2.678
37299W        W 9025  20.493  31.167   4.561
37300W        W 9026  24.107  20.479  11.051
37301W        W 9027   2.994  14.857  14.381
37302W        W 9028  16.219  24.461  14.341
37303W        W 9029   4.837  12.790  10.046
37304W        W 9030   8.817   6.588  10.537
37305W        W 9031  16.006  14.055  11.074
37306W        W 9032  40.710  13.300  14.780
37307W        W 9033  42.570  38.960  13.129
37308W        W 9034  28.502  32.630  13.781
37309W        W 9035  17.825  22.135  12.857
37310W        W 9036   3.775  12.261  12.436
37311W        W 9037  31.402  16.476   1.689
37312W        W 9038  39.912  15.603  12.339
37313W        W 9039  22.460  10.899   2.297
37314W        W 9040  23.307  32.444  14.242
37315W        W 9041  40.560   0.598   4.198
37316W        W 9042  34.984  23.034   1.826
37317W        W 9043  28.619  42.499  12.395
37318W        W 9044  27.220  15.828   0.500
37319W        W 9045   3.698  39.548   2.119
37320W        W 9046  34.770  29.813   1.276
37321W        W 9047  20.191   5.896  14.028
37322W        W 9048  11.075  34.050   9.738
37323W        W 9049  13.291   1.409  13.972
37324W        W 9050   7.460  19.172   1.396
37325W        W 9051  21.984   2.934  13.274
37326W        W 9052  18.823  22.141  11.081
37327W        W 9053  42.232  10.144   5.061
37328W        W 9054  18.868  34.408   1.369
37329W        W 9055  35.078  29.516  11.677
37330W        W 9056  31.449  35.161  14.787
37331W        W 9057  35.827  22.273   3.878
37332W        W 9058   2.013  34.016   3.281
37333W        W 9059  12.849   9.675   2.307
37334W        W 9060  31.623  40.006  11.238
37335W        W 9061  20.728  10.957  11.978
37336W        W 9062   5.243  41.237  13.859
37337W        W 9063   3.906   8.306   0.050
37338W        W 9064  26.174  36.467   0.350
37339W        W 9065   3.970  35.611   1.760
37340W        W 9066   0.980   2.393  11.148
37341W        W 9067  20.999   8.768   3.185
37342W        W 9068  38.691  41.900   4.864
37343W        W 9069  13.665  24.490   3.568
37344W        W 9070  22.533   6.752   3.359
37345W        W 9071  44.334   6.050   0.464
37346W        W 9072  12.036  30.016   0.372
37347W        W 9073  37.430  25.554  11.899
37348W        W 9074  32.608   1.712  11.669
37349W        W 9075  12.199   3.769   4.933
37350W        W 9076   5.957  13.993   0.450
37351W        W 9077   9.417   0.707  13.288
37352W        W 9078  27.430  36.478  14.673
37353W        W 9079  30.123  29.402  10.969
37354W        W 9080  27.678  31.600   2.003
37355W        W 9081  14.198  14.073  14.801
37356W        W 9082   2.668  44.769  11.503
37357W        W 9083  27.947   9.182   3.768
37358W        W 9084  39.837  37.841   3.814
37359W        W 9085   3.433  20.751   2.713
37360W        W 9086  15.718  40.257   1.349
37361W        W 9087   4.681  36.495  13.794
37362W        W 9088  20.491  42.006   2.638
37363W        W 9089   9.734  40.397  12.993
37364W        W 9090  25.755  33.897  11.529
37365W        W 9091  16.585  31.899   0.214
37366W        W 9092  24.071  12.158   1.804
37367W        W 9093  41.207   6.966  11.181
37368W        W 9094  23.013  30.572   3.958
37369W        W 9095  43.672   7.432  14.737
37370W        W 9096  23.415  20.633  11.089
37371W        W 9097  28.652  37.908  13.029
37372W        W 9098  32.913  14.205   0.987
37373W        W 9099  25.528  36.043   4.083
37374W        W 9100  13.758  22.235  13.767
37375W        W 9101  40.072  38.794   2.738
37376W        W 9102  24.622  36.128   2.699
37377W        W 9103  27.392  25.620  12.989
37378W        W 9104  11.182   2.371  12.941
37379W        W 9105  43.735  12.040   3.548
37380W        W 9106   2.105  43.658   4.995
37381W        W 9107  38.935   0.464  12.452
37382W        W 9108  37.549   8.386   4.524
37383W        W 9109  18.483  32.445   2.316
37384W        W 9110  22.871  32.196  11.075
37385W        W 9111  29.993  22.118  10.973
37386W        W 9112  26.648  14.317   2.885
37387W        W 9113   0.443   5.931   0.917
37388W        W 9114  18.350  38.939   1.622
37389W        W 9115   2.773  33.688  10.908
37390W        W 9116  16.237   3.694   1.634
37391W        W 9117  13.862   0.522  14.823
37392W        W 9118  19.502   0.891  10.641
37393W        W 9119   3.826  15.361  13.425
37394W        W 9120   6.266  20.004   1.868
37395W        W 9121  37.889  44.733  11.979
37396W        W 9122  10.407  30.614   0.307
37397W        W 9123  43.801  43.131  11.595
37398W        W 9124   0.788  38.554   3.605
37399W        W 9125   4.300  33.876  12.683
37400W        W 9126  39.730   2.888   1.808
37401W        W 9127  17.628  15.692   2.429
37402W        W 9128   5.389  16.829   0.933
37403W        W 9129  32.414   2.029  14.813
37404W        W 9130  19.598   7.921   3.238
37405W        W 9131  21.519  23.108   2.645
37406W        W 9132  10.914   5.199   3.234
37407W        W 9133  28.019  36.107   1.676
37408W        W 9134  23.781  10.632  10.920
37409W        W 9135  32.649   7.671   1.162
37410W        W 9136   0.705  38.905  10.572
37411W        W 9137  36.013  30.775   1.436
37412W        W 9138  10.569   3.364  10.709
37413W        W 9139  40.355  10.683  13.507
37414W        W 9140   5.325  44.706   2.760
37415W        W 9141  12.434  15.708  13.790
37416W        W 9142  32.161   7.414   3.668
37417W        W 9143  42.451   4.685  13.806
37418W        W 9144  28.930  12.820   0.649
37419W        W 9145  37.829  12.426   0.324
37420W        W 9146  35.380  15.723  12.581
37421W        W 9147  32.925  14.568   4.527
37422W        W 9148   1.002   5.656   3.296
37423W        W 9149  23.327  37.898  13.896
37424W        W 9150  17.196  29.620   0.706
37425W        W 9151  29.721  11.617   4.366
37426W        W 9152   0.674  34.522   2.761
37427W        W 9153  26.123  37.632  13.474
37428W        W 9154  33.446   2.135  12.450
37429W        W 9155   8.833  37.605  10.812
37430W        W 9156  42.456   3.334   2.342
37431W        W 9157  37.619  37.915  11.960
37432W        W 9158   6.194  14.214  12.141
37433W        W 9159  10.688  14.310  10.781
37434W        W 9160  42.054   2.019   4.227
37435W        W 9161  24.996  12.332  11.882
37436W        W 9162  34.797  25.794  11.502
37437W        W 9163  23.187  26.062  13.801
37438W        W 9164  19.645  41.998  13.332
37439W        W 9165  16.778  34.581   0.956
37440W        W 9166  37.913  27.083   1.050
37441W        W 9167  26.949   9.890   1.523
37442W        W 9168   2.614  23.436   2.759
37443W        W 9169  11.193   8.644   4.750
37444W        W 9170   5.427  21.909  12.939
37445W        W 9171  41.819  10.884   3.593
37446W        W 9172   7.244  15.679  13.322
37447W        W 9173  13.335  34.933  10.371
37448W        W 9174  32.241  30.170   3.921
37449W        W 9175  34.577  32.649  12.421
37450W        W 9176   9.629  22.417   5.034
37451W        W 9177  36.009  38.900  12.787
37452W        W 9178  36.555  20.306   0.444
37453W        W 9179  15.615  39.442  13.990
37454W        W 9180  34.020  30.432   4.168
37455W        W 9181  38.468  44.201   4.296
37456W        W 9182  11.892  28.946  11.670
37457W        W 9183  25.604   0.679  11.517
37458W        W 9184  42.715  18.517  13.807
37459W        W 9185  24.593  15.186   3.626
37460W        W 9186  27.542  40.528  14.390
37461W        W 9187  43.672  25.388   2.365
37462W        W 9188  44.934  35.799   2.744
37463W        W 9189  20.097  27.345  10.807
37464W        W 9190  19.385  26.572   4.615
37465W        W 9191  38.809  19.621  10.564
37466W        W 9192   2.672   8.756  13.794
37467W        W 9193  42.511  17.027  14.920
37468W        W 9194  19.151  43.618   3.555
37469W        W 9195  10.145  32.237   3.878
37470W        W 9196  23.748  17.578  12.984
37471W        W 9197   0.426  38.635  14.314
37472W        W 9198  31.114  40.849  11.251
37473W        W 9199  21.052   8.607   3.677
37474W        W 9200  31.663  12.418   3.479
37475W        W 9201  21.899  28.971  13.836
37476W        W 9202   3.855  14.805   5.053
37477W        W 9203  25.530  22.885   0.482
37478W        W 9204   8.174  34.892   5.333
37479W        W 9205  42.962  25.196   3.198
37480W        W 9206  43.735  39.585  12.342
37481W        W 9207  37.720  44.733  11.079
37482W        W 9208  20.066  36.422  12.150
37483W        W 9209   1.398   4.174  14.490
37484W        W 9210  30.396  27.601   4.821
37485W        W 9211  27.577  31.947   1.385
37486W        W 9212  21.968  22.540   0.377
37487W        W 9213   5.310  13.005  12.658
37488W        W 9214  15.416   3.257  14.106
37489W        W 9215  20.520  38.265  14.798
37490W        W 9216   8.618   1.323   3.333
37491W        W 9217  21.617   3.958  14.365
37492W        W 9218   7.931  15.788   0.319
37493W        W 9219  37.895  33.319   2.252
37494W        W 9220  43.290  41.020  14.944
37495W        W 9221  32.021  30.360   4.609
37496W        W 9222   0.330  22.292  13.435
37497W        W 9223  39.553  15.595  13.116
37498W        W 9224   7.976  13.954  12.422
37499W        W 9225  23.527  15.179   0.874
37500W        W 9226  34.745  20.880   3.896
37501W        W 9227   1.954  27.025   4.695
37502W        W 9228  40.760  43.402   4.294
37503W        W 9229  40.439   8.245  13.329
37504W        W 9230  18.875  17.136  10.579
37505W        W 9231  24.152  23.201  12.469
37506W        W 9232  30.136  17.453   2.707
37507W        W 9233  15.671  29.557   2.325
37508W        W 9234  38.385   4.838   0.039
37509W        W 9235  17.062  44.260  14.867
37510W        W 9236  22.197  32.586   1.031
37511W        W 9237  27.187  11.593   3.801
37512W        W 9238  32.064  17.255  12.896
37513W        W 9239  35.127   8.446   3.376
37514W        W 9240  40.726  39.907   1.810
37515W        W 9241   9.237  25.048  12.621
37516W        W 9242   6.835   2.321  10.533
37517W        W 9243  39.005  27.005  11.915
37518W        W 9244  15.262   0.952  14.844
37519W        W 9245  29.634  31.900  14.893
37520W        W 9246  18.850  37.323   0.987
37521W        W 9247  43.446  27.462   3.229
37522W        W 9248   8.105  39.858   2.222
37523W        W 9249  23.944   6.223   2.171
37524W        W 9250   9.233  14.038  11.923
37525W        W 9251  44.103  37.607  12.604
37526W        W 9252  16.417  12.897  14.818
37527W        W 9253  39.878   5.377   1.927
37528W        W 9254  27.579  26.598  13.039
37529W        W 9255  35.828  20.813   0.811
37530W        W 9256   4.370  44.503   0.887
37531W        W 9257  31.398  12.294   4.315
37532W        W 9258  22.440  32.937   1.745
37533W        W 9259   7.686  11.107  11.873
37534W        W 9260  43.865   8.786   0.524
37535W        W 9261  35.230   3.746   0.456
37536W        W 9262  35.106  25.146  12.397
37537W        W 9263  43.950  40.747  12.668
37538W        W 9264  16.980  33.959  10.422
37539W        W 9265  21.024  21.261  12.468
37540W        W 9266  26.998  25.935   4.586
37541W        W 9267   5.411   8.030  10.122
37542W        W 9268   2.305  34.947  13.070
37543W        W 9269  23.276  44.238  12.442
37544W        W 9270  12.089  15.112  10.848
37545W        W 9271  11.021  11.760   1.260
37546W        W 9272  39.052   3.686   3.351
37547W        W 9273  25.551  12.013   3.571
37548W        W 9274  35.456  34.108   1.202
37549W        W 9275  26.071  31.899  11.062
37550W        W 9276  26.457  43.282   1.380
37551W        W 9277  22.610  15.569   0.779
37552W        W 9278  41.864  23.509  13.375
37553W        W 9279  29.600  30.098  11.134
37554W        W 9280  27.707  14.989  14.416
37555W        W 9281   4.851   9.242   4.068
37556W        W 9282  43.761  31.985   1.387
37557W        W 9283   8.846  23.248   4.268
37558W        W 9284  32.480  27.372   0.407
37559W        W 9285  13.435  24.232  13.618
37560W        W 9286  20.805  41.897  13.920
37561W        W 9287   6.519  40.450  11.652
37562W        W 9288  39.577   8.276   0.761
37563W        W 9289   0.558  13.901  10.983
37564W        W 9290  39.214  31.439  11.179
37565W        W 9291  18.192  21.319  13.799
37566W        W 9292  26.545  18.096   4.279
37567W        W 9293   5.481   7.764  12.372
37568W        W 9294  41.564  13.318  12.442
37569W        W 9295  43.755  14.504   3.631
37570W        W 9296  32.045  41.322   5.124
37571W        W 9297  44.325   5.182   0.219
37572W        W 9298   1.144  34.632   4.288
37573W        W 9299  16.594  23.282  11.149
37574W        W 9300  33.448  43.094   2.743
37575W        W 9301  27.707  19.756   4.876
37576W        W 9302  11.633  33.077  14.516
37577W        W 9303   4.926  25.754  11.123
37578W        W 9304  23.511  24.527  10.631
37579W        W 9305  42.117  34.483  10.655
37580W        W 9306   4.964  31.006  11.117
37581W        W 9307  19.466  37.005  11.385
37582W        W 9308   5.837   6.155   3.380
37583W        W 9309  44.017   5.911  13.818
37584W        W 9310  39.921  23.840  14.867
37585W        W 9311  41.463  21.497   0.483
37586W        W 9312  42.920  22.044   4.493
37587W        W 9313   2.003  37.848   3.804
37588W        W 9314  25.041   0.769   0.603
37589W        W 9315   6.979  18.085  14.862
37590W        W 9316  36.591  27.701   2.207
37591W        W 9317   3.605  15.266   2.312
37592W        W 9318   8.644  43.447  13.275
37593W        W 9319  15.829  16.002  11.256
37594W        W 9320  34.360  42.960  11.913
37595W        W 9321   4.208  13.460   1.183
37596W        W 9322   1.288   2.474   2.678
37597W        W 9323  20.565  35.504  10.728
37598W        W 9324  12.226   8.195  12.553
37599W        W 9325  26.550  43.479  12.155
37600W        W 9326  34.769  38.337  13.985
37601W        W 9327   3.842   0.195  11.567
37602W        W 9328  22.510  12.079   1.410
37603W        W 9329  28.152   1.201  11.606
37604W        W 9330  18.980  11.391  11.920
37605W        W 9331  42.361  18.152  14.455
37606W        W 9332  22.797   5.910  12.427
37607W        W 9333  24.541   6.191  14.452
37608W        W 9334  26.419  20.614  11.903
37609W        W 9335  24.166  41.438  11.192
37610W        W 9336   1.096   8.458   1.132
37611W        W 9337  19.976  44.286   4.555
37612W        W 9338  22.058  23.387   0.664
37613W        W 9339  15.306  39.122   0.698
37614W        W 9340  40.808   1.992  13.874
37615W        W 9341  31.122  43.433   0.569
37616W        W 9342  23.948  24.933   3.217
37617W        W 9343   5.934   0.547   3.410
37618W        W 9344  38.383   7.915   1.972
37619W        W 9345  14.151  20.482   5.135
37620W        W 9346   7.599   5.809   3.197
37621W        W 9347  37.402   0.496  13.061
37622W        W 9348  14.730  41.996   0.745
37623W        W 9349  19.568  40.559   0.813
37624W        W 9350  20.243  40.312  13.505
37625W        W 9351  34.794  35.484   2.757
37626W        W 9352  29.173  19.986   4.328
37627W        W 9353  32.159  19.446  12.694
37628W        W 9354  34.607  38.065  11.563
37629W        W 9355   3.972  35.436   0.413
37630W        W 9356  40.954   2.186   2.790
37631W        W 9357  41.958   8.466  10.567
37632W        W 9358  31.891  24.082  14.186
37633W        W 9359  32.129  19.198   4.820
37634W        W 9360  38.783   9.226  14.485
37635W        W 9361  14.250   4.648   1.117
37636W        W 9362   8.376  28.592   4.376
37637W        W 9363   0.719  15.403   4.286
37638W        W 9364   3.711  15.285   3.722
37639W        W 9365   0.668  14.842   1.316
37640W        W 9366  43.496   2.449  12.982
37641W        W 9367  11.801  23.170  12.346
37642W        W 9368  16.597  27.088  13.381
37643W        W 9369  37.648   8.183   5.130
37644W        W 9370  11.321  23.730  14.262
37645W        W 9371   3.145  18.621  12.031
37646W        W 9372  34.258  14.757  12.022
37647W        W 9373  25.246  16.790   0.851
37648W        W 9374  15.152  38.895   5.076
37649W        W 9375  42.863  39.629   1.103
37650W        W 9376   6.828  35.426  13.524
37651W        W 9377  16.277  15.121  10.945
37652W        W 9378  42.041  37.249   2.391
37653W        W 9379  26.975  26.031  14.381
37654W        W 9380   7.246  27.445   0.709
37655W        W 9381  13.735   7.880  12.105
37656W        W 9382  44.926   9.206  12.500
37657W        W 9383  35.326  36.951   3.271
37658W        W 9384  27.440  15.798  14.255
37659W        W 9385  14.877  13.669   4.499
37660W        W 9386  21.015  26.724  10.700
37661W        W 9387  23.655  42.955  14.279
37662W        W 9388   7.881  30.376  13.869
37663W        W 9389  43.813  22.648   4.206
37664W        W 9390  42.186  43.080   3.323
37665W        W 9391   0.387  43.912   2.109
37666W        W 9392  41.069   9.835   3.604
37667W        W 9393  33.135  38.294   3.636
37668W        W 9394   0.264  28.552  11.112
37669W        W 9395  18.975   7.676  14.425
37670W        W 9396   0.765  15.161  12.001
37671W        W 9397  26.582   4.036   0.015
37672W        W 9398  23.238   3.220  11.646
37673W        W 9399  12.220  40.607  11.536
37674W        W 9400   7.701  39.562   4.133
37675W        W 9401  14.150  41.840   5.018
37676W        W 9402  14.373   7.177   2.841
37677W        W 9403  11.382  23.737   1.208
37678W        W 9404  35.754  29.584  11.198
37679W        W 9405  20.698  16.808  10.239
37680W        W 9406  28.888  34.015   3.894
37681W        W 9407  26.204  10.748   4.004
37682W        W 9408  17.231  38.298   2.858
37683W        W 9409   0.805  41.594  10.062
37684W        W 9410  25.748  32.917   1.868
37685W        W 9411  24.188  17.543  12.670
37686W        W 9412  24.266   4.568  13.822
37687W        W 9413   9.304  30.180   4.141
37688W        W 9414  22.061  25.746   9.781
37689W        W 9415  17.521   5.755  13.083
37690W        W 9416  43.923   6.825  13.344
37691W        W 9417  10.638  12.225   1.898
37692W        W 9418  38.462  13.152   4.680
37693W        W 9419  14.569  44.396   1.888
37694W        W 9420  27.379  43.829   4.623
37695W        W 9421   5.680  16.913   2.334
37696W        W 9422  33.899  34.532   2.810
37697W        W 9423  20.100   3.235  12.904
37698W        W 9424  43.977  13.366  13.890
37699W        W 9425   1.282  32.543   4.149
37700W        W 9426  31.433  34.619  14.821
37701W        W 9427  17.436  36.630   2.341
37702W        W 9428  23.044  15.250   5.503
37703W        W 9429  27.945  15.771  14.451
37704W        W 9430  26.411   1.856   0.185
37705W        W 9431  14.785  19.777   1.675
37706W        W 9432  16.192  20.921  10.061
37707W        W 9433  27.300  19.281  12.845
37708W        W 9434   8.170   6.340  11.196
37709W        W 9435  27.574   3.448  13.457
37710W        W 9436  35.630  24.465   0.694
37711W        W 9437  39.461  21.580  10.649
37712W        W 9438  22.144  23.226  14.330
37713W        W 9439  13.858  42.020   3.602
37714W        W 9440  18.091  39.863   1.374
37715W        W 9441   3.996  16.075  11.791
37716W        W 9442   7.431  43.289  12.016
37717W        W 9443  27.117  14.526   0.940
37718W        W 9444  26.562  14.829   3.523
37719W        W 9445  34.920  43.302   1.464
37720W        W 9446   2.827   6.534  14.508
37721W        W 9447  37.400  32.605   2.901
37722W        W 9448  25.459  33.971   0.817
37723W        W 9449  20.434   9.173   4.229
37724W        W 9450  26.071   2.917  14.452
37725W        W 9451  16.090  41.132   4.176
37726W        W 9452  11.433  33.941  12.963
37727W        W 9453  29.456  39.504  10.968
37728W        W 9454  44.749  14.582   3.695
37729W        W 9455  30.415  37.107  14.509
37730W        W 9456  26.223  15.238   2.841
37731W        W 9457  44.450  41.585  10.994
37732W        W 9458  31.519  27.075  10.238
37733W        W 9459  31.416  31.043   0.704
37734W        W 9460  17.996  39.998  11.513
37735W        W 9461   5.370  14.377  11.601
37736W        W 9462   0.592  34.000   1.822
37737W        W 9463  15.269   5.779   1.805
37738W        W 9464  14.815  35.896   0.759
37739W        W 9465  25.441  12.246  12.612
37740W        W 9466  21.926  21.315   0.808
37741W        W 9467  37.692  27.205   2.395
37742W        W 9468  20.992  12.779   0.419
37743W        W 9469   5.586  32.556  13.837
37744W        W 9470  30.337   1.568   4.743
37745W        W 9471   7.931  20.226   1.307
37746W        W 9472  11.335  16.097   3.770
37747W        W 9473  30.978  39.561   1.431
37748W        W 9474  19.132   8.611   1.919
37749W        W 9475  39.180  21.192  12.818
37750W        W 9476  21.619  31.681   1.970
37751W        W 9477  36.645   5.973  12.544
37752W        W 9478  27.466  12.131   1.253
37753W        W 9479   2.651   3.065   2.815
37754W        W 9480  13.164   8.814   5.108
37755W        W 9481   6.851  26.617   2.307
37756W        W 9482  19.043  16.962   3.341
37757W        W 9483  16.636  30.343  10.859
37758W        W 9484  35.944  41.745  11.131
37759W        W 9485  13.817  23.721  13.761
37760W        W 9486  34.019  35.921   4.083
37761W        W 9487  19.279  32.832  10.721
37762W        W 9488   8.347  11.998  13.575
37763W        W 9489  29.591  37.494  12.968
37764W        W 9490  29.503  32.193  11.097
37765W        W 9491  28.709   9.611   3.756
37766W        W 9492  23.694  39.111  12.332
37767W        W 9493  25.411  13.333  12.380
37768W        W 9494  30.984   3.460  10.959
37769W        W 9495  32.598  17.681  10.333
37770W        W 9496   0.270   8.742   1.852
37771W        W 9497  10.248   0.479   4.125
37772W        W 9498   1.295  41.891  10.642
37773W        W 9499  42.279  30.459   0.202
37774W        W 9500  13.331   0.292  14.769
37775W        W 9501  12.752  25.965  11.978
37776W        W 9502  38.414   5.776  10.670
37777W        W 9503  27.561  42.531  13.989
37778W        W 9504  17.704  25.684  12.110
37779W        W 9505  31.923  19.357   1.281
37780W        W 9506  43.995  24.532   4.523
37781W        W 9507   5.797  38.406  13.400
37782W        W 9508  34.138  37.643   2.381
37783W        W 9509  43.350  20.722   1.996
37784W        W 9510   2.854  44.520  12.662
37785W        W 9511   2.092  16.942   0.509
37786W        W 9512  10.738  44.381   0.965
37787W        W 9513  34.004  40.334  12.700
37788W        W 9514  14.167   6.339   2.812
37789W        W 9515  17.150  41.588  13.877
37790W        W 9516  33.074  28.951   0.409
37791W        W 9517  31.989  13.698  14.551
37792W        W 9518  39.159   9.153  11.540
37793W        W 9519  16.574  38.939  14.829
37794W        W 9520  24.566  10.703  10.948
37795W        W 9521  20.596  13.522   0.327
37796W        W 9522  19.493  11.616   1.367
37797W        W 9523  32.612  22.701   1.196
37798W        W 9524   6.381  29.868  12.669
37799W        W 9525  25.511  21.076   0.156
37800W        W 9526   6.301  16.341  12.486
37801W        W 9527  14.638  10.291   5.110
37802W        W 9528   9.581  43.543   3.603
37803W        W 9529   8.361  30.863   3.676
37804W        W 9530  21.009  25.189   1.788
37805W        W 9531  36.837  38.558   2.748
37806W        W 9532   0.405   3.872   3.355
37807W        W 9533  22.154  13.592   1.431
37808W        W 9534  42.781  37.855  10.674
37809W        W 9535  42.097  23.240   3.249
37810W        W 9536  35.328  14.229  13.326
37811W        W 9537  33.502  12.745  12.423
37812W        W 9538  37.337  39.915   3.129
37813W        W 9539  31.582   3.860  14.809
37814W        W 9540  12.716  24.097  11.643
37815W        W 9541  14.756  15.217  13.312
37816W        W 9542   2.299   3.272   4.775
37817W        W 9543  31.506   3.544   3.650
37818W        W 9544  26.534  36.164   1.018
37819W        W 9545   1.547   1.688   0.201
37820W        W 9546  43.707   8.831  12.162
37821W        W 9547  32.155   9.811   1.766
37822W        W 9548  42.004   6.967   4.192
37823W        W 9549   7.446  34.444   9.802
37824W        W 9550  13.042  34.563  11.116
37825W        W 9551  26.183  41.696   4.627
37826W        W 9552  41.991  25.049   4.361
37827W        W 9553  33.632  30.883   2.400
37828W        W 9554   5.775  12.396  11.928
37829W        W 9555  29.504  29.958   2.441
37830W        W 9556  10.130  27.321   0.390
37831W        W 9557   6.913  14.381   4.517
37832W        W 9558  32.149  44.752  10.042
37833W        W 9559  19.798  24.982   4.778
37834W        W 9560  40.599  23.729   1.791
37835W        W 9561   6.375  39.490   3.667
37836W        W 9562   2.435  42.085  14.266
37837W        W 9563   4.000  36.823   0.559
37838W        W 9564  34.109   0.511  11.680
37839W        W 9565   7.895  41.048  11.087
37840W        W 9566  35.482  35.024  11.664
37841W        W 9567  16.246  29.514   1.650
37842W        W 9568  16.166  16.054   2.174
37843W        W 9569  38.309  44.848   4.662
37844W        W 9570  19.099  26.430   0.437
37845W        W 9571   2.862  42.519  13.247
37846W        W 9572  43.963  34.505  11.363
37847W        W 9573  32.017  39.534   4.740
37848W        W 9574  41.794  44.336  10.818
37849W        W 9575  24.710  28.506  13.972
37850W        W 9576  22.537   3.925   4.088
37851W        W 9577  43.964  28.998   2.668
37852W        W 9578  30.435  28.113  10.793
37853W        W 9579  20.853   5.168  13.475
37854W        W 9580  25.003  41.833  12.816
37855W        W 9581   3.015  27.854  12.162
37856W        W 9582   4.970  44.911   1.420
37857W        W 9583  25.420  38.745  13.850
37858W        W 9584  28.207  16.162  12.971
37859W        W 9585  16.341  40.273  12.556
37860W        W 9586  22.030   0.647  11.501
37861W        W 9587  29.312  31.456  13.732
37862W        W 9588  41.955  34.918  13.388
37863W        W 9589  20.925  22.685   4.214
37864W        W 9590  10.172  17.688   4.031
37865W        W 9591  15.170  43.812  11.122
37866W        W 9592  23.115  31.092   4.679
37867W        W 9593  30.959  28.659  11.887
37868W        W 9594  28.346  22.743   2.328
37869W        W 9595   5.680  39.247   0.493
37870W        W 9596  35.690   9.622   2.143
37871W        W 9597  16.271   6.017  14.378
37872W        W 9598   8.357   9.506  13.585
37873W        W 9599  38.479   7.938   1.445
37874W        W 9600   5.462  19.233   4.875
37875W        W 9601  37.176  23.249   3.505
37876W        W 9602  41.116  43.684  11.704
37877W        W 9603   8.892  15.176   2.422
37878W        W 9604  41.398  15.792   1.188
37879W        W 9605  31.359   0.204  11.204
37880W        W 9606  21.292  25.590   2.606
37881W        W 9607  33.755  22.729   1.337
37882W        W 9608  14.132   1.334  13.804
37883W        W 9609  27.661  38.634   2.806
37884W        W 9610  34.167  20.609  10.650
37885W        W 9611   1.251  12.170   2.770
37886W        W 9612  26.771  21.443   4.611
37887W        W 9613  18.068  35.997   3.301
37888W        W 9614  30.853  27.526   3.939
37889W        W 9615  19.112  35.567  14.345
37890W        W 9616   4.754   5.857  13.449
37891W        W 9617  30.469  29.070  14.825
37892W        W 9618  35.397  29.155   0.435
37893W        W 9619  12.642  39.043   2.741
37894W        W 9620  44.000  29.496  11.240
37895W        W 9621   5.295  22.881  12.800
37896W        W 9622  39.986  22.713   4.493
37897W        W 9623  40.424   2.651   1.426
37898W        W 9624   4.971  34.962  14.291
37899W        W 9625   2.023  34.350  11.516
37900W        W 9626  32.483  33.842   0.672
37901W        W 9627  31.995   9.272  13.131
37902W        W 9628  19.644  26.034   4.848
37903W        W 9629   2.201   7.487   0.926
37904W        W 9630  33.891  44.408   5.142
37905W        W 9631   8.135  22.699   1.524
37906W        W 9632  23.161  17.652   4.094
37907W        W 9633  20.145  41.596   2.694
37908W        W 9634   8.675  11.552  12.359
37909W        W 9635  31.840   3.362   2.403
37910W        W 9636  19.618  21.532   2.707
37911W        W 9637  14.393  26.515  14.519
37912W        W 9638  42.971  10.235   2.842
37913W        W 9639  26.010  37.264   4.584
37914W        W 9640  17.012  26.052   2.349
37915W        W 9641  37.318  41.027   3.784
37916W        W 9642   7.219   5.714  13.902
37917W        W 9643  22.291  42.873  12.636
37918W        W 9644  15.846  17.119   2.431
37919W        W 9645   5.177  39.797   4.665
37920W        W 9646   3.364   4.449   2.442
37921W        W 9647  36.950  29.312  14.010
37922W        W 9648   4.505  38.000  11.079
37923W        W 9649  22.650  26.068  13.815
37924W        W 9650  21.868  35.947   2.284
37925W        W 9651   5.817  18.171   1.469
37926W        W 9652  44.905   4.166   0.352
37927W        W 9653   1.698  26.195  14.446
37928W        W 9654  18.213   9.261  14.049
37929W        W 9655  22.629  21.304   1.926
37930W        W 9656   4.290  41.044   1.583
37931W        W 9657  25.985  14.564  13.456
37932W        W 9658  20.007  28.481   1.241
37933W        W 9659  38.898   6.882   3.154
37934W        W 9660   1.033  29.824   2.668
37935W        W 9661  22.620  14.617  11.218
37936W        W 9662  29.870  19.551   4.987
37937W        W 9663  31.583  29.278   4.277
37938W        W 9664  36.315   9.950  10.778
37939W        W 9665  43.763   0.408  11.048
37940W        W 9666  17.529  43.491   1.944
37941W        W 9667  31.860   6.164   3.234
37942W        W 9668  17.833  40.349   0.061
37943W        W 9669  34.684   5.207  13.549
37944W        W 9670  27.191  12.363   1.638
37945W        W 9671  23.267   6.463  13.934
37946W        W 9672  22.482  32.502  10.885
37947W        W 9673  37.476  39.256  12.312
37948W        W 9674  31.520  17.284   3.220
37949W        W 9675  40.062  11.921  11.108
37950W        W 9676   7.180  11.567  14.380
37951W        W 9677  23.637   6.170   4.289
37952W        W 9678  24.486  44.754   1.495
37953W        W 9679  22.722  28.410   3.733
37954W        W 9680  36.359   6.459   0.690
37955W        W 9681  41.391  18.697   0.166
37956W        W 9682  29.153  39.927  14.010
37957W        W 9683  40.450  20.542  13.990
37958W        W 9684  29.443  29.888  10.685
37959W        W 9685  36.999  22.903  11.227
37960W        W 9686  18.504  22.351   0.444
37961W        W 9687  39.608  21.235  13.115
37962W        W 9688  37.004  30.740  10.698
37963W        W 9689  19.349   2.425  13.320
37964W        W 9690  33.097  28.135  11.396
37965W        W 9691  19.205  43.211   0.794
37966W        W 9692  22.510  21.059   0.448
37967W        W 9693  24.010  27.491  13.036
37968W        W 9694  33.479  40.059   1.323
37969W        W 9695   8.250  28.014  10.966
37970W        W 9696  19.176  38.458   0.378
37971W        W 9697   5.165  29.538   0.832
37972W        W 9698   0.962  40.450  11.611
37973W        W 9699  21.149  10.100  11.189
37974W        W 9700  26.080   5.701  10.343
37975W        W 9701  41.403   1.514  10.633
37976W        W 9702  13.999  27.729   1.340
37977W        W 9703  13.845  32.785   1.885
37978W        W 9704   5.175   9.730   2.227
37979W        W 9705  41.482   2.329  13.854
37980W        W 9706   5.002   8.834  13.046
37981W        W 9707  20.186  26.470   5.105
37982W        W 9708  13.268   6.156   3.268
37983W        W 9709  16.407   6.065  10.374
37984W        W 9710   6.740  25.537   4.568
37985W        W 9711  34.544  13.130   3.263
37986W        W 9712  26.524  12.059   0.339
37987W        W 9713   6.707   8.950   4.225
37988W        W 9714  26.637   7.471   1.290
37989W        W 9715  21.204  29.156   2.662
37990W        W 9716  43.495   4.754  10.605
37991W        W 9717  29.918  21.490   1.826
37992W        W 9718  34.399  13.666  11.156
37993W        W 9719   7.192  28.362  13.233
37994W        W 9720   2.148  26.429  13.908
37995W        W 9721  39.076  29.601  10.735
37996W        W 9722  18.535  16.572   4.016
37997W        W 9723  22.719   4.382   3.932
37998W        W 9724   9.718   6.345   2.439
37999W        W 9725  15.628  22.776  13.884
38000W        W 9726  18.689   6.422  12.941
38001W        W 9727  37.918  36.552  14.190
38002W        W 9728  37.112   3.416   0.453
38003W        W 9729  35.491  31.139   3.674
38004W        W 9730  36.209  17.920  11.627
38005W        W 9731  10.777   3.883  10.687
38006W        W 9732   4.469  22.441   2.720
38007W        W 9733  35.844  29.063   1.321
38008W        W 9734  12.459  28.051  14.986
38009W        W 9735  35.792  10.109   4.190
38010W        W 9736  33.585  12.759   2.870
38011W        W 9737  12.643  17.546   3.458
38012W        W 9738   2.901  18.980   3.006
38013W        W 9739  15.868  37.811  13.347
38014W        W 9740  32.581  37.003   2.447
38015W        W 9741  32.930  30.056   4.586
38016W        W 9742  39.485  14.752   1.441
38017W        W 9743  21.397  12.906  10.635
38018W        W 9744  12.499  41.427  11.455
38019W        W 9745  22.022   0.124  11.581
38020W        W 9746  23.209  24.479  14.464
38021W        W 9747  31.693   7.478   4.452
38022W        W 9748  25.486  13.882  13.597
38023W        W 9749  37.298  14.800   4.399
38024W        W 9750  18.803  18.847  12.504
38025W        W 9751  39.749  43.812   4.113
38026W        W 9752  23.935  25.739   0.461
38027W        W 9753   7.707  13.559   3.227
38028W        W 9754  18.925  43.338   3.948
38029W        W 9755   4.376   7.648  14.271
38030W        W 9756  25.883  11.025  12.533
38031W        W 9757  15.215  40.811   4.223
38032W        W 9758  16.570  44.055  14.936
38033W        W 9759   6.337   3.299  11.277
38034W        W 9760   9.597  29.718  12.765
38035W        W 9761  37.940   5.837  13.992
38036W        W 9762  19.306  36.052  10.637
38037W        W 9763  20.640  37.550   0.367
38038W        W 9764  28.128  40.594   2.842
38039W        W 9765  41.275  14.135   0.033
38040W        W 9766   5.533  42.334  12.029
38041W        W 9767   3.646  33.385  12.923
38042W        W 9768  34.112  41.352   5.061
38043W        W 9769  25.928  36.434  14.897
38044W        W 9770  27.462   8.815  10.949
38045W        W 9771  15.192   4.132  13.093
38046W        W 9772  15.967  29.776  14.385
38047W        W 9773   6.330   5.223  11.564
38048W        W 9774  27.607  12.046  11.981
38049W        W 9775  20.456  15.353  11.362
38050W        W 9776  13.498  23.545  14.798
38051W        W 9777  44.825  15.744   4.343
38052W        W 9778   6.764  39.984   0.763
38053W        W 9779  30.507  38.882   1.039
38054W        W 9780  42.025  26.434  13.550
38055W        W 9781  20.195  19.561   4.261
38056W        W 9782   9.571  13.577   0.425
38057W        W 9783  10.398   6.276  12.434
38058W        W 9784  44.360   5.134  13.431
38059W        W 9785  21.219  24.099   2.768
38060W        W 9786  20.318  17.671  13.967
38061W        W 9787  12.036   1.013  11.408
38062W        W 9788  33.607  30.131  14.874
38063W        W 9789  26.951  30.745  13.269
38064W        W 9790  43.767  17.599   0.306
38065W        W 9791  19.346  20.142  14.963
38066W        W 9792  13.345  43.774   4.674
38067W        W 9793   2.687  31.903  12.066
38068W        W 9794  27.067  35.570  12.721
38069W        W 9795  22.466  12.697   1.384
38070W        W 9796  11.036  30.097   0.405
38071W        W 9797   0.244   6.913  10.743
38072W        W 9798  34.378  43.006   0.258
38073W        W 9799   4.824  15.228  14.959
38074W        W 9800  37.475  32.971  12.809
38075W        W 9801  42.459  20.176   2.283
38076W        W 9802  26.572  26.231   2.245
38077W        W 9803  11.904  23.389  14.412
38078W        W 9804  15.615  23.482   0.486
38079W        W 9805  21.680  19.644  14.145
38080W        W 9806  29.981  43.811   1.848
38081W        W 9807  28.881  39.587   4.515
38082W        W 9808  22.606  32.779  14.932
38083W        W 9809  32.363  42.505  11.542
38084W        W 9810  39.454  33.389   1.276
38085W        W 9811  42.771  26.636  10.881
38086W        W 9812   4.409  15.795  14.961
38087W        W 9813  33.325  25.762   1.780
38088W        W 9814  32.194   5.623   2.235
38089W        W 9815   9.745   1.420   2.262
38090W        W 9816  35.910   3.185   1.447
38091W        W 9817   3.165  44.395   3.201
38092W        W 9818  32.544  31.350  12.848
38093W        W 9819  33.877  37.900  11.450
38094W        W 9820  17.668   9.831   1.440
38095W        W 9821  44.714  43.476  14.730
38096W        W 9822  20.016  40.476   4.152
38097W        W 9823  35.888   1.969   4.138
38098W        W 9824   7.322  22.265  11.482
38099W        W 9825  40.486  12.690   1.245
38100W        W 9826  18.662  21.266  10.086
38101W        W 9827  24.246  27.081   9.824
38102W        W 9828  31.655  16.131   0.276
38103W        W 9829   9.611  42.703   3.172
38104W        W 9830   7.788  27.566   0.007
38105W        W 9831   5.757  42.324  10.979
38106W        W 9832  26.520  24.644   0.826
38107W        W 9833   8.587   0.973  11.186
38108W        W 9834  17.583  24.510   1.798
38109W        W 9835   6.980  18.574  11.037
38110W        W 9836  13.777  13.381   4.424
38111W        W 9837   4.015  22.661   2.832
38112W        W 9838  12.812  27.201  12.465
38113W        W 9839  16.721   6.511   5.107
38114W        W 9840   7.969  35.981  11.555
38115W        W 9841   7.953   9.953   2.182
38116W        W 9842  12.782  20.292   2.294
38117W        W 9843  42.474  25.646   3.617
38118W        W 9844  42.215  13.060   2.232
38119W        W 9845  21.060  22.306  13.780
38120W        W 9846  27.438  14.153  11.056
38121W        W 9847  35.590  38.121  12.669
38122W        W 9848   4.515  17.137  11.586
38123W        W 9849  10.405  36.059   0.963
38124W        W 9850  30.132  41.030   2.736
38125W        W 9851  39.781  34.118   2.286
38126W        W 9852  17.696  19.595  10.704
38127W        W 9853  41.941  22.192   0.712
38128W        W 9854   9.757  22.439   0.401
38129W        W 9855  31.601  13.580   2.823
38130W        W 9856  13.666  43.913  12.594
38131W        W 9857  38.981  44.436  10.964
38132W        W 9858   5.438  35.447   1.727
38133W        W 9859  44.740   7.395  10.446
38134W        W 9860  31.979  37.438  13.286
38135W        W 9861  44.299   5.467  14.780
38136W        W 9862  25.267   3.796  11.087
38137W        W 9863  42.433   9.871   3.671
38138W        W 9864  32.862  19.817   1.456
38139W        W 9865  19.750  41.281   4.736
38140W        W 9866   0.224   3.206  10.899
38141W        W 9867  44.832  43.045   4.210
38142W        W 9868  11.836  29.065  14.846
38143W        W 9869  40.035  29.879   2.152
38144W        W 9870   0.977   7.722  12.480
38145W        W 9871  14.186   3.877  14.997
38146W        W 9872  18.378  10.721  10.661
38147W        W 9873   2.583  27.556   0.051
38148W        W 9874   8.221   8.815   2.555
38149W        W 9875   1.236  17.359   1.441
38150W        W 9876  28.136   2.241   3.095
38151W        W 9877  25.207   0.960   4.211
38152W        W 9878  12.793  35.064   3.275
38153W        W 9879  19.673  36.480   2.848
38154W        W 9880   3.215  19.675   0.703
38155W        W 9881  24.173  32.051  10.616
38156W        W 9882  19.485  17.200  14.709
38157W        W 9883   9.217  16.728   4.589
38158W        W 9884  43.347  42.833  10.997
38159W        W 9885  35.425   9.861  14.949
38160W        W 9886  13.743  35.065   3.152
38161W        W 9887  44.527  19.294  11.532
38162W        W 9888  40.518  41.016  12.951
38163W        W 9889  10.639   5.450  14.421
38164W        W 9890  36.471   4.801   3.573
38165W        W 9891  18.961  24.485   2.755
38166W        W 9892  30.648  34.543   0.408
38167W        W 9893   0.977  18.961   1.126
38168W        W 9894  16.826  17.767   3.338
38169W        W 9895  22.553  22.747   4.360
38170W        W 9896  44.962  30.663   1.631
38171W        W 9897  32.499  32.519  13.813
38172W        W 9898  12.684   7.788  12.156
38173W        W 9899  41.115  28.935  13.515
38174W        W 9900  30.998  22.780  10.449
38175W        W 9901  16.255   6.012   2.560
38176W        W 9902  41.369  27.477   0.651
38177W        W 9903  41.518  25.720  13.470
38178W        W 9904   6.410  33.350   4.226
38179W        W 9905  40.035  11.219   4.503
38180W        W 9906  10.614   1.306  13.332
38181W        W 9907   5.910   8.363  12.949
38182W        W 9908  30.888  27.039   1.191
38183W        W 9909   9.662  40.337   3.323
38184W        W 9910  44.532  28.549   1.225
38185W        W 9911  41.791  44.987  11.466
38186W        W 9912  23.903  29.453   4.843
38187W        W 9913  15.651  14.755  13.458
38188W        W 9914   5.073  25.030  10.562
38189W        W 9915  17.775  27.261   2.196
38190W        W 9916  42.105  26.605  11.511
38191W        W 9917  41.918  41.550  13.789
38192W        W 9918  26.979  33.912   3.555
38193W        W 9919  24.138  38.953   1.970
38194W        W 9920   4.318  30.413   2.402
38195W        W 9921   3.787  26.476   5.026
38196W        W 9922  10.953  30.947   4.373
38197W        W 9923   6.726  37.111   0.500
38198W        W 9924   4.397  39.008   2.645
38199W        W 9925   3.817  38.443  10.634
38200W        W 9926  35.761   6.755   2.272
38201W        W 9927   1.470  26.143   2.849
38202W        W 9928  20.560  18.798  10.974
38203W        W 9929  42.905  12.040   3.152
38204W        W 9930   1.211   6.823   0.435
38205W        W 9931  11.273  28.491   2.796
38206W        W 9932  16.266  28.198  12.446
38207W        W 9933  37.964  21.070  11.576
38208W        W 9934  20.541   2.652  14.765
38209W        W 9935  30.072  40.376   0.475
38210W        W 9936  41.785   2.846   0.964
38211W        W 9937  12.125  30.098   3.644
38212W        W 9938   4.416  35.887  11.908
38213W        W 9939  43.723  25.468   0.981
38214W        W 9940  38.138  28.142   2.696
38215W        W 9941  12.364  42.961   2.264
38216W        W 9942  12.535  33.605  12.235
38217W        W 9943  33.652  41.871   5.472
38218W        W 9944  10.808   5.864   1.972
38219W        W 9945   1.325   2.361   0.916
38220W        W 9946  26.646  33.942  13.385
38221W        W 9947  22.096   8.488  11.599
38222W        W 9948  17.933  30.523   2.281
38223W        W 9949  15.389  22.278   2.003
38224W        W 9950  23.477   6.855   3.739
38225W        W 9951  17.120  27.020  13.332
38226W        W 9952  27.442  17.483  15.000
38227W        W 9953  12.352  17.343  11.182
38228W        W 9954  21.230  41.424   0.211
38229W        W 9955  26.903  37.039  11.970
38230W        W 9956  29.432   7.253   3.647
38231W        W 9957  37.460  43.727   3.222
38232W        W 9958  22.447  31.640  12.122
38233W        W 9959  42.473   7.291   4.143
38234W        W 9960  14.480  39.545   2.841
38235W        W 9961  33.420  13.381   4.567
38236W        W 9962  37.585   2.882  14.326
38237W        W 9963  19.822  19.958  14.839
38238W        W 9964  14.032   2.345   1.221
38239W        W 9965  44.728  23.273   1.455
38240W        W 9966  11.433  29.081  10.253
38241W        W 9967  34.427   1.368   4.641
38242W        W 9968  21.227   6.287  10.637
38243W        W 9969   5.529   7.090   2.385
38244W        W 9970   4.691  23.080  11.654
38245W        W 9971   4.216  41.068   4.146
38246W        W 9972   3.736  26.594  11.607
38247W        W 9973  37.017  16.866   0.831
38248W        W 9974  25.145   8.338  14.246
38249W        W 9975   1.840  36.474  13.810
38250W        W 9976  33.377  32.089  14.184
38251W        W 9977  11.890  42.898   3.238
38252W        W 9978   3.205   7.701  11.182
38253W        W 9979  15.580  15.057   0.263
38254W        W 9980  13.083  21.314  11.072
38255W        W 9981  14.279   5.887  12.115
38256W        W 9982  20.287  25.203   4.600
38257W        W 9983  24.088   4.056   2.213
38258W        W 9984  28.976  39.689   2.186
38259W        W 9985  18.754  10.753  11.993
38260W        W 9986  36.305   4.632   1.249
38261W        W 9987  26.422  26.166   4.476
38262W        W 9988  17.764  20.677   4.158
38263W        W 9989   3.818  12.238  14.471
38264W        W 9990  10.819  29.393   2.626
38265W        W 9991   9.292  17.762  11.388
38266W        W 9992   7.818  18.837   0.454
38267W        W 9993  43.138  22.212   2.441
38268W        W 9994  19.771  25.063   3.854
38269W        W 9995  38.940  25.484   0.332
38270W        W 9996   5.221  40.238   1.692
38271W        W 9997  30.564  43.442  10.277
38272W        W 9998  12.352  44.062  12.663
38273W        W 9999  10.427  27.028   0.751
38274W        W10000  31.200  41.504  13.487
38275W        W10001  16.595  12.125   4.212
38276W        W10002  35.959  39.091  11.553
38277W        W10003  19.828  22.215   2.018
38278W        W10004  24.493  44.287  13.035
38279W        W10005  28.350  32.162   4.695
38280W        W10006  36.999  13.763  14.660
38281W        W10007  14.566  30.626  11.872
38282W        W10008  38.571  43.714   1.993
38283W        W10009   8.273  34.633  10.344
38284W        W10010  35.417  41.045  11.080
38285W        W10011  17.177  13.807  12.439
38286W        W10012   7.626  30.014  11.973
38287W        W10013   7.817   2.804  11.917
38288W        W10014  19.965  21.945  11.999
38289W        W10015   5.434  29.866   2.347
38290W        W10016  44.466  44.098  10.018
38291W        W10017  28.522   8.519   2.066
38292W        W10018  35.401   6.359   4.610
38293W        W10019  44.270  13.169  11.047
38294W        W10020  18.206   7.367  10.496
38295W        W10021   6.687   9.802   4.864
38296W        W10022  11.274  18.177   1.880
38297W        W10023  22.335  35.470   2.032
38298W        W10024  14.777   9.379  13.316
38299W        W10025  39.834  15.305   0.436
38300W        W10026  13.032  25.147  10.768
38301W        W10027   1.462  18.260   1.502
38302W        W10028  34.215  28.973  14.523
38303W        W10029  10.641  12.673   4.118
38304W        W10030  30.975   4.208   0.451
38305W        W10031   1.695   0.229   0.885
38306W        W10032  10.899  23.442  11.041
38307W        W10033   7.911  40.835   0.343
38308W        W10034  10.500  21.634   0.453
38309W        W10035   7.629  27.045  13.579
38310W        W10036  37.398  21.812   2.829
38311W        W10037  23.175   0.891  13.803
38312W        W10038   7.772   8.932   2.780
38313W        W10039  36.583  33.742  14.769
38314W        W10040  26.153  19.584  14.834
38315W        W10041  21.006  18.036   3.807
38316W        W10042  34.907  37.774  12.321
38317W        W10043  26.577   8.875   0.747
38318W        W10044   2.791  23.321   3.217
38319W        W10045   8.014   2.436   2.754
38320W        W10046  14.700   2.736  11.128
38321W        W10047  19.665   2.206  14.770
38322W        W10048  41.870  35.060   1.297
38323W        W10049  12.636   7.809   0.011
38324W        W10050  27.126  27.029  12.454
38325W        W10051  19.855  34.465   2.639
38326W        W10052  13.547  18.118   2.202
38327W        W10053  31.978  29.670  12.104
38328W        W10054  28.913  32.012   2.145
38329W        W10055  36.553  36.115  14.828
38330W        W10056  37.143   0.810   4.663
38331W        W10057   6.146  27.434  13.538
38332W        W10058  19.696  31.508   3.643
38333W        W10059  38.123  35.463   3.381
38334W        W10060  15.124  21.121   1.487
38335W        W10061  31.870  12.247   0.427
38336W        W10062   6.329   0.787  11.130
38337W        W10063  38.403  29.423  11.694
38338W        W10064  44.507  44.045   1.841
38339W        W10065  29.994  11.959   2.265
38340W        W10066   0.258  33.043   4.493
38341W        W10067  44.348  16.093   1.897
38342W        W10068  32.002  35.598  11.971
38343W        W10069  35.108  44.288   2.856
38344W        W10070  34.691   3.761   1.805
38345W        W10071  12.615  18.188  14.040
38346W        W10072   4.402  40.525   3.445
38347W        W10073   9.644   2.909   5.011
38348W        W10074  22.992   2.701  12.540
38349W        W10075  10.717  43.284   0.808
38350W        W10076  22.425  35.469   2.755
38351W        W10077   6.696   6.530   4.230
38352W        W10078  42.569  44.523   4.580
38353W        W10079  15.191  30.158  13.054
38354W        W10080  12.676  29.229   0.391
38355W        W10081  14.854  22.553   4.605
38356W        W10082  19.591  38.468   1.024
38357W        W10083  19.839  39.486  10.785
38358W        W10084  43.405  34.717   4.477
38359W        W10085   4.423  28.322   3.232
38360W        W10086   0.888   1.649  10.762
38361W        W10087  20.546  23.048  10.962
38362W        W10088  33.198   6.902   1.477
38363W        W10089  27.849   4.260   3.752
38364W        W10090  33.540   9.862  13.090
38365W        W10091   5.848  44.146   3.410
38366W        W10092  30.330  11.051  10.541
38367W        W10093  41.447  12.752   4.496
38368W        W10094   1.965  25.154  13.600
38369W        W10095  29.414   5.450   0.380
38370W        W10096  28.061  35.179  10.087
38371W        W10097   9.304  16.280  13.002
38372W        W10098  13.418  13.883  12.197
38373W        W10099  26.644   7.664   3.364
38374W        W10100  25.230  35.820   1.278
38375W        W10101  40.413  39.606  14.690
38376W        W10102  22.570  33.067   0.369
38377W        W10103  39.250  32.977  13.295
38378W        W10104   2.129  16.203   0.551
38379W        W10105  31.727  19.325   3.336
38380W        W10106  10.700  42.348   1.949
38381W        W10107   8.420   1.961  13.093
38382W        W10108  21.775  10.382  13.559
38383W        W10109  43.946  22.901   0.478
38384W        W10110  27.420  25.871   3.714
38385W        W10111   5.916  39.850  14.387
38386W        W10112  11.266   2.460  11.176
38387W        W10113  26.449  41.246   4.679
38388W        W10114  40.858  18.973   1.587
38389W        W10115  40.419  15.628   5.018
38390W        W10116  17.353   1.886   3.171
38391W        W10117  25.745  29.869  11.045
38392W        W10118  40.583  27.054  11.192
38393W        W10119  28.246   9.846  12.419
38394W        W10120  37.894   3.210  11.960
38395W        W10121  30.558   7.700  14.305
38396W        W10122  26.248  44.022   3.582
38397W        W10123   0.392   1.555   4.630
38398W        W10124  12.705  43.368   4.787
38399W        W10125  28.424   4.795  11.839
38400W        W10126  39.372  29.636  12.081
38401W        W10127  36.552  19.566  10.208
38402W        W10128  31.513  17.736  14.476
38403W        W10129  34.778  26.430  14.781
38404W        W10130  29.473  20.476   2.763
38405W        W10131  43.556  29.213  11.208
38406W        W10132  13.710  33.046  10.752
38407W        W10133  14.254  23.686   3.425
38408W        W10134  11.631   0.306  14.504
38409W        W10135  16.207  36.554   3.397
38410W        W10136  37.049  14.545   1.272
38411W        W10137   8.836  29.706  12.005
38412W        W10138  29.615  31.191   3.604
38413W        W10139  38.412  27.496   4.334
38414W        W10140  27.025  33.347   2.202
38415W        W10141  10.210   0.798   1.625
38416W        W10142   6.761  44.780   1.479
38417W        W10143   3.995  44.848   0.520
38418W        W10144  10.037   5.753   1.292
38419W        W10145   5.442   2.911   3.205
38420W        W10146  20.227   2.451  11.970
38421W        W10147  11.593  29.898   1.285
38422W        W10148  44.447  38.553  12.594
38423W        W10149  39.787  38.828  14.987
38424W        W10150  40.390  16.299   3.811
38425W        W10151  26.089  25.673   4.084
38426W        W10152  42.873  17.120   1.298
38427W        W10153  13.748  25.522  11.249
38428W        W10154  10.111  41.622   0.060
38429W        W10155  32.763   7.345  13.827
38430W        W10156  25.676  36.514  11.608
38431W        W10157  31.086  34.480   0.659
38432W        W10158  43.916   2.496   4.903
38433W        W10159  27.207  16.636  13.619
38434W        W10160  37.290  12.287   2.779
38435W        W10161   6.893  28.688  14.905
38436W        W10162  42.060  29.956  13.024
38437W        W10163  22.567  37.960   4.527
38438W        W10164  27.644  14.774  14.876
38439W        W10165  13.385  33.371  12.845
38440W        W10166   6.157  10.230  11.636
38441W        W10167  10.381   6.638   1.343
38442W        W10168   2.997  19.602  13.827
38443W        W10169  44.721  24.028  13.906
38444W        W10170   7.973  23.992   5.412
38445W        W10171  38.470  20.252  14.681
38446W        W10172   3.806  13.396  13.322
38447W        W10173  30.586  17.604   3.726
38448W        W10174  11.136  16.283   0.903
38449W        W10175  21.766   4.926  14.493
38450W        W10176  19.509  28.524   2.309
38451W        W10177  10.853  44.103   0.267
38452W        W10178  28.537  29.520   4.239
38453W        W10179  36.595  21.497  13.337
38454W        W10180  16.642  44.203  10.704
38455W        W10181  11.132  28.221   3.593
38456W        W10182  37.831   5.801   2.398
38457W        W10183  13.875  33.042  11.243
38458W        W10184  17.750  27.261  14.510
38459W        W10185  31.585   8.253   2.827
38460W        W10186  35.397  32.126   1.268
38461W        W10187  17.514  35.451  10.947
38462W        W10188  23.313   3.560   4.451
38463W        W10189  39.015   8.428  13.378
38464W        W10190  21.814  24.022   1.278
38465W        W10191  22.932  31.495  12.204
38466W        W10192  29.431   3.484   0.743
38467W        W10193  10.144   7.471  13.817
38468W        W10194  19.504  27.419  14.767
38469W        W10195  16.251  30.497   0.262
38470W        W10196  27.237  21.133  13.787
38471W        W10197  41.929  30.389   2.124
38472W        W10198   8.764  28.471   1.690
38473W        W10199  41.596  35.133   1.737
38474W        W10200  30.087  43.077   2.824
38475W        W10201  23.823  31.007  13.554
38476W        W10202  31.701  44.837  12.416
38477W        W10203  33.623  40.976   1.486
38478W        W10204  12.086  19.599  13.749
38479W        W10205   9.885  41.932   2.355
38480W        W10206  40.890   6.881   4.172
38481W        W10207  33.896  33.809  11.032
38482W        W10208   8.901  38.531   0.182
38483W        W10209  15.048  43.037   1.105
38484W        W10210  39.569  28.289   4.609
38485W        W10211   0.048   3.298  12.215
38486W        W10212  44.190  16.577   2.853
38487W        W10213  25.588  28.666  14.137
38488W        W10214  10.815   8.295   4.941
38489W        W10215   3.994  23.228   0.356
38490W        W10216  16.133  19.327  14.024
38491W        W10217  43.979  18.086   3.532
38492W        W10218  11.597  27.604   1.362
38493W        W10219  12.472   4.972  12.455
38494W        W10220  15.819  42.526   4.061
38495W        W10221  37.878  32.030  14.543
38496W        W10222  12.118  42.007  12.350
38497W        W10223   0.018  25.667   1.530
38498W        W10224   5.273  11.661  14.453
38499W        W10225  33.186  31.525   4.104
38500W        W10226  26.876  12.649   1.957
38501W        W10227  27.403   1.455   2.784
38502W        W10228  16.415  10.318   0.036
38503W        W10229  43.655  40.403  12.410
38504W        W10230   9.922   0.492   3.734
38505W        W10231  13.352   7.434  11.078
38506W        W10232  25.888  39.876  14.896
38507W        W10233  29.048   7.857  14.481
38508W        W10234  35.524  30.571  11.460
38509W        W10235  11.794  33.980  13.712
38510W        W10236  26.806  14.574   1.943
38511W        W10237  28.151  18.130  14.493
38512W        W10238  30.524   2.362  13.389
38513W        W10239  19.068  34.857  13.893
38514W        W10240  41.341  23.018   3.779
38515W        W10241  31.903  12.123   4.533
38516W        W10242  31.146   5.697  12.634
38517W        W10243  44.898  32.350  11.522
38518W        W10244   0.543   9.676   2.185
38519W        W10245  16.534  41.544   1.507
38520W        W10246  20.695   0.459  11.837
38521W        W10247   0.736  36.742   4.275
38522W        W10248   7.773  27.405   1.406
38523W        W10249  43.253  36.190  14.021
38524W        W10250  32.166  22.743   2.151
38525W        W10251  42.322   1.757  13.150
38526W        W10252  40.754  30.642   2.289
38527W        W10253  44.370   6.367  14.617
38528W        W10254   0.171  21.892   1.447
38529W        W10255  36.872  42.492   3.737
38530W        W10256  30.868  32.598   4.178
38531W        W10257  29.686  12.398   0.285
38532W        W10258  30.895  36.979   4.905
38533W        W10259  40.083   8.893  12.930
38534W        W10260  35.501  41.806   0.819
38535W        W10261  30.591  14.262  14.437
38536W        W10262  21.050   0.546  11.090
38537W        W10263  26.911  33.404  13.814
38538W        W10264  20.431   5.415  12.042
38539W        W10265  10.431  23.229  14.371
38540W        W10266  11.620  37.373  12.626
38541W        W10267  31.393   9.075   1.793
38542W        W10268  40.331  32.897   0.307
38543W        W10269  19.720  10.861   1.861
38544W        W10270  27.165  30.986   0.775
38545W        W10271   1.660  20.043  14.816
38546W        W10272  16.861  16.567   1.718
38547W        W10273  15.889  12.548  12.420
38548W        W10274  11.130  25.447  10.456
38549W        W10275  27.096   1.296  12.390
38550W        W10276  14.221  15.125   2.522
38551W        W10277  11.160  23.252  11.670
38552W        W10278  26.173  26.165   4.018
38553W        W10279  20.199   6.730   3.924
38554W        W10280  29.201  10.772  10.797
38555W        W10281   9.156  38.763  11.533
38556W        W10282  20.502   8.721  13.908
38557W        W10283  33.095  22.297   4.153
38558W        W10284   3.290  34.943   3.616
38559W        W10285  13.547   8.835  12.955
38560W        W10286  33.152   8.688  11.163
38561W        W10287  41.014  36.004  13.538
38562W        W10288  38.514  33.797  14.088
38563W        W10289  42.832  26.572  12.559
38564W        W10290  17.259  20.755  13.079
38565W        W10291  34.950  30.012  13.115
38566W        W10292   4.921  14.681  12.351
38567W        W10293   3.336   2.822   1.600
38568W        W10294  41.030  39.233  11.074
38569W        W10295  19.677  24.257   2.639
38570W        W10296  20.568  13.637   3.556
38571W        W10297  29.948  19.008  11.611
38572W        W10298  41.622  40.304   2.906
38573W        W10299  43.968  23.192  13.926
38574W        W10300  21.774  27.508   1.067
38575W        W10301   3.829   4.411   4.144
38576W        W10302   4.651  31.216   1.824
38577W        W10303  37.911   6.686   1.380
38578W        W10304   2.394  29.817   2.196
38579W        W10305  16.646  24.654   3.772
38580W        W10306  36.401   1.986   3.265
38581W        W10307  34.058  43.289  10.644
38582W        W10308  25.658  13.499  11.976
38583W        W10309  18.695  26.380  10.170
38584W        W10310  38.222   3.253  12.519
38585W        W10311  29.426   6.944  14.891
38586W        W10312  40.336  24.733   0.749
38587W        W10313   2.944  17.899   0.741
38588W        W10314  19.535  37.543   1.399
38589W        W10315  23.139   3.549  12.968
38590W        W10316  19.553  24.555   3.890
38591W        W10317  15.870  36.169   4.165
38592W        W10318  31.578  12.294   0.861
38593W        W10319   8.600  33.137   0.340
38594W        W10320   2.820  12.883  11.150
38595W        W10321  21.072  19.040  14.027
38596W        W10322  12.321   6.748  11.937
38597W        W10323  26.564  36.331  12.044
38598W        W10324  36.519  40.778   3.210
38599W        W10325  18.604  33.705  14.376
38600W        W10326  10.578  41.378   1.817
38601W        W10327   4.552   9.335   3.252
38602W        W10328  15.874   5.724   1.326
38603W        W10329  10.170  34.125  10.658
38604W        W10330  36.145  35.868   1.873
38605W        W10331  14.789  26.937   1.675
38606W        W10332  27.682  23.816  11.660
38607W        W10333  32.959  36.042   3.663
38608W        W10334  24.867  37.991   0.852
38609W        W10335   5.347  33.915   1.853
38610W        W10336  24.041   4.270   4.190
38611W        W10337   2.355   7.678  10.691
38612W        W10338  43.342   2.022   0.452
38613W        W10339   7.414  21.618  14.500
38614W        W10340  31.402  30.690   4.220
38615W        W10341  31.501   8.455   4.173
38616W        W10342  17.058  35.665  11.082
38617W        W10343  30.307  39.766   2.225
38618W        W10344  44.252  30.131   4.164
38619W        W10345  13.600  22.306   1.715
38620W        W10346  19.213  34.501  14.275
38621W        W10347   5.234  41.797   3.461
38622W        W10348   9.391   4.218  12.021
38623W        W10349  40.044  35.926   0.868
38624W        W10350   1.107  10.830  14.227
38625W        W10351  23.172   7.193   0.875
38626W        W10352  10.799  28.239   0.392
38627W        W10353   2.863   6.278   1.930
38628W        W10354  18.024  13.907  14.565
38629W        W10355  16.516  36.944   0.820
38630W        W10356  30.006  38.104   2.999
38631W        W10357  32.135  32.956   2.663
38632W        W10358  39.235  20.173   0.896
38633W        W10359  17.828  19.534  14.477
38634W        W10360  38.000  28.138  12.904
38635W        W10361   8.104  42.432  14.498
38636W        W10362  18.208  18.357   0.002
38637W        W10363  37.582  35.558  13.925
38638W        W10364   7.212  12.373   2.054
38639W        W10365   7.747  40.060  14.327
38640W        W10366  30.459   5.410  12.942
38641W        W10367  32.383  41.974  11.468
38642W        W10368  15.622  18.640  14.370
38643W        W10369   3.205  10.438   2.874
38644W        W10370   6.318  16.850  12.439
38645W        W10371   9.731   3.994   3.047
38646W        W10372  37.326   1.997   2.737
38647W        W10373   9.723  37.248  13.310
38648W        W10374  26.268  15.091   3.930
38649W        W10375  16.601   6.882   2.311
38650W        W10376  39.250   1.352  11.051
38651W        W10377  18.439  41.920   2.398
38652W        W10378  32.000  43.913   1.654
38653W        W10379   4.293   6.956   5.025
38654W        W10380  29.022  31.364   4.617
38655W        W10381  38.777   8.820   3.156
38656W        W10382   1.797  41.308   0.384
38657W        W10383  11.846   9.307   0.688
38658W        W10384  32.110  29.338  14.403
38659W        W10385  17.742  23.549  10.697
38660W        W10386  34.187  19.238  11.835
38661W        W10387  11.907  13.718  11.161
38662W        W10388  35.398  35.710   1.164
38663W        W10389  20.273  10.784   3.622
38664W        W10390  33.816  31.924   1.739
38665W        W10391  15.659   3.779   2.676
38666W        W10392   9.323   6.234  11.564
38667W        W10393  42.856  43.486  13.074
38668W        W10394  16.423  31.039   1.488
38669W        W10395  33.508  16.084  11.142
38670W        W10396  43.014  33.475  10.645
38671W        W10397   3.811  16.999  13.999
38672W        W10398  44.257  25.633  13.515
38673W        W10399  36.518  21.309   1.407
38674W        W10400   7.802  26.637  14.878
38675W        W10401   8.458  34.364  14.925
38676W        W10402  16.945   6.002  14.380
38677W        W10403  38.451   6.198  11.525
38678W        W10404  41.401   0.478   1.619
38679W        W10405  42.861  35.936  13.794
38680W        W10406  38.469  17.659   0.073
38681W        W10407  44.385  39.954  12.419
38682W        W10408  33.094  28.462   0.204
38683W        W10409  27.681  31.889  12.983
38684W        W10410  38.501   6.113  11.040
38685W        W10411  14.215  31.609   1.461
38686W        W10412  15.104  10.760   3.266
38687W        W10413  22.446  44.869   3.798
38688W        W10414  11.609  28.947  10.723
38689W        W10415  10.241   4.453   0.907
38690W        W10416   5.123  20.130   4.289
38691W        W10417  20.120   7.731   4.910
38692W        W10418  32.987  44.830   4.098
38693W        W10419  34.371  21.467   2.488
38694W        W10420  36.955  33.081  11.651
38695W        W10421  44.357   6.470   0.148
38696W        W10422  21.519  33.376   0.950
38697W        W10423  14.594  25.499   1.432
38698W        W10424  26.174   0.297  14.522
38699W        W10425   4.438  44.505   2.903
38700W        W10426  31.982  15.202  14.040
38701W        W10427  31.131  27.355  12.346
38702W        W10428  39.868  10.611  12.053
38703W        W10429  27.170   6.313   1.691
38704W        W10430  13.769  41.435  13.900
38705W        W10431  34.439  28.474  14.457
38706W        W10432  27.304  42.702  14.829
38707W        W10433  35.562  24.894   4.160
38708W        W10434   5.323   0.406   2.152
38709W        W10435   9.155  34.953  10.666
38710W        W10436   9.166  11.379  14.804
38711W        W10437  10.645   3.374   1.224
38712W        W10438  40.622  38.550  14.474
38713W        W10439   4.849  42.398   3.745
38714W        W10440  17.567  25.026   2.832
38715W        W10441  41.284  35.856   1.407
38716W        W10442  34.417  32.953   4.878
38717W        W10443  23.647  44.358   4.281
38718W        W10444  25.132  18.273  14.514
38719W        W10445  17.121  17.683   0.020
38720W        W10446   9.627  20.093  12.905
38721W        W10447  41.978  40.047  14.769
38722W        W10448  42.334  11.819   0.015
38723W        W10449  39.484   3.155  14.195
38724W        W10450  43.490  39.356   2.621
38725W        W10451  36.560  11.886   0.922
38726W        W10452  36.191  24.648  13.131
38727W        W10453  23.737   3.282  14.193
38728W        W10454  30.808   7.709   4.554
38729W        W10455  21.236  20.055  13.781
38730W        W10456  28.721  44.028  14.913
38731W        W10457  23.386   6.940  12.477
38732W        W10458  10.753  34.092   5.509
38733W        W10459   0.235  30.866   2.597
38734W        W10460  20.135  31.854   4.080
38735W        W10461   3.325  32.865   4.056
38736W        W10462  31.135  34.853   2.893
38737W        W10463  36.411  32.484   2.977
38738W        W10464  21.723  21.663  12.825
38739W        W10465  30.474   4.332  13.419
38740W        W10466   5.354   1.785  11.753
38741W        W10467  10.418  35.043   0.994
38742W        W10468  38.157  43.743  12.985
38743W        W10469   3.054  42.417  11.753
38744W        W10470  27.006  42.793   4.109
38745W        W10471  35.849   2.442  13.959
38746W        W10472  26.084  18.049  11.616
38747W        W10473  24.210  12.176  14.424
38748W        W10474   9.217  11.123  13.917
38749W        W10475  18.924   0.854  13.999
38750W        W10476   9.466  13.343  12.550
38751W        W10477  13.840   8.349  13.946
38752W        W10478  24.476  24.644   2.624
38753W        W10479  36.271  14.640   4.464
38754W        W10480  32.388  37.300   3.344
38755W        W10481  16.506  31.956   3.781
38756W        W10482  35.653  12.227   3.362
38757W        W10483  16.538  39.052  11.152
38758W        W10484  12.092   5.606   3.060
38759W        W10485  27.271   9.750   3.735
38760W        W10486  12.656  12.315   1.911
38761W        W10487  29.545  22.509   4.563
38762W        W10488   5.380  13.255  10.618
38763W        W10489  38.111  10.833   4.855
38764W        W10490  34.544  22.142   3.291
38765W        W10491  16.556  43.362   3.283
38766W        W10492  13.334  26.768   0.876
38767W        W10493   4.240  33.516  13.805
38768W        W10494   0.424  36.384   3.384
38769W        W10495  44.966  25.288   1.898
38770W        W10496  30.630   8.381   1.498
38771W        W10497  40.278  32.101  13.473
38772W        W10498  19.105  42.486   1.454
38773W        W10499   7.840  23.026  12.575
38774W        W10500  22.496  19.457  13.989
38775W        W10501  22.317   4.853  13.454
38776W        W10502  40.620  12.786   5.073
38777W        W10503  44.353   9.927   0.345
38778W        W10504   4.977  24.777   4.125
38779W        W10505  13.339   3.292   3.830
38780W        W10506  11.284  43.056   0.749
38781W        W10507   1.551  22.128  12.056
38782W        W10508  10.722   8.133  14.847
38783W        W10509  44.031  23.098   4.265
38784W        W10510  33.923  42.373  10.658
38785W        W10511  29.098  17.583   2.151
38786W        W10512   9.976  25.021  12.364
38787W        W10513  29.065  25.651  12.134
38788W        W10514  19.073  41.490  11.165
38789W        W10515  11.717  25.963   2.906
38790W        W10516   8.736   9.796   0.978
38791W        W10517  41.341   6.727   1.836
38792W        W10518  34.980   2.305   0.183
38793W        W10519  33.668  10.790  13.357
38794W        W10520  39.130  13.268   2.238
38795W        W10521  11.628   7.859  13.890
38796W        W10522  13.606  13.626   3.254
38797W        W10523  39.616  29.697  13.835
38798W        W10524  14.379  44.042   0.367
38799W        W10525   9.149  10.015  12.798
38800W        W10526  12.469  40.479  13.200
38801W        W10527  13.569   1.311   0.428
38802W        W10528  42.303  29.266  14.033
38803W        W10529  43.988  12.448   2.256
38804W        W10530   6.738   6.766   2.863
38805W        W10531  14.644  38.931   5.050
38806W        W10532  30.943   0.797  11.839
38807W        W10533  37.083   0.999  10.690
38808W        W10534  24.112  44.500  14.492
38809W        W10535   6.181   5.500  12.893
38810W        W10536  34.405  11.294   1.543
38811W        W10537  14.594  30.399   5.048
38812W        W10538   1.885  30.880   4.745
38813W        W10539  14.116  12.738  11.033
38814W        W10540   7.284  38.097   3.760
38815W        W10541  29.472  40.076  11.953
38816W        W10542  20.329   6.342  13.776
38817W        W10543  29.080  43.930  11.751
38818W        W10544  16.650  23.338  14.067
38819W        W10545  36.999  14.740   2.954
38820W        W10546  23.583   7.618  13.374
38821W        W10547   0.451  34.975   3.879
38822W        W10548  12.161  12.778   0.389
38823W        W10549  12.741  41.875   0.593
38824W        W10550  41.777   8.818  13.986
38825W        W10551  29.644  36.327   0.368
38826W        W10552  34.272  16.092  11.487
38827W        W10553  23.938  22.799  10.141
38828W        W10554  24.219  33.423   0.051
38829W        W10555  43.295   9.814  11.426
38830W        W10556  41.088  39.990   2.235
38831W        W10557  22.537  41.674  12.708
38832W        W10558  32.869   1.697   3.236
38833W        W10559  25.537   1.388   1.347
38834W        W10560  19.361  28.185   1.932
38835W        W10561  19.192   4.482   4.097
38836W        W10562  32.947  40.440  13.917
38837W        W10563  43.214  13.366  13.583
38838W        W10564  15.553  30.563   0.859
38839W        W10565  41.037  31.394   4.469
38840W        W10566  14.178  38.444  13.734
38841W        W10567  26.132  40.631   3.009
38842W        W10568  39.456  10.681   4.336
38843W        W10569  12.737  22.152  12.469
38844W        W10570   4.852  18.864   3.282
38845W        W10571  25.762   2.940  10.869
38846W        W10572  43.977  18.679   1.769
38847W        W10573  12.109   1.751   4.423
38848W        W10574  38.102   6.248   2.257
38849W        W10575  20.770   3.723  12.475
38850W        W10576   1.228  18.272  10.523
38851W        W10577  21.430   9.198  11.294
38852W        W10578   3.360  35.998   0.900
38853W        W10579  17.266  22.627  14.386
38854W        W10580  22.998  13.293  13.417
38855W        W10581  39.365  42.772   3.025
38856W        W10582  14.208   3.220  10.994
38857W        W10583   4.666  44.799  12.577
38858W        W10584  32.132   6.338   0.371
38859W        W10585  31.725   6.796   1.667
38860W        W10586  15.844  25.979  10.673
38861W        W10587  25.026  42.457  13.879
38862W        W10588  28.423  43.734  10.591
38863W        W10589  40.333  29.937   1.699
38864W        W10590  20.101  41.259   2.231
38865W        W10591  21.457  17.161   3.564
38866W        W10592  20.735  34.416   2.302
38867W        W10593  15.821   2.516  14.467
38868W        W10594  40.571  31.590   1.789
38869W        W10595  43.878  15.217  14.435
38870W        W10596   1.080  35.973   4.565
38871W        W10597  39.937  44.690  14.508
38872W        W10598  38.649  22.654  14.892
38873W        W10599   1.180  12.139  13.288
38874W        W10600   4.696  16.580  12.034
38875W        W10601  11.411   1.725   3.324
38876W        W10602  32.928  21.977   2.625
38877W        W10603  26.342  17.253  10.513
38878W        W10604   7.267  31.400  13.606
38879W        W10605  35.132   1.190  14.287
38880W        W10606  34.864  32.425  12.955
38881W        W10607  23.101  15.629   2.282
38882W        W10608  28.099  17.031  10.717
38883W        W10609   7.160  43.383   1.821
38884W        W10610  12.071   5.890   3.636
38885W        W10611  21.477   0.475  10.815
38886W        W10612   2.383  39.211   0.043
38887W        W10613  38.892   5.363   4.071
38888W        W10614  31.923  18.751   3.621
38889W        W10615   8.439   7.404   0.785
38890W        W10616  33.006  35.157   1.736
38891W        W10617  37.616  16.696  13.113
38892W        W10618  16.128  12.287  14.315
38893W        W10619  10.135  40.872   2.681
38894W        W10620  25.764   3.390  13.149
38895W        W10621  11.557  44.876   4.138
38896W        W10622  28.289  19.745  13.988
38897W        W10623  42.651  13.216  14.827
38898W        W10624  20.615  17.255  13.374
38899W        W10625  15.370  22.750  14.805
38900W        W10626  12.769   7.930  11.668
38901W        W10627  20.667   9.620   0.743
38902W        W10628  11.206  25.590  12.832
38903W        W10629  40.905  12.814  14.802
38904W        W10630  25.537   5.731   4.071
38905W        W10631  33.025  21.814  12.532
38906W        W10632  14.602   0.219  13.022
38907W        W10633  30.268  14.979   4.868
38908W        W10634   4.467  33.545   4.217
38909W        W10635  41.598  23.640   4.544
38910W        W10636  40.107  18.958   4.220
38911W        W10637  32.598  36.222   0.759
38912W        W10638   3.187  36.306  11.688
38913W        W10639  37.291  32.621  11.950
38914W        W10640  31.085   5.445   1.611
38915W        W10641  31.854  37.234  11.395
38916W        W10642  24.129  42.778  14.476
38917W        W10643  23.157  20.786  14.802
38918W        W10644  32.630  27.029   2.297
38919W        W10645  30.896  38.545   1.113
38920W        W10646   6.967  30.979   4.911
38921W        W10647   5.367  35.261  13.338
38922W        W10648   9.589   1.461  12.484
38923W        W10649   1.858   6.108  11.511
38924W        W10650  11.593  41.447  14.790
38925W        W10651  29.679   1.699   2.205
38926W        W10652  24.663  28.322  12.517
38927W        W10653  31.926  20.339   1.211
38928W        W10654  29.153  41.555  12.450
38929W        W10655  29.112   7.259  13.605
38930W        W10656  35.357  13.195   0.878
38931W        W10657  14.521  24.070  14.493
38932W        W10658  27.134  43.180  14.871
38933W        W10659  27.815  43.313   3.206
38934W        W10660  29.406  20.274  11.313
38935W        W10661  14.800  30.990  12.164
38936W        W10662   6.789  41.584  12.148
38937W        W10663   7.194  27.954   4.006
38938W        W10664   9.672  36.365   4.548
38939W        W10665  26.224  12.169  13.282
38940W        W10666  27.452  32.841  11.028
38941W        W10667  34.898  10.451  12.521
38942W        W10668  24.524   1.244  11.237
38943W        W10669   8.916  41.809   1.288
38944W        W10670   7.198  23.590  12.037
38945W        W10671  44.094  24.989   2.417
38946W        W10672   6.904  36.282   3.919
38947W        W10673  15.710  20.542   3.771
38948W        W10674  27.467  27.594  12.957
38949W        W10675   1.062  15.787   4.289
38950W        W10676   1.304  28.395   1.821
38951W        W10677   1.743  14.783  10.978
38952W        W10678   4.653  18.807  14.476
38953W        W10679  36.583  10.956  13.855
38954W        W10680  22.537  28.113  11.170
38955W        W10681   8.624  40.830   1.333
38956W        W10682   8.197  26.699  13.999
38957W        W10683  15.885  35.587  11.534
38958W        W10684   4.507  24.184  11.455
38959W        W10685  33.866  39.054   4.567
38960W        W10686  34.606  10.673  13.769
38961W        W10687  33.357  21.067  14.270
38962W        W10688  20.101  23.329   4.039
38963W        W10689  13.586  27.302   5.063
38964W        W10690  15.513   4.235  12.572
38965W        W10691  24.112  15.577   3.393
38966W        W10692  16.066  26.539  14.900
38967W        W10693  40.541  33.588   4.150
38968W        W10694  43.824  20.947  13.368
38969W        W10695  17.614   3.860   1.017
38970W        W10696  44.832  10.914  13.223
38971W        W10697   1.691  24.497   2.785
38972W        W10698  36.286  17.474  11.382
38973W        W10699  43.593   0.393  12.900
38974W        W10700  31.996  41.630  14.129
38975W        W10701  27.623   3.418   4.907
38976W        W10702  44.771   9.212  14.012
38977W        W10703  40.843  26.023   3.570
38978W        W10704  16.102   6.644  14.841
38979W        W10705  15.721   9.969  14.355
38980W        W10706  16.019  22.713  12.446
38981W        W10707  23.845  14.816   5.535
38982W        W10708  26.607   8.889  11.431
38983W        W10709   0.277  30.628  10.984
38984W        W10710  18.153  22.517   3.949
38985W        W10711  30.043   0.328   4.364
38986W        W10712  35.549  31.772  14.847
38987W        W10713  26.540  29.384   2.798
38988W        W10714  42.297   6.765   3.294
38989W        W10715   2.745  37.181  10.537
38990W        W10716  10.708  25.932  14.807
38991W        W10717  33.863  25.966   2.783
38992W        W10718  15.333  16.754   4.442
38993W        W10719  16.600  41.292   4.882
38994W        W10720  42.204  12.867   4.183
38995W        W10721   5.397  24.626   1.655
38996W        W10722  32.067   7.921  14.875
38997W        W10723   6.157  22.681   4.203
38998W        W10724  25.347  30.217  11.592
38999W        W10725  12.295  36.809   4.166
39000W        W10726  44.493  29.907  13.455
39001W        W10727  36.348   5.428   1.473
39002W        W10728  14.744  11.246   3.740
39003W        W10729  40.036  32.806  14.444
39004W        W10730   9.289   4.305  14.905
39005W        W10731   3.483  30.489   1.346
39006W        W10732  23.989  37.652  13.484
39007W        W10733  23.105  12.810   0.584
39008W        W10734  21.295  43.569  13.305
39009W        W10735  34.399  33.609   1.689
39010W        W10736  24.983  19.084   2.932
39011W        W10737  34.560  35.502  10.714
39012W        W10738  23.586  35.429   3.314
39013W        W10739  17.549  17.606  13.549
39014W        W10740   8.229  30.631  11.171
39015W        W10741   8.990  33.784   9.835
39016W        W10742  40.965  17.026  13.890
39017W        W10743  15.529  26.565  12.891
39018W        W10744  41.062  35.916   0.939
39019W        W10745  19.276  12.236   3.826
39020W        W10746   7.880  13.150  13.717
39021W        W10747   3.306  25.744  10.713
39022W        W10748   8.304  16.584  11.586
39023W        W10749  16.100  17.600  12.752
39024W        W10750  30.434  20.466  13.093
39025W        W10751   0.878  11.647  12.054
39026W        W10752  37.041  26.268  11.153
39027W        W10753   5.745  27.201  11.040
39028W        W10754  21.253  33.597   3.576
39029W        W10755  34.424  34.221  13.355
39030W        W10756   7.668  11.904  14.972
39031W        W10757  24.251  17.750  13.147
39032W        W10758   0.349  35.845   2.106
39033W        W10759  44.345   3.167  11.142
39034W        W10760  13.362  18.108  10.722
39035W        W10761  11.747  39.448   2.360
39036W        W10762  28.780  11.198  12.018
39037W        W10763   1.820  16.383   4.194
39038W        W10764  35.940  16.067  11.084
39039W        W10765  42.123   6.342  13.833
39040W        W10766  43.270  43.265  14.658
39041W        W10767  36.462  37.775   2.389
39042W        W10768  15.073   4.970  11.015
39043W        W10769  25.612  22.680   0.019
39044W        W10770  17.547   7.836   3.117
39045W        W10771  30.780   1.676   3.257
39046W        W10772  40.655  25.204  13.890
39047W        W10773  24.734  39.840  13.415
39048W        W10774  20.838  35.340   3.129
39049W        W10775  25.987  30.624  11.984
39050W        W10776  13.634   3.304   2.107
39051W        W10777  40.024  36.554   1.377
39052W        W10778   5.605  19.655   3.580
39053W        W10779  17.260  12.009   1.721
39054W        W10780  14.775  24.567   1.445
39055W        W10781   7.809  22.761   0.257
39056W        W10782  14.062   0.969  11.593
39057W        W10783   9.843  22.782  11.505
39058W        W10784  15.611   0.975  14.426
39059W        W10785  11.859  16.485  14.773
39060W        W10786  24.670  23.671  14.824
39061W        W10787  40.575  19.804   1.831
39062W        W10788  36.034   9.282   3.792
39063W        W10789  41.963  22.049  14.750
39064W        W10790  33.444   8.846  11.579
39065W        W10791  19.577  22.278   0.482
39066W        W10792   4.375  27.559  10.880
39067W        W10793   2.522  21.608  11.524
39068W        W10794  15.819  16.317  13.486
39069W        W10795   2.017   4.723  14.242
39070W        W10796  40.349  29.749  12.018
39071W        W10797  20.606  39.305   3.792
39072W        W10798  30.153  13.180  14.370
39073W        W10799  20.482  39.374   4.331
39074W        W10800  10.856  25.781   1.351
39075W        W10801   5.947  43.044  12.890
39076W        W10802  11.146  31.354  14.999
39077W        W10803  27.422   8.301  13.545
39078W        W10804  33.002   6.177   4.626
39079W        W10805  27.625  31.566   2.828
39080W        W10806  44.245   1.886   1.368
39081W        W10807   7.619   8.385  11.630
39082W        W10808   2.186   1.934  12.450
39083W        W10809  28.700  34.678   2.622
39084W        W10810  25.619   8.783   1.737
39085W        W10811  41.554  36.145  13.483
39086W        W10812  38.719  24.525  13.514
39087W        W10813  14.653   9.313  10.969
39088W        W10814  10.190  42.484  13.851
39089W        W10815  11.866  22.068  11.607
39090W        W10816  34.053  19.528   2.411
39091W        W10817   9.217  24.565  11.470
39092W        W10818   9.184  11.258  11.728
39093W        W10819  24.126  17.206  11.660
39094W        W10820  44.467  20.503  14.284
39095W        W10821  42.535  27.158  12.073
39096W        W10822  13.413  14.469  10.888
39097W        W10823  40.458   3.873   4.662
39098W        W10824  27.595  20.728  13.053
39099W        W10825   0.873  13.807  12.991
39100W        W10826   8.350  14.741  13.466
39101W        W10827  16.116  43.303  12.400
39102W        W10828  25.531  23.798   0.540
39103W        W10829  42.449  39.871  14.846
39104W        W10830  18.077  41.872   4.793
39105W        W10831  44.022   3.277   2.431
39106W        W10832  21.626  39.121  12.319
39107W        W10833  25.030  37.368  10.697
39108W        W10834  10.252  16.606   1.660
39109W        W10835  11.073  16.257   2.356
39110W        W10836  11.403  10.180   0.424
39111W        W10837  43.538  12.631  12.082
39112W        W10838  26.378  11.277   2.753
39113W        W10839  20.785   0.795  13.650
39114W        W10840   2.113   7.984  12.692
39115W        W10841  21.065  36.480   0.893
39116W        W10842   5.323   6.762   0.722
39117W        W10843  15.754   8.019  14.316
39118W        W10844   7.390  36.371   1.585
39119W        W10845  25.192  35.318   3.618
39120W        W10846   8.111  12.340   4.556
39121W        W10847   4.015   7.038   3.701
39122W        W10848  12.355  32.419   2.734
39123W        W10849   5.244  40.726   0.872
39124W        W10850  35.453  34.835  14.885
39125W        W10851  33.156  38.487  12.603
39126W        W10852  38.427  42.149   4.193
39127W        W10853   9.593  30.506   2.370
39128W        W10854  18.672  39.830   3.176
39129W        W10855   1.632  42.547   1.903
39130W        W10856  22.659  13.839  10.742
39131W        W10857  24.776  30.689  10.533
39132W        W10858  31.142  37.857   4.424
39133W        W10859  43.571  24.214   2.944
39134W        W10860  37.355  35.538   2.704
39135W        W10861  33.399   1.388  12.804
39136W        W10862   4.568  30.599   1.330
39137W        W10863  12.158  22.008   0.993
39138W        W10864   3.703  32.424   1.272
39139W        W10865  25.842  44.036  11.196
39140W        W10866  43.482  22.996   3.171
39141W        W10867  17.743   0.028  14.007
39142W        W10868  14.343  36.509   3.795
39143W        W10869  10.119  18.726   1.444
39144W        W10870  23.117  23.936  14.553
39145W        W10871  11.182  26.785   4.090
39146W        W10872  41.083  28.046  11.136
39147W        W10873  13.822  13.811  13.802
39148W        W10874  12.762  27.971   2.405
39149W        W10875  44.542  21.103   1.417
39150W        W10876  14.740  18.056  10.558
39151W        W10877  38.458  27.951   1.712
39152W        W10878  21.717   6.685  12.317
39153W        W10879  30.717   0.612   4.628
39154W        W10880  29.351  18.046  10.361
39155W        W10881  11.982  43.043  10.704
39156W        W10882  43.158  43.358   4.534
39157W        W10883  36.519   4.072   0.209
39158W        W10884  24.184   7.453   1.263
39159W        W10885   0.336  10.548  11.583
39160W        W10886  24.511  44.150   3.166
39161W        W10887  23.061  27.417  11.574
39162W        W10888   2.924  20.295   0.918
39163W        W10889   1.233  32.383  14.008
39164W        W10890  19.520  15.907  14.178
39165W        W10891  12.930   2.857  12.959
39166W        W10892   1.962   7.907  13.202
39167W        W10893   1.405  23.521   0.832
39168W        W10894  19.287  20.226  11.052
39169W        W10895  17.375  12.796  12.434
39170W        W10896  20.080  12.658   4.174
39171W        W10897  24.693  19.138  10.985
39172W        W10898  34.004  29.155  10.649
39173W        W10899  19.815   6.836   3.588
39174W        W10900  40.270   0.076  12.193
39175W        W10901  39.983   8.701  11.719
39176W        W10902   5.131  25.750  14.521
39177W        W10903  20.724  39.838  14.041
39178W        W10904  43.876  39.281  14.778
39179W        W10905  38.579  42.282   3.727
39180W        W10906  37.429  17.736   3.168
39181W        W10907  31.526  43.985  10.266
39182W        W10908   7.424   8.174   1.277
39183W        W10909   7.382  18.717   1.164
39184W        W10910  12.285  34.429   2.867
39185W        W10911   6.708  23.154  10.698
39186W        W10912   5.135  29.214   4.113
39187W        W10913  24.218  41.572   2.861
39188W        W10914  16.754   4.947  13.541
39189W        W10915  27.917   8.244  13.497
39190W        W10916  37.928  39.780  14.067
39191W        W10917  10.251  39.961  12.389
39192W        W10918  17.296  13.224   0.963
39193W        W10919   5.995  31.502   1.789
39194W        W10920   5.410   7.186   9.944
39195W        W10921  14.276  23.293   1.026
39196W        W10922   0.644  39.104  10.082
39197W        W10923  11.416   3.190  12.914
39198W        W10924  37.141  44.296   4.070
39199W        W10925  40.076  23.510   2.706
39200W        W10926  39.422  40.563   2.039
39201W        W10927  26.460  24.002  13.838
39202W        W10928  32.094  10.385  14.843
39203W        W10929   6.794   5.738  12.154
39204W        W10930  11.699  29.925  10.912
39205W        W10931  42.226  41.919  12.465
39206W        W10932  37.825   2.726   4.741
39207W        W10933  20.528  41.167   0.525
39208W        W10934   7.773  24.622   1.848
39209W        W10935  15.271  18.706   2.174
39210W        W10936   9.268  22.169   9.816
39211W        W10937  21.569  34.305   1.167
39212W        W10938  15.775  15.110   4.397
39213W        W10939  16.190  12.984   1.739
39214W        W10940  12.755  20.636   2.686
39215W        W10941  15.599  14.579  12.974
39216W        W10942  21.213  12.428   3.770
39217W        W10943  20.740  14.359  12.299
39218W        W10944  28.626  22.808  12.117
39219W        W10945  23.287  43.018   4.663
39220W        W10946  20.854   7.865  13.452
39221W        W10947  28.470  14.219   0.381
39222W        W10948   4.676   7.741  13.462
39223W        W10949   6.792  25.025  13.612
39224W        W10950   0.782  14.175   0.269
39225W        W10951  43.693  35.857   3.312
39226W        W10952  16.173  19.555   1.839
39227W        W10953  15.666  37.604  11.130
39228W        W10954  26.895  12.177   2.751
39229W        W10955  16.248   0.705   1.863
39230W        W10956  36.336  36.805  13.428
39231W        W10957  20.850  22.369  14.241
39232W        W10958  14.966  16.422   4.602
39233W        W10959  20.289  15.708   4.613
39234W        W10960   3.864  40.407   3.574
39235W        W10961  31.997   3.499   4.133
39236W        W10962  31.493  27.707  12.275
39237W        W10963  41.737  44.990   2.825
39238W        W10964  19.382  13.679   4.437
39239W        W10965  34.389  18.630   4.425
39240W        W10966  35.948  24.195  11.808
39241W        W10967   5.222  14.725   3.358
39242W        W10968  15.347   5.836  14.533
39243W        W10969   2.289  40.356   3.752
39244W        W10970   6.838   8.809   0.663
39245W        W10971  40.541  25.043   3.176
39246W        W10972  29.540  15.599  13.532
39247W        W10973   0.399  17.721   3.633
39248W        W10974   7.245   3.511  11.596
39249W        W10975  43.240  25.173   2.743
39250W        W10976  25.205  37.569   2.142
39251W        W10977   2.817  36.437  12.063
39252W        W10978  28.587  40.558   0.518
39253W        W10979   6.793  23.052   4.949
39254W        W10980  30.437  30.531   4.608
39255W        W10981  27.044  20.709   0.401
39256W        W10982  36.100  37.044  12.091
39257W        W10983  18.650  14.833  10.743
39258W        W10984  29.943  41.517  11.993
39259W        W10985  14.707  30.712   0.674
39260W        W10986  10.220  10.802  14.542
39261W        W10987  30.604  33.810   0.868
39262W        W10988  16.773  33.858  12.488
39263W        W10989   5.874  33.861   3.108
39264W        W10990   7.083   2.192  11.034
39265W        W10991  40.584  23.030   4.193
39266W        W10992  31.498   3.775  13.857
39267W        W10993   4.266  37.043  10.811
39268W        W10994  28.512  23.687  10.715
39269W        W10995  14.329  24.442  11.581
39270W        W10996  21.580  27.138   2.352
39271W        W10997  43.189  30.924   2.295
39272W        W10998  26.207  22.393   1.737
39273W        W10999  23.231   3.170  14.325
39274W        W11000  27.289  35.784  11.088
39275W        W11001   7.160  43.272   0.916
39276W        W11002  23.759  35.118  13.294
39277W        W11003  31.143  17.957  10.774
39278W        W11004   6.651  34.393   2.874
39279W        W11005  14.656  22.947   0.905
39280W        W11006   9.226  31.958   3.748
39281W        W11007   0.455  39.433  13.618
39282W        W11008  18.221  25.042  13.579
39283W        W11009  11.883  44.923   3.170
39284W        W11010  13.139   1.316   1.722
39285W        W11011  21.854   6.457   4.744
39286W        W11012   8.187  13.123   1.230
39287W        W11013  16.325  35.842   4.132
39288W        W11014  27.192  39.020   1.384
39289W        W11015  25.128   8.638  11.285
39290W        W11016  35.344  20.145  12.496
39291W        W11017  12.367  40.972   0.304
39292W        W11018  44.847  28.973   3.377
39293W        W11019  30.157  22.072   0.800
39294W        W11020   2.419  43.760  12.671
39295W        W11021   4.160  44.442  14.865
39296W        W11022  21.434  44.740  14.069
39297W        W11023  40.569  28.068  11.032
39298W        W11024  28.314  25.124  11.148
39299W        W11025  15.667  24.577   2.460
39300W        W11026  25.620  36.858  14.981
39301W        W11027  30.544  30.221  11.209
39302W        W11028  20.145  38.230  14.374
39303W        W11029  27.558   9.238  12.620
39304W        W11030  27.937  24.987   0.974
39305W        W11031   9.944  42.111   1.368
39306W        W11032  28.625  23.105  11.404
39307W        W11033  40.509  38.247   4.884
39308W        W11034   2.900  16.642  14.117
39309W        W11035  40.576  29.001   2.710
39310W        W11036  19.596   7.285   3.814
39311W        W11037   7.849  40.127  13.327
39312W        W11038  25.558   7.692   3.392
39313W        W11039   8.948   3.385   4.622
39314W        W11040  40.895   5.312   1.867
39315W        W11041  33.761   8.263  14.818
39316W        W11042   5.127  42.791   2.813
39317W        W11043  25.453   8.282   1.522
39318W        W11044  27.207  30.590   3.676
39319W        W11045  34.092   0.373   4.587
39320W        W11046  33.554  19.530  13.858
39321W        W11047  36.061  24.936  10.585
39322W        W11048  29.894  33.717  10.255
39323W        W11049  29.062  39.487  14.286
39324W        W11050  17.720  15.677  13.547
39325W        W11051  14.558  11.773   1.232
39326W        W11052   6.237   8.758   5.392
39327W        W11053  15.229  40.090   1.407
39328W        W11054  40.663   4.164  12.102
39329W        W11055  20.479   3.923  12.901
39330W        W11056  34.869   6.802   4.242
39331W        W11057   3.823  43.450   2.764
39332W        W11058   4.254  30.337  13.855
39333W        W11059  25.553   3.469   2.195
39334W        W11060  14.140  44.471   2.372
39335W        W11061  21.825  25.732   1.830
39336W        W11062  18.776   6.302   0.879
39337W        W11063   5.242  11.922   2.723
39338W        W11064   5.221  21.961   2.227
39339W        W11065  35.061   3.223  12.469
39340W        W11066  12.856  37.407  14.463
39341W        W11067  44.422   2.950  14.852
39342W        W11068   5.656  42.676   1.861
39343W        W11069  30.558  27.547   1.174
39344W        W11070  14.765  27.567   3.323
39345W        W11071  27.564  17.588  14.491
39346W        W11072  26.280  31.872  11.519
39347W        W11073  17.659  25.078   1.009
39348W        W11074  24.220   3.739  11.058
39349W        W11075  22.520  31.150  11.157
39350W        W11076  40.052   4.888   1.907
39351W        W11077  17.697   7.137   0.950
39352W        W11078  19.456  44.920   3.740
39353W        W11079  33.608  43.562  10.447
39354W        W11080  17.484  29.229   0.947
39355W        W11081  34.834  30.453  11.527
39356W        W11082  37.418   6.682  12.543
39357W        W11083  22.954  28.650   4.644
39358W        W11084  34.620  26.140   4.927
39359W        W11085   3.830  40.779   1.638
39360W        W11086  27.136   5.933  11.162
39361W        W11087  26.729   7.672   2.365
39362W        W11088  25.044  41.597   3.328
39363W        W11089  19.597   5.348  11.167
39364W        W11090   5.567  30.730   3.561
39365W        W11091  22.734  39.035   1.636
39366W        W11092  10.389  40.177  11.608
39367W        W11093  10.378  23.990   4.207
39368W        W11094  15.810   3.402  12.910
39369W        W11095  16.505  27.085   0.354
39370W        W11096  33.516  30.121  13.896
39371W        W11097   5.197  15.199   2.326
39372W        W11098  27.079  15.922  11.620
39373W        W11099   4.465  37.778  14.522
39374W        W11100  34.593   6.102   1.766
39375W        W11101  15.098   0.348   2.150
39376W        W11102  13.296  15.641   4.611
39377W        W11103  34.619  13.690   0.649
39378W        W11104  13.695  19.377  11.180
39379W        W11105  35.433  18.246  12.897
39380W        W11106  20.173   2.741  13.007
39381W        W11107  40.352  28.514  13.403
39382W        W11108  32.503   7.688   4.518
39383W        W11109  35.579   4.656  11.141
39384W        W11110  16.320   6.272   4.387
39385W        W11111  44.697  35.887   1.852
39386W        W11112  23.207   1.371   3.661
39387W        W11113  36.053  12.221   0.395
39388W        W11114   4.527  16.288  13.081
39389W        W11115  25.105  21.763  14.909
39390W        W11116   4.357  43.587   2.764
39391W        W11117   8.178  18.792  12.929
39392W        W11118  24.569   4.598  13.367
39393W        W11119  30.458  34.564   1.969
39394W        W11120  22.750  33.092   2.620
39395W        W11121  39.107  30.489   0.909
39396W        W11122   9.887   4.858  11.634
39397W        W11123  19.783  20.171  11.918
39398W        W11124  38.938  15.301   0.786
39399W        W11125   5.730  37.006  14.522
39400W        W11126  25.936  19.162   1.718
39401W        W11127   3.912   4.402  11.545
39402W        W11128   3.373  32.413  12.467
39403W        W11129  25.731  27.809  14.365
39404W        W11130  24.461  44.950  13.792
39405W        W11131  15.284   0.225  11.194
39406W        W11132  39.440   5.412  11.029
39407W        W11133  18.979  36.938   0.256
39408W        W11134  35.452  18.587   1.898
39409W        W11135   9.390   4.683  14.552
39410W        W11136  16.212  19.235   2.266
39411W        W11137  19.754  35.831  13.385
39412W        W11138  31.345  34.126   3.215
39413W        W11139  11.598  13.065   4.296
39414W        W11140  44.023  15.904  14.816
39415W        W11141  11.304  39.076   0.057
39416W        W11142  40.501  27.132  13.335
39417W        W11143  19.394  14.938   2.370
39418W        W11144   3.027  13.675   1.744
39419W        W11145  25.733  19.255  11.857
39420W        W11146  11.214  26.035  14.957
39421W        W11147  15.256  11.394  11.242
39422W        W11148  24.163  22.951  12.927
39423W        W11149   0.641  38.576   2.217
39424W        W11150  44.530   2.758   1.706
39425W        W11151  34.050  42.041  12.286
39426W        W11152  24.922   4.995  11.488
39427W        W11153  30.538  16.025   2.803
39428W        W11154  31.588  41.628   0.795
39429W        W11155  12.199   9.441  12.556
39430W        W11156   7.368  38.489   0.269
39431W        W11157   9.800   6.744  14.397
39432W        W11158  15.319  18.960   4.312
39433W        W11159  44.379  30.660  13.901
39434W        W11160  11.128  21.047   1.249
39435W        W11161   9.964   4.825   0.286
39436W        W11162   0.493  20.627  10.808
39437W        W11163  34.571   2.840  13.027
39438W        W11164  35.734   5.360  11.513
39439W        W11165  39.809  38.353   2.802
39440W        W11166  33.438  42.430   4.816
39441W        W11167  40.341  29.164   4.122
39442W        W11168  18.710   7.766   1.668
39443W        W11169  33.645  28.487   4.200
39444W        W11170  28.411  28.131   3.651
39445W        W11171  28.656  26.413   1.622
39446W        W11172  11.610  41.832   2.304
39447W        W11173  18.978   4.162  14.447
39448W        W11174   6.223  22.560  10.804
39449W        W11175  40.399  38.213  12.969
39450W        W11176  11.303  12.656  12.400
39451W        W11177  18.192  43.250  11.055
39452W        W11178  34.871  38.492   4.078
39453W        W11179  36.645   6.190   4.553
39454W        W11180  42.932  26.875   1.963
39455W        W11181  20.542  18.202  13.042
39456W        W11182  42.667  13.559  11.146
39457W        W11183  21.057  13.102   1.534
39458W        W11184   4.222   8.329  14.126
39459W        W11185  42.793  17.561   0.474
39460W        W11186  14.877  14.560  13.975
39461W        W11187   3.550  11.343  10.019
39462W        W11188  41.786   2.845  10.720
39463W        W11189   2.401  37.400   0.033
39464W        W11190  37.384  25.475  10.656
39465W        W11191  44.584  19.369  13.353
39466W        W11192   1.965   1.895  10.887
39467W        W11193  30.029  23.274   2.858
39468W        W11194  29.115   7.315  11.605
39469W        W11195   0.447   9.756   3.402
39470W        W11196   7.348  39.558  13.262
39471W        W11197  39.834  17.855  13.499
39472W        W11198  26.110  26.497   4.764
39473W        W11199  12.713   3.788   4.951
39474W        W11200   4.527  40.365  11.261
39475W        W11201  25.272  36.512  12.513
39476W        W11202   2.117   9.402  12.927
39477W        W11203  20.814  17.474  11.552
39478W        W11204   6.384  18.631   2.180
39479W        W11205   7.606  24.630  10.116
39480W        W11206  43.128   7.048  13.347
39481W        W11207   8.166  30.551  14.518
39482W        W11208  43.032  30.224  10.818
39483W        W11209  26.942  18.175  12.058
39484W        W11210  38.721  25.575  10.732
39485W        W11211  43.035  42.769   1.001
39486W        W11212  39.871  17.757  14.366
39487W        W11213  21.552   1.063  12.971
39488W        W11214  17.784  12.706   4.104
39489W        W11215  15.667  34.223  13.935
39490W        W11216  16.897  20.670   2.244
39491W        W11217   7.662   8.643  13.004
39492W        W11218   9.790  33.904  13.286
39493W        W11219  11.323  29.842   0.003
39494W        W11220  22.133   7.259   1.969
39495W        W11221   9.231  16.303   0.302
39496W        W11222  36.420  44.334  13.957
39497W        W11223  25.165  12.551   4.127
39498W        W11224  20.246  23.461  10.744
39499W        W11225  38.908  19.770   0.808
39500W        W11226  15.162   8.401   0.972
39501W        W11227  42.410  29.442   1.296
39502W        W11228  24.486   7.402  14.688
39503W        W11229  26.492  32.684  10.921
39504W        W11230  21.987  39.430  11.514
39505W        W11231  26.539  10.207  14.976
39506W        W11232   2.210  14.717   3.349
39507W        W11233  35.006  42.947   3.748
39508W        W11234  20.559  23.105  14.822
39509W        W11235  14.873  17.233   1.723
39510W        W11236  43.585  21.021   1.628
39511W        W11237  25.497  42.801  13.875
39512W        W11238  31.859  44.614   9.621
39513W        W11239  17.710  33.533  12.400
39514W        W11240   7.490  30.379   0.210
39515W        W11241  43.720  44.449  14.373
39516W        W11242  36.228  41.519  13.964
39517W        W11243  34.421  26.208  13.776
39518W        W11244  14.278  27.098   0.731
39519W        W11245   1.142  38.511   4.002
39520W        W11246  37.565  19.923   1.460
39521W        W11247  25.111  16.965   3.636
39522W        W11248  37.419  44.395   4.490
39523W        W11249  40.979  15.228  11.215
39524W        W11250   8.170  20.765  10.526
39525W        W11251  35.598   3.028   2.283
39526W        W11252  33.504  33.314   0.443
39527W        W11253   5.408  22.973   0.866
39528W        W11254  31.733  30.350   3.964
39529W        W11255  23.476  32.880  14.474
39530W        W11256  37.516  12.883  12.545
39531W        W11257  12.305   6.648   2.290
39532W        W11258   6.552  12.400   2.353
39533W        W11259  44.831  25.683  10.552
39534W        W11260  29.525  39.903  12.769
39535W        W11261  22.245  36.006   4.085
39536W        W11262  34.908  26.446   1.191
39537W        W11263  20.227  13.780  14.468
39538W        W11264  18.717  41.864   4.242
39539W        W11265  44.971  33.343  13.856
39540W        W11266  16.819  38.158   4.268
39541W        W11267  34.082  11.938  13.893
39542W        W11268  24.716  13.774  12.956
39543W        W11269  37.067  25.439   0.774
39544W        W11270  36.390  25.544   3.331
39545W        W11271  15.618  10.636   0.892
39546W        W11272  41.530  39.062   3.083
39547W        W11273  36.860  17.073   4.104
39548W        W11274   5.458  35.643   4.535
39549W        W11275  30.423  19.186  11.582
39550W        W11276  15.613  33.348  13.318
39551W        W11277  10.825  32.067   2.276
39552W        W11278   2.752  39.896   2.312
39553W        W11279   4.508  21.663  11.176
39554W        W11280  42.055  12.689   1.153
39555W        W11281  20.161   5.737   2.230
39556W        W11282  39.540  27.063  11.939
39557W        W11283   9.198  10.423   0.782
39558W        W11284  12.061  42.591  12.007
39559W        W11285   0.040   4.321  12.089
39560W        W11286  36.680  42.346   2.417
39561W        W11287  33.488  41.555  11.357
39562W        W11288  43.506  33.182  11.019
39563W        W11289  16.184  16.151   2.703
39564W        W11290  22.472  42.894  14.939
39565W        W11291  13.140  21.821  14.420
39566W        W11292  42.927  14.052   3.272
39567W        W11293  39.979  28.658  14.031
39568W        W11294   6.799  38.617   2.214
39569W        W11295  12.647   4.210  12.546
39570W        W11296  17.740  34.547   2.771
39571W        W11297  16.105  16.356   1.163
39572W        W11298  25.129  11.853  14.443
39573W        W11299  20.732   1.997  10.317
39574W        W11300  26.004  26.689  14.902
39575W        W11301  18.005  20.119   1.974
39576W        W11302  26.915  17.843   4.540
39577W        W11303  30.620  22.432   2.873
39578W        W11304   5.178  12.547  10.907
39579W        W11305  31.593   8.243  14.999
39580W        W11306  41.930   8.386   3.674
39581W        W11307  11.403  33.043  12.096
39582W        W11308  18.347  35.945   4.292
39583W        W11309   7.237  10.817   4.535
39584W        W11310  12.321  18.595   4.101
39585W        W11311  23.432  18.504  11.156
39586W        W11312   1.963  32.418   0.509
39587W        W11313  13.592   0.854  12.431
39588W        W11314  32.507   7.419   0.721
39589W        W11315  41.197  31.048  11.598
39590W        W11316  21.042  24.634  14.271
39591W        W11317  28.919  33.456  11.844
39592W        W11318  27.750   3.407  12.512
39593W        W11319  35.977   4.940  12.426
39594W        W11320  24.705   4.140   2.482
39595W        W11321   7.270  28.868   3.852
39596W        W11322  16.090  43.895  14.970
39597W        W11323  18.746  26.259   3.733
39598W        W11324  32.504   4.426  11.900
39599W        W11325  30.970  28.149  14.178
39600W        W11326  33.690   0.982  11.002
39601W        W11327  37.223  23.932  14.969
39602W        W11328   7.827  17.676  14.893
39603W        W11329  36.791  37.641  13.146
39604W        W11330   6.370   6.383  12.584
39605W        W11331   9.179  25.452  12.326
39606W        W11332  32.505  33.157  12.416
39607W        W11333  14.704  24.064  11.608
39608W        W11334  41.553   0.980  14.431
39609W        W11335  20.236   4.420   2.388
39610W        W11336  41.920  11.542   2.214
39611W        W11337   6.956  22.250   0.983
39612W        W11338  41.086   8.372   0.999
39613W        W11339  35.456   5.802   4.247
39614W        W11340  43.838   9.820  14.277
39615W        W11341   2.281  39.626  11.499
39616W        W11342  40.033  24.785   2.334
39617W        W11343  23.188  22.965  14.282
39618W        W11344  12.201  29.189  12.627
39619W        W11345  29.866  43.762   0.883
39620W        W11346   8.412   2.999  13.861
39621W        W11347   1.001  13.836   2.336
39622W        W11348   0.881  40.483  13.780
39623W        W11349  40.188  14.430  13.398
39624W        W11350  44.400   8.451   3.119
39625W        W11351   0.286  33.842   1.449
39626W        W11352  16.287  11.335   1.268
39627W        W11353  22.700   4.936   4.641
39628W        W11354  26.005  36.299  13.105
39629W        W11355  29.693  20.803   0.856
39630W        W11356  28.151  34.884   2.621
39631W        W11357   8.677  22.518  13.322
39632W        W11358  18.084   4.218   4.561
39633W        W11359  43.889  32.487   1.312
39634W        W11360  27.184  31.484   4.333
39635W        W11361  40.111  27.743   4.845
39636W        W11362  37.224   2.281   4.252
39637W        W11363  27.955  11.820  14.222
39638W        W11364   4.924   4.787   0.562
39639W        W11365  21.371   6.702  10.905
39640W        W11366   3.786   4.442  13.483
39641W        W11367  32.357  28.536   4.762
39642W        W11368   8.747  17.235   3.638
39643W        W11369  26.770  32.762   5.159
39644W        W11370   4.770  24.236  14.908
39645W        W11371  13.529  26.301   4.713
39646W        W11372  14.661  29.731  11.987
39647W        W11373  25.983  19.459  10.654
39648W        W11374   4.447  16.193   1.247
39649W        W11375  20.449  36.537   4.211
39650W        W11376  14.617  11.316   1.949
39651W        W11377  36.138   0.226  13.347
39652W        W11378  31.403  23.731   3.226
39653W        W11379  34.153   1.730  11.136
39654W        W11380   4.740   4.842   2.823
39655W        W11381  18.657  31.326   0.968
39656W        W11382   2.015  35.565   1.835
39657W        W11383  34.834   6.022  11.476
39658W        W11384   1.338  34.949   3.411
39659W        W11385   3.727  12.706  13.080
39660W        W11386  23.046   4.007   0.375
39661W        W11387  18.554   9.561  13.774
39662W        W11388  28.863   0.826   1.222
39663W        W11389   6.906  21.972  12.435
39664W        W11390   6.404  10.414  10.218
39665W        W11391  10.987  18.650   1.195
39666W        W11392  24.668  35.458   0.974
39667W        W11393  27.575  34.639   4.553
39668W        W11394  17.980   1.073   4.951
39669W        W11395  44.503  21.013  10.945
39670W        W11396  10.650   1.458  11.584
39671W        W11397   7.540  33.902   0.195
39672W        W11398  18.780  13.896   3.179
39673W        W11399  10.705  23.473   3.298
39674W        W11400  36.015  11.686  11.163
39675W        W11401  42.219   0.877  13.061
39676W        W11402   2.420  29.681  11.118
39677W        W11403   8.183  24.555  12.615
39678W        W11404  34.181  19.841   1.759
39679W        W11405  44.668  18.703   3.712
39680W        W11406  17.607   5.013  12.106
39681W        W11407   9.671  11.907   0.843
39682W        W11408  21.184  32.138   1.204
39683W        W11409  20.579  37.993  11.017
39684W        W11410   2.356   9.902   2.186
39685W        W11411  39.836  37.508  11.035
39686W        W11412  23.125  13.622  10.583
39687W        W11413  32.897  24.056   0.721
39688W        W11414  13.178   5.437   2.730
39689W        W11415  26.709  19.532   3.334
39690W        W11416  16.659  33.627  12.927
39691W        W11417  23.567  43.936   2.359
39692W        W11418  16.703  10.771  13.022
39693W        W11419  22.049  17.389  12.370
39694W        W11420  18.842   5.258   3.658
39695W        W11421   0.521  10.826  11.150
39696W        W11422   8.786  33.138   3.246
39697W        W11423  42.388  40.497  12.966
39698W        W11424  20.335  19.590  10.780
39699W        W11425  15.778  29.022   2.265
39700W        W11426  11.741  28.449   0.428
39701W        W11427  34.893  17.165  10.765
39702W        W11428   8.971  40.214  13.385
39703W        W11429   6.009   0.946   1.129
39704W        W11430  39.086   2.488  14.777
39705W        W11431  26.185   7.508  10.671
39706W        W11432  37.891  18.063   0.457
39707W        W11433  41.510   7.303  12.117
39708W        W11434  36.221  28.977   1.659
39709W        W11435  11.612   3.688   1.424
39710W        W11436  24.555  20.302   2.890
39711W        W11437  20.910  44.003  14.260
39712W        W11438  26.158  14.753   3.081
39713W        W11439  35.412  35.841   4.979
39714W        W11440  24.724  18.293  13.939
39715W        W11441  31.562  44.138   3.124
39716W        W11442  23.188  26.218   0.790
39717W        W11443  19.777  33.093   2.809
39718W        W11444  31.660  27.576   4.747
39719W        W11445  34.524  29.966  13.904
39720W        W11446  14.554  40.589   0.941
39721W        W11447  24.239  40.524   3.709
39722W        W11448  33.497  17.785  14.754
39723W        W11449   9.629  43.606   1.269
39724W        W11450  32.616  13.385   0.279
39725W        W11451   3.142   1.436  11.153
39726W        W11452  15.270   9.834  11.617
39727W        W11453  40.366  34.613   1.884
39728W        W11454  32.651  33.491   4.053
39729W        W11455  34.364  38.828   0.436
39730W        W11456  10.500  26.741   1.945
39731W        W11457  40.994  21.723   1.207
39732W        W11458   1.787  22.228   4.291
39733W        W11459  32.466   9.126   0.245
39734W        W11460  12.777  26.206   2.185
39735W        W11461  17.593  15.829  10.354
39736W        W11462  35.354  44.262  11.947
39737W        W11463  20.410  14.640  12.611
39738W        W11464   7.889  37.593   1.759
39739W        W11465   6.367  12.636  11.544
39740W        W11466  31.859  18.568  10.631
39741W        W11467  42.226  13.079  12.074
39742W        W11468  23.126  23.723   1.480
39743W        W11469  16.593  12.329   4.685
39744W        W11470  36.288  43.914   0.933
39745W        W11471  32.387  40.773   1.379
39746W        W11472  35.526  35.105  14.477
39747W        W11473  25.230  26.449   1.819
39748W        W11474  17.164   2.164   1.680
39749W        W11475  30.648  34.344   0.967
39750W        W11476  14.602  19.162  12.984
39751W        W11477  34.897  31.658   1.857
39752W        W11478   4.323  40.605   3.960
39753W        W11479  27.068  27.376  14.860
39754W        W11480  43.873  26.617   9.683
39755W        W11481  10.819  40.240   4.280
39756W        W11482  44.935   5.607   1.864
39757W        W11483  11.846  36.362   4.995
39758W        W11484  31.149  18.146  14.429
39759W        W11485  44.328  22.210  12.130
39760W        W11486  18.194  32.644   0.964
39761W        W11487  22.255  41.919   0.899
39762W        W11488  12.426   0.367   4.794
39763W        W11489  26.638  16.530   2.184
39764W        W11490  28.127  28.542  13.802
39765W        W11491  18.574  26.980   2.122
39766W        W11492  44.327   3.867  13.164
39767W        W11493  20.472  22.028   0.938
39768W        W11494  32.418  32.961   2.236
39769W        W11495  21.133  41.260  12.858
39770W        W11496  39.618   2.239   1.223
39771W        W11497   8.706   5.726   1.769
39772W        W11498  30.556  27.353   1.685
39773W        W11499  18.652   9.245  12.897
39774W        W11500   2.281  10.275   1.408
39775W        W11501  23.485   3.496   3.802
39776W        W11502  29.163  13.365  10.603
39777W        W11503  40.338  30.908   0.219
39778W        W11504   9.659  40.549   1.859
39779W        W11505  25.144  36.968  11.049
39780W        W11506  39.721  14.507  13.615
39781W        W11507  27.625  18.242  11.084
39782W        W11508  14.614  40.341   2.262
39783W        W11509   2.938   1.919  14.226
39784W        W11510   0.954  31.472  11.569
39785W        W11511  42.679  31.486  11.140
39786W        W11512  22.168  38.091   0.021
39787W        W11513  32.673  22.519  13.456
39788W        W11514  13.333  10.633  10.279
39789W        W11515  28.406  42.552  14.752
39790W        W11516  27.949  20.920  11.206
39791W        W11517  28.380  11.423   4.190
39792W        W11518  16.772   5.617   1.469
39793W        W11519  34.389  10.445   3.823
39794W        W11520  33.474  18.349  11.568
39795W        W11521  41.998  24.000  14.886
39796W        W11522  37.053   7.255  10.923
39797W        W11523  40.526  22.163  12.536
39798W        W11524  28.146  30.644  12.634
39799W        W11525  13.914  28.578  12.408
39800W        W11526   3.451  13.414   2.039
39801W        W11527   8.761  12.567  13.860
39802W        W11528  34.867  41.904   2.772
39803W        W11529  31.347  37.776   0.278
39804W        W11530  38.951  37.938   2.403
39805W        W11531   4.285   1.724   2.198
39806W        W11532   6.151  22.096  10.182
39807W        W11533  43.783  35.675   1.863
39808W        W11534   3.607   8.832   4.163
39809W        W11535  15.684  44.662  14.871
39810W        W11536   7.738  29.528  12.527
39811W        W11537   5.326  12.345   1.497
39812W        W11538   2.762   4.736  12.051
39813W        W11539  25.819  34.744   2.554
39814W        W11540   5.365   1.856  12.253
39815W        W11541  42.323  11.054  14.468
39816W        W11542  26.209  30.073  14.829
39817W        W11543  34.189   5.319  13.404
39818W        W11544  32.331  43.907  10.652
39819W        W11545  18.200  33.438   4.862
39820W        W11546  27.880  38.009  11.715
39821W        W11547  39.787  38.128  10.452
39822W        W11548   1.003  10.720   3.638
39823W        W11549  28.524   7.875   0.965
39824W        W11550  18.260   1.220  13.018
39825W        W11551  42.762  33.543  11.080
39826W        W11552  42.162   9.181   3.276
39827W        W11553  13.368  41.259  13.604
39828W        W11554  29.588  41.973   1.194
39829W        W11555  25.885  30.771  12.834
39830W        W11556  11.906  25.729  12.960
39831W        W11557  35.418  24.659   4.632
39832W        W11558  28.991  28.515  14.255
39833W        W11559   4.831  23.783  11.066
39834W        W11560   6.823  44.239  14.618
39835W        W11561  18.564  22.187  11.537
39836W        W11562  10.892  30.013  11.416
39837W        W11563   7.735  38.897   0.207
39838W        W11564   5.724  24.795  12.091
39839W        W11565  28.757  22.558  12.573
39840W        W11566   1.290  38.417   0.213
39841W        W11567  18.617  42.903  14.991
39842W        W11568  36.630  39.989  14.059
39843W        W11569  11.110  18.151   2.847
39844W        W11570   6.624  16.328  10.702
39845W        W11571  44.223  26.718  12.145
39846W        W11572  39.382  24.966  11.081
39847W        W11573  34.961   3.646  14.984
39848W        W11574  26.125  35.128  14.484
39849W        W11575  14.309  19.318   1.196
39850W        W11576  10.682  33.152  12.537
39851W        W11577   1.475  11.412   0.452
39852W        W11578  16.108  16.148   4.574
39853W        W11579  41.909   7.718   3.183
39854W        W11580  19.331  40.102   0.895
39855W        W11581  22.631  23.988  14.799
39856W        W11582  14.730  34.360   3.288
39857W        W11583   4.651  26.877  12.796
39858W        W11584  24.094  34.583   3.353
39859W        W11585  27.028  39.348  13.798
39860W        W11586  12.385  24.742   4.281
39861W        W11587   4.991  29.971  11.999
39862W        W11588  22.627  31.155  12.554
39863W        W11589   7.244  25.208   1.860
39864W        W11590  11.629  11.265  13.787
39865W        W11591   9.417  21.312  11.001
39866W        W11592  36.334  42.929  14.429
39867W        W11593  39.282  13.623  12.437
39868W        W11594  22.663  43.415  14.871
39869W        W11595  44.587  31.772   1.159
39870W        W11596  40.515   9.168   0.489
39871W        W11597  14.756  30.219  10.730
39872W        W11598   4.072  15.117  14.385
39873W        W11599  29.265  40.287  10.990
39874W        W11600  15.278  38.950  12.277
39875W        W11601  41.746  22.055  14.264
39876W        W11602  41.917  43.524  11.450
39877W        W11603  15.279  22.229  12.682
39878W        W11604  28.626  28.843   2.048
39879W        W11605  43.227  22.887  12.985
39880W        W11606  21.298  15.063   2.844
39881W        W11607  38.474   7.981   2.950
39882W        W11608   8.674  39.735   1.408
39883W        W11609  14.655   5.899  14.040
39884W        W11610  11.278  43.849  11.761
39885W        W11611   5.253   1.018   4.008
39886W        W11612  32.598   5.763  10.549
39887W        W11613   5.691   9.494   3.163
39888W        W11614  27.423  17.707   4.467
39889W        W11615  17.386  42.936  13.596
39890W        W11616  36.029   2.545  12.553
39891W        W11617  30.423  24.669  10.243
39892W        W11618  39.804  35.835  11.181
39893W        W11619  31.177  42.469   4.514
39894W        W11620   7.209   2.330   4.464
39895W        W11621  37.516   9.668   0.004
39896W        W11622   7.474  12.587  14.293
39897W        W11623   2.502   7.002   3.781
39898W        W11624  32.470  38.353  12.042
39899W        W11625  18.261   5.511   4.130
39900W        W11626  13.642  24.709   4.601
39901W        W11627  15.636  29.618   2.862
39902W        W11628  24.687  28.422   0.425
39903W        W11629   5.291  26.501  11.943
39904W        W11630  35.530  10.920   1.659
39905W        W11631  35.061  43.767   3.238
39906W        W11632  27.371  40.385   3.937
39907W        W11633  20.290  31.002   3.152
39908W        W11634   0.878  44.369   4.233
39909W        W11635  10.126  24.276   2.939
39910W        W11636  23.739  28.532  10.906
39911W        W11637  43.931  19.077   4.828
39912W        W11638   1.984   8.265  11.542
39913W        W11639  30.395   0.516  14.986
39914W        W11640  18.011  42.744   2.661
39915W        W11641  21.973  24.208   3.215
39916W        W11642  27.061  41.259  11.968
39917W        W11643  43.248   1.280  11.467
39918W        W11644  18.796  31.505   2.532
39919W        W11645  42.152  26.054   0.230
39920W        W11646  24.523  31.941   4.007
39921W        W11647  28.346  40.122  14.071
39922W        W11648  26.790  40.141  11.199
39923W        W11649  27.584  13.799   3.608
39924W        W11650  31.152  39.462  10.619
39925W        W11651  21.741  31.998  12.928
39926W        W11652  41.484  15.928  13.812
39927W        W11653  35.569  37.594   0.864
39928W        W11654   5.486   1.288   2.773
39929W        W11655  30.675  30.881  14.439
39930W        W11656  14.199   4.390  11.495
39931W        W11657  42.044  35.441  11.483
39932W        W11658  26.553   1.007   0.869
39933W        W11659  31.416  34.073  10.541
39934W        W11660  25.119  33.629   3.395
39935W        W11661  40.184   2.497  12.052
39936W        W11662  31.982  24.188  13.637
39937W        W11663  37.429   3.806  12.338
39938W        W11664  40.382  40.483   3.825
39939W        W11665  23.244   0.596  13.338
39940W        W11666  30.497  44.817  10.574
39941W        W11667  32.315  40.175   0.398
39942W        W11668  33.440  40.869   1.956
39943W        W11669  43.924   4.881   4.340
39944W        W11670   3.489  26.513   4.593
39945W        W11671  43.892  24.922   0.128
39946W        W11672  42.283  33.960  11.397
39947W        W11673   6.611  30.042   1.199
39948W        W11674  43.701  24.169  13.861
39949W        W11675  30.100  13.746  12.431
39950W        W11676  20.604  13.115   3.624
39951W        W11677   3.791  23.582   2.338
39952W        W11678  15.281  28.197   3.744
39953W        W11679  36.560  30.643  12.894
39954W        W11680  41.904   6.673  14.195
39955W        W11681  41.546  28.263   3.788
39956W        W11682  34.955   7.371   3.148
39957W        W11683  28.946  18.333   1.774
39958W        W11684   5.514   8.256  12.605
39959W        W11685   9.802  17.746   1.327
39960W        W11686   8.796  20.218   2.171
39961W        W11687  37.821  38.601   3.699
39962W        W11688   6.965   6.762   4.606
39963W        W11689  23.156  33.124   4.846
39964W        W11690  41.456  28.006   2.408
39965W        W11691   2.438  27.466  13.110
39966W        W11692  18.734  36.549  12.583
39967W        W11693  41.407  12.668  13.784
39968W        W11694  32.923  11.137  13.094
39969W        W11695  10.796  36.605  11.605
39970W        W11696  17.232  27.484   1.716
39971W        W11697  41.481   2.044   2.672
39972W        W11698  29.672  29.151  12.982
39973W        W11699   8.879  22.729   5.383
39974W        W11700  26.694  19.163  11.970
39975W        W11701  38.900  25.181   0.755
39976W        W11702  14.846  22.669  13.507
39977W        W11703  38.113  12.935  13.397
39978W        W11704  42.407  17.734  11.159
39979W        W11705   4.766  19.978   0.177
39980W        W11706  34.770  35.351   0.400
39981W        W11707  42.322  13.315   3.404
39982W        W11708  26.833  16.115   4.745
39983W        W11709  21.196   6.685   3.200
39984W        W11710   0.621   0.502  14.431
39985W        W11711  37.331   1.187   2.377
39986W        W11712  31.010   3.745  13.710
39987W        W11713   3.961  27.340   0.017
39988W        W11714   4.641  39.828  13.075
39989W        W11715  28.590   2.223  11.845
39990W        W11716  39.219   9.377   1.797
39991W        W11717   9.634  32.098  14.396
39992W        W11718  14.602  36.969  14.387
39993W        W11719  18.755  37.536   2.329
39994W        W11720   6.677  26.405  12.167
39995W        W11721  25.515   0.217  13.016
39996W        W11722  40.107   7.600   4.599
39997W        W11723   3.147  18.211  13.552
39998W        W11724   1.832   8.096   1.290
39999W        W11725   9.153  39.880   2.307
40000W        W11726   4.664  41.859  14.109
40001W        W11727  32.267  29.085  11.465
40002W        W11728   0.910  33.681   2.824
40003W        W11729   9.851  10.203  13.304
40004W        W11730  35.113  13.082   2.371
40005W        W11731  20.302   6.690  13.399
40006W        W11732  44.802   4.194   1.722
40007W        W11733  35.537  44.292   4.361
40008W        W11734  43.076  37.095  14.893
40009W        W11735  13.117   6.633   1.904
40010W        W11736  26.036   1.628  11.642
40011W        W11737  25.016  27.312  14.131
40012W        W11738  28.649  41.400  13.946
40013W        W11739  34.593   8.461   3.294
40014W        W11740  28.510  23.014  12.597
40015W        W11741  16.378  11.812   2.292
40016W        W11742  34.553  44.426   4.522
40017W        W11743  40.139  26.713  11.616
40018W        W11744  34.378  39.495   3.191
40019W        W11745  24.530  13.747  13.938
40020W        W11746  31.722  28.607  14.381
40021W        W11747  37.872  25.010   0.262
40022W        W11748  39.339  21.032  14.058
40023W        W11749  19.115  17.195  13.346
40024W        W11750  15.788   5.896   4.116
40025W        W11751  40.090  35.437   4.429
40026W        W11752  28.580  17.038   1.951
40027W        W11753  39.109  19.733  13.584
40028W        W11754  16.973  16.665   2.736
40029W        W11755  19.586  15.405  11.675
40030W        W11756  40.568  21.684   1.861
40031W        W11757   3.866  35.195  13.063
40032W        W11758  35.020  10.180   4.710
40033W        W11759   5.179  19.681  13.587
40034W        W11760  28.125   1.758  14.566
40035W        W11761  12.241  41.392  13.539
40036W        W11762   0.494  31.948  13.722
40037W        W11763  30.137   8.621   4.129
40038W        W11764   0.397  10.156  14.764
40039W        W11765   9.313   9.084   2.387
40040W        W11766  19.280  19.329   1.786
40041W        W11767  20.632  40.981   4.447
40042W        W11768  12.771  11.608   4.061
40043W        W11769  20.641  43.552   0.164
40044W        W11770  21.237   0.391   4.515
40045W        W11771  40.850  29.115  10.729
40046W        W11772   0.346  28.071  10.674
40047W        W11773  18.222  44.133  11.980
40048W        W11774  14.310  30.132   1.330
40049W        W11775  25.031  30.219   3.936
40050W        W11776   2.454  40.828  12.549
40051W        W11777  34.350  35.948   2.298
40052W        W11778  16.347  36.011   0.816
40053W        W11779   3.553  11.167   2.255
40054W        W11780   5.930  25.179  11.199
40055W        W11781  15.097  22.302  12.213
40056W        W11782  44.409  23.461   1.820
40057W        W11783  35.569   3.364  10.686
40058W        W11784  19.003  32.199   4.714
40059W        W11785  26.528  43.903  12.474
40060W        W11786  39.373  22.769   0.703
40061W        W11787  17.694  41.222   0.502
40062W        W11788  27.810  15.078   3.088
40063W        W11789  21.964  17.411  10.947
40064W        W11790  44.995  42.928  12.836
40065W        W11791  38.097  16.640  12.890
40066W        W11792  40.442   1.218  11.622
40067W        W11793  33.849  34.036   0.927
40068W        W11794   9.998   0.739  14.934
40069W        W11795  27.036  29.367   2.814
40070W        W11796   5.450   4.682  14.866
40071W        W11797  36.564  17.123  12.422
40072W        W11798  33.809  24.816  14.814
40073W        W11799  38.843   7.688   2.110
40074W        W11800  23.454   3.900  12.194
40075W        W11801  26.680   4.985  13.413
40076W        W11802  12.240  23.560   1.401
40077W        W11803  33.544  40.078   0.327
40078W        W11804  43.227   9.644  13.694
40079W        W11805  24.176  32.272  12.784
40080W        W11806  24.492  35.395   4.582
40081W        W11807  25.041  34.450  14.921
40082W        W11808  27.134  12.545   3.938
40083W        W11809  31.324   4.812  12.398
40084W        W11810   3.196  26.378   4.184
40085W        W11811  31.563  38.002   4.131
40086W        W11812  44.569   1.984  12.920
40087W        W11813  23.948  14.825  12.883
40088W        W11814  18.451  22.033   3.809
40089W        W11815   8.464   3.523   4.203
40090W        W11816  13.628  16.216  12.102
40091W        W11817  36.618  25.056   3.360
40092W        W11818  43.258  10.372   4.538
40093W        W11819  10.490  35.601  10.291
40094W        W11820  35.844  30.958   0.731
40095W        W11821   9.807  36.021  11.908
40096W        W11822  40.444  32.703   0.816
40097W        W11823  41.033   6.647  14.287
40098W        W11824   8.697   1.863  11.646
40099W        W11825   6.787  13.349  11.608
40100W        W11826  41.784  38.487  14.901
40101W        W11827  27.144  43.830  13.816
40102W        W11828  27.347  19.192   3.663
40103W        W11829  38.965   5.852  11.054
40104W        W11830  24.705  33.093  13.778
40105W        W11831   4.409  42.256  11.915
40106W        W11832  15.080   4.639   2.331
40107W        W11833   0.941  16.689   0.992
40108W        W11834   9.137  42.491   1.193
40109W        W11835  33.383  41.012  11.541
40110W        W11836   1.412  28.110   0.362
40111W        W11837  12.093   0.827   1.425
40112W        W11838  21.151  25.796  10.644
40113W        W11839  42.536   3.795  11.142
40114W        W11840   5.182  23.938   2.843
40115W        W11841   8.794  24.910   1.127
40116W        W11842  29.557   7.695  14.370
40117W        W11843   0.327  35.398   3.593
40118W        W11844  36.479  43.448   4.858
40119W        W11845  35.787  35.941  12.545
40120W        W11846  30.463  20.196   1.505
40121W        W11847   9.348  16.354  13.961
40122W        W11848  31.471  22.893  13.372
40123W        W11849  20.746  19.275  10.897
40124W        W11850  30.201   7.849  11.084
40125W        W11851  32.511  23.815   1.842
40126W        W11852  26.195  33.660  11.688
40127W        W11853  38.853  27.474   0.281
40128W        W11854  15.646  16.129   2.873
40129W        W11855  39.045  16.837   1.822
40130W        W11856  16.886   0.464   4.195
40131W        W11857  21.810  36.685  13.084
40132W        W11858  12.306  34.467  12.620
40133W        W11859  36.505  23.263  13.000
40134W        W11860  18.518  42.426  13.271
40135W        W11861  18.255   4.930  10.702
40136W        W11862  14.855  27.937   1.679
40137W        W11863  28.030   2.186   1.738
40138W        W11864   3.039  42.714   4.626
40139W        W11865  38.881   2.022  10.465
40140W        W11866   7.147  30.857  14.296
40141W        W11867   9.585  13.271   0.841
40142W        W11868   0.983  19.025  12.447
40143W        W11869   7.725  36.133  11.071
40144W        W11870  44.419   6.083  13.511
40145W        W11871  10.739   1.713  14.960
40146W        W11872  30.308  17.369  11.212
40147W        W11873  14.024  43.289  14.468
40148W        W11874  24.800   9.188   1.505
40149W        W11875  27.617   6.881   0.000
40150W        W11876  16.839  23.629   1.510
40151W        W11877   9.306  23.024   4.220
40152W        W11878  16.764   0.962   4.147
40153W        W11879  21.131   3.614   4.298
40154W        W11880  36.543   2.468   3.012
40155W        W11881  29.206  30.450  10.660
40156W        W11882  41.878  13.592   3.231
40157W        W11883  15.163   8.410  10.665
40158W        W11884  35.753  29.587   1.255
40159W        W11885  19.417  17.769   4.954
40160W        W11886  42.403  36.297   3.727
40161W        W11887  20.731   3.485  14.424
40162W        W11888  39.487  22.521  13.283
40163W        W11889  15.756   4.235   2.406
40164W        W11890  23.758  34.147  13.527
40165W        W11891  41.111  26.601  13.532
40166W        W11892  42.466   7.579   4.742
40167W        W11893  22.056  23.072   2.667
40168W        W11894  17.147   6.410   3.755
40169W        W11895   3.294  27.030  11.389
40170W        W11896   9.951  23.773  12.970
40171W        W11897  44.082  29.634  13.313
40172W        W11898   0.795  35.461   3.339
40173W        W11899  27.943  42.500  12.109
40174W        W11900  41.270  38.956   2.145
40175W        W11901   4.859  34.375  11.547
40176W        W11902   8.654  32.344   5.100
40177W        W11903  24.504   1.418   3.254
40178W        W11904  27.437  28.376  13.407
40179W        W11905  35.013  33.650   0.830
40180W        W11906  13.221   1.348  11.230
40181W        W11907   5.649  19.053   2.661
40182W        W11908   9.805  19.133  12.134
40183W        W11909  30.126  21.713   3.238
40184W        W11910  16.172  36.542   0.948
40185W        W11911  32.210  44.805  12.429
40186W        W11912   0.694   3.923  12.695
40187W        W11913  17.711  37.559  14.460
40188W        W11914  18.595  42.545   0.399
40189W        W11915  28.258  13.183  13.999
40190W        W11916  23.996   9.614  13.396
40191W        W11917   9.250  30.515   0.664
40192W        W11918  21.994   2.451  11.139
40193W        W11919   8.505  37.413   4.636
40194W        W11920  22.780   8.816   2.775
40195W        W11921  41.827   8.719   9.753
40196W        W11922  26.601  44.918  13.456
40197W        W11923   5.894  21.554  12.388
40198W        W11924  16.266  24.422   1.233
40199W        W11925   7.195  25.951   2.878
40200W        W11926  41.826  19.456   3.096
40201W        W11927  29.494   9.379  11.539
40202W        W11928  14.931  26.970  10.599
40203W        W11929   6.894  20.043   3.885
40204W        W11930  15.671  39.203   1.150
40205W        W11931  35.999  22.525   4.682
40206W        W11932  20.782  22.140  13.358
40207W        W11933  44.750  38.409  12.995
40208W        W11934  13.668  32.948   1.417
40209W        W11935  44.474  16.422   0.336
40210W        W11936  36.310  39.034  14.476
40211W        W11937   5.414  35.040  11.978
40212W        W11938  41.284  20.182  11.362
40213W        W11939  18.790  35.794   0.835
40214W        W11940  36.712   0.719   3.763
40215W        W11941  32.055  26.952  11.907
40216W        W11942  21.717  22.946  14.033
40217W        W11943  16.810  37.552   5.105
40218W        W11944  37.913  34.426  11.784
40219W        W11945  12.859  16.806  11.653
40220W        W11946  30.616  40.199   3.613
40221W        W11947  44.975   3.382   2.122
40222W        W11948  32.546   4.729   4.363
40223W        W11949  21.062   5.225  12.690
40224W        W11950   6.528   7.942   2.696
40225W        W11951  44.015   2.402  12.957
40226W        W11952  22.898   0.904  14.289
40227W        W11953  38.390  20.866  11.996
40228W        W11954  16.543  43.081   2.337
40229W        W11955  36.521  33.349  11.535
40230W        W11956   7.806   0.858   3.493
40231W        W11957  32.696   8.714   0.420
40232W        W11958  24.132  23.240   3.577
40233W        W11959  28.945  37.251  13.867
40234W        W11960   5.699  22.534  14.449
40235W        W11961  32.793  12.763  14.573
40236W        W11962  27.077  33.663   4.513
40237W        W11963  27.048  29.487   0.988
40238W        W11964  14.514  11.552  10.347
40239W        W11965  35.966  38.583  11.520
40240W        W11966  21.646  16.878  14.485
40241W        W11967  25.017  21.517  12.582
40242W        W11968  11.645  44.376  11.586
40243W        W11969  29.584  24.945   2.123
40244W        W11970  27.373  16.327  10.710
40245W        W11971  20.612  19.296   4.093
40246W        W11972  27.951   8.855  11.108
40247W        W11973   9.088  26.166   2.899
40248W        W11974  32.601  14.328  13.523
40249W        W11975  16.141  28.718  14.303
40250W        W11976  17.573  28.837  14.564
40251W        W11977  42.666  15.684  14.778
40252W        W11978  39.688  28.604   3.732
40253W        W11979  40.560  13.210   1.290
40254W        W11980  28.538  37.447   3.727
40255W        W11981  26.798  11.630   4.667
40256W        W11982   9.170  27.207  13.474
40257W        W11983   9.128  24.185   4.570
40258W        W11984   2.759  36.912   4.704
40259W        W11985   3.252  26.430  12.943
40260W        W11986  18.652  40.099  14.318
40261W        W11987  35.239  39.954  11.619
40262W        W11988   3.363   0.384   1.266
40263W        W11989   6.391   0.710  14.040
40264W        W11990  35.962  19.846  13.755
40265W        W11991  36.446  21.722   2.629
40266W        W11992  42.825  28.992   1.622
40267W        W11993   9.874   5.174  11.200
40268W        W11994  34.875  15.837  12.459
40269W        W11995  21.510  26.808   2.908
40270W        W11996  14.887  24.164  10.767
40271W        W11997  13.766  37.074   2.306
40272W        W11998   7.490  14.103  12.541
40273W        W11999  39.074  36.021   1.684
40274W        W12000  17.817  11.741  14.000
40275W        W12001  37.002  44.874  11.545
40276W        W12002   1.663  42.825  13.867
40277W        W12003   3.196  31.384  14.484
40278W        W12004  34.226  39.986  13.850
40279W        W12005  22.540   0.749  11.598
40280W        W12006  18.340  41.105   1.706
40281W        W12007  25.200   7.311   1.457
40282W        W12008  14.652  15.614   2.785
40283W        W12009  30.430  20.488   3.662
40284W        W12010  13.031  15.060   2.593
40285W        W12011   6.396  42.802  10.710
40286W        W12012  41.500  38.101  13.409
40287W        W12013  33.569   5.331  10.891
40288W        W12014   8.434  37.578   1.755
40289W        W12015  18.114  13.586   0.533
40290W        W12016  32.920  21.485   2.734
40291W        W12017   3.136  41.914  10.708
40292W        W12018   1.688   0.730  11.198
40293W        W12019   2.949  16.794   3.688
40294W        W12020  11.524  38.712  12.355
40295W        W12021   3.048  38.122  12.437
40296W        W12022  34.945   2.453  11.363
40297W        W12023  42.112  35.283   2.420
40298W        W12024  27.065  38.296   2.122
40299W        W12025  20.096  36.485  14.922
40300W        W12026  20.108   6.147   1.892
40301W        W12027  26.519  21.476  13.499
40302W        W12028  18.579  19.049   4.409
40303W        W12029  30.588   0.409  14.494
40304W        W12030   5.596   7.418   5.469
40305W        W12031  37.249  11.464  10.511
40306W        W12032  25.450   5.721  12.992
40307W        W12033   0.887  21.219  12.499
40308W        W12034  38.490  38.051   4.109
40309W        W12035  44.332  23.478  12.597
40310W        W12036  44.371  13.477   0.769
40311W        W12037  10.352   1.686  12.850
40312W        W12038  31.889   3.184  11.925
40313W        W12039   7.144  30.160   4.606
40314W        W12040   0.197  42.858  12.356
40315W        W12041   6.675  37.847  11.937
40316W        W12042   6.322  34.584  14.698
40317W        W12043   0.841  38.812  13.424
40318W        W12044  14.203  19.832  12.605
40319W        W12045  25.647  38.098  12.616
40320W        W12046  10.936   7.680  12.362
40321W        W12047  38.873  19.181  11.173
40322W        W12048  10.294  14.872   4.190
40323W        W12049  43.103  33.480   4.146
40324W        W12050  18.707  20.041   3.756
40325W        W12051  23.204  14.289   2.752
40326W        W12052  22.053  16.851   2.899
40327W        W12053  13.849   0.957   2.206
40328W        W12054  32.497   0.802  13.531
40329W        W12055  40.056  28.728   0.128
40330W        W12056  11.765  22.635  12.211
40331W        W12057  10.894  17.565  12.818
40332W        W12058  23.626  28.122  12.227
40333W        W12059  24.375  20.800   1.386
40334W        W12060  14.537  43.805  12.990
40335W        W12061   3.765  41.821   4.537
40336W        W12062  27.142  42.834   3.620
40337W        W12063   6.341  38.911   5.065
40338W        W12064   9.243  26.165   1.797
40339W        W12065  32.228  30.869  13.448
40340W        W12066  37.172  28.681  14.436
40341W        W12067  33.979  20.093   2.155
40342W        W12068  20.100  17.036  11.160
40343W        W12069  15.586  27.589  11.945
40344W        W12070  23.228  21.165  12.557
40345W        W12071  32.359  18.619  10.741
40346W        W12072  42.516   5.821   2.383
40347W        W12073   7.087  38.026   2.869
40348W        W12074  19.177  30.881  13.092
40349W        W12075   4.986  33.298   0.411
40350W        W12076  29.959  41.903  14.527
40351W        W12077  44.350  23.434  10.698
40352W        W12078  26.744   7.153  11.344
40353W        W12079  17.291  35.887  13.541
40354W        W12080  33.686  12.260  13.777
40355W        W12081   4.005   5.674   1.902
40356W        W12082  14.496  34.424  13.474
40357W        W12083   8.937  39.066   1.003
40358W        W12084  10.358   9.197   4.342
40359W        W12085   9.425  20.391  12.529
40360W        W12086  23.518  23.691   2.484
40361W        W12087   2.866  32.945  13.325
40362W        W12088  37.016  29.112  10.952
40363W        W12089  14.326  24.653   1.716
40364W        W12090  15.656  11.370  14.119
40365W        W12091  23.753  23.275   2.732
40366W        W12092   4.737   2.981  14.797
40367W        W12093  26.955  14.938  12.116
40368W        W12094  11.624  16.149  12.757
40369W        W12095   9.283  15.798  13.835
40370W        W12096  34.982   1.675  12.435
40371W        W12097  27.425   8.961   3.212
40372W        W12098  16.985  20.129  10.651
40373W        W12099  27.512   8.086  12.591
40374W        W12100   5.406   0.564  10.854
40375W        W12101  10.980   3.864   2.233
40376W        W12102  32.888  12.323  11.671
40377W        W12103   5.832  14.717  14.365
40378W        W12104  38.640   0.242  13.433
40379W        W12105  32.851  23.643   1.503
40380W        W12106   2.697   1.349  12.855
40381W        W12107  18.767  41.656  10.764
40382W        W12108  34.108  38.332  11.578
40383W        W12109  43.625  41.133  14.042
40384W        W12110  32.660  37.927  13.322
40385W        W12111  19.358   9.017   1.719
40386W        W12112  11.353  24.578   0.771
40387W        W12113  22.222  17.998  13.604
40388W        W12114  15.866  19.112  10.647
40389W        W12115  19.010  15.622   1.799
40390W        W12116  40.375  19.252  13.105
40391W        W12117  12.101   4.781   2.427
40392W        W12118   6.971  43.520   2.717
40393W        W12119  43.312  40.888   3.387
40394W        W12120   6.219  14.177   3.806
40395W        W12121  15.820  28.193   2.791
40396W        W12122   4.233   3.391  14.266
40397W        W12123  37.577  40.178   4.581
40398W        W12124  22.044  39.087  11.105
40399W        W12125  11.887  18.107  11.511
40400W        W12126  13.571  37.418   1.334
40401W        W12127  25.692   4.593   0.709
40402W        W12128  33.460  25.145  11.163
40403W        W12129  40.927  31.890   2.886
40404W        W12130  31.214  19.090   0.900
40405W        W12131  31.136  26.663  11.074
40406W        W12132   3.902  35.956  14.682
40407W        W12133   6.885  37.636   0.254
40408W        W12134  34.756  37.346   3.563
40409W        W12135  30.730  35.153  13.051
40410W        W12136  16.210  27.643  10.567
40411W        W12137  23.573  15.280   5.518
40412W        W12138  36.997  36.560   1.908
40413W        W12139   1.416  16.693  14.699
40414W        W12140   5.293  23.379  11.976
40415W        W12141  37.291  29.701   4.602
40416W        W12142   3.798  41.363   0.237
40417W        W12143  32.393  22.773   3.533
40418W        W12144  42.127  30.008  10.687
40419W        W12145  12.778  42.692  10.536
40420W        W12146  33.072  37.963  12.494
40421W        W12147  33.390  12.346   1.177
40422W        W12148   3.949  31.425   3.939
40423W        W12149  41.120  20.541  11.984
40424W        W12150  12.197  34.447   0.901
40425W        W12151  40.486  38.423   4.393
40426W        W12152  31.040   6.125   0.819
40427W        W12153  12.560  34.969  14.708
40428W        W12154   2.535  23.066  13.514
40429W        W12155  34.172   3.428  11.956
40430W        W12156  22.973   2.798   2.740
40431W        W12157   6.881  30.031  13.365
40432W        W12158   1.755   7.176   3.967
40433W        W12159   0.645  13.291   4.536
40434W        W12160  19.665   0.002  12.608
40435W        W12161   6.306  31.699   2.249
40436W        W12162  23.725  24.910   0.259
40437W        W12163  21.402  17.230   1.748
40438W        W12164  38.124  31.134  10.604
40439W        W12165   6.463  10.668  11.522
40440W        W12166  26.476  31.939   1.308
40441W        W12167   4.929  41.881  14.991
40442W        W12168  15.321  32.952   2.077
40443W        W12169   8.449  28.082  14.251
40444W        W12170  29.107  12.340   4.721
40445W        W12171  28.975   3.325   2.550
40446W        W12172  19.697  27.751  12.032
40447W        W12173  17.078  36.114  12.891
40448W        W12174  14.411  12.330  12.997
40449W        W12175  24.064  43.800   4.605
40450W        W12176   7.010  39.417  14.831
40451W        W12177  14.278  36.404  11.538
40452W        W12178  17.987   1.058   3.457
40453W        W12179  40.787   1.439   1.254
40454W        W12180  23.473  38.048   4.125
40455W        W12181   3.260  10.735  13.347
40456W        W12182  33.950  41.457   2.388
40457W        W12183  23.039  38.387  14.792
40458W        W12184  22.619  43.275   4.646
40459W        W12185  41.391  14.824   1.267
40460W        W12186  23.615  32.819  11.914
40461W        W12187  28.934  32.441   1.752
40462W        W12188   2.414  12.485   2.276
40463W        W12189  17.230   6.814  10.438
40464W        W12190  30.180  43.417   4.850
40465W        W12191  13.758   3.880  13.062
40466W        W12192  36.950  21.921  11.056
40467W        W12193   7.435  17.591  11.129
40468W        W12194  19.704   5.711   1.303
40469W        W12195   8.776  19.342   0.730
40470W        W12196  32.231  10.829  13.844
40471W        W12197  33.615   8.376  13.023
40472W        W12198  36.103  10.733  11.465
40473W        W12199  20.736  29.604   0.029
40474W        W12200  29.424   7.717  12.956
40475W        W12201  44.481  15.711  12.477
40476W        W12202  12.353  34.050   4.249
40477W        W12203  18.982  39.001   2.312
40478W        W12204  24.468  19.283   1.365
40479W        W12205  18.995  14.128   5.163
40480W        W12206  29.195  10.862  14.942
40481W        W12207  43.475  38.517   3.193
40482W        W12208  32.147   2.184  14.378
40483W        W12209  28.520  36.275   0.345
40484W        W12210  17.666  39.240  10.544
40485W        W12211   2.829  23.602  11.078
40486W        W12212  42.299  44.386   4.171
40487W        W12213   0.085  15.836  13.386
40488W        W12214  30.842  33.430   3.718
40489W        W12215  41.300  37.835   4.804
40490W        W12216  35.557  33.183  12.889
40491W        W12217  43.311  38.918  10.728
40492W        W12218  20.699  20.694  10.970
40493W        W12219  33.483   6.275   4.497
40494W        W12220  29.044  35.640   3.721
40495W        W12221  30.007  12.203  11.732
40496W        W12222  43.575  16.325   0.416
40497W        W12223   9.186  31.914   1.842
40498W        W12224  19.196   0.059  12.416
40499W        W12225  16.169  40.773  11.558
40500W        W12226  14.384  15.843  11.965
40501W        W12227   5.848  29.381  12.425
40502W        W12228   3.184  31.657  11.156
40503W        W12229  18.531  32.474  13.912
40504W        W12230  29.378  17.642   1.719
40505W        W12231  21.805   5.866  12.708
40506W        W12232  19.128  21.510   3.379
40507W        W12233  23.740  22.877  12.588
40508W        W12234   8.469  31.077  14.231
40509W        W12235  20.297  33.630   2.350
40510W        W12236  39.497  14.244   3.193
40511W        W12237  10.417  28.407  13.848
40512W        W12238  23.234  43.999  10.980
40513W        W12239  12.095  12.184  11.480
40514W        W12240  17.751   3.450  13.003
40515W        W12241  13.068  14.314   0.975
40516W        W12242  15.272  12.483   2.826
40517W        W12243  10.223  43.930   3.462
40518W        W12244  42.256  42.867   1.398
40519W        W12245   1.612  18.453  11.191
40520W        W12246  25.540  30.981   3.497
40521W        W12247  15.716  39.929   1.764
40522W        W12248  27.191   7.893  12.985
40523W        W12249  27.936   2.945  11.095
40524W        W12250  39.410   8.756  10.581
40525W        W12251  36.512  22.265   3.342
40526W        W12252  35.718   4.820  12.010
40527W        W12253  11.815  27.116   1.811
40528W        W12254  17.754   5.836   1.339
40529W        W12255  22.521  23.073  11.460
40530W        W12256  15.487   9.032  14.511
40531W        W12257  37.449  12.860   1.871
40532W        W12258  39.136  14.446   1.669
40533W        W12259  13.190  40.735  11.580
40534W        W12260  10.720  11.954   4.609
40535W        W12261   0.606  26.820   3.751
40536W        W12262  29.913  41.033  11.899
40537W        W12263  29.665  26.617  12.495
40538W        W12264   8.093   3.942  13.987
40539W        W12265  26.554   6.626  14.459
40540W        W12266   3.934   7.354   0.469
40541W        W12267   3.083   0.767   3.387
40542W        W12268  39.940  43.650  11.894
40543W        W12269  17.058  30.850  13.375
40544W        W12270  29.643  29.526   2.715
40545W        W12271  36.165  25.761   1.375
40546W        W12272   7.920  36.310   2.747
40547W        W12273  22.654   0.328   1.418
40548W        W12274   6.744   5.854   0.574
40549W        W12275  37.964   2.973   1.238
40550W        W12276  36.334  41.024  13.851
40551W        W12277  33.102  16.616  13.020
40552W        W12278  20.226  44.181   3.682
40553W        W12279   5.175  28.668   1.226
40554W        W12280  25.677  13.585  13.978
40555W        W12281  16.543  18.662  12.137
40556W        W12282  10.046  22.896  14.457
40557W        W12283  38.960  40.597   2.762
40558W        W12284   4.822   3.368  11.509
40559W        W12285  21.545  17.049  14.988
40560W        W12286  42.046   8.699   0.074
40561W        W12287  35.070  12.056   0.725
40562W        W12288  38.960  30.921  12.936
40563W        W12289  42.384   6.428  11.946
40564W        W12290   1.619   4.372  13.972
40565W        W12291  11.240   4.784   3.339
40566W        W12292  42.837  42.750  11.750
40567W        W12293  36.003  37.867  10.476
40568W        W12294  16.184   4.253   3.179
40569W        W12295  29.078  21.188  14.045
40570W        W12296  42.188   2.910   4.384
40571W        W12297  19.139  38.462  14.841
40572W        W12298  40.643  26.727  11.591
40573W        W12299  21.140  36.629  14.841
40574W        W12300  41.489   8.681   2.975
40575W        W12301  29.167  26.036   2.640
40576W        W12302  29.667  16.730   0.775
40577W        W12303   3.494  23.226   1.791
40578W        W12304  25.527  20.511   1.859
40579W        W12305  33.677  15.785   2.782
40580W        W12306   2.054  30.421   3.226
40581W        W12307  35.569   0.416  11.683
40582W        W12308  33.502  16.853  10.705
40583W        W12309  10.976  10.316   2.180
40584W        W12310  17.787   4.686   2.370
40585W        W12311  34.638  26.502  11.160
40586W        W12312  34.440  33.671  13.376
40587W        W12313   7.442   1.850   3.173
40588W        W12314  16.123   1.374   3.201
40589W        W12315  41.382  34.662   0.086
40590W        W12316  22.339  43.352   2.870
40591W        W12317  27.715  18.588   3.233
40592W        W12318  40.300  35.018   5.174
40593W        W12319  36.914  10.195   2.761
40594W        W12320  23.507  23.580  12.106
40595W        W12321  10.345  44.485  12.465
40596W        W12322  40.344   6.751   4.207
40597W        W12323  29.401   6.367   3.602
40598W        W12324  27.693  27.177  11.653
40599W        W12325   1.657  34.993   1.375
40600W        W12326  16.827  12.005   1.193
40601W        W12327   6.819  30.488  13.066
40602W        W12328  13.459  37.669  11.561
40603W        W12329   2.649  13.150  13.424
40604W        W12330  39.886  16.439  13.226
40605W        W12331   6.928   4.390  13.480
40606W        W12332  18.414  20.450   1.834
40607W        W12333  44.008   1.405   2.184
40608W        W12334  20.716  34.943   2.304
40609W        W12335  18.700   1.860   5.040
40610W        W12336  14.702  43.992   1.532
40611W        W12337  24.492  40.702  14.124
40612W        W12338  33.591  20.621  11.511
40613W        W12339  28.827  25.856   2.321
40614W        W12340  25.949  15.117  14.908
40615W        W12341  32.455  28.319   0.534
40616W        W12342  43.787   2.767   2.686
40617W        W12343  30.686  24.902   1.330
40618W        W12344   1.962  34.484   0.731
40619W        W12345   8.903   2.870   1.051
40620W        W12346  20.136  12.873  14.657
40621W        W12347   1.732  33.059  13.056
40622W        W12348  19.304  13.093   3.632
40623W        W12349  16.500   2.972   4.197
40624W        W12350   7.401  33.996   4.647
40625W        W12351  13.721  13.638   0.696
40626W        W12352   5.008  36.093   3.796
40627W        W12353  10.527  28.635  12.088
40628W        W12354  28.632  42.765  10.400
40629W        W12355  12.854  38.857   3.175
40630W        W12356  30.084  11.771  12.022
40631W        W12357  23.118   9.359  13.852
40632W        W12358  11.772  38.571   0.386
40633W        W12359  22.692  10.713  10.653
40634W        W12360  17.150  23.045   2.242
40635W        W12361  11.783  12.072   4.172
40636W        W12362  43.419  15.619   4.397
40637W        W12363  21.206  43.734  13.949
40638W        W12364  36.098  41.461   2.312
40639W        W12365  19.944   9.687  14.011
40640W        W12366  40.071   8.939   4.618
40641W        W12367  13.294  11.610  10.699
40642W        W12368  10.459   0.701  14.332
40643W        W12369  16.303  44.473   3.655
40644W        W12370   4.007  43.811   1.386
40645W        W12371   5.438  17.399  10.095
40646W        W12372   8.874   9.321   2.264
40647W        W12373   9.664  12.644  12.899
40648W        W12374  36.035  39.163  10.240
40649W        W12375  40.405  11.613  11.450
40650W        W12376  44.975  21.318  14.847
40651W        W12377   2.344  24.434  14.701
40652W        W12378   6.931   4.387  14.607
40653W        W12379  26.796  13.935   4.221
40654W        W12380  44.549  36.066   3.704
40655W        W12381  17.148  13.823  14.230
40656W        W12382  30.899  33.337  14.796
40657W        W12383  14.860  29.219  10.810
40658W        W12384  25.557   3.423   3.074
40659W        W12385  44.735  33.671   1.950
40660W        W12386   6.174  10.749  11.081
40661W        W12387  37.452  41.933   4.205
40662W        W12388  21.535  37.972  13.384
40663W        W12389   4.193  26.102  10.993
40664W        W12390  30.910  23.408   4.691
40665W        W12391  17.119   5.231  12.051
40666W        W12392  33.683  29.115  12.942
40667W        W12393  29.539   8.906  10.604
40668W        W12394  12.211  11.627   3.332
40669W        W12395  26.721  17.602   4.117
40670W        W12396  30.996   2.530  13.357
40671W        W12397  34.399  44.013  14.289
40672W        W12398  42.383  31.547  13.581
40673W        W12399  43.724   8.894  14.319
40674W        W12400  19.442  24.712   2.670
40675W        W12401  21.873  18.215   4.066
40676W        W12402   1.365  24.258  10.641
40677W        W12403  17.082  19.709   4.550
40678W        W12404   7.060  38.122   4.250
40679W        W12405  25.143   3.314  12.454
40680W        W12406  23.961  44.781  12.507
40681W        W12407  28.449  42.438   1.424
40682W        W12408   4.408  44.663  12.034
40683W        W12409  33.605   9.267  11.341
40684W        W12410  32.017  40.046   2.368
40685W        W12411  22.062  32.044  13.863
40686W        W12412   4.882  16.325  14.370
40687W        W12413   4.487  22.954   2.851
40688W        W12414  43.178  24.178   5.057
40689W        W12415  27.421   4.132  14.274
40690W        W12416   4.774  10.649   4.189
40691W        W12417   2.325  34.457  12.066
40692W        W12418  20.722  21.684   4.534
40693W        W12419  43.481  15.211   0.677
40694W        W12420  22.961  29.566  12.883
40695W        W12421  26.612  34.683   4.348
40696W        W12422  28.715  29.044   0.696
40697W        W12423  26.557  30.109   1.031
40698W        W12424  13.283  25.968  11.523
40699W        W12425   0.765   8.586   3.718
40700W        W12426  30.876  17.613   0.655
40701W        W12427   0.889  34.452   2.215
40702W        W12428  30.989  31.104  14.904
40703W        W12429   2.426   6.868  14.310
40704W        W12430  26.924  29.120   3.306
40705W        W12431  25.028  31.103   3.772
40706W        W12432  24.093  28.336  11.223
40707W        W12433  26.973   1.194   2.724
40708W        W12434   3.940  19.451  12.542
40709W        W12435  43.937  36.094  14.479
40710W        W12436   5.365   1.217   4.467
40711W        W12437   7.808   6.300  14.994
40712W        W12438  31.308  42.001  12.932
40713W        W12439  44.146  24.636  12.015
40714W        W12440  26.261   7.221  12.845
40715W        W12441  21.255  25.666  12.404
40716W        W12442  29.490  28.057  13.158
40717W        W12443   7.168   3.653  12.382
40718W        W12444   3.768  31.960   4.081
40719W        W12445  19.289  19.767   2.348
40720W        W12446  11.539  39.559   1.514
40721W        W12447  23.022   9.745  11.506
40722W        W12448   7.088  40.957  10.678
40723W        W12449  35.717  34.569  12.452
40724W        W12450  25.721   8.246   4.214
40725W        W12451   6.701  22.014  13.476
40726W        W12452  28.498  39.494   1.990
40727W        W12453  42.623  31.197  10.725
40728W        W12454  42.342   5.223  13.449
40729W        W12455  35.131  21.197   1.324
40730W        W12456   5.074  32.619  13.935
40731W        W12457   1.364  40.242  14.905
40732W        W12458  37.918  42.436  10.603
40733W        W12459  17.596   5.603  11.197
40734W        W12460  33.697  25.456  12.441
40735W        W12461  42.840  21.953  11.264
40736W        W12462  32.011   0.556   2.185
40737W        W12463  41.278  43.433   2.120
40738W        W12464  13.406  29.670  11.533
40739W        W12465  36.836  14.272   3.169
40740W        W12466  12.871  27.506  14.772
40741W        W12467  23.627  26.192  10.070
40742W        W12468  12.787   4.713  13.734
40743W        W12469  41.432  30.846   3.383
40744W        W12470  38.347  20.702  11.526
40745W        W12471  16.065  32.871   2.340
40746W        W12472  31.015  24.749   4.851
40747W        W12473  38.481  35.111   1.922
40748W        W12474  22.005  19.186   2.295
40749W        W12475  24.816  35.626  11.354
40750W        W12476  19.229  18.441  10.729
40751W        W12477  28.458  42.244   4.187
40752W        W12478  44.711   7.278   4.604
40753W        W12479  27.457  30.230   3.948
40754W        W12480  11.635   9.281   2.340
40755W        W12481  10.146  27.060  10.652
40756W        W12482  25.465  42.003  12.637
40757W        W12483   2.491   7.591  11.531
40758W        W12484   0.725  30.110  12.918
40759W        W12485  36.876  12.078   0.335
40760W        W12486  22.983  28.736  12.295
40761W        W12487  14.265  42.105   2.463
40762W        W12488   4.950  20.228  11.546
40763W        W12489  40.125  38.475  14.374
40764W        W12490   3.812   9.867   3.423
40765W        W12491   8.253  37.897   4.579
40766W        W12492   3.484   5.673   3.373
40767W        W12493  19.970   2.944   3.770
40768W        W12494   7.929  19.529  11.019
40769W        W12495  17.184  28.877  10.661
40770W        W12496  37.758  34.940  11.072
40771W        W12497  29.665  18.538   0.276
40772W        W12498  39.091  35.736   2.623
40773W        W12499  38.501  26.527  11.915
40774W        W12500  22.942  14.486  12.001
40775W        W12501  37.894   3.786  10.669
40776W        W12502  14.562  40.375  11.959
40777W        W12503  21.383  29.466   4.144
40778W        W12504  40.727  38.486   3.721
40779W        W12505  36.571  31.948  11.492
40780W        W12506  22.810  25.657  11.532
40781W        W12507  27.123   0.473   0.524
40782W        W12508   2.630   9.568  12.869
40783W        W12509  32.219  24.382   4.000
40784W        W12510  23.108  23.029   3.651
40785W        W12511  17.729  26.147   3.599
40786W        W12512  13.650   0.540   2.456
40787W        W12513  14.876  36.150   2.599
40788W        W12514  30.631   1.174   2.166
40789W        W12515  11.104  11.282   2.359
40790W        W12516  20.688  35.628   3.988
40791W        W12517  17.228  29.594  14.860
40792W        W12518  27.529  12.072  14.374
40793W        W12519   5.904   5.404  11.348
40794W        W12520  10.444  43.785  10.728
40795W        W12521  32.482  27.707  13.791
40796W        W12522   8.809  16.620  14.934
40797W        W12523  20.479  22.290   1.378
40798W        W12524  18.276  44.170   2.328
40799W        W12525  13.068  19.230  11.844
40800W        W12526  43.457  41.060   1.326
40801W        W12527   8.800  38.556   0.750
40802W        W12528  42.465  38.969  12.630
40803W        W12529  39.960  41.071   4.471
40804W        W12530  15.282  40.873   0.731
40805W        W12531  25.119  42.043   2.420
40806W        W12532  38.175  23.940  14.018
40807W        W12533  30.630  10.255   1.197
40808W        W12534  12.447  30.606   4.912
40809W        W12535  29.994  40.981  11.105
40810W        W12536  42.020  34.149   2.729
40811W        W12537  22.447  15.085   0.710
40812W        W12538  29.013  36.920  12.349
40813W        W12539  34.547  28.200   3.344
40814W        W12540  43.293  43.516  13.322
40815W        W12541   7.995  32.154   0.474
40816W        W12542   9.706  42.903   0.002
40817W        W12543   9.862   8.942  12.057
40818W        W12544   7.859  40.546  14.944
40819W        W12545  31.101  37.500  13.824
40820W        W12546  17.043  20.148  13.948
40821W        W12547  21.276   2.814   1.726
40822W        W12548  28.444  40.932  10.710
40823W        W12549   1.028  39.283   2.709
40824W        W12550  23.457  42.433  11.935
40825W        W12551  20.978  23.964   3.257
40826W        W12552  34.432  14.119   0.855
40827W        W12553   8.338  31.124  11.676
40828W        W12554  14.528  24.104   4.640
40829W        W12555   6.305   8.936   2.215
40830W        W12556  17.257  27.470  12.442
40831W        W12557  29.078  41.785   2.010
40832W        W12558  29.429  40.822   0.461
40833W        W12559  37.503  29.673   1.726
40834W        W12560  20.306  34.981  13.342
40835W        W12561  21.837  19.163  14.504
40836W        W12562  17.485  27.296   1.278
40837W        W12563  40.635  38.877  11.089
40838W        W12564   5.930  37.344   2.443
40839W        W12565   6.146   8.132  12.001
40840W        W12566  10.494  22.684   1.602
40841W        W12567  28.183   4.611   0.034
40842W        W12568  14.142  28.946  11.573
40843W        W12569  40.540  28.523   1.909
40844W        W12570  26.085   3.005   4.958
40845W        W12571  22.147  33.944  13.667
40846W        W12572  21.578   1.863  11.561
40847W        W12573  13.365  14.653   3.804
40848W        W12574  12.206  36.108   0.263
40849W        W12575  15.562  27.729   2.795
40850W        W12576  43.315  36.605   2.754
40851W        W12577  27.149   1.380  13.392
40852W        W12578   8.316  21.425  11.541
40853W        W12579  39.071  24.198  11.948
40854W        W12580  37.859  36.419   0.873
40855W        W12581  27.122  12.441  11.174
40856W        W12582  39.776  33.106   3.718
40857W        W12583  26.334   1.482   0.933
40858W        W12584  10.773  34.958  13.066
40859W        W12585  22.043   2.011   4.377
40860W        W12586  26.061  39.458   2.357
40861W        W12587  32.539  29.688  14.762
40862W        W12588   5.828  16.094  12.498
40863W        W12589  38.781  33.130  13.962
40864W        W12590  30.052  25.594   4.122
40865W        W12591   5.116  11.369   3.414
40866W        W12592  39.132   0.861  11.156
40867W        W12593  20.676  27.075   2.330
40868W        W12594   2.648  11.929  12.521
40869W        W12595  31.602  15.838  11.520
40870W        W12596   3.201  32.391   1.391
40871W        W12597  16.463   1.595   4.131
40872W        W12598  12.692  29.502  14.937
40873W        W12599  43.376   4.090  12.341
40874W        W12600  10.209  27.073   1.665
40875W        W12601  14.219  28.960   4.316
40876W        W12602   0.765   5.004   0.995
40877W        W12603  17.107  29.568  11.686
40878W        W12604  42.612  40.907  13.955
40879W        W12605  18.530  26.952  12.547
40880W        W12606  40.328  23.891  10.869
40881W        W12607  41.271  23.460  13.933
40882W        W12608   6.023   6.986  14.828
40883W        W12609  26.604  21.625   0.679
40884W        W12610  26.518   8.609   3.325
40885W        W12611  44.193  23.105  14.973
40886W        W12612  26.568   2.235   2.319
40887W        W12613  10.047  32.624  14.393
40888W        W12614  15.698  22.250  13.947
40889W        W12615  14.653  13.070   4.193
40890W        W12616  21.581   6.024   0.296
40891W        W12617   3.344  26.914  14.723
40892W        W12618  40.014  16.189  14.562
40893W        W12619   5.569  23.732  12.979
40894W        W12620  34.674  11.229   0.573
40895W        W12621  14.729  12.322   4.854
40896W        W12622  26.977  41.302   2.895
40897W        W12623  37.079  36.924  12.561
40898W        W12624   8.558  29.699  14.900
40899W        W12625  40.473  29.501   4.517
40900W        W12626   0.202   5.149   2.730
40901W        W12627  31.003  39.060   0.315
40902W        W12628  41.391  18.097  10.593
40903W        W12629  11.095  36.492  14.528
40904W        W12630  16.516   5.250  12.440
40905W        W12631  17.526  39.935   2.349
40906W        W12632  10.885  16.115   4.579
40907W        W12633   9.826  34.034  10.181
40908W        W12634  14.638  15.589   1.901
40909W        W12635  33.187  23.045  12.928
40910W        W12636  12.009  29.382   2.141
40911W        W12637  22.705  11.631   1.274
40912W        W12638  31.050  12.230  13.395
40913W        W12639  21.533  37.906  11.349
40914W        W12640  30.951  32.960   4.607
40915W        W12641  28.995   4.943   1.525
40916W        W12642  33.071  19.218   0.329
40917W        W12643  30.958   1.925  11.624
40918W        W12644  38.765  44.073  14.082
40919W        W12645  24.152  42.567  13.156
40920W        W12646  42.314  10.383  12.657
40921W        W12647  13.904   6.860  14.335
40922W        W12648  12.573  20.324   4.619
40923W        W12649  19.862  33.629  14.029
40924W        W12650  39.826   2.266   2.196
40925W        W12651  12.675   9.215   2.634
40926W        W12652  34.645  41.768   3.829
40927W        W12653   0.432  15.236   2.200
40928W        W12654  31.059  23.421   5.181
40929W        W12655  11.536  20.468   1.905
40930W        W12656  39.849  17.045   1.150
40931W        W12657  25.636  27.079  11.331
40932W        W12658  14.083   1.205   3.191
40933W        W12659  36.963  44.845  13.501
40934W        W12660  41.295  16.667  14.266
40935W        W12661  26.911  13.665  11.625
40936W        W12662   7.807  32.876  14.352
40937W        W12663  28.420  13.347  11.522
40938W        W12664  13.212  31.563   2.334
40939W        W12665  15.183  11.023   4.587
40940W        W12666  18.306  19.079  13.397
40941W        W12667   6.477  18.620  11.098
40942W        W12668  36.082  23.781   0.361
40943W        W12669   7.755  10.082  10.289
40944W        W12670  35.146   4.822   0.098
40945W        W12671  28.737  21.642  14.907
40946W        W12672  21.679  26.171   0.832
40947W        W12673  25.427  10.559   1.852
40948W        W12674  15.879  37.762   0.874
40949W        W12675  21.022  28.207   4.901
40950W        W12676  35.348  43.052   1.306
40951W        W12677  16.763  14.113   3.293
40952W        W12678   7.312  36.429   2.071
40953W        W12679   1.806  23.461  13.333
40954W        W12680  35.844  27.207  10.995
40955W        W12681  19.634  11.488   3.667
40956W        W12682   9.099  18.802  14.785
40957W        W12683  15.367   6.724   2.757
40958W        W12684   4.632  16.182   1.723
40959W        W12685  13.588  33.061  14.956
40960W        W12686  42.804  28.469   4.399
40961W        W12687   2.751   5.412   4.555
40962W        W12688   5.324  29.068   1.651
40963W        W12689  39.772  25.212   3.655
40964W        W12690  15.269  13.387   0.578
40965W        W12691  11.319  19.108  13.841
40966W        W12692  39.503  14.298  14.035
40967W        W12693  16.224  13.100  10.616
40968W        W12694  11.598  27.100   3.425
40969W        W12695   8.426  24.658   0.057
40970W        W12696  21.188  17.643   2.434
40971W        W12697  24.095  43.567  14.859
40972W        W12698  44.127   3.053   0.897
40973W        W12699  17.155  30.711   0.757
40974W        W12700  22.572  13.547  11.161
40975W        W12701  20.974  41.329  10.529
40976W        W12702  18.562  37.129  11.125
40977W        W12703  39.092  42.347   3.629
40978W        W12704  22.983  40.766   0.313
40979W        W12705   9.678  41.033  14.829
40980W        W12706   1.209  17.273   3.659
40981W        W12707  44.886   7.733   2.870
40982W        W12708  37.447  42.205   0.316
40983W        W12709  22.051  30.416  10.709
40984W        W12710   0.739  39.927  13.129
40985W        W12711   3.027  26.965   2.458
40986W        W12712  18.817  38.692   4.533
40987W        W12713  23.152   7.066   2.562
40988W        W12714   3.998  11.332  11.102
40989W        W12715  27.837   2.956   4.007
40990W        W12716   9.271  17.536  11.963
40991W        W12717  24.892  15.204  10.678
40992W        W12718  12.895  43.953   0.431
40993W        W12719   9.850   2.385  10.960
40994W        W12720  27.527  27.079   2.785
40995W        W12721  34.704   8.467   1.765
40996W        W12722   9.653  33.687  14.456
40997W        W12723  36.718  32.019  13.694
40998W        W12724  40.439  44.308  13.760
40999W        W12725   9.829  38.381  11.118
41000W        W12726   1.755   6.340   1.872
41001W        W12727  35.908  33.356   2.616
41002W        W12728   4.972  29.093  13.270
41003W        W12729  32.869  34.103   1.501
41004W        W12730  17.814  42.967  13.002
41005W        W12731  19.597  36.459  14.155
41006W        W12732  37.772  24.030   3.662
41007W        W12733  11.333  28.167  11.594
41008W        W12734   1.403  15.296  14.388
41009W        W12735  34.860  29.982   4.411
41010W        W12736  24.226  15.343   1.164
41011W        W12737  28.199  43.969  13.827
41012W        W12738  10.871  13.345   3.617
41013W        W12739   3.875  19.324   1.746
41014W        W12740  18.779  36.288   0.255
41015W        W12741   3.727  36.005  12.420
41016W        W12742   0.382  22.928   0.428
41017W        W12743   6.919  17.067   2.331
41018W        W12744  11.942  39.794  13.765
41019W        W12745  44.429  22.614  14.987
41020W        W12746   1.993  34.129   2.618
41021W        W12747   3.412  26.048  14.804
41022W        W12748  20.979  10.253   1.405
41023W        W12749  21.376  19.526   3.088
41024W        W12750   6.437  37.306  13.706
41025W        W12751   2.925  18.693  11.526
41026W        W12752  21.055  18.699  10.761
41027W        W12753   8.115  33.522   5.007
41028W        W12754  35.566   3.397  13.353
41029W        W12755   2.650  18.666   2.256
41030W        W12756  13.419  38.486  14.912
41031W        W12757   4.429  24.840   2.038
41032W        W12758  42.918  39.398  14.339
41033W        W12759  14.973  14.190  12.002
41034W        W12760   7.357  41.236  11.955
41035W        W12761   7.659  44.555   1.677
41036W        W12762  26.704  16.832   4.558
41037W        W12763  38.126  16.088  12.482
41038W        W12764   0.211  24.570  10.986
41039W        W12765   8.250  12.569  10.445
41040W        W12766  19.059  43.057   2.695
41041W        W12767  16.351   3.935  14.256
41042W        W12768  24.431   1.833  12.948
41043W        W12769   2.192  24.128  12.944
41044W        W12770  17.862  27.147  12.015
41045W        W12771   3.325  41.398  14.033
41046W        W12772  34.300  30.785  13.957
41047W        W12773  28.192   2.007   2.207
41048W        W12774   3.824  15.512   1.813
41049W        W12775  20.492  36.974  12.190
41050W        W12776  24.546  35.513   0.494
41051W        W12777   3.637  33.922  10.838
41052W        W12778  39.214  22.383  11.808
41053W        W12779   3.689  10.349   1.480
41054W        W12780  43.478   9.364  11.663
41055W        W12781  27.468  43.423   2.475
41056W        W12782   5.878  42.042   0.007
41057W        W12783  28.275   9.272   3.071
41058W        W12784   7.320  25.846  11.610
41059W        W12785  36.156  32.468   1.463
41060W        W12786  29.685  31.932   0.698
41061W        W12787  15.377  18.065   1.443
41062W        W12788  44.776  34.555  14.352
41063W        W12789  26.133  25.484   1.169
41064W        W12790   7.655  13.700   5.114
41065W        W12791  44.244   3.533   0.232
41066W        W12792  42.751  30.199  14.051
41067W        W12793  13.740   3.445   1.634
41068W        W12794  27.585  20.894  14.074
41069W        W12795   6.154   6.277   1.761
41070W        W12796  40.698   7.411  12.474
41071W        W12797  35.642  22.078   4.330
41072W        W12798  38.964   3.241  14.281
41073W        W12799   8.622  35.586   0.855
41074W        W12800   7.646  38.026   0.252
41075W        W12801  37.122  21.062  14.064
41076W        W12802   4.929  11.609  12.060
41077W        W12803   2.384  13.604  13.318
41078W        W12804   8.982  26.702   4.073
41079W        W12805  32.520  21.212   1.767
41080W        W12806  23.808  26.676  10.163
41081W        W12807   0.815  20.699  14.174
41082W        W12808   0.706  23.450   2.821
41083W        W12809  12.669  13.281   2.624
41084W        W12810   8.164  33.682   1.914
41085W        W12811   6.707  12.214   3.714
41086W        W12812  33.223  37.228  13.871
41087W        W12813  27.716   5.224   0.789
41088W        W12814  43.975  10.720  13.699
41089W        W12815  28.187   2.449  12.080
41090W        W12816  27.766  28.987   1.834
41091W        W12817   2.538  36.605  12.483
41092W        W12818  15.813  19.570   2.232
41093W        W12819  22.138  20.332  11.491
41094W        W12820  35.413  31.594   2.910
41095W        W12821  41.769  15.509   3.981
41096W        W12822  11.670  13.297  14.875
41097W        W12823  19.599  31.467  13.435
41098W        W12824  36.686  42.440   0.816
41099W        W12825  17.203   9.452  13.340
41100W        W12826   2.286  26.685  11.598
41101W        W12827  27.412  30.652   2.394
41102W        W12828  30.072  23.749  11.563
41103W        W12829   2.590  32.084   0.714
41104W        W12830  14.066  26.900   5.112
41105W        W12831  41.481  18.261   1.341
41106W        W12832  17.770  42.002  13.721
41107W        W12833  19.750  10.064  14.332
41108W        W12834  26.489  39.692   2.606
41109W        W12835  44.721  27.941   1.403
41110W        W12836   9.215  18.330   3.610
41111W        W12837  16.350   9.694  12.584
41112W        W12838  23.673  44.471  13.436
41113W        W12839  39.056  39.797   2.163
41114W        W12840  38.499   4.488  13.269
41115W        W12841  26.883  26.914  11.996
41116W        W12842  29.059  27.992  14.269
41117W        W12843  25.364  41.400  11.469
41118W        W12844  40.785  13.193   4.711
41119W        W12845  30.044  29.156  13.903
41120W        W12846  13.550  35.919   0.331
41121W        W12847   4.561  17.605  11.385
41122W        W12848  25.234  26.154   0.048
41123W        W12849   2.241  10.621  10.795
41124W        W12850  42.004  10.175  13.020
41125W        W12851  29.181  33.385   0.309
41126W        W12852  39.759  39.053   2.345
41127W        W12853  39.301  27.623  10.983
41128W        W12854   0.655   1.026   1.906
41129W        W12855   9.446  18.520  14.312
41130W        W12856   1.092  43.451   1.535
41131W        W12857  43.412   8.331   4.769
41132W        W12858   2.930   3.679  14.849
41133W        W12859  37.437  40.504   2.899
41134W        W12860  29.095  23.773  12.533
41135W        W12861  32.367  35.956  13.788
41136W        W12862  37.974  26.220   3.885
41137W        W12863  30.032  36.021  13.534
41138W        W12864   6.662  26.102   0.900
41139W        W12865  31.844  39.021   4.613
41140W        W12866  14.604   6.716  13.392
41141W        W12867  29.737  25.175  12.152
41142W        W12868  21.761  23.077   2.195
41143W        W12869   3.379  18.084  11.135
41144W        W12870  11.408   7.902   4.335
41145W        W12871  24.145   1.210   2.755
41146W        W12872   3.456   0.004  11.919
41147W        W12873  37.103   7.166  11.899
41148W        W12874  36.369   0.784  14.231
41149W        W12875   6.569  23.503   3.865
41150W        W12876  26.260   1.355   4.052
41151W        W12877   7.398  33.399   0.147
41152W        W12878  17.809   9.929  11.134
41153W        W12879  43.185   9.914  12.800
41154W        W12880  30.698  28.003   3.261
41155W        W12881   6.600  38.331  12.866
41156W        W12882  21.026   4.275   2.024
41157W        W12883  44.123  13.699   1.744
41158W        W12884  23.536  14.146  13.581
41159W        W12885  22.017   3.814  11.373
41160W        W12886  43.882  40.255  14.934
41161W        W12887  26.456  32.940   3.213
41162W        W12888  43.859  41.239  12.614
41163W        W12889  21.231  15.726  12.006
41164W        W12890   7.269  23.606  13.448
41165W        W12891  29.580  32.959  13.989
41166W        W12892  25.037  41.554  13.842
41167W        W12893  28.011  23.503   4.975
41168W        W12894  32.100   1.353   4.137
41169W        W12895   6.836  34.393   1.398
41170W        W12896  39.385  20.997   3.235
41171W        W12897  28.000  13.900  14.262
41172W        W12898   3.014   0.606  14.011
41173W        W12899  19.563  28.185   0.207
41174W        W12900  30.483  10.889   4.767
41175W        W12901  44.720  20.665   4.119
41176W        W12902  30.091  12.355   3.944
41177W        W12903   4.272  22.159  11.466
41178W        W12904  18.961  42.915   1.181
41179W        W12905  29.965  16.670  12.858
41180W        W12906  41.565  12.514  11.253
41181W        W12907   4.225   5.209   5.676
41182W        W12908  43.424  38.253  11.076
41183W        W12909  32.527  34.954   2.948
41184W        W12910  30.651  19.218   2.378
41185W        W12911  20.265  30.205   4.752
41186W        W12912  11.835  17.834   3.662
41187W        W12913   0.839   7.718   2.857
41188W        W12914  44.707  41.045  14.947
41189W        W12915  37.130   2.006  12.873
41190W        W12916  33.589  20.177  13.415
41191W        W12917  13.624  23.727  12.742
41192W        W12918  27.685  20.519   4.839
41193W        W12919  23.577  18.640   0.540
41194W        W12920  16.676  29.682   3.496
41195W        W12921  39.325  25.048   2.119
41196W        W12922  32.640  19.096  12.784
41197W        W12923  42.858  32.448   4.405
41198W        W12924   2.756   9.908   3.692
41199W        W12925  33.262  12.206   1.672
41200W        W12926  42.543  33.440   4.175
41201W        W12927   8.574  41.970   4.442
41202W        W12928  18.500  29.217   0.340
41203W        W12929   8.727  32.444   2.709
41204W        W12930  28.610  19.327   0.226
41205W        W12931  15.918  38.029   0.427
41206W        W12932   2.326  26.204   2.560
41207W        W12933  22.719   1.833  13.497
41208W        W12934  19.978  14.199  11.983
41209W        W12935  12.269   6.448   1.388
41210W        W12936  29.166  12.854   4.796
41211W        W12937  44.185  12.221  11.562
41212W        W12938  26.517   2.035   4.203
41213W        W12939  30.683  25.086   0.304
41214W        W12940  22.221   6.654   2.209
41215W        W12941  12.874   0.411   3.005
41216W        W12942  16.527  34.342  12.534
41217W        W12943  41.967  44.021  11.608
41218W        W12944   8.135   1.396  12.053
41219W        W12945  44.933  16.154   3.794
41220W        W12946  38.385  22.186   3.334
41221W        W12947  40.774   7.681  10.942
41222W        W12948  34.459  35.104  14.277
41223W        W12949  38.435  25.770   2.857
41224W        W12950  30.640  32.565   4.692
41225W        W12951  33.462  35.683  10.780
41226W        W12952   6.963  43.558   4.212
41227W        W12953   1.287  14.280   0.162
41228W        W12954  15.701  14.211  11.456
41229W        W12955  43.198  25.388  14.543
41230W        W12956  37.924  27.161  12.792
41231W        W12957  25.006  42.767  14.494
41232W        W12958  37.995   9.861  13.415
41233W        W12959  33.808   7.684   1.893
41234W        W12960  29.924  36.067   3.672
41235W        W12961  32.862   0.396   2.894
41236W        W12962  44.320  12.323   3.916
41237W        W12963  43.828   0.845   1.935
41238W        W12964  41.916  17.656  11.068
41239W        W12965  12.235   5.198  14.266
41240W        W12966  19.070  22.064   4.632
41241W        W12967  38.804  11.192  14.457
41242W        W12968  31.048  35.035  12.378
41243W        W12969  39.830  22.580  10.917
41244W        W12970  40.927  24.877  10.632
41245W        W12971   1.149  39.350  14.936
41246W        W12972  41.537  44.014  13.783
41247W        W12973  23.651  10.712  14.399
41248W        W12974  12.764  14.700   4.489
41249W        W12975  21.462  33.874   3.121
41250W        W12976  36.327  12.687  14.544
41251W        W12977  31.155   1.204   1.308
41252W        W12978  16.618  32.712  13.871
41253W        W12979  10.892  36.568   1.833
41254W        W12980  25.452  15.607  10.892
41255W        W12981  38.901   9.264  11.102
41256W        W12982  13.277  40.212  11.469
41257W        W12983  18.712  28.223   2.837
41258W        W12984   7.634  15.332   5.268
41259W        W12985  18.722  14.371   1.333
41260W        W12986  30.617  39.868  12.857
41261W        W12987   3.279  32.035  14.952
41262W        W12988   0.741  32.623   0.595
41263W        W12989  44.250   0.708  12.497
41264W        W12990   7.852  38.505  13.399
41265W        W12991  34.842   7.205   4.615
41266W        W12992   6.879  43.849  11.435
41267W        W12993  41.799  42.606   1.349
41268W        W12994   8.230  32.634   5.013
41269W        W12995  12.939  40.378  13.414
41270W        W12996  37.086  43.385   0.937
41271W        W12997   9.749  34.937  12.943
41272W        W12998  18.384  33.991  12.872
41273W        W12999  44.289   3.238  14.404
41274W        W13000   7.112  19.004   3.292
41275W        W13001   5.901  35.974  13.303
41276W        W13002  13.112   3.322   2.202
41277W        W13003  12.767   2.962  13.461
41278W        W13004  26.732  26.521  12.485
41279W        W13005   0.476  34.030   0.540
41280W        W13006  23.263  12.736   5.048
41281W        W13007  28.947  31.071  13.827
41282W        W13008  40.077  26.061  13.122
41283W        W13009   3.793   8.720   0.407
41284W        W13010  36.533   8.684  10.561
41285W        W13011  38.540  34.567  14.500
41286W        W13012  20.031   5.434  13.852
41287W        W13013  24.204  41.045   1.744
41288W        W13014  41.659  39.045  14.852
41289W        W13015  18.955  16.297   4.735
41290W        W13016   5.267   0.360  13.367
41291W        W13017   0.772  40.548   0.603
41292W        W13018  12.229   4.633   0.895
41293W        W13019  38.064  26.863   2.503
41294W        W13020  15.792   6.928   1.746
41295W        W13021  11.142  31.108   0.780
41296W        W13022  16.287  25.556   1.217
41297W        W13023  22.493  34.497  11.010
41298W        W13024   7.626   2.969  14.357
41299W        W13025   6.197  33.584  10.260
41300W        W13026  42.013  38.445   1.865
41301W        W13027  15.749  36.823  14.844
41302W        W13028  25.690   7.994  11.157
41303W        W13029  13.531   1.224  14.407
41304W        W13030   6.724   9.262  13.365
41305W        W13031  36.885   6.843   3.150
41306W        W13032   1.340  22.952  12.387
41307W        W13033  33.424  41.333   2.313
41308W        W13034  14.700  39.289  12.981
41309W        W13035  43.480   2.180  14.080
41310W        W13036  13.186   4.802  12.839
41311W        W13037  22.668  10.018   4.115
41312W        W13038  31.971  39.094   1.452
41313W        W13039  29.070  27.412  13.462
41314W        W13040  29.625  35.334  12.081
41315W        W13041  27.189   8.416  12.857
41316W        W13042  21.931  24.558  12.857
41317W        W13043  29.559  16.302   4.333
41318W        W13044   4.690  25.570  11.569
41319W        W13045  20.698   3.452  13.020
41320W        W13046  30.589  30.765  14.956
41321W        W13047  17.590  33.347   3.567
41322W        W13048  36.631  18.332   1.613
41323W        W13049  16.669  18.000  14.885
41324W        W13050  30.996  21.670   3.285
41325W        W13051  34.219  26.194   3.218
41326W        W13052   3.256   8.182   2.873
41327W        W13053  41.534  31.313   2.098
41328W        W13054  28.451   5.473   2.263
41329W        W13055  25.460  31.120   0.257
41330W        W13056  40.505   8.737   4.934
41331W        W13057  23.716  44.789  11.239
41332W        W13058  42.380  10.449  10.318
41333W        W13059  15.878  27.793   4.544
41334W        W13060  19.187  36.055   0.633
41335W        W13061  28.637  32.518  10.667
41336W        W13062  40.737  13.313  12.062
41337W        W13063  12.132  16.293  12.972
41338W        W13064  14.506   5.024   4.267
41339W        W13065  17.072  41.978   2.333
41340W        W13066  31.562  33.402  13.253
41341W        W13067  23.524   7.714  11.215
41342W        W13068  24.162  28.582  11.663
41343W        W13069  22.906  38.003  12.121
41344W        W13070  31.856  18.499  12.050
41345W        W13071  28.550  39.374  14.299
41346W        W13072   3.677  42.075  12.950
41347W        W13073  13.852   4.825  13.591
41348W        W13074   8.273  25.214   1.321
41349W        W13075  18.017  37.412   3.298
41350W        W13076  15.783  23.779   0.877
41351W        W13077  33.453  28.478  11.528
41352W        W13078   9.761  15.303   3.800
41353W        W13079  21.606  15.657  11.177
41354W        W13080  43.490   3.747   2.834
41355W        W13081  42.442   1.470   0.432
41356W        W13082  32.455   9.664  14.286
41357W        W13083  22.747   0.705   2.793
41358W        W13084  13.225  20.317   3.602
41359W        W13085  15.591  21.422  12.875
41360W        W13086  34.158  32.019   0.181
41361W        W13087  25.486   5.212   2.666
41362W        W13088  29.967  32.443  12.831
41363W        W13089  16.155  43.795  10.772
41364W        W13090  29.945  15.142   2.309
41365W        W13091  35.629  23.740  11.070
41366W        W13092  42.727  26.957   2.867
41367W        W13093  23.287   8.470   0.354
41368W        W13094  17.008   0.922  14.338
41369W        W13095  14.805  22.669   0.463
41370W        W13096  11.241  11.076   1.385
41371W        W13097   3.755  16.315   3.788
41372W        W13098  11.235  22.082  14.230
41373W        W13099  11.649  10.192   5.531
41374W        W13100   4.668  34.522  14.423
41375W        W13101  42.797  14.549  14.545
41376W        W13102  41.407  10.602  13.566
41377W        W13103  17.788  17.059   0.013
41378W        W13104  16.142  27.652  10.030
41379W        W13105  36.031  19.910  12.841
41380W        W13106   8.118   2.454   4.980
41381W        W13107  40.807  39.065   0.919
41382W        W13108   2.396  27.196  11.244
41383W        W13109  17.898  39.950   3.722
41384W        W13110  30.987   3.212   5.397
41385W        W13111  24.570  23.735   3.208
41386W        W13112  37.152  37.813  11.669
41387W        W13113  31.048  33.635   4.137
41388W        W13114  25.294   4.280   2.621
41389W        W13115  25.644  14.345  11.487
41390W        W13116  29.290  11.102  11.206
41391W        W13117  44.326   9.814  14.393
41392W        W13118  43.431  44.391  13.936
41393W        W13119  14.541  38.952   1.711
41394W        W13120  41.341  11.328   0.729
41395W        W13121  24.247  27.182   4.294
41396W        W13122  12.713  15.198  11.654
41397W        W13123  11.613  38.424   4.573
41398W        W13124  26.473  25.116  12.858
41399W        W13125  35.310  10.246   3.926
41400W        W13126  20.695  25.180   0.894
41401W        W13127  22.867  44.360  14.073
41402W        W13128   9.679   8.449  12.010
41403W        W13129   0.473  31.548  10.653
41404W        W13130   7.654  36.766   4.148
41405W        W13131  34.038  11.072  14.914
41406W        W13132  23.718   6.726   1.622
41407W        W13133  36.883  43.492  13.913
41408W        W13134   2.730  34.670  12.351
41409W        W13135  27.380  17.434  11.493
41410W        W13136  22.988  19.546   0.876
41411W        W13137  13.113  32.980  14.274
41412W        W13138  10.667  15.783   1.134
41413W        W13139  39.993  34.098   0.856
41414W        W13140  22.700  21.952   2.300
41415W        W13141  26.669  36.624   0.359
41416W        W13142  30.174  25.211   0.251
41417W        W13143  42.807  10.250  13.571
41418W        W13144   8.399  32.142  10.140
41419W        W13145  36.163  27.578  14.555
41420W        W13146  41.986   2.511  13.894
41421W        W13147  35.198  17.224  12.801
41422W        W13148  42.858  28.695   2.904
41423W        W13149  42.280  44.821  11.526
41424W        W13150  16.307  10.295   4.212
41425W        W13151  39.836  26.383   4.645
41426W        W13152  15.108  22.715  10.474
41427W        W13153  43.074  11.664  12.142
41428W        W13154  22.560  29.694   1.680
41429W        W13155  12.146  19.604   1.212
41430W        W13156  20.171   4.835   2.776
41431W        W13157  18.333  10.090   4.300
41432W        W13158  34.809   1.042   2.828
41433W        W13159  40.365   3.719   0.339
41434W        W13160   1.805  14.611   0.959
41435W        W13161   0.264  35.995   4.642
41436W        W13162  36.388  44.512   3.581
41437W        W13163  20.343   0.785   4.232
41438W        W13164  16.067  23.076   1.345
41439W        W13165  15.130  37.041   2.260
41440W        W13166  32.928   9.245   0.448
41441W        W13167  11.286   7.109   4.804
41442W        W13168   9.913  19.561   3.279
41443W        W13169  25.856   6.152  10.493
41444W        W13170  20.701  39.890  13.023
41445W        W13171   1.530  19.673  12.831
41446W        W13172  12.349  12.616   1.607
41447W        W13173  32.017   8.080  10.719
41448W        W13174   7.676  33.530   4.688
41449W        W13175   4.972  29.650  11.599
41450W        W13176   4.594   4.146   5.119
41451W        W13177  38.530  32.978   0.762
41452W        W13178   8.373  22.164  10.996
41453W        W13179  14.135  23.747  14.389
41454W        W13180  44.139  28.588   4.884
41455W        W13181  25.904  22.041  14.870
41456W        W13182  26.746  34.616  12.637
41457W        W13183   3.398  35.016   1.959
41458W        W13184  28.963  12.183   1.434
41459W        W13185  34.351  19.784   3.816
41460W        W13186  17.307  39.814   1.010
41461W        W13187  38.311  11.650   4.076
41462W        W13188   0.978   7.162  11.953
41463W        W13189   0.518  17.489  10.467
41464W        W13190  26.396   0.356  11.523
41465W        W13191  13.735  34.560  14.007
41466W        W13192  42.962  39.918   2.467
41467W        W13193  12.791  16.288   3.859
41468W        W13194  20.019  12.352  13.344
41469W        W13195  40.844  32.177   1.273
41470W        W13196  38.982  15.669  14.799
41471W        W13197   7.964  11.223   4.012
41472W        W13198  37.253  41.214   1.711
41473W        W13199   1.686  21.247  11.559
41474W        W13200  32.610   5.225  11.490
41475W        W13201  11.026  36.498   4.097
41476W        W13202  18.591  39.623  10.610
41477W        W13203   3.073  18.116   2.788
41478W        W13204  25.972  35.976  12.404
41479W        W13205  29.420  30.441   4.650
41480W        W13206  26.493   2.927  12.586
41481W        W13207   9.629  24.091   4.555
41482W        W13208  44.823   3.757   4.513
41483W        W13209  33.242   7.166  13.955
41484W        W13210  12.391  26.549   3.888
41485W        W13211  15.211  14.356   1.227
41486W        W13212  13.365  23.177  12.135
41487W        W13213   9.897  31.904  11.197
41488W        W13214  13.865  43.512  13.997
41489W        W13215  17.606   4.715   1.064
41490W        W13216   4.199  36.523  13.156
41491W        W13217   1.341  43.547  14.181
41492W        W13218   6.287  32.020   4.114
41493W        W13219  33.334  28.145  12.650
41494W        W13220  11.398  36.967  14.422
41495W        W13221  31.008  30.522   2.317
41496W        W13222  44.744   9.613  11.215
41497W        W13223  43.452   4.058   0.622
41498W        W13224  43.442  23.106   0.445
41499W        W13225   3.663  18.471   0.815
41500W        W13226  33.958   4.258   0.949
41501W        W13227  32.031  33.212   1.310
41502W        W13228  25.531  23.822  13.590
41503W        W13229  34.222  27.489  12.037
41504W        W13230  27.117  26.551  13.294
41505W        W13231  34.163   0.284   2.688
41506W        W13232  30.964  22.313   3.266
41507W        W13233  24.561  37.303  11.643
41508W        W13234  11.768   6.870  12.084
41509W        W13235   3.749  26.661  14.357
41510W        W13236  39.617  19.765  12.388
41511W        W13237  12.751  28.164   3.792
41512W        W13238  25.248  29.144  11.978
41513W        W13239   7.563  39.454  11.773
41514W        W13240  16.239  33.911  13.248
41515W        W13241  20.189  25.906  14.886
41516W        W13242  44.548  23.249  14.622
41517W        W13243   3.351  35.994   0.368
41518W        W13244  41.323  27.380  10.684
41519W        W13245  33.378  39.768  10.225
41520W        W13246  31.966  19.852   1.353
41521W        W13247  21.055  34.950   4.821
41522W        W13248   9.956  32.208   2.141
41523W        W13249  22.966   1.684   3.241
41524W        W13250  22.526  11.108  11.934
41525W        W13251  43.778   6.406   2.350
41526W        W13252  43.231  11.138  11.315
41527W        W13253  25.668   5.039  14.786
41528W        W13254  19.401  32.946   2.417
41529W        W13255  40.434  10.905   2.723
41530W        W13256  10.148  30.087   0.893
41531W        W13257  10.365   0.363  12.534
41532W        W13258  10.412  13.570  12.119
41533W        W13259  10.381   3.727  12.429
41534W        W13260  32.101  23.947  14.665
41535W        W13261  19.563   9.287   3.728
41536W        W13262  32.546  39.721   0.317
41537W        W13263  34.097  14.745   3.818
41538W        W13264  38.349  42.857   2.503
41539W        W13265   6.450  26.811   3.768
41540W        W13266  38.055  39.469  13.247
41541W        W13267  41.309  43.372   1.427
41542W        W13268  34.629  37.515  10.460
41543W        W13269  42.968   9.451  14.363
41544W        W13270   5.687  39.174  14.960
41545W        W13271   5.699  16.365   4.746
41546W        W13272  26.548  23.061  13.861
41547W        W13273  26.267  15.003  14.284
41548W        W13274  44.650  10.406  13.301
41549W        W13275   4.284  16.310   2.245
41550W        W13276   4.733  33.075   0.849
41551W        W13277  24.926  22.795  14.323
41552W        W13278  18.810  15.038   0.929
41553W        W13279  37.232   4.890   1.309
41554W        W13280   2.409  23.672  12.879
41555W        W13281  15.664  38.048  12.367
41556W        W13282  12.697  21.780   1.849
41557W        W13283  28.444   7.290  12.383
41558W        W13284  32.099  37.479  14.286
41559W        W13285  42.107  10.880  14.042
41560W        W13286  25.348  28.921  11.176
41561W        W13287  28.686  19.537   1.456
41562W        W13288  29.149   4.686   3.389
41563W        W13289  15.666   9.714   2.308
41564W        W13290  42.385  19.037   0.507
41565W        W13291  13.984  40.781  10.623
41566W        W13292  29.558  37.362   1.318
41567W        W13293  44.762  20.631   1.055
41568W        W13294  43.867  30.413  13.827
41569W        W13295  41.389  12.176   1.914
41570W        W13296   2.881  32.715  12.578
41571W        W13297  22.632  19.876   5.082
41572W        W13298  41.743  16.581   1.054
41573W        W13299  41.294  29.137  12.008
41574W        W13300  44.746   9.179  14.932
41575W        W13301   3.861  36.085   1.633
41576W        W13302  38.585  38.900   3.668
41577W        W13303   3.233  40.361  10.766
41578W        W13304  42.013  34.848   4.588
41579W        W13305  43.990   4.901  13.779
41580W        W13306  16.538  42.802  10.776
41581W        W13307  12.685  28.220  13.904
41582W        W13308  35.301  32.117  12.887
41583W        W13309  24.169   0.170   9.817
41584W        W13310  41.702  11.870   2.785
41585W        W13311  31.740  39.683  12.124
41586W        W13312  43.332  41.356   1.741
41587W        W13313   9.630  39.966  12.066
41588W        W13314  41.299   8.718   2.119
41589W        W13315   9.673  15.196  12.408
41590W        W13316  39.261  27.448   2.664
41591W        W13317  41.514  39.454   3.416
41592W        W13318  11.892  19.056  13.695
41593W        W13319  34.181  41.072  10.762
41594W        W13320  17.707  40.953  12.024
41595W        W13321  38.283  22.072  11.919
41596W        W13322  32.413  16.019  14.940
41597W        W13323  42.014  22.979  14.374
41598W        W13324  10.320   6.216   0.062
41599W        W13325  39.072   5.760   4.381
41600W        W13326   7.678  42.342   2.561
41601W        W13327  42.435  19.784   1.903
41602W        W13328   0.791   4.762  12.105
41603W        W13329  43.253  14.762   1.276
41604W        W13330  18.231  30.414   4.825
41605W        W13331  24.810  35.552   1.453
41606W        W13332  13.282  10.389  14.651
41607W        W13333  24.390  15.109  10.657
41608W        W13334  43.278  10.937  13.449
41609W        W13335  11.365  43.197   2.413
41610W        W13336  27.272  42.305   4.258
41611W        W13337  31.750  38.684  10.357
41612W        W13338  44.983   3.473  11.725
41613W        W13339  26.709  38.928  13.542
41614W        W13340  26.180  11.321  13.879
41615W        W13341  42.980   1.583  11.149
41616W        W13342  34.687  16.052  13.732
41617W        W13343  27.362  31.729   0.917
41618W        W13344  26.261   8.283  12.867
41619W        W13345  26.454  44.971  13.946
41620W        W13346  18.043  24.192   4.842
41621W        W13347  10.789   8.579   2.529
41622W        W13348  10.773   6.340  14.411
41623W        W13349  24.655  15.627   1.340
41624W        W13350  43.373   2.997  11.430
41625W        W13351  35.086  21.245  13.374
41626W        W13352  10.534  27.173  14.862
41627W        W13353  15.775  43.876   0.388
41628W        W13354  40.546  23.936   2.308
41629W        W13355   5.301  42.394  13.006
41630W        W13356  17.125   1.781  13.213
41631W        W13357   3.893   3.692  14.809
41632W        W13358  43.870  41.534   3.369
41633W        W13359  37.266  29.618   0.240
41634W        W13360  15.204   9.051   2.218
41635W        W13361  15.030  42.851   4.565
41636W        W13362  26.028  21.047  10.447
41637W        W13363  42.468  12.163   3.431
41638W        W13364  43.952  31.875   0.936
41639W        W13365  31.502   5.316   0.733
41640W        W13366  12.492  41.409   4.224
41641W        W13367  34.966  19.205  11.120
41642W        W13368  22.243  22.061   2.710
41643W        W13369  44.415  40.708   4.803
41644W        W13370  43.997  44.998   1.342
41645W        W13371  25.629  10.200   4.340
41646W        W13372  32.128  13.821   4.548
41647W        W13373  26.674  11.419   1.670
41648W        W13374  20.056  26.701  11.407
41649W        W13375  11.344  13.456   2.849
41650W        W13376  36.105  43.258  12.519
41651W        W13377  15.200  10.500   4.606
41652W        W13378  30.149  19.688  14.856
41653W        W13379  18.857   6.189   4.987
41654W        W13380   4.352  28.605  11.847
41655W        W13381  39.352   9.161   0.958
41656W        W13382  34.423  25.075   2.961
41657W        W13383   8.262  20.369  13.029
41658W        W13384  14.855  31.028  11.650
41659W        W13385  17.438  40.504  14.727
41660W        W13386  36.343   0.858  14.748
41661W        W13387  27.473   3.947  14.792
41662W        W13388   8.795  34.124  12.952
41663W        W13389  34.046  24.809  13.928
41664W        W13390  39.389  33.955   4.580
41665W        W13391  22.562  28.389  10.637
41666W        W13392   1.812  23.460   0.472
41667W        W13393  32.007  39.942  12.484
41668W        W13394  11.664   0.825   4.476
41669W        W13395  41.900   3.279  14.397
41670W        W13396  37.734  19.500  11.512
41671W        W13397  11.113  37.971   3.776
41672W        W13398  22.690  21.306   2.904
41673W        W13399  29.971  10.657   3.160
41674W        W13400  17.551  31.055   0.284
41675W        W13401   4.280  13.174   2.118
41676W        W13402   9.266  18.064  13.654
41677W        W13403  23.604  25.872  12.982
41678W        W13404   2.622  30.017   2.704
41679W        W13405  31.035  24.785   5.366
41680W        W13406  16.405  35.314  13.443
41681W        W13407   6.081  36.823   0.470
41682W        W13408  44.431  35.755   2.895
41683W        W13409  14.794  38.607  11.177
41684W        W13410  15.829  31.925  10.386
41685W        W13411  22.060  18.956   0.867
41686W        W13412  44.515  32.507   2.924
41687W        W13413   9.135  11.630   0.296
41688W        W13414  28.262  21.134   3.296
41689W        W13415  33.039  16.619  14.107
41690W        W13416  13.618  38.378  12.479
41691W        W13417   4.631  29.150  12.880
41692W        W13418  21.480   9.175  13.383
41693W        W13419  36.793  44.311   1.200
41694W        W13420   9.380  39.969   0.417
41695W        W13421  38.068  10.094  14.960
41696W        W13422  24.926  19.192  11.475
41697W        W13423   1.385   6.975   2.487
41698W        W13424   8.673   6.686   1.754
41699W        W13425  10.394  18.798   4.157
41700W        W13426   0.966  31.494   3.231
41701W        W13427  31.575  36.832  12.187
41702W        W13428  41.341  40.551   4.264
41703W        W13429  22.603  24.697  14.505
41704W        W13430  25.531  15.444   2.202
41705W        W13431  33.239  16.089   0.378
41706W        W13432  22.359  25.154   4.646
41707W        W13433  44.913  38.023   1.998
41708W        W13434  33.503  39.880   3.172
41709W        W13435   1.183  13.116  13.410
41710W        W13436  33.718  19.333  11.682
41711W        W13437  31.555   3.372   0.776
41712W        W13438  27.664  19.489  10.699
41713W        W13439  17.460  30.020  13.942
41714W        W13440  37.852  14.585   3.766
41715W        W13441  23.158  26.683  13.382
41716W        W13442  40.307  16.799   2.791
41717W        W13443  22.092  29.044   3.629
41718W        W13444   8.894  11.859  13.394
41719W        W13445  35.668  20.362  14.503
41720W        W13446   1.801  23.472   3.248
41721W        W13447   5.759  32.317  13.394
41722W        W13448  25.791  35.004  12.127
41723W        W13449  38.748  12.638  10.333
41724W        W13450  30.609  23.747   0.208
41725W        W13451  43.022  36.330   0.312
41726W        W13452  23.822  37.986  13.877
41727W        W13453  24.497  41.315   3.235
41728W        W13454  19.742  17.106   4.603
41729W        W13455  28.465  16.027   3.401
41730W        W13456  36.024  12.765  11.609
41731W        W13457  38.328  36.332  12.897
41732W        W13458   6.649  15.359  11.674
41733W        W13459  19.010  44.254  14.942
41734W        W13460  27.975   9.240   1.681
41735W        W13461   3.432  44.334   3.613
41736W        W13462  25.031  43.912  13.806
41737W        W13463  22.137   3.182   1.538
41738W        W13464  34.568  40.090   0.250
41739W        W13465   0.645  41.102   4.648
41740W        W13466  20.611  19.508  13.526
41741W        W13467  24.052  26.769   2.908
41742W        W13468  26.584  34.658   1.876
41743W        W13469  21.071  18.632   0.201
41744W        W13470  44.293   7.285   2.326
41745W        W13471  35.544  14.117  10.946
41746W        W13472   2.234   5.373   4.543
41747W        W13473   7.152  10.785  12.853
41748W        W13474  21.591  44.330  11.879
41749W        W13475  32.334  15.429  11.336
41750W        W13476   3.275  11.332   4.283
41751W        W13477  41.149  38.941   3.414
41752W        W13478   8.565  36.085  10.958
41753W        W13479  38.321  39.689  12.854
41754W        W13480   8.738  14.061   1.809
41755W        W13481  33.869  19.510   3.701
41756W        W13482  34.349  22.074   3.747
41757W        W13483  17.196  32.695  14.310
41758W        W13484  26.060  39.024   3.567
41759W        W13485  31.030  19.004   1.671
41760W        W13486  22.000   8.239   1.755
41761W        W13487   4.242  42.391   1.434
41762W        W13488   9.988  42.644   1.391
41763W        W13489  29.552  23.899   2.539
41764W        W13490   3.644  25.102   5.113
41765W        W13491  29.016  16.398  12.511
41766W        W13492  20.356  18.196  10.248
41767W        W13493  11.617   0.657   1.302
41768W        W13494  35.320  24.431   4.186
41769W        W13495  37.024  30.107  11.680
41770W        W13496   0.478   6.889   2.236
41771W        W13497  43.414  26.447  10.334
41772W        W13498  39.984  26.152  14.126
41773W        W13499  27.261   0.055  10.663
41774W        W13500  22.947  19.500  14.213
41775W        W13501  28.940  32.975  12.546
41776W        W13502   4.153  11.753  13.752
41777W        W13503   8.941  14.624   4.778
41778W        W13504  39.840  41.402   3.569
41779W        W13505  15.695  18.273  14.784
41780W        W13506  28.536  28.058  10.248
41781W        W13507  39.259  10.322  10.740
41782W        W13508   4.893  13.302  12.702
41783W        W13509  13.804  37.108   0.060
41784W        W13510  33.946   4.981   3.225
41785W        W13511  41.533  23.353  12.605
41786W        W13512  27.640  13.546  13.146
41787W        W13513   5.591  14.098  14.972
41788W        W13514  24.530  14.799   1.781
41789W        W13515  28.591  23.948  12.393
41790W        W13516  37.717  14.091  11.605
41791W        W13517  32.604   8.213  13.086
41792W        W13518   5.996  10.355   2.624
41793W        W13519   1.362  27.656   4.479
41794W        W13520  21.896  39.763  14.410
41795W        W13521  29.925  15.446   2.760
41796W        W13522   6.253   0.271  13.371
41797W        W13523  43.687   8.019  14.313
41798W        W13524  43.276   8.162  12.897
41799W        W13525   4.454   7.354   0.428
41800W        W13526   4.720  41.344  11.140
41801W        W13527  42.880  14.571   3.356
41802W        W13528  22.226   4.883   2.843
41803W        W13529  26.041   6.434  14.432
41804W        W13530  28.420  11.256  12.955
41805W        W13531  42.769  24.104   4.735
41806W        W13532  33.890  42.892  10.929
41807W        W13533  12.855  43.951  12.814
41808W        W13534   7.445  44.775  10.690
41809W        W13535   4.193   1.645   4.220
41810W        W13536  32.922  15.152  13.801
41811W        W13537  32.500  35.151  13.676
41812W        W13538   2.277  31.991  12.358
41813W        W13539  23.424   0.828   9.981
41814W        W13540  12.858  20.046   3.848
41815W        W13541  38.118  18.208  12.590
41816W        W13542  27.182  17.581   0.492
41817W        W13543  24.501  12.172  13.605
41818W        W13544  39.684  41.933   2.785
41819W        W13545   7.272  13.828   1.874
41820W        W13546  17.648   1.390   2.277
41821W        W13547  17.765  16.970   2.873
41822W        W13548  22.267  30.057  13.982
41823W        W13549  43.360  14.827   4.936
41824W        W13550  44.055  10.274   4.182
41825W        W13551  28.774  35.590  14.500
41826W        W13552  35.596  22.612   2.754
41827W        W13553  33.931   6.942   3.204
41828W        W13554  21.255  33.608  11.427
41829W        W13555  35.033  33.985  11.597
41830W        W13556  33.031  13.835   2.299
41831W        W13557  38.925  18.110  12.496
41832W        W13558   9.828  35.600   2.139
41833W        W13559  32.675  24.610   4.155
41834W        W13560   3.458  26.957   0.822
41835W        W13561  39.054  19.022   3.474
41836W        W13562  18.871  38.323  13.165
41837W        W13563  25.500  31.089   4.587
41838W        W13564   5.277  23.308   1.220
41839W        W13565   1.794   2.253  11.586
41840W        W13566  21.335  27.454   9.761
41841W        W13567  26.135  40.329   0.019
41842W        W13568  37.982  18.544   4.376
41843W        W13569  33.686   5.260  14.309
41844W        W13570  22.732  18.435   2.160
41845W        W13571   2.278   9.029  14.727
41846W        W13572  39.401   4.182   4.711
41847W        W13573  15.641  42.484   0.860
41848W        W13574  21.069  15.187  13.430
41849W        W13575  30.095   7.610  11.890
41850W        W13576   4.468  39.827   0.987
41851W        W13577  19.476   7.714  14.550
41852W        W13578   1.527  11.777   0.829
41853W        W13579  28.850  15.841   4.586
41854W        W13580  35.793  44.967  13.024
41855W        W13581  12.082  18.324  11.075
41856W        W13582   4.286  30.642   0.886
41857W        W13583  11.972  36.131  14.379
41858W        W13584  41.306  36.890   2.210
41859W        W13585  29.682   7.614   2.665
41860W        W13586  20.737  27.712  12.502
41861W        W13587  36.601  15.645  14.896
41862W        W13588  24.172  13.688  12.069
41863W        W13589  32.840   4.311   3.613
41864W        W13590  11.619   9.221  11.492
41865W        W13591  43.930  41.745  12.656
41866W        W13592  40.274   7.354  13.820
41867W        W13593   6.195   0.861   4.220
41868W        W13594  44.658  40.873  12.117
41869W        W13595  10.874  21.578  13.593
41870W        W13596   4.932  34.077  14.734
41871W        W13597  40.796  44.555   1.188
41872W        W13598  18.556   7.081  13.886
41873W        W13599  14.904  13.812   2.775
41874W        W13600  32.179   2.855   0.277
41875W        W13601  36.105   1.885   4.616
41876W        W13602   8.833  36.087   2.774
41877W        W13603  14.131  35.681   1.774
41878W        W13604   5.779  43.918   2.963
41879W        W13605  14.186  15.598  11.550
41880W        W13606  43.603  42.155   2.103
41881W        W13607  40.026  35.668   0.389
41882W        W13608  40.369  32.019  10.919
41883W        W13609  17.320  27.130  14.237
41884W        W13610   9.302   6.210   3.191
41885W        W13611  30.119  41.255  13.264
41886W        W13612  21.135  35.012  12.998
41887W        W13613  21.312  19.983  11.151
41888W        W13614  18.781  10.240   5.051
41889W        W13615  14.062   6.807  13.400
41890W        W13616  43.331   4.319  14.220
41891W        W13617  25.533  28.750   2.118
41892W        W13618  29.135   0.671  11.576
41893W        W13619  15.458  35.832  12.485
41894W        W13620   4.748   1.000  11.432
41895W        W13621  16.671   1.055   2.742
41896W        W13622  31.654  32.033  10.666
41897W        W13623  13.211  32.510   2.419
41898W        W13624   3.221  36.484   1.653
41899W        W13625  37.964  10.403   1.256
41900W        W13626   8.233  43.769   4.471
41901W        W13627   9.694  41.944   0.049
41902W        W13628  36.153  27.172   2.355
41903W        W13629  24.615  36.004   0.344
41904W        W13630  31.454  39.372   2.300
41905W        W13631  18.635  15.531   0.898
41906W        W13632  31.358   3.281   2.649
41907W        W13633  32.864  43.501  13.079
41908W        W13634  35.491  43.199  11.830
41909W        W13635  31.895   3.338  10.439
41910W        W13636  37.920  10.207   2.873
41911W        W13637   9.022  15.380   1.972
41912W        W13638  35.122  42.770   0.437
41913W        W13639  32.084   3.977  11.673
41914W        W13640  16.619   5.971   0.235
41915W        W13641  15.729  38.041  10.197
41916W        W13642  10.795  13.247  10.369
41917W        W13643  39.050  10.132   3.147
41918W        W13644   3.644   2.897   2.411
41919W        W13645  32.832  37.154  12.931
41920W        W13646  27.940  44.539  13.573
41921W        W13647  24.599  44.763  11.427
41922W        W13648  21.827  23.688  11.552
41923W        W13649  32.599   2.924   2.386
41924W        W13650  17.252  41.984  13.553
41925W        W13651  44.796  37.113   4.179
41926W        W13652   6.357  17.476   1.596
41927W        W13653  42.135  42.867   2.331
41928W        W13654  20.600  44.392  13.506
41929W        W13655  41.207  14.511  11.574
41930W        W13656   3.944   2.839   0.909
41931W        W13657  39.847  36.135   2.274
41932W        W13658  30.923   8.856   2.843
41933W        W13659   8.605  22.535  12.028
41934W        W13660  43.934  13.272   4.347
41935W        W13661   7.478  33.144   1.326
41936W        W13662  23.083  16.760  12.758
41937W        W13663  11.671  28.645   4.568
41938W        W13664  12.152   1.283   4.205
41939W        W13665  41.779  22.576  13.888
41940W        W13666   5.182  25.992   4.408
41941W        W13667  33.620  41.258  14.806
41942W        W13668  14.075  15.693  14.734
41943W        W13669  26.523   0.960   2.656
41944W        W13670  17.318  39.427   1.385
41945W        W13671  33.848  32.442   0.353
41946W        W13672  23.641  10.945   1.876
41947W        W13673  39.449  12.679   0.021
41948W        W13674   7.079   3.963  13.212
41949W        W13675  32.849  13.752   1.395
41950W        W13676  24.996   6.397   1.139
41951W        W13677  14.556  42.969  10.646
41952W        W13678  17.565  27.409  13.852
41953W        W13679  35.096  40.982  10.682
41954W        W13680  16.076   0.995   4.640
41955W        W13681  26.587   0.703   3.606
41956W        W13682  27.985  13.808  10.137
41957W        W13683   9.398  24.706  12.959
41958W        W13684  32.728  16.287  12.103
41959W        W13685  21.615  14.596   2.178
41960W        W13686   7.294   3.269   0.158
41961W        W13687  38.520  33.963  11.933
41962W        W13688   9.820   9.656  10.715
41963W        W13689   6.569   5.153  13.021
41964W        W13690  27.683  29.957  11.130
41965W        W13691  33.612  20.303  14.406
41966W        W13692   9.657  18.019   4.885
41967W        W13693   6.995  20.279  13.094
41968W        W13694   2.880  26.038   0.876
41969W        W13695   0.938  14.394  14.787
41970W        W13696   9.255  16.839   2.501
41971W        W13697  28.544  37.887  10.622
41972W        W13698   6.788  23.573   3.367
41973W        W13699  14.081  15.758   4.190
41974W        W13700  33.647   7.617  14.577
41975W        W13701  23.816  10.315  14.653
41976W        W13702  21.411  36.787   2.167
41977W        W13703  28.933   8.173  13.482
41978W        W13704  15.085  35.314  11.162
41979W        W13705   3.883  32.119  14.329
41980W        W13706  19.933   5.474  12.109
41981W        W13707  41.093   8.335   3.555
41982W        W13708  14.701  30.274  12.886
41983W        W13709  26.604  10.202   4.133
41984W        W13710  15.698  14.433   4.938
41985W        W13711  10.146  20.727   0.734
41986W        W13712  44.844  28.597  11.878
41987W        W13713  28.994  20.299   2.737
41988W        W13714  23.236  16.747  11.551
41989W        W13715  37.103  14.697   4.869
41990W        W13716  18.188  28.683   2.235
41991W        W13717  18.021  24.271   1.638
41992W        W13718   5.170   4.297  10.235
41993W        W13719  18.083  37.291  14.819
41994W        W13720  38.748  22.019   3.000
41995W        W13721  44.088  23.736  12.199
41996W        W13722  10.867   9.266   3.618
41997W        W13723  39.260  10.684   2.404
41998W        W13724  35.033  41.586  12.007
41999W        W13725  32.680  22.640  11.265
42000W        W13726  14.726   7.465  10.739
42001W        W13727   5.811  25.132   2.413
42002W        W13728  33.866  14.261  14.461
42003W        W13729   8.689  16.715   1.248
42004W        W13730  40.817  21.688  13.918
42005W        W13731  18.442   4.015  11.394
42006W        W13732  12.545  25.184   4.535
42007W        W13733   4.824   2.672  13.371
42008W        W13734  28.391  41.349   1.732
42009W        W13735  20.607  29.969  14.472
42010W        W13736  35.874  35.154  13.579
42011W        W13737  16.133   8.416  12.127
42012W        W13738  22.173  27.974  11.494
42013W        W13739  35.535  28.038   3.242
42014W        W13740  35.029   5.202   4.162
42015W        W13741  26.924  15.662  14.416
42016W        W13742   8.080  28.059  11.476
42017W        W13743  24.444  28.432  12.988
42018W        W13744  19.859   6.672  12.469
42019W        W13745  21.782  20.561   4.638
42020W        W13746   6.217   5.430   2.321
42021W        W13747  31.448   6.983   4.629
42022W        W13748  23.995  19.007  14.880
42023W        W13749   5.759   4.401  10.969
42024W        W13750  18.011   0.015   0.334
42025W        W13751  26.175  39.502  12.529
42026W        W13752  41.861  36.132  11.997
42027W        W13753  26.414  40.010  11.517
42028W        W13754   8.395  16.171   1.419
42029W        W13755  28.530  40.897  11.208
42030W        W13756  27.582  18.153   4.116
42031W        W13757  38.606   2.551   1.044
42032W        W13758  32.898  25.229   4.060
42033W        W13759  28.554  24.580  13.942
42034W        W13760  26.180  43.129  12.429
42035W        W13761  21.254  29.416  10.712
42036W        W13762  40.465  12.652  13.061
42037W        W13763  40.600  35.937   3.253
42038W        W13764  21.226  16.674   0.274
42039W        W13765  34.347  44.492   0.246
42040W        W13766  26.457  25.449   1.726
42041W        W13767  43.236  10.128  13.873
42042W        W13768  24.503  26.722   2.166
42043W        W13769  18.006  28.051   0.986
42044W        W13770   5.856  40.355  14.363
42045W        W13771  25.676   4.767   3.314
42046W        W13772  29.525   1.941  14.304
42047W        W13773  33.971   2.633  14.794
42048W        W13774  42.889  43.381  14.020
42049W        W13775  15.265  37.448  11.985
42050W        W13776  14.092  43.323   2.705
42051W        W13777  30.179   1.020  10.940
42052W        W13778  41.986  33.594   1.700
42053W        W13779  30.478  39.079   1.795
42054W        W13780  43.735  29.646   2.856
42055W        W13781   1.886   6.823   1.696
42056W        W13782   7.870  20.974   2.373
42057W        W13783   5.155   9.006  12.343
42058W        W13784   1.714   2.835  11.397
42059W        W13785  18.843  28.530  14.399
42060W        W13786  23.244  40.415  12.144
42061W        W13787  14.840  14.688  14.966
42062W        W13788   0.024  29.021  12.543
42063W        W13789   2.751  13.796  11.042
42064W        W13790   0.073  37.656  11.453
42065W        W13791  10.900  33.019   0.214
42066W        W13792  41.403   7.394   1.228
42067W        W13793  19.407  24.948   4.206
42068W        W13794   2.271  19.781  13.628
42069W        W13795  22.365  33.106   4.879
42070W        W13796  36.122   7.184   0.330
42071W        W13797  11.254  39.570   3.690
42072W        W13798   6.514  14.132  12.925
42073W        W13799  27.134  30.411  12.358
42074W        W13800  36.162  28.099  13.518
42075W        W13801   6.831  36.892   1.862
42076W        W13802  41.017  10.968  12.431
42077W        W13803  28.545  21.774  14.448
42078W        W13804   9.398  30.944   2.168
42079W        W13805  17.569  19.461   1.005
42080W        W13806  30.719  29.008  14.319
42081W        W13807   1.432  25.468   4.145
42082W        W13808  13.606  27.356   2.394
42083W        W13809  31.986  10.684   0.460
42084W        W13810   7.697   0.091   1.667
42085W        W13811  19.007  27.011   1.352
42086W        W13812  30.855   2.392  12.190
42087W        W13813  24.827  42.873  13.485
42088W        W13814  26.033  16.187  12.122
42089W        W13815  41.410   2.535  10.906
42090W        W13816  35.587  40.693  10.743
42091W        W13817  43.988  23.466   4.611
42092W        W13818  25.468  15.170  12.984
42093W        W13819   4.912  18.156  14.939
42094W        W13820  24.919  41.101  12.422
42095W        W13821  34.352   5.398  14.974
42096W        W13822  29.124  24.631   4.354
42097W        W13823  12.493  26.452   0.877
42098W        W13824  36.374   8.700  12.732
42099W        W13825  39.203  26.402  13.438
42100W        W13826  34.630   3.503  11.673
42101W        W13827  35.507  42.055   4.039
42102W        W13828  41.120  26.069   0.366
42103W        W13829   2.195   8.927  13.744
42104W        W13830  26.078  40.685   3.527
42105W        W13831   9.245  40.825  11.943
42106W        W13832  31.475  43.461  11.107
42107W        W13833  15.148   2.483  14.846
42108W        W13834  28.553  10.204   0.903
42109W        W13835  26.180   3.547  12.891
42110W        W13836  16.266  13.673  13.767
42111W        W13837  41.522  35.927  10.712
42112W        W13838  22.587  10.142   2.697
42113W        W13839   2.313  37.639  14.538
42114W        W13840  25.239   2.943   1.354
42115W        W13841  22.765  38.862   4.482
42116W        W13842  21.067   6.375   1.871
42117W        W13843   3.401   5.394   0.852
42118W        W13844  27.426  38.784  14.735
42119W        W13845   2.929  37.938  14.372
42120W        W13846   5.859  28.867  13.383
42121W        W13847  20.255  30.140  11.595
42122W        W13848  15.905  37.154   0.215
42123W        W13849   2.964   2.053   0.481
42124W        W13850   4.542  24.961   0.837
42125W        W13851   4.411  34.214   4.701
42126W        W13852  23.461  14.284   3.198
42127W        W13853  34.615  22.105  13.606
42128W        W13854  35.338  42.943  14.232
42129W        W13855  33.028  19.632  12.570
42130W        W13856   6.357  39.968   3.949
42131W        W13857  11.901   1.287   3.756
42132W        W13858  26.702  40.596  10.954
42133W        W13859   5.367  34.117   1.389
42134W        W13860  14.149  31.614  12.982
42135W        W13861  26.639  14.888   2.931
42136W        W13862  11.205  41.396  11.534
42137W        W13863  34.559   9.175   3.866
42138W        W13864  22.788  26.551  13.013
42139W        W13865   7.428  24.239   2.414
42140W        W13866   9.981  38.989  14.406
42141W        W13867  30.643  19.677   2.713
42142W        W13868  22.816  24.701  11.591
42143W        W13869  19.020  32.954  14.347
42144W        W13870   0.319  28.179  14.817
42145W        W13871   7.909  21.962   4.106
42146W        W13872  26.191  12.332   3.288
42147W        W13873  15.537  16.759   1.218
42148W        W13874  26.386  29.325   3.704
42149W        W13875   4.664   8.487   1.799
42150W        W13876  41.667  25.050   1.214
42151W        W13877  12.687  36.611  14.285
42152W        W13878  19.054  33.114  13.444
42153W        W13879  33.527   4.823   4.688
42154W        W13880   5.693  33.648  14.368
42155W        W13881  19.147  39.013   0.371
42156W        W13882   3.352   5.263   3.125
42157W        W13883  33.157  29.024  12.998
42158W        W13884   1.200  18.813  12.018
42159W        W13885  41.369  37.092   3.072
42160W        W13886  23.223  23.723  11.670
42161W        W13887  24.117  42.480  14.045
42162W        W13888  21.618  44.051   0.475
42163W        W13889  11.143  23.377  13.909
42164W        W13890  38.448  23.517   4.574
42165W        W13891   8.811   4.321   1.025
42166W        W13892  35.883   8.797  14.434
42167W        W13893  31.318  27.716  14.468
42168W        W13894  37.157  34.516   2.188
42169W        W13895   1.025  10.232  12.115
42170W        W13896  33.971  33.317   1.626
42171W        W13897  36.070  31.908   2.877
42172W        W13898   0.913  35.146   2.211
42173W        W13899  10.450   0.123   2.268
42174W        W13900  10.527   6.356   1.811
42175W        W13901  27.850  27.173  13.990
42176W        W13902  42.082  16.844   2.312
42177W        W13903   1.321   4.756   3.006
42178W        W13904  44.487  10.875  11.518
42179W        W13905  11.864  16.706   0.730
42180W        W13906  39.045   2.729  14.318
42181W        W13907  26.690  31.452   1.326
42182W        W13908  19.103   2.772  14.898
42183W        W13909  23.242  19.010  11.129
42184W        W13910  43.156   8.056  14.300
42185W        W13911  30.054  21.838  13.161
42186W        W13912  14.139  43.346   4.169
42187W        W13913  27.092   1.364  11.435
42188W        W13914  13.094   2.520  12.016
42189W        W13915  10.293   3.868   4.600
42190W        W13916  15.958   0.547   1.410
42191W        W13917  37.311  18.575   2.727
42192W        W13918   4.676   7.209  13.403
42193W        W13919  22.789   3.613   1.177
42194W        W13920   3.391  36.034   1.450
42195W        W13921  42.253  15.635   3.771
42196W        W13922  37.917  22.135  14.403
42197W        W13923  41.908  39.493   4.132
42198W        W13924   4.038  21.466  10.982
42199W        W13925   9.216  32.454  11.582
42200W        W13926  32.027  37.912  10.627
42201W        W13927  33.089   7.213  10.512
42202W        W13928  18.248  10.812  12.770
42203W        W13929  34.016  28.465   2.891
42204W        W13930  19.152  32.066   0.974
42205W        W13931  43.925  16.123   2.243
42206W        W13932  10.878  19.749  11.676
42207W        W13933  22.020  36.446   4.177
42208W        W13934   7.906  40.308  12.725
42209W        W13935  13.348  18.519  13.995
42210W        W13936  25.638   1.897   1.121
42211W        W13937  19.966   7.230  11.669
42212W        W13938  17.780  38.937   9.686
42213W        W13939  35.448  33.644   2.631
42214W        W13940  16.588  24.481   2.996
42215W        W13941  41.848   3.274  12.845
42216W        W13942  42.322  29.910   1.473
42217W        W13943   0.276  38.739   2.527
42218W        W13944  23.737  11.323   2.226
42219W        W13945  38.907   4.450   3.637
42220W        W13946  14.168  28.028  13.892
42221W        W13947  23.007  10.575   0.502
42222W        W13948  14.627  33.614   4.977
42223W        W13949  28.980  15.970  14.733
42224W        W13950  35.382   2.459  10.611
42225W        W13951  12.729   0.234  12.373
42226W        W13952  11.274  40.981   3.646
42227W        W13953   0.234  18.984   1.873
42228W        W13954  20.045  23.982  10.637
42229W        W13955   0.002  28.101  11.078
42230W        W13956   5.898  21.336   1.361
42231W        W13957   1.903  38.450   0.392
42232W        W13958  19.787   7.806   1.853
42233W        W13959  19.324   3.257  14.862
42234W        W13960  33.958  30.590   2.677
42235W        W13961  26.278  38.138   1.551
42236W        W13962   8.697  30.550   2.940
42237W        W13963  32.626  10.305  14.911
42238W        W13964  19.191  37.937   0.223
42239W        W13965  31.111  40.523   4.576
42240W        W13966  21.545  20.549   3.190
42241W        W13967  30.445  43.259   3.963
42242W        W13968   6.518  26.483   0.524
42243W        W13969  38.907  25.478  13.535
42244W        W13970  30.620  37.615  10.517
42245W        W13971  12.032   1.883   2.650
42246W        W13972  13.639   2.259  10.654
42247W        W13973  20.838  21.299   2.695
42248W        W13974  33.125   9.885  11.624
42249W        W13975  44.458  44.427   0.136
42250W        W13976   6.791   0.274   1.370
42251W        W13977  21.402   4.899   4.960
42252W        W13978  44.087  28.923  14.368
42253W        W13979  11.880  24.789   4.219
42254W        W13980  38.010  38.408   4.826
42255W        W13981  34.820   1.673   1.200
42256W        W13982  27.064  16.571   4.294
42257W        W13983  28.737  20.199  10.902
42258W        W13984  37.384  37.500   0.741
42259W        W13985  18.392  14.526   3.368
42260W        W13986   4.249  43.340   4.650
42261W        W13987  34.409  20.369   2.213
42262W        W13988  39.842  35.599  10.703
42263W        W13989  11.702  44.885  10.817
42264W        W13990   5.863  27.450   5.071
42265W        W13991  23.095   9.225   4.158
42266W        W13992  42.207   3.845   4.549
42267W        W13993   6.168  31.611   4.979
42268W        W13994   3.373   4.972  13.790
42269W        W13995   1.724   3.796  14.235
42270W        W13996  19.651   6.576   2.680
42271W        W13997  26.619  38.267  10.949
42272W        W13998   7.047  44.009  12.581
42273W        W13999  20.943  24.028   4.616
42274W        W14000   4.130  32.563  14.349
42275W        W14001  40.845  13.264  13.422
42276W        W14002  25.429  19.090   1.629
42277W        W14003  41.914  30.473  10.586
42278W        W14004   9.222  33.525   4.633
42279W        W14005  38.171  10.884   1.306
42280W        W14006  34.492  44.962   1.982
42281W        W14007  17.745  35.872   2.235
42282W        W14008  14.119   6.652   2.122
42283W        W14009   5.884   8.293  13.799
42284W        W14010  37.540  22.343  10.814
42285W        W14011  43.344   8.996  13.186
42286W        W14012   2.901   8.709   3.564
42287W        W14013  14.523  20.365  10.662
42288W        W14014  40.347  32.369   0.403
42289W        W14015  11.189  30.279  11.773
42290W        W14016  17.987  38.047  11.105
42291W        W14017  19.592  25.460   1.235
42292W        W14018  37.896   4.790  10.141
42293W        W14019  16.404  44.368  12.130
42294W        W14020  16.798  21.560  13.874
42295W        W14021  12.670  25.954  11.170
42296W        W14022  11.449  14.328   1.930
42297W        W14023   2.062  20.476  10.822
42298W        W14024   1.584  16.649  14.211
42299W        W14025  26.439  40.597   0.829
42300W        W14026  11.140  23.337   5.435
42301W        W14027  40.705   5.327   3.237
42302W        W14028   5.443  10.286   2.946
42303W        W14029  12.478  15.846  12.859
42304W        W14030   5.468  12.294   4.117
42305W        W14031  32.404   5.583   4.393
42306W        W14032  23.262  18.064  14.056
42307W        W14033   1.837  41.846  10.721
42308W        W14034  43.918  12.124   2.629
42309W        W14035  20.793  36.994  14.778
42310W        W14036  21.945   7.841  14.398
42311W        W14037  29.957  31.009   1.222
42312W        W14038  43.404   2.229  12.451
42313W        W14039  42.924  34.543   4.115
42314W        W14040  21.131   5.779  10.752
42315W        W14041  26.614  16.795  10.649
42316W        W14042   6.385  43.387  14.372
42317W        W14043   6.509   4.693  12.822
42318W        W14044  27.441  34.301   4.146
42319W        W14045  39.820  44.531   2.749
42320W        W14046  11.332  31.503  12.319
42321W        W14047  43.196  23.185   4.496
42322W        W14048  22.648   5.260  14.047
42323W        W14049  26.190  15.809  13.027
42324W        W14050   5.192  44.269  10.250
42325W        W14051  29.172   0.994   0.855
42326W        W14052  20.881   8.781   0.389
42327W        W14053  21.483  18.195   3.600
42328W        W14054   7.872  34.832  14.451
42329W        W14055  31.497  35.632   1.263
42330W        W14056   6.328  18.693   0.251
42331W        W14057  40.596  20.052   3.758
42332W        W14058  24.157   8.941   1.282
42333W        W14059  12.132  10.164  10.638
42334W        W14060  16.276   1.917  11.652
42335W        W14061  20.292  28.975  13.319
42336W        W14062   6.329   7.269  12.552
42337W        W14063   9.853  23.960   1.450
42338W        W14064  24.182  14.167  12.638
42339W        W14065  44.934  29.451  11.143
42340W        W14066  33.417  26.554   2.255
42341W        W14067   5.995  29.008   3.868
42342W        W14068  12.823  10.978   3.986
42343W        W14069  24.240  17.966  12.377
42344W        W14070  16.296  37.689   5.064
42345W        W14071  41.823   1.818  11.577
42346W        W14072  30.760  17.066   4.514
42347W        W14073  27.486  33.661  14.534
42348W        W14074  42.473  43.963   0.381
42349W        W14075  37.046  35.311   0.830
42350W        W14076  11.568   9.876  11.043
42351W        W14077  28.152  32.513   2.272
42352W        W14078  44.551  24.378  10.216
42353W        W14079  25.373  20.242  14.930
42354W        W14080   9.957  27.003  12.950
42355W        W14081  43.878  22.172  10.918
42356W        W14082  42.347  29.425  11.481
42357W        W14083  40.987  30.519   3.194
42358W        W14084  30.196  25.443  10.614
42359W        W14085  35.941  15.339  11.576
42360W        W14086   6.179  15.075   4.658
42361W        W14087  37.167  30.627   2.293
42362W        W14088   4.954  35.988   0.879
42363W        W14089  35.466  31.510  11.864
42364W        W14090  41.535  38.847  10.228
42365W        W14091  37.494  36.592   3.865
42366W        W14092  17.176  33.359   2.499
42367W        W14093  37.569  15.380  14.797
42368W        W14094  24.476  21.536  14.442
42369W        W14095   3.336  16.775   1.276
42370W        W14096   4.328  26.474   0.891
42371W        W14097  31.992   1.998  12.640
42372W        W14098  21.546  25.537  12.834
42373W        W14099  27.669  14.393  13.587
42374W        W14100  21.250  12.332   0.693
42375W        W14101  33.116  18.478  10.738
42376W        W14102  37.042  44.237  11.456
42377W        W14103  19.674  21.249   1.717
42378W        W14104  35.411  41.902  10.575
42379W        W14105  16.632   8.191  14.789
42380W        W14106  34.797  16.935  11.599
42381W        W14107  32.514   5.187   3.610
42382W        W14108   4.027  12.969   1.146
42383W        W14109   7.647  21.563   1.341
42384W        W14110  10.644  25.260   4.568
42385W        W14111  26.360  12.742   1.898
42386W        W14112  17.227   4.225   1.715
42387W        W14113   5.070  18.629  14.719
42388W        W14114   6.976  34.611   2.521
42389W        W14115  18.292  33.066   0.004
42390W        W14116  16.664  32.383  12.486
42391W        W14117   8.521  11.167   3.719
42392W        W14118  22.004  12.401   3.668
42393W        W14119  32.065  14.977  12.538
42394W        W14120  42.776  31.090   4.601
42395W        W14121  24.266  41.503   0.159
42396W        W14122   2.688  32.433   2.152
42397W        W14123  43.133  40.944  14.014
42398W        W14124  35.497   7.305   1.362
42399W        W14125  41.279  44.451  10.760
42400W        W14126   7.076  20.830  10.766
42401W        W14127   2.381   1.950   3.143
42402W        W14128  33.506  42.322  12.943
42403W        W14129  16.029  22.175   4.138
42404W        W14130  26.204  15.473  14.058
42405W        W14131  19.201  20.607   4.401
42406W        W14132  22.466  28.982  14.928
42407W        W14133  26.178  30.190   2.844
42408W        W14134  14.325  29.901  12.441
42409W        W14135  33.349  31.398   3.626
42410W        W14136  23.301  18.800  13.636
42411W        W14137  39.796  14.599  13.112
42412W        W14138  40.123  33.399  12.881
42413W        W14139  43.772   2.602  12.539
42414W        W14140  16.762   1.687   4.561
42415W        W14141  15.596  17.160  14.544
42416W        W14142   3.868  28.633  11.698
42417W        W14143  34.235  40.849  14.090
42418W        W14144   4.853  31.003   0.229
42419W        W14145  11.207  22.742  12.920
42420W        W14146  11.839   1.688   1.274
42421W        W14147  41.354  18.055  12.921
42422W        W14148  34.610  27.687   3.292
42423W        W14149  12.557   5.701   3.709
42424W        W14150  21.707  16.090   0.772
42425W        W14151  40.835   2.127  10.722
42426W        W14152  40.948  38.373  12.573
42427W        W14153  10.341  34.500  10.987
42428W        W14154  36.083  38.027   2.687
42429W        W14155   8.779  36.366   3.246
42430W        W14156   4.797  23.783   1.701
42431W        W14157  44.538  10.127  12.878
42432W        W14158  15.884  12.261   0.011
42433W        W14159   8.800  43.013   3.293
42434W        W14160   2.968  17.630  13.844
42435W        W14161  28.861  20.294   0.027
42436W        W14162  33.626   9.565  13.597
42437W        W14163  18.981  41.822  14.331
42438W        W14164  35.818  19.649   4.165
42439W        W14165  11.840  44.740   2.349
42440W        W14166   0.591  28.529  14.115
42441W        W14167  10.247  32.160   5.123
42442W        W14168  27.082  25.206  11.552
42443W        W14169  25.668  21.139  13.678
42444W        W14170   6.276  20.919  12.014
42445W        W14171   0.292   1.222  12.906
42446W        W14172  38.146   0.485  10.722
42447W        W14173  35.513  22.723  11.101
42448W        W14174   2.372   6.102   1.969
42449W        W14175  33.835  25.168  14.218
42450W        W14176  23.000  34.645  14.750
42451W        W14177  40.526  36.474   0.485
42452W        W14178  39.340  12.497   4.775
42453W        W14179  33.916  23.837  14.811
42454W        W14180  17.718   6.945   4.337
42455W        W14181  39.525  12.073   4.518
42456W        W14182  44.932  16.320   0.108
42457W        W14183  37.260   8.858  14.450
42458W        W14184  14.192  31.350  12.528
42459W        W14185   0.696   1.850   1.397
42460W        W14186  32.888  32.661  13.020
42461W        W14187  15.666   3.099  13.313
42462W        W14188  12.857   4.960  12.022
42463W        W14189  33.007  22.446   3.664
42464W        W14190  33.774  15.972  11.568
42465W        W14191   1.747  34.088   0.004
42466W        W14192   8.716  23.671   3.331
42467W        W14193  19.631   7.620   2.799
42468W        W14194  34.436  10.184  14.926
42469W        W14195  33.112  10.395   0.116
42470W        W14196   0.429   1.440  10.923
42471W        W14197  19.086  40.060   1.340
42472W        W14198   9.389  11.398   0.717
42473W        W14199  10.145  33.001   0.305
42474W        W14200  33.674  13.640  12.380
42475W        W14201  11.019  20.159   2.493
42476W        W14202  10.593  20.085  13.272
42477W        W14203  18.523   0.054  13.509
42478W        W14204  22.592   3.221   1.874
42479W        W14205  27.532  42.368  11.599
42480W        W14206  35.105  27.400  13.988
42481W        W14207   5.178   9.586   1.301
42482W        W14208   5.385  33.251  14.343
42483W        W14209  40.480  14.470  11.175
42484W        W14210   1.542   1.257   4.056
42485W        W14211  44.965  30.851  14.312
42486W        W14212   8.660  15.739   2.087
42487W        W14213   4.834  15.201   1.771
42488W        W14214  10.318  17.415  11.167
42489W        W14215  38.841   2.289  10.904
42490W        W14216  13.028   6.810   4.878
42491W        W14217  26.611   1.185   3.103
42492W        W14218   0.356  25.457  10.727
42493W        W14219  28.243   2.529   0.471
42494W        W14220  36.411  26.727  12.610
42495W        W14221  27.885  11.820   5.024
42496W        W14222   2.472  10.291   3.192
42497W        W14223   2.288   3.182   0.275
42498W        W14224   7.852  36.605   4.676
42499W        W14225  17.808  25.459   4.215
42500W        W14226  26.706   8.163   3.158
42501W        W14227   5.157  28.258  11.103
42502W        W14228   4.900   6.054   9.524
42503W        W14229  21.738   1.710   1.880
42504W        W14230   1.477  11.734  13.432
42505W        W14231   1.867  26.194  12.145
42506W        W14232  43.992  38.046  12.363
42507W        W14233  40.834  23.145   2.597
42508W        W14234  20.067  37.837   2.878
42509W        W14235  11.317   9.385   0.662
42510W        W14236  18.495  21.618   0.056
42511W        W14237  31.071   4.819  14.210
42512W        W14238   7.325  11.073   0.021
42513W        W14239  22.125  37.095   0.910
42514W        W14240  25.001   7.905  13.987
42515W        W14241  31.384  27.108  11.135
42516W        W14242  18.988   3.836   3.674
42517W        W14243  11.312  27.095   0.307
42518W        W14244  10.095   7.115  11.078
42519W        W14245  11.404  15.835   0.875
42520W        W14246  14.737   0.465   1.797
42521W        W14247   7.734  41.244  12.479
42522W        W14248  25.204  27.630  10.380
42523W        W14249  16.616  20.774   0.904
42524W        W14250  33.971   3.426   4.080
42525W        W14251  18.771  16.106   4.024
42526W        W14252  44.431  21.513  13.969
42527W        W14253   1.804  26.191   4.173
42528W        W14254   7.007  35.621   0.487
42529W        W14255   1.380   2.704   4.507
42530W        W14256  44.813  29.463  14.805
42531W        W14257  30.122   1.492  10.731
42532W        W14258  31.490  31.536   4.536
42533W        W14259  26.533  44.429  13.275
42534W        W14260  16.578  18.679   1.289
42535W        W14261  11.823  21.972   2.715
42536W        W14262  44.837  20.648  12.044
42537W        W14263  40.092   9.230  12.411
42538W        W14264  20.605  13.794   4.745
42539W        W14265   0.892   3.990  14.344
42540W        W14266   5.473  15.749  10.627
42541W        W14267  25.825   1.350   9.583
42542W        W14268   5.307  37.319   1.929
42543W        W14269   4.479  38.402  14.764
42544W        W14270  34.875   1.397   2.481
42545W        W14271   2.269  22.334   4.931
42546W        W14272  38.085  35.588  11.074
42547W        W14273  24.273   9.458   2.361
42548W        W14274  31.327   4.979   1.759
42549W        W14275  26.502  17.760  11.679
42550W        W14276  35.407  37.948  11.557
42551W        W14277  43.581  27.246  12.111
42552W        W14278  12.293  15.675   2.251
42553W        W14279  24.742  43.046  12.531
42554W        W14280  30.651  15.929   0.722
42555W        W14281  34.551  43.862   3.149
42556W        W14282  23.673  33.365  14.400
42557W        W14283  34.356   4.436  13.908
42558W        W14284  13.809   9.739  10.565
42559W        W14285  40.249  14.573   0.508
42560W        W14286  43.377  40.133  13.855
42561W        W14287  39.403   0.441  11.227
42562W        W14288   0.409  44.563  14.328
42563W        W14289  28.077  24.053  12.513
42564W        W14290   5.408  39.930   2.806
42565W        W14291  24.484   4.089  13.258
42566W        W14292   4.132  31.670  11.937
42567W        W14293  34.124  36.283   3.725
42568W        W14294   9.652  31.118  12.163
42569W        W14295   2.403  40.876   3.671
42570W        W14296  27.556   7.365   0.899
42571W        W14297  25.631   2.420   3.918
42572W        W14298  39.336  42.898  14.739
42573W        W14299  25.023  40.372   4.120
42574W        W14300  15.663   7.944  12.877
42575W        W14301  32.838  26.677   5.081
42576W        W14302  44.429   7.868   3.098
42577W        W14303  24.779  40.388  12.876
42578W        W14304  41.444  33.413  11.175
42579W        W14305  39.841   6.469   0.677
42580W        W14306   0.347   1.065   4.791
42581W        W14307  17.207  44.815   2.710
42582W        W14308   9.799  37.857   2.723
42583W        W14309  38.892  19.998   1.283
42584W        W14310  32.015  10.612   1.346
42585W        W14311   1.363   4.571  14.858
42586W        W14312  39.537  20.092  10.615
42587W        W14313  14.020  42.429   2.819
42588W        W14314  26.403  24.264  14.676
42589W        W14315  22.680  17.672   1.868
42590W        W14316  32.461   2.226   5.083
42591W        W14317  43.928  29.170   2.192
42592W        W14318  32.303  13.313   4.551
42593W        W14319  44.023  39.554  10.571
42594W        W14320  24.460  44.858  14.736
42595W        W14321   1.106   1.933   2.845
42596W        W14322  43.280  41.986  11.529
42597W        W14323  10.770  24.177   0.172
42598W        W14324  28.471  44.879   4.629
42599W        W14325  18.753  22.738   1.329
42600W        W14326   5.885   0.208  10.606
42601W        W14327  36.966   1.205  13.125
42602W        W14328  16.777   6.016  11.134
42603W        W14329  12.303  27.882  13.985
42604W        W14330  39.476   1.378  12.410
42605W        W14331  38.414  19.242  13.327
42606W        W14332  21.178  37.535  12.264
42607W        W14333  26.686   3.693  14.450
42608W        W14334  36.851  10.364   1.655
42609W        W14335  30.765  33.458   4.560
42610W        W14336  35.295  42.295  11.543
42611W        W14337  28.694   6.438  11.678
42612W        W14338  23.363  41.407  12.359
42613W        W14339  20.082   0.319   0.971
42614W        W14340  14.621  28.230  11.521
42615W        W14341  32.044  40.382   4.164
42616W        W14342  10.332  43.558  13.928
42617W        W14343   7.269  25.503   1.139
42618W        W14344  10.626  38.066  12.919
42619W        W14345  28.398   2.742  10.976
42620W        W14346  36.013  16.232   0.367
42621W        W14347   8.659   0.334   0.663
42622W        W14348  33.467  42.849  13.808
42623W        W14349  24.180   0.025  11.567
42624W        W14350  10.845  22.283  12.546
42625W        W14351  21.495   8.569   3.222
42626W        W14352  36.115  32.036   5.078
42627W        W14353  10.626   4.027  14.259
42628W        W14354  43.475  16.285   0.927
42629W        W14355  22.407  38.630   1.731
42630W        W14356  11.587  30.663  11.749
42631W        W14357  17.507  39.781  13.886
42632W        W14358  40.838  27.155   4.825
42633W        W14359   6.307  36.974   2.759
42634W        W14360   1.664  24.601  12.338
42635W        W14361  23.266  41.251   0.386
42636W        W14362  26.475  22.726  11.635
42637W        W14363  35.504  42.401   0.507
42638W        W14364   1.478  37.621  11.545
42639W        W14365  23.429  13.681   2.476
42640W        W14366  38.332   6.928  14.757
42641W        W14367   2.365  16.704  12.928
42642W        W14368  24.298   9.236   2.854
42643W        W14369  10.865  11.743   2.232
42644W        W14370  36.470  17.835  10.422
42645W        W14371  19.651  30.619  12.627
42646W        W14372   7.597  31.238  11.381
42647W        W14373  37.992   0.963   4.333
42648W        W14374  37.013  21.491   3.195
42649W        W14375  37.829  11.658   3.189
42650W        W14376  38.847  35.912   2.139
42651W        W14377  19.555  19.525  14.975
42652W        W14378  37.216  31.097  11.811
42653W        W14379  37.642   4.741   4.011
42654W        W14380   4.478   6.301  13.370
42655W        W14381   8.312   0.040   0.415
42656W        W14382  18.779   8.116   3.164
42657W        W14383  23.226  35.055  12.435
42658W        W14384  19.667  29.972   4.321
42659W        W14385   8.365  44.539   0.380
42660W        W14386   3.126  39.253  13.569
42661W        W14387   5.887  31.352   2.269
42662W        W14388  33.939   2.968   2.208
42663W        W14389   0.985   6.421   0.651
42664W        W14390  30.538   0.213   4.373
42665W        W14391  21.073   6.599  14.633
42666W        W14392  40.897   8.724   0.272
42667W        W14393  31.821  42.856   0.342
42668W        W14394  34.883  10.455   4.177
42669W        W14395  40.977  31.866   3.744
42670W        W14396  38.295  13.175  12.947
42671W        W14397  32.908   0.684  10.824
42672W        W14398  34.643   5.324  10.475
42673W        W14399  38.527  21.582   3.219
42674W        W14400   7.192  34.646  14.326
42675W        W14401  32.383  42.829   2.232
42676W        W14402  36.779  27.706   0.326
42677W        W14403  23.091  39.281   3.947
42678W        W14404  37.539   9.895   4.210
42679W        W14405  15.668  13.667   0.380
42680W        W14406  36.958   4.636   2.325
42681W        W14407  42.340  28.409  14.464
42682W        W14408   3.301  19.331  14.212
42683W        W14409  26.617  10.385  12.432
42684W        W14410  25.373   9.903  11.731
42685W        W14411   9.875  43.648  11.118
42686W        W14412  41.569  40.324  12.452
42687W        W14413  34.137   4.392   2.444
42688W        W14414  43.481  23.415  12.987
42689W        W14415  35.179  16.447   3.800
42690W        W14416  12.552  36.543  12.563
42691W        W14417  19.069  32.004  11.162
42692W        W14418  25.509   0.891   9.754
42693W        W14419   5.754   4.239   4.155
42694W        W14420  18.611  22.212   1.343
42695W        W14421   0.074  17.073   1.907
42696W        W14422  43.490  38.591   3.750
42697W        W14423  10.629  38.533  14.755
42698W        W14424  26.006  24.524   0.719
42699W        W14425   3.478  21.338  13.741
42700W        W14426   8.522  44.847   0.874
42701W        W14427   8.812  23.040   0.628
42702W        W14428  33.921  42.899   4.568
42703W        W14429  22.074  10.879  12.376
42704W        W14430  26.716  34.816   3.080
42705W        W14431   6.965  44.304  13.826
42706W        W14432  25.677  44.269  13.836
42707W        W14433  42.532  16.156   1.910
42708W        W14434  17.672  15.178  13.349
42709W        W14435  38.351  19.222  12.495
42710W        W14436  27.622   6.207  12.202
42711W        W14437   9.400  35.521   4.486
42712W        W14438  14.753   7.383   1.193
42713W        W14439  27.750  37.362   2.610
42714W        W14440   3.347  18.127   4.319
42715W        W14441  12.153  10.826   4.643
42716W        W14442   9.022  41.637  11.932
42717W        W14443  19.921  21.668  14.944
42718W        W14444   1.910   4.241  10.925
42719W        W14445  20.359  17.438  14.420
42720W        W14446  31.643  13.302   1.796
42721W        W14447  18.285   0.416  11.761
42722W        W14448  42.760  19.566  11.377
42723W        W14449   7.960  32.535  10.783
42724W        W14450  35.066  28.729  11.013
42725W        W14451  23.955  30.060   2.330
42726W        W14452   2.740  19.747  13.378
42727W        W14453  14.731   6.926  10.895
42728W        W14454   0.304  44.209   5.058
42729W        W14455  21.208  38.585  10.225
42730W        W14456  43.715  22.595   2.955
42731W        W14457  42.277  36.628  12.409
42732W        W14458  30.712   6.575   1.811
42733W        W14459   8.655  26.309   4.104
42734W        W14460  12.302  24.061   2.597
42735W        W14461   0.442  17.365   0.381
42736W        W14462  43.760  21.581  10.324
42737W        W14463  14.346  34.036  10.668
42738W        W14464  25.372  18.977  12.120
42739W        W14465  11.171  28.875   4.498
42740W        W14466  33.007   9.815  13.021
42741W        W14467  16.614  24.622  11.967
42742W        W14468  20.621  13.054   1.254
42743W        W14469  10.794  44.349   1.902
42744W        W14470  25.490  40.833   0.331
42745W        W14471  28.695   7.837  10.740
42746W        W14472  19.528  27.570   2.701
42747W        W14473  31.849  13.177   4.325
42748W        W14474  22.197  39.316  10.563
42749W        W14475  30.195  11.538   1.341
42750W        W14476  39.006  41.301   1.336
42751W        W14477  35.577  38.975  12.423
42752W        W14478  41.715  28.377  12.274
42753W        W14479  24.193  15.452  10.318
42754W        W14480  19.571  43.308   1.892
42755W        W14481  43.532  14.572  14.867
42756W        W14482  19.229  29.095   4.275
42757W        W14483  37.321  22.469  13.815
42758W        W14484   8.422  20.258  13.496
42759W        W14485  36.826  19.862   4.968
42760W        W14486   3.732  38.813   0.233
42761W        W14487   8.768  40.393   3.802
42762W        W14488   2.988  29.207   1.786
42763W        W14489  34.646  20.068   1.858
42764W        W14490   7.773  42.236   1.349
42765W        W14491   9.851  41.641  12.361
42766W        W14492  25.444  33.484   5.076
42767W        W14493  16.896   0.786  11.877
42768W        W14494   8.183  13.695   3.320
42769W        W14495   9.915  32.249   1.205
42770W        W14496  15.526  39.038  13.096
42771W        W14497  18.003  37.034   0.784
42772W        W14498  15.807   4.936   1.794
42773W        W14499   1.015  39.184   0.580
42774W        W14500  27.083  23.153  12.018
42775W        W14501  16.149  30.876  12.451
42776W        W14502  17.535  18.516  12.146
42777W        W14503  44.402  27.694   4.015
42778W        W14504  42.959   6.180   4.506
42779W        W14505  28.693  23.218  13.049
42780W        W14506  35.026  20.181   1.169
42781W        W14507  26.602  29.881   2.874
42782W        W14508  36.714  35.079  13.908
42783W        W14509  14.269  12.105  14.495
42784W        W14510   9.696  21.546  11.906
42785W        W14511  10.857  37.516  14.932
42786W        W14512  32.089  43.252   0.737
42787W        W14513  21.075  39.903   4.570
42788W        W14514  25.044   7.804  11.913
42789W        W14515   2.828   8.967  14.334
42790W        W14516  29.210  32.445  11.480
42791W        W14517   9.506  30.499  13.753
42792W        W14518  15.869   5.192  10.593
42793W        W14519  36.980  20.361   4.849
42794W        W14520  11.922  16.708  10.678
42795W        W14521  42.518  33.690   1.898
42796W        W14522   5.836  34.859  11.542
42797W        W14523  32.342  26.504   4.195
42798W        W14524   5.468  29.982   3.210
42799W        W14525  20.755  24.299  13.135
42800W        W14526  24.678  25.698  10.399
42801W        W14527  17.004  13.633   2.357
42802W        W14528   2.716  44.971   3.764
42803W        W14529  17.404   6.625  13.929
42804W        W14530  33.026  28.427   4.323
42805W        W14531  20.599   9.213  12.861
42806W        W14532  11.483  19.862   4.880
42807W        W14533  16.094  37.876  11.017
42808W        W14534  30.694  12.924  12.434
42809W        W14535   3.053  20.099  13.606
42810W        W14536   7.351  22.262  12.387
42811W        W14537  20.345   4.069  14.428
42812W        W14538   8.038  16.637   3.013
42813W        W14539  14.702  23.208   1.369
42814W        W14540  41.268  44.020  13.284
42815W        W14541  12.423  39.451  11.921
42816W        W14542  17.021  14.033   9.845
42817W        W14543  24.109  31.414  13.384
42818W        W14544  34.404  27.406   3.772
42819W        W14545  43.837  40.963  10.903
42820W        W14546  23.258  24.796  12.473
42821W        W14547  18.609  36.709  13.963
42822W        W14548  10.233  43.221   5.006
42823W        W14549  10.536  35.627   2.681
42824W        W14550  31.950  22.092  12.302
42825W        W14551  28.892  13.941   2.908
42826W        W14552  24.938  43.803   4.952
42827W        W14553  33.480   3.200  12.423
42828W        W14554  33.332  12.558   3.311
42829W        W14555  15.108  20.259  13.970
42830W        W14556  21.867   3.038  14.520
42831W        W14557  36.020  34.072  11.618
42832W        W14558  21.285  13.553   1.468
42833W        W14559  30.158  17.323  14.521
42834W        W14560  41.675  17.047  13.393
42835W        W14561  18.172  12.359  10.663
42836W        W14562  22.979  12.248   2.820
42837W        W14563  44.619  20.091  14.786
42838W        W14564  10.238  14.623   3.760
42839W        W14565  18.436  18.126  10.615
42840W        W14566  38.521   5.966   2.254
42841W        W14567  27.292  20.064   0.823
42842W        W14568  21.104  39.292  13.972
42843W        W14569  25.244  27.526   0.005
42844W        W14570  23.533  36.920   1.037
42845W        W14571   7.269  33.666   2.452
42846W        W14572  23.461  14.168   2.307
42847W        W14573  12.279  43.074  11.924
42848W        W14574   5.458  31.654   2.851
42849W        W14575  16.799   8.671  13.868
42850W        W14576  30.566  19.557  11.270
42851W        W14577  41.295  12.074   1.415
42852W        W14578  15.085   9.213  14.202
42853W        W14579   9.909   1.905   3.520
42854W        W14580  14.516  14.315   1.778
42855W        W14581  11.927  27.644   2.416
42856W        W14582   9.671   0.069  11.141
42857W        W14583   7.098   7.699   4.699
42858W        W14584  17.287   4.303  11.115
42859W        W14585   8.272  26.598  14.539
42860W        W14586  29.621  41.482   3.589
42861W        W14587  18.920  11.168  14.246
42862W        W14588  20.644  12.605   2.814
42863W        W14589   3.906  27.548  12.469
42864W        W14590  29.745  29.572   4.673
42865W        W14591   1.215  33.560  14.199
42866W        W14592  10.280  20.526   2.134
42867W        W14593  29.177   6.610  11.086
42868W        W14594  44.360  27.472   1.779
42869W        W14595  21.189  14.249   4.575
42870W        W14596   5.409   0.558   0.085
42871W        W14597  37.534  29.865  12.870
42872W        W14598  17.486  16.741  12.104
42873W        W14599  31.989   2.724   3.720
42874W        W14600  14.636  35.092  11.250
42875W        W14601  43.309  19.593   0.928
42876W        W14602  39.030  17.041   4.477
42877W        W14603   0.927  43.884  12.929
42878W        W14604   8.355  24.102  12.861
42879W        W14605   1.163  34.412  11.216
42880W        W14606   9.235   5.835   0.417
42881W        W14607  12.940  44.406  11.560
42882W        W14608  13.090  27.146  12.884
42883W        W14609  20.239  35.608  12.845
42884W        W14610  41.770  19.521   0.744
42885W        W14611   2.438   1.890  13.970
42886W        W14612  24.992  40.342   1.807
42887W        W14613  13.581  34.020   3.625
42888W        W14614  16.012  15.109   0.522
42889W        W14615   2.822  29.210  11.535
42890W        W14616  20.612  13.318   3.150
42891W        W14617   8.884  15.353   1.250
42892W        W14618  15.370  23.435   0.967
42893W        W14619   5.573   6.305  13.495
42894W        W14620  34.546  15.501  13.606
42895W        W14621  37.492   8.143   1.015
42896W        W14622  10.750  41.301  12.452
42897W        W14623  40.889   8.805   0.791
42898W        W14624  41.281   0.841  11.711
42899W        W14625  22.746  10.315  13.511
42900W        W14626  13.269   0.441  11.523
42901W        W14627  11.361  24.040   3.390
42902W        W14628  33.037   8.649   2.781
42903W        W14629  22.567  41.277   1.588
42904W        W14630  37.157   7.983   1.365
42905W        W14631   5.214  43.941   1.664
42906W        W14632   6.891  19.650  13.903
42907W        W14633  41.701   0.915  13.018
42908W        W14634  29.426   1.185  10.753
42909W        W14635  27.578  33.074   2.127
42910W        W14636  26.566  28.476  14.494
42911W        W14637   0.215  23.101   1.387
42912W        W14638  41.594  40.859  14.037
42913W        W14639  10.110   1.060   2.422
42914W        W14640   2.618  35.410  13.494
42915W        W14641  14.295  40.220   1.826
42916W        W14642   2.966  24.048   1.405
42917W        W14643  15.014  34.560   4.942
42918W        W14644  31.862  31.920   4.653
42919W        W14645  14.206  40.796  11.477
42920W        W14646  30.440  40.991  13.595
42921W        W14647   2.469   2.337  10.985
42922W        W14648  11.761  22.567  11.697
42923W        W14649  13.214  34.824  12.476
42924W        W14650  16.156   7.245   3.300
42925W        W14651  41.610  43.107   9.916
42926W        W14652  43.496  13.320  12.648
42927W        W14653   5.218  21.193  12.453
42928W        W14654  23.529  22.051  12.103
42929W        W14655  41.370  21.440   2.462
42930W        W14656   4.959  41.797   2.292
42931W        W14657  26.063  27.075   0.247
42932W        W14658  29.968   3.468   3.765
42933W        W14659  43.316   3.434  13.522
42934W        W14660  44.782  28.015  14.524
42935W        W14661  22.647   3.784  13.114
42936W        W14662  14.369   0.552   0.006
42937W        W14663  23.257  15.076  14.702
42938W        W14664   0.966  26.243   2.854
42939W        W14665  35.010  26.182  12.412
42940W        W14666  23.879  21.540   1.235
42941W        W14667  35.304  20.158   2.831
42942W        W14668  18.285  10.220   2.398
42943W        W14669  14.867  18.792   3.163
42944W        W14670  39.027  23.464  11.028
42945W        W14671  26.118  22.453  11.088
42946W        W14672  26.944   3.266  11.888
42947W        W14673  31.710  36.476  13.848
42948W        W14674   4.695   7.269   5.131
42949W        W14675  28.388   9.201   0.329
42950W        W14676  22.749   8.854   4.051
42951W        W14677  29.547  14.722  13.406
42952W        W14678   9.602  42.651  11.135
42953W        W14679   3.809  27.063  11.018
42954W        W14680  34.022  44.748   1.818
42955W        W14681  37.960  13.158  13.838
42956W        W14682   0.345  35.870  12.477
42957W        W14683  43.164  27.884  11.360
42958W        W14684  41.039  13.905  14.210
42959W        W14685  26.582  33.433  13.433
42960W        W14686  28.998  36.167   0.089
42961W        W14687   3.876  10.881  11.436
42962W        W14688  16.835   6.584  11.193
42963W        W14689   4.327  43.962  14.767
42964W        W14690  42.733  21.442   5.054
42965W        W14691  28.592   4.279  11.658
42966W        W14692   0.968   3.479  12.445
42967W        W14693   6.687  14.415  11.944
42968W        W14694  18.551   5.432   2.357
42969W        W14695  21.083   5.621  14.853
42970W        W14696  41.193  25.621   3.377
42971W        W14697  31.599  14.303   3.289
42972W        W14698   9.205  30.908   0.315
42973W        W14699  24.650  40.477   0.447
42974W        W14700  17.198  37.138  13.797
42975W        W14701  34.978  28.106   1.849
42976W        W14702   4.982  26.486   4.220
42977W        W14703  41.938  26.679   2.270
42978W        W14704  35.018   5.543  14.379
42979W        W14705   6.269  24.778   1.912
42980W        W14706   0.818  29.546  14.895
42981W        W14707  20.780  38.588  13.215
42982W        W14708  33.097  15.317   0.203
42983W        W14709   8.852  12.114   0.393
42984W        W14710   6.746  34.566   3.905
42985W        W14711  34.874  10.508  14.467
42986W        W14712   1.754   2.939   2.137
42987W        W14713  21.110  32.707  11.337
42988W        W14714  24.595  29.597  13.026
42989W        W14715  12.986  29.361  12.798
42990W        W14716  19.538   8.180  14.749
42991W        W14717  33.395  38.006   2.673
42992W        W14718  13.301  19.657  11.612
42993W        W14719  43.348   7.981  11.117
42994W        W14720  44.398   5.264   0.734
42995W        W14721  28.696   7.471  14.515
42996W        W14722  13.233   1.065   0.726
42997W        W14723  10.885  37.624  13.031
42998W        W14724  27.678  10.779  13.904
42999W        W14725  43.509  11.361  10.939
43000W        W14726  41.460  25.745   1.706
43001W        W14727  12.428  24.701  10.757
43002W        W14728  23.856   3.660  14.552
43003W        W14729   3.989  34.678   1.451
43004W        W14730  17.231   6.619  14.832
43005W        W14731  43.401   6.254  13.286
43006W        W14732  39.768  39.851   3.636
43007W        W14733  44.765  16.238   1.627
43008W        W14734  31.123   4.608  11.960
43009W        W14735  16.670   2.486   4.180
43010W        W14736   0.034   2.250   0.402
43011W        W14737   9.897  16.812  10.624
43012W        W14738   1.742   3.564   4.092
43013W        W14739   6.776  23.449  11.127
43014W        W14740  27.973   7.185  12.148
43015W        W14741  29.034   1.410  14.895
43016W        W14742  23.865  17.714  13.483
43017W        W14743  33.259   7.922  11.631
43018W        W14744   9.703  24.582   2.830
43019W        W14745  27.135  19.787   2.238
43020W        W14746  31.155  42.509   1.510
43021W        W14747  34.070  14.391   1.700
43022W        W14748   8.709  36.511   2.370
43023W        W14749   3.914  25.646   4.371
43024W        W14750   2.434  33.904  14.333
43025W        W14751  34.618  21.910   1.421
43026W        W14752  28.478  43.216  10.601
43027W        W14753  15.641  28.023   3.262
43028W        W14754  11.547  44.888   2.779
43029W        W14755  16.095   0.761  14.565
43030W        W14756  30.122  38.866   3.842
43031W        W14757  34.321  32.424  12.931
43032W        W14758  29.248  40.480   1.799
43033W        W14759  38.522  33.601   3.443
43034W        W14760  28.126  37.730   5.080
43035W        W14761  34.298  17.546  12.103
43036W        W14762  22.713  44.113   4.455
43037W        W14763  16.927  17.254  10.784
43038W        W14764  33.455  35.556  12.107
43039W        W14765  10.577  25.461   5.176
43040W        W14766  15.624   8.707   2.297
43041W        W14767  28.033  20.604   4.132
43042W        W14768  19.376  31.012   0.919
43043W        W14769   4.198   4.114  13.512
43044W        W14770  16.151  30.738   5.219
43045W        W14771  35.474  27.645   4.465
43046W        W14772  37.141  33.586   3.754
43047W        W14773  21.548   1.278   4.714
43048W        W14774  36.972  35.498  11.295
43049W        W14775  35.163  20.585  11.606
43050W        W14776  39.242  15.782  14.354
43051W        W14777  33.974  41.384   3.413
43052W        W14778  40.794  43.019  13.445
43053W        W14779  20.687   6.388   0.986
43054W        W14780  15.661   7.647  10.302
43055W        W14781  15.604  19.182   3.385
43056W        W14782  32.511  41.442  10.283
43057W        W14783  15.067  18.254  13.412
43058W        W14784  13.753  38.931   5.315
43059W        W14785  22.976  41.741   0.382
43060W        W14786  12.144  44.348   2.340
43061W        W14787  38.228   1.409   4.188
43062W        W14788  25.361  26.598  13.709
43063W        W14789   6.897  20.529  14.502
43064W        W14790   7.863  14.374   1.220
43065W        W14791  15.979  12.628  11.044
43066W        W14792  26.309  39.405  11.476
43067W        W14793   5.804  12.343  12.812
43068W        W14794  22.208  35.036  13.338
43069W        W14795  20.029  26.996  12.503
43070W        W14796  13.148   5.656  12.400
43071W        W14797  18.491   7.164  14.852
43072W        W14798   6.172  40.865  10.346
43073W        W14799  39.624  26.980   3.281
43074W        W14800  26.964  28.317   4.486
43075W        W14801  13.335  44.477   4.254
43076W        W14802   2.251  15.021   2.405
43077W        W14803  35.353  17.803   1.324
43078W        W14804  42.173  21.919  13.487
43079W        W14805  27.237  33.162   4.540
43080W        W14806  43.927  21.137   1.254
43081W        W14807  43.495   9.127   0.311
43082W        W14808  26.385  35.495  12.043
43083W        W14809  21.288  21.467  13.014
43084W        W14810  39.584   8.831   3.668
43085W        W14811  15.615   0.143   0.771
43086W        W14812  15.280   8.061   2.418
43087W        W14813  36.969  37.113   4.732
43088W        W14814   2.833  16.911   1.470
43089W        W14815  20.045  31.029   3.622
43090W        W14816  19.152  31.162   0.107
43091W        W14817  11.310  37.530   2.085
43092W        W14818   8.787  33.663  14.433
43093W        W14819  27.262  17.344   3.797
43094W        W14820  33.878  25.523  10.527
43095W        W14821  14.196  20.717  12.304
43096W        W14822  29.794  17.711  10.595
43097W        W14823  44.064   6.358   1.854
43098W        W14824  38.999  17.646  14.757
43099W        W14825  44.577   3.456  12.080
43100W        W14826  24.278  26.797  14.351
43101W        W14827  17.801   6.686  12.551
43102W        W14828  41.397  16.706   4.495
43103W        W14829  23.416  20.333  10.653
43104W        W14830  25.961  24.020   0.727
43105W        W14831  20.090  12.271   0.326
43106W        W14832  39.587  18.509   3.562
43107W        W14833  29.784  26.227   0.925
43108W        W14834  12.068   2.039  14.109
43109W        W14835  17.243   5.827  10.901
43110W        W14836  41.007   5.333  11.121
43111W        W14837  39.901  42.380  13.999
43112W        W14838  26.513  44.153   4.026
43113W        W14839  32.370  23.404   0.842
43114W        W14840  15.699  14.208  14.254
43115W        W14841  26.277  41.547   3.398
43116W        W14842  32.186   9.828  13.374
43117W        W14843  39.562  44.010   1.388
43118W        W14844  21.349  27.195   5.406
43119W        W14845  41.999  17.910  12.935
43120W        W14846  32.459  38.542   4.001
43121W        W14847  12.344   6.725   0.700
43122W        W14848  15.811  42.829   3.287
43123W        W14849  36.981  42.609  12.575
43124W        W14850  33.928  12.856   0.280
43125W        W14851   4.131   4.117   2.768
43126W        W14852  26.631  11.308   2.296
43127W        W14853   1.847   7.702   5.050
43128W        W14854  32.976   2.346   2.665
43129W        W14855  36.324  21.297   3.667
43130W        W14856  13.112   6.330   3.803
43131W        W14857  30.498  24.308  14.066
43132W        W14858  20.202  24.284   2.742
43133W        W14859  29.550   6.038  14.724
43134W        W14860  24.759   6.447  11.580
43135W        W14861  16.518  14.554  12.578
43136W        W14862  20.711   5.823  11.991
43137W        W14863  27.952   7.541  14.868
43138W        W14864   7.420  34.529   4.241
43139W        W14865  22.008  20.742  11.160
43140W        W14866  11.924  18.471   1.351
43141W        W14867  38.129  22.500   1.833
43142W        W14868  24.512  19.003   4.281
43143W        W14869  10.343  13.152   0.330
43144W        W14870  18.423  31.673   2.856
43145W        W14871   1.365  39.743  14.333
43146W        W14872  25.056  37.650  12.096
43147W        W14873  35.220  18.212   2.353
43148W        W14874  11.856   3.254   3.713
43149W        W14875   2.943  24.521  12.840
43150W        W14876  39.393  32.521  13.493
43151W        W14877   4.232   6.720   3.290
43152W        W14878  40.486  28.776  11.656
43153W        W14879   5.853  16.547   5.205
43154W        W14880   2.914   2.778  12.123
43155W        W14881  28.916   5.673  11.130
43156W        W14882  43.719  25.426  12.876
43157W        W14883  23.970  26.145   3.716
43158W        W14884   2.074  16.652  14.374
43159W        W14885  24.354  28.805   2.611
43160W        W14886  19.596  11.112   3.168
43161W        W14887  41.750  20.834   3.287
43162W        W14888  19.267   2.037   2.449
43163W        W14889  27.923  37.843  11.245
43164W        W14890  16.772   7.691  14.744
43165W        W14891  30.390   1.346   1.738
43166W        W14892   7.901  19.439   3.166
43167W        W14893  16.151  44.756  12.467
43168W        W14894  39.954  11.094   2.841
43169W        W14895  23.171  22.458  14.282
43170W        W14896   5.664  29.102   4.252
43171W        W14897   1.730  12.086  11.690
43172W        W14898  37.110  15.613  14.925
43173W        W14899   0.704  30.980   1.269
43174W        W14900   0.129   4.479  14.515
43175W        W14901  23.167   4.517   0.390
43176W        W14902  29.031  36.378  14.439
43177W        W14903  14.109   2.432  10.532
43178W        W14904  30.020  18.718  14.403
43179W        W14905   3.272  39.511   4.638
43180W        W14906  12.812  17.216  13.922
43181W        W14907   5.258   7.922   4.101
43182W        W14908   8.612  22.724   1.304
43183W        W14909  15.356  35.597  11.559
43184W        W14910  11.250  44.383  11.906
43185W        W14911   7.476  35.938   1.286
43186W        W14912  43.277  43.732   0.022
43187W        W14913  18.148   7.414  10.998
43188W        W14914  36.659  10.049  10.327
43189W        W14915  26.129  41.181   3.756
43190W        W14916  17.650  41.950  12.291
43191W        W14917  37.271  18.855  14.887
43192W        W14918   5.234  11.096  13.167
43193W        W14919   2.318  33.008   3.624
43194W        W14920  24.635   6.177  13.319
43195W        W14921  44.014  10.719  14.216
43196W        W14922  39.038  28.701  11.611
43197W        W14923  38.497  25.544  12.754
43198W        W14924  42.275  13.774   4.201
43199W        W14925  13.756  27.391  13.369
43200W        W14926   8.252   3.285   2.125
43201W        W14927  42.000  20.137  14.813
43202W        W14928  42.941  44.002   3.664
43203W        W14929  27.937  40.839  10.685
43204W        W14930  22.475  12.665   9.786
43205W        W14931  21.179  41.935  11.771
43206W        W14932  25.737  37.542   4.947
43207W        W14933  39.044  18.513   3.253
43208W        W14934  22.613  25.426   2.275
43209W        W14935  35.938  15.546  11.108
43210W        W14936   0.806  24.039   3.360
43211W        W14937  18.849  16.451   2.237
43212W        W14938  27.192   3.516  10.946
43213W        W14939  11.921  30.613  12.141
43214W        W14940  42.067  13.727   3.708
43215W        W14941  22.760   3.288  11.806
43216W        W14942  27.227  14.277  13.362
43217W        W14943  20.302  21.013  12.083
43218W        W14944   3.399  16.586  14.841
43219W        W14945   5.207  35.488   3.270
43220W        W14946  18.170  26.029   4.847
43221W        W14947   2.000  30.416  10.657
43222W        W14948  36.245  17.682   1.377
43223W        W14949   7.274  22.271   2.234
43224W        W14950   0.357  36.450  14.490
43225W        W14951  17.171  42.768   1.050
43226W        W14952   6.923  34.534   4.373
43227W        W14953  34.931   9.339   2.125
43228W        W14954   4.418  37.884   0.902
43229W        W14955  38.156   2.479   1.311
43230W        W14956  18.573  15.126  12.527
43231W        W14957  43.876  27.913  13.048
43232W        W14958  10.785  26.536   2.327
43233W        W14959  37.053  35.860  10.652
43234W        W14960   8.221   9.820   2.610
43235W        W14961  10.094  36.554  14.786
43236W        W14962  43.723  44.901   0.117
43237W        W14963  36.042  16.487  14.905
43238W        W14964  42.342  41.573  10.717
43239W        W14965   8.655   5.265  14.413
43240W        W14966  13.610  44.318   0.271
43241W        W14967  38.890  15.951   3.120
43242W        W14968   0.747  14.594   2.787
43243W        W14969  41.465   7.798   2.259
43244W        W14970  38.824  14.872  12.889
43245W        W14971  35.474  16.100   4.034
43246W        W14972   0.115   4.631   1.787
43247W        W14973   1.766  34.935   4.261
43248W        W14974  30.255   9.909  12.626
43249W        W14975  16.108  20.063   0.371
43250W        W14976  23.519  12.887   1.221
43251W        W14977   7.093  41.393   0.845
43252W        W14978  16.313  13.729  14.277
43253W        W14979  14.449  35.092  14.506
43254W        W14980  42.183  16.764   1.282
43255W        W14981  43.362  39.844   0.325
43256W        W14982  34.229   5.793   0.318
43257W        W14983  12.804  42.279  12.942
43258W        W14984  15.158  20.011  11.180
43259W        W14985  21.447  36.606   1.251
43260W        W14986  21.133  19.719   4.691
43261W        W14987   0.298  34.373  10.924
43262W        W14988  27.027  44.699   2.776
43263W        W14989  25.053  16.353  12.961
43264W        W14990  34.973  20.531   1.898
43265W        W14991  10.265  16.951   1.248
43266W        W14992  23.563  11.025   1.367
43267W        W14993  10.420  26.708  13.951
43268W        W14994  41.507  26.947   2.371
43269W        W14995  42.443  31.415   0.935
43270W        W14996  20.698  17.037   4.962
43271W        W14997  33.814  32.126  12.068
43272W        W14998  25.450  16.572   4.802
43273W        W14999  20.161  19.007   2.882
43274W        W15000  25.590  10.189   3.161
43275W        W15001  38.940  12.724   0.061
43276W        W15002  36.203  17.794  14.490
43277W        W15003  38.777  17.494   3.263
43278W        W15004  10.746  19.031   0.700
43279W        W15005  11.988  21.944  13.913
43280W        W15006  32.394   8.084  11.647
43281W        W15007   1.880  10.163  12.004
43282W        W15008  15.035  14.802   4.280
43283W        W15009  13.201  24.704  11.131
43284W        W15010  35.363  23.578  13.859
43285W        W15011   0.971  26.003   4.640
43286W        W15012  34.490   8.209  11.048
43287W        W15013  30.155  35.833  13.079
43288W        W15014  42.690  23.220   1.922
43289W        W15015   3.348  23.956   4.520
43290W        W15016   3.370  10.722   2.458
43291W        W15017  38.520   9.279   4.158
43292W        W15018   8.387   6.442   4.092
43293W        W15019  11.648  36.409   4.532
43294W        W15020   0.393  39.507   4.529
43295W        W15021  16.118  38.063  10.554
43296W        W15022  16.645  37.497  13.592
43297W        W15023  29.516  33.844  13.996
43298W        W15024   6.606  35.881   0.796
43299W        W15025  41.578  29.139  12.495
43300W        W15026  40.515  21.848  12.094
43301W        W15027  37.016  38.518   1.485
43302W        W15028  35.942   2.013  12.498
43303W        W15029   9.039   9.669   3.547
43304W        W15030   9.236  18.200  14.675
43305W        W15031   2.210  27.749   3.253
43306W        W15032   5.324  39.865   3.761
43307W        W15033   2.484  28.242   3.229
43308W        W15034  35.036  12.574   1.119
43309W        W15035   1.852  24.014   4.750
43310W        W15036  25.163  29.400  13.658
43311W        W15037  40.792  39.941  14.821
43312W        W15038  30.789   9.110   0.732
43313W        W15039  30.359  13.067  12.039
43314W        W15040  18.171   1.845   4.067
43315W        W15041  42.631   9.194   0.906
43316W        W15042  24.722  39.460  12.627
43317W        W15043  36.098  32.125  12.421
43318W        W15044   6.656  33.884  11.350
43319W        W15045   1.223  31.208   2.699
43320W        W15046  10.212  36.415  11.419
43321W        W15047  44.911  14.790   3.255
43322W        W15048  13.700  36.432  12.107
43323W        W15049  16.334   4.758  13.767
43324W        W15050  27.121   8.127  11.549
43325W        W15051  28.445  30.201  13.433
43326W        W15052  43.353   7.590  14.389
43327W        W15053   8.314  43.921   2.689
43328W        W15054  29.551  28.912   4.130
43329W        W15055  19.033  17.808  14.897
43330W        W15056  29.651  33.191   2.761
43331W        W15057  23.683  36.626   1.478
43332W        W15058   9.658  24.107   2.998
43333W        W15059  25.220   0.934   3.185
43334W        W15060  27.014  31.900   2.765
43335W        W15061   3.847  35.874   0.177
43336W        W15062   0.943  25.536  10.637
43337W        W15063  37.250   4.991  12.106
43338W        W15064  38.613   1.596  12.121
43339W        W15065  41.404  23.390   4.118
43340W        W15066  19.151  10.321  10.779
43341W        W15067  29.701  36.537   4.157
43342W        W15068   5.417  37.325   2.445
43343W        W15069  18.243  38.958  13.896
43344W        W15070  19.462  42.654   5.030
43345W        W15071  10.457  10.352   2.269
43346W        W15072   0.860  13.348   5.002
43347W        W15073  12.703   6.724  14.821
43348W        W15074  44.688  21.485  13.493
43349W        W15075  39.745  44.188   4.495
43350W        W15076   6.378  11.598   4.830
43351W        W15077   7.449  14.368  11.170
43352W        W15078  21.019  38.505   4.695
43353W        W15079  22.118  20.087   3.160
43354W        W15080  12.266  18.109  14.439
43355W        W15081  42.930   9.757  12.372
43356W        W15082  17.109  18.173   3.166
43357W        W15083  43.953  38.872  11.985
43358W        W15084  43.684  20.977   0.321
43359W        W15085   7.604  36.820   1.295
43360W        W15086  15.087   0.313   0.912
43361W        W15087  36.444  12.893   3.904
43362W        W15088  39.252  33.148   3.840
43363W        W15089   5.502  10.733  13.419
43364W        W15090  39.547   8.752  14.037
43365W        W15091   2.391  29.167  11.270
43366W        W15092  23.052   1.734  10.822
43367W        W15093   0.037  25.024   4.109
43368W        W15094   9.306  35.324   4.015
43369W        W15095   5.881  15.535   5.105
43370W        W15096  14.168  10.261   0.061
43371W        W15097  40.810  22.585   4.098
43372W        W15098  43.734  30.552   2.798
43373W        W15099  41.953  10.079   2.233
43374W        W15100   2.913  30.931  13.570
43375W        W15101  32.190   7.076   4.245
43376W        W15102  22.320  25.758   1.939
43377W        W15103  19.294  21.134   2.658
43378W        W15104  14.195   5.440  13.434
43379W        W15105   1.348  14.336   0.669
43380W        W15106   7.890  40.256  11.398
43381W        W15107  41.506  24.057  10.677
43382W        W15108   4.712  21.820   9.976
43383W        W15109  17.062  40.327  12.106
43384W        W15110  12.735  44.393   2.228
43385W        W15111  17.263   5.407   0.322
43386W        W15112  14.956  13.798  11.164
43387W        W15113   1.442  23.831  13.446
43388W        W15114  37.887  10.798   4.201
43389W        W15115  29.363  27.083   1.458
43390W        W15116   6.145   9.905   1.301
43391W        W15117   1.740  28.528   0.290
43392W        W15118  11.317   7.899  14.798
43393W        W15119  10.597  26.977  10.389
43394W        W15120  17.508  14.836   2.328
43395W        W15121  25.229  12.303   0.345
43396W        W15122   5.139   7.453  12.144
43397W        W15123  33.373   1.401   4.647
43398W        W15124   3.970  32.084  11.654
43399W        W15125  33.955   2.915   4.190
43400W        W15126  41.565  24.010  13.128
43401W        W15127  41.939  13.383  11.673
43402W        W15128  22.045  39.095  13.589
43403W        W15129  33.483  13.207   1.955
43404W        W15130   9.717  41.534  14.717
43405W        W15131  15.722  42.325   1.386
43406W        W15132  39.093  13.269  13.317
43407W        W15133  30.167  27.668  10.776
43408W        W15134  22.023  35.890   4.542
43409W        W15135  26.162  16.058   4.250
43410W        W15136   9.710  21.268   1.555
43411W        W15137  21.970  24.455  14.784
43412W        W15138  38.471  38.126   3.591
43413W        W15139  33.440  20.485  13.022
43414W        W15140   3.240  36.314   4.098
43415W        W15141   9.657  40.526   3.939
43416W        W15142  42.367  40.947  12.518
43417W        W15143  24.471   0.264  11.235
43418W        W15144   3.720  30.002  11.577
43419W        W15145  30.091  39.069   4.347
43420W        W15146   3.987  44.472  12.939
43421W        W15147   3.168  21.062  14.034
43422W        W15148  11.790  20.837   1.411
43423W        W15149   2.987  30.031   4.368
43424W        W15150   6.179  38.450   3.172
43425W        W15151  37.796   8.364  13.831
43426W        W15152  37.803  13.783  12.048
43427W        W15153  13.370   1.857   2.203
43428W        W15154   5.122  21.698   1.773
43429W        W15155  22.798  24.006  13.833
43430W        W15156  32.442  21.255   2.655
43431W        W15157  26.044   5.171   2.422
43432W        W15158  27.005  42.919  12.057
43433W        W15159  34.133  10.643  13.531
43434W        W15160  31.101  20.591   4.270
43435W        W15161   7.196  17.285   2.705
43436W        W15162   9.165  44.591   4.734
43437W        W15163   9.489  15.605   2.042
43438W        W15164  33.561  22.333   1.916
43439W        W15165  10.813  23.506  11.937
43440W        W15166  24.754  33.917   4.580
43441W        W15167   9.020   6.170  11.986
43442W        W15168   7.804  23.556  13.564
43443W        W15169  40.056  20.097   3.704
43444W        W15170  36.387  36.073   3.274
43445W        W15171  37.842  39.182   2.377
43446W        W15172  26.084   5.418   0.557
43447W        W15173   9.547  37.790  12.066
43448W        W15174  31.495  31.330   3.656
43449W        W15175  20.091  13.771   3.738
43450W        W15176  37.193  28.073  13.538
43451W        W15177  20.314  43.100   0.056
43452W        W15178  20.047  41.091  14.827
43453W        W15179  13.299  34.403  11.540
43454W        W15180   5.780  19.267   1.755
43455W        W15181   6.803   6.342  14.936
43456W        W15182  42.257  19.226  11.323
43457W        W15183  28.088   2.237  11.611
43458W        W15184  38.951  43.719  12.052
43459W        W15185  21.045  19.556   0.697
43460W        W15186  12.621  22.412  13.289
43461W        W15187  34.586   0.726   3.167
43462W        W15188  15.478  12.572  10.870
43463W        W15189  26.124   6.830   3.326
43464W        W15190  27.569  40.078  11.013
43465W        W15191  37.621   1.133   0.849
43466W        W15192  12.672  44.815  11.413
43467W        W15193  26.025   3.291  13.575
43468W        W15194  33.610  22.712   5.103
43469W        W15195  13.704   0.987   1.271
43470W        W15196  29.345   9.177   0.898
43471W        W15197  17.434  11.483  14.407
43472W        W15198  14.574   1.328   0.319
43473W        W15199  23.659  27.729  11.919
43474W        W15200  36.604  40.829   2.266
43475W        W15201   8.694  32.891   5.058
43476W        W15202  26.528  26.950  10.890
43477W        W15203  12.253   3.923  11.112
43478W        W15204  16.167   7.782  14.056
43479W        W15205  19.612  12.044  14.815
43480W        W15206  14.628  28.751  11.674
43481W        W15207  30.236  12.773  14.724
43482W        W15208  28.871  29.296   4.579
43483W        W15209  12.209  41.872  11.392
43484W        W15210  14.325   2.264   0.317
43485W        W15211   9.288  26.301   5.599
43486W        W15212  12.993  23.396  14.838
43487W        W15213  26.174  15.288   4.581
43488W        W15214   1.315  19.182  12.903
43489W        W15215  44.838  31.631   2.653
43490W        W15216   0.680  13.671   0.084
43491W        W15217  26.522  30.593  12.018
43492W        W15218   1.058  16.455  12.461
43493W        W15219  23.211  42.292  10.832
43494W        W15220  40.813  10.537   2.791
43495W        W15221  36.042   4.690  14.069
43496W        W15222  14.790  20.327   0.759
43497W        W15223   6.133  35.840  11.582
43498W        W15224  40.424  10.294  14.141
43499W        W15225  21.057   0.910  12.995
43500W        W15226  21.753  36.174  12.969
43501W        W15227  38.870  37.374  14.034
43502W        W15228   4.219  13.612   2.368
43503W        W15229  40.643  26.913   3.367
43504W        W15230  29.899  17.089   3.295
43505W        W15231   0.831  36.816  13.491
43506W        W15232  16.860  34.583  13.903
43507W        W15233  10.147  16.747  11.899
43508W        W15234  19.640  25.678   4.157
43509W        W15235   0.807  10.719   0.717
43510W        W15236  38.846   5.911  12.075
43511W        W15237  11.281  24.741   5.434
43512W        W15238  25.061  34.723   1.305
43513W        W15239  28.613  20.267  14.245
43514W        W15240  23.550  11.376  11.511
43515W        W15241   6.713  18.255  11.545
43516W        W15242  34.537   5.275   4.236
43517W        W15243   2.762  41.260  12.524
43518W        W15244  14.157  17.653   4.620
43519W        W15245   6.605  26.718  10.989
43520W        W15246  28.154  21.510   0.343
43521W        W15247   1.059   8.184   2.732
43522W        W15248  27.912  27.536   0.313
43523W        W15249  25.921  20.901   0.388
43524W        W15250  13.198  36.905   3.963
43525W        W15251  25.589  16.130   1.234
43526W        W15252  20.597  34.146   1.336
43527W        W15253  38.340  34.069   3.310
43528W        W15254  27.141  44.195   2.709
43529W        W15255  43.775   1.998   1.153
43530W        W15256  39.827  42.853   3.770
43531W        W15257  25.318  43.531  10.277
43532W        W15258   3.672  18.026   2.143
43533W        W15259  44.032  10.170  13.001
43534W        W15260  40.573  40.025   2.303
43535W        W15261   4.980  21.159   4.962
43536W        W15262   2.805   7.481  14.837
43537W        W15263  10.442   4.842   0.643
43538W        W15264  34.926  27.115   0.366
43539W        W15265  34.772   7.754   3.997
43540W        W15266   7.545   9.608   2.220
43541W        W15267   9.874   9.678   3.237
43542W        W15268  43.338   1.155   0.821
43543W        W15269  20.637  41.456   1.529
43544W        W15270   4.058   6.134  11.540
43545W        W15271  33.031  21.576   4.634
43546W        W15272  12.715  26.155   2.695
43547W        W15273  26.017  44.942   4.335
43548W        W15274  32.868  25.595   0.528
43549W        W15275  11.891   8.287   1.983
43550W        W15276   4.593  33.936  11.575
43551W        W15277   6.316  43.635  11.511
43552W        W15278  32.315   9.367   2.856
43553W        W15279  43.014  24.945  12.951
43554W        W15280  12.352  28.556  11.888
43555W        W15281  40.284   7.438   2.866
43556W        W15282  26.097  12.268   0.897
43557W        W15283  22.448   3.630  13.988
43558W        W15284  14.612   6.751  12.434
43559W        W15285  16.238  10.579  11.384
43560W        W15286  37.191  41.358  14.753
43561W        W15287  42.783  19.017   1.459
43562W        W15288  15.365  25.364   3.148
43563W        W15289  28.431   3.017   0.385
43564W        W15290  23.308  19.461   1.389
43565W        W15291   6.386  26.746  12.419
43566W        W15292   2.769  38.077   0.643
43567W        W15293   5.830  11.288   4.907
43568W        W15294  19.259  38.592  12.359
43569W        W15295  23.630  12.302  11.589
43570W        W15296  15.350  10.814   0.458
43571W        W15297   1.329  16.239   3.408
43572W        W15298   1.352   4.292   2.757
43573W        W15299  40.027  39.469  14.345
43574W        W15300  29.420  33.018  10.693
43575W        W15301  19.757  37.215  12.166
43576W        W15302  27.497  20.367  14.844
43577W        W15303  24.556   1.675   2.201
43578W        W15304  28.122  18.034   0.340
43579W        W15305  18.716  28.514   4.427
43580W        W15306   2.235   5.495   3.661
43581W        W15307  19.762  16.272   4.348
43582W        W15308  38.132  35.323  13.537
43583W        W15309  43.949  14.759   3.178
43584W        W15310   0.525  11.951   4.549
43585W        W15311  36.613   0.212   4.657
43586W        W15312  24.020   4.341   0.969
43587W        W15313  13.969  25.687  13.395
43588W        W15314   8.984   2.270  12.658
43589W        W15315  13.863  34.932  10.731
43590W        W15316  16.372  43.347   3.754
43591W        W15317  17.274  19.289   0.234
43592W        W15318  32.330  10.828  14.661
43593W        W15319  18.039   3.821   0.694
43594W        W15320   6.694  22.507  13.340
43595W        W15321  16.865  12.679  13.889
43596W        W15322  10.573  39.128   4.927
43597W        W15323  38.077  11.783   3.620
43598W        W15324  23.757  29.005  12.196
43599W        W15325  31.184  17.177  14.228
43600W        W15326  16.838  13.134   2.290
43601W        W15327  21.545  37.943  12.862
43602W        W15328  26.378  19.130  13.549
43603W        W15329  37.778  43.846  13.345
43604W        W15330  30.188  12.846  12.475
43605W        W15331  14.249  40.054   0.230
43606W        W15332  26.283  43.472   0.436
43607W        W15333   9.702  13.592   1.941
43608W        W15334  41.959  38.293   2.357
43609W        W15335   1.806  31.124   0.298
43610W        W15336  28.069  29.160  12.421
43611W        W15337  37.022  18.146   4.306
43612W        W15338  42.176  24.667  13.021
43613W        W15339  40.217  41.778   2.836
43614W        W15340  21.541  41.948  13.200
43615W        W15341  29.122  19.009  14.448
43616W        W15342   3.190  35.489  14.413
43617W        W15343  22.171  28.486  14.256
43618W        W15344  24.560  27.909   3.249
43619W        W15345  39.917  27.131   0.998
43620W        W15346  17.320  35.455   1.696
43621W        W15347  34.752  39.926  11.481
43622W        W15348   2.544  28.021  14.853
43623W        W15349  43.355   7.079  14.453
43624W        W15350  37.543  21.767   3.883
43625W        W15351   3.173   0.274   4.700
43626W        W15352  37.440  41.233   4.717
43627W        W15353  12.086  11.311   3.871
43628W        W15354  39.000  37.487  11.154
43629W        W15355  13.320  32.617  11.937
43630W        W15356  19.174  34.976  12.113
43631W        W15357  11.421   6.721   1.435
43632W        W15358  22.624  42.106  12.434
43633W        W15359  26.890   7.219   4.645
43634W        W15360   7.263  27.551  13.538
43635W        W15361  20.050  41.213   0.310
43636W        W15362   2.816  44.687  10.685
43637W        W15363  23.550  30.869   4.927
43638W        W15364  43.510   7.724   1.138
43639W        W15365  35.945  28.563   0.336
43640W        W15366  37.969   0.003  12.583
43641W        W15367  37.557  14.060  10.700
43642W        W15368  17.762  32.258   2.786
43643W        W15369  23.284  44.933  12.986
43644W        W15370   2.800  30.031  11.200
43645W        W15371  24.927   2.662   0.759
43646W        W15372  13.320   7.123   1.919
43647W        W15373  24.005  29.652  11.654
43648W        W15374   8.142  21.628  13.338
43649W        W15375  21.667  44.019   2.144
43650W        W15376  17.392  10.416  10.296
43651W        W15377   7.850  24.185  10.238
43652W        W15378  30.544  14.489   3.514
43653W        W15379   0.717  27.341   3.757
43654W        W15380  44.924  10.350   1.509
43655W        W15381  42.231   0.948  10.712
43656W        W15382  19.492  25.670  10.613
43657W        W15383  40.506  38.015  12.003
43658W        W15384   7.678  23.514   3.233
43659W        W15385  25.102  16.288   2.846
43660W        W15386  30.673  22.532  14.406
43661W        W15387   6.996  44.984  10.950
43662W        W15388   6.468  20.161  14.404
43663W        W15389   5.177   9.896  12.241
43664W        W15390  10.199  33.960   0.353
43665W        W15391   3.555  18.106   2.627
43666W        W15392   5.335  31.913   1.451
43667W        W15393   9.964   9.774  13.018
43668W        W15394  42.967   7.362  10.688
43669W        W15395  20.624  27.211   3.329
43670W        W15396   8.753   2.071   0.755
43671W        W15397  34.630   0.977   1.711
43672W        W15398   3.475  34.152  13.026
43673W        W15399  30.879  30.575  13.633
43674W        W15400  22.655   8.576  12.847
43675W        W15401   3.465  15.668   4.504
43676W        W15402  43.347   3.980  12.848
43677W        W15403  20.155  10.162  11.579
43678W        W15404  40.567  17.635   1.998
43679W        W15405  29.986  28.687   0.559
43680W        W15406  38.783  42.471   3.246
43681W        W15407   3.916   1.195   3.643
43682W        W15408  34.342   0.169   1.303
43683W        W15409  18.726  13.732   0.342
43684W        W15410  15.179  12.759   0.283
43685W        W15411   7.699  38.021  14.728
43686W        W15412  21.338  40.460   4.671
43687W        W15413  40.250  40.230  10.330
43688W        W15414  18.600  29.176   1.301
43689W        W15415  20.056  29.037  10.582
43690W        W15416  10.422  15.734  13.007
43691W        W15417  36.137  22.194   4.293
43692W        W15418  37.555  24.159   3.190
43693W        W15419  31.893  38.409  13.214
43694W        W15420   0.995   6.174   1.123
43695W        W15421  25.222   1.025  11.528
43696W        W15422  13.513   6.865   4.693
43697W        W15423  43.239  35.018   2.556
43698W        W15424  32.667   4.654   0.410
43699W        W15425  32.118   4.727   3.572
43700W        W15426  10.277  33.971  13.666
43701W        W15427  20.252   0.364   1.524
43702W        W15428  17.997  18.278  13.917
43703W        W15429  17.581  12.811  11.966
43704W        W15430   6.696  33.292   3.806
43705W        W15431  42.764  19.604   9.967
43706W        W15432   9.300  15.805  14.367
43707W        W15433  40.704   0.966  12.916
43708W        W15434  17.822  17.779  13.958
43709W        W15435   6.686  41.657  14.991
43710W        W15436  38.417  15.727   3.201
43711W        W15437  36.473   9.679   4.631
43712W        W15438  35.816  41.422  13.541
43713W        W15439  30.854   0.391   9.918
43714W        W15440  29.239   3.287   4.913
43715W        W15441   0.542  18.989   0.167
43716W        W15442  41.608   9.054  11.678
43717W        W15443   8.268  20.645   4.142
43718W        W15444   0.793  36.015  13.904
43719W        W15445   6.399   5.152  14.569
43720W        W15446  19.783   3.215   0.108
43721W        W15447  38.391  36.660   0.254
43722W        W15448  19.653  35.893  14.893
43723W        W15449   0.729  18.644   2.700
43724W        W15450   2.163  38.014   3.260
43725W        W15451   8.232  35.383   2.244
43726W        W15452  11.805  19.524  11.582
43727W        W15453   2.183  30.950  10.532
43728W        W15454   0.405  42.966  11.578
43729W        W15455  40.447  43.507  14.243
43730W        W15456  34.903  14.134   1.193
43731W        W15457   9.989  13.784  13.059
43732W        W15458  21.009  36.865   1.870
43733W        W15459  40.032  18.890  13.456
43734W        W15460  41.935  10.387  14.019
43735W        W15461  31.892   2.390  13.929
43736W        W15462  24.749  23.273   2.799
43737W        W15463  35.434  25.297  13.915
43738W        W15464  10.453  23.146  13.330
43739W        W15465  44.560  11.871  13.392
43740W        W15466  32.279   9.930  10.592
43741W        W15467  14.224  44.789   1.920
43742W        W15468  23.765  33.915   1.422
43743W        W15469  13.516  13.767   4.169
43744W        W15470  21.562  29.862  13.516
43745W        W15471  40.640  42.507   3.132
43746W        W15472  32.517  32.921  11.883
43747W        W15473  27.404   3.663  13.931
43748W        W15474  27.292   8.676  14.641
43749W        W15475  31.005   9.934   3.795
43750W        W15476  36.831   3.522   1.393
43751W        W15477  26.292  33.179   0.351
43752W        W15478  21.986  15.860   3.823
43753W        W15479  29.496  38.058  14.513
43754W        W15480  19.278  33.830  12.809
43755W        W15481  25.265   8.658   5.129
43756W        W15482  41.804  28.560  11.541
43757W        W15483  11.616  26.055  13.487
43758W        W15484   0.894   4.863   0.518
43759W        W15485   0.968  33.977  11.026
43760W        W15486   0.556   5.225  12.010
43761W        W15487   5.203   1.750   2.147
43762W        W15488   7.608  13.165   2.172
43763W        W15489  31.574  15.694  12.556
43764W        W15490  10.131  39.986  12.878
43765W        W15491  25.200  14.645  11.535
43766W        W15492  15.131  33.118   1.602
43767W        W15493  39.528  11.914  13.604
43768W        W15494  33.594  17.757  13.714
43769W        W15495  13.328  10.683   2.312
43770W        W15496   9.620  39.987   2.554
43771W        W15497  42.896   6.358   0.151
43772W        W15498  39.928  30.522   1.399
43773W        W15499  19.676   2.363  12.504
43774W        W15500  28.998  30.583  11.658
43775W        W15501  17.551  18.333   0.306
43776W        W15502  29.250  19.933   0.823
43777W        W15503  11.614  26.004  14.455
43778W        W15504   9.026  37.382  11.476
43779W        W15505  15.947  25.931   1.278
43780W        W15506  33.843  19.810   0.551
43781W        W15507   0.437  17.707   2.704
43782W        W15508   8.338  36.541  12.202
43783W        W15509  12.319  42.807  13.435
43784W        W15510  30.722  33.059   3.298
43785W        W15511  18.685   4.681   0.985
43786W        W15512  20.150  38.561   0.796
43787W        W15513  32.363  25.930   2.618
43788W        W15514  22.513  27.453  11.489
43789W        W15515  25.957   0.838  13.132
43790W        W15516  22.692  21.062   3.367
43791W        W15517   5.852  40.255   0.293
43792W        W15518  34.649  41.284  14.574
43793W        W15519   6.441  41.022  11.879
43794W        W15520  31.874  30.802   1.660
43795W        W15521  36.401  18.665  14.917
43796W        W15522  39.934  34.868   1.848
43797W        W15523  42.018   7.416   2.762
43798W        W15524  26.680  12.850  13.441
43799W        W15525  12.881  40.006  11.729
43800W        W15526  35.857   9.153   3.305
43801W        W15527  31.850  34.106  11.586
43802W        W15528   4.980   1.916   3.185
43803W        W15529  19.017  18.769  11.954
43804W        W15530  43.514  12.127   1.417
43805W        W15531  42.183   7.258   1.420
43806W        W15532  28.476  37.530  13.759
43807W        W15533  32.461  14.163   0.709
43808W        W15534  22.177   7.886   2.380
43809W        W15535  22.205  25.210  10.666
43810W        W15536   7.251  16.152  13.530
43811W        W15537  37.974  11.920  13.154
43812W        W15538  36.529  38.081   0.934
43813W        W15539  17.033  21.129   4.478
43814W        W15540  24.943  36.481  10.931
43815W        W15541  43.979   5.704  12.403
43816W        W15542  42.255   3.045  11.579
43817W        W15543  41.091  26.141   4.513
43818W        W15544  18.611  11.625  10.785
43819W        W15545   4.345   7.912  12.750
43820W        W15546  33.895  13.673  14.795
43821W        W15547  36.652   0.344  13.509
43822W        W15548  35.283  44.988  13.004
43823W        W15549  33.624  37.082   3.883
43824W        W15550  24.308  11.481   0.698
43825W        W15551  41.484  40.000  10.896
43826W        W15552   8.653   3.212  14.965
43827W        W15553  16.532   9.812   2.292
43828W        W15554  28.002  25.482   1.891
43829W        W15555  37.812  15.631   2.351
43830W        W15556  22.846  25.044   4.704
43831W        W15557  12.172  14.862  13.738
43832W        W15558  37.247  34.506  14.955
43833W        W15559  37.976  38.203   1.306
43834W        W15560  37.566   8.250  12.842
43835W        W15561  27.581  21.056   2.868
43836W        W15562  32.050   0.021   3.220
43837W        W15563  10.707  27.185  12.494
43838W        W15564  44.309   7.454   0.347
43839W        W15565  29.047  27.054   3.813
43840W        W15566  13.815  43.236  13.042
43841W        W15567  29.348   7.842  11.526
43842W        W15568   7.168   6.218   1.730
43843W        W15569  39.942  12.678   1.891
43844W        W15570  35.857   0.989   4.043
43845W        W15571  27.913  21.642   4.194
43846W        W15572  27.024  30.203  13.249
43847W        W15573  25.362  39.856   1.438
43848W        W15574  33.642  16.205  13.830
43849W        W15575  38.749   5.385   3.555
43850W        W15576  19.369  19.583   1.312
43851W        W15577   6.498  24.455  10.243
43852W        W15578  19.450  23.638  13.762
43853W        W15579   8.558  27.064  12.127
43854W        W15580  19.133  15.824  13.181
43855W        W15581  27.082  35.322   3.743
43856W        W15582  31.574  14.859  10.639
43857W        W15583  16.422  38.142   0.320
43858W        W15584  17.654   7.259   1.446
43859W        W15585  20.080   5.862   3.712
43860W        W15586  16.689  35.324   3.748
43861W        W15587  20.046  40.351   3.303
43862W        W15588   0.249  22.133   2.288
43863W        W15589  22.226  31.597  14.042
43864W        W15590  25.344  31.717   2.477
43865W        W15591  23.373  11.515   5.235
43866W        W15592  33.215   6.844   4.316
43867W        W15593  19.056  24.898  13.250
43868W        W15594   0.775  44.799  11.698
43869W        W15595  36.836  37.402   3.786
43870W        W15596  18.939  24.529  11.774
43871W        W15597  39.038  15.126   4.019
43872W        W15598   4.663  28.549   1.183
43873W        W15599   4.158   9.290  12.456
43874W        W15600  30.281  12.688  13.361
43875W        W15601  44.441   7.389  12.434
43876W        W15602  40.693  33.029  13.814
43877W        W15603  44.690   5.955  12.858
43878W        W15604  11.268  44.970  13.314
43879W        W15605  12.070  21.639   0.369
43880W        W15606  22.577   3.930  14.387
43881W        W15607  26.008  25.780  14.677
43882W        W15608   8.908  14.252  11.076
43883W        W15609  19.678   3.162   4.166
43884W        W15610  43.857  33.529  14.277
43885W        W15611   7.158  41.443   2.230
43886W        W15612   8.778  10.744  13.519
43887W        W15613   4.788  12.414  14.413
43888W        W15614  37.046   2.668   4.715
43889W        W15615  39.625  21.559  12.101
43890W        W15616  23.150   1.053   1.687
43891W        W15617  18.042  18.084  11.448
43892W        W15618  10.820  27.971   3.924
43893W        W15619  26.785  18.549   0.351
43894W        W15620   4.146   5.887   4.529
43895W        W15621  35.912  39.315  12.021
43896W        W15622  25.986  43.755   0.766
43897W        W15623  13.453  38.867  10.051
43898W        W15624   5.620  33.196   4.574
43899W        W15625  20.055  41.725  13.480
43900W        W15626  13.255   8.111   4.200
43901W        W15627  13.210  40.575   2.300
43902W        W15628  40.056  10.272  11.501
43903W        W15629  17.366  10.854  13.454
43904W        W15630  24.203  36.365   0.825
43905W        W15631  26.215   6.019  13.326
43906W        W15632   1.499  33.357   0.535
43907W        W15633  25.545  23.554  12.942
43908W        W15634   6.893  39.036  12.551
43909W        W15635  44.854  13.367  13.785
43910W        W15636  11.916  36.536  12.971
43911W        W15637  18.308  30.152   0.725
43912W        W15638  41.239  11.312  12.098
43913W        W15639  22.122  34.917   0.146
43914W        W15640   3.154  36.462   0.243
43915W        W15641  16.752   8.360  13.467
43916W        W15642  15.320  15.022   2.330
43917W        W15643  31.127  27.225   3.161
43918W        W15644  31.401  31.016   1.786
43919W        W15645  32.962  14.081   4.737
43920W        W15646  24.581  43.036   2.225
43921W        W15647   2.293   0.360   3.789
43922W        W15648   9.993  19.728  13.830
43923W        W15649  26.155  25.008   0.918
43924W        W15650  23.513  38.117   2.372
43925W        W15651   2.124  36.591  11.185
43926W        W15652  28.166  42.804  10.714
43927W        W15653  31.868   6.700   4.438
43928W        W15654  14.299  20.223   0.708
43929W        W15655   6.184   6.606   1.343
43930W        W15656  35.582  32.825   2.819
43931W        W15657  41.302  26.189   1.937
43932W        W15658   5.352   9.901   0.332
43933W        W15659  37.158  31.786  13.987
43934W        W15660  22.055  16.002   0.400
43935W        W15661  41.586  31.312   0.830
43936W        W15662  24.170   5.936  13.407
43937W        W15663   0.992  38.808  12.522
43938W        W15664   9.007  32.854   3.616
43939W        W15665  38.525  36.454  11.084
43940W        W15666  26.988  11.753   3.360
43941W        W15667  38.328  16.387   3.747
43942W        W15668  11.773  25.788   1.043
43943W        W15669  19.788  17.664  13.949
43944W        W15670  18.661  18.629  14.785
43945W        W15671  14.252  18.230   1.652
43946W        W15672  29.467  11.295  12.612
43947W        W15673  32.457  39.285  12.060
43948W        W15674  29.718  40.541  11.817
43949W        W15675   4.964   4.753   3.271
43950W        W15676  22.965  26.931   4.663
43951W        W15677  19.984  12.696  12.908
43952W        W15678   4.211  16.094   3.938
43953W        W15679  17.495  26.179  13.830
43954W        W15680  31.578  11.605  12.056
43955W        W15681  21.692  12.401   4.102
43956W        W15682  23.151  12.636   1.859
43957W        W15683  20.877  28.946   3.001
43958W        W15684  39.583  22.940   4.143
43959W        W15685  33.722  28.260  13.899
43960W        W15686   8.271  44.054  11.532
43961W        W15687   2.153  34.283   0.264
43962W        W15688  30.512  17.259  11.669
43963W        W15689  36.584   2.392   3.542
43964W        W15690   1.045   0.892   0.836
43965W        W15691   1.780  33.904   1.286
43966W        W15692  37.392  28.472   3.830
43967W        W15693  26.970   7.884   0.535
43968W        W15694  25.662   1.309   5.457
43969W        W15695  24.196  28.207   3.488
43970W        W15696  35.560  30.394   2.317
43971W        W15697  34.896   2.658   1.264
43972W        W15698   8.778  34.061   2.341
43973W        W15699  20.730   8.186   2.645
43974W        W15700  24.880  19.859  13.352
43975W        W15701   5.353  38.490  10.624
43976W        W15702  29.096  15.749  14.282
43977W        W15703  25.545  23.447   1.469
43978W        W15704   7.544  23.053  14.333
43979W        W15705  19.693  11.620   3.165
43980W        W15706   2.778  13.288  10.779
43981W        W15707  25.722   3.859   0.454
43982W        W15708  18.067   2.884   1.821
43983W        W15709  26.596  19.582   1.266
43984W        W15710  16.448  31.407   3.137
43985W        W15711  23.792  17.103  11.040
43986W        W15712  24.172  12.884   5.094
43987W        W15713  31.226  33.055  13.859
43988W        W15714  26.172  44.442   0.104
43989W        W15715   2.269  34.317  10.692
43990W        W15716   1.009  41.999   0.926
43991W        W15717  29.383  41.990  12.712
43992W        W15718  10.459  11.232  14.346
43993W        W15719  20.548  30.323  12.841
43994W        W15720  28.121  32.084   3.157
43995W        W15721  34.956  22.611  14.620
43996W        W15722  29.804  44.448  14.507
43997W        W15723  32.631  16.787   0.406
43998W        W15724   0.168  43.113  11.166
43999W        W15725  38.453   1.108   2.292
44000W        W15726  20.211  35.448  11.996
44001W        W15727   6.383   3.779  10.317
44002W        W15728  38.700  36.917   5.008
44003W        W15729  28.921  18.616  14.186
44004W        W15730   0.941  17.675   2.519
44005W        W15731   0.334  34.535   0.358
44006W        W15732  41.907  11.274  13.419
44007W        W15733  24.266   6.849   2.921
44008W        W15734   3.305  39.155   3.627
44009W        W15735  14.582  20.198  13.911
44010W        W15736  30.447   3.098  14.438
44011W        W15737  29.992   9.909  14.993
44012W        W15738  27.652  37.980  14.498
44013W        W15739  36.719   3.570  13.574
44014W        W15740  26.244  25.578   4.567
44015W        W15741   1.217  44.043   0.318
44016W        W15742  26.940  36.255  11.040
44017W        W15743   5.221   0.155   0.322
44018W        W15744  29.062   9.657   4.189
44019W        W15745  15.841  42.265   3.626
44020W        W15746   3.289   9.193  14.832
44021W        W15747   7.405  31.840   0.013
44022W        W15748  44.726  23.236   0.924
44023W        W15749  41.769  35.957  12.999
44024W        W15750  31.610   5.452   1.611
44025W        W15751  14.790   4.067  14.311
44026W        W15752  15.342  26.411  13.369
44027W        W15753  12.656  24.416  11.127
44028W        W15754  12.170   5.547  13.274
44029W        W15755  25.394  31.547   4.340
44030W        W15756  44.409  26.849   0.344
44031W        W15757  35.557  35.508   2.101
44032W        W15758  27.611  11.088   2.402
44033W        W15759  41.902  14.839  13.134
44034W        W15760  29.322  13.353   4.663
44035W        W15761  10.138  25.941  10.441
44036W        W15762  10.114   9.997  10.386
44037W        W15763  34.898  32.291  12.060
44038W        W15764  34.730  30.458  14.059
44039W        W15765  25.513  21.702   4.373
44040W        W15766  38.764   5.785  11.577
44041W        W15767  44.991  16.685   3.763
44042W        W15768  11.225  31.352   4.655
44043W        W15769  27.921  44.752  11.607
44044W        W15770  12.293  32.096   2.337
44045W        W15771   9.506  38.946  10.159
44046W        W15772  31.546  35.897  12.114
44047W        W15773   6.533  18.302   2.850
44048W        W15774  25.670   6.742  11.152
44049W        W15775  21.072  44.482  14.991
44050W        W15776   3.679  25.339  11.574
44051W        W15777  38.988  22.185  14.142
44052W        W15778  33.530  12.355  14.663
44053W        W15779  38.378  27.238  10.611
44054W        W15780  28.965  15.803  11.593
44055W        W15781  40.519   7.801   0.514
44056W        W15782  39.594  29.537  10.780
44057W        W15783  41.255  43.832   2.445
44058W        W15784  43.292  25.247  12.620
44059W        W15785  22.559   5.444  14.520
44060W        W15786  16.349   9.750   2.836
44061W        W15787   7.665  27.499   3.224
44062W        W15788  33.082  14.721   0.901
44063W        W15789  18.591  26.947   4.569
44064W        W15790  18.837  11.152   3.641
44065W        W15791  21.154  39.652   1.639
44066W        W15792  40.322  35.668   4.044
44067W        W15793   4.882   1.765  14.212
44068W        W15794  16.021  12.473  10.211
44069W        W15795   0.956   7.181  12.464
44070W        W15796  22.384  34.374  12.431
44071W        W15797   4.839  33.142  10.601
44072W        W15798   1.936  37.442  12.318
44073W        W15799  27.385  16.248  13.934
44074W        W15800  15.838  40.365  14.862
44075W        W15801  13.253  37.719   4.241
44076W        W15802  40.435  32.077  12.536
44077W        W15803  29.048  43.394  12.444
44078W        W15804  19.241  37.974  10.599
44079W        W15805  35.818  42.445  10.682
44080W        W15806  11.154  23.731   5.058
44081W        W15807   5.152  37.887   3.691
44082W        W15808  11.376  29.442   1.397
44083W        W15809  31.437   6.357   1.727
44084W        W15810  21.979  44.226   3.127
44085W        W15811  27.297  15.309  14.385
44086W        W15812   3.219  25.446  12.871
44087W        W15813   1.519  43.254  11.930
44088W        W15814  15.577   0.172  14.876
44089W        W15815  26.285  10.864   4.491
44090W        W15816   8.664  36.032  14.869
44091W        W15817  32.337  25.408  10.673
44092W        W15818  24.075  12.410  12.331
44093W        W15819   8.141  14.549  10.572
44094W        W15820   6.673   2.302   2.164
44095W        W15821  15.161  13.791   3.227
44096W        W15822  31.593  10.281   0.996
44097W        W15823  22.736  40.772   5.079
44098W        W15824  34.611  17.948   3.805
44099W        W15825  14.807  14.662   2.960
44100W        W15826  38.460  39.251  12.027
44101W        W15827  36.910   8.427   0.454
44102W        W15828  34.493  37.127  11.940
44103W        W15829  13.024   1.736   3.512
44104W        W15830  26.242   7.833   2.378
44105W        W15831  12.224  32.438  13.971
44106W        W15832   6.806  18.743   0.472
44107W        W15833  31.517  11.139   2.770
44108W        W15834  23.189  10.110   0.930
44109W        W15835   3.301   1.958  10.149
44110W        W15836  17.612  10.249   4.201
44111W        W15837  16.607  38.631   0.417
44112W        W15838  38.055  40.242  10.868
44113W        W15839  31.380  32.553   4.189
44114W        W15840  26.702  39.432  10.548
44115W        W15841  41.565  24.377   4.182
44116W        W15842   1.710  29.661   4.326
44117W        W15843   3.942  36.360   0.299
44118W        W15844   7.422  38.782  10.613
44119W        W15845   9.809  35.591   0.101
44120W        W15846  24.727  12.643   9.700
44121W        W15847  13.626   5.605  11.577
44122W        W15848  37.545  25.969  13.558
44123W        W15849   7.954  15.308   2.403
44124W        W15850  24.254   1.752  11.065
44125W        W15851  28.868  16.138   2.477
44126W        W15852   4.149   9.242   2.945
44127W        W15853  43.798  12.288  10.789
44128W        W15854   9.424  30.535  11.589
44129W        W15855  29.984  35.616   2.841
44130W        W15856   3.558  13.929   9.715
44131W        W15857  22.346  28.031   4.503
44132W        W15858   8.368  29.666   2.295
44133W        W15859  38.406  33.181  14.883
44134W        W15860  27.629  30.729  14.839
44135W        W15861  32.580  11.249   3.234
44136W        W15862  11.199   3.842  11.049
44137W        W15863  35.278  15.118   2.467
44138W        W15864  31.752  19.974   1.819
44139W        W15865   3.946  14.905   4.175
44140W        W15866  11.854  36.834   4.751
44141W        W15867   5.008  31.383  12.004
44142W        W15868  19.076  13.612  10.634
44143W        W15869  27.372  17.267  10.681
44144W        W15870  33.870  34.861  13.421
44145W        W15871  16.163  29.386  13.048
44146W        W15872   9.300  10.715   3.974
44147W        W15873  31.094  27.555   0.432
44148W        W15874   5.606  30.418   1.279
44149W        W15875  18.483   2.353  13.935
44150W        W15876  14.741  17.054   3.357
44151W        W15877  39.801   3.453  14.534
44152W        W15878  44.197  10.190   4.706
44153W        W15879  22.033  34.581   3.717
44154W        W15880  35.790  39.025   1.192
44155W        W15881  38.316  12.120  13.552
44156W        W15882  25.430   5.759  13.516
44157W        W15883   8.987   2.784   0.276
44158W        W15884   2.522  12.768   1.834
44159W        W15885  10.094   8.270   0.744
44160W        W15886  18.032  30.636  14.036
44161W        W15887  33.575   6.155   0.362
44162W        W15888  44.108  25.918  14.216
44163W        W15889   2.306  30.720  11.906
44164W        W15890  36.088   8.715  14.894
44165W        W15891  14.188  26.468  11.500
44166W        W15892  39.023  16.579  13.923
44167W        W15893  36.383  25.223   5.204
44168W        W15894   3.172  22.005  14.163
44169W        W15895  43.910   2.199  10.705
44170W        W15896   6.301  21.950  12.096
44171W        W15897  40.244  21.596  11.203
44172W        W15898   3.970  40.880   0.220
44173W        W15899  31.807   3.264   9.893
44174W        W15900  23.185  23.754   4.739
44175W        W15901  44.866   0.176  12.001
44176W        W15902  40.288  20.794   3.360
44177W        W15903   9.179  10.935   0.785
44178W        W15904  31.645  24.667  14.226
44179W        W15905   0.363  44.836   2.404
44180W        W15906  37.646  25.630   3.867
44181W        W15907  26.228  17.638   4.254
44182W        W15908  22.882   4.150   1.803
44183W        W15909  30.674  32.161  13.046
44184W        W15910   2.224  35.483  14.357
44185W        W15911  30.899  41.422   2.857
44186W        W15912  36.563  15.234   2.787
44187W        W15913   9.961  22.854   9.779
44188W        W15914  10.946   4.365  12.069
44189W        W15915  31.219  13.367   2.307
44190W        W15916   2.507  24.832   2.870
44191W        W15917  25.907  25.099   3.216
44192W        W15918  15.525  38.381  14.081
44193W        W15919  37.456  14.355   4.172
44194W        W15920  36.537  18.243  13.369
44195W        W15921  13.120  38.497   0.850
44196W        W15922  30.606   1.262  10.766
44197W        W15923  19.513   3.855   3.730
44198W        W15924  43.346  43.264   0.194
44199W        W15925  15.302  36.782  11.142
44200W        W15926  32.832   1.274   2.892
44201W        W15927  24.984  26.212   0.491
44202W        W15928  35.505  13.011  11.610
44203W        W15929   0.880  25.785  13.429
44204W        W15930  34.065  16.278  11.929
44205W        W15931  42.501   7.143  10.718
44206W        W15932  23.453   1.831   3.131
44207W        W15933  25.183  24.712   4.539
44208W        W15934  11.057  31.945  13.532
44209W        W15935  31.099  39.965   2.773
44210W        W15936  33.406  38.072  14.445
44211W        W15937  44.456  26.220   2.835
44212W        W15938  26.533  23.111  11.965
44213W        W15939   8.755   6.259  11.530
44214W        W15940  22.184  21.749  12.621
44215W        W15941  16.867  23.715  11.029
44216W        W15942   9.296   5.173  12.123
44217W        W15943  14.572  35.388   0.771
44218W        W15944  11.715  28.070   1.663
44219W        W15945   5.287  28.723   4.210
44220W        W15946  12.130  10.247   3.036
44221W        W15947  16.691  37.557   2.890
44222W        W15948  21.499   4.819   0.779
44223W        W15949  39.420   4.698  12.055
44224W        W15950  32.807  21.754  12.073
44225W        W15951  24.451  28.452  12.068
44226W        W15952   8.007  36.979   9.992
44227W        W15953  31.363  41.522  12.046
44228W        W15954   8.531  31.027   3.148
44229W        W15955   3.384   1.258   3.706
44230W        W15956  22.563  25.947  11.875
44231W        W15957  41.982  42.307  12.796
44232W        W15958  15.209  33.533  14.890
44233W        W15959  25.980  34.149  11.940
44234W        W15960  38.909  11.718   3.267
44235W        W15961  36.339  26.077  11.387
44236W        W15962  17.328   3.037   2.595
44237W        W15963   3.551  12.831  14.850
44238W        W15964  27.052  40.508   4.374
44239W        W15965  41.214  35.135  14.425
44240W        W15966  26.357  19.290   3.642
44241W        W15967  15.690   6.112  10.628
44242W        W15968  32.474  18.980   2.366
44243W        W15969  42.101  26.654   3.098
44244W        W15970  20.656  10.448  11.963
44245W        W15971   2.464  26.725  10.365
44246W        W15972  28.218  12.270   3.348
44247W        W15973  35.724  13.096   2.724
44248W        W15974  40.419  37.629  10.451
44249W        W15975   0.846  20.805   2.658
44250W        W15976  27.907   9.786  11.150
44251W        W15977  40.855  11.331  11.623
44252W        W15978  16.317   6.957  14.465
44253W        W15979  38.325  24.040  11.449
44254W        W15980  15.278  36.614   3.352
44255W        W15981  30.498   9.266   2.799
44256W        W15982   6.313   6.761   1.971
44257W        W15983   7.794  21.710   3.676
44258W        W15984   5.844  19.002  14.401
44259W        W15985  37.289  17.893   0.891
44260W        W15986  28.019   1.753   0.419
44261W        W15987  17.584   9.197  13.022
44262W        W15988   1.492  11.690  11.237
44263W        W15989   8.419  26.275   3.634
44264W        W15990  19.248   3.448   4.180
44265W        W15991  43.057  12.747   1.352
44266W        W15992  25.660  41.031  13.936
44267W        W15993   3.936  32.939   2.952
44268W        W15994  27.114   1.030   4.306
44269W        W15995  19.505  11.364  11.986
44270W        W15996  26.253  42.791   0.741
44271W        W15997  17.569  36.600   2.864
44272W        W15998   4.717  21.948   1.342
44273W        W15999   7.819  20.111  12.958
44274W        W16000  37.936  40.607   3.038
44275W        W16001  42.479  18.434   4.200
44276W        W16002  36.878  23.509   0.766
44277W        W16003   8.927  27.453   4.836
44278W        W16004  44.950  40.298   1.719
44279W        W16005  11.107  36.377   0.934
44280W        W16006  29.057   2.020   3.503
44281W        W16007  14.275  16.235   4.337
44282W        W16008  13.401  18.481  11.181
44283W        W16009  35.040  30.806   5.000
44284W        W16010  25.246  34.360   1.624
44285W        W16011  10.380  19.002   0.006
44286W        W16012  18.062  12.708  12.131
44287W        W16013   5.886  21.612  11.378
44288W        W16014  43.828  26.238   4.703
44289W        W16015  33.594  11.758   3.657
44290W        W16016   0.196  40.065   2.173
44291W        W16017  19.291   6.795   1.890
44292W        W16018  10.674  36.654  12.973
44293W        W16019  16.303  33.650   2.780
44294W        W16020  20.520  35.643   0.527
44295W        W16021  36.201   7.838   1.484
44296W        W16022  34.970  31.939  10.201
44297W        W16023  41.859  32.895  10.508
44298W        W16024  21.701  36.802  10.498
44299W        W16025  43.334  25.513  13.577
44300W        W16026  40.131   7.208   3.293
44301W        W16027  25.640   1.485  12.002
44302W        W16028  35.602  39.218  14.899
44303W        W16029   3.925  26.762   0.766
44304W        W16030  43.856  18.361   0.845
44305W        W16031  16.349  35.821  13.404
44306W        W16032  16.312  30.485   4.783
44307W        W16033  41.525  21.005   0.694
44308W        W16034   2.038  12.343  12.849
44309W        W16035  29.953   6.147   4.196
44310W        W16036  43.921  31.040   0.785
44311W        W16037  20.211  12.055  14.457
44312W        W16038  24.162  11.187  13.859
44313W        W16039  14.089   3.682   4.915
44314W        W16040  42.537  25.940   3.076
44315W        W16041   9.871  16.765   0.941
44316W        W16042   0.517   5.829   0.286
44317W        W16043  31.355   1.384   4.519
44318W        W16044  35.842  30.867   2.702
44319W        W16045  35.420  29.159  14.143
44320W        W16046   4.382  25.934   1.743
44321W        W16047  11.165   1.881  12.766
44322W        W16048   6.214  43.956  13.056
44323W        W16049  23.637  12.809   1.731
44324W        W16050  30.089   8.598   0.293
44325W        W16051  36.579   1.939  11.984
44326W        W16052  43.832  39.994   4.553
44327W        W16053  29.171  41.081  10.765
44328W        W16054   6.191   8.337  13.382
44329W        W16055   1.422  29.464   0.199
44330W        W16056  27.047  32.185  10.533
44331W        W16057  12.310  29.984  14.794
44332W        W16058   3.494  12.303  12.860
44333W        W16059  34.592   4.353  12.873
44334W        W16060  38.561  22.745  10.724
44335W        W16061  21.257  14.294   3.097
44336W        W16062   1.392  21.180  10.794
44337W        W16063  15.848  35.606   2.256
44338W        W16064  27.565  16.345   3.210
44339W        W16065  28.597  15.177  11.338
44340W        W16066  35.799  36.846  13.424
44341W        W16067  29.507  12.871   0.437
44342W        W16068   8.944   4.894  12.418
44343W        W16069  44.192   2.555   0.757
44344W        W16070   1.828  36.379   4.034
44345W        W16071  29.476  19.495   3.557
44346W        W16072  12.801   5.673   0.905
44347W        W16073  12.234  34.514   3.379
44348W        W16074  29.450  33.379   3.480
44349W        W16075   0.034   6.806  13.870
44350W        W16076  20.629  27.422   5.047
44351W        W16077  15.102   4.057  14.935
44352W        W16078  25.901  17.056   0.746
44353W        W16079  30.923  28.174   4.259
44354W        W16080  24.131  15.746   0.388
44355W        W16081  13.626  33.877  13.431
44356W        W16082  21.261  44.032  12.169
44357W        W16083  20.326  12.134   1.646
44358W        W16084   2.927  10.168   4.370
44359W        W16085  32.492  10.614   1.161
44360W        W16086  19.039  31.743   1.377
44361W        W16087  32.843  11.143   3.658
44362W        W16088  43.362  21.071  14.270
44363W        W16089  43.749  15.881  13.838
44364W        W16090  18.265  33.625   1.028
44365W        W16091  41.408  29.590   4.757
44366W        W16092  32.004  30.481  14.399
44367W        W16093  19.212  15.787  12.653
44368W        W16094  26.450  36.805   1.280
44369W        W16095   9.155  38.398  12.849
44370W        W16096  34.982  42.548   4.665
44371W        W16097  31.650  26.767   5.502
44372W        W16098  13.708  27.857   2.561
44373W        W16099   1.218   2.893  14.405
44374W        W16100  25.675  13.169  11.592
44375W        W16101  26.599   4.219  11.131
44376W        W16102   3.536  34.189  13.550
44377W        W16103  24.751  42.521  12.532
44378W        W16104  36.713  17.652   4.604
44379W        W16105  22.925  26.938  14.367
44380W        W16106  16.316   1.777  13.530
44381W        W16107  30.255   3.725  12.004
44382W        W16108  18.140  41.910   0.690
44383W        W16109   3.814  10.338   4.818
44384W        W16110  21.225   5.762   1.235
44385W        W16111  14.610  19.235  11.476
44386W        W16112  29.396   6.397  11.634
44387W        W16113   9.897  35.046   0.954
44388W        W16114  16.872  17.614   4.273
44389W        W16115  26.062  33.237  10.295
44390W        W16116  39.454  30.138  12.074
44391W        W16117  44.253  38.324  14.706
44392W        W16118  12.732  40.868  13.467
44393W        W16119  19.761  10.746   3.579
44394W        W16120  30.391  13.892   1.638
44395W        W16121  14.179   6.095   3.262
44396W        W16122  27.031  11.633  10.792
44397W        W16123   8.338  28.524  10.670
44398W        W16124  14.867  43.178  13.812
44399W        W16125  14.312  20.479  11.861
44400W        W16126  27.205  17.139  10.200
44401W        W16127  31.910  11.871  14.475
44402W        W16128  25.167   3.797   2.450
44403W        W16129  15.058  10.531  12.921
44404W        W16130  15.873  37.844   4.777
44405W        W16131   4.510  40.347  14.838
44406W        W16132  13.077   1.803   2.643
44407W        W16133  37.525  29.327  11.582
44408W        W16134  29.104  39.277  12.084
44409W        W16135  22.236  38.850   3.714
44410W        W16136  24.832  38.319   2.923
44411W        W16137  24.760  22.780   4.198
44412W        W16138  22.013  16.889  12.160
44413W        W16139  32.421  35.522   1.353
44414W        W16140  19.804   3.754   3.315
44415W        W16141  33.700  36.500   2.827
44416W        W16142  16.326  23.028   0.877
44417W        W16143  18.483  15.730   1.832
44418W        W16144  16.078  21.461  12.674
44419W        W16145   5.190  19.640   2.294
44420W        W16146  25.087  14.581   0.436
44421W        W16147  14.757  12.151   0.923
44422W        W16148  12.369  32.829   1.878
44423W        W16149  18.606  12.103  12.562
44424W        W16150  29.856   4.412   0.808
44425W        W16151  22.742  11.671   3.389
44426W        W16152  38.996  35.518   1.766
44427W        W16153  12.488  12.653   4.102
44428W        W16154  40.678   1.660  10.917
44429W        W16155   4.038  41.796  10.987
44430W        W16156  15.751  14.304  12.320
44431W        W16157  32.606  10.741   2.155
44432W        W16158   3.733  35.906   2.110
44433W        W16159  19.581  44.789   1.845
44434W        W16160  33.083  44.908  12.662
44435W        W16161   2.195  10.653   2.889
44436W        W16162  26.730  20.583  12.302
44437W        W16163  24.785  20.216  14.253
44438W        W16164  12.386  10.940   0.410
44439W        W16165  33.630  17.684   2.443
44440W        W16166  10.549  34.383   3.141
44441W        W16167  31.036   1.198  10.452
44442W        W16168  40.839  40.634  12.843
44443W        W16169  10.820  15.200   0.287
44444W        W16170  30.092  27.383   2.382
44445W        W16171  16.736  22.241  12.484
44446W        W16172  12.950   9.654   1.322
44447W        W16173   4.177  22.585  11.764
44448W        W16174  18.554   9.584   4.311
44449W        W16175   8.124  35.302  11.171
44450W        W16176  32.610  10.748  13.280
44451W        W16177  22.683  12.902   0.931
44452W        W16178   8.917  31.442   1.854
44453W        W16179  26.316  32.020  14.047
44454W        W16180  33.483  41.520   3.239
44455W        W16181  33.007   2.968  12.445
44456W        W16182   7.461  42.514   0.252
44457W        W16183   7.386  18.867  10.911
44458W        W16184   0.546  24.656  13.075
44459W        W16185   2.615  15.200  14.394
44460W        W16186  41.422  20.089   1.195
44461W        W16187   8.271  30.831   2.758
44462W        W16188   9.669  29.976   0.668
44463W        W16189   1.843  29.091   2.096
44464W        W16190   4.184  17.957  10.640
44465W        W16191  31.135   4.875  11.504
44466W        W16192   7.366  32.442  11.079
44467W        W16193   2.483  44.731  11.965
44468W        W16194  22.627  36.775  12.588
44469W        W16195  20.193  18.157   3.219
44470W        W16196  33.117  19.063  11.095
44471W        W16197   4.412  39.177  14.375
44472W        W16198  25.186  28.158  12.808
44473W        W16199   3.975  28.070   2.230
44474W        W16200  21.078  35.398  10.626
44475W        W16201  15.743  40.567   2.707
44476W        W16202   8.123  14.535   3.144
44477W        W16203  18.900  40.363  11.522
44478W        W16204  21.946  17.374   3.633
44479W        W16205  35.679  39.361  13.989
44480W        W16206  18.973  29.032   0.449
44481W        W16207  30.920  36.145   5.051
44482W        W16208  27.999  42.753   3.590
44483W        W16209  30.326  27.185  10.902
44484W        W16210  21.087  22.989  14.929
44485W        W16211  39.396   8.224  10.553
44486W        W16212  29.440  27.186  14.395
44487W        W16213  31.964   7.541   0.762
44488W        W16214  37.354  22.744  10.555
44489W        W16215   3.997  14.139  11.058
44490W        W16216  38.579   5.772   4.192
44491W        W16217  20.688   8.280   4.512
44492W        W16218  26.377  20.103  12.401
44493W        W16219  27.672  31.032   2.134
44494W        W16220   6.461   9.766  11.007
44495W        W16221  17.002  26.501  11.187
44496W        W16222  16.159  30.516  12.856
44497W        W16223   3.488  14.185  12.142
44498W        W16224  23.210  16.851  13.314
44499W        W16225  17.558  30.195  14.733
44500W        W16226  20.484  40.941  12.942
44501W        W16227  19.195  43.407   4.394
44502W        W16228  23.755  42.274  14.882
44503W        W16229   0.892   2.443   4.941
44504W        W16230  38.287  35.811  13.408
44505W        W16231  33.462  35.658   3.634
44506W        W16232  13.378  23.480   2.413
44507W        W16233  20.725  17.327   1.199
44508W        W16234   4.333  14.197  12.872
44509W        W16235   8.768  38.214   3.324
44510W        W16236   8.221  41.386  14.322
44511W        W16237   0.061   6.328   0.912
44512W        W16238  30.054  16.107  10.715
44513W        W16239  44.499   6.692   1.155
44514W        W16240  11.149  24.115  10.239
44515W        W16241  33.941  12.310   2.796
44516W        W16242  28.533   2.570  12.854
44517W        W16243  25.550  26.910  13.345
44518W        W16244  24.006   9.879   2.295
44519W        W16245  29.537   0.744   1.852
44520W        W16246  22.963  23.211   3.177
44521W        W16247   5.683  27.469   3.803
44522W        W16248  37.315  10.455  14.612
44523W        W16249  43.872  39.223  13.829
44524W        W16250  19.518  44.969   0.490
44525W        W16251  19.458  42.081  14.388
44526W        W16252  11.208  27.036  13.582
44527W        W16253   2.690   7.652   0.864
44528W        W16254  18.684   8.624   0.868
44529W        W16255  25.551  32.435   3.611
44530W        W16256  44.237  12.029  10.692
44531W        W16257  38.079  14.652   4.657
44532W        W16258  12.982  32.670  11.116
44533W        W16259  11.072  22.753   2.419
44534W        W16260   7.249   4.786   2.525
44535W        W16261  31.513  38.439  11.931
44536W        W16262  17.169   0.726   4.765
44537W        W16263  10.960  21.489  10.592
44538W        W16264  11.785  18.139   0.294
44539W        W16265  12.179  41.898  14.292
44540W        W16266  44.030  24.089   4.101
44541W        W16267  24.012  40.535  13.224
44542W        W16268   8.337  11.957   1.786
44543W        W16269  36.297  21.090   0.851
44544W        W16270  37.629  10.327   0.648
44545W        W16271  37.408  24.216  11.945
44546W        W16272  41.152   1.964   4.829
44547W        W16273  13.498  37.970   2.201
44548W        W16274  12.187  37.313   1.695
44549W        W16275  35.987   4.268  13.753
44550W        W16276  32.997  20.477  13.983
44551W        W16277  10.157  37.073   4.173
44552W        W16278  31.950  37.891   1.654
44553W        W16279  33.571  44.179   1.902
44554W        W16280   3.388  40.855  12.855
44555W        W16281  16.172  22.560   1.983
44556W        W16282  16.261  24.860   3.199
44557W        W16283  44.350  20.212  10.673
44558W        W16284   6.515  25.987  13.794
44559W        W16285  24.602  27.291   4.994
44560W        W16286  35.153  17.117  14.835
44561W        W16287  36.312  39.481  14.724
44562W        W16288  10.194  33.290  12.388
44563W        W16289   5.703  42.045  12.941
44564W        W16290  21.601  41.787  11.535
44565W        W16291  23.461  21.558  13.394
44566W        W16292   4.340   3.214  11.718
44567W        W16293  11.911  38.120   1.820
44568W        W16294  33.440  31.308  13.102
44569W        W16295  40.877   7.244  13.559
44570W        W16296  17.142  14.582  10.396
44571W        W16297  44.532   4.211  11.204
44572W        W16298  19.673  38.539   0.517
44573W        W16299  32.085  41.960  13.268
44574W        W16300  44.840  19.658  14.561
44575W        W16301  18.867   5.415  11.433
44576W        W16302  26.584  30.766  14.447
44577W        W16303  38.484  15.324   0.007
44578W        W16304  32.817   2.737  13.333
44579W        W16305   6.802  43.017  14.520
44580W        W16306  22.922   9.790  10.621
44581W        W16307  32.575  38.323  13.721
44582W        W16308  31.085  41.299  10.462
44583W        W16309  16.324  36.917  14.804
44584W        W16310   9.326  34.152   0.830
44585W        W16311  41.617  17.733   2.515
44586W        W16312  21.252  15.192   4.638
44587W        W16313  15.326  11.174  14.508
44588W        W16314   9.945  28.159  11.138
44589W        W16315  10.275   1.276   5.295
44590W        W16316  32.069  13.324  12.305
44591W        W16317  17.159  12.225  13.842
44592W        W16318   3.400  21.654  12.025
44593W        W16319  11.718  41.893  11.630
44594W        W16320  16.147  19.816   3.653
44595W        W16321   6.647  19.277   4.278
44596W        W16322  41.834  37.443  13.306
44597W        W16323  24.549   0.881  10.639
44598W        W16324  15.396  29.244   3.909
44599W        W16325  15.833  41.291  13.335
44600W        W16326  43.399   2.270  14.992
44601W        W16327  29.406  12.294   1.691
44602W        W16328  17.326  25.933   4.346
44603W        W16329   2.499  16.787   2.901
44604W        W16330  10.210  42.407   4.672
44605W        W16331  33.868  35.412   4.678
44606W        W16332  15.323  21.453   2.972
44607W        W16333  36.926   2.414  13.118
44608W        W16334  19.149  31.309   3.695
44609W        W16335   2.806  30.438  14.488
44610W        W16336   6.651  15.188  14.326
44611W        W16337   4.177   9.831  14.869
44612W        W16338  19.571  29.460  13.100
44613W        W16339  42.242  16.652   0.788
44614W        W16340   5.606  42.804  11.118
44615W        W16341  35.064   0.243  11.849
44616W        W16342  42.458   0.682   3.160
44617W        W16343  38.690  12.604   1.328
44618W        W16344  38.130  42.381  11.064
44619W        W16345  30.156  22.667   1.581
44620W        W16346   4.720   5.747  12.523
44621W        W16347  37.559  15.600   0.907
44622W        W16348  43.424  38.558   0.255
44623W        W16349  31.446  38.552   1.847
44624W        W16350  41.012  11.731   0.839
44625W        W16351  31.458  23.369  13.615
44626W        W16352   7.182  19.386  12.008
44627W        W16353   0.998  44.395  14.357
44628W        W16354  14.287   1.916   1.323
44629W        W16355  23.858  42.955   2.863
44630W        W16356  36.970  10.799  13.467
44631W        W16357  23.220   1.203   2.242
44632W        W16358   5.692  20.507   1.185
44633W        W16359   5.126  44.938   1.890
44634W        W16360   4.697  24.957   4.636
44635W        W16361  43.982  33.905  11.943
44636W        W16362  15.447   5.872  11.179
44637W        W16363  35.456  17.385   2.732
44638W        W16364  33.970  21.123   3.724
44639W        W16365   2.206  10.318   1.911
44640W        W16366  15.480   3.144  10.686
44641W        W16367  33.592  33.036   3.772
44642W        W16368  32.124  36.124   0.922
44643W        W16369  33.949  18.233   1.228
44644W        W16370  15.554   9.801  12.924
44645W        W16371  12.366  26.733   0.459
44646W        W16372  44.871  37.339  14.361
44647W        W16373  35.128  20.693  12.559
44648W        W16374  38.337  30.834  10.990
44649W        W16375  13.941  14.786  14.910
44650W        W16376   8.228  28.187  13.800
44651W        W16377  11.926  22.163  12.101
44652W        W16378   2.690  27.433   2.461
44653W        W16379  25.681   0.427  14.341
44654W        W16380  26.188  11.743  14.386
44655W        W16381   6.494   7.933  14.391
44656W        W16382   4.492   4.414   3.709
44657W        W16383  34.945   1.294   0.185
44658W        W16384  14.950  11.872   3.333
44659W        W16385  14.069  44.243  14.979
44660W        W16386  10.805  37.000   3.133
44661W        W16387  27.469  16.218   0.737
44662W        W16388  31.056  19.036  12.111
44663W        W16389  28.237  20.482  12.468
44664W        W16390  30.880  34.847   0.959
44665W        W16391   5.762  30.865  12.376
44666W        W16392  23.585  32.548   3.708
44667W        W16393  26.060  32.702   2.226
44668W        W16394  38.011   0.336   0.842
44669W        W16395  17.022  18.813   4.248
44670W        W16396  35.890   2.432  13.036
44671W        W16397  14.784  13.607   1.361
44672W        W16398  12.882  28.372   0.200
44673W        W16399   6.940  14.185   2.701
44674W        W16400  24.296  33.178   1.823
44675W        W16401  23.516  43.531   0.311
44676W        W16402  22.115  40.963   4.230
44677W        W16403  24.529  39.785   3.679
44678W        W16404  10.360  36.050  14.538
44679W        W16405  42.517  19.610   3.031
44680W        W16406  10.384  15.742   0.682
44681W        W16407   0.254  20.249  11.120
44682W        W16408  40.784  21.568  14.836
44683W        W16409   7.009  22.551   5.033
44684W        W16410  21.139  23.945  12.484
44685W        W16411  20.511  31.457   3.276
44686W        W16412  44.606  19.271   3.993
44687W        W16413   6.698  31.681   3.660
44688W        W16414   5.026  24.809   2.814
44689W        W16415  29.587  41.520  12.792
44690W        W16416   9.521  39.012  14.603
44691W        W16417  15.884   4.280   1.318
44692W        W16418   7.351  24.254   0.870
44693W        W16419  34.116  10.404  11.166
44694W        W16420  12.088  27.008  10.672
44695W        W16421  33.123   4.805  11.992
44696W        W16422  33.658   2.010  11.024
44697W        W16423  41.753  39.909  13.510
44698W        W16424  20.451  15.493   0.399
44699W        W16425  25.992   5.919   0.705
44700W        W16426  18.627  37.080   1.401
44701W        W16427  18.277  31.540  11.662
44702W        W16428   5.471   2.114  12.691
44703W        W16429  37.439  19.195   4.273
44704W        W16430  32.095   4.263  12.170
44705W        W16431  18.959  17.303   3.745
44706W        W16432  39.854   6.915  13.920
44707W        W16433   5.598  37.418   0.994
44708W        W16434  17.584  33.551  11.912
44709W        W16435  19.079  12.263  11.906
44710W        W16436   5.707  35.546  13.046
44711W        W16437   0.094  16.225   4.291
44712W        W16438   3.986  31.809   3.605
44713W        W16439  21.778  26.559  12.969
44714W        W16440  44.219  29.075   0.887
44715W        W16441  37.373   6.716   1.340
44716W        W16442  31.575  23.000   3.545
44717W        W16443  16.224  25.997   3.311
44718W        W16444  37.637  41.023   2.912
44719W        W16445  10.784  11.753   9.997
44720W        W16446   5.406  30.554   4.550
44721W        W16447  19.308  11.746   0.313
44722W        W16448   3.394  17.014   1.828
44723W        W16449  28.252  22.954   3.233
44724W        W16450  31.241  41.811  13.990
44725W        W16451  17.762  17.560  13.081
44726W        W16452  33.110  11.094  14.536
44727W        W16453  13.316  25.473  11.544
44728W        W16454  12.294   6.411  10.563
44729W        W16455  26.011   6.983  13.675
44730W        W16456  16.643   9.793   3.320
44731W        W16457  16.343  26.706   2.796
44732W        W16458  29.523  10.609   3.701
44733W        W16459  23.239   2.676   2.229
44734W        W16460  42.357  39.044  11.534
44735W        W16461  20.738  30.596  10.996
44736W        W16462  11.802  25.338   1.332
44737W        W16463  26.546   3.440  12.563
44738W        W16464  35.920   5.214  13.830
44739W        W16465  12.910  13.733   1.875
44740W        W16466   0.970  20.536   1.421
44741W        W16467  36.848  44.971   0.005
44742W        W16468  13.816  26.205  10.704
44743W        W16469  28.180  39.440  12.217
44744W        W16470  32.073  15.337   0.514
44745W        W16471  27.694  14.756  13.960
44746W        W16472  11.329  11.131   2.796
44747W        W16473  33.937   5.523  11.527
44748W        W16474  27.565  26.325  13.487
44749W        W16475  10.246  19.798   4.695
44750W        W16476  17.686   0.754   0.453
44751W        W16477  22.032  11.673  14.357
44752W        W16478  44.833  41.868  13.704
44753W        W16479  36.045  37.336   0.828
44754W        W16480  33.945  17.878  14.514
44755W        W16481  44.265  17.473   4.128
44756W        W16482  41.100  43.248  11.157
44757W        W16483  35.088   2.954  11.149
44758W        W16484  33.975  40.476   4.748
44759W        W16485  43.387  42.241  12.812
44760W        W16486  12.668  29.608  12.433
44761W        W16487   4.886  37.780  13.042
44762W        W16488  14.625  23.955   0.806
44763W        W16489  26.426  23.783   4.186
44764W        W16490  21.205  29.626  11.603
44765W        W16491   0.459  37.871  12.526
44766W        W16492  14.876  19.794  14.069
44767W        W16493  32.419  28.454  14.142
44768W        W16494  41.153   8.848   1.252
44769W        W16495   4.433   8.409   1.344
44770W        W16496   5.446  17.727   4.695
44771W        W16497   5.929  14.336   4.798
44772W        W16498  32.961  32.184  14.906
44773W        W16499  11.769  24.696   2.149
44774W        W16500  36.337  31.997   0.692
44775W        W16501  26.390  20.534   4.818
44776W        W16502  24.094  17.730   2.258
44777W        W16503  41.168  41.769  13.972
44778W        W16504  21.165   5.347  11.318
44779W        W16505  14.006   7.423   1.012
44780W        W16506  22.999  31.176  14.433
44781W        W16507  32.270   0.044  10.924
44782W        W16508  16.118   1.358   0.337
44783W        W16509   1.631  10.710   2.230
44784W        W16510  38.389  16.471  12.112
44785W        W16511  23.017   4.649   1.876
44786W        W16512  16.359  37.133  12.977
44787W        W16513   1.206  29.426  10.793
44788W        W16514   8.410  21.993   4.694
44789W        W16515  14.807  16.645  14.058
44790W        W16516   7.680  19.145   0.021
44791W        W16517   2.389  21.673  13.849
44792W        W16518   1.998  20.216  11.619
44793W        W16519  21.625  10.810  10.575
44794W        W16520  16.178  30.233   2.076
44795W        W16521  36.732  10.298   1.155
44796W        W16522  33.680  43.855  13.956
44797W        W16523  44.290   2.766  13.434
44798W        W16524  11.427  22.896   3.577
44799W        W16525  19.359  28.556  14.254
44800W        W16526  30.097   4.670  13.473
44801W        W16527  35.471  33.607   0.290
44802W        W16528  39.652   8.375  11.490
44803W        W16529  28.931  35.114  13.477
44804W        W16530  18.241  32.109   2.647
44805W        W16531  19.119  24.109  10.840
44806W        W16532  33.518  10.281  12.416
44807W        W16533  19.886  28.647  13.419
44808W        W16534   4.827  26.473   4.991
44809W        W16535  13.622  39.306   3.158
44810W        W16536  26.692   9.209  14.957
44811W        W16537  31.122   7.427  12.466
44812W        W16538  28.446  18.531  12.970
44813W        W16539  31.039  32.062   9.728
44814W        W16540   0.035  17.777  14.444
44815W        W16541  34.173  23.523  10.624
44816W        W16542  35.933  28.899  11.679
44817W        W16543  11.679   3.895   2.747
44818W        W16544  40.860  44.745  14.356
44819W        W16545  25.709  29.892  14.768
44820W        W16546  27.995  24.249   3.762
44821W        W16547  41.812  22.617  13.055
44822W        W16548  34.552  44.145   4.050
44823W        W16549  32.427   8.659   1.262
44824W        W16550  44.588  26.609  14.405
44825W        W16551  35.582   9.612   1.373
44826W        W16552  24.172  17.482  12.137
44827W        W16553   3.002  41.225   2.853
44828W        W16554  13.356  36.639  14.288
44829W        W16555  37.897  30.984  14.932
44830W        W16556  14.240   3.209  13.733
44831W        W16557  39.545   5.343  14.699
44832W        W16558  19.991  38.849  11.132
44833W        W16559  20.265  30.379  13.357
44834W        W16560  42.483  37.977   0.783
44835W        W16561  17.953  12.702   1.776
44836W        W16562  21.569  35.376   4.361
44837W        W16563  33.232   9.832  10.738
44838W        W16564   1.269  42.942  11.132
44839W        W16565  22.464  42.380  14.786
44840W        W16566   3.891   1.932  12.070
44841W        W16567   7.161  38.595  11.017
44842W        W16568  27.972  43.434  10.583
44843W        W16569  15.309  13.837  13.359
44844W        W16570  35.361  24.876   0.461
44845W        W16571  19.272  18.994   0.507
44846W        W16572  28.223  27.513  14.676
44847W        W16573  30.315  19.166  14.990
44848W        W16574   6.904  44.310  13.006
44849W        W16575  24.450   4.239  14.196
44850W        W16576   5.019  27.001   3.335
44851W        W16577  33.522  13.677   2.180
44852W        W16578   6.980  26.607   4.164
44853W        W16579  34.988   9.526   0.755
44854W        W16580  24.545  26.151  13.236
44855W        W16581   2.900  14.195   1.212
44856W        W16582  15.741  39.269   2.217
44857W        W16583  42.597  16.770   1.600
44858W        W16584   2.789  32.200  14.810
44859W        W16585   4.298   7.902  12.248
44860W        W16586  15.657  11.750   0.717
44861W        W16587  26.705  36.075   0.026
44862W        W16588   7.385  25.352   5.026
44863W        W16589   7.458  43.278  11.161
44864W        W16590   0.337  42.993   2.417
44865W        W16591   1.508  17.292  12.151
44866W        W16592  24.433  12.056   0.994
44867W        W16593  26.952  18.660   4.915
44868W        W16594  40.057  35.936  14.360
44869W        W16595  18.253  37.979  11.587
44870W        W16596  33.856  38.284   2.784
44871W        W16597   9.326   1.901   4.786
44872W        W16598  10.763  34.886   0.370
44873W        W16599  23.073  13.818  11.070
44874W        W16600  34.670   1.063  14.441
44875W        W16601  26.615   9.111  11.893
44876W        W16602  22.113  17.596  13.277
44877W        W16603  12.164  19.266  14.486
44878W        W16604  24.162  31.521   4.583
44879W        W16605  22.237  19.257   4.681
44880W        W16606  39.912  42.792  13.355
44881W        W16607  40.962  24.210   2.187
44882W        W16608  32.472  44.806   4.159
44883W        W16609   2.812  12.383   0.464
44884W        W16610  23.455  10.909   2.344
44885W        W16611  32.488  41.264   1.410
44886W        W16612  25.765  28.022  11.153
44887W        W16613  39.866  36.981   1.905
44888W        W16614  27.133  35.534   0.837
44889W        W16615  21.049  19.065   1.451
44890W        W16616   8.192  13.862  13.993
44891W        W16617  14.609  30.140   3.063
44892W        W16618  15.580  12.665  11.385
44893W        W16619   7.298  29.253   0.432
44894W        W16620  32.416   3.987   1.423
44895W        W16621  39.056  26.728  12.578
44896W        W16622   9.717   1.976  10.664
44897W        W16623  44.054  20.553   4.893
44898W        W16624  11.800  30.828   4.390
44899W        W16625   2.688  26.225  14.053
44900W        W16626  11.693   8.404  12.815
44901W        W16627  13.874  16.206   2.571
44902W        W16628   0.874  36.773   4.777
44903W        W16629  38.511  44.282  10.723
44904W        W16630  20.146  13.318  10.905
44905W        W16631  26.716  31.505  14.873
44906W        W16632  17.211  13.329  14.442
44907W        W16633   0.980   2.350   0.326
44908W        W16634  42.532  14.742  14.943
44909W        W16635  19.684  10.175  14.851
44910W        W16636  39.240  23.612  13.983
44911W        W16637   5.759  17.625   4.230
44912W        W16638  20.671  16.118   2.246
44913W        W16639   1.956  32.147  10.910
44914W        W16640   7.899  11.827   3.893
44915W        W16641   1.810  40.415   3.549
44916W        W16642  44.505  43.735   0.186
44917W        W16643  17.819  26.678   2.766
44918W        W16644   1.707   5.139  14.366
44919W        W16645  23.349  38.403  12.767
44920W        W16646  19.676   7.100   2.800
44921W        W16647  19.664  37.866   4.796
44922W        W16648  36.835  31.917   0.442
44923W        W16649  26.756   4.882   0.036
44924W        W16650  33.147   1.875   3.644
44925W        W16651  21.247   7.604   3.929
44926W        W16652   6.863  31.934  13.810
44927W        W16653  24.433   1.006  12.859
44928W        W16654  29.347  32.581   1.390
44929W        W16655  36.855  22.529  14.039
44930W        W16656  43.965  38.746   3.150
44931W        W16657  16.690   5.520  11.233
44932W        W16658   5.265   4.221   4.489
44933W        W16659   6.522  30.405  10.335
44934W        W16660  21.709  25.041  10.643
44935W        W16661  42.782  21.936   2.720
44936W        W16662  19.592  14.922   4.104
44937W        W16663  28.612  15.789  13.011
44938W        W16664  39.926  11.356   0.980
44939W        W16665  44.861  21.500   1.332
44940W        W16666  27.638   7.719  14.350
44941W        W16667  31.366  39.216   4.682
44942W        W16668  26.283  22.304  14.477
44943W        W16669  37.570  22.879   0.649
44944W        W16670  42.728  40.525   4.125
44945W        W16671  41.261  10.802   2.113
44946W        W16672  38.890   5.187   4.567
44947W        W16673  24.091   2.066  10.677
44948W        W16674  13.865  11.899   2.111
44949W        W16675  25.857  23.144  11.142
44950W        W16676  43.335  26.622   0.253
44951W        W16677  18.646  34.107   1.760
44952W        W16678  42.483  25.077  12.897
44953W        W16679  10.660  36.391  11.156
44954W        W16680  18.334  37.717  12.030
44955W        W16681  20.058  26.478  14.864
44956W        W16682  20.549  30.105   3.807
44957W        W16683  34.738   9.955  12.522
44958W        W16684  38.816   1.112  11.723
44959W        W16685  39.268  19.640  14.574
44960W        W16686  37.313  21.323   3.779
44961W        W16687  24.240  21.005  13.285
44962W        W16688  42.400   9.355   4.908
44963W        W16689  35.990  43.785   0.495
44964W        W16690  40.730  44.952  12.950
44965W        W16691  16.156  35.426  14.974
44966W        W16692  17.499   6.757   2.062
44967W        W16693  17.566  23.652  11.534
44968W        W16694  26.721   6.807  13.923
44969W        W16695  24.300  41.235   1.257
44970W        W16696   2.492  35.993  12.016
44971W        W16697  22.974  12.035  11.054
44972W        W16698  25.292  24.091   1.275
44973W        W16699  11.214  39.907   2.205
44974W        W16700  28.385  11.140  14.674
44975W        W16701   7.151  34.954  14.786
44976W        W16702   2.353  15.850   2.795
44977W        W16703  31.472  40.815   0.410
44978W        W16704  25.337   9.428  12.882
44979W        W16705  12.279  15.691   0.708
44980W        W16706  25.553  13.674   4.668
44981W        W16707   3.209  34.809   0.451
44982W        W16708  32.517  28.434   3.842
44983W        W16709  39.091  11.265  13.968
44984W        W16710   7.384  40.722  12.076
44985W        W16711  22.114  38.524   1.263
44986W        W16712  25.043  41.292   2.919
44987W        W16713  21.296  23.129   0.404
44988W        W16714  14.347  44.794   2.795
44989W        W16715  26.745   5.637   0.001
44990W        W16716  22.236  27.491   4.704
44991W        W16717   8.283  30.038  12.421
44992W        W16718  31.839  33.259   3.900
44993W        W16719  38.589   7.754   3.752
44994W        W16720   8.541   6.385  12.048
44995W        W16721  27.117  44.337  11.112
44996W        W16722  42.825  41.576   3.694
44997W        W16723  41.698  33.030   4.198
44998W        W16724  15.731   9.745   0.788
44999W        W16725  23.042  20.024   1.697
45000W        W16726  26.116  39.952  12.795
45001W        W16727  33.165  33.507  14.314
45002W        W16728   4.903  24.519   1.270
45003W        W16729  33.631  36.639   4.612
45004W        W16730  25.063   3.322   2.276
45005W        W16731  31.466  18.319   4.666
45006W        W16732  21.664  14.036  14.937
45007W        W16733  11.389  44.657  12.920
45008W        W16734  34.652  14.210  14.758
45009W        W16735  27.135   6.458   4.195
45010W        W16736  12.781  26.179  10.726
45011W        W16737   1.846  39.994   0.876
45012W        W16738  26.342  17.800   4.721
45013W        W16739  39.896  28.116  10.719
45014W        W16740  36.818  36.347   1.462
45015W        W16741  35.507  37.491  11.027
45016W        W16742  29.021   0.996  11.987
45017W        W16743  18.079  25.479  10.979
45018W        W16744   6.853  37.760   3.874
45019W        W16745  36.835   1.173   2.220
45020W        W16746  14.356  37.795  11.015
45021W        W16747  20.770  31.789   1.348
45022W        W16748  18.726  25.415  11.127
45023W        W16749   2.273  37.356  11.910
45024W        W16750  21.928  37.165  13.273
45025W        W16751  25.962  42.408  11.893
45026W        W16752  33.143  23.047  11.887
45027W        W16753  12.791  13.359  11.183
45028W        W16754  28.554  24.167  11.544
45029W        W16755  39.737  14.366   3.647
45030W        W16756  17.324  37.331   1.850
45031W        W16757   2.758   9.079  14.897
45032W        W16758   8.789   0.728   1.951
45033W        W16759  18.583  20.588   0.957
45034W        W16760   1.967  30.898  11.207
45035W        W16761   5.843  25.900   2.874
45036W        W16762  29.739   5.376   1.694
45037W        W16763   9.754  43.079  14.472
45038W        W16764   0.191  18.350   0.310
45039W        W16765   3.730  22.482   4.721
45040W        W16766  35.368  19.541  11.254
45041W        W16767  43.764  19.296  14.523
45042W        W16768  20.753  29.032   1.696
45043W        W16769  21.625  16.552  12.104
45044W        W16770  11.478  10.390   2.140
45045W        W16771  11.436  25.462   0.805
45046W        W16772  26.976  17.738   0.002
45047W        W16773  11.098  33.558  10.309
45048W        W16774   6.201  22.305  14.347
45049W        W16775   4.889  27.417   4.130
45050W        W16776  25.246   7.382  11.691
45051W        W16777  26.582   9.786   1.201
45052W        W16778  28.059  21.502  13.293
45053W        W16779  12.775  19.206   4.755
45054W        W16780  31.501  32.564  13.069
45055W        W16781  18.172  20.828  14.719
45056W        W16782  24.637   9.502  11.637
45057W        W16783  12.637   9.722   2.811
45058W        W16784   7.392  31.895  13.422
45059W        W16785  30.549  25.965   3.294
45060W        W16786  44.321  28.579   0.713
45061W        W16787   7.786  25.411   1.382
45062W        W16788   1.923  25.916   2.768
45063W        W16789  28.499  30.013   2.858
45064W        W16790  42.932  34.506  13.816
45065W        W16791  24.191   3.467   5.149
45066W        W16792   2.364  12.367  10.883
45067W        W16793  14.743  21.593   3.622
45068W        W16794  41.793  44.372   4.175
45069W        W16795  35.390  39.402  14.434
45070W        W16796  38.481   3.732  10.373
45071W        W16797  34.580   1.390  13.985
45072W        W16798  33.305  33.765   2.619
45073W        W16799  30.178  42.252   1.323
45074W        W16800  35.416  19.937  14.693
45075W        W16801  16.732  19.044   2.347
45076W        W16802  17.086  38.886  14.735
45077W        W16803  35.530  12.793   1.247
45078W        W16804   2.844  34.134  11.925
45079W        W16805   2.854  14.226  10.448
45080W        W16806  32.351  22.188   0.286
45081W        W16807  33.892   3.987  12.623
45082W        W16808   3.681   2.492   4.136
45083W        W16809  18.734  14.300   4.548
45084W        W16810   9.837  40.742  12.630
45085W        W16811  17.181  41.911  12.043
45086W        W16812  11.695  17.584   0.255
45087W        W16813   8.344  44.700   4.352
45088W        W16814  37.082   0.029  12.513
45089W        W16815  31.015  23.108   9.674
45090W        W16816  17.593  24.228   0.396
45091W        W16817  14.545  16.108   0.260
45092W        W16818  44.394  22.778  14.492
45093W        W16819   2.546  17.241   1.765
45094W        W16820  36.138   8.214   3.260
45095W        W16821  28.867  34.714  10.426
45096W        W16822  41.995   9.774  10.715
45097W        W16823   1.810  35.057   3.234
45098W        W16824  41.765   3.808   1.773
45099W        W16825  30.353  33.974   2.266
45100W        W16826  43.873  24.303   0.814
45101W        W16827  28.253   0.452  14.371
45102W        W16828   7.712  28.428   0.459
45103W        W16829  43.347  42.436   2.509
45104W        W16830  21.554  21.038  14.004
45105W        W16831   9.359  14.154   3.754
45106W        W16832  38.001  25.621   1.023
45107W        W16833   3.328  26.498   0.048
45108W        W16834  16.263  13.305  14.558
45109W        W16835  35.858   7.612  12.691
45110W        W16836  23.094  12.118  12.999
45111W        W16837  14.993   0.321   3.092
45112W        W16838   8.698  33.476   3.630
45113W        W16839   9.129  23.271  10.240
45114W        W16840  12.843  31.843   4.742
45115W        W16841   6.576  16.448   3.343
45116W        W16842  10.968  32.604   4.042
45117W        W16843  40.295  10.544   0.060
45118W        W16844  37.929  10.332  13.211
45119W        W16845  42.906  16.819   3.380
45120W        W16846  15.603  20.747  11.437
45121W        W16847  28.488  18.548  11.065
45122W        W16848  31.044  19.549  12.049
45123W        W16849  37.060  41.067  14.343
45124W        W16850  15.623  30.265  11.254
45125W        W16851  21.213  12.432  10.577
45126W        W16852  39.376  38.405  11.557
45127W        W16853  42.533  21.806  12.132
45128W        W16854  20.546  39.060  14.459
45129W        W16855  27.970  41.327  13.565
45130W        W16856  43.161  44.902   3.983
45131W        W16857  38.088   2.799  14.341
45132W        W16858   4.261  21.013   4.492
45133W        W16859  23.086  13.675  11.567
45134W        W16860   0.875  20.016   2.280
45135W        W16861   6.215  32.629  13.406
45136W        W16862  13.582  32.364   4.589
45137W        W16863  37.399  28.981  10.634
45138W        W16864  33.050  42.478   4.461
45139W        W16865  29.645  44.373  10.102
45140W        W16866   5.775  14.175  12.518
45141W        W16867  28.201  40.377   2.022
45142W        W16868  41.779  26.234   1.701
45143W        W16869  43.736  17.803  14.770
45144W        W16870  30.944  24.603   0.419
45145W        W16871   8.917  35.142  12.942
45146W        W16872  42.428   6.546  14.270
45147W        W16873  42.775   9.104   1.810
45148W        W16874   2.722  31.949   1.955
45149W        W16875  21.606  31.107   0.659
45150W        W16876   8.582   9.798  13.944
45151W        W16877  15.744   7.472  12.052
45152W        W16878  44.495  20.986  12.277
45153W        W16879  11.639  16.537  14.304
45154W        W16880  17.225  38.794   5.147
45155W        W16881  23.165  31.123  12.477
45156W        W16882  38.745  31.728  12.436
45157W        W16883  25.106  15.588   0.455
45158W        W16884   9.851  17.253   1.136
45159W        W16885  21.828  12.351  11.999
45160W        W16886  10.704   0.286   2.728
45161W        W16887  28.344  16.052   2.382
45162W        W16888  26.502  28.593  13.000
45163W        W16889   7.794  42.298   3.572
45164W        W16890  19.766  42.838   1.677
45165W        W16891  20.521  13.763  14.025
45166W        W16892   1.980  34.341   3.690
45167W        W16893  13.823  28.028   3.552
45168W        W16894   3.933  26.616   2.666
45169W        W16895  19.031  36.432  14.379
45170W        W16896   2.155  19.359  12.127
45171W        W16897  22.049  34.433  13.847
45172W        W16898  22.275  31.578  11.240
45173W        W16899   5.883   6.602   3.786
45174W        W16900   4.930  41.905  11.073
45175W        W16901  42.303  27.654   1.842
45176W        W16902  13.719  37.308   2.892
45177W        W16903  26.172  26.686  11.645
45178W        W16904  24.755  32.287   1.700
45179W        W16905  36.946   3.529  14.018
45180W        W16906  34.118  40.662  13.072
45181W        W16907  10.745  39.219  13.789
45182W        W16908   1.358   9.245  11.485
45183W        W16909  25.264  26.198   3.155
45184W        W16910   9.159  41.512  11.153
45185W        W16911  30.497  44.681   0.698
45186W        W16912  32.245  24.000   0.209
45187W        W16913  23.108  21.257   2.238
45188W        W16914  35.544  34.367  10.953
45189W        W16915  11.598  18.070  12.683
45190W        W16916   5.199  32.499   2.237
45191W        W16917  28.010  11.627  11.065
45192W        W16918  12.894  30.978  11.864
45193W        W16919   8.696  40.810  11.531
45194W        W16920  30.169   3.956   3.648
45195W        W16921  26.997   4.202  11.486
45196W        W16922  43.488  36.045  12.990
45197W        W16923   6.008  21.028  10.301
45198W        W16924  34.930  21.693  13.600
45199W        W16925  16.030  34.092   2.753
45200W        W16926  33.451   6.870   2.367
45201W        W16927   3.277  14.338  13.965
45202W        W16928  37.977   0.491  12.403
45203W        W16929  26.994  30.658   0.367
45204W        W16930  44.783  12.790   4.689
45205W        W16931   7.093  42.824   3.649
45206W        W16932   9.341  33.765  13.515
45207W        W16933  40.284  35.472   0.800
45208W        W16934  34.611  30.962   1.388
45209W        W16935  18.583  23.259   2.266
45210W        W16936  39.328  35.072  13.257
45211W        W16937   3.318  19.415   3.153
45212W        W16938  42.365  13.569  13.983
45213W        W16939  35.840  42.340   1.470
45214W        W16940   1.139  32.274   2.943
45215W        W16941  37.024  15.540   3.699
45216W        W16942  42.541   3.870  13.379
45217W        W16943  26.716  44.978  10.624
45218W        W16944   3.954   4.850   3.211
45219W        W16945  30.143   0.871   1.234
45220W        W16946   9.192  31.442   3.718
45221W        W16947  30.064   3.910   2.616
45222W        W16948  25.581  18.375  14.238
45223W        W16949  14.851  12.988   2.292
45224W        W16950  39.041  28.028  11.188
45225W        W16951  34.850  41.400   2.845
45226W        W16952   3.460  36.205   2.423
45227W        W16953   0.731  35.474  10.583
45228W        W16954  37.964  15.351  10.388
45229W        W16955  20.580   5.411   3.265
45230W        W16956  12.131   7.811  11.655
45231W        W16957  41.852  20.495   4.531
45232W        W16958  35.790  43.300   0.489
45233W        W16959  39.709  24.553  11.091
45234W        W16960  31.098  20.998   1.789
45235W        W16961  38.072  38.899   0.478
45236W        W16962  19.480  20.606   1.387
45237W        W16963  20.106  22.965   4.600
45238W        W16964  24.230   4.951  14.738
45239W        W16965   3.533   2.331  12.047
45240W        W16966   9.335  27.880   3.797
45241W        W16967   5.602  38.464   4.147
45242W        W16968  13.349  13.271   4.135
45243W        W16969   0.236  26.637   3.035
45244W        W16970  21.636  40.620   0.791
45245W        W16971   3.205  12.101  10.947
45246W        W16972  26.112  30.148   3.698
45247W        W16973   6.507  43.938   0.434
45248W        W16974  36.619  41.400  14.295
45249W        W16975   8.600   6.190   0.973
45250W        W16976  21.464  25.130  11.483
45251W        W16977  26.215  33.121  14.030
45252W        W16978  27.987  15.967  12.547
45253W        W16979  25.370  10.168   2.702
45254W        W16980  18.551  10.308  13.124
45255W        W16981  26.441  38.588   4.148
45256W        W16982  41.233  39.094  11.920
45257W        W16983   7.247   2.928   0.542
45258W        W16984  27.972   0.228  12.567
45259W        W16985  32.675   1.377  14.071
45260W        W16986  36.101  32.873   2.765
45261W        W16987   5.453   8.381   2.208
45262W        W16988   2.668  39.973  13.854
45263W        W16989   8.581   6.366  13.380
45264W        W16990  28.534   3.471   2.298
45265W        W16991  26.670  36.854   4.914
45266W        W16992  28.425   3.415   0.014
45267W        W16993  25.691   1.854  12.675
45268W        W16994  16.269  17.290   1.186
45269W        W16995  20.152  41.547  11.163
45270W        W16996  33.232  26.449   1.367
45271W        W16997  35.432   5.033   2.503
45272W        W16998  22.615   2.959   3.100
45273W        W16999  33.655  27.675  12.993
45274W        W17000  16.808  25.577  13.935
45275W        W17001  38.451  43.137  10.032
45276W        W17002   1.741  16.094   3.713
45277W        W17003  17.761  18.990   1.011
45278W        W17004  18.035  25.204   2.636
45279W        W17005  20.588  37.479  13.507
45280W        W17006  22.671  40.828  11.085
45281W        W17007  18.156   0.317  14.195
45282W        W17008  15.737  14.788   2.535
45283W        W17009   2.538  11.819  12.012
45284W        W17010  24.650  38.668   1.972
45285W        W17011  44.895  15.910  10.567
45286W        W17012  20.849   8.646   1.890
45287W        W17013  18.231  21.755  11.589
45288W        W17014  25.174  29.547   0.449
45289W        W17015  24.102  11.149   3.012
45290W        W17016  38.341   0.188  14.417
45291W        W17017  41.916  31.978   4.673
45292W        W17018  10.930  10.824   0.057
45293W        W17019  13.606   8.656   3.761
45294W        W17020   7.637  34.275  13.482
45295W        W17021  34.876  28.602   3.699
45296W        W17022  42.118   5.472   3.696
45297W        W17023  20.776  31.167  11.857
45298W        W17024   8.536   1.975  10.290
45299W        W17025  17.218  36.017  10.673
45300W        W17026  43.782  15.601  12.912
45301W        W17027  40.366   7.228   1.552
45302W        W17028  19.797  14.661  12.130
45303W        W17029   8.943  33.646   3.215
45304W        W17030  29.681  32.337  10.623
45305W        W17031  25.921  35.914   3.367
45306W        W17032  18.310  25.057  10.741
45307W        W17033  13.620  34.504  10.977
45308W        W17034  25.520  21.246   2.390
45309W        W17035   7.941  12.562  12.400
45310W        W17036  37.968  16.693  11.895
45311W        W17037  11.106   9.125   1.060
45312W        W17038  22.463  15.939  12.581
45313W        W17039  38.500  17.863  12.620
45314W        W17040   9.320   3.723  11.896
45315W        W17041  44.522  38.467  14.277
45316W        W17042  35.364  31.982  13.449
45317W        W17043  20.153   8.336  12.443
45318W        W17044   5.741  34.391  13.296
45319W        W17045   5.195  10.114   1.481
45320W        W17046  25.580  22.083  13.646
45321W        W17047  34.646  29.424  13.907
45322W        W17048  12.875  22.019   0.459
45323W        W17049  12.311  37.683  14.507
45324W        W17050  39.722  32.038  14.273
45325W        W17051  41.722  25.375   2.755
45326W        W17052  18.700  22.982  12.638
45327W        W17053  25.182  21.426  13.084
45328W        W17054  19.570  33.947   1.447
45329W        W17055  33.871  41.036   4.689
45330W        W17056  33.336   7.607  13.458
45331W        W17057  16.531  34.385  13.065
45332W        W17058  16.068  31.044  10.614
45333W        W17059  10.989  39.989   1.321
45334W        W17060  20.985   6.172  11.083
45335W        W17061  43.074  22.932   4.071
45336W        W17062  13.961  21.550  12.043
45337W        W17063  14.309  26.941  14.264
45338W        W17064   8.782   9.275  13.779
45339W        W17065  26.919  11.709  10.254
45340W        W17066  20.240  35.056  14.609
45341W        W17067   3.166   9.576   3.802
45342W        W17068  25.547  30.223   1.049
45343W        W17069  40.531  39.922  12.410
45344W        W17070  15.810  38.955   0.345
45345W        W17071  31.548   7.891   2.291
45346W        W17072  33.333  30.385  10.840
45347W        W17073   3.457  21.252   3.613
45348W        W17074  24.248  36.840   0.638
45349W        W17075  44.709  22.718  12.929
45350W        W17076  12.072  11.058  10.653
45351W        W17077  11.783   2.693   2.257
45352W        W17078  35.773  23.961   2.638
45353W        W17079  40.971  11.090  11.192
45354W        W17080  24.026  44.795   1.250
45355W        W17081  15.335  24.718   4.269
45356W        W17082  25.148  34.417  12.080
45357W        W17083  42.748  13.146   2.232
45358W        W17084  26.065  18.830  14.383
45359W        W17085  33.415  18.248   1.633
45360W        W17086  17.622  23.788   3.222
45361W        W17087  44.882  30.631  12.931
45362W        W17088  33.828  23.566   1.810
45363W        W17089  18.851  16.272  11.969
45364W        W17090  38.900   0.297   3.590
45365W        W17091  22.754  38.787  10.483
45366W        W17092  27.039  32.795   4.203
45367W        W17093  16.210   2.696  11.584
45368W        W17094  24.322   0.905  10.179
45369W        W17095  36.024  44.344   4.163
45370W        W17096  20.801   1.363  14.446
45371W        W17097  32.805  36.451  11.146
45372W        W17098   9.724  24.581  11.298
45373W        W17099  30.695  10.133   2.236
45374W        W17100  35.334  35.414   4.677
45375W        W17101  40.518  12.458  12.110
45376W        W17102  21.177  43.982   1.220
45377W        W17103   9.143  33.835   1.213
45378W        W17104  38.445  10.715  13.790
45379W        W17105   7.254  23.593   0.777
45380W        W17106  21.979  35.924   3.635
45381W        W17107  33.412  22.537  13.046
45382W        W17108  39.496  25.475  11.117
45383W        W17109  18.490  23.878   0.495
45384W        W17110  19.893  44.020  11.945
45385W        W17111  14.815   3.885   4.278
45386W        W17112   7.883  10.461   2.097
45387W        W17113  19.482  26.783   1.305
45388W        W17114  43.045  28.432  12.028
45389W        W17115  29.130  41.293   3.547
45390W        W17116  38.471  24.542  11.563
45391W        W17117  30.195  13.721  14.841
45392W        W17118  32.391   5.889   1.785
45393W        W17119  27.532  23.755  14.357
45394W        W17120  29.096  16.760  13.810
45395W        W17121   6.269  10.363   1.502
45396W        W17122   2.723  20.587   3.851
45397W        W17123  36.393   6.684  13.753
45398W        W17124   2.677  10.792   2.933
45399W        W17125  30.388  22.156  10.638
45400W        W17126  41.313  41.179   2.942
45401W        W17127  37.137  17.234  12.505
45402W        W17128  15.804  24.718   1.421
45403W        W17129  16.757  15.635  11.893
45404W        W17130  33.110   1.260   4.193
45405W        W17131  10.806  41.448  10.650
45406W        W17132  24.142   0.094   3.314
45407W        W17133  11.173  17.224  11.716
45408W        W17134  44.910  38.799  14.370
45409W        W17135  12.794  33.588   4.660
45410W        W17136  40.618  29.974  10.788
45411W        W17137  13.225   5.642   3.200
45412W        W17138  35.834  42.372  11.469
45413W        W17139  11.860  43.287  14.314
45414W        W17140   6.656  17.806  12.297
45415W        W17141  26.400  17.192   4.038
45416W        W17142  29.643  32.355   0.977
45417W        W17143  13.741   3.256  11.918
45418W        W17144  30.872   5.128   3.284
45419W        W17145  21.258  20.792  12.453
45420W        W17146  22.873   1.700  11.562
45421W        W17147   8.096  26.531   4.243
45422W        W17148  21.510  29.549  12.542
45423W        W17149  23.007  12.901  14.243
45424W        W17150  22.503  19.331   0.931
45425W        W17151  34.444  25.152  13.038
45426W        W17152  31.849  38.248   2.010
45427W        W17153  20.663  11.898   3.311
45428W        W17154  24.961  36.690  13.308
45429W        W17155  38.833   0.423   2.553
45430W        W17156  28.334  20.977  11.685
45431W        W17157  40.508  27.996   3.119
45432W        W17158  15.641  24.228   0.637
45433W        W17159  36.363  15.012  10.480
45434W        W17160  18.113  14.129   3.172
45435W        W17161  16.300  14.145  13.516
45436W        W17162  39.279  25.726   4.249
45437W        W17163  23.208  15.450   4.527
45438W        W17164  44.758  33.818   3.935
45439W        W17165  28.743   2.917   0.790
45440W        W17166  13.938  24.080   3.445
45441W        W17167  30.866   1.974   1.443
45442W        W17168  27.479  35.313   1.264
45443W        W17169  44.912  28.088   2.812
45444W        W17170  21.572  11.930  14.408
45445W        W17171  15.765   3.612   5.131
45446W        W17172  27.444  44.873   4.662
45447W        W17173   7.225  44.530  13.360
45448W        W17174  38.488  42.862   0.882
45449W        W17175   6.764  42.442   3.717
45450W        W17176  37.477   1.537  14.542
45451W        W17177   8.933   1.247  13.869
45452W        W17178  22.608  14.851  12.998
45453W        W17179  28.515   2.487  14.054
45454W        W17180  32.700  25.441  12.473
45455W        W17181   3.523  37.445   3.682
45456W        W17182   9.876  41.510  11.499
45457W        W17183  19.175  40.298  10.701
45458W        W17184   7.148   2.723  11.025
45459W        W17185   0.407   7.251   0.823
45460W        W17186  19.130   8.778   3.873
45461W        W17187  13.628  29.880   1.034
45462W        W17188  19.974  31.247  12.042
45463W        W17189  18.761  12.370   3.143
45464W        W17190  36.986   1.202  11.312
45465W        W17191  44.324  10.414   0.499
45466W        W17192  24.489   6.646   3.364
45467W        W17193   7.424  22.157   0.193
45468W        W17194  39.292  19.152  13.756
45469W        W17195  18.489   7.354   1.442
45470W        W17196  40.002  11.701  12.619
45471W        W17197  38.781   2.319   0.177
45472W        W17198  38.385  21.787  13.032
45473W        W17199   0.371  29.431  13.123
45474W        W17200  43.108   7.316   0.931
45475W        W17201  44.906  27.216   0.493
45476W        W17202  21.754  13.051   0.878
45477W        W17203  26.317  39.924   4.451
45478W        W17204  14.619   1.370   4.879
45479W        W17205   4.665  10.282  13.547
45480W        W17206  15.703   9.196   1.384
45481W        W17207  40.986  19.356   1.224
45482W        W17208  27.151  31.104   3.617
45483W        W17209  16.068   3.497  12.066
45484W        W17210  42.871  43.068   2.719
45485W        W17211  32.495  37.851   0.873
45486W        W17212   1.952  37.476   2.257
45487W        W17213  36.430   0.550  11.970
45488W        W17214  31.966   2.953  13.609
45489W        W17215   2.938  35.964   3.079
45490W        W17216  30.176  38.030   5.004
45491W        W17217  35.501   0.915  11.278
45492W        W17218  38.924  44.528   1.779
45493W        W17219  34.940  21.668  13.072
45494W        W17220   3.865  13.919  13.243
45495W        W17221  42.984   3.384   3.699
45496W        W17222   3.745  37.574  13.996
45497W        W17223   6.721   2.185  11.383
45498W        W17224  15.231  30.527  13.952
45499W        W17225   0.297  16.199   0.922
45500W        W17226  17.437   7.863   0.934
45501W        W17227  22.638   4.998   1.742
45502W        W17228  39.966   9.195   1.371
45503W        W17229  39.953   6.425  14.832
45504W        W17230  11.312   7.610   4.762
45505W        W17231   6.639  26.935   0.274
45506W        W17232  25.557  11.703   0.508
45507W        W17233  23.634  17.968   2.355
45508W        W17234  30.967  21.990   2.859
45509W        W17235  32.474   2.202  11.484
45510W        W17236   7.277   0.976   3.607
45511W        W17237  19.528  44.042  12.341
45512W        W17238  22.676  14.814   1.453
45513W        W17239   3.912  27.009  14.012
45514W        W17240  20.277  13.618   2.867
45515W        W17241  14.262   3.488  14.666
45516W        W17242   4.246  19.096  13.826
45517W        W17243  17.292  15.307   2.314
45518W        W17244  13.993  39.348   0.995
45519W        W17245   4.798   0.031  13.478
45520W        W17246  36.077  42.283   3.406
45521W        W17247  12.700  36.155  11.507
45522W        W17248   8.418  38.603  13.355
45523W        W17249   8.732   2.228  13.418
45524W        W17250  17.820  10.553  13.569
45525W        W17251  29.880  26.907  11.113
45526W        W17252   5.472  15.221   5.092
45527W        W17253  23.204  33.812   0.728
45528W        W17254  34.590   1.365  12.622
45529W        W17255  35.022  26.477   5.053
45530W        W17256  27.330  27.133  13.888
45531W        W17257  41.921  29.483  13.177
45532W        W17258  43.949  33.160  10.732
45533W        W17259  41.477  44.374   3.763
45534W        W17260  11.715   1.177   2.160
45535W        W17261  26.619  38.115   2.338
45536W        W17262  15.759  25.521   1.887
45537W        W17263  16.010  23.015  14.342
45538W        W17264  24.451  35.912   0.864
45539W        W17265  28.963  32.733   4.262
45540W        W17266  12.593  19.111  11.659
45541W        W17267  29.674  38.550  12.557
45542W        W17268  38.068  37.012  13.994
45543W        W17269   0.476  14.596   4.090
45544W        W17270  10.285  11.630   4.594
45545W        W17271  31.950   0.505  11.903
45546W        W17272   3.357  37.363   0.807
45547W        W17273  19.222  27.752  13.108
45548W        W17274  39.997   5.462  14.987
45549W        W17275  40.432  34.649   4.183
45550W        W17276  31.069  38.960  10.719
45551W        W17277  19.934   3.271   0.932
45552W        W17278  36.543   3.874   2.266
45553W        W17279  40.048  39.738   4.087
45554W        W17280  36.397  43.221   2.305
45555W        W17281   0.643  36.057  12.901
45556W        W17282  16.057   0.481  11.588
45557W        W17283   8.481  41.974  12.569
45558W        W17284   4.899  31.625  13.847
45559W        W17285  43.873  18.708   4.351
45560W        W17286   5.330  19.217   4.375
45561W        W17287   3.862  39.799   3.545
45562W        W17288  36.572  29.921  10.957
45563W        W17289  19.892  27.051   4.054
45564W        W17290  34.540  42.735   3.767
45565W        W17291  22.318  15.748  13.036
45566W        W17292   7.552   7.305   4.169
45567W        W17293  22.389  36.708  14.972
45568W        W17294  25.936  14.063  13.386
45569W        W17295  16.175  42.466   2.333
45570W        W17296  41.979  20.768  11.764
45571W        W17297  16.016  32.944   3.233
45572W        W17298  33.700   7.313  13.742
45573W        W17299  38.733   8.174   2.270
45574W        W17300  30.661  13.552   0.777
45575W        W17301  27.527  38.314   0.870
45576W        W17302  22.335  10.779   3.822
45577W        W17303  29.867  36.449   3.251
45578W        W17304  31.856   2.304   3.461
45579W        W17305  25.308  25.314   4.173
45580W        W17306  10.640   2.890   1.015
45581W        W17307   4.690  41.205  12.017
45582W        W17308  24.377   5.295  12.594
45583W        W17309   3.245  13.002  11.527
45584W        W17310  36.077  33.946  13.079
45585W        W17311  44.856  42.561   3.390
45586W        W17312   1.299  11.398  12.154
45587W        W17313   4.279  37.313  13.348
45588W        W17314  36.829  19.779  14.255
45589W        W17315   5.781  42.518   0.860
45590W        W17316  43.294  32.466  12.076
45591W        W17317  36.563  26.388   9.905
45592W        W17318  10.579  40.298   3.347
45593W        W17319  20.560  12.480   0.408
45594W        W17320  22.728  16.177  11.221
45595W        W17321  19.222  17.999   3.285
45596W        W17322  22.256  22.562  12.913
45597W        W17323  36.774  41.353  13.799
45598W        W17324  21.679   0.594   4.349
45599W        W17325  16.125  31.406  13.863
45600W        W17326   6.176   4.884  13.570
45601W        W17327  15.304  30.464  11.623
45602W        W17328  13.924  31.719  11.219
45603W        W17329  31.107  42.113   0.342
45604W        W17330  41.405  35.721   3.273
45605W        W17331  18.090  19.238   2.354
45606W        W17332   7.254   3.502  13.357
45607W        W17333  28.414  44.400   1.154
45608W        W17334   2.259   3.710   0.269
45609W        W17335  42.482  20.320  14.925
45610W        W17336  29.036  20.229   4.776
45611W        W17337  17.746  32.552   1.757
45612W        W17338  39.905  37.887   0.014
45613W        W17339  13.707  23.207  12.968
45614W        W17340   8.174  23.917  11.526
45615W        W17341  33.139  17.867  13.464
45616W        W17342  19.806   2.037  11.252
45617W        W17343  35.344  22.174   0.383
45618W        W17344  35.573  24.009  10.624
45619W        W17345  30.341  19.142   3.719
45620W        W17346  25.513  12.646  11.643
45621W        W17347   8.901  44.244   2.491
45622W        W17348  23.624  39.622   3.741
45623W        W17349  26.112  16.616   2.711
45624W        W17350   8.014   4.462  10.379
45625W        W17351  39.486  41.952   0.253
45626W        W17352  31.107  19.745   3.605
45627W        W17353  44.766  10.099   2.955
45628W        W17354   7.466  40.380   1.740
45629W        W17355   8.907  28.535  12.928
45630W        W17356  28.149  43.863   0.234
45631W        W17357   2.810  19.108   2.468
45632W        W17358  34.637  30.610   4.059
45633W        W17359  17.369   1.841  14.713
45634W        W17360  33.317   1.248  12.323
45635W        W17361   9.898   9.357   3.763
45636W        W17362  43.199  13.753   2.844
45637W        W17363  32.561  18.244   4.525
45638W        W17364  25.808  26.600  12.996
45639W        W17365  27.439  34.268  13.014
45640W        W17366  39.386  16.943  13.877
45641W        W17367   8.048  29.130   3.989
45642W        W17368  15.791  39.589   2.612
45643W        W17369  11.185  33.605   2.326
45644W        W17370  42.403  18.617  14.712
45645W        W17371  22.274   0.815   0.526
45646W        W17372  19.057   4.764   3.659
45647W        W17373  26.008  31.147  14.041
45648W        W17374  41.466  13.671  14.499
45649W        W17375  43.875   7.291  13.572
45650W        W17376  14.858  16.051   3.109
45651W        W17377   8.579  13.363  12.285
45652W        W17378  17.656  31.430   2.392
45653W        W17379  26.509  13.786   1.556
45654W        W17380  29.464  38.278  13.471
45655W        W17381  30.424  25.992  14.922
45656W        W17382  23.984  23.586  13.768
45657W        W17383   0.445   5.111  11.139
45658W        W17384  37.199   5.368  11.178
45659W        W17385  43.486  44.922   1.316
45660W        W17386  43.689   1.009   0.468
45661W        W17387  39.911  17.961  12.054
45662W        W17388  39.643  15.089  13.017
45663W        W17389  23.421   8.161   2.544
45664W        W17390  17.364   8.344  11.636
45665W        W17391  41.079   9.876  14.332
45666W        W17392  44.909  42.757   0.838
45667W        W17393  40.353   7.006   1.081
45668W        W17394   9.051  15.906  10.846
45669W        W17395  36.666  39.300  12.428
45670W        W17396  18.807  38.254  13.964
45671W        W17397   5.946  10.735   1.437
45672W        W17398  40.484   2.695  12.440
45673W        W17399  26.968   1.724  12.043
45674W        W17400  24.744  14.593   1.352
45675W        W17401  12.820   8.159  12.532
45676W        W17402  18.819  28.558  13.362
45677W        W17403  38.640  31.429   0.947
45678W        W17404  15.740  37.332   3.173
45679W        W17405  38.965  31.688  13.503
45680W        W17406  27.061  27.439  12.120
45681W        W17407  24.691  28.265  13.441
45682W        W17408  20.021  33.712  13.438
45683W        W17409  27.036  39.025   4.572
45684W        W17410  14.785  40.543  11.517
45685W        W17411  26.542  37.615   2.329
45686W        W17412  13.931   7.880   2.725
45687W        W17413   7.199  31.765   4.922
45688W        W17414  13.212  39.917   0.736
45689W        W17415   5.198  42.780   4.455
45690W        W17416  10.371   1.644   4.925
45691W        W17417  30.941  10.082   0.827
45692W        W17418  19.310  13.149   0.811
45693W        W17419   1.699   7.333   3.489
45694W        W17420  10.593  14.830   0.633
45695W        W17421  26.209  13.337  11.117
45696W        W17422  36.420  32.005   4.668
45697W        W17423  23.916  39.917  12.097
45698W        W17424  12.253  36.863   3.596
45699W        W17425   3.489  25.530   0.879
45700W        W17426  41.593   4.415   1.824
45701W        W17427  20.289  37.327  14.325
45702W        W17428   6.239  26.219   5.127
45703W        W17429  27.045  19.344  12.397
45704W        W17430  35.973  43.006  14.798
45705W        W17431   3.936  24.669  14.277
45706W        W17432  16.107  24.653   2.749
45707W        W17433   0.744  19.216  11.018
45708W        W17434  40.115  11.188   3.324
45709W        W17435  29.434  30.415   2.174
45710W        W17436  15.194   7.430  13.959
45711W        W17437  20.813  43.029  14.306
45712W        W17438   0.000   6.100  10.039
45713W        W17439   4.907  22.686   2.589
45714W        W17440  29.308  25.664   4.644
45715W        W17441  25.398  13.420   4.236
45716W        W17442  42.900  15.522   4.368
45717W        W17443  13.220   3.229  10.781
45718W        W17444  17.787  14.684   0.013
45719W        W17445  20.767  21.212  14.960
45720W        W17446  21.746  41.921   0.934
45721W        W17447   4.655  42.576   1.902
45722W        W17448  16.608  38.289  14.316
45723W        W17449  43.974  13.879  14.067
45724W        W17450  13.354  22.202   2.224
45725W        W17451  42.507  36.473   4.918
45726W        W17452   0.350  14.099   1.904
45727W        W17453   5.092  23.581   0.589
45728W        W17454  33.066  24.075   1.239
45729W        W17455  30.684  34.643  14.025
45730W        W17456  22.093   0.491   1.354
45731W        W17457   5.672   7.730  11.028
45732W        W17458  16.768  42.875  12.031
45733W        W17459  30.449  44.537   0.047
45734W        W17460  28.084   5.518  11.281
45735W        W17461   3.357   7.743  13.919
45736W        W17462  37.108   5.134  11.642
45737W        W17463  36.789   3.684   0.008
45738W        W17464  34.873   3.389   0.448
45739W        W17465  27.470  30.099   0.964
45740W        W17466  10.654  36.200   3.063
45741W        W17467  24.588  10.918  11.404
45742W        W17468  14.730  33.965  11.480
45743W        W17469  37.849  12.721   0.785
45744W        W17470  19.356  16.021   1.742
45745W        W17471   8.352  36.047   0.798
45746W        W17472   9.897   2.266   0.315
45747W        W17473   3.247   9.886  14.882
45748W        W17474   1.464  39.020  12.421
45749W        W17475  12.087  33.358  14.545
45750W        W17476  19.347  38.783   3.538
45751W        W17477  43.330  33.692  14.290
45752W        W17478  14.388  29.370  10.625
45753W        W17479  40.770  32.378  10.751
45754W        W17480  35.356  24.664   3.728
45755W        W17481  42.898  27.630  12.703
45756W        W17482  24.127   9.409  11.463
45757W        W17483  16.849  22.660  14.714
45758W        W17484   0.528  43.038   4.626
45759W        W17485  27.999  22.262   1.442
45760W        W17486  34.130  40.328   1.691
45761W        W17487  30.731  11.829   1.864
45762W        W17488  41.339  22.058   0.994
45763W        W17489  28.408   8.194  13.445
45764W        W17490  24.550  37.825   4.596
45765W        W17491   2.540  19.693   4.647
45766W        W17492  16.145  41.027   0.397
45767W        W17493   7.630   0.167  11.001
45768W        W17494   3.290   8.385   2.410
45769W        W17495  16.982   0.432  11.503
45770W        W17496  41.950   9.499  11.636
45771W        W17497   6.473  34.981   0.841
45772W        W17498  27.528  20.110   3.144
45773W        W17499  14.203  44.756   1.097
45774W        W17500   1.918  10.578  14.544
45775W        W17501  28.159  39.869   2.437
45776W        W17502  42.029   7.822  14.006
45777W        W17503   5.828  15.674   2.923
45778W        W17504  32.398   5.446  13.758
45779W        W17505  36.355   7.953   0.818
45780W        W17506   3.984  10.861  13.392
45781W        W17507  25.951  26.929   2.041
45782W        W17508  36.849   0.678   1.670
45783W        W17509   1.866  19.315  13.011
45784W        W17510  10.379   6.416   0.879
45785W        W17511  16.115  36.868  13.387
45786W        W17512  13.674  24.104  14.082
45787W        W17513  35.656  42.839  12.666
45788W        W17514  13.674  10.900  11.668
45789W        W17515  36.168  24.525  12.482
45790W        W17516  30.903  16.633   0.318
45791W        W17517   9.849   4.368   1.319
45792W        W17518  10.174  41.553  13.466
45793W        W17519  36.574   7.805  14.914
45794W        W17520  22.932   7.474   2.790
45795W        W17521  17.120  15.758  13.776
45796W        W17522  15.523  15.354   1.925
45797W        W17523   1.823  16.368  13.311
45798W        W17524   2.555   9.648   2.691
45799W        W17525   0.646  22.292  13.035
45800W        W17526  25.526   8.063   2.026
45801W        W17527   3.113  25.970  14.359
45802W        W17528  32.479   7.174   1.213
45803W        W17529  11.336  28.676  11.532
45804W        W17530   6.163  26.673  10.696
45805W        W17531  23.613  24.378  13.381
45806W        W17532   6.486  38.031   4.161
45807W        W17533   4.699   1.868  13.704
45808W        W17534  36.459  17.335  14.514
45809W        W17535  18.511  15.629  14.056
45810W        W17536  30.590   9.365   0.330
45811W        W17537  39.801  12.846  10.739
45812W        W17538  35.391  26.226  13.103
45813W        W17539  30.146  29.495  14.777
45814W        W17540   6.804  13.396   4.628
45815W        W17541  38.795   6.373   3.727
45816W        W17542  20.145   5.398  12.987
45817W        W17543   9.596  25.794  13.731
45818W        W17544  22.572  23.575   2.237
45819W        W17545  22.652   1.336  12.422
45820W        W17546  23.547  15.606  13.282
45821W        W17547  20.293   3.199  10.728
45822W        W17548  10.778  20.616  11.945
45823W        W17549  38.505  42.066  13.565
45824W        W17550  34.917  15.544  11.566
45825W        W17551  24.615  38.578  12.015
45826W        W17552  28.195  19.068  12.159
45827W        W17553  42.250   5.157   0.310
45828W        W17554  22.652   6.303  12.812
45829W        W17555  15.138  36.057  10.684
45830W        W17556  43.981  30.691  14.506
45831W        W17557   9.160  11.666  10.610
45832W        W17558   2.789  11.291  13.889
45833W        W17559  19.006  42.939  10.801
45834W        W17560   4.853  29.983   1.262
45835W        W17561  40.871  34.659   3.412
45836W        W17562  25.206  20.398   1.418
45837W        W17563  44.402  32.915  11.428
45838W        W17564  12.129  33.501  11.899
45839W        W17565  41.998  18.199   0.274
45840W        W17566  38.731  11.226  10.592
45841W        W17567   3.937  41.935  11.459
45842W        W17568  30.191   3.342  13.107
45843W        W17569   4.295   6.267   2.094
45844W        W17570  25.701  22.304  10.841
45845W        W17571   5.782   1.926   1.369
45846W        W17572  41.887  19.019  11.639
45847W        W17573  37.553  11.786   1.842
45848W        W17574   5.393  34.929   3.232
45849W        W17575  36.956  13.648   0.704
45850W        W17576   8.137  37.131   1.765
45851W        W17577  43.188  16.474   4.427
45852W        W17578  27.584  22.511   2.732
45853W        W17579   5.206  13.821   3.802
45854W        W17580  23.577  39.600   3.197
45855W        W17581   2.189  42.309  11.560
45856W        W17582   1.772  35.063   0.494
45857W        W17583   0.921  40.092  14.129
45858W        W17584  29.004  22.959  14.361
45859W        W17585  16.780  38.607  12.026
45860W        W17586  15.678   0.321  13.953
45861W        W17587  22.600  36.889  10.926
45862W        W17588  29.162   2.909  12.001
45863W        W17589   3.006   7.498  12.008
45864W        W17590  33.430   7.466  10.829
45865W        W17591  29.897   1.327   0.367
45866W        W17592  32.330  15.674   2.168
45867W        W17593  15.771   3.914   1.699
45868W        W17594  32.548  32.096   3.179
45869W        W17595  21.493   9.056  11.780
45870W        W17596  11.915  15.591   3.105
45871W        W17597  13.582  15.139   4.622
45872W        W17598  25.534  37.757   1.380
45873W        W17599  11.854  29.964   0.859
45874W        W17600  14.309  22.255  10.585
45875W        W17601   4.955  41.284  12.927
45876W        W17602   6.219  13.379  12.484
45877W        W17603  31.832  17.316   0.498
45878W        W17604  23.205  32.666   1.865
45879W        W17605  24.135  25.135   3.665
45880W        W17606  32.336  42.527   3.133
45881W        W17607   4.236   3.299   1.907
45882W        W17608   2.489  30.452   2.951
45883W        W17609  20.543  18.691   0.346
45884W        W17610  44.297   1.500  14.044
45885W        W17611  28.895  27.954   2.676
45886W        W17612  14.287  23.242  12.582
45887W        W17613  18.212  22.971  13.314
45888W        W17614  37.041  29.556  11.587
45889W        W17615  31.416  16.756  14.439
45890W        W17616   4.491  32.913  10.918
45891W        W17617   5.939  39.330   2.725
45892W        W17618  15.712  34.726  10.660
45893W        W17619  35.595  16.267   1.938
45894W        W17620  29.666   9.293  13.833
45895W        W17621  25.635  36.870  12.598
45896W        W17622  33.039  14.163   4.216
45897W        W17623  36.025  36.493   3.889
45898W        W17624  21.177   8.430   2.820
45899W        W17625   0.436  36.249   0.493
45900W        W17626  15.490  38.598   2.895
45901W        W17627  39.996  33.147  11.708
45902W        W17628  15.546  39.873  10.642
45903W        W17629  23.155  40.805  14.393
45904W        W17630  32.090   0.559  13.766
45905W        W17631  37.358  31.605  12.563
45906W        W17632  43.562   7.741  12.939
45907W        W17633  34.559  38.564  11.582
45908W        W17634  18.169  34.214  11.345
45909W        W17635  28.584  10.339  12.306
45910W        W17636  16.053  15.198  11.523
45911W        W17637  29.846  18.870  14.900
45912W        W17638   4.687  27.132  14.398
45913W        W17639  37.628  30.377  13.899
45914W        W17640  33.447  33.400   1.389
45915W        W17641  32.795  27.464  11.953
45916W        W17642  27.459  42.030   2.432
45917W        W17643  25.997   2.218   1.331
45918W        W17644  20.458  41.364  14.954
45919W        W17645  42.456  30.194   2.781
45920W        W17646   1.706   6.747   1.207
45921W        W17647   9.886  36.180  12.930
45922W        W17648  41.408  25.049   1.720
45923W        W17649  44.945  44.790  12.362
45924W        W17650  16.682  36.340  14.045
45925W        W17651   6.155  16.876  13.930
45926W        W17652  43.564  28.331  13.055
45927W        W17653  21.711   4.226   0.066
45928W        W17654  21.756  14.082  12.359
45929W        W17655   0.885   9.457   0.904
45930W        W17656  42.981  28.175   2.160
45931W        W17657   8.265  34.381   4.572
45932W        W17658  31.088  12.658   1.949
45933W        W17659  11.667  33.152  12.519
45934W        W17660  23.174  35.550  14.714
45935W        W17661  27.647  26.110  10.328
45936W        W17662  40.728  31.157  13.812
45937W        W17663  14.628   5.497   2.559
45938W        W17664   4.675  38.280   2.652
45939W        W17665  30.579   8.620   4.496
45940W        W17666  22.219  34.888   4.910
45941W        W17667  15.963  19.486  13.178
45942W        W17668   9.039  31.421  14.920
45943W        W17669  12.535  27.907  12.927
45944W        W17670  12.298  37.975   0.520
45945W        W17671  14.848  32.600  12.596
45946W        W17672   8.247   1.912  14.895
45947W        W17673  23.027  20.444  14.342
45948W        W17674  29.066   3.151   0.363
45949W        W17675  37.666   1.503   0.474
45950W        W17676  33.679  23.353  14.607
45951W        W17677  11.701  17.949  12.184
45952W        W17678  31.672  10.734   2.386
45953W        W17679   0.008  23.990   2.069
45954W        W17680  21.757  32.929  12.489
45955W        W17681  31.907  19.500  11.260
45956W        W17682  32.530  34.674  10.461
45957W        W17683  34.522   5.905  14.903
45958W        W17684   2.522  19.176  10.977
45959W        W17685  18.709  32.352   0.934
45960W        W17686  25.962  31.671  13.985
45961W        W17687  26.022  13.112  14.744
45962W        W17688   3.874  24.234  13.771
45963W        W17689   2.632  10.897   3.850
45964W        W17690  20.404   2.762   2.845
45965W        W17691   5.661  10.326  12.459
45966W        W17692  17.626  39.989  14.731
45967W        W17693   8.838  25.638   5.174
45968W        W17694   4.778   3.536  10.490
45969W        W17695  17.311  43.359  14.263
45970W        W17696  19.560  30.828  13.841
45971W        W17697  17.067  20.524   0.902
45972W        W17698  21.609  34.868   3.558
45973W        W17699  36.784   7.071  14.067
45974W        W17700   5.662  39.515  11.316
45975W        W17701  39.213  17.872   4.156
45976W        W17702   3.698  17.100  14.529
45977W        W17703  41.478  43.072   1.798
45978W        W17704  37.554  35.787   4.518
45979W        W17705  14.672  18.588   3.630
45980W        W17706  10.119  31.053  14.237
45981W        W17707  19.317  12.446  13.783
45982W        W17708  16.119  27.956  13.885
45983W        W17709  36.401  37.457   2.810
45984W        W17710  31.421  16.830   1.253
45985W        W17711   2.272  39.806  12.013
45986W        W17712  33.996  11.469   1.213
45987W        W17713  38.489  37.584  11.213
45988W        W17714  14.233  40.514  10.059
45989W        W17715   0.468   6.987  12.562
45990W        W17716  16.680   9.205   0.058
45991W        W17717  29.369  18.165  11.264
45992W        W17718  21.509  24.601  14.515
45993W        W17719  17.592  19.707   0.342
45994W        W17720   6.203  10.941   0.034
45995W        W17721  34.375  13.185   1.850
45996W        W17722  22.722  11.808  13.732
45997W        W17723   5.942   2.748  11.545
45998W        W17724  37.385  27.050  12.662
45999W        W17725  10.598  34.404  11.408
46000W        W17726  26.552  28.980  14.386
46001W        W17727   2.274  17.676  12.442
46002W        W17728   9.601   2.459  11.992
46003W        W17729  35.648   1.948  14.691
46004W        W17730  43.095   8.812   1.525
46005W        W17731   7.635   2.843  10.928
46006W        W17732  17.463  11.261   4.095
46007W        W17733  29.695  20.761  12.101
46008W        W17734   2.069  21.622   1.221
46009W        W17735  37.456   4.610  14.434
46010W        W17736   4.913   2.172   2.750
46011W        W17737  24.547  24.671  14.167
46012W        W17738  37.332  15.618  11.133
46013W        W17739  38.939  11.391   3.681
46014W        W17740   8.156   5.031  11.921
46015W        W17741  19.185  11.338  13.773
46016W        W17742   3.957  24.228   0.212
46017W        W17743  11.448  37.380  11.648
46018W        W17744  33.850  21.986   2.673
46019W        W17745  38.948  44.365  11.472
46020W        W17746   9.249   6.858   1.905
46021W        W17747  33.892  13.627  11.373
46022W        W17748   4.786   4.640  10.196
46023W        W17749  43.002   2.037  13.869
46024W        W17750  14.985  13.114   1.436
46025W        W17751  18.052  38.957  14.900
46026W        W17752  13.767  17.802  10.623
46027W        W17753  42.786  24.218  11.046
46028W        W17754  32.971  25.455  11.161
46029W        W17755  44.793  35.867  10.755
46030W        W17756   3.166  39.531   0.352
46031W        W17757  21.432  34.444   0.661
46032W        W17758  34.616  33.163   0.012
46033W        W17759  34.798  16.775   1.933
46034W        W17760  17.816  29.193   0.008
46035W        W17761  39.308   7.706   4.184
46036W        W17762  44.498   2.451   2.125
46037W        W17763  11.164  42.826   1.720
46038W        W17764  30.482   3.263  12.108
46039W        W17765   5.202   3.825  10.433
46040W        W17766  40.373  30.959  12.885
46041W        W17767  34.921  43.462   3.785
46042W        W17768  21.201  25.237  10.710
46043W        W17769  14.303  21.569  13.808
46044W        W17770  27.046  43.699   2.651
46045W        W17771  19.092  13.051  12.906
46046W        W17772  15.725   7.588   2.564
46047W        W17773  29.488  14.722   0.723
46048W        W17774  10.173  19.964  10.865
46049W        W17775  22.390  23.552   4.262
46050W        W17776  11.837  13.041   3.808
46051W        W17777  26.005  34.370  10.752
46052W        W17778  14.378   8.734  12.119
46053W        W17779  10.641  38.808  13.392
46054W        W17780  44.960  37.921   4.830
46055W        W17781  33.236  24.313  11.156
46056W        W17782   7.584  23.115   4.535
46057W        W17783   7.269  44.780   2.755
46058W        W17784  10.600  24.069  13.777
46059W        W17785  40.288  16.453  12.457
46060W        W17786  39.904  40.437  13.287
46061W        W17787  12.090   4.169  13.347
46062W        W17788   0.040  35.389  12.496
46063W        W17789  12.335  36.235  12.943
46064W        W17790  30.045   9.838   2.773
46065W        W17791  28.564  38.156   3.678
46066W        W17792  15.091   7.170   4.372
46067W        W17793  30.141  27.198  13.819
46068W        W17794  21.626  35.096  12.810
46069W        W17795   9.203  38.245  11.479
46070W        W17796  19.253  33.032  11.711
46071W        W17797  41.064   1.491   1.693
46072W        W17798  32.043  12.381   2.525
46073W        W17799  12.667   4.365  11.675
46074W        W17800  37.157  12.260  12.970
46075W        W17801   6.625  24.692  12.183
46076W        W17802  20.067  19.044   4.267
46077W        W17803  37.067   9.456   0.465
46078W        W17804   0.225  41.267   1.752
46079W        W17805  18.305  13.164   2.329
46080W        W17806  11.628   7.568   3.217
46081W        W17807   2.738  34.457   1.854
46082W        W17808   0.891  22.209  12.576
46083W        W17809   9.140  18.617   0.989
46084W        W17810  26.970  22.769  10.999
46085W        W17811   6.176  34.589  11.923
46086W        W17812  32.379  19.524   3.737
46087W        W17813  22.587  26.599   1.234
46088W        W17814  23.990  27.575   5.061
46089W        W17815  11.305  15.407  11.522
46090W        W17816  27.157  28.497   2.591
46091W        W17817  23.121   2.391   1.802
46092W        W17818  17.053   2.792  12.094
46093W        W17819  38.887  32.468   4.151
46094W        W17820  27.056  44.446   0.038
46095W        W17821  26.521   1.316  14.541
46096W        W17822  10.853  14.077   0.331
46097W        W17823  14.793  16.894  11.662
46098W        W17824  43.306  22.163   0.861
46099W        W17825  24.515   8.801  12.103
46100W        W17826  27.457  21.900  12.574
46101W        W17827   6.001  39.563  12.803
46102W        W17828  23.863  25.046  11.883
46103W        W17829  28.100  44.391   0.072
46104W        W17830  28.078  42.058   0.831
46105W        W17831  36.315  32.064  11.930
46106W        W17832  11.303  26.067  13.063
46107W        W17833  40.351  26.438   1.407
46108W        W17834  17.854  14.634  11.162
46109W        W17835  42.832  22.548  13.917
46110W        W17836   1.222  14.211  12.025
46111W        W17837  23.036  24.637   4.441
46112W        W17838  36.407  15.107   4.663
46113W        W17839  27.928  32.980  11.086
46114W        W17840  15.355   8.763  13.463
46115W        W17841   5.487  39.847   4.253
46116W        W17842   6.487  15.601  13.999
46117W        W17843  32.243   8.860   3.028
46118W        W17844  40.987  30.036   3.401
46119W        W17845  27.381  11.829  10.457
46120W        W17846  40.093  25.609   3.815
46121W        W17847   5.445  36.944   3.755
46122W        W17848  35.262   1.088  13.010
46123W        W17849  42.946   1.455  10.635
46124W        W17850  35.433  27.129  12.940
46125W        W17851   5.766  43.949   2.456
46126W        W17852  25.613  34.949  14.386
46127W        W17853  40.522  41.305   1.884
46128W        W17854  35.915   5.669   3.190
46129W        W17855  11.600  42.511  13.843
46130W        W17856   3.451  30.162   1.774
46131W        W17857  28.040   5.682   4.640
46132W        W17858  12.525  23.181   1.615
46133W        W17859  20.300  38.401  12.521
46134W        W17860  14.278  10.608   1.381
46135W        W17861  29.935  11.135   4.219
46136W        W17862  26.471  17.799   0.825
46137W        W17863  32.764   6.188   1.537
46138W        W17864  38.448  41.123  13.599
46139W        W17865  31.021  23.711  13.377
46140W        W17866  21.689  36.046   3.176
46141W        W17867  41.377  12.159   0.878
46142W        W17868  44.548  10.131  11.979
46143W        W17869  37.337  37.441   2.833
46144W        W17870  29.432  40.989  12.006
46145W        W17871  20.061  36.322  13.871
46146W        W17872  15.022   2.534  13.430
46147W        W17873  21.509  32.570   4.195
46148W        W17874  10.202   2.840   0.742
46149W        W17875   7.590  29.261   3.779
46150W        W17876   8.179  41.291   2.083
46151W        W17877  36.383  23.569   4.314
46152W        W17878  12.159  42.918  12.891
46153W        W17879  31.208  23.157   1.870
46154W        W17880  12.580  31.507   2.138
46155W        W17881  11.673  14.238  14.740
46156W        W17882  42.072  28.596   2.124
46157W        W17883  15.051  10.297  11.693
46158W        W17884  32.219  10.196   2.726
46159W        W17885   0.886  43.972  12.030
46160W        W17886  30.834  30.743  12.050
46161W        W17887  16.741  28.152  13.131
46162W        W17888  24.598   2.680  14.193
46163W        W17889   3.252  32.559   2.279
46164W        W17890   4.307  16.702   0.387
46165W        W17891  10.011  42.378   3.132
46166W        W17892  38.320   7.723   0.483
46167W        W17893  20.096  32.922   0.524
46168W        W17894  44.240  26.889  11.667
46169W        W17895   3.756   3.298  13.438
46170W        W17896  28.635  33.498   3.374
46171W        W17897   4.484  30.002   3.312
46172W        W17898   2.329  31.005   1.790
46173W        W17899  31.188  13.330   1.312
46174W        W17900  24.615  20.653   4.659
46175W        W17901  43.841   6.961  10.310
46176W        W17902   0.301  43.380  10.432
46177W        W17903   5.730  31.867   0.866
46178W        W17904  11.392  40.409   2.322
46179W        W17905  28.214   0.066   5.033
46180W        W17906  35.935  35.394   1.357
46181W        W17907   2.356   4.781   5.077
46182W        W17908  29.640   9.623   3.722
46183W        W17909  24.472  39.905  11.095
46184W        W17910   0.255  34.990   0.596
46185W        W17911  10.439  29.397  14.910
46186W        W17912  36.556  23.992   4.587
46187W        W17913   2.234   4.516  12.483
46188W        W17914  18.840  16.742  13.437
46189W        W17915  29.540  10.572   0.839
46190W        W17916  19.114  40.310  14.437
46191W        W17917  25.008  13.322   3.911
46192W        W17918  29.876  32.111  13.787
46193W        W17919  37.940   7.307   4.061
46194W        W17920  20.448   7.978  14.414
46195W        W17921  24.696   7.923  12.260
46196W        W17922  42.167  27.675   2.396
46197W        W17923  19.992  18.769  13.809
46198W        W17924  19.975  20.805  14.838
46199W        W17925  23.763  27.891  13.240
46200W        W17926  30.388  40.559   2.834
46201W        W17927  37.428  20.097   2.286
46202W        W17928  28.317  30.403   3.640
46203W        W17929  27.185   2.720   3.822
46204W        W17930  28.860  40.341  13.881
46205W        W17931  18.348  27.358   0.691
46206W        W17932  40.492  32.609  14.343
46207W        W17933  29.874  27.512  12.877
46208W        W17934  20.063  24.901  14.931
46209W        W17935  27.454  21.721   2.265
46210W        W17936   7.874  41.477   4.551
46211W        W17937   4.798  41.758   0.492
46212W        W17938  23.780  23.889   0.384
46213W        W17939  32.917  35.355   2.210
46214W        W17940  13.535  41.544  10.532
46215W        W17941  41.820  10.612   1.301
46216W        W17942  44.696  34.497   1.208
46217W        W17943  31.988  20.406   2.681
46218W        W17944  29.143  16.048   1.385
46219W        W17945  15.330  44.151   0.401
46220W        W17946  26.877   7.273   3.660
46221W        W17947  43.840  33.471   1.739
46222W        W17948  19.081  24.250  14.905
46223W        W17949   1.668  24.798  13.258
46224W        W17950   6.645  13.621   9.777
46225W        W17951  37.863   8.974   3.391
46226W        W17952  39.144   0.551   0.879
46227W        W17953  10.086  38.359  12.568
46228W        W17954   9.213  21.444  14.380
46229W        W17955  41.408  30.769   0.334
46230W        W17956  31.640  21.106   3.745
46231W        W17957  44.532  14.514  11.643
46232W        W17958  14.762  11.724   0.224
46233W        W17959  18.622  35.564  14.491
46234W        W17960  21.379  23.491   4.360
46235W        W17961  42.354  27.669   3.988
46236W        W17962  25.217   7.652  10.975
46237W        W17963  14.695   2.261  12.996
46238W        W17964  25.777   3.937  11.132
46239W        W17965  38.929   8.952   1.715
46240W        W17966   2.355  31.014  13.790
46241W        W17967  29.348  30.127   1.052
46242W        W17968  38.506  31.663   3.186
46243W        W17969   0.432  35.134  13.868
46244W        W17970  39.982  19.149  14.004
46245W        W17971  43.459  30.876  13.029
46246W        W17972  21.093  24.299   1.739
46247W        W17973   1.567  15.023  13.038
46248W        W17974  27.436   1.419  10.558
46249W        W17975  14.877  21.524  11.589
46250W        W17976  14.672  33.055   1.363
46251W        W17977  35.474   3.064   1.753
46252W        W17978  34.146   9.352  14.473
46253W        W17979  25.032   7.420   0.925
46254W        W17980  21.611  43.082   0.417
46255W        W17981  21.726  24.225   2.756
46256W        W17982   6.197  38.136   4.734
46257W        W17983  40.944  18.092   2.881
46258W        W17984  17.761  23.010  13.044
46259W        W17985  37.386  26.971   2.772
46260W        W17986   0.617  37.178  12.007
46261W        W17987   3.789  40.958  13.428
46262W        W17988  16.542  15.663  13.032
46263W        W17989   0.942  10.108   5.027
46264W        W17990  28.048  36.395   3.168
46265W        W17991   8.913   6.580   4.882
46266W        W17992   1.422  29.515   3.580
46267W        W17993  22.592  35.108  12.040
46268W        W17994  13.177  10.892   1.806
46269W        W17995  18.051  30.346   2.747
46270W        W17996   8.413  16.279   3.725
46271W        W17997  30.487   5.818   3.437
46272W        W17998  44.713  33.850  11.589
46273W        W17999  29.045  23.718   0.324
46274W        W18000  32.925  37.939   2.888
46275W        W18001  34.983  20.504   0.457
46276W        W18002   5.294  40.361  13.739
46277W        W18003  31.108  43.913  11.959
46278W        W18004  12.470   3.256  12.270
46279W        W18005  37.872  29.945   4.591
46280W        W18006  30.016   2.367   4.603
46281W        W18007  42.763  29.998   2.265
46282W        W18008  43.320  43.446   1.667
46283W        W18009  40.315  17.699  10.715
46284W        W18010   5.355  18.559   3.281
46285W        W18011   9.099   2.777  11.406
46286W        W18012  28.746  26.160   4.272
46287W        W18013  17.113  43.844  13.993
46288W        W18014  15.213  20.649  10.631
46289W        W18015  35.112  19.663   1.018
46290W        W18016  42.540  20.064   0.480
46291W        W18017   7.689   4.512   2.493
46292W        W18018  32.438  14.128  14.366
46293W        W18019  36.874   5.404  13.411
46294W        W18020  29.127   9.587  11.975
46295W        W18021  16.173  17.495   1.661
46296W        W18022   8.072   3.201   3.558
46297W        W18023  37.801  40.604  12.848
46298W        W18024  39.907  24.045  11.156
46299W        W18025  28.398  35.736  12.399
46300W        W18026  33.374  13.743  11.220
46301W        W18027  35.192  36.245  11.158
46302W        W18028  40.047  21.298  14.495
46303W        W18029  22.826  27.450   4.637
46304W        W18030  35.973  11.646  13.011
46305W        W18031   8.900   3.261   4.109
46306W        W18032  41.616  30.055  10.843
46307W        W18033  24.500  13.107  13.518
46308W        W18034  31.463  16.809   4.475
46309W        W18035  44.759  15.014  11.975
46310W        W18036  24.263  11.233   2.048
46311W        W18037  29.227  44.949   4.083
46312W        W18038  11.097  28.942  13.267
46313W        W18039  35.340  30.182   3.694
46314W        W18040  13.128  35.088  12.027
46315W        W18041  21.420  18.123   1.989
46316W        W18042  32.453  12.383  11.937
46317W        W18043  10.170   8.570   1.748
46318W        W18044   4.831   3.539   0.636
46319W        W18045  31.125  41.338  14.874
46320W        W18046   1.405  30.666   4.133
46321W        W18047  34.538  27.172   3.321
46322W        W18048  11.079  23.008  11.227
46323W        W18049   1.916  41.536  14.823
46324W        W18050  17.507  18.912   4.556
46325W        W18051  27.389  10.836   3.160
46326W        W18052  31.133  22.640   0.318
46327W        W18053  28.988  20.549  11.173
46328W        W18054  30.951  43.832   0.272
46329W        W18055  41.810  35.962   4.211
46330W        W18056   8.820  20.088  10.715
46331W        W18057  29.719  30.694   0.319
46332W        W18058   5.628  38.504   3.200
46333W        W18059   8.247  24.481   5.420
46334W        W18060  40.923  40.606  10.570
46335W        W18061  38.891  26.408  12.211
46336W        W18062  24.575   7.720  13.424
46337W        W18063   4.888   6.304   9.985
46338W        W18064   1.367  15.384  13.359
46339W        W18065  24.969  16.701  13.323
46340W        W18066   7.353   1.903  12.003
46341W        W18067  39.908   0.419   1.274
46342W        W18068  36.763  18.736  13.409
46343W        W18069  24.745  14.181  11.354
46344W        W18070  10.319  42.372   3.615
46345W        W18071  32.167   5.918   4.056
46346W        W18072   1.908   2.523  14.760
46347W        W18073  12.516  41.798  12.066
46348W        W18074   4.867  33.321  12.376
46349W        W18075  33.974  36.485   1.005
46350W        W18076  44.910  39.862  13.147
46351W        W18077  38.090  14.611   2.222
46352W        W18078   6.436  15.428  10.451
46353W        W18079  12.814  23.101   2.358
46354W        W18080  38.594  21.724   4.080
46355W        W18081  42.950   3.620   1.424
46356W        W18082  30.328  11.023   3.204
46357W        W18083  32.215  19.018   0.647
46358W        W18084  31.025  15.631   1.828
46359W        W18085   9.437  11.141  10.797
46360W        W18086  18.688  12.352   1.380
46361W        W18087  34.178  42.697   1.728
46362W        W18088  27.621  23.246  14.316
46363W        W18089   6.977  33.144  13.882
46364W        W18090  39.863   2.908  12.002
46365W        W18091  34.604   2.912   3.774
46366W        W18092  19.134   7.058  10.604
46367W        W18093   9.376   4.836  11.589
46368W        W18094   4.187  16.604  12.828
46369W        W18095  28.897   0.213  12.370
46370W        W18096  29.780  27.029   3.317
46371W        W18097  21.253   4.663   2.277
46372W        W18098  40.235   9.626   0.489
46373W        W18099   6.403  38.566  10.233
46374W        W18100  31.862  34.423   1.693
46375W        W18101  11.677  43.328  13.362
46376W        W18102   7.225  35.493  11.424
46377W        W18103  32.700   7.867  11.249
46378W        W18104   8.822  29.434   1.282
46379W        W18105  34.437  32.361   1.720
46380W        W18106   0.867  28.914   2.297
46381W        W18107  43.076   9.710  11.871
46382W        W18108  11.272  34.396   1.876
46383W        W18109  37.873   9.360  12.941
46384W        W18110  11.170   4.158  11.485
46385W        W18111  26.815  20.143   4.124
46386W        W18112  21.003  34.112   3.132
46387W        W18113   8.153  39.498  10.374
46388W        W18114  16.193  39.268  11.601
46389W        W18115  22.257   1.080   0.965
46390W        W18116  33.966   0.807   4.277
46391W        W18117  18.353  18.212  13.309
46392W        W18118  18.282  15.238  13.819
46393W        W18119  42.913   7.702  12.065
46394W        W18120  11.321  34.479  12.906
46395W        W18121  32.848  32.517   3.283
46396W        W18122  31.629  10.767   0.833
46397W        W18123  24.784  17.063   3.219
46398W        W18124   2.405  40.312   2.279
46399W        W18125  34.618   4.635   3.740
46400W        W18126  21.428  37.041  12.333
46401W        W18127  37.399  41.474  13.444
46402W        W18128  35.847  41.828   2.579
46403W        W18129  19.640   4.326   0.053
46404W        W18130   3.216  12.751  12.953
46405W        W18131  15.562  16.095  10.414
46406W        W18132  29.069   9.197  10.684
46407W        W18133  15.656  25.114   4.255
46408W        W18134  35.039   9.231   1.190
46409W        W18135  20.165  37.964   4.764
46410W        W18136  33.352   8.902   3.824
46411W        W18137  42.841  38.948   3.281
46412W        W18138  29.450  40.236  13.703
46413W        W18139  30.902  21.203   4.160
46414W        W18140  35.433  22.257   1.904
46415W        W18141  14.190   2.302   2.466
46416W        W18142  43.278  28.120  10.334
46417W        W18143  38.961  11.363  14.948
46418W        W18144  29.828  22.107  14.327
46419W        W18145   1.938  22.479  13.167
46420W        W18146  35.440  44.906  11.879
46421W        W18147  33.929  30.535   2.146
46422W        W18148   9.148  37.653  13.526
46423W        W18149   1.303   1.254  11.780
46424W        W18150  39.872  41.770  10.743
46425W        W18151   7.123   3.731   0.364
46426W        W18152  39.768   8.958  10.907
46427W        W18153  21.099  34.074  12.024
46428W        W18154   0.719  31.199  14.571
46429W        W18155  44.175  39.954   3.230
46430W        W18156  12.337  10.326   4.591
46431W        W18157  40.261  41.926  14.787
46432W        W18158  15.195   3.772  14.454
46433W        W18159   5.864  39.396   1.510
46434W        W18160  11.065   1.934  11.249
46435W        W18161   3.919  28.588  12.572
46436W        W18162   9.698  15.800  13.487
46437W        W18163  29.002  41.304   1.200
46438W        W18164  17.820   8.621  11.581
46439W        W18165  28.787  41.938   2.466
46440W        W18166  37.700  30.133  13.298
46441W        W18167  31.076  37.148  11.077
46442W        W18168   0.213  15.746  12.029
46443W        W18169  34.385   4.012   0.789
46444W        W18170  41.252  16.143  12.052
46445W        W18171   3.556   7.687   5.022
46446W        W18172  43.763  35.062   3.620
46447W        W18173  39.708  29.070   1.848
46448W        W18174  36.379  13.649  10.672
46449W        W18175  32.025  19.131   2.147
46450W        W18176  29.708   9.642  11.132
46451W        W18177   5.286  15.837  14.266
46452W        W18178  28.646  22.802  13.391
46453W        W18179  16.326  30.359  11.566
46454W        W18180  26.044  40.391  12.431
46455W        W18181   4.512  43.088  14.731
46456W        W18182  22.917  35.838   2.512
46457W        W18183   8.858   5.644  10.920
46458W        W18184  32.057  11.404   0.746
46459W        W18185  28.675  39.367   2.944
46460W        W18186  27.092  27.819   0.300
46461W        W18187  39.635  24.226   0.719
46462W        W18188  36.012  12.630   4.108
46463W        W18189  38.127  33.978   2.837
46464W        W18190  10.369   7.804  12.888
46465W        W18191  21.190  19.492   1.748
46466W        W18192  13.338  37.183  14.272
46467W        W18193  11.369  34.445  14.931
46468W        W18194  42.470   3.838   2.677
46469W        W18195  23.467  26.860   4.617
46470W        W18196   1.776  18.030   1.135
46471W        W18197  40.153   2.309  14.854
46472W        W18198  27.917  33.847   1.662
46473W        W18199  16.001  21.116   1.697
46474W        W18200  17.568  22.005   4.640
46475W        W18201  20.450  36.978  13.390
46476W        W18202  43.965  38.861   3.649
46477W        W18203   9.728  17.127   4.756
46478W        W18204  30.404   4.515  12.438
46479W        W18205   7.325  36.081   4.958
46480W        W18206   0.786  43.472   3.437
46481W        W18207  35.414   1.958   1.686
46482W        W18208  21.258  10.702  14.281
46483W        W18209   4.892   9.408   0.886
46484W        W18210   7.410  32.851   3.189
46485W        W18211  34.883  15.816   4.995
46486W        W18212   6.055  30.523  10.621
46487W        W18213   0.015  29.997  12.610
46488W        W18214   1.403  16.248  13.927
46489W        W18215  43.273  42.575   2.022
46490W        W18216  26.529  40.099   0.914
46491W        W18217  16.502  17.385  13.008
46492W        W18218  28.119   9.789   1.288
46493W        W18219  33.831  31.165  10.554
46494W        W18220  32.726  39.550   4.192
46495W        W18221   4.195  19.170  12.913
46496W        W18222  15.236  16.726  12.376
46497W        W18223   0.275  27.694  12.115
46498W        W18224  21.712   6.255  14.779
46499W        W18225  42.804  20.233  10.735
46500W        W18226   1.234  29.050   3.836
46501W        W18227  12.587  12.187  14.495
46502W        W18228  16.639   7.236   1.718
46503W        W18229   4.898  28.167  11.535
46504W        W18230   7.239   4.010  11.462
46505W        W18231  37.861  37.382   3.694
46506W        W18232  22.970  24.788  14.866
46507W        W18233  14.107  20.394  14.454
46508W        W18234  42.037  33.824   2.255
46509W        W18235  19.319  24.215  11.300
46510W        W18236  21.130   6.347   1.359
46511W        W18237  30.966  14.704   2.171
46512W        W18238   2.924  38.353   0.024
46513W        W18239  24.491  42.551   1.928
46514W        W18240  42.838  17.484  12.976
46515W        W18241  13.083  30.586  12.567
46516W        W18242  32.632  16.132   2.178
46517W        W18243  33.506  34.627   4.481
46518W        W18244   5.919  27.626  12.720
46519W        W18245  18.664   6.411   2.237
46520W        W18246  11.644  14.313   1.430
46521W        W18247   5.930  33.042   0.304
46522W        W18248  28.449   0.017   2.285
46523W        W18249  39.561  20.970   2.216
46524W        W18250   1.369  21.417  12.513
46525W        W18251   3.434  17.255   4.337
46526W        W18252  14.506   8.539  14.474
46527W        W18253  15.603  26.918   3.751
46528W        W18254  41.295  39.892  12.616
46529W        W18255   7.220  35.940   4.368
46530W        W18256  13.167  20.839  12.874
46531W        W18257  41.535  18.697   2.256
46532W        W18258  42.879  43.789  12.617
46533W        W18259  21.607  30.159   1.723
46534W        W18260  10.772  15.163  13.799
46535W        W18261  24.474  24.290  11.999
46536W        W18262  26.070  21.025  11.884
46537W        W18263   3.048  31.873  14.514
46538W        W18264  23.520  26.077  14.480
46539W        W18265  34.007   7.482   3.193
46540W        W18266  41.345  21.154   4.136
46541W        W18267  40.277   7.939   0.968
46542W        W18268  36.606   0.746   4.588
46543W        W18269   3.796  41.074   3.368
46544W        W18270  37.558  25.600  13.186
46545W        W18271  31.143  41.929   5.075
46546W        W18272  43.472  14.153  10.769
46547W        W18273  17.233  31.403  11.543
46548W        W18274  31.304  11.146   3.608
46549W        W18275   9.973  17.188   0.634
46550W        W18276  25.232  21.141   4.996
46551W        W18277  33.938  10.457   2.193
46552W        W18278  17.928   1.199  14.533
46553W        W18279  22.183  26.296   2.741
46554W        W18280  38.432  12.691  11.178
46555W        W18281   1.765  44.227   4.554
46556W        W18282  14.309  27.672   1.752
46557W        W18283  30.035   6.487  14.262
46558W        W18284  33.197   2.834   3.644
46559W        W18285  10.348  44.685  13.099
46560W        W18286  15.783  29.292   1.291
46561W        W18287   2.504  27.625  11.570
46562W        W18288  13.546  38.937  11.387
46563W        W18289  14.263  41.474  13.222
46564W        W18290  29.912  40.024   4.169
46565W        W18291  30.455  24.273   0.391
46566W        W18292   9.875  40.579  10.401
46567W        W18293  16.736  17.816  13.159
46568W        W18294  37.459  32.843   0.669
46569W        W18295  34.410  13.621  14.802
46570W        W18296  28.334  19.651   0.505
46571W        W18297   1.452   7.205  14.888
46572W        W18298   9.961  30.112  10.499
46573W        W18299   8.268  43.273  14.119
46574W        W18300  36.901  14.456   2.302
46575W        W18301  28.379  33.910  12.877
46576W        W18302   2.810  37.574  14.748
46577W        W18303  11.520  19.027  13.337
46578W        W18304  37.514   8.867  10.409
46579W        W18305   8.012  26.137   4.773
46580W        W18306  10.419  18.690  12.100
46581W        W18307  27.457  41.953   3.929
46582W        W18308  39.064   3.878   1.405
46583W        W18309  19.729  10.638  12.944
46584W        W18310   7.839   6.784  12.432
46585W        W18311  10.571  32.979  10.358
46586W        W18312  16.499  13.293   0.464
46587W        W18313  19.203   9.224  13.108
46588W        W18314  16.042  18.100   3.587
46589W        W18315  30.307  22.115  13.535
46590W        W18316   0.922  30.645   0.223
46591W        W18317  21.240   7.633  14.939
46592W        W18318  31.510   2.356   3.093
46593W        W18319  12.158  41.553   3.456
46594W        W18320   4.242  12.650  13.165
46595W        W18321  36.054  12.841   4.696
46596W        W18322   5.695  28.767   3.075
46597W        W18323  44.400  16.925   0.388
46598W        W18324  13.644  43.921   0.991
46599W        W18325  40.691  43.271  13.001
46600W        W18326  19.684   8.795  10.645
46601W        W18327   0.007  22.025  10.574
46602W        W18328  26.625  24.942   2.739
46603W        W18329  32.364   4.230   0.285
46604W        W18330  17.767   7.649   0.101
46605W        W18331   9.552  36.174  10.659
46606W        W18332  29.637   4.610  14.434
46607W        W18333  10.879  35.294  10.442
46608W        W18334   7.958   9.807  12.456
46609W        W18335  21.071  30.716  11.764
46610W        W18336  14.986   8.766  14.457
46611W        W18337  36.297  23.645  14.010
46612W        W18338  30.005  13.757   2.305
46613W        W18339  30.328  33.538   1.701
46614W        W18340  10.702   7.597   2.643
46615W        W18341  17.169  21.043   1.913
46616W        W18342  10.901  19.122   1.410
46617W        W18343  41.005   9.624  12.077
46618W        W18344  25.442  33.194  13.000
46619W        W18345  29.196  12.808   2.548
46620W        W18346  38.246   3.977  11.853
46621W        W18347  16.803  10.238   3.129
46622W        W18348  34.487  37.788   0.288
46623W        W18349  27.731   8.821   2.812
46624W        W18350   5.895   2.582  11.015
46625W        W18351  24.222  40.535  13.699
46626W        W18352  12.780  11.405  11.535
46627W        W18353   2.841  24.044  12.014
46628W        W18354  28.181   6.971  12.910
46629W        W18355  18.862   5.274  14.774
46630W        W18356  31.898  34.498  11.250
46631W        W18357   1.232   5.281   0.235
46632W        W18358   7.102  31.142   1.911
46633W        W18359  22.255  24.023  12.906
46634W        W18360   2.792   5.190   2.831
46635W        W18361   2.777  43.577  13.896
46636W        W18362  19.331  43.246  10.541
46637W        W18363   7.688  29.900  13.920
46638W        W18364  13.427  28.572   4.051
46639W        W18365  39.818  21.234   2.858
46640W        W18366  26.655  13.074  12.963
46641W        W18367  12.149  19.021  12.361
46642W        W18368  31.540  38.769  14.390
46643W        W18369  35.063   3.841   4.314
46644W        W18370  31.870  13.327  10.990
46645W        W18371  15.705  30.007  12.241
46646W        W18372  22.530   4.737  13.983
46647W        W18373   3.310  26.052   2.305
46648W        W18374  21.774  20.713  11.610
46649W        W18375  29.591  27.070  14.899
46650W        W18376   3.777  32.562  10.874
46651W        W18377  40.104  40.934   0.412
46652W        W18378  28.190  24.502   4.625
46653W        W18379   3.378  32.911  12.423
46654W        W18380  27.678  23.621   0.172
46655W        W18381  34.822  37.815   3.326
46656W        W18382  33.611   6.422  14.896
46657W        W18383  37.014   4.746  14.711
46658W        W18384  43.310  36.844  10.777
46659W        W18385  24.632  28.710   0.872
46660W        W18386  16.816  26.472   2.678
46661W        W18387  36.872  28.801  14.008
46662W        W18388   5.150  30.681   3.847
46663W        W18389  39.055  16.762  10.606
46664W        W18390  13.294  27.772   1.224
46665W        W18391   4.663  13.434  14.328
46666W        W18392  40.828  33.395  10.612
46667W        W18393  39.844   8.850   4.126
46668W        W18394   2.456  13.121   1.337
46669W        W18395  26.958  13.043   0.928
46670W        W18396  27.462   2.697   4.272
46671W        W18397  30.548   6.382  10.498
46672W        W18398  30.686  31.615   1.959
46673W        W18399   6.855  41.955   0.398
46674W        W18400  19.226  18.192  11.178
46675W        W18401  32.515  27.049  10.636
46676W        W18402   3.720  25.075  14.010
46677W        W18403   4.833  17.601  13.369
46678W        W18404  12.728  24.929  11.111
46679W        W18405   7.369  15.110  11.948
46680W        W18406  22.436  26.695   1.745
46681W        W18407   1.785  22.170  11.580
46682W        W18408  39.015  43.981  10.706
46683W        W18409  17.694  15.796   1.930
46684W        W18410  17.858  15.223   2.323
46685W        W18411  14.188   7.126   4.092
46686W        W18412   2.127  26.669   3.296
46687W        W18413   5.751  26.754  13.916
46688W        W18414  33.753   9.266   2.564
46689W        W18415  38.502  17.692  14.557
46690W        W18416  35.977  10.625   2.900
46691W        W18417  44.019  35.909  13.565
46692W        W18418  25.626  33.388   1.697
46693W        W18419  33.813  21.979  14.359
46694W        W18420   0.930  12.842   0.452
46695W        W18421   1.210   5.163  13.392
46696W        W18422  16.654  16.164   3.367
46697W        W18423  25.911  19.035   3.728
46698W        W18424  40.402   4.968   0.864
46699W        W18425  43.120  29.434   1.642
46700W        W18426  28.107  10.223   4.140
46701W        W18427  11.567  29.965   4.202
46702W        W18428  41.418  31.651   3.571
46703W        W18429  32.162  34.047   3.690
46704W        W18430  41.877  25.057  12.030
46705W        W18431  44.346  40.591  13.683
46706W        W18432  29.592   0.491   0.301
46707W        W18433  16.716  32.394   0.171
46708W        W18434  30.590  18.424   0.242
46709W        W18435   1.484   1.494   1.202
46710W        W18436  15.530  32.472  11.097
46711W        W18437  22.204  39.470  13.214
46712W        W18438  30.016  43.000  14.600
46713W        W18439  40.838  24.016  14.757
46714W        W18440  20.266  21.468   4.670
46715W        W18441  39.315  36.349  11.943
46716W        W18442  39.148  44.648   5.048
46717W        W18443  16.192  31.516   4.687
46718W        W18444  35.531  18.568   3.367
46719W        W18445  17.745   6.242   0.856
46720W        W18446  38.400  28.939   0.205
46721W        W18447  42.435  31.036  11.681
46722W        W18448   2.169  23.713   4.165
46723W        W18449  16.308  11.165   0.769
46724W        W18450  22.969  33.641   1.675
46725W        W18451  15.756  39.074  12.084
46726W        W18452  17.433   2.397  10.696
46727W        W18453  33.647  27.054  13.358
46728W        W18454  27.706   8.177   4.470
46729W        W18455  16.870   9.606  11.480
46730W        W18456  12.156  33.275  12.891
46731W        W18457  29.544  14.816  14.369
46732W        W18458   7.356  25.697  14.465
46733W        W18459   3.858   0.839   0.834
46734W        W18460  18.667   9.416   1.374
46735W        W18461  39.916   5.303  10.727
46736W        W18462   3.837  44.311  12.481
46737W        W18463  44.026   5.622  14.263
46738W        W18464  35.120  24.619   0.030
46739W        W18465   0.940  26.591  12.075
46740W        W18466  13.139  20.209   1.256
46741W        W18467  32.572  32.492   0.031
46742W        W18468   5.857   6.740   2.203
46743W        W18469  41.810  17.591  11.956
46744W        W18470  30.098  42.293  11.628
46745W        W18471  19.841  12.199   0.787
46746W        W18472  42.103  40.198   2.205
46747W        W18473  18.708  19.335  14.564
46748W        W18474  44.060  27.236   0.428
46749W        W18475   3.432  21.756   0.440
46750W        W18476  19.441   3.735   4.595
46751W        W18477  28.622  24.452  11.114
46752W        W18478  19.315  21.606   4.705
46753W        W18479  36.194  44.255   0.482
46754W        W18480  26.992  23.287   4.237
46755W        W18481  37.582  26.622   1.756
46756W        W18482  16.064  13.466  11.570
46757W        W18483  14.267   4.921  11.944
46758W        W18484   1.510  26.032  11.174
46759W        W18485  38.882  30.602   1.367
46760W        W18486  42.342  20.022  10.631
46761W        W18487  20.485  30.928   1.442
46762W        W18488  27.200   8.694  13.310
46763W        W18489  30.452  28.131  12.970
46764W        W18490  32.825  35.894   4.434
46765W        W18491  33.788  36.184   0.378
46766W        W18492  38.603   2.656   4.252
46767W        W18493  41.812  14.314  12.004
46768W        W18494  43.574  20.009   0.796
46769W        W18495  31.848  17.688   0.857
46770W        W18496  11.157  36.321   1.443
46771W        W18497  44.816   7.813   1.829
46772W        W18498  39.057   8.764   1.244
46773W        W18499  29.410  12.352  12.526
46774W        W18500  19.276  30.336   1.839
46775W        W18501   9.148  44.692   3.132
46776W        W18502  28.687  42.799  11.926
46777W        W18503  17.040  26.186   4.753
46778W        W18504  26.274  28.104   3.809
46779W        W18505  41.019  33.923  10.537
46780W        W18506  22.118  27.086   2.206
46781W        W18507  44.113   8.782  12.974
46782W        W18508  25.632  40.533   3.759
46783W        W18509  42.834  29.085  12.320
46784W        W18510   7.238  23.415  14.711
46785W        W18511   1.754  13.211   3.204
46786W        W18512  23.139  21.309  14.928
46787W        W18513  44.681  16.639  11.610
46788W        W18514  42.019   0.939   0.944
46789W        W18515  12.682  10.349   0.846
46790W        W18516  13.121  19.638   4.631
46791W        W18517  37.929   3.198   3.314
46792W        W18518  34.657  30.471  10.520
46793W        W18519   4.276  10.800  14.976
46794W        W18520  28.237  11.322  14.039
46795W        W18521  12.805  13.658   0.852
46796W        W18522  28.063  21.218  10.792
46797W        W18523   3.448   3.153   1.202
46798W        W18524  17.516  42.936   2.713
46799W        W18525  28.976  25.043   4.077
46800W        W18526   3.361  41.805   0.779
46801W        W18527  27.394  33.583   2.923
46802W        W18528  38.652  44.319   1.049
46803W        W18529  22.714  22.282   4.112
46804W        W18530  36.187  41.975  11.495
46805W        W18531  34.987  22.254  11.825
46806W        W18532  15.015  37.057   0.884
46807W        W18533  42.016  34.702  11.111
46808W        W18534  26.844  34.626  14.009
46809W        W18535  29.051  43.034   1.453
46810W        W18536  20.613  43.001  10.730
46811W        W18537  12.603   4.719   2.306
46812W        W18538   0.500  33.361  11.563
46813W        W18539  20.508  30.901  14.031
46814W        W18540  40.362  24.094  14.573
46815W        W18541  17.341  14.658  12.915
46816W        W18542  38.464  36.052  13.854
46817W        W18543  21.236  30.628  11.293
46818W        W18544  34.974   8.275  13.499
46819W        W18545  37.245  26.584  12.861
46820W        W18546  32.067  32.147   0.908
46821W        W18547   7.690   3.776  11.534
46822W        W18548  44.869  27.439  13.872
46823W        W18549   7.273  17.483  12.023
46824W        W18550  20.414   0.475   2.897
46825W        W18551  44.841  38.055  11.198
46826W        W18552  29.083   2.507   0.870
46827W        W18553  26.693   9.344   1.441
46828W        W18554   0.849  41.508   3.179
46829W        W18555  26.021  25.760  10.674
46830W        W18556  32.667   0.482   1.918
46831W        W18557  24.540  44.411   1.858
46832W        W18558  19.659  23.153   4.404
46833W        W18559  19.426  37.430  11.066
46834W        W18560  27.689  33.626   4.787
46835W        W18561   9.399  43.010   4.329
46836W        W18562  10.843  13.166   0.437
46837W        W18563  35.363  16.413  12.014
46838W        W18564  26.988  33.347   2.711
46839W        W18565   8.689  28.405   3.174
46840W        W18566  41.943  19.786   0.292
46841W        W18567  15.698   1.719  14.873
46842W        W18568   1.140  16.669  13.765
46843W        W18569  38.827  29.650   1.456
46844W        W18570  27.560   4.854  11.628
46845W        W18571  35.946  28.986  10.751
46846W        W18572   9.249  12.112  11.787
46847W        W18573  19.921  36.632   4.223
46848W        W18574  14.694  10.841  13.601
46849W        W18575  22.265  25.896  13.057
46850W        W18576  15.236  21.967  14.018
46851W        W18577  19.040  12.674   0.855
46852W        W18578  40.890  44.229  14.475
46853W        W18579  23.991   6.868  14.556
46854W        W18580  30.948  39.283   3.706
46855W        W18581   8.121  29.012  12.589
46856W        W18582  38.837   6.744  11.455
46857W        W18583  27.176  17.837   4.028
46858W        W18584   0.974  21.632   3.254
46859W        W18585  36.435  42.972  11.210
46860W        W18586  41.752   0.748  10.766
46861W        W18587  31.654   4.702  12.016
46862W        W18588  12.267  11.300   2.849
46863W        W18589  41.403   2.202   3.603
46864W        W18590  17.125  44.567   3.148
46865W        W18591  41.983   1.491   3.190
46866W        W18592  13.073   9.956   0.881
46867W        W18593  38.471  25.581  13.256
46868W        W18594  21.225  36.091  10.336
46869W        W18595  20.339  12.866   3.185
46870W        W18596  19.038   7.229   4.538
46871W        W18597  22.673   9.115   3.197
46872W        W18598   9.383  38.270  11.976
46873W        W18599  39.492   3.806   2.623
46874W        W18600  33.030  41.072  13.437
46875W        W18601  14.827  36.071  13.926
46876W        W18602   7.166  12.446   4.954
46877W        W18603  33.948  11.059  10.640
46878W        W18604  33.824  33.034  10.626
46879W        W18605  17.943  16.108  14.817
46880W        W18606   0.348  15.656  10.783
46881W        W18607  44.799   8.807   0.363
46882W        W18608  20.312  42.507   2.622
46883W        W18609  13.057  18.925  11.410
46884W        W18610   8.824  42.506  11.945
46885W        W18611  20.765  36.866  14.273
46886W        W18612   1.299  43.427   4.699
46887W        W18613  27.690  44.904  12.866
46888W        W18614  28.129  16.016  11.670
46889W        W18615  43.815  18.202   4.510
46890W        W18616  25.141  38.868   3.646
46891W        W18617  34.314   2.908  13.463
46892W        W18618  11.236   1.021   1.218
46893W        W18619  23.259  14.581  13.654
46894W        W18620  11.804  24.863  11.179
46895W        W18621   8.378  17.831   4.663
46896W        W18622  36.829  23.137  12.635
46897W        W18623  16.872  34.683  11.895
46898W        W18624  15.237  30.315  12.504
46899W        W18625  25.839  30.802   4.275
46900W        W18626  33.921   6.428   4.257
46901W        W18627   2.017  18.142  12.444
46902W        W18628   2.342  33.924  12.979
46903W        W18629  38.115  27.975  13.608
46904W        W18630  15.363  11.466   0.001
46905W        W18631   5.170  16.310   3.619
46906W        W18632  39.194  19.736   1.643
46907W        W18633   3.190   2.406   3.218
46908W        W18634  14.481  37.629   5.020
46909W        W18635  36.956  31.779   4.043
46910W        W18636  10.044  15.578  11.203
46911W        W18637  31.567   0.720  13.463
46912W        W18638  31.157  30.280  11.685
46913W        W18639  23.838  12.586  11.186
46914W        W18640  25.939  41.577   0.245
46915W        W18641  28.102  11.039  10.671
46916W        W18642  10.106  40.846  11.971
46917W        W18643  32.112  28.701   0.747
46918W        W18644  25.137   1.566   4.709
46919W        W18645  43.040  20.125  12.056
46920W        W18646  25.531   6.824  13.601
46921W        W18647  12.525  16.096  14.654
46922W        W18648  18.839   6.697  12.484
46923W        W18649   8.366   0.755   0.836
46924W        W18650   5.129  18.990  12.007
46925W        W18651  30.576  11.717  12.894
46926W        W18652  33.144  39.341  13.464
46927W        W18653  42.482   4.274  11.942
46928W        W18654  11.847  21.640  13.518
46929W        W18655  18.695  18.403   2.226
46930W        W18656   0.188  11.466   2.162
46931W        W18657  19.080   2.235   4.331
46932W        W18658  37.601  12.684   2.788
46933W        W18659  10.511  28.874  10.593
46934W        W18660   8.338  42.927  12.840
46935W        W18661  26.403  40.877  12.136
46936W        W18662  23.925  34.166  13.013
46937W        W18663  34.096  26.918  13.074
46938W        W18664  41.408  19.153   3.206
46939W        W18665  40.942  22.129  12.155
46940W        W18666  31.108  20.815  10.878
46941W        W18667  22.963   8.351   0.923
46942W        W18668   2.912  42.198  11.133
46943W        W18669  27.923  10.611  11.955
46944W        W18670  43.911  22.536  13.283
46945W        W18671  38.028  15.846   2.814
46946W        W18672  21.020  38.952   2.284
46947W        W18673  41.602  11.627  11.897
46948W        W18674  14.734  18.724  14.878
46949W        W18675  14.587  16.174   3.533
46950W        W18676   5.737   9.854  13.112
46951W        W18677  22.952  15.086   3.170
46952W        W18678  13.130  39.944   2.683
46953W        W18679  20.479  12.514  12.108
46954W        W18680   5.304   2.340  11.551
46955W        W18681  17.065  13.399  10.760
46956W        W18682  32.879  18.713   4.757
46957W        W18683  23.577  29.596   0.465
46958W        W18684  18.034   7.479   2.252
46959W        W18685  25.917   5.528  13.201
46960W        W18686  22.667  28.850  13.594
46961W        W18687  31.487  30.215   4.395
46962W        W18688  22.407   6.724  12.678
46963W        W18689  37.037  39.242  12.062
46964W        W18690  12.288  15.552  11.625
46965W        W18691  25.956  23.540   3.365
46966W        W18692  25.847  14.106  13.896
46967W        W18693   2.241   5.354  13.506
46968W        W18694  35.965  32.001   4.274
46969W        W18695  43.594   2.001   4.276
46970W        W18696  23.480  44.362   3.247
46971W        W18697   7.866   2.874  13.878
46972W        W18698  34.852  35.919   2.471
46973W        W18699  12.821  37.240  14.940
46974W        W18700  11.230  32.875   1.782
46975W        W18701   7.370  22.486   3.697
46976W        W18702   4.434  41.258  12.954
46977W        W18703   8.752   3.480  10.347
46978W        W18704  21.413  30.875  13.840
46979W        W18705  43.045  12.927   0.492
46980W        W18706  29.052  41.483   0.313
46981W        W18707  10.900  22.477  10.655
46982W        W18708  41.497   6.502  10.639
46983W        W18709  11.186  26.113   3.643
46984W        W18710  16.511  21.091   4.520
46985W        W18711  34.804  18.310  13.364
46986W        W18712  30.296  36.888   1.792
46987W        W18713  39.875   0.036   0.910
46988W        W18714  25.005  29.220   3.700
46989W        W18715   1.013  17.367  12.028
46990W        W18716  20.066  31.982  10.803
46991W        W18717  21.475  21.598   0.709
46992W        W18718   3.917  32.914  14.039
46993W        W18719  18.287   9.274   2.797
46994W        W18720   8.609  41.405   0.508
46995W        W18721  33.114   1.208   3.321
46996W        W18722  22.343  31.046  13.443
46997W        W18723  42.733  23.666   2.182
46998W        W18724   2.001  36.609  12.497
46999W        W18725  42.055  39.100   3.789
47000W        W18726  14.225   4.924  11.432
47001W        W18727  42.680   7.822  10.599
47002W        W18728  35.648  11.824   4.585
47003W        W18729  27.997  10.739  12.451
47004W        W18730  38.356  10.767  14.306
47005W        W18731  30.464   0.376   3.872
47006W        W18732  44.969  21.271  11.055
47007W        W18733   3.693  23.743  13.997
47008W        W18734  25.239  19.196  14.345
47009W        W18735  28.463   8.380  12.178
47010W        W18736   6.047  35.445   4.870
47011W        W18737  12.137   3.647   1.261
47012W        W18738  11.806  39.052   3.317
47013W        W18739  22.189   9.369   4.517
47014W        W18740  37.171  34.041  14.454
47015W        W18741  25.164  24.458  12.986
47016W        W18742  20.759  37.857  14.954
47017W        W18743  13.945  25.707  10.800
47018W        W18744  36.807  13.212   0.936
47019W        W18745  25.967  18.509  11.457
47020W        W18746  32.643  16.738  11.880
47021W        W18747  11.263   7.759  13.306
47022W        W18748  39.105  21.171   2.381
47023W        W18749  39.396  41.501   2.479
47024W        W18750  40.308  40.279  14.059
47025W        W18751  38.591   1.644   3.420
47026W        W18752  31.540  10.937  14.225
47027W        W18753  27.633  28.646  10.632
47028W        W18754   8.699  15.698   3.585
47029W        W18755  36.054  22.683  12.540
47030W        W18756  11.263  14.087   1.105
47031W        W18757   0.043  17.766  13.321
47032W        W18758  27.043  13.849   0.331
47033W        W18759  30.669  23.082  11.569
47034W        W18760  17.795  33.460  11.467
47035W        W18761   1.005   7.172   2.182
47036W        W18762  32.677  12.661   4.421
47037W        W18763  26.904   8.105   2.657
47038W        W18764   0.194  41.847   2.944
47039W        W18765  16.478  23.705   1.161
47040W        W18766  30.551   5.966  14.003
47041W        W18767  29.461  10.753   3.178
47042W        W18768  27.583  40.999   3.126
47043W        W18769  17.374  34.920   1.382
47044W        W18770  14.556   4.336  10.379
47045W        W18771  42.552   5.634   1.895
47046W        W18772  31.621  37.562   3.736
47047W        W18773  41.078  24.709  11.232
47048W        W18774   1.275  11.129   3.837
47049W        W18775  27.363  33.343  10.965
47050W        W18776  18.099   7.302   3.625
47051W        W18777  32.062  25.456  14.448
47052W        W18778  14.632  22.506  11.218
47053W        W18779   1.706  28.133   3.707
47054W        W18780  31.891  12.817  10.999
47055W        W18781  11.047  39.049  11.065
47056W        W18782  18.226   9.681  13.357
47057W        W18783   9.558  26.038  11.526
47058W        W18784  30.141  20.119   0.689
47059W        W18785  11.569  23.395  11.957
47060W        W18786  19.597  34.392  12.423
47061W        W18787  26.026  14.601   0.026
47062W        W18788  19.147   0.105  11.668
47063W        W18789   1.872  30.347   4.808
47064W        W18790  31.608  35.905   0.058
47065W        W18791  26.973  42.101   5.064
47066W        W18792  44.911   2.368   1.819
47067W        W18793   1.869   8.320  13.538
47068W        W18794  42.502  35.462   0.177
47069W        W18795  13.858  19.287  14.868
47070W        W18796  42.545  12.730   1.302
47071W        W18797  40.036  25.077   1.007
47072W        W18798  37.447   2.440  12.921
47073W        W18799  35.932  26.517  11.498
47074W        W18800  22.909  28.244   5.580
47075W        W18801  35.048   7.920  12.120
47076W        W18802  11.524   2.004   2.592
47077W        W18803  43.537   9.410   2.763
47078W        W18804  13.333  12.784   1.905
47079W        W18805  27.073  10.235   3.838
47080W        W18806   2.156  33.147  13.913
47081W        W18807   5.173  33.124   3.809
47082W        W18808  22.191  20.154   4.278
47083W        W18809  43.318  30.058  14.394
47084W        W18810  44.318   3.939  11.610
47085W        W18811  39.240  20.329  11.917
47086W        W18812  29.066  25.015   3.547
47087W        W18813  31.986   0.323   1.221
47088W        W18814  37.789  16.235   3.099
47089W        W18815  31.541  32.031  12.938
47090W        W18816  21.635  36.256  10.650
47091W        W18817   7.890  34.572   3.124
47092W        W18818  23.582   0.793   5.071
47093W        W18819   8.430   9.437   0.789
47094W        W18820  27.975  37.827   2.666
47095W        W18821  30.098  39.158   0.774
47096W        W18822  39.903  31.568  12.103
47097W        W18823  15.318  39.314  11.435
47098W        W18824  33.193  29.445   3.241
47099W        W18825   7.382  30.751   2.216
47100W        W18826  21.523  11.319  10.652
47101W        W18827  32.497  28.067  13.349
47102W        W18828   4.439  17.247  13.379
47103W        W18829  30.529  23.283  14.900
47104W        W18830  43.950  10.234  10.402
47105W        W18831   3.358  16.768  14.332
47106W        W18832  22.818  18.604  13.540
47107W        W18833  18.231   3.725  12.308
47108W        W18834  42.134  23.562   3.658
47109W        W18835  16.639  29.184   1.269
47110W        W18836  17.056  39.027  10.429
47111W        W18837  27.523  28.001   1.602
47112W        W18838   5.230   3.380   4.593
47113W        W18839  35.576  18.262   3.798
47114W        W18840  42.980  19.103   3.934
47115W        W18841  10.774   4.843   2.433
47116W        W18842  19.674  23.516  11.451
47117W        W18843  23.148  31.979   4.154
47118W        W18844  25.385  29.948   3.269
47119W        W18845  23.042   1.779  14.314
47120W        W18846  25.316  25.556  14.407
47121W        W18847  42.592  40.434  12.473
47122W        W18848   1.769   0.584   4.462
47123W        W18849   2.228  34.431   1.805
47124W        W18850   1.719  19.513  12.374
47125W        W18851  40.304  15.084   0.705
47126W        W18852   6.222  29.503   1.884
47127W        W18853  33.440  11.359  13.963
47128W        W18854  38.639  37.286   2.375
47129W        W18855  35.511  38.563  13.486
47130W        W18856  19.222  40.259  13.390
47131W        W18857  14.175   7.440   3.672
47132W        W18858   0.415  11.734  12.920
47133W        W18859  34.046  38.324  12.422
47134W        W18860  25.697  39.711   2.646
47135W        W18861  43.314  30.247   4.229
47136W        W18862  13.434  31.046  14.949
47137W        W18863   1.745  16.386   2.698
47138W        W18864  14.862  21.703  10.644
47139W        W18865  37.977  37.051  11.917
47140W        W18866   2.656  39.200  13.312
47141W        W18867  39.579  24.190   2.320
47142W        W18868  29.579   2.455  14.341
47143W        W18869  35.533  27.720  14.043
47144W        W18870  17.829   0.273  11.557
47145W        W18871   4.172  25.169   3.818
47146W        W18872  23.301  10.092   0.400
47147W        W18873   4.873  30.873  11.935
47148W        W18874  31.525   8.149  13.681
47149W        W18875  19.208   5.792  13.883
47150W        W18876   1.304  28.576   4.911
47151W        W18877  36.410  16.341   3.679
47152W        W18878   5.992  25.702   0.408
47153W        W18879   6.785  38.843  14.414
47154W        W18880  38.851   2.831   2.860
47155W        W18881   1.029  35.903  11.982
47156W        W18882  24.173  25.523   4.651
47157W        W18883  35.605  43.839  13.002
47158W        W18884  36.429   0.034  12.112
47159W        W18885  20.527  39.539  12.444
47160W        W18886   9.460  30.035  11.570
47161W        W18887   6.325  18.160   2.391
47162W        W18888   8.842  26.456   0.805
47163W        W18889   6.830  35.095  11.012
47164W        W18890   9.394  20.973  14.280
47165W        W18891  12.353   7.399   2.975
47166W        W18892   0.225  39.856   0.290
47167W        W18893   8.730  14.791   3.724
47168W        W18894   4.971   0.824  12.793
47169W        W18895  27.984  39.111  12.969
47170W        W18896   5.441  43.684   3.326
47171W        W18897  20.625  15.990  14.511
47172W        W18898   3.428   4.782  13.305
47173W        W18899  27.304   1.926  10.612
47174W        W18900   7.234  10.696   3.512
47175W        W18901  40.015  14.192  12.841
47176W        W18902   1.444   2.146   0.455
47177W        W18903  14.469  25.424  13.475
47178W        W18904  43.467  44.467   4.720
47179W        W18905   9.759  27.656   3.131
47180W        W18906  41.387  26.930   3.258
47181W        W18907  41.526  14.401  10.612
47182W        W18908   7.478  23.752   9.985
47183W        W18909  21.268  20.609  13.387
47184W        W18910  10.865  19.527   0.824
47185W        W18911  35.261  31.053  14.064
47186W        W18912   8.388   8.669  14.896
47187W        W18913   8.154  19.510   5.005
47188W        W18914   5.464  44.289  14.022
47189W        W18915   0.863  25.864  12.552
47190W        W18916  43.815  32.373  12.088
47191W        W18917  21.881  13.437   0.526
47192W        W18918  33.981  23.800  13.885
47193W        W18919  44.468  17.216  12.466
47194W        W18920  36.905   5.835  10.669
47195W        W18921  35.960  31.629  11.595
47196W        W18922  22.994  33.949  10.385
47197W        W18923  31.154  31.893  10.636
47198W        W18924   3.438  25.616   0.370
47199W        W18925  35.390  18.985  11.251
47200W        W18926  37.796  12.135  13.589
47201W        W18927  21.050  41.441  10.005
47202W        W18928  22.248   0.025   4.692
47203W        W18929  24.638  43.910   0.412
47204W        W18930  38.318  43.863  11.047
47205W        W18931  15.354  16.494  13.218
47206W        W18932   8.661  25.197  10.557
47207W        W18933  39.421  43.794   1.869
47208W        W18934   3.381   0.740   4.674
47209W        W18935  10.073  10.886   1.553
47210W        W18936  41.659  34.847  12.967
47211W        W18937  22.498  32.246  13.218
47212W        W18938  10.585  16.056   2.390
47213W        W18939  33.911  16.309  10.919
47214W        W18940  18.821   3.327   1.811
47215W        W18941   8.570  14.756   2.339
47216W        W18942   9.189  20.903   9.941
47217W        W18943  13.388  11.424  14.911
47218W        W18944  35.529  27.875  12.003
47219W        W18945  42.247  29.100  11.094
47220W        W18946  38.814  39.816   3.783
47221W        W18947  41.442  15.324  10.985
47222W        W18948  35.616   6.016  13.835
47223W        W18949  38.314  10.310  12.373
47224W        W18950  19.690  22.662   4.547
47225W        W18951  16.054  28.928   9.882
47226W        W18952   6.631  14.477   0.007
47227W        W18953  43.909   4.758  14.838
47228W        W18954  24.282   5.811   0.432
47229W        W18955  15.768  23.296   4.936
47230W        W18956  43.415   2.225  11.907
47231W        W18957   2.984  40.540  13.036
47232W        W18958  31.139  21.742   4.175
47233W        W18959  31.160   6.704  10.900
47234W        W18960  36.362  44.281   1.480
47235W        W18961   6.371  10.927   4.087
47236W        W18962   4.677   6.847   4.674
47237W        W18963  42.057   6.492   2.871
47238W        W18964   7.181  17.302   0.493
47239W        W18965  22.515   5.677  14.983
47240W        W18966   5.362  31.176  14.545
47241W        W18967  13.362  29.067  13.918
47242W        W18968  39.537   7.376  14.828
47243W        W18969  28.017  26.931  10.702
47244W        W18970  17.875   0.499  11.088
47245W        W18971  38.954  25.426  12.515
47246W        W18972  39.849  38.822   1.860
47247W        W18973  15.459  15.674  11.179
47248W        W18974  18.284  29.826   4.148
47249W        W18975  40.514  34.600   0.461
47250W        W18976  35.457  36.746  12.892
47251W        W18977  22.594  13.843   1.455
47252W        W18978  38.448  12.879  13.846
47253W        W18979  30.992   8.827  12.400
47254W        W18980   9.291   0.243  11.735
47255W        W18981  25.009  23.634  14.389
47256W        W18982  21.468  17.531  11.045
47257W        W18983  29.620  26.709   3.713
47258W        W18984  11.634   4.881  13.057
47259W        W18985  18.589   2.916   2.153
47260W        W18986   2.236  41.546   0.249
47261W        W18987  25.631  16.242  11.532
47262W        W18988  19.254  43.833  12.759
47263W        W18989  24.031  41.282  14.755
47264W        W18990  43.036   3.364  11.666
47265W        W18991  37.364  26.461   2.787
47266W        W18992  37.795  35.810   1.188
47267W        W18993  22.103   2.718  12.145
47268W        W18994  25.268  31.437  13.997
47269W        W18995  43.008  16.312   1.781
47270W        W18996  41.384  27.351  11.629
47271W        W18997   0.307  41.578  13.707
47272W        W18998  24.193  18.057   3.602
47273W        W18999  14.317  19.029  14.881
47274W        W19000  24.455  43.846   3.593
47275W        W19001  33.456  26.497   0.404
47276W        W19002  16.388  21.588   3.108
47277W        W19003  29.499  17.135   1.765
47278W        W19004  27.743   0.768  11.667
47279W        W19005  17.405  10.635   2.816
47280W        W19006  16.626  20.864   3.667
47281W        W19007  17.006   4.270  11.555
47282W        W19008  22.999  37.973   2.365
47283W        W19009  29.410  40.598   3.087
47284W        W19010  35.145   3.751  12.224
47285W        W19011  15.331  23.773   2.913
47286W        W19012   0.714  33.987   3.662
47287W        W19013  30.617  40.309  12.480
47288W        W19014  25.516  19.183  10.671
47289W        W19015  30.494   6.331  11.008
47290W        W19016   3.477  19.313   0.442
47291W        W19017  13.533  20.009   0.265
47292W        W19018  34.487  35.003   1.713
47293W        W19019  44.463   4.898   2.341
47294W        W19020  37.302  28.061   4.597
47295W        W19021  18.471  14.256  12.241
47296W        W19022  21.110  15.370  14.105
47297W        W19023  18.060  23.147   0.215
47298W        W19024  31.086  26.276  14.616
47299W        W19025  44.729  11.419   4.624
47300W        W19026  20.119  33.955  12.963
47301W        W19027   0.564  16.056  13.359
47302W        W19028  39.324  15.338  13.524
47303W        W19029   3.837  28.147   2.727
47304W        W19030  14.750  13.266   0.971
47305W        W19031  35.637  24.923   0.950
47306W        W19032  16.097  29.680  11.037
47307W        W19033  42.800  44.812   3.110
47308W        W19034  42.354   4.418  10.416
47309W        W19035  37.459  25.456  14.259
47310W        W19036   4.895  23.289   2.891
47311W        W19037  25.883  36.929   4.169
47312W        W19038   7.698   0.823  14.459
47313W        W19039  42.828  37.355  13.306
47314W        W19040  35.241  40.444   3.702
47315W        W19041  11.103   8.811   1.916
47316W        W19042  37.026  13.138   1.910
47317W        W19043  19.791  12.590  10.756
47318W        W19044  28.391  44.783  14.214
47319W        W19045  32.375  43.115   1.402
47320W        W19046  11.734  28.194   2.702
47321W        W19047  32.674   5.220  12.444
47322W        W19048   1.320  12.759  14.862
47323W        W19049   0.534   7.756   0.003
47324W        W19050  35.405  13.222   3.695
47325W        W19051  28.942  41.377  14.364
47326W        W19052  43.484   8.450  12.531
47327W        W19053  22.564   3.200   3.543
47328W        W19054  18.838   6.812   3.734
47329W        W19055  41.062  22.681  14.322
47330W        W19056  43.959  25.130  11.986
47331W        W19057  22.711  26.343   2.617
47332W        W19058  33.197  40.586  13.353
47333W        W19059  16.897  27.223  12.099
47334W        W19060  44.705   5.689   9.924
47335W        W19061  25.795  35.243   1.846
47336W        W19062   5.610  35.794  11.399
47337W        W19063  43.299  13.695   4.079
47338W        W19064   5.717   2.546   4.893
47339W        W19065   5.010  40.811  11.970
47340W        W19066  26.596  44.445  14.814
47341W        W19067  10.795  38.932  10.504
47342W        W19068   7.960  35.999  12.822
47343W        W19069  33.795  20.785  14.456
47344W        W19070  27.026   5.418   4.900
47345W        W19071  31.067  40.034  12.443
47346W        W19072  28.725  29.137  12.789
47347W        W19073  39.840  30.161  13.349
47348W        W19074  34.969  23.367  10.337
47349W        W19075  43.265  30.867  10.281
47350W        W19076  36.074  11.542   1.785
47351W        W19077  20.497   0.341   3.931
47352W        W19078   9.265   9.090   1.853
47353W        W19079  17.816  25.498  13.933
47354W        W19080  22.707  11.696  14.935
47355W        W19081  22.972   1.184   3.163
47356W        W19082  16.065  20.244  13.513
47357W        W19083  39.019  32.105   4.545
47358W        W19084   7.866  38.625   4.950
47359W        W19085  37.364  28.615   2.778
47360W        W19086  42.354  28.725  10.708
47361W        W19087  15.827   6.513   2.693
47362W        W19088   2.538  31.656  13.912
47363W        W19089  34.577  38.857  12.844
47364W        W19090  41.062  23.456  11.097
47365W        W19091  27.236   5.191   2.701
47366W        W19092  23.033  39.856   0.454
47367W        W19093  31.441  27.973  14.902
47368W        W19094   8.958  35.627   4.215
47369W        W19095  11.874   9.804   4.143
47370W        W19096  10.986  17.643  10.661
47371W        W19097  35.931  25.609   3.084
47372W        W19098  26.914  18.574   2.004
47373W        W19099  33.510  11.800   0.506
47374W        W19100  41.020  15.286  14.334
47375W        W19101  36.483  12.399   0.167
47376W        W19102  25.540   4.758   4.874
47377W        W19103  42.430   8.286  10.664
47378W        W19104   5.278   3.027   2.671
47379W        W19105   0.695  21.178  11.986
47380W        W19106  29.885  16.264   2.260
47381W        W19107  22.381  29.015  13.996
47382W        W19108  39.180  17.421  13.958
47383W        W19109  29.472  35.857   0.152
47384W        W19110  20.076  42.654  14.955
47385W        W19111  13.209  40.370  13.867
47386W        W19112  14.979  17.235   0.203
47387W        W19113   1.810  28.375  11.158
47388W        W19114   8.742  19.517   1.455
47389W        W19115   1.959  16.564   4.661
47390W        W19116  42.406  14.854   1.501
47391W        W19117  18.982  30.200  13.630
47392W        W19118  22.033  16.118  12.778
47393W        W19119   7.741  26.978   4.305
47394W        W19120  15.101  20.288  12.458
47395W        W19121  44.390  21.353   3.611
47396W        W19122  21.563  19.396   3.979
47397W        W19123  29.951  26.312   3.599
47398W        W19124  10.702   3.868  11.193
47399W        W19125  10.695  29.672   4.551
47400W        W19126  44.908  21.741  12.490
47401W        W19127  42.914  20.174   2.532
47402W        W19128  34.800   4.729   4.238
47403W        W19129  42.956   3.479  13.966
47404W        W19130  30.029   5.706  12.944
47405W        W19131  25.417   0.906  12.456
47406W        W19132   5.835  36.455   2.203
47407W        W19133  24.876  19.072  12.077
47408W        W19134  14.371  21.250   3.710
47409W        W19135   2.162  24.463   3.004
47410W        W19136  20.439  21.639  14.886
47411W        W19137  36.106  40.919   0.280
47412W        W19138  39.819  11.851  14.022
47413W        W19139   7.768  18.642  14.953
47414W        W19140   7.415  29.535  10.832
47415W        W19141  33.473  25.449   1.372
47416W        W19142   8.319   8.493  13.633
47417W        W19143  33.649  35.377  13.990
47418W        W19144  43.797  39.054  10.678
47419W        W19145  26.165   5.382   3.881
47420W        W19146  37.998  17.978  11.660
47421W        W19147   1.388  33.810   0.289
47422W        W19148  17.251  25.077  10.716
47423W        W19149  39.288  10.297   1.646
47424W        W19150  21.656  33.083  14.963
47425W        W19151  10.291  20.521   4.110
47426W        W19152  15.469  20.990   4.644
47427W        W19153   4.412   7.965   4.426
47428W        W19154  28.579  21.116  10.742
47429W        W19155  27.937  16.310  13.381
47430W        W19156  16.387  28.198   2.743
47431W        W19157  17.882  25.036  11.484
47432W        W19158  34.482  21.125  14.553
47433W        W19159  44.426   1.468  13.012
47434W        W19160  15.447  24.149  10.539
47435W        W19161   1.943  24.537   0.385
47436W        W19162  21.233  10.204   0.573
47437W        W19163  14.034  24.259  14.440
47438W        W19164  40.534  26.557   4.138
47439W        W19165  16.136  14.130  13.995
47440W        W19166  42.628   4.826  13.342
47441W        W19167  17.332  28.158   0.958
47442W        W19168   3.484  35.489   0.268
47443W        W19169   3.686  34.048   0.332
47444W        W19170  28.021   1.468   4.933
47445W        W19171  12.528   9.756  14.635
47446W        W19172   8.644  21.271   0.685
47447W        W19173  15.778  11.865  13.879
47448W        W19174  10.437  30.141   2.249
47449W        W19175   7.769   2.354  11.606
47450W        W19176  12.504  35.240  12.887
47451W        W19177   4.644   4.871  12.613
47452W        W19178  21.691  26.411  11.969
47453W        W19179   4.662  28.220  13.027
47454W        W19180  26.688   8.658  13.780
47455W        W19181  21.130  13.152  14.511
47456W        W19182  29.941  31.125  11.549
47457W        W19183  44.491  13.999  11.675
47458W        W19184  12.715  43.503   1.567
47459W        W19185  19.678  10.793  11.045
47460W        W19186  27.456  17.186   1.976
47461W        W19187  38.483  40.416  13.309
47462W        W19188  38.890  14.255   4.944
47463W        W19189  36.703  33.566   4.913
47464W        W19190  16.308  43.448   4.597
47465W        W19191  35.580  10.149   2.140
47466W        W19192   6.122   2.238   2.215
47467W        W19193  26.540  35.927   4.636
47468W        W19194  10.138  24.169  14.702
47469W        W19195  27.072  11.549   0.003
47470W        W19196  15.371   5.092  11.427
47471W        W19197  19.806  31.647  11.664
47472W        W19198   3.439   6.689   4.566
47473W        W19199  28.413   7.236  14.853
47474W        W19200  14.729  22.417  11.748
47475W        W19201  13.321  29.678   3.163
47476W        W19202  12.668  30.487  13.863
47477W        W19203  37.893  34.290  12.312
47478W        W19204  13.680  23.171   3.886
47479W        W19205  43.750   9.281   4.154
47480W        W19206  10.365  40.938  13.863
47481W        W19207  25.237  37.378  14.825
47482W        W19208  29.441   8.666   0.920
47483W        W19209  32.199  15.175   2.956
47484W        W19210  18.524  17.105  14.991
47485W        W19211  31.006  22.670  12.546
47486W        W19212  26.227  21.582  11.146
47487W        W19213  38.027  32.590  13.399
47488W        W19214   7.606   7.775   1.688
47489W        W19215   6.132  41.313   0.975
47490W        W19216  19.047  10.347   0.195
47491W        W19217  38.814  38.398  12.973
47492W        W19218  16.153  25.195   2.771
47493W        W19219   6.422  20.468   1.721
47494W        W19220  11.542  29.981  10.399
47495W        W19221  29.205  17.931   2.524
47496W        W19222  22.303  26.347   2.216
47497W        W19223   9.271  44.563   0.454
47498W        W19224   1.944   2.398   2.708
47499W        W19225  42.385  42.218  11.561
47500W        W19226   9.905  26.604  11.161
47501W        W19227  35.449  11.637  12.875
47502W        W19228  22.223   3.574   1.868
47503W        W19229  21.535   9.626  12.527
47504W        W19230  35.390  21.079   0.756
47505W        W19231  28.495  42.820   3.718
47506W        W19232  23.510   2.413  14.722
47507W        W19233  24.684  30.477   2.851
47508W        W19234  16.337   0.878  13.802
47509W        W19235  11.448   4.315  13.866
47510W        W19236  10.010  18.605  10.779
47511W        W19237  25.759  36.384  12.628
47512W        W19238  23.382  24.893   4.745
47513W        W19239   0.842  19.054   0.594
47514W        W19240   0.696  13.105   2.721
47515W        W19241  23.962   8.391  13.022
47516W        W19242  22.518  15.804  12.070
47517W        W19243  21.775  35.896  11.540
47518W        W19244  43.910   6.598  12.834
47519W        W19245   8.659  32.454   0.877
47520W        W19246  31.538  33.045  12.866
47521W        W19247  11.241  19.897  13.604
47522W        W19248  29.073  39.544   1.663
47523W        W19249  18.657  25.943  11.987
47524W        W19250  34.475  42.480   1.366
47525W        W19251  30.041  13.105  13.475
47526W        W19252   9.817  15.643  14.454
47527W        W19253   3.431  29.041  14.117
47528W        W19254  16.270   4.759   3.384
47529W        W19255  16.574  31.696   1.770
47530W        W19256   6.380  28.999  11.251
47531W        W19257  40.081  17.995   0.791
47532W        W19258  22.986  21.123  13.002
47533W        W19259  11.274   7.035   3.855
47534W        W19260  31.646   1.027   0.374
47535W        W19261   7.943  26.411  10.255
47536W        W19262  42.526  39.978   2.742
47537W        W19263  43.210   7.495   4.756
47538W        W19264  27.772  17.271  12.706
47539W        W19265   3.183  30.688   0.869
47540W        W19266  30.081   9.237   1.311
47541W        W19267  37.785  43.391  13.917
47542W        W19268  25.272  38.144   0.229
47543W        W19269  13.339  38.013  13.899
47544W        W19270  42.097  16.748  10.584
47545W        W19271  25.489  31.089  12.805
47546W        W19272  11.043  43.808  14.315
47547W        W19273   6.453  17.214  10.239
47548W        W19274  20.177  11.301  14.968
47549W        W19275   3.484   5.184  11.981
47550W        W19276  23.952  37.444   3.680
47551W        W19277  42.434  41.241  13.577
47552W        W19278  22.303  27.974   1.669
47553W        W19279  21.606  17.705   1.677
47554W        W19280  41.074  30.912  10.753
47555W        W19281  24.881  27.578   4.651
47556W        W19282   0.924   5.722  11.596
47557W        W19283  25.453  15.114  10.721
47558W        W19284  29.083   9.622  12.894
47559W        W19285  16.038  42.857  10.731
47560W        W19286  13.090  17.120   9.917
47561W        W19287  10.187  20.737  13.331
47562W        W19288  18.823  33.831  13.076
47563W        W19289  24.781  20.490  11.344
47564W        W19290   1.349  33.094   1.380
47565W        W19291  11.166  27.775   3.315
47566W        W19292  11.724  36.798  13.373
47567W        W19293   6.358   7.951  11.541
47568W        W19294  22.528  42.572   4.158
47569W        W19295  37.366  13.418   0.925
47570W        W19296  20.680  12.550  10.503
47571W        W19297  35.243   4.567  11.946
47572W        W19298  31.117  25.224   4.670
47573W        W19299  36.675  22.128  11.449
47574W        W19300  36.373  39.518  12.055
47575W        W19301  20.592   4.201  14.978
47576W        W19302   4.673  12.795  13.428
47577W        W19303   5.432   1.587  12.690
47578W        W19304   2.276  31.335   0.250
47579W        W19305  22.925   4.002   4.455
47580W        W19306  22.272  22.568  14.314
47581W        W19307   2.025   2.269  12.041
47582W        W19308  14.096  34.913   1.404
47583W        W19309  23.575  20.829   3.894
47584W        W19310  20.081  22.493   4.834
47585W        W19311  40.388  23.622  14.878
47586W        W19312   5.859  33.186   1.272
47587W        W19313  25.184  16.666  12.560
47588W        W19314  21.503  16.155  14.860
47589W        W19315  30.258   3.837  13.336
47590W        W19316   7.973  33.861  11.652
47591W        W19317  21.785  23.543  14.591
47592W        W19318  35.591  29.752  11.651
47593W        W19319  22.661   5.780   2.352
47594W        W19320  30.524  27.311   2.670
47595W        W19321   4.812  31.951  10.284
47596W        W19322  27.572   0.460  12.069
47597W        W19323   6.678  39.479   0.859
47598W        W19324  16.361  39.508  10.692
47599W        W19325   7.801   2.861   0.369
47600W        W19326  26.525  22.278   1.314
47601W        W19327  29.920   1.218   4.828
47602W        W19328  22.182  20.551   2.934
47603W        W19329  23.220  24.155   4.249
47604W        W19330  20.985  19.301   3.321
47605W        W19331   4.335   4.332   4.198
47606W        W19332  33.618   5.973   3.176
47607W        W19333  15.981  36.130   1.755
47608W        W19334  27.335  16.091   2.402
47609W        W19335  30.236  11.285   0.275
47610W        W19336  12.158  38.401   0.777
47611W        W19337  26.692  30.167   2.476
47612W        W19338  16.187  13.541   1.689
47613W        W19339  23.194  32.096  10.373
47614W        W19340  36.539  38.555  12.095
47615W        W19341  22.492  20.631   1.385
47616W        W19342  34.370  21.223   1.759
47617W        W19343  20.103  11.859  13.177
47618W        W19344   9.540  38.431  12.482
47619W        W19345  34.762   8.787  11.909
47620W        W19346  27.907  22.148  12.517
47621W        W19347  27.486  15.981  12.515
47622W        W19348  44.373   4.217   3.900
47623W        W19349  32.122  11.000   2.340
47624W        W19350  25.124  12.187   4.917
47625W        W19351  13.786   9.600   0.730
47626W        W19352   2.239  18.677   1.965
47627W        W19353   5.451  41.765  11.252
47628W        W19354  14.708  36.308   1.113
47629W        W19355   7.211  19.965   3.493
47630W        W19356   1.948   1.813  14.155
47631W        W19357  42.739  16.196  14.860
47632W        W19358  42.345  28.611   1.687
47633W        W19359  16.586  24.555   1.971
47634W        W19360  19.018  27.930   2.283
47635W        W19361  22.040  40.365  10.654
47636W        W19362  31.972  20.672  13.054
47637W        W19363  42.394  14.249  12.531
47638W        W19364  31.018  30.342   4.114
47639W        W19365  15.372  34.856  12.762
47640W        W19366  25.181  30.563   2.944
47641W        W19367  39.237   0.721  11.632
47642W        W19368  13.193  41.524   2.755
47643W        W19369  40.485  36.133   1.808
47644W        W19370  36.075  23.706   2.973
47645W        W19371  24.123  30.190  10.287
47646W        W19372  40.031   0.198  11.726
47647W        W19373   2.902  31.525  13.060
47648W        W19374  31.678   3.761   4.533
47649W        W19375  15.182  16.387   1.226
47650W        W19376  37.851  31.959   0.934
47651W        W19377  11.323  40.404   0.064
47652W        W19378  41.927  23.606  11.550
47653W        W19379  39.453   0.382  14.811
47654W        W19380  41.258  17.673   3.211
47655W        W19381   9.254   1.450   1.786
47656W        W19382  40.884  27.654   0.440
47657W        W19383  14.367  14.740   3.235
47658W        W19384  40.763   4.250   3.516
47659W        W19385  26.244  31.540   4.496
47660W        W19386  27.421  15.794   1.232
47661W        W19387   6.296  15.684  10.029
47662W        W19388  23.114   3.794   0.841
47663W        W19389   7.322  13.507  11.201
47664W        W19390  31.137  35.934   0.237
47665W        W19391  29.954   6.354   3.706
47666W        W19392  19.167  23.749  14.984
47667W        W19393  44.042  21.270  12.324
47668W        W19394  40.943  19.728   3.065
47669W        W19395  20.290  29.921  13.083
47670W        W19396  40.435  26.374   3.305
47671W        W19397  21.140  19.079   2.770
47672W        W19398   0.932  30.297  14.074
47673W        W19399  26.135   1.952   0.907
47674W        W19400  36.448  25.475   4.748
47675W        W19401  17.447  10.596   3.599
47676W        W19402  30.118  42.003  12.087
47677W        W19403  22.963   1.651   2.317
47678W        W19404  35.866  10.628  14.323
47679W        W19405  43.971  22.447   0.250
47680W        W19406  25.119  38.728  12.666
47681W        W19407  17.134  43.264   2.850
47682W        W19408  11.354  44.075  11.004
47683W        W19409   3.351  11.357   2.683
47684W        W19410  21.801  16.123   3.394
47685W        W19411  26.046   7.794   2.879
47686W        W19412  25.470  36.025  14.346
47687W        W19413  15.819  40.994   1.756
47688W        W19414  22.549   3.935  11.652
47689W        W19415  31.578  15.685   4.600
47690W        W19416  38.567  22.704   3.651
47691W        W19417  36.261   4.874   3.113
47692W        W19418  37.133  23.150  10.790
47693W        W19419  11.857  19.416  13.306
47694W        W19420  30.669  23.988  13.643
47695W        W19421  22.718  12.338   4.161
47696W        W19422  22.024   7.423   1.504
47697W        W19423  27.495  11.586   1.225
47698W        W19424  19.473  39.694  11.117
47699W        W19425  31.151  19.737  10.679
47700W        W19426  44.005  28.711  11.887
47701W        W19427   1.333   8.433   4.226
47702W        W19428  41.788   5.713  12.002
47703W        W19429  13.739  30.942   1.849
47704W        W19430  29.467  43.673   2.198
47705W        W19431   7.777  35.358  13.490
47706W        W19432  24.098  30.912  11.015
47707W        W19433  34.179  19.103   4.609
47708W        W19434  15.702  13.376  11.966
47709W        W19435  34.122   5.144  12.915
47710W        W19436  14.835  23.579   1.801
47711W        W19437  20.283  12.133  13.940
47712W        W19438   6.652  32.312  14.191
47713W        W19439  14.712   7.329  11.213
47714W        W19440   1.269  20.505  13.965
47715W        W19441  20.747  21.294  13.995
47716W        W19442  10.512  11.166  11.533
47717W        W19443  44.945  41.765  11.145
47718W        W19444   6.650  39.538   4.107
47719W        W19445  25.108  29.952   4.911
47720W        W19446   1.786  26.120  14.953
47721W        W19447  42.923  16.076   2.246
47722W        W19448  25.229  10.024   1.876
47723W        W19449  34.735  44.934   1.535
47724W        W19450  37.503   7.318  10.647
47725W        W19451  15.771   3.307   0.938
47726W        W19452  17.344  35.896   0.958
47727W        W19453   5.771   6.353  10.895
47728W        W19454  24.487  35.534  13.012
47729W        W19455  30.201  34.536  10.962
47730W        W19456  39.935  41.092   1.370
47731W        W19457  26.732   7.520  10.997
47732W        W19458  39.405  18.686  13.033
47733W        W19459  23.532  31.975  12.367
47734W        W19460   9.706  40.968  11.657
47735W        W19461   4.991  26.604  12.454
47736W        W19462  43.702  20.950  12.081
47737W        W19463  19.023   3.360  14.421
47738W        W19464   3.401   4.797  10.591
47739W        W19465  19.642  34.652   1.999
47740W        W19466  36.074  44.389  14.357
47741W        W19467   1.853  33.135   2.762
47742W        W19468  16.164  29.636   3.646
47743W        W19469  42.374  41.484  12.167
47744W        W19470  31.573  20.294   4.286
47745W        W19471   7.417  16.217   2.349
47746W        W19472  37.186  24.082  13.935
47747W        W19473  31.943  14.949   2.381
47748W        W19474   1.283  18.866   2.315
47749W        W19475   5.435   2.382  12.164
47750W        W19476  41.490   3.012  11.118
47751W        W19477  38.487  11.370   1.713
47752W        W19478  33.977  42.715  13.567
47753W        W19479   2.216   3.258   1.244
47754W        W19480  43.456   9.803  14.683
47755W        W19481  30.964   5.244  10.605
47756W        W19482  16.061   1.230  14.364
47757W        W19483  26.597  40.845   2.166
47758W        W19484  29.034  21.019  14.547
47759W        W19485  11.666  43.172   3.630
47760W        W19486  20.488  37.341  12.982
47761W        W19487  44.477  20.951   2.714
47762W        W19488  25.672  20.766  11.519
47763W        W19489  39.526  15.425  12.634
47764W        W19490   7.313  38.408  14.259
47765W        W19491  38.848   6.265   0.860
47766W        W19492   8.529   6.166  12.902
47767W        W19493   3.785  38.565  13.906
47768W        W19494   3.172   9.179  11.638
47769W        W19495  41.899  34.972  14.304
47770W        W19496  24.000  16.085   4.610
47771W        W19497  18.646  21.312  14.391
47772W        W19498   4.878  18.703  12.777
47773W        W19499   8.329   5.378   1.129
47774W        W19500  27.176   3.387   4.640
47775W        W19501  12.757  12.375  10.795
47776W        W19502  10.782  38.890   3.097
47777W        W19503  38.754  36.879   3.707
47778W        W19504  19.110  42.994  11.323
47779W        W19505  31.901  21.112   3.266
47780W        W19506  40.233  35.951  11.432
47781W        W19507  32.406  34.009   1.212
47782W        W19508  43.906  13.310  10.693
47783W        W19509  25.754  10.507  12.446
47784W        W19510  27.190  23.986   3.394
47785W        W19511  39.934   9.623  12.088
47786W        W19512  24.740  26.928   9.762
47787W        W19513  44.217  26.936  14.229
47788W        W19514  37.896   7.341  13.036
47789W        W19515  11.239   3.925  11.948
47790W        W19516   4.720  29.726   4.610
47791W        W19517  14.085  43.023   3.742
47792W        W19518  30.536  40.104   1.884
47793W        W19519  35.149  30.429  12.365
47794W        W19520  13.771  34.936   0.519
47795W        W19521  23.483   8.329   0.798
47796W        W19522  17.603  21.651   1.594
47797W        W19523  29.465  37.297   0.278
47798W        W19524   6.441   4.379  13.374
47799W        W19525  23.138  38.882  11.456
47800W        W19526  17.151  20.128   3.793
47801W        W19527  16.216  30.387  13.884
47802W        W19528   6.340  39.869   2.025
47803W        W19529  25.782  27.232   0.944
47804W        W19530  25.202   3.873  14.146
47805W        W19531  29.159  24.636  13.540
47806W        W19532  16.894  39.698   3.151
47807W        W19533  27.369  39.342   0.942
47808W        W19534  25.645  11.821  13.518
47809W        W19535  15.022   6.948   3.074
47810W        W19536   5.461  23.602   0.231
47811W        W19537  16.106  21.046  14.329
47812W        W19538  34.936  26.453   3.259
47813W        W19539   7.298  24.013  14.347
47814W        W19540   4.444  21.313   4.086
47815W        W19541  31.637  13.881   2.299
47816W        W19542  30.177   5.389   4.665
47817W        W19543   9.603  39.483   2.757
47818W        W19544   4.821  29.000  10.284
47819W        W19545  18.550  16.160  10.595
47820W        W19546   6.936  22.688  10.651
47821W        W19547  11.209  42.128  12.383
47822W        W19548  41.314  34.782   3.665
47823W        W19549  40.277  13.147   4.909
47824W        W19550  32.543   4.657   0.936
47825W        W19551  17.325  29.212  11.060
47826W        W19552  17.424   3.351  10.733
47827W        W19553   0.339  39.924  13.455
47828W        W19554   0.801   9.033   2.842
47829W        W19555  18.352  21.189  12.917
47830W        W19556  26.010  34.446   1.034
47831W        W19557  32.128  17.596  10.565
47832W        W19558  25.041  10.051  11.064
47833W        W19559  17.183  37.101   1.397
47834W        W19560   6.636   3.032   1.890
47835W        W19561  29.852  39.795  10.742
47836W        W19562   3.861   3.843  12.739
47837W        W19563  37.767   2.288   4.305
47838W        W19564  37.786  42.823  13.047
47839W        W19565  33.916  26.584   2.341
47840W        W19566  38.773  13.835   0.881
47841W        W19567  19.124  21.285   0.828
47842W        W19568  26.990  36.514   4.666
47843W        W19569  28.097   7.605   1.875
47844W        W19570  10.648  24.997   4.111
47845W        W19571   6.462   8.723   1.389
47846W        W19572  42.992  16.289  11.896
47847W        W19573  40.949  42.919   4.422
47848W        W19574  25.668  29.753   0.656
47849W        W19575   1.891  20.901   4.601
47850W        W19576  29.385  11.867   2.896
47851W        W19577   4.028  16.187  13.146
47852W        W19578   6.284  35.918  12.086
47853W        W19579  28.756  19.749  14.940
47854W        W19580  21.551  32.588  13.997
47855W        W19581  26.719  19.126  14.382
47856W        W19582  28.621  13.071  13.278
47857W        W19583  21.952  20.481  14.819
47858W        W19584  26.587  10.517   1.896
47859W        W19585  34.238  39.382   4.360
47860W        W19586  39.886   4.765   0.808
47861W        W19587  17.175   7.135  11.271
47862W        W19588  23.026   8.914   0.331
47863W        W19589  15.310  22.597   0.325
47864W        W19590  36.101  16.748   3.709
47865W        W19591  29.349  14.647  12.048
47866W        W19592  28.083  25.472   3.278
47867W        W19593  26.575   9.642  11.911
47868W        W19594  30.136  37.019  13.303
47869W        W19595  17.137  13.840  10.489
47870W        W19596   1.453  27.169   4.235
47871W        W19597  36.038   2.237  11.166
47872W        W19598  39.537   3.742  12.539
47873W        W19599   6.241  18.476  11.514
47874W        W19600   8.440  31.476  11.056
47875W        W19601  31.318  26.414  12.490
47876W        W19602  19.543  23.729   3.159
47877W        W19603  31.301  23.736   4.655
47878W        W19604  33.165  14.179   1.431
47879W        W19605  43.734  39.429   0.315
47880W        W19606  34.095  16.380  12.883
47881W        W19607   3.599  14.705   2.107
47882W        W19608  40.338  35.373   2.228
47883W        W19609  19.219  30.550  11.876
47884W        W19610   8.253  35.279  12.446
47885W        W19611   1.953  40.815   1.885
47886W        W19612  15.089  30.229  11.168
47887W        W19613  44.776   3.176  12.620
47888W        W19614  26.297  37.924  13.916
47889W        W19615  31.941   9.325   0.940
47890W        W19616  17.177  20.686  13.925
47891W        W19617   6.228  18.887   0.758
47892W        W19618   1.438   7.132  13.511
47893W        W19619   0.470  17.328   2.152
47894W        W19620  12.055  32.228  14.435
47895W        W19621   8.815   0.999   0.923
47896W        W19622   6.464  10.175   0.842
47897W        W19623  38.530  21.188   4.598
47898W        W19624  31.309   4.288  14.761
47899W        W19625  38.206  27.487   0.879
47900W        W19626  32.885  43.929  14.379
47901W        W19627  30.442  41.073  11.880
47902W        W19628  11.785  25.222  12.461
47903W        W19629   5.139  26.720  12.995
47904W        W19630  22.955   6.610  13.536
47905W        W19631  21.294   1.932  11.139
47906W        W19632   4.714   0.322   0.258
47907W        W19633  44.556  16.150   4.189
47908W        W19634  29.031  18.589   3.700
47909W        W19635  31.396  33.342  14.651
47910W        W19636   7.349  11.847   0.385
47911W        W19637  16.473  12.756  11.125
47912W        W19638  34.224  35.097   3.386
47913W        W19639  43.589  23.531   1.289
47914W        W19640  39.626  38.021  13.388
47915W        W19641  16.092   3.456  14.774
47916W        W19642  27.886  28.765  10.169
47917W        W19643  44.720  39.375   3.590
47918W        W19644   8.741  13.561  11.274
47919W        W19645  26.268  40.829  11.098
47920W        W19646  25.022  44.213   1.763
47921W        W19647  15.338  31.154   2.249
47922W        W19648  34.362  15.203   4.963
47923W        W19649  34.916  31.632   2.749
47924W        W19650  12.036  14.775   4.084
47925W        W19651  22.041  35.540   4.137
47926W        W19652  28.259  20.979  10.358
47927W        W19653  38.848  40.553   0.862
47928W        W19654  26.658   2.586  13.064
47929W        W19655  19.431  43.787  11.888
47930W        W19656  35.394   6.828   0.659
47931W        W19657  40.102  42.461   4.657
47932W        W19658   1.969  31.275   5.070
47933W        W19659   0.780  34.936   4.554
47934W        W19660  36.341  44.518  12.067
47935W        W19661  42.527  35.541  13.912
47936W        W19662   2.015   9.731  13.727
47937W        W19663   8.774  34.555  10.230
47938W        W19664  28.883  32.975  10.759
47939W        W19665   1.238   0.851  14.852
47940W        W19666   7.606  42.815   1.319
47941W        W19667  33.954  29.574  12.952
47942W        W19668   1.462   2.545   0.132
47943W        W19669  10.182  19.251   4.741
47944W        W19670   2.008  20.746  11.703
47945W        W19671  31.125  25.542  13.855
47946W        W19672  31.156  44.233   4.595
47947W        W19673  39.397  25.531   4.712
47948W        W19674   3.916  17.595   2.288
47949W        W19675  30.161  44.797  11.470
47950W        W19676  36.320  41.978   2.424
47951W        W19677  36.061  11.831   0.785
47952W        W19678   6.977  24.510   0.218
47953W        W19679  26.720  14.348   0.667
47954W        W19680  11.792  29.188   3.775
47955W        W19681  29.625  25.262   5.770
47956W        W19682   1.192   5.184   1.225
47957W        W19683  23.509  13.728  13.869
47958W        W19684   7.084  26.956   0.549
47959W        W19685  42.542  34.428  11.469
47960W        W19686   5.538  29.160  14.845
47961W        W19687   9.700  31.575  11.564
47962W        W19688   8.964  41.609  14.067
47963W        W19689  29.107  16.653   3.617
47964W        W19690  11.259  29.691  11.090
47965W        W19691  13.316  17.292  14.472
47966W        W19692   3.458   0.898  14.011
47967W        W19693  42.700   8.458   0.013
47968W        W19694  30.463  39.260   3.866
47969W        W19695  34.132  39.608   2.237
47970W        W19696  21.995  35.431   2.453
47971W        W19697  40.893  41.350   3.227
47972W        W19698   7.211  30.917  11.496
47973W        W19699  40.493  41.241   2.905
47974W        W19700  22.625  25.122   9.923
47975W        W19701  38.187  16.336   1.750
47976W        W19702  34.473  24.349  11.285
47977W        W19703  40.731  10.159   1.978
47978W        W19704   8.279  40.561   3.958
47979W        W19705   1.860  25.058  12.708
47980W        W19706  21.343  39.452   4.460
47981W        W19707   0.995   8.424  11.731
47982W        W19708   6.760  38.986  11.495
47983W        W19709  35.374  24.510  10.816
47984W        W19710   8.389  31.025   1.244
47985W        W19711  12.791  36.491  12.067
47986W        W19712   5.746   5.225  12.766
47987W        W19713  10.430   6.850  10.774
47988W        W19714  21.624  17.178   2.240
47989W        W19715  32.576  40.877   3.738
47990W        W19716   1.383  25.188   3.680
47991W        W19717  14.307  11.590  14.279
47992W        W19718  20.163  32.035  10.283
47993W        W19719  38.531  25.121  13.518
47994W        W19720   8.986  23.069  11.200
47995W        W19721   8.370  24.654   0.596
47996W        W19722  18.601  28.989   4.601
47997W        W19723   9.122  39.038  11.101
47998W        W19724  21.568  44.809   2.675
47999W        W19725   8.881  23.490  12.065
48000W        W19726  34.562  38.625   4.575
48001W        W19727  10.653  17.802  12.437
48002W        W19728  14.963  32.424  13.503
48003W        W19729  20.536  37.022   3.658
48004W        W19730  44.790   5.325  14.902
48005W        W19731  41.222  27.243  12.794
48006W        W19732  23.900   1.589  10.702
48007W        W19733  40.238  16.996  12.412
48008W        W19734  16.351  32.588  13.457
48009W        W19735  25.567  16.227   3.815
48010W        W19736  23.166  36.670  11.639
48011W        W19737  41.024  33.364   2.647
48012W        W19738  17.926  27.615  14.198
48013W        W19739  13.568  33.375   0.525
48014W        W19740  39.380   5.638   3.110
48015W        W19741  40.907   0.254  13.330
48016W        W19742  22.661  39.624  10.613
48017W        W19743  44.197  11.341  11.620
48018W        W19744   0.722  23.513  10.610
48019W        W19745  10.752  23.286  14.797
48020W        W19746   8.871  31.939   9.974
48021W        W19747  37.769  39.892   2.402
48022W        W19748   7.272  44.412   4.511
48023W        W19749  22.027  39.057   2.356
48024W        W19750  36.858  44.710   0.885
48025W        W19751  15.852   3.937   3.669
48026W        W19752  44.787   9.636   3.818
48027W        W19753  39.100  32.421  14.907
48028W        W19754   3.420   0.310  12.321
48029W        W19755  39.507   0.200  11.662
48030W        W19756   7.548  13.939  11.457
48031W        W19757  14.745  25.741  11.217
48032W        W19758  26.182   1.792   1.821
48033W        W19759   6.232  11.682   1.376
48034W        W19760  37.544  28.985  14.090
48035W        W19761  43.481  34.513  13.794
48036W        W19762  35.635  16.861  12.877
48037W        W19763  18.315  11.285   1.881
48038W        W19764  20.790  14.709  13.563
48039W        W19765  25.357  43.955  11.121
48040W        W19766   8.459  17.234  14.411
48041W        W19767  37.616   2.741   3.662
48042W        W19768  43.333   1.661   3.369
48043W        W19769  10.065  23.078   3.765
48044W        W19770  44.909  37.882   2.867
48045W        W19771  32.977  30.989  11.649
48046W        W19772  34.505  19.121   0.656
48047W        W19773  42.353  22.162  10.641
48048W        W19774  37.972  35.393   0.882
48049W        W19775   8.689  39.290  12.502
48050W        W19776   7.180  43.063   2.675
48051W        W19777  23.582  38.254   3.228
48052W        W19778  15.201  22.117   3.736
48053W        W19779  42.324  15.706  14.365
48054W        W19780   1.691  20.627  13.616
48055W        W19781   0.402   2.320  10.434
48056W        W19782   6.751  27.722  12.974
48057W        W19783   3.914  21.176  11.505
48058W        W19784  15.361  28.135  11.107
48059W        W19785  14.163  12.299  12.476
48060W        W19786  22.769  12.185   5.495
48061W        W19787  30.262  44.203   3.195
48062W        W19788  11.061  39.938   2.699
48063W        W19789  41.882  39.786  10.654
48064W        W19790  14.265  43.034  11.077
48065W        W19791  29.693  23.415  10.361
48066W        W19792   2.748  16.456   3.204
48067W        W19793   5.789  27.918   4.135
48068W        W19794  28.379  24.699  11.500
48069W        W19795  21.891   0.928   2.328
48070W        W19796   0.542  14.538  11.540
48071W        W19797  43.372   8.511  14.287
48072W        W19798  37.309  39.412  13.025
48073W        W19799  33.560  28.513  12.358
48074W        W19800  15.189  13.334  13.520
48075W        W19801  43.248  15.659  10.840
48076W        W19802  15.686   2.831  11.047
48077W        W19803   1.647   8.186   3.779
48078W        W19804   8.235  20.109   4.126
48079W        W19805  10.139  43.525  12.457
48080W        W19806  18.547   4.986   4.504
48081W        W19807  36.661  26.981  11.458
48082W        W19808   3.966   8.213  11.644
48083W        W19809   1.428  33.794   0.847
48084W        W19810  27.393  14.831   3.332
48085W        W19811  16.166  44.823   0.028
48086W        W19812  22.038  27.600  13.312
48087W        W19813   2.335  34.616  10.275
48088W        W19814  37.097   5.159   0.025
48089W        W19815  31.534  22.924  11.427
48090W        W19816  31.183   1.246   0.448
48091W        W19817   5.356  34.057  14.404
48092W        W19818  38.153  37.472   3.246
48093W        W19819   7.654  41.343   2.109
48094W        W19820  25.549  13.809  14.829
48095W        W19821  12.708  12.953  14.167
48096W        W19822  35.107  33.014   1.984
48097W        W19823  23.274   3.167   2.049
48098W        W19824  16.004   0.981  11.593
48099W        W19825  20.069   4.168   4.244
48100W        W19826   7.505  26.570   4.130
48101W        W19827   6.205  10.347  12.426
48102W        W19828  33.836  18.329  11.092
48103W        W19829  32.364  37.511  12.545
48104W        W19830  13.314  22.764  11.225
48105W        W19831   0.046  42.808   1.888
48106W        W19832  39.874  15.076  12.453
48107W        W19833   5.465  19.738   2.722
48108W        W19834  13.154  21.091   1.204
48109W        W19835  29.429   9.744  13.778
48110W        W19836  25.917   1.374   3.616
48111W        W19837  23.475  26.245   1.254
48112W        W19838   5.655   5.444   1.413
48113W        W19839   0.493  12.308   4.155
48114W        W19840  20.467  39.514   1.211
48115W        W19841  42.816  40.770   0.775
48116W        W19842  31.905   9.939  14.991
48117W        W19843  39.411  29.965   0.238
48118W        W19844  11.235  10.490  10.374
48119W        W19845  33.494  14.131  12.161
48120W        W19846  12.344  26.093   3.653
48121W        W19847  38.812  33.504  10.066
48122W        W19848   8.245  12.993  12.402
48123W        W19849  44.459  36.401  14.734
48124W        W19850  17.776  44.431   0.522
48125W        W19851  17.132  19.044   1.862
48126W        W19852  34.916  27.192   4.634
48127W        W19853  32.287  26.003  10.626
48128W        W19854  17.768  15.278   4.642
48129W        W19855  40.591  16.717  12.884
48130W        W19856  36.861   0.868  14.801
48131W        W19857   3.197   3.457   9.922
48132W        W19858  34.986  32.578  13.887
48133W        W19859   1.262  40.745  14.899
48134W        W19860  13.560  34.998   3.649
48135W        W19861  43.807   0.921   4.544
48136W        W19862   5.952  23.775   0.199
48137W        W19863  29.396   7.282   1.796
48138W        W19864  23.725   7.149  12.067
48139W        W19865   9.342  22.988  12.176
48140W        W19866  40.423  43.546  14.768
48141W        W19867  37.415  14.856   3.776
48142W        W19868  18.712  26.238  11.563
48143W        W19869   6.821  22.538   2.294
48144W        W19870  29.457  21.484  11.644
48145W        W19871  44.462   9.929   3.563
48146W        W19872  39.018  38.787  10.615
48147W        W19873  26.670  19.878  10.060
48148W        W19874   5.142  29.190  11.846
48149W        W19875  30.136  39.477  14.399
48150W        W19876   3.748  20.979   0.924
48151W        W19877  30.322  26.474   2.265
48152W        W19878  31.929  29.759  14.619
48153W        W19879  41.129  17.908  11.496
48154W        W19880  31.975  12.689   3.827
48155W        W19881   5.216   3.831  12.526
48156W        W19882  24.688  20.361   1.456
48157W        W19883   8.720  38.997   3.765
48158W        W19884  27.692  16.229  14.397
48159W        W19885   8.303  19.685  14.587
48160W        W19886  26.358  32.435   3.216
48161W        W19887  23.840  11.220   4.245
48162W        W19888  31.927  33.914  10.605
48163W        W19889  27.136  42.830  12.611
48164W        W19890  35.975  21.700   3.035
48165W        W19891  31.932  12.243   1.662
48166W        W19892  40.394  19.373   0.823
48167W        W19893  36.651   4.515   3.030
48168W        W19894  17.513  24.978  14.860
48169W        W19895  25.684  42.487   1.673
48170W        W19896   5.926  19.527   2.713
48171W        W19897  16.918  41.546   5.166
48172W        W19898   3.371  25.112   0.151
48173W        W19899  15.642  38.860  10.589
48174W        W19900  44.390  19.976  11.124
48175W        W19901  10.508  43.530   3.649
48176W        W19902  34.967  37.149   2.031
48177W        W19903  36.408  30.651   0.306
48178W        W19904  22.373  17.532  10.629
48179W        W19905  25.271   9.276   3.278
48180W        W19906   9.509  22.613   9.711
48181W        W19907  31.405  11.679  12.546
48182W        W19908  31.381  37.907  10.961
48183W        W19909  41.000   7.668   1.334
48184W        W19910   9.799  44.843   1.424
48185W        W19911   9.616  19.107   2.117
48186W        W19912  13.376  27.595  13.007
48187W        W19913  11.801  30.442  11.187
48188W        W19914  28.360  23.144  14.001
48189W        W19915  23.609  30.457  10.592
48190W        W19916  33.180  43.393  13.505
48191W        W19917  28.462   8.829  14.047
48192W        W19918  16.560  12.884   2.804
48193W        W19919  43.463  21.352  13.371
48194W        W19920   9.654   7.363   4.217
48195W        W19921  10.280   3.096   4.221
48196W        W19922   6.746   3.923   4.064
48197W        W19923  12.098  18.273  13.975
48198W        W19924  17.014  13.369  13.395
48199W        W19925  22.383  29.687   4.214
48200W        W19926   4.646  21.007  13.462
48201W        W19927  20.080   2.070   1.365
48202W        W19928   6.747   1.444  12.919
48203W        W19929  41.462  10.216  13.200
48204W        W19930  19.621  39.279  13.946
48205W        W19931  36.342  17.121   2.170
48206W        W19932  43.406   9.812   1.778
48207W        W19933  28.708  15.127   3.691
48208W        W19934  23.705   4.857  14.605
48209W        W19935  17.378  33.177  11.611
48210W        W19936   8.412  27.634  11.613
48211W        W19937  32.922  26.684  10.661
48212W        W19938  25.690  20.465  11.104
48213W        W19939  26.976   3.690  12.429
48214W        W19940  21.977  16.160  12.274
48215W        W19941  38.899  14.611   4.132
48216W        W19942  10.176  13.224  13.861
48217W        W19943  40.083  39.306  13.352
48218W        W19944  26.782  37.015   0.043
48219W        W19945  36.905  32.481  14.503
48220W        W19946   9.363  44.161   2.258
48221W        W19947  41.457   3.709   1.356
48222W        W19948   2.936   6.269   1.415
48223W        W19949  21.299  35.588  14.776
48224W        W19950   6.827  14.866   1.660
48225W        W19951  30.631   4.749   0.077
48226W        W19952  43.780  30.379   4.466
48227W        W19953  24.430   1.563   5.507
48228W        W19954  41.352  43.118  12.908
48229W        W19955  30.705  11.476   1.493
48230W        W19956   1.707  18.391   0.640
48231W        W19957  17.020  10.036   3.622
48232W        W19958  13.587   9.145   3.878
48233W        W19959   9.382  16.794   4.093
48234W        W19960  32.437   4.445  12.833
48235W        W19961  27.491   2.672  11.252
48236W        W19962   9.131  34.813   1.793
48237W        W19963  14.315   1.890  11.133
48238W        W19964  13.330  15.485  11.063
48239W        W19965  27.025  16.226   2.004
48240W        W19966  22.977  44.916   0.679
48241W        W19967   7.894  28.273  10.665
48242W        W19968  34.891  31.017  14.420
48243W        W19969   3.404  32.776   3.019
48244W        W19970  32.990  13.106   4.485
48245W        W19971  30.856  39.946  13.312
48246W        W19972  43.936  26.487  11.558
48247W        W19973  23.728   9.415  12.141
48248W        W19974  12.529  36.618  11.617
48249W        W19975  32.586   2.744  11.536
48250W        W19976   5.004   9.297   2.501
48251W        W19977  25.999  28.083  11.590
48252W        W19978  39.834   7.436  12.900
48253W        W19979   9.330  18.696   1.985
48254W        W19980  41.620  19.784  14.888
48255W        W19981  17.652  10.179   2.811
48256W        W19982  26.912   4.732   0.916
48257W        W19983   0.486  22.478  11.153
48258W        W19984  24.552   0.830  11.540
48259W        W19985  32.465  23.715  12.119
48260W        W19986  30.302  35.979   1.927
48261W        W19987   1.444  20.529   4.571
48262W        W19988  34.960  12.812   0.670
48263W        W19989   7.486   4.996   1.252
48264W        W19990  20.440  44.409  11.775
48265W        W19991  21.595  13.583  12.022
48266W        W19992   8.379  16.797   2.147
48267W        W19993  25.123  18.697   0.809
48268W        W19994  10.130  33.774   5.325
48269W        W19995  11.104   6.656   0.530
48270W        W19996  31.982  37.855   0.832
48271W        W19997   1.341  44.279  12.101
48272W        W19998   8.388  43.396  14.990
48273W        W19999  17.246  32.214  11.326
48274W        W20000  44.788  19.207  14.846
48275W        W20001  27.702  24.232  14.250
48276W        W20002  22.467  38.820   3.258
48277W        W20003  29.709  12.230  10.795
48278W        W20004  35.043  24.960  13.797
48279W        W20005  30.518  14.536  14.876
48280W        W20006   6.300  25.519   3.250
48281W        W20007  43.413  33.442   0.922
48282W        W20008   7.319  15.598   5.607
48283W        W20009   5.390  25.486  12.458
48284W        W20010   3.206  37.387   4.105
48285W        W20011  19.429  43.320  14.980
48286W        W20012  34.327  11.763   4.103
48287W        W20013  12.689   5.353   2.925
48288W        W20014  11.180  34.897   1.245
48289W        W20015  25.214  23.021   4.045
48290W        W20016  22.231  24.409   0.377
48291W        W20017  26.812   3.771  11.192
48292W        W20018  42.264  33.458   3.212
48293W        W20019  23.186  11.729  13.403
48294W        W20020  11.417  17.175  13.721
48295W        W20021  14.070   6.459   0.916
48296W        W20022  21.553  30.471  12.465
48297W        W20023  24.699   0.396   0.412
48298W        W20024   0.349   0.537  12.381
48299W        W20025  20.151  40.293  11.201
48300W        W20026  26.638  33.892   4.741
48301W        W20027  42.375  26.956   2.173
48302W        W20028  40.455  18.211   3.172
48303W        W20029   4.127  12.761   0.672
48304W        W20030  26.168  17.259   3.024
48305W        W20031  14.666  34.484   2.367
48306W        W20032  18.822  17.568   1.723
48307W        W20033  32.892  18.650   2.406
48308W        W20034  41.760  30.073   0.236
48309W        W20035  42.879   4.209  11.127
48310W        W20036  28.896   9.248   4.501
48311W        W20037  43.427  25.188   4.106
48312W        W20038   4.758  13.337   0.441
48313W        W20039  24.488  25.493   2.663
48314W        W20040  19.326  12.203   0.831
48315W        W20041  41.822  31.376   4.224
48316W        W20042   1.363  27.493   2.102
48317W        W20043  34.224  41.399   3.871
48318W        W20044   3.479  26.062   3.175
48319W        W20045  39.747  24.680   1.261
48320W        W20046   0.008  22.749   0.762
48321W        W20047  38.030   5.337  14.068
48322W        W20048  42.025   4.340  11.729
48323W        W20049  14.369  23.229   3.628
48324W        W20050  22.969  10.148  11.840
48325W        W20051   0.712  31.912   3.087
48326W        W20052  25.734  26.114  13.249
48327W        W20053   0.984  25.303   4.391
48328W        W20054  12.789   1.955   3.089
48329W        W20055   7.664  11.893  11.448
48330W        W20056  37.354   9.944  14.551
48331W        W20057  18.778  19.520  11.495
48332W        W20058   8.865  11.713   4.717
48333W        W20059   0.677  18.141   4.381
48334W        W20060  24.036   0.614   4.249
48335W        W20061  31.538  19.356  10.944
48336W        W20062  28.147  15.365  11.980
48337W        W20063  22.624  30.371  11.582
48338W        W20064   2.866   6.061   3.052
48339W        W20065  39.002  22.428   4.535
48340W        W20066  10.728   5.235   2.736
48341W        W20067  23.783  37.887  10.490
48342W        W20068  40.901  17.516   3.570
48343W        W20069  27.101  10.111  11.140
48344W        W20070   2.953   0.403  12.539
48345W        W20071  31.950  43.973  13.766
48346W        W20072  23.910   3.421   0.851
48347W        W20073  17.199   1.840  14.227
48348W        W20074  42.385  30.640  13.306
48349W        W20075  15.349   7.975   1.204
48350W        W20076  31.332  44.056  11.510
48351W        W20077  24.504   1.539   1.405
48352W        W20078  28.887   0.916  14.977
48353W        W20079  35.426  33.390  13.949
48354W        W20080   6.902  40.479   0.654
48355W        W20081   4.877  23.739  13.026
48356W        W20082   4.377  18.972   4.303
48357W        W20083   7.462   9.311  14.025
48358W        W20084   1.986  10.835   0.890
48359W        W20085  21.256  42.694   4.550
48360W        W20086  37.064  24.799  11.495
48361W        W20087   1.554  40.433   2.680
48362W        W20088  16.309   4.199   1.632
48363W        W20089  16.041  20.146   2.193
48364W        W20090  38.837  12.369   4.852
48365W        W20091   1.879  33.383   1.392
48366W        W20092  35.793   2.418  11.583
48367W        W20093  36.173   7.319  11.435
48368W        W20094  13.271  11.620  11.555
48369W        W20095   0.713  40.605  14.243
48370W        W20096   2.986  30.263   3.654
48371W        W20097  16.777  32.534   0.699
48372W        W20098  19.673  17.517  12.097
48373W        W20099  26.153   5.434  12.209
48374W        W20100  36.524   2.713   4.701
48375W        W20101   2.703  41.579   2.578
48376W        W20102   9.236  30.106   5.019
48377W        W20103  24.219  13.312  11.610
48378W        W20104  12.422  23.779   0.429
48379W        W20105  22.055  26.501  12.450
48380W        W20106  43.903  42.551   3.502
48381W        W20107  31.681  14.685   4.744
48382W        W20108   8.752  40.794   2.473
48383W        W20109  43.949  23.643   0.927
48384W        W20110  24.950   1.521  10.692
48385W        W20111  40.095   5.624   4.571
48386W        W20112  31.198  16.626  12.062
48387W        W20113   3.996  30.474   3.730
48388W        W20114  43.745  22.666  12.424
48389W        W20115  41.483  15.869   1.686
48390W        W20116  26.456  28.942   0.069
48391W        W20117   1.254  10.215   1.191
48392W        W20118  11.313   9.270   4.627
48393W        W20119  23.380  34.672   4.518
48394W        W20120  14.116   8.392   2.807
48395W        W20121  34.180  26.138   2.334
48396W        W20122  24.570   7.288   0.680
48397W        W20123  24.593  44.090  10.665
48398W        W20124  31.050  42.495  10.416
48399W        W20125  26.186  39.434   1.340
48400W        W20126  25.675  37.449   3.296
48401W        W20127  13.471   6.804   1.522
48402W        W20128   6.682  41.944   4.098
48403W        W20129  16.752  35.805  14.323
48404W        W20130  40.010   6.941   0.716
48405W        W20131  44.926  14.035   1.197
48406W        W20132  38.389  41.496   2.683
48407W        W20133  44.221  23.236   0.751
48408W        W20134  41.398   4.086  13.293
48409W        W20135  23.050  36.359  13.808
48410W        W20136  43.313  34.857   0.067
48411W        W20137  43.292  42.420   1.304
48412W        W20138  25.143  34.302  13.083
48413W        W20139  21.141  17.292  13.337
48414W        W20140  30.545  29.469  12.619
48415W        W20141  30.624  44.802   2.760
48416W        W20142  22.683  16.205   1.418
48417W        W20143  38.085  10.332   3.352
48418W        W20144  32.624  36.102   1.915
48419W        W20145  24.699  35.438  13.474
48420W        W20146  43.983  26.306   1.340
48421W        W20147   4.740  39.059   4.836
48422W        W20148  17.142  16.237   3.176
48423W        W20149  21.641  31.079  12.929
48424W        W20150  23.691  12.181   3.365
48425W        W20151  27.224  27.755  14.550
48426W        W20152  44.459  31.375  10.715
48427W        W20153  25.208  19.427  11.866
48428W        W20154  21.171  18.550  14.704
48429W        W20155  32.468  33.223  10.901
48430W        W20156  21.547   7.854  10.718
48431W        W20157  28.310  15.836  10.293
48432W        W20158  18.208  42.706  11.026
48433W        W20159  36.953  41.487  10.637
48434W        W20160  15.464  10.313   0.383
48435W        W20161  23.954  13.748   1.817
48436W        W20162  42.688  32.650  10.649
48437W        W20163  12.643  30.080   3.638
48438W        W20164  26.137  32.182   2.347
48439W        W20165  24.116  27.993  12.024
48440W        W20166   3.155   8.700  13.945
48441W        W20167  20.823  21.340   4.143
48442W        W20168  30.954   8.118  11.985
48443W        W20169  44.267  35.052  14.878
48444W        W20170  19.673  30.128  10.399
48445W        W20171   5.988  33.424  11.552
48446W        W20172  12.118   8.974  11.258
48447W        W20173   3.593  18.518  10.897
48448W        W20174  26.146   0.448   3.626
48449W        W20175  27.254  15.479   1.638
48450W        W20176  43.893  37.330   3.306
48451W        W20177  30.092  12.742   1.708
48452W        W20178  38.283  12.083  11.493
48453W        W20179  21.843  38.297  11.375
48454W        W20180   4.876  44.914  12.109
48455W        W20181  39.733  29.644   1.317
48456W        W20182  29.123  29.453  10.714
48457W        W20183  23.644  34.130  12.538
48458W        W20184  36.512   6.203   2.571
48459W        W20185   7.268  36.928  14.847
48460W        W20186   6.438  20.301  11.471
48461W        W20187  11.442  34.898  13.661
48462W        W20188   2.265   2.875   2.240
48463W        W20189  17.778  15.642   0.057
48464W        W20190  23.816   7.867  12.925
48465W        W20191  31.630   0.355  13.884
48466W        W20192  11.723  17.317  11.539
48467W        W20193  15.267  35.266  13.092
48468W        W20194  27.746  10.106  12.624
48469W        W20195  15.051   9.702  13.894
48470W        W20196  29.380  16.058  13.428
48471W        W20197   7.670   4.800  10.181
48472W        W20198   9.731  12.141   1.387
48473W        W20199  26.013  36.082  14.483
48474W        W20200  41.497  27.481   2.376
48475W        W20201  39.447  28.238   2.212
48476W        W20202  17.677  24.217  14.521
48477W        W20203  18.052  30.071  14.927
48478W        W20204  17.032  37.588   1.443
48479W        W20205  26.049  38.151  13.538
48480W        W20206   5.189  30.463  11.911
48481W        W20207   1.668  18.215   4.082
48482W        W20208   2.563  14.657  11.979
48483W        W20209  29.703  38.860  10.519
48484W        W20210  21.116   9.038   1.188
48485W        W20211  42.801  15.318   2.699
48486W        W20212  15.653  16.218   1.357
48487W        W20213  14.722  10.228   4.558
48488W        W20214  43.959  41.479   0.383
48489W        W20215  24.505  38.747   4.690
48490W        W20216   1.906  28.670   0.811
48491W        W20217  42.301   6.417   1.558
48492W        W20218   2.264  11.322   1.812
48493W        W20219  11.203   8.095   3.871
48494W        W20220   4.958  42.937  14.990
48495W        W20221  22.502  14.171  14.365
48496W        W20222   3.690   5.138   3.583
48497W        W20223  17.186   6.166  13.900
48498W        W20224  42.915  30.872   0.437
48499W        W20225  13.320  31.640   4.179
48500W        W20226   3.723  35.814  11.050
48501W        W20227   6.751  43.056   0.466
48502W        W20228   3.826  13.859   4.011
48503W        W20229  33.855  14.769   2.352
48504W        W20230   6.243  43.471   4.483
48505W        W20231   5.530   6.873  14.778
48506W        W20232  35.650   7.603  14.398
48507W        W20233  34.237   2.506   2.322
48508W        W20234  17.396  17.521  11.064
48509W        W20235  20.613  25.221   5.118
48510W        W20236  28.180  23.769  11.550
48511W        W20237  22.676   9.674  14.700
48512W        W20238   7.027   3.210  12.562
48513W        W20239  18.450  18.570  14.116
48514W        W20240  39.604  42.276  12.039
48515W        W20241  35.028  19.150  10.623
48516W        W20242   5.199   8.563   0.013
48517W        W20243  36.529  38.967   2.710
48518W        W20244  42.814  12.662   4.888
48519W        W20245  39.839  40.913  11.396
48520W        W20246  14.080   4.309   0.363
48521W        W20247  41.426  44.459  14.041
48522W        W20248   8.636  10.448  11.996
48523W        W20249   2.260  10.182  11.520
48524W        W20250  35.120  32.262  14.267
48525W        W20251  25.085   9.739  13.194
48526W        W20252   1.247  16.975   2.775
48527W        W20253  32.595  18.831   3.250
48528W        W20254  34.070  23.037  14.446
48529W        W20255   6.276  35.396  10.408
48530W        W20256  39.052  41.126  11.996
48531W        W20257  37.088  18.523  11.633
48532W        W20258  20.112  25.229   5.086
48533W        W20259   2.449  35.679   4.292
48534W        W20260   6.205  36.364  14.032
48535W        W20261   6.196   4.295  12.922
48536W        W20262  20.322  35.451  13.589
48537W        W20263  24.556  26.691  13.289
48538W        W20264  10.606  21.504  13.155
48539W        W20265   5.713  10.995  10.732
48540W        W20266   8.825   7.071  12.798
48541W        W20267  22.258  36.380   3.702
48542W        W20268  25.922  11.797  13.954
48543W        W20269   3.349  22.338   5.067
48544W        W20270  43.232   3.200   4.133
48545W        W20271   7.716  22.773  13.933
48546W        W20272   8.864  42.813  14.499
48547W        W20273  40.856  21.582  13.416
48548W        W20274  40.197   1.748   4.692
48549W        W20275  12.444   3.415   2.797
48550W        W20276  29.514  37.216   2.009
48551W        W20277   6.623  17.651   3.126
48552W        W20278   2.086   3.494  10.980
48553W        W20279  41.303  41.406  12.991
48554W        W20280  43.233  30.613   2.855
48555W        W20281  25.635  16.205   0.673
48556W        W20282  32.098  38.523  13.663
48557W        W20283   4.832  14.612  10.938
48558W        W20284  32.931   5.980  11.689
48559W        W20285  17.144   8.889   3.068
48560W        W20286  37.820  20.118  13.509
48561W        W20287  26.321  10.823  11.776
48562W        W20288  15.591  39.414   3.074
48563W        W20289  20.659  32.958  12.377
48564W        W20290  35.185  34.077  13.040
48565W        W20291  38.428   5.266  12.595
48566W        W20292  32.289   9.232   4.699
48567W        W20293  21.071  30.985  14.271
48568W        W20294  26.394   1.417  14.027
48569W        W20295  42.696  14.070  11.257
48570W        W20296   8.191  29.288   2.592
48571W        W20297  24.566  28.924   0.409
48572W        W20298  23.933  42.807   0.327
48573W        W20299   4.366  22.195   1.800
48574W        W20300  33.069  12.579   3.776
48575W        W20301   4.539  19.951   4.508
48576W        W20302  28.932  39.686   3.991
48577W        W20303  32.073  32.709   1.233
48578W        W20304  31.551   6.705  12.535
48579W        W20305  43.447  29.458   4.094
48580W        W20306  40.968  24.727  11.726
48581W        W20307  26.476  27.320  13.423
48582W        W20308  11.407   8.418   4.310
48583W        W20309  44.468   7.902  12.605
48584W        W20310  25.362  20.705   3.619
48585W        W20311  14.861  19.782   4.172
48586W        W20312  27.576   6.217   4.091
48587W        W20313  41.312  21.201   9.792
48588W        W20314   5.336   6.201   9.761
48589W        W20315  15.795   2.037   1.793
48590W        W20316   2.035  20.344   1.742
48591W        W20317   7.258  39.930   1.461
48592W        W20318  32.878  34.831  10.839
48593W        W20319  19.593   9.577  14.404
48594W        W20320  14.598  38.050   0.506
48595W        W20321   6.873   3.498  14.492
48596W        W20322  17.200   9.239   4.041
48597W        W20323  24.789  33.091  11.414
48598W        W20324  35.846  34.895   1.979
48599W        W20325  42.827  31.462  14.540
48600W        W20326  23.781  40.923   2.376
48601W        W20327  27.560  31.228   1.647
48602W        W20328   4.998  21.985   4.890
48603W        W20329  37.507   2.466   1.921
48604W        W20330  37.729  43.240  14.425
48605W        W20331  18.679  30.534   1.572
48606W        W20332  23.042  13.255   4.269
48607W        W20333   2.791  20.540  12.193
48608W        W20334  32.939  43.483   4.282
48609W        W20335  24.165  15.791   1.415
48610W        W20336  38.816  38.853   2.398
48611W        W20337   4.867  16.409  11.046
48612W        W20338  13.153  14.839  11.530
48613W        W20339  28.159  33.962   1.189
48614W        W20340  10.319  10.773   0.571
48615W        W20341   5.648  16.352  10.729
48616W        W20342  14.038  22.636   1.786
48617W        W20343   0.239  28.076   1.955
48618W        W20344  23.008  24.004  10.708
48619W        W20345   9.638  44.544  11.140
48620W        W20346  30.482  35.728  12.385
48621W        W20347   0.427  34.509  10.446
48622W        W20348   4.468  39.049  12.033
48623W        W20349   3.404   4.454  13.824
48624W        W20350  31.627  28.449   2.703
48625W        W20351  15.815  16.866   4.262
48626W        W20352  10.678  21.504  11.023
48627W        W20353  31.029  30.552   4.579
48628W        W20354  15.766  16.819  13.591
48629W        W20355  26.932   3.162  12.378
48630W        W20356   7.819   4.370  10.840
48631W        W20357   6.288   2.266   4.304
48632W        W20358  41.836  15.800   0.115
48633W        W20359  24.129  38.420  12.111
48634W        W20360  44.385  13.044  12.895
48635W        W20361  17.345  10.355   1.916
48636W        W20362  31.035  40.344   0.871
48637W        W20363  36.629  44.714  12.495
48638W        W20364  16.244  24.502  10.970
48639W        W20365  40.270  16.642  14.322
48640W        W20366  36.028  38.903   2.802
48641W        W20367  44.002  15.986   3.271
48642W        W20368  21.721  20.845  13.534
48643W        W20369  25.636  40.381   0.132
48644W        W20370  19.178  31.556   1.842
48645W        W20371   7.753  39.104   2.301
48646W        W20372  27.617  22.013  10.802
48647W        W20373  22.326   6.345   4.590
48648W        W20374  39.855  34.024  14.798
48649W        W20375  30.155   5.762  11.682
48650W        W20376  38.017  43.035   0.758
48651W        W20377  36.601  25.617  13.427
48652W        W20378  27.543  36.339   1.944
48653W        W20379  12.917  18.097  11.639
48654W        W20380  38.486  13.440  12.463
48655W        W20381  27.521  36.486  11.865
48656W        W20382  36.346  40.427  11.091
48657W        W20383  12.644  38.887   1.817
48658W        W20384  31.133  17.895   0.283
48659W        W20385   6.397  35.443  12.433
48660W        W20386  16.121  40.406   2.230
48661W        W20387  36.907  35.384   2.391
48662W        W20388  21.007   0.391   0.908
48663W        W20389  21.856  37.752   4.005
48664W        W20390  34.863   2.899   4.263
48665W        W20391  21.503  43.058  12.238
48666W        W20392  15.138  28.902  12.889
48667W        W20393  11.336   8.802  12.778
48668W        W20394  36.042  39.515   2.494
48669W        W20395   0.240  21.546   1.854
48670W        W20396  32.383  16.265  11.191
48671W        W20397  11.553  34.412  13.430
48672W        W20398   6.700   5.253   2.281
48673W        W20399  42.306  27.621   0.898
48674W        W20400  40.943  18.522   4.753
48675W        W20401  36.161  13.732   3.113
48676W        W20402  23.226   3.207   2.561
48677W        W20403  43.733  34.537  14.385
48678W        W20404  32.168  13.754   0.468
48679W        W20405   9.908  29.885  11.385
48680W        W20406  31.197  18.286  11.526
48681W        W20407  40.776  35.213  13.020
48682W        W20408  25.140  33.002   2.612
48683W        W20409  36.631  16.823   3.649
48684W        W20410  14.378  44.547   5.022
48685W        W20411  22.573  40.587   0.651
48686W        W20412  16.389   3.267   1.837
48687W        W20413  16.353  12.224  10.953
48688W        W20414  38.367  39.488  10.557
48689W        W20415   4.384  39.816  10.932
48690W        W20416   6.701  38.006  14.743
48691W        W20417  39.337  29.656  12.977
48692W        W20418  32.640  29.270   1.938
48693W        W20419  35.451  29.654   0.809
48694W        W20420  14.297  28.765   2.455
48695W        W20421   2.969  33.354  11.583
48696W        W20422   8.442   3.384   1.651
48697W        W20423  39.255  32.538  12.685
48698W        W20424  17.312   2.391   2.157
48699W        W20425  41.274   6.832   4.929
48700W        W20426   2.301  25.264   4.295
48701W        W20427  43.003   0.296  11.610
48702W        W20428  24.124   6.365  12.581
48703W        W20429   5.121   0.868   1.956
48704W        W20430  27.181  42.985  13.972
48705W        W20431   5.259  33.411   1.752
48706W        W20432  32.436  35.067  14.533
48707W        W20433  16.033  15.115   2.795
48708W        W20434  17.210  20.936  10.241
48709W        W20435  17.008  41.986   3.414
48710W        W20436  40.454   8.857   1.796
48711W        W20437  20.744  44.266  11.392
48712W        W20438  42.556  16.124  12.997
48713W        W20439  17.388  31.218  13.551
48714W        W20440  40.089  37.422  12.811
48715W        W20441  11.483   1.496   5.045
48716W        W20442  10.801   9.249   0.635
48717W        W20443  28.453  30.424  12.245
48718W        W20444  28.096  25.105  11.676
48719W        W20445  39.257  16.047   3.476
48720W        W20446  13.699  20.843  12.489
48721W        W20447   9.780  24.862   0.163
48722W        W20448  24.500  34.374  14.873
48723W        W20449   1.867  24.014   0.439
48724W        W20450   3.349  31.723  13.640
48725W        W20451  15.324  32.981  13.602
48726W        W20452  43.001  44.020   0.361
48727W        W20453  31.115  30.249   2.752
48728W        W20454  21.611  37.410  11.456
48729W        W20455   4.301  10.652  11.624
48730W        W20456   7.389  34.619  10.549
48731W        W20457   2.482  36.586   3.291
48732W        W20458  33.453  26.251   1.841
48733W        W20459  30.127  40.763  11.548
48734W        W20460  43.742  17.851   2.127
48735W        W20461   2.353  44.883  10.645
48736W        W20462  29.471  22.078   1.897
48737W        W20463  13.624  33.068  12.515
48738W        W20464  31.604  30.002  11.484
48739W        W20465  23.562  21.242  13.820
48740W        W20466  31.054  19.503  11.131
48741W        W20467  12.652   8.339  12.992
48742W        W20468   0.283  19.253   2.339
48743W        W20469  22.271  19.628  12.149
48744W        W20470  34.768  13.976  12.418
48745W        W20471   7.561  38.038  11.960
48746W        W20472   2.186  37.867   0.035
48747W        W20473   7.284  44.724   4.095
48748W        W20474  33.022  17.808  14.943
48749W        W20475   3.085  40.356  12.061
48750W        W20476  26.257  31.082  12.059
48751W        W20477   9.821  38.917   0.477
48752W        W20478  23.598  43.332  10.436
48753W        W20479   6.640  15.272   1.911
48754W        W20480  20.039  31.354   4.037
48755W        W20481   3.599   8.223   0.494
48756W        W20482  13.235  34.392   2.627
48757W        W20483  33.114  33.442   3.139
48758W        W20484   3.914  14.046  12.605
48759W        W20485  13.283  13.839   0.912
48760W        W20486  32.182  38.988   2.176
48761W        W20487  28.960  13.790  13.319
48762W        W20488   9.068  39.850   0.004
48763W        W20489  36.089   3.452   1.884
48764W        W20490   5.023  29.534  13.513
48765W        W20491  12.879  22.112  12.956
48766W        W20492  37.898  38.106  13.399
48767W        W20493  26.220  15.603   1.839
48768W        W20494  39.677  32.695  13.057
48769W        W20495  16.659  24.743  13.509
48770W        W20496  38.803  30.212   3.378
48771W        W20497  19.143  26.751   4.184
48772W        W20498  26.132  33.304  14.878
48773W        W20499  24.453   9.695  10.740
48774W        W20500  40.850  38.343   2.763
48775W        W20501  15.219  11.042   3.734
48776W        W20502  11.893   0.715  13.637
48777W        W20503   5.476  10.014   4.569
48778W        W20504  18.362  24.625   0.538
48779W        W20505  16.279  29.961  12.609
48780W        W20506  25.568  44.854   1.389
48781W        W20507  22.751  44.922  12.960
48782W        W20508  18.066  25.666  14.785
48783W        W20509  11.658  22.471   5.028
48784W        W20510  26.495   5.256   0.300
48785W        W20511  35.718  31.861  11.091
48786W        W20512  25.779  38.131   1.664
48787W        W20513  43.107  24.204   2.694
48788W        W20514  40.990  40.996  10.909
48789W        W20515   9.479  37.876   0.983
48790W        W20516  34.360  23.820  12.632
48791W        W20517  34.231  12.139  13.430
48792W        W20518  10.696  26.115   3.772
48793W        W20519  19.000   2.000  13.133
48794W        W20520   9.657  12.565   1.688
48795W        W20521  44.754  13.483   2.766
48796W        W20522  10.661  23.730   2.276
48797W        W20523  12.034  13.017  12.591
48798W        W20524  17.537  41.352  12.949
48799W        W20525   2.228  42.726  11.110
48800W        W20526  23.802  10.794  13.900
48801W        W20527  24.053   2.695  11.107
48802W        W20528   8.914  36.948   0.895
48803W        W20529  28.383  21.192  11.218
48804W        W20530  28.593  43.368   0.906
48805W        W20531  21.236  26.360  13.625
48806W        W20532  20.609  36.328  10.884
48807W        W20533   0.351   3.862   1.265
48808W        W20534  30.879  13.587  13.526
48809W        W20535  18.396  29.958   2.689
48810W        W20536  40.344  14.861   4.124
48811W        W20537  26.552  11.647  10.620
48812W        W20538  17.782  18.044   1.212
48813W        W20539   1.457  30.909   0.885
48814W        W20540   6.352   0.020   1.271
48815W        W20541  36.481  10.133   1.930
48816W        W20542  33.311  42.332  13.888
48817W        W20543   9.812  10.520   4.134
48818W        W20544  24.021  26.477  13.987
48819W        W20545  44.812  40.781  13.560
48820W        W20546   2.430  24.575  12.840
48821W        W20547  10.719   5.850  11.048
48822W        W20548   8.230   5.958  10.610
48823W        W20549  33.019   4.311  12.123
48824W        W20550  36.577   1.187  10.680
48825W        W20551  32.144  41.393   1.774
48826W        W20552  35.038   5.220  13.966
48827W        W20553  13.000   8.751   3.358
48828W        W20554  27.206   7.496   4.079
48829W        W20555  21.309   1.798  12.507
48830W        W20556  11.809  32.140   3.364
48831W        W20557  37.006   1.861   0.193
48832W        W20558  13.355  18.035  12.910
48833W        W20559  32.651  38.865   3.118
48834W        W20560   6.364   1.023  13.556
48835W        W20561  12.252   6.319   3.965
48836W        W20562   3.753  28.789  14.513
48837W        W20563   0.441  39.379  10.585
48838W        W20564   5.957  25.196  14.461
48839W        W20565  19.958  31.677  14.493
48840W        W20566   5.290   4.635   5.448
48841W        W20567   9.007  31.546   4.557
48842W        W20568   0.866  19.296   3.115
48843W        W20569  28.887  29.826   4.657
48844W        W20570   1.923   0.845  12.388
48845W        W20571  16.515   1.233   4.502
48846W        W20572  38.089  39.406   0.320
48847W        W20573  20.007   3.372  13.775
48848W        W20574  34.570  10.743  11.445
48849W        W20575  31.550  11.263   4.131
48850W        W20576  21.247  16.445  13.359
48851W        W20577  39.572  42.463  13.525
48852W        W20578  42.998   8.415   2.253
48853W        W20579   8.165  17.108  13.486
48854W        W20580  35.040  43.993   3.721
48855W        W20581  22.136  19.603  10.679
48856W        W20582  36.426  16.013  13.988
48857W        W20583  30.967   8.232   4.655
48858W        W20584   4.367   7.243   4.618
48859W        W20585  13.288  14.117   1.910
48860W        W20586   2.087  16.314  11.264
48861W        W20587  20.699  32.383  11.520
48862W        W20588  44.796  26.392   3.827
48863W        W20589  21.217   2.890   3.480
48864W        W20590   9.905  30.191  14.549
48865W        W20591  36.926  29.605  14.447
48866W        W20592  31.376   0.894  13.943
48867W        W20593  38.370  36.545   3.803
48868W        W20594  32.574  15.644  10.561
48869W        W20595  19.723  44.989  14.581
48870W        W20596   0.747   9.523   2.680
48871W        W20597  41.596  20.237   2.249
48872W        W20598  12.835  37.451   4.579
48873W        W20599   2.420  17.806   2.265
48874W        W20600  43.345   0.810   1.224
48875W        W20601  37.947  41.475   2.966
48876W        W20602  23.053  37.048   0.873
48877W        W20603  44.454   0.492  11.810
48878W        W20604  42.610  40.263   2.304
48879W        W20605  35.454   9.371  13.890
48880W        W20606  11.435  19.044  10.595
48881W        W20607   6.385  37.582   3.671
48882W        W20608  24.693  10.860  13.092
48883W        W20609  41.292  28.711  12.378
48884W        W20610  42.786  16.802   4.351
48885W        W20611  22.486  10.849  11.457
48886W        W20612  12.564  25.153  11.540
48887W        W20613  10.201  13.375   1.907
48888W        W20614   5.870  41.877  11.532
48889W        W20615  29.360  10.469   5.054
48890W        W20616  28.534  29.643   1.266
48891W        W20617  43.208   4.794   0.956
48892W        W20618  25.558   2.951  13.950
48893W        W20619  41.757   7.203   2.333
48894W        W20620   7.819   5.698  12.407
48895W        W20621  38.472  20.107   2.142
48896W        W20622  12.804  28.029  12.480
48897W        W20623   7.341  12.580   3.381
48898W        W20624  22.099  30.126  11.693
48899W        W20625  19.711  40.441  13.460
48900W        W20626  21.044   1.412   0.234
48901W        W20627   0.466  16.131  13.880
48902W        W20628   1.402  18.625   3.389
48903W        W20629  23.754  12.816  12.304
48904W        W20630  36.353  13.132  13.912
48905W        W20631  20.006  33.841   0.201
48906W        W20632  37.011  32.022  12.685
48907W        W20633   8.207  15.760   3.722
48908W        W20634  20.641  29.674   0.922
48909W        W20635  36.533  27.744  11.312
48910W        W20636  43.321  39.749  14.419
48911W        W20637   7.829   6.814  14.896
48912W        W20638  13.224  10.600  12.870
48913W        W20639  22.436   7.631   1.247
48914W        W20640  44.278  11.154   4.688
48915W        W20641  31.981  25.538   1.688
48916W        W20642  32.113  36.312  11.630
48917W        W20643   3.871  30.533  10.716
48918W        W20644   2.716  18.069  14.446
48919W        W20645  17.010  44.187  12.535
48920W        W20646  38.348  33.471   2.491
48921W        W20647  21.208  31.131  11.484
48922W        W20648  37.085  24.101   2.277
48923W        W20649  38.108  39.071   1.935
48924W        W20650  16.488  41.741   2.850
48925W        W20651  31.586  36.528   4.052
48926W        W20652  13.574  20.777  11.524
48927W        W20653  35.886  36.978   4.071
48928W        W20654  39.624  12.240  14.792
48929W        W20655   3.904   2.206   3.729
48930W        W20656  37.673  34.490   4.248
48931W        W20657  22.634  34.638   9.951
48932W        W20658   1.411  18.752   0.921
48933W        W20659  10.173   4.376   4.594
48934W        W20660  18.973  31.086   0.592
48935W        W20661  19.154  22.787  10.493
48936W        W20662   3.715  26.892  10.528
48937W        W20663  21.075  38.820   3.257
48938W        W20664  27.386  11.236  13.036
48939W        W20665  19.266  14.076   0.824
48940W        W20666  33.474   6.883  13.530
48941W        W20667  14.874  15.167  12.811
48942W        W20668  39.404  25.385  12.837
48943W        W20669  24.230  38.549   2.274
48944W        W20670  20.197  39.062   0.686
48945W        W20671  27.650  11.743  11.457
48946W        W20672  12.256  44.208  14.439
48947W        W20673  32.161  22.557  13.493
48948W        W20674  36.420  40.285   3.151
48949W        W20675  16.146  27.050   1.772
48950W        W20676  31.963  35.199   3.733
48951W        W20677  43.846   5.237   0.039
48952W        W20678  20.725   6.684   3.777
48953W        W20679  32.951  15.672   0.996
48954W        W20680   9.733  22.843   5.362
48955W        W20681  18.733  10.082   3.174
48956W        W20682   9.042  30.967   3.083
48957W        W20683  28.044  26.032  11.218
48958W        W20684   8.668  14.178   4.761
48959W        W20685   2.490  42.843  14.943
48960W        W20686  32.070   5.757  14.572
48961W        W20687  11.798  23.994  11.401
48962W        W20688  27.620  11.373  12.548
48963W        W20689  22.589  10.310   3.678
48964W        W20690  15.537  26.077  12.517
48965W        W20691  40.067  31.772   2.582
48966W        W20692  36.775  35.332   3.628
48967W        W20693   1.868  17.888  13.156
48968W        W20694  44.827  38.946  11.170
48969W        W20695  26.680  15.799  14.836
48970W        W20696  15.320  43.703   2.943
48971W        W20697   4.480  41.926   2.169
48972W        W20698  20.984  22.080   3.632
48973W        W20699   4.556  17.538   1.460
48974W        W20700  17.755   1.802   4.371
48975W        W20701  13.773   1.249   3.923
48976W        W20702   7.329  11.062   3.164
48977W        W20703  35.302  25.879  11.622
48978W        W20704  27.463  42.892  11.076
48979W        W20705  17.629  15.347  10.649
48980W        W20706  27.694  24.034  12.115
48981W        W20707  15.877  43.728  13.464
48982W        W20708  38.581  24.229   3.253
48983W        W20709  29.790  32.600   5.024
48984W        W20710  43.994  34.020  14.430
48985W        W20711  26.097  36.435   1.226
48986W        W20712  32.336  26.986  11.445
48987W        W20713  11.192  31.972   1.317
48988W        W20714  16.049  28.469  13.843
48989W        W20715  40.381  43.134   2.628
48990W        W20716   3.428  38.500   2.233
48991W        W20717  12.842  13.140   4.141
48992W        W20718  33.090  34.077   3.756
48993W        W20719  43.371   6.842  12.003
48994W        W20720  44.082  24.157   2.238
48995W        W20721  20.901  15.396   2.683
48996W        W20722  41.545  17.332   2.855
48997W        W20723  10.520  41.244   2.722
48998W        W20724  44.432  18.141   2.832
48999W        W20725   0.669  24.994  12.352
49000W        W20726  43.584  15.621  10.426
49001W        W20727  30.848  36.871  14.363
49002W        W20728  44.802  24.236  14.999
49003W        W20729  25.028  30.915   0.479
49004W        W20730  21.572   6.181   1.137
49005W        W20731  23.674  13.096   5.023
49006W        W20732  26.471  41.778   2.383
49007W        W20733  33.828  43.084   0.356
49008W        W20734  12.679  14.081   4.630
49009W        W20735  19.792  18.509   4.587
49010W        W20736  18.182   3.548  12.770
49011W        W20737  35.514  38.428  14.392
49012W        W20738   5.399   3.629   3.633
49013W        W20739   5.697  42.853   4.215
49014W        W20740  30.564  29.091   3.179
49015W        W20741  40.427  22.210   1.852
49016W        W20742  14.688  39.812   2.260
49017W        W20743  11.056  30.311   1.161
49018W        W20744  28.173  23.087  12.121
49019W        W20745   7.387  20.670  14.360
49020W        W20746  33.061  34.905   1.294
49021W        W20747  28.126   3.269   3.714
49022W        W20748  40.764  24.186  13.765
49023W        W20749  15.846  33.160   3.659
49024W        W20750  22.616   6.974   0.298
49025W        W20751  29.802  26.489   4.168
49026W        W20752  40.024  37.876  13.078
49027W        W20753   6.579  43.055   1.286
49028W        W20754  20.614  14.637   0.114
49029W        W20755  28.121  21.687  13.886
49030W        W20756  25.992   8.670   3.344
49031W        W20757  26.485  27.566  10.128
49032W        W20758  16.684  30.430   1.910
49033W        W20759  36.607   5.905   3.373
49034W        W20760  16.303  21.675  11.718
49035W        W20761   2.814  40.787  13.497
49036W        W20762   3.441  41.954   3.205
49037W        W20763  32.667  23.854   9.868
49038W        W20764  18.442  19.381  10.233
49039W        W20765  20.258  13.882   0.457
49040W        W20766  15.810   1.401  10.759
49041W        W20767  26.593  13.883   3.299
49042W        W20768  10.376  29.200  12.851
49043W        W20769  17.049  40.833  13.433
49044W        W20770  39.996   5.612  12.418
49045W        W20771  35.603  34.389   3.716
49046W        W20772  23.163  17.754  10.666
49047W        W20773  37.065  29.652  13.047
49048W        W20774   4.233  43.001   0.181
49049W        W20775   2.266   9.095  12.545
49050W        W20776  28.185  42.311   3.740
49051W        W20777  18.263  18.221   2.745
49052W        W20778  33.753   8.653  10.075
49053W        W20779   5.947  10.685  11.574
49054W        W20780  29.676  12.225   3.629
49055W        W20781   8.921  34.458   5.058
49056W        W20782   6.129   9.194  10.371
49057W        W20783  30.867  25.080   2.924
49058W        W20784  15.057  36.739  13.497
49059W        W20785  21.295   3.795  12.542
49060W        W20786   4.218  17.138   4.751
49061W        W20787   5.990   9.225   0.843
49062W        W20788  15.383   0.354   1.709
49063W        W20789   7.571  23.309  13.180
49064W        W20790  15.275  28.005  12.024
49065W        W20791   4.813  38.504   3.120
49066W        W20792  37.551  17.260   4.539
49067W        W20793  34.792   4.912  10.799
49068W        W20794  41.044  13.321  12.499
49069W        W20795  11.941  27.129   4.766
49070W        W20796   8.670  42.523  10.558
49071W        W20797  11.224  20.793  11.011
49072W        W20798  41.592   8.792  11.185
49073W        W20799  35.525   1.875   0.214
49074W        W20800   9.709  16.645  12.836
49075W        W20801  17.043  10.107  11.552
49076W        W20802   9.298   2.278  11.616
49077W        W20803  32.100   3.768  14.794
49078W        W20804  18.987  25.709  10.454
49079W        W20805  23.742  28.493   4.963
49080W        W20806  13.281   2.802  14.706
49081W        W20807   1.729  15.026  12.037
49082W        W20808  23.705  38.707   3.650
49083W        W20809   2.634  33.751  13.844
49084W        W20810  25.908  43.344  10.575
49085W        W20811  15.230  18.274  14.341
49086W        W20812  41.501  37.697   3.782
49087W        W20813  23.463  40.434   3.161
49088W        W20814   6.567   7.682  14.914
49089W        W20815  19.187   9.263  13.614
49090W        W20816  20.834   3.265   3.573
49091W        W20817  32.332   0.994   3.848
49092W        W20818  42.381   1.320  13.487
49093W        W20819  29.438  20.937   4.515
49094W        W20820   4.710  11.066  14.779
49095W        W20821  39.550  25.232   3.117
49096W        W20822   0.905   6.754   4.367
49097W        W20823  39.017   9.316   1.336
49098W        W20824  32.439  12.142  13.643
49099W        W20825  24.943  30.712   4.166
49100W        W20826  28.394  22.665  14.772
49101W        W20827  43.269  26.194   0.748
49102W        W20828  10.526  15.236  12.292
49103W        W20829  23.166  21.296   4.950
49104W        W20830   8.865  30.550   1.502
49105W        W20831  43.299  37.303   0.605
49106W        W20832  34.002  29.963  14.026
49107W        W20833  26.953  10.465  13.179
49108W        W20834  35.160  23.696  11.418
49109W        W20835  13.470  27.923   4.253
49110W        W20836  28.480   9.141  13.522
49111W        W20837  40.066  17.500  11.172
49112W        W20838  33.846  44.478   0.507
49113W        W20839   7.379  37.884  12.968
49114W        W20840   1.218  40.116   0.421
49115W        W20841   4.475  17.485  14.200
49116W        W20842  24.550   8.244  13.436
49117W        W20843  10.892  25.614   5.695
49118W        W20844  37.470  27.508  10.677
49119W        W20845   8.126   0.383   1.770
49120W        W20846  17.540  42.430  13.461
49121W        W20847  11.633  29.155  12.054
49122W        W20848  10.657   6.428   0.415
49123W        W20849  30.905  34.593   4.192
49124W        W20850  23.335  14.118  12.655
49125W        W20851   1.750   8.129   4.278
49126W        W20852  33.868  19.533  12.157
49127W        W20853  35.522   2.314  11.115
49128W        W20854  36.606   7.202  10.103
49129W        W20855  10.918   5.967  13.327
49130W        W20856  12.802  40.837  14.931
49131W        W20857  23.148  34.153  14.223
49132W        W20858   2.235  30.470  12.432
49133W        W20859  19.182  12.440   1.284
49134W        W20860  16.692  29.444   1.907
49135W        W20861   0.408  11.409   2.629
49136W        W20862  12.126  25.657   2.199
49137W        W20863  27.196  23.476   3.482
49138W        W20864   1.735  29.080   3.599
49139W        W20865   5.680   7.724  11.888
49140W        W20866  16.739  15.352  10.706
49141W        W20867  17.201  33.653   3.403
49142W        W20868  27.381   7.922  12.059
49143W        W20869  22.977  40.254  11.732
49144W        W20870  14.852  16.389  11.538
49145W        W20871  40.660   0.485   1.066
49146W        W20872  25.082  28.945  13.369
49147W        W20873  40.320  38.458  11.053
49148W        W20874  21.968  26.657   1.941
49149W        W20875  11.943   3.351   0.850
49150W        W20876  30.575   5.871   0.975
49151W        W20877  30.122   2.728  13.358
49152W        W20878   2.798  15.564   4.775
49153W        W20879  10.324  37.391   0.828
49154W        W20880  10.269  39.560  13.584
49155W        W20881  27.254  34.109  12.560
49156W        W20882  41.576  30.329  13.045
49157W        W20883  39.611  26.050   2.798
49158W        W20884   4.390  19.696   2.821
49159W        W20885   8.319  41.781   4.870
49160W        W20886  27.312  22.990  11.435
49161W        W20887   9.162   7.263  12.436
49162W        W20888  15.342  13.151   2.418
49163W        W20889  15.710  15.775   2.180
49164W        W20890  18.000   3.738   0.181
49165W        W20891   6.841  24.405   3.725
49166W        W20892  26.289  16.233   3.138
49167W        W20893  10.218  33.703  10.367
49168W        W20894  34.453  19.071   1.651
49169W        W20895  40.431  42.223   4.310
49170W        W20896  33.583  36.605  12.024
49171W        W20897  34.468  21.665  13.858
49172W        W20898  40.940  22.116   0.634
49173W        W20899   8.450  37.257  11.559
49174W        W20900  34.943  27.013   1.867
49175W        W20901  25.903  36.063  11.554
49176W        W20902   2.496   2.605   2.626
49177W        W20903  39.286  30.460  12.492
49178W        W20904   8.727  22.184  12.395
49179W        W20905  14.748   5.260   3.546
49180W        W20906   4.262  44.929  12.912
49181W        W20907  38.644   1.669  14.263
49182W        W20908  38.496  37.988  10.418
49183W        W20909  27.948   9.189   0.635
49184W        W20910  38.107  12.092   3.096
49185W        W20911  18.586  23.694  13.893
49186W        W20912  37.597  20.463   1.344
49187W        W20913  20.790  27.007   2.873
49188W        W20914  18.691  38.076  11.881
49189W        W20915   6.852  37.388  10.605
49190W        W20916   8.218  23.717  12.011
49191W        W20917  10.747   8.480   3.061
49192W        W20918   4.958  13.818  12.382
49193W        W20919   2.042   0.233   1.249
49194W        W20920  37.321  25.509   3.447
49195W        W20921  18.534  26.147   2.826
49196W        W20922  33.187  25.990   0.244
49197W        W20923   4.352  19.546  11.026
49198W        W20924  27.942  15.283  14.068
49199W        W20925  42.363  15.816   2.281
49200W        W20926  43.829  17.462   2.493
49201W        W20927   5.253  44.864  11.115
49202W        W20928  38.239  18.160   2.743
49203W        W20929   0.880  20.624  11.661
49204W        W20930  11.378  20.739   0.325
49205W        W20931   9.323  29.561   2.822
49206W        W20932  16.105  39.465   4.844
49207W        W20933  33.504  27.959  11.641
49208W        W20934  38.865  16.495   4.200
49209W        W20935  18.545   8.219  14.932
49210W        W20936  15.854  26.351   3.667
49211W        W20937  11.963  35.874   5.026
49212W        W20938   5.288  31.330   4.710
49213W        W20939  32.939   0.337   1.440
49214W        W20940   4.942  41.854   1.392
49215W        W20941   7.251  13.767   0.972
49216W        W20942  41.972  28.433  14.818
49217W        W20943  43.836  41.529  12.185
49218W        W20944   2.160  29.983   1.276
49219W        W20945   8.358  22.967   0.903
49220W        W20946  39.523  40.046  14.486
49221W        W20947   5.697   0.877   4.242
49222W        W20948  23.596  41.944   2.135
49223W        W20949   3.952  35.106  14.415
49224W        W20950   2.327  23.522  13.377
49225W        W20951   4.422   1.288  14.872
49226W        W20952  15.743  18.697   3.111
49227W        W20953   3.731  28.722  10.699
49228W        W20954  18.721   0.875   3.606
49229W        W20955  14.201  11.746  10.719
49230W        W20956  17.719  10.079  13.773
49231W        W20957  33.006  15.377  13.346
49232W        W20958  27.590  42.554  12.492
49233W        W20959  22.071   4.165   0.793
49234W        W20960  38.428  27.976  12.669
49235W        W20961  30.158  38.275  13.030
49236W        W20962  34.962  41.750   0.502
49237W        W20963  40.792  15.824  13.489
49238W        W20964   0.080  30.884   0.231
49239W        W20965  42.290  44.258   1.399
49240W        W20966  44.885  41.340   1.191
49241W        W20967   0.492  25.194   1.761
49242W        W20968  36.918   3.448   3.639
49243W        W20969  16.246  19.844   1.196
49244W        W20970  25.145  40.525  13.820
49245W        W20971   1.317  34.443  10.740
49246W        W20972  36.108   7.258   3.313
49247W        W20973  33.566  44.785  13.602
49248W        W20974  12.583  30.470   2.690
49249W        W20975  40.907  16.098  11.665
49250W        W20976  16.278   3.756  11.656
49251W        W20977  39.602  44.363   2.306
49252W        W20978  22.580  31.667   4.042
49253W        W20979  43.905  22.126  10.325
49254W        W20980  41.991  28.149   0.247
49255W        W20981  11.819  20.712   2.348
49256W        W20982  20.533  20.066  13.618
49257W        W20983  14.513  10.172   4.087
49258W        W20984  22.721  13.305  11.584
49259W        W20985  24.573   2.492  12.266
49260W        W20986  38.827  15.623  13.459
49261W        W20987  15.203  29.000  12.370
49262W        W20988  23.069  15.707  11.539
49263W        W20989  43.789  41.048   2.588
49264W        W20990  23.165  23.626  11.141
49265W        W20991  34.378  22.458   4.483
49266W        W20992  13.771   0.907   0.754
49267W        W20993  39.978  11.906   0.214
49268W        W20994  20.070  34.417  12.682
49269W        W20995  40.872  37.033   3.284
49270W        W20996  28.018  41.942   4.056
49271W        W20997  17.030  15.160   2.757
49272W        W20998  21.129  13.840   3.332
49273W        W20999  38.804  34.523   3.581
49274W        W21000  23.045  17.377   0.870
49275W        W21001  23.137  31.022   4.163
49276W        W21002  41.786  29.899   2.356
49277W        W21003   3.452  34.060  14.805
49278W        W21004  39.312   4.690   3.281
49279W        W21005   7.326  31.478   0.417
49280W        W21006  27.038  22.749  14.974
49281W        W21007  12.745  36.512   4.589
49282W        W21008  11.410  33.938  12.093
49283W        W21009  16.016   0.766   0.491
49284W        W21010  44.835   0.725   0.268
49285W        W21011  15.350  19.543   1.984
49286W        W21012   5.541  33.929  13.822
49287W        W21013   7.794  36.932  13.416
49288W        W21014   0.766  35.186   1.426
49289W        W21015   4.681   7.114   2.475
49290W        W21016  31.047  36.628   2.691
49291W        W21017  43.204  38.355  12.894
49292W        W21018   2.420  43.225  14.041
49293W        W21019  33.918  31.149  12.950
49294W        W21020  27.112  43.698  11.609
49295W        W21021  16.299  43.024  11.187
49296W        W21022  41.865  27.976   2.777
49297W        W21023   4.809  41.955  12.433
49298W        W21024  44.301  29.808   3.717
49299W        W21025  19.090  41.633  14.848
49300W        W21026   6.193   4.564   4.081
49301W        W21027  23.260  24.145  13.076
49302W        W21028  21.822  18.050   4.567
49303W        W21029   9.198  35.544  11.398
49304W        W21030   5.951  13.416  14.001
49305W        W21031  37.462  29.416  13.797
49306W        W21032  22.726  38.113  11.082
49307W        W21033  19.229  30.567   2.931
49308W        W21034  17.892   7.801  10.555
49309W        W21035  32.757  38.914  10.013
49310W        W21036  35.996  41.460   1.741
49311W        W21037  26.617  18.811   1.666
49312W        W21038   3.772  15.739  10.961
49313W        W21039   7.889  33.649  11.111
49314W        W21040  26.688  13.051   4.634
49315W        W21041  19.631   8.696   2.728
49316W        W21042   0.742  28.685  11.824
49317W        W21043  36.173  23.546  12.729
49318W        W21044  42.882  36.466  13.116
49319W        W21045   0.515  17.525  12.136
49320W        W21046  24.718  34.516  12.834
49321W        W21047  23.649  38.317   4.539
49322W        W21048  18.738  21.610   0.939
49323W        W21049  28.810   2.186   0.011
49324W        W21050   7.746   4.122  13.553
49325W        W21051  18.010  13.244  11.268
49326W        W21052  14.269  34.395  13.999
49327W        W21053  42.948  42.071  14.435
49328W        W21054  20.614  27.673   3.109
49329W        W21055  27.474  25.528   2.756
49330W        W21056  20.065   2.001   3.261
49331W        W21057  42.552  30.629  13.815
49332W        W21058  21.189  33.255   0.244
49333W        W21059  43.988  25.563  11.067
49334W        W21060  21.144  15.667  11.485
49335W        W21061  35.545  37.903   1.876
49336W        W21062  39.564  15.616   2.674
49337W        W21063  30.589  40.728   3.610
49338W        W21064  13.142   2.665   1.633
49339W        W21065  31.039  24.538  14.763
49340W        W21066  26.722   9.667   0.729
49341W        W21067  40.580  23.678  14.390
49342W        W21068  21.316   8.805  13.010
49343W        W21069  16.063  29.272  14.309
49344W        W21070  34.120  42.257   0.400
49345W        W21071  15.604  34.237  10.738
49346W        W21072   1.890  23.243   1.813
49347W        W21073  24.194  27.692  14.117
49348W        W21074  24.575   8.777   3.864
49349W        W21075  40.438  38.510  12.021
49350W        W21076  25.679  44.383  14.349
49351W        W21077  36.690  33.976  14.313
49352W        W21078  15.844   1.019   1.698
49353W        W21079  21.647  32.035   4.954
49354W        W21080   1.049  17.960  14.506
49355W        W21081  23.021  26.704   0.914
49356W        W21082   0.043  22.794  11.018
49357W        W21083  42.442  26.370  12.854
49358W        W21084  32.879   2.337  10.716
49359W        W21085  29.476  24.164  14.238
49360W        W21086   1.743  13.092   0.801
49361W        W21087  34.936  37.103  14.296
49362W        W21088   2.332  22.173   1.621
49363W        W21089  21.773   8.107  12.590
49364W        W21090  35.858  17.254  11.221
49365W        W21091  18.413  40.595  14.334
49366W        W21092  17.018   2.308   0.793
49367W        W21093  39.505  33.011  10.848
49368W        W21094   1.901  25.359   2.836
49369W        W21095  19.135  12.326   4.305
49370W        W21096  17.612  19.849   2.881
49371W        W21097  15.721  44.923   0.314
49372W        W21098  43.336  15.069   2.496
49373W        W21099  39.309   6.227  14.249
49374W        W21100  15.894   5.001  11.475
49375W        W21101  21.659  11.505   9.981
49376W        W21102  15.327  10.368  12.193
49377W        W21103  30.205  31.590  13.326
49378W        W21104  21.138  44.450   2.699
49379W        W21105  27.524  30.131   2.526
49380W        W21106  12.217   4.443   2.031
49381W        W21107  43.267   1.632   2.349
49382W        W21108  34.089   4.302   0.456
49383W        W21109  11.777  16.979  13.395
49384W        W21110  33.347  28.048   4.198
49385W        W21111   4.838   6.737   2.889
49386W        W21112  39.589  36.252  12.565
49387W        W21113  44.448  40.499   2.899
49388W        W21114  10.903   3.419   3.655
49389W        W21115  29.130  35.383  14.819
49390W        W21116  41.840  11.705   0.223
49391W        W21117  25.958  34.259   2.411
49392W        W21118  39.072  36.929   0.786
49393W        W21119  28.632  22.273  13.403
49394W        W21120   5.640  27.870  12.338
49395W        W21121  40.403  12.866  14.861
49396W        W21122   7.954  16.245  11.890
49397W        W21123  18.820  11.302  14.760
49398W        W21124  36.392  23.081  11.113
49399W        W21125  39.097  33.192  11.138
49400W        W21126   1.520  39.402   2.845
49401W        W21127  19.827  34.353   3.730
49402W        W21128  33.755  25.563  11.535
49403W        W21129  22.762  44.930   4.841
49404W        W21130  31.083   9.253   1.428
49405W        W21131   5.914   3.661   5.133
49406W        W21132  22.568  34.169  13.483
49407W        W21133  39.836   6.416   2.272
49408W        W21134  33.528  17.646  11.114
49409W        W21135  37.201   8.814  13.870
49410W        W21136  27.036  30.470   4.141
49411W        W21137  10.193  35.771  12.779
49412W        W21138  32.894  39.230  11.211
49413W        W21139  39.355   3.744  10.628
49414W        W21140  43.252  15.168   4.570
49415W        W21141  43.308  36.683   3.685
49416W        W21142  13.641  35.079   2.176
49417W        W21143  25.139   3.405  10.550
49418W        W21144  35.017  24.467  12.523
49419W        W21145   8.821  24.721   4.273
49420W        W21146  43.758   8.157   2.991
49421W        W21147  32.904  28.087   1.790
49422W        W21148  22.671  41.221  13.463
49423W        W21149  44.276  32.439  11.252
49424W        W21150  30.004  17.573  12.857
49425W        W21151  32.492  39.439   0.768
49426W        W21152  41.748  11.759  13.199
49427W        W21153  40.328  13.345   3.909
49428W        W21154  18.212  25.939   0.694
49429W        W21155  27.164  20.274  12.076
49430W        W21156  32.915  22.489   2.712
49431W        W21157  27.215   0.987   5.332
49432W        W21158  25.786  44.244  10.694
49433W        W21159  10.807  36.777   4.551
49434W        W21160  35.321  42.476  14.503
49435W        W21161  13.964  28.570   1.145
49436W        W21162   6.617  23.851  12.989
49437W        W21163  29.565   7.493  13.434
49438W        W21164  41.000  41.836  11.190
49439W        W21165   4.782  32.505   3.247
49440W        W21166  31.031  14.802  11.199
49441W        W21167  34.636  18.576  14.796
49442W        W21168  44.949  14.160  11.511
49443W        W21169  34.956   9.773   0.271
49444W        W21170  15.733  39.471  12.862
49445W        W21171  12.565  15.203   1.567
49446W        W21172  32.000  27.628   2.806
49447W        W21173  16.295   2.781   1.758
49448W        W21174  33.133  22.137   0.908
49449W        W21175   8.489  40.386  13.316
49450W        W21176  31.938  43.472  12.880
49451W        W21177  10.217  30.758  11.611
49452W        W21178  24.158  11.288   4.680
49453W        W21179  39.466  31.928   3.651
49454W        W21180   7.956  33.267  10.176
49455W        W21181  19.361  18.053  13.528
49456W        W21182  36.424  15.595   2.419
49457W        W21183  44.496  40.965   2.186
49458W        W21184  23.538  14.068   4.574
49459W        W21185   1.268  11.285  13.527
49460W        W21186  11.840  23.518  10.152
49461W        W21187  32.455   3.932  12.841
49462W        W21188  10.909   1.445  11.110
49463W        W21189   5.239  26.480   0.932
49464W        W21190  15.884  11.913  12.983
49465W        W21191   5.201   5.503   2.376
49466W        W21192  17.720  16.764  10.722
49467W        W21193  32.614  10.166   0.939
49468W        W21194   9.246   4.230  14.383
49469W        W21195  19.205  43.466   1.259
49470W        W21196  35.773   1.913  11.586
49471W        W21197  35.416  27.923  11.508
49472W        W21198   9.808  28.659  12.701
49473W        W21199  32.123   0.200  13.401
49474W        W21200  41.891  11.264   4.194
49475W        W21201  34.606  32.862  12.958
49476W        W21202   1.250  23.353  13.355
49477W        W21203  39.768  10.178  12.444
49478W        W21204  13.673  29.604   4.303
49479W        W21205  21.497  37.782   0.744
49480W        W21206   9.260  22.264  14.063
49481W        W21207  44.504  14.954  11.370
49482W        W21208  31.021  26.001  12.328
49483W        W21209  42.539  28.427   2.376
49484W        W21210  35.466  21.959  12.100
49485W        W21211   8.143   5.335   0.106
49486W        W21212  16.162   3.924   5.003
49487W        W21213  23.466  28.922  11.670
49488W        W21214   2.269  17.588   4.434
49489W        W21215  34.117  31.679  12.000
49490W        W21216  19.560  13.016   2.746
49491W        W21217  19.291  19.830   0.850
49492W        W21218  13.433  33.566  12.360
49493W        W21219  38.709   7.766   5.013
49494W        W21220  35.047  13.655  13.522
49495W        W21221   0.290  32.967  10.639
49496W        W21222  42.049   4.292   4.787
49497W        W21223  32.012  16.020  12.590
49498W        W21224  37.927  16.683   0.955
49499W        W21225  11.871  32.481  11.915
49500W        W21226  32.106  18.085  13.340
49501W        W21227   0.270   2.037   4.494
49502W        W21228  42.894  14.197  12.680
49503W        W21229   5.442  17.881  12.208
49504W        W21230  13.503  36.091  14.415
49505W        W21231  36.888  42.025  10.657
49506W        W21232  28.176   5.108   0.980
49507W        W21233  21.256  23.201  11.718
49508W        W21234  23.064  35.389  13.759
49509W        W21235  27.560  38.402  12.372
49510W        W21236  36.944  18.773   1.758
49511W        W21237  37.617  42.884   9.983
49512W        W21238  16.025  40.532   4.996
49513W        W21239  20.510  26.000  14.033
49514W        W21240  15.694  15.541  13.068
49515W        W21241  29.108  38.137   0.393
49516W        W21242  39.306  12.339  13.442
49517W        W21243  35.116  44.829   4.190
49518W        W21244  20.924  23.462  14.810
49519W        W21245  30.938  16.596  11.612
49520W        W21246  43.988   0.882  11.030
49521W        W21247  30.142  11.419  12.756
49522W        W21248  17.519  18.028   3.434
49523W        W21249  26.084  34.594  12.209
49524W        W21250  23.457  30.955  13.906
49525W        W21251  35.063   0.860  11.024
49526W        W21252  29.434  23.154   0.926
49527W        W21253  25.679  22.578  13.784
49528W        W21254  19.681  37.537  13.514
49529W        W21255   4.325  10.595   3.816
49530W        W21256  29.335   0.757   1.386
49531W        W21257  25.704  34.288   1.854
49532W        W21258   2.451  24.024  13.388
49533W        W21259  43.336  11.141   1.398
49534W        W21260   9.140  21.710   5.307
49535W        W21261  23.958  10.178   2.786
49536W        W21262  28.050  32.246  13.052
49537W        W21263  25.020  11.088   3.593
49538W        W21264  35.454  14.681   4.113
49539W        W21265  37.910  11.147   1.839
49540W        W21266  29.276  36.925   1.643
49541W        W21267  36.313  36.862  11.601
49542W        W21268  31.974  21.120  13.316
49543W        W21269  35.795  22.660   4.224
49544W        W21270  40.766  36.809   1.281
49545W        W21271  31.910   0.474  11.118
49546W        W21272  14.656  20.791   1.823
49547W        W21273  17.771  18.619  14.922
49548W        W21274  32.128   1.904  13.918
49549W        W21275   9.410   7.740  12.499
49550W        W21276   0.971  11.633   5.056
49551W        W21277  20.731   9.047  11.897
49552W        W21278  30.916   6.606  14.914
49553W        W21279  20.689  36.456  12.855
49554W        W21280   7.911   7.352   1.762
49555W        W21281  30.467  11.166   4.330
49556W        W21282  27.180  16.696  12.466
49557W        W21283  18.825  30.913   3.829
49558W        W21284  40.099  24.335   1.028
49559W        W21285  28.231  10.543  10.720
49560W        W21286  32.138   1.464   3.235
49561W        W21287  24.601  15.230  12.075
49562W        W21288  30.095  38.386   2.140
49563W        W21289  21.596  13.573   0.935
49564W        W21290  43.947  38.947   0.276
49565W        W21291  15.186  17.729  12.319
49566W        W21292  33.161   8.246   4.133
49567W        W21293   6.419  25.275   0.843
49568W        W21294   6.697   4.127   4.584
49569W        W21295  26.885  30.516   0.850
49570W        W21296   7.283  13.334   1.783
49571W        W21297  29.990   8.110   0.404
49572W        W21298   9.118   0.485   1.303
49573W        W21299  36.496  29.347  11.576
49574W        W21300   9.581  31.474  13.876
49575W        W21301  20.406  29.053  10.965
49576W        W21302   6.209  35.846   4.168
49577W        W21303  22.783  31.624  14.248
49578W        W21304  22.016  40.948  12.300
49579W        W21305  18.277  16.163   2.716
49580W        W21306  23.294  32.064  13.007
49581W        W21307   7.272  40.825   3.226
49582W        W21308  34.890  44.306  10.750
49583W        W21309  43.297  19.117   0.686
49584W        W21310  32.842  42.041   9.804
49585W        W21311  18.693   4.167  11.867
49586W        W21312   7.938  13.693  13.568
49587W        W21313  33.102   8.342  12.912
49588W        W21314  22.167  33.579  11.359
49589W        W21315  41.095   5.696   3.666
49590W        W21316  44.931   3.792  13.913
49591W        W21317  33.370  38.543   2.744
49592W        W21318   8.181  11.049   4.443
49593W        W21319   4.258  11.133  10.706
49594W        W21320   5.435  13.872  13.800
49595W        W21321  42.238  17.647  10.650
49596W        W21322  44.536  10.459  11.200
49597W        W21323  22.757  17.743  10.319
49598W        W21324  17.135   5.728  11.393
49599W        W21325  29.761   0.344   4.806
49600W        W21326   1.888  16.634   1.369
49601W        W21327  30.266  19.260   2.707
49602W        W21328  34.893  15.761  14.952
49603W        W21329  19.092  19.953  12.984
49604W        W21330   2.757  39.105   0.910
49605W        W21331  39.514  14.244  11.495
49606W        W21332  30.132  24.612  11.180
49607W        W21333  10.857  24.688   0.844
49608W        W21334   0.992  37.006  13.948
49609W        W21335  27.460  12.739  10.900
49610W        W21336   8.130   3.803   0.303
49611W        W21337  21.263  13.352   1.951
49612W        W21338  12.148   4.872   3.871
49613W        W21339  31.185  38.418   3.223
49614W        W21340  40.593  20.610  14.950
49615W        W21341  33.051  21.256   0.018
49616W        W21342  15.827  37.330   3.668
49617W        W21343  35.386  21.724   0.098
49618W        W21344   2.476  34.210   0.634
49619W        W21345   5.998   6.289   0.344
49620W        W21346   7.882  41.584   5.068
49621W        W21347  40.819  43.117  14.088
49622W        W21348  19.764   4.931  11.417
49623W        W21349   2.440   3.745  12.051
49624W        W21350   8.142  25.337  11.393
49625W        W21351  11.175  22.706   4.342
49626W        W21352  17.152   3.377   5.300
49627W        W21353  23.981  14.831  11.024
49628W        W21354   6.665  30.109  14.834
49629W        W21355  26.228  14.367   0.439
49630W        W21356  42.899  44.580  12.074
49631W        W21357  42.325   0.429  10.953
49632W        W21358  26.499  20.890  12.642
49633W        W21359  24.653  36.902  14.921
49634W        W21360  19.813   5.802  11.129
49635W        W21361   1.424  32.452   1.712
49636W        W21362  18.260  25.018  12.214
49637W        W21363  15.510   8.295   1.998
49638W        W21364  16.817  41.525   2.459
49639W        W21365  33.905  21.469   2.758
49640W        W21366  30.625  33.886   3.714
49641W        W21367  19.188  15.981  14.727
49642W        W21368  21.580  35.779   1.010
49643W        W21369  30.978  12.686  12.077
49644W        W21370  40.287  27.378   3.668
49645W        W21371  14.754  36.473  14.273
49646W        W21372  33.395  28.011  12.168
49647W        W21373  16.926  36.612   2.261
49648W        W21374  22.987  43.446   0.288
49649W        W21375  37.091   5.267  10.680
49650W        W21376  24.361  13.268   3.174
49651W        W21377  15.620  18.148  11.517
49652W        W21378   8.856  36.252   1.268
49653W        W21379  14.661  30.367  14.708
49654W        W21380   1.605  20.731   5.036
49655W        W21381  33.897  20.036  12.271
49656W        W21382  16.762  44.113  14.447
49657W        W21383  24.187  28.377   1.761
49658W        W21384  44.379  19.840   3.189
49659W        W21385  40.695  37.863   0.667
49660W        W21386  16.536  29.420   4.406
49661W        W21387   6.635  20.833   0.805
49662W        W21388  37.318  21.635   2.326
49663W        W21389  25.760   8.717   3.789
49664W        W21390  36.827  32.796  12.058
49665W        W21391  31.558  11.134  11.383
49666W        W21392   0.281  26.965  13.929
49667W        W21393  25.841  44.259   1.902
49668W        W21394  11.238  34.610  14.435
49669W        W21395  30.356  35.123   2.141
49670W        W21396  33.866  44.893  14.016
49671W        W21397  20.247   6.860  11.381
49672W        W21398   7.764  22.040  11.660
49673W        W21399  27.571  42.152   0.897
49674W        W21400  14.382  43.126   1.744
49675W        W21401   6.692  27.191  14.808
49676W        W21402  35.354   2.938   2.842
49677W        W21403  14.266  30.931  10.766
49678W        W21404   1.962  33.418  10.598
49679W        W21405  14.733  37.513   2.661
49680W        W21406   4.243  34.820   3.881
49681W        W21407  41.831  36.886  12.875
49682W        W21408  33.477  40.416  12.874
49683W        W21409  26.593  28.569   3.199
49684W        W21410  28.403  39.388   2.495
49685W        W21411   4.543  26.047  11.387
49686W        W21412   1.670  23.133   4.125
49687W        W21413   2.193  28.206   1.757
49688W        W21414  37.785   2.356   0.610
49689W        W21415  25.083  11.150   4.110
49690W        W21416  41.396  15.943  14.736
49691W        W21417  33.476  11.135  12.099
49692W        W21418  34.367  39.068   0.978
49693W        W21419  32.906  41.474   2.342
49694W        W21420  20.063  30.134   1.202
49695W        W21421  30.432  35.330   2.730
49696W        W21422  37.014  34.693  13.004
49697W        W21423   7.673  25.640  14.872
49698W        W21424  33.539   2.953  12.883
49699W        W21425  12.780   2.459  13.345
49700W        W21426  15.276  25.117  13.780
49701W        W21427  29.198  15.649   3.784
49702W        W21428   8.415   6.661  11.621
49703W        W21429  25.120  23.115   4.537
49704W        W21430   9.281   4.966   2.975
49705W        W21431  23.998   5.451   2.786
49706W        W21432   3.005  33.196   4.908
49707W        W21433  19.315   5.520  14.801
49708W        W21434   8.789  26.903  11.700
49709W        W21435  38.026   7.607   2.288
49710W        W21436  25.676   4.467  10.388
49711W        W21437  25.456  12.917   0.938
49712W        W21438  17.210   3.850   4.900
49713W        W21439  31.527   1.875  11.674
49714W        W21440  44.908  20.701  14.085
49715W        W21441  44.244  30.434   1.850
49716W        W21442  41.033  41.671  14.872
49717W        W21443  30.649  27.506  12.230
49718W        W21444  11.222  32.655  14.426
49719W        W21445  34.495  14.911   3.191
49720W        W21446  16.713  25.421  10.703
49721W        W21447   6.187  20.641   3.741
49722W        W21448  26.730   3.360   4.401
49723W        W21449  13.354   7.690  11.691
49724W        W21450  36.077  10.301  11.182
49725W        W21451   6.234  21.846   4.490
49726W        W21452  30.963  41.031   4.581
49727W        W21453  14.275  26.153  12.142
49728W        W21454  40.425  20.827   4.170
49729W        W21455  11.832   7.224   2.814
49730W        W21456  35.045   4.693   1.339
49731W        W21457  37.522  19.352  14.017
49732W        W21458  42.787  24.570   1.953
49733W        W21459  12.635  33.152   0.944
49734W        W21460  23.304  39.498  11.092
49735W        W21461  28.023  14.846   0.511
49736W        W21462  30.671   3.857   3.692
49737W        W21463  29.930   3.404  14.592
49738W        W21464   0.302  42.538  13.789
49739W        W21465  43.716  16.518  11.467
49740W        W21466  14.228  36.561   2.874
49741W        W21467  36.146   7.745   3.774
49742W        W21468  36.663   2.784  10.408
49743W        W21469  39.428  41.521  14.485
49744W        W21470  31.289  33.317  11.497
49745W        W21471  27.621  41.522   3.675
49746W        W21472   3.383  34.983  14.372
49747W        W21473  36.844  34.473  10.037
49748W        W21474  31.865  33.028  10.749
49749W        W21475  38.022  43.992  10.634
49750W        W21476   7.292   2.311  13.578
49751W        W21477  34.510   1.569   0.323
49752W        W21478  26.156   1.214  11.913
49753W        W21479  13.174  17.764  14.310
49754W        W21480  29.010  25.741  12.660
49755W        W21481  17.030   2.070   4.781
49756W        W21482   8.422  13.728   4.696
49757W        W21483  41.762  10.862  11.511
49758W        W21484  24.996  43.306   1.467
49759W        W21485   0.819  38.616  12.070
49760W        W21486  28.569  28.033  12.172
49761W        W21487  26.233   1.029   3.405
49762W        W21488   0.482  14.148   4.378
49763W        W21489  21.835  35.260  11.152
49764W        W21490  30.440  35.101  13.987
49765W        W21491   9.650  20.411   1.825
49766W        W21492  10.708   9.919   2.007
49767W        W21493  41.413  32.654  13.540
49768W        W21494   1.889  26.516   4.656
49769W        W21495   7.110  17.106  14.998
49770W        W21496   8.856   8.403  14.953
49771W        W21497  32.976  17.616  11.685
49772W        W21498  22.703   9.003  13.813
49773W        W21499  19.410  35.699   0.306
49774W        W21500  30.391   5.312   3.241
49775W        W21501  28.000  12.660   1.690
49776W        W21502  44.303  36.889   1.732
49777W        W21503   0.859  10.762   1.239
49778W        W21504   8.417  32.489  14.831
49779W        W21505  14.359  22.708  14.351
49780W        W21506  44.115  40.295   3.784
49781W        W21507  17.204  21.619   4.636
49782W        W21508  43.828  27.213  13.954
49783W        W21509  21.117  28.422  12.134
49784W        W21510  37.930  43.951  12.425
49785W        W21511   4.983  21.519  11.847
49786W        W21512   9.342  17.312  14.167
49787W        W21513   9.615   6.486   1.923
49788W        W21514  31.576  25.637   4.226
49789W        W21515  12.803  29.613   3.821
49790W        W21516   6.183  41.529   2.551
49791W        W21517  26.156  37.941   2.521
49792W        W21518  35.450   0.921   1.298
49793W        W21519  19.795  38.378  11.063
49794W        W21520  29.140  22.304   0.803
49795W        W21521   8.286   6.382   2.294
49796W        W21522  35.703  26.457  14.358
49797W        W21523  14.742  31.582   3.768
49798W        W21524  37.569   0.879   3.361
49799W        W21525   7.848  18.586   4.726
49800W        W21526  14.196  30.129  11.975
49801W        W21527  41.592  23.619   3.672
49802W        W21528  15.671  32.176   4.478
49803W        W21529  38.595  34.989   3.804
49804W        W21530   1.962  39.917  12.428
49805W        W21531   2.443  11.704  11.521
49806W        W21532  15.854   5.161   2.274
49807W        W21533  41.534  25.527  11.670
49808W        W21534  23.353  38.249   0.730
49809W        W21535  40.993   0.910  12.469
49810W        W21536   3.878  22.967  10.982
49811W        W21537  27.929  18.684  10.427
49812W        W21538  21.904  17.586  13.753
49813W        W21539  16.310  22.611   9.926
49814W        W21540  30.048  21.738   1.217
49815W        W21541   0.420   4.124  11.108
49816W        W21542  34.933  12.275  12.924
49817W        W21543  36.459   9.313  11.651
49818W        W21544  42.939  14.052   4.684
49819W        W21545  20.564  16.338   1.420
49820W        W21546   8.829  29.057   3.724
49821W        W21547  39.412   1.023   1.965
49822W        W21548   6.716  44.519  10.677
49823W        W21549  44.732   4.442  13.881
49824W        W21550  30.043  42.553  10.267
49825W        W21551  18.305  42.023  13.505
49826W        W21552   6.893  32.211   2.872
49827W        W21553  36.955  19.845   2.850
49828W        W21554  36.594  29.681   3.370
49829W        W21555  21.090  10.000   1.827
49830W        W21556  33.557  38.364   3.221
49831W        W21557  44.961  29.154  14.312
49832W        W21558   7.315  25.333  11.494
49833W        W21559  36.901  35.791   0.029
49834W        W21560   8.784  10.434   3.381
49835W        W21561  19.100  21.082   4.657
49836W        W21562  34.900  29.966   3.896
49837W        W21563   1.217  30.333  12.838
49838W        W21564  19.054  20.767   0.746
49839W        W21565  20.288  12.309  10.736
49840W        W21566  40.829  20.734   2.314
49841W        W21567  25.058  27.490   1.067
49842W        W21568  42.547  33.729   2.404
49843W        W21569   9.940  43.875  10.672
49844W        W21570   0.894   0.785   1.341
49845W        W21571  42.784  15.061  11.177
49846W        W21572  43.390   7.489  13.445
49847W        W21573  28.647  30.501   1.305
49848W        W21574  20.638  44.430  10.912
49849W        W21575  35.136  40.609   2.279
49850W        W21576  11.144  31.037  13.368
49851W        W21577  41.501   4.559   4.064
49852W        W21578  42.029  18.922  12.483
49853W        W21579  27.500  38.279   3.837
49854W        W21580   3.743   1.389  12.940
49855W        W21581  13.514  32.455   1.347
49856W        W21582  27.083  37.082   4.670
49857W        W21583  12.394  37.502   0.689
49858W        W21584  41.555  27.618   1.119
49859W        W21585  11.825  26.933  11.627
49860W        W21586   9.616  35.482   1.036
49861W        W21587  33.630  18.705   1.623
49862W        W21588  18.906   5.312   2.772
49863W        W21589   7.113  33.581   4.737
49864W        W21590  32.000  40.798  14.790
49865W        W21591  17.114   7.427  13.583
49866W        W21592  42.867  16.562   3.819
49867W        W21593  39.942  23.112  11.152
49868W        W21594  44.373  13.089   3.026
49869W        W21595  13.747   2.353  11.534
49870W        W21596  23.251  17.062   3.366
49871W        W21597   3.030  33.435   2.686
49872W        W21598  26.039  18.459  10.457
49873W        W21599  12.879  39.888   1.925
49874W        W21600  13.760  43.551  10.756
49875W        W21601  23.657   3.456  10.840
49876W        W21602  11.835  26.552  10.729
49877W        W21603   9.126  19.554   1.073
49878W        W21604  43.378  19.066  14.229
49879W        W21605  44.351  41.213  12.847
49880W        W21606  12.646  19.580   3.950
49881W        W21607  17.850   8.212  12.569
49882W        W21608   4.696  30.508  13.059
49883W        W21609   1.811   5.850   1.342
49884W        W21610   5.918  17.020  11.473
49885W        W21611  18.480   2.726  13.479
49886W        W21612  37.653   0.338  13.494
49887W        W21613  11.409  25.206  14.563
49888W        W21614  37.596  22.048   1.211
49889W        W21615  34.900  28.187   4.262
49890W        W21616  32.611  37.891  11.777
49891W        W21617  35.831  31.774   3.829
49892W        W21618  21.939   1.950   1.266
49893W        W21619  25.070   2.471   4.616
49894W        W21620  28.348  26.531  11.914
49895W        W21621  39.364  23.700  10.714
49896W        W21622  10.172  43.917   2.830
49897W        W21623   6.185   9.280   3.303
49898W        W21624   3.200  39.490  11.983
49899W        W21625  13.335  36.337  13.868
49900W        W21626  10.092  22.815  12.006
49901W        W21627   1.041  16.168  10.446
49902W        W21628  12.202  31.571  10.789
49903W        W21629  27.674  15.666   2.267
49904W        W21630  43.383   1.704   0.879
49905W        W21631   3.965  15.156  10.281
49906W        W21632  39.454   3.552   1.251
49907W        W21633  32.041  22.458   3.746
49908W        W21634   8.164  32.462  14.349
49909W        W21635  34.326  22.658   3.213
49910W        W21636   9.008  20.680  12.375
49911W        W21637  14.139  20.709  10.650
49912W        W21638  17.660  17.880   4.741
49913W        W21639  11.073  35.198   2.190
49914W        W21640  44.281   8.277  13.988
49915W        W21641  14.874   3.467   4.617
49916W        W21642  20.493  36.552  11.872
49917W        W21643  15.991  15.125  12.540
49918W        W21644  39.618  10.699  12.487
49919W        W21645  20.517  37.900   3.788
49920W        W21646  21.705  29.004   2.642
49921W        W21647  16.715  28.449   0.458
49922W        W21648  41.722   6.660   0.856
49923W        W21649   6.055   2.224  13.890
49924W        W21650  15.836  43.490   0.731
49925W        W21651  31.390  33.062  10.577
49926W        W21652   9.839  15.359   2.335
49927W        W21653  19.975  26.609   3.111
49928W        W21654  21.604  32.120  12.433
49929W        W21655   4.861  10.834   0.857
49930W        W21656  14.552  13.842  14.530
49931W        W21657  17.371   6.384  10.153
49932W        W21658  13.095  41.924   1.194
49933W        W21659   7.128  21.710  13.269
49934W        W21660  40.610  42.226  12.017
49935W        W21661  20.135  25.989   3.736
49936W        W21662  39.330  37.959   3.747
49937W        W21663  29.118  32.629   0.919
49938W        W21664  16.239  31.669   0.877
49939W        W21665   0.436  36.180  11.484
49940W        W21666   6.765  15.749  10.722
49941W        W21667  24.241  38.971   3.388
49942W        W21668  19.073  25.233  12.289
49943W        W21669  26.886  11.218   2.876
49944W        W21670  15.186   0.326  12.520
49945W        W21671  23.506  15.504  14.858
49946W        W21672  26.960  31.708  10.743
49947W        W21673  13.577  43.904  12.079
49948W        W21674  41.845  19.783  12.144
49949W        W21675  29.099  28.424  11.625
49950W        W21676  31.836  42.504   1.595
49951W        W21677  34.470  21.518  12.298
49952W        W21678  30.585  13.554  11.189
49953W        W21679  32.379  28.911  14.943
49954W        W21680   3.852  14.741   0.728
49955W        W21681  20.393  44.648   3.641
49956W        W21682  13.015  27.124   3.328
49957W        W21683  18.626  20.004  11.647
49958W        W21684  28.651   7.666   4.387
49959W        W21685  44.690  26.693  12.370
49960W        W21686  43.028  40.516   4.566
49961W        W21687  14.398  11.920   3.120
49962W        W21688  29.114   0.503  12.927
49963W        W21689  24.501  32.077  14.733
49964W        W21690  41.041  14.308   4.523
49965W        W21691   2.852  39.480  11.575
49966W        W21692  31.449  26.730  12.089
49967W        W21693  29.490  22.262  12.047
49968W        W21694   6.007   8.638   9.999
49969W        W21695  40.762   1.731   2.923
49970W        W21696  34.588   9.069   2.385
49971W        W21697  22.293  35.516  11.149
49972W        W21698  33.138  35.043   4.743
49973W        W21699  32.548  14.841  14.488
49974W        W21700   0.892  27.401  12.440
49975W        W21701  24.267  43.516  14.082
49976W        W21702  16.763  15.326   2.301
49977W        W21703   0.801   8.200  14.047
49978W        W21704   5.746  17.400  12.901
49979W        W21705   0.342  30.430  13.094
49980W        W21706  35.064  27.644  12.089
49981W        W21707   8.378  39.590  12.813
49982W        W21708  15.347  44.245  10.824
49983W        W21709  36.942  33.871   0.833
49984W        W21710  10.742  39.750  12.459
49985W        W21711   9.346  26.522   0.921
49986W        W21712  18.556  12.261  13.058
49987W        W21713  40.445   5.830   3.329
49988W        W21714  35.913  30.439  13.520
49989W        W21715  28.457  12.704  14.176
49990W        W21716  21.326  28.196  14.456
49991W        W21717  31.436  40.343   1.221
49992W        W21718  30.192   7.282  14.937
49993W        W21719   4.956  35.840   4.654
49994W        W21720  30.760  25.494  12.533
49995W        W21721  29.452  22.537   2.144
49996W        W21722  16.231  19.683  10.529
49997W        W21723  22.455  26.605  14.846
49998W        W21724   0.625  37.642   0.366
49999W        W21725   4.387  14.619   0.268
50000W        W21726  26.540  33.950   3.819
50001W        W21727  41.909   9.981  14.897
50002W        W21728  34.474  18.609  12.139
50003W        W21729  27.444  20.150  12.524
50004W        W21730   3.829   9.647   4.447
50005W        W21731  23.198   0.190  10.636
50006W        W21732  17.714  10.771  14.030
50007W        W21733  33.115  32.136  10.698
50008W        W21734  26.980  19.675  13.689
50009W        W21735  32.449  42.126   5.011
50010W        W21736  41.860  27.690  10.994
50011W        W21737  23.748  23.706  11.681
50012W        W21738  33.069  10.106  11.155
50013W        W21739  37.101   1.137   0.806
50014W        W21740  36.418   3.799   1.244
50015W        W21741  32.379  29.655   2.182
50016W        W21742  35.436   4.518   3.624
50017W        W21743  11.944  19.104  10.662
50018W        W21744  22.190  32.074   0.923
50019W        W21745  33.360   0.647  11.624
50020W        W21746  24.106  18.772   2.200
50021W        W21747  38.907  22.455  11.011
50022W        W21748  26.587  28.874   3.613
50023W        W21749  19.505  39.929   2.649
50024W        W21750  25.245  16.726   1.874
50025W        W21751  24.390  43.188   9.921
50026W        W21752  12.783  15.809   2.948
50027W        W21753   9.574  13.904  11.535
50028W        W21754  22.555  10.715   0.182
50029W        W21755  30.123  25.781   5.016
50030W        W21756  14.079  28.131   1.836
50031W        W21757  43.907  10.715  14.745
50032W        W21758   9.874  24.583  10.322
50033W        W21759   0.623  32.001   4.118
50034W        W21760  35.878  32.852   0.215
50035W        W21761  33.391  34.560   2.175
50036W        W21762  25.260  31.106  11.907
50037W        W21763  41.496   9.758  12.351
50038W        W21764  18.446  10.794   1.247
50039W        W21765  32.608   4.487  10.994
50040W        W21766  15.070  24.271   4.187
50041W        W21767  22.379  35.067   2.405
50042W        W21768  12.697  10.161   2.271
50043W        W21769   7.128  17.376  12.935
50044W        W21770  10.726  11.065   0.939
50045W        W21771  44.864  42.444  13.012
50046W        W21772  33.128  27.048  12.014
50047W        W21773  14.572  20.500   4.713
50048W        W21774   0.062  41.804   2.444
50049W        W21775   0.474  37.631  14.834
50050W        W21776  30.908  28.030   3.753
50051W        W21777  15.168  17.143  11.143
50052W        W21778  10.804   2.997  11.970
50053W        W21779   0.038   8.954   4.187
50054W        W21780  23.829   4.262  13.830
50055W        W21781  24.141  13.666   3.429
50056W        W21782   0.427  12.622   3.657
50057W        W21783  44.758   3.662   0.332
50058W        W21784  26.044  21.176  11.401
50059W        W21785  35.288  14.829  10.914
50060W        W21786   7.435   8.687   1.266
50061W        W21787  42.310  35.496  11.057
50062W        W21788  38.557   8.871  14.809
50063W        W21789  29.950  24.018   0.394
50064W        W21790  11.544   8.312  10.668
50065W        W21791  25.086  42.271  14.397
50066W        W21792  30.555  41.739   3.638
50067W        W21793  40.378  15.661   1.286
50068W        W21794  21.882   8.963  11.449
50069W        W21795   0.939  16.299   4.116
50070W        W21796  10.543   6.694  14.897
50071W        W21797  22.417   3.110  13.926
50072W        W21798  41.983  37.437  11.578
50073W        W21799  24.929  16.299  12.070
50074W        W21800  11.325  39.977   1.712
50075W        W21801  43.841  24.204  12.076
50076W        W21802  39.933  43.774  14.810
50077W        W21803  34.543  26.100   1.020
50078W        W21804  27.503  16.357  12.135
50079W        W21805  43.131  24.852   9.991
50080W        W21806  24.448   0.491   3.303
50081W        W21807   5.222  13.812   0.250
50082W        W21808  23.690  19.021   3.295
50083W        W21809   1.815   4.685  12.157
50084W        W21810  37.513  38.409   4.603
50085W        W21811  41.343  21.024   0.227
50086W        W21812   3.750  44.928  13.094
50087W        W21813  11.599  17.245  14.859
50088W        W21814  38.911  12.857  14.570
50089W        W21815  34.567  44.034   1.486
50090W        W21816  12.284  28.611   3.167
50091W        W21817  22.176  17.890  14.121
50092W        W21818  41.811  40.088  11.545
50093W        W21819  33.210  15.326  14.195
50094W        W21820   2.219  15.170  11.942
50095W        W21821  10.064  39.320   2.615
50096W        W21822  17.362  44.240  12.922
50097W        W21823  30.430   1.465   3.614
50098W        W21824  10.103  22.729  12.916
50099W        W21825  40.417  13.598   2.386
50100W        W21826  15.492  21.541  13.849
50101W        W21827   8.705   2.348   0.295
50102W        W21828  22.244  21.680  12.105
50103W        W21829  37.263   0.293   1.630
50104W        W21830  37.446   1.804   4.055
50105W        W21831  34.848   9.290   3.286
50106W        W21832  14.346  15.354   0.430
50107W        W21833  20.935  24.975   1.305
50108W        W21834   3.196  31.759   1.793
50109W        W21835  12.672   9.914   3.748
50110W        W21836  16.457  29.543  11.413
50111W        W21837  33.134  11.778  13.974
50112W        W21838  12.313  30.713   0.739
50113W        W21839  13.201  11.109  12.041
50114W        W21840  31.175  39.877  12.914
50115W        W21841  33.447   6.455   3.111
50116W        W21842  10.652  21.733   1.672
50117W        W21843  12.691  39.799   4.178
50118W        W21844   8.666  16.246  10.730
50119W        W21845  34.881  31.153   1.794
50120W        W21846  35.214  27.860  11.031
50121W        W21847  29.929  31.227   4.226
50122W        W21848  27.453  26.609   0.972
50123W        W21849  42.509  29.739  14.007
50124W        W21850  25.504  19.760  12.133
50125W        W21851  40.132  11.064  12.070
50126W        W21852  41.813  38.982   4.230
50127W        W21853  11.228  42.401   3.623
50128W        W21854  19.706  26.988   4.538
50129W        W21855  17.068  23.635  11.484
50130W        W21856  37.097  21.156   2.342
50131W        W21857  43.310  44.028  11.436
50132W        W21858  19.720  42.627  10.067
50133W        W21859  29.374  32.979   2.369
50134W        W21860  28.927  31.049   4.190
50135W        W21861   5.220  32.319  10.467
50136W        W21862   7.434   6.992   3.722
50137W        W21863  11.633  24.148  10.398
50138W        W21864  44.857  32.562   1.481
50139W        W21865  10.874  35.226   3.337
50140W        W21866  20.089   4.187   0.272
50141W        W21867  21.518   5.820  11.725
50142W        W21868  41.170   3.496   2.865
50143W        W21869   0.823  36.599  10.798
50144W        W21870   7.849  10.257   0.681
50145W        W21871   5.627  30.509   4.057
50146W        W21872  42.027   6.461  12.315
50147W        W21873  11.421  26.536  14.807
50148W        W21874   1.996  18.207  11.455
50149W        W21875   8.200  43.522  11.552
50150W        W21876  14.145  15.536   2.837
50151W        W21877  25.732  25.603   2.407
50152W        W21878  14.274   9.979  11.700
50153W        W21879  36.340  22.128   1.900
50154W        W21880  34.679   1.276   4.184
50155W        W21881  15.877  41.836   4.725
50156W        W21882  39.631  43.779   2.885
50157W        W21883  10.342  14.060   0.365
50158W        W21884  35.838  11.761   3.238
50159W        W21885   4.831   1.332   1.351
50160W        W21886  34.310  36.385  14.767
50161W        W21887   5.685   9.173  11.550
50162W        W21888  14.866  13.625  13.780
50163W        W21889  33.385  38.385  14.873
50164W        W21890  16.522   8.119  13.851
50165W        W21891  32.933  35.579  12.009
50166W        W21892  34.792   8.455  13.988
50167W        W21893   9.774  18.469  11.526
50168W        W21894  42.899  30.036   0.757
50169W        W21895  38.899  12.781   4.548
50170W        W21896   4.400   9.819   0.383
50171W        W21897  26.629  11.762  11.650
50172W        W21898  30.580  25.293   1.891
50173W        W21899  21.698  12.278  12.578
50174W        W21900   8.010   0.432   3.683
50175W        W21901  32.659  35.509  13.003
50176W        W21902  25.963  29.786  12.167
50177W        W21903  16.728   0.523   1.776
50178W        W21904  34.895  13.111   1.108
50179W        W21905  36.937  19.993   4.457
50180W        W21906  37.550  24.187   1.355
50181W        W21907  25.402  40.113   3.525
50182W        W21908  21.407  21.908  13.741
50183W        W21909  24.951   6.279   4.603
50184W        W21910  42.287  38.457   3.615
50185W        W21911  32.446  32.146  13.310
50186W        W21912  24.261  21.534  12.048
50187W        W21913  16.640   9.877   0.206
50188W        W21914  38.572   6.484   2.266
50189W        W21915  25.298  17.076   3.167
50190W        W21916  25.068  17.424  14.146
50191W        W21917   3.183  25.152   0.643
50192W        W21918  33.628  31.619   0.866
50193W        W21919  23.973  27.991   3.891
50194W        W21920  24.168  35.883  10.120
50195W        W21921  35.080  41.443   3.768
50196W        W21922  37.770  22.423  13.543
50197W        W21923  40.445   2.978   4.170
50198W        W21924  28.998   8.200   2.745
50199W        W21925  41.248   0.865  13.907
50200W        W21926  43.073  19.618  13.409
50201W        W21927  13.934  12.830  11.533
50202W        W21928  26.219  29.359  12.133
50203W        W21929  32.021  19.743  13.080
50204W        W21930  29.522  27.482   0.252
50205W        W21931  34.435  36.485  13.908
50206W        W21932  44.013  41.960  11.883
50207W        W21933  18.991  21.660  11.076
50208W        W21934  36.604  19.064  11.153
50209W        W21935  35.131  25.900  13.390
50210W        W21936   0.782  32.503   4.255
50211W        W21937  18.368   3.575   3.257
50212W        W21938  31.516  36.878  11.144
50213W        W21939  32.671   2.176  14.369
50214W        W21940  40.572  35.047   3.188
50215W        W21941  22.308  44.450   0.402
50216W        W21942  19.153  24.474   4.206
50217W        W21943  18.864  23.143   0.737
50218W        W21944  23.580  31.410   3.724
50219W        W21945  44.010   4.255   4.531
50220W        W21946   2.903  12.850   4.958
50221W        W21947   4.270  11.577   1.975
50222W        W21948  37.612   8.239   2.782
50223W        W21949  16.241  39.939   0.223
50224W        W21950  14.786  42.801   1.662
50225W        W21951  24.414   3.263   2.692
50226W        W21952  35.222  29.090  12.856
50227W        W21953  13.332  39.015   4.703
50228W        W21954  11.823  11.440  14.323
50229W        W21955  43.264  19.533   0.410
50230W        W21956  12.332   4.837  10.765
50231W        W21957  31.105  30.150   1.657
50232W        W21958   7.100  19.906  11.965
50233W        W21959  41.961  35.831  14.419
50234W        W21960  16.364  34.893  11.105
50235W        W21961  28.767  42.416  13.323
50236W        W21962  29.408   8.753  10.006
50237W        W21963  33.889   3.004  11.109
50238W        W21964   0.737  40.293   1.411
50239W        W21965  21.590  42.552  12.403
50240W        W21966   4.273  14.072  11.956
50241W        W21967  14.012  20.984   4.716
50242W        W21968  28.395  11.067   1.356
50243W        W21969   6.894   2.776   2.260
50244W        W21970  11.273  17.001   1.648
50245W        W21971   4.125  28.468  14.320
50246W        W21972  26.526  10.186  14.000
50247W        W21973  41.006  20.735   4.200
50248W        W21974  16.778  19.266   0.452
50249W        W21975   7.675   7.152  13.397
50250W        W21976  19.717  20.801   0.486
50251W        W21977   6.458  22.214  12.525
50252W        W21978   3.993   5.795  13.101
50253W        W21979  33.468  36.101  12.109
50254W        W21980  15.589  28.453  14.466
50255W        W21981  31.464  12.554  12.065
50256W        W21982  20.959  39.858  11.045
50257W        W21983  11.104  18.170  14.791
50258W        W21984   2.501  35.968  12.890
50259W        W21985  16.144  37.061   3.336
50260W        W21986  25.996   3.295   2.460
50261W        W21987  33.632  20.703  13.497
50262W        W21988  26.928  37.297   0.484
50263W        W21989  38.097  19.413  12.912
50264W        W21990  38.281  10.222   3.821
50265W        W21991  22.427  34.955   1.429
50266W        W21992  32.970  21.317  14.518
50267W        W21993  40.720  26.563  14.475
50268W        W21994   7.653   7.421  12.507
50269W        W21995  41.867  27.374   0.777
50270W        W21996  19.147  44.947   3.304
50271W        W21997  30.616  28.203   0.430
50272W        W21998   5.421   6.286  12.941
50273W        W21999  26.352  18.760   3.704
50274W        W22000  14.148   5.811   0.888
50275W        W22001   4.834  28.198   2.051
50276W        W22002  16.168  39.026   0.747
50277W        W22003  20.576  13.515   4.081
50278W        W22004  35.166   4.332   4.078
50279W        W22005  25.122  24.996  12.012
50280W        W22006  24.813  26.022   4.325
50281W        W22007  35.821   9.839  10.746
50282W        W22008  43.700  41.500   1.205
50283W        W22009   4.431   1.262   2.833
50284W        W22010   4.829  42.496  13.544
50285W        W22011   2.252  36.018   1.951
50286W        W22012  36.653  23.530   1.242
50287W        W22013   0.965  13.329   2.334
50288W        W22014  42.792  14.763  10.601
50289W        W22015   0.797   1.244  14.024
50290W        W22016  42.432   0.744  12.580
50291W        W22017  39.344  44.758   2.045
50292W        W22018   7.434  38.325   4.641
50293W        W22019  27.638   6.715   4.158
50294W        W22020  22.625  32.133  12.324
50295W        W22021  21.409  42.754   0.001
50296W        W22022   3.768  10.628  14.793
50297W        W22023  18.152  31.853   3.262
50298W        W22024   1.298  41.258  13.512
50299W        W22025  31.859  34.575   4.574
50300W        W22026  12.289   9.809  11.568
50301W        W22027  22.615  35.401  10.704
50302W        W22028  15.261   7.412   0.472
50303W        W22029  34.674  29.954   2.360
50304W        W22030   5.247  19.647   4.109
50305W        W22031   5.272  33.412  10.568
50306W        W22032  29.045  28.545   1.940
50307W        W22033  28.245  26.985   2.205
50308W        W22034  32.486  13.379   1.236
50309W        W22035  35.242   1.334   1.033
50310W        W22036   3.383  44.036  10.501
50311W        W22037  13.197  38.877   1.222
50312W        W22038  15.637  21.295  12.098
50313W        W22039  24.634  38.934  11.453
50314W        W22040  22.171  15.408  12.139
50315W        W22041  27.038   9.188  12.445
50316W        W22042  44.369  29.901  10.473
50317W        W22043  14.776   9.429   2.265
50318W        W22044  42.729  36.420  11.213
50319W        W22045  42.021  17.735  14.361
50320W        W22046  31.891  10.108  14.432
50321W        W22047  24.549  11.391   2.934
50322W        W22048   8.934   5.715   4.504
50323W        W22049  44.231  18.039  14.691
50324W        W22050  21.519  39.382   1.331
50325W        W22051  12.640  31.858  12.005
50326W        W22052   0.061  30.928  13.353
50327W        W22053  28.638   0.789   0.766
50328W        W22054   7.307   0.855   0.732
50329W        W22055  42.574  17.271  12.377
50330W        W22056  42.075  13.328   4.038
50331W        W22057  17.842  33.056   0.304
50332W        W22058  43.062  30.301   1.421
50333W        W22059  43.287  32.082   2.949
50334W        W22060  36.841  12.625   4.102
50335W        W22061  38.830  13.862  12.720
50336W        W22062   9.229  43.094   3.853
50337W        W22063  40.891  34.971   4.873
50338W        W22064   2.779  27.928   1.543
50339W        W22065  39.818  17.148  12.694
50340W        W22066  31.554  30.058  11.984
50341W        W22067  28.848   3.370  11.866
50342W        W22068  19.736   3.681   5.015
50343W        W22069  11.803  23.702  12.373
50344W        W22070  28.743  13.329  14.103
50345W        W22071  33.414  35.898   1.290
50346W        W22072  36.389  21.185  11.158
50347W        W22073  40.084  28.626   4.722
50348W        W22074  27.237  25.912   1.812
50349W        W22075  21.060  18.763  12.611
50350W        W22076  35.571   6.347  10.631
50351W        W22077  15.813  26.996  12.636
50352W        W22078  44.600  43.235  12.019
50353W        W22079  42.130  22.212  13.941
50354W        W22080  42.997  15.013  13.018
50355W        W22081  38.490  27.932   0.301
50356W        W22082  13.422  31.942  11.382
50357W        W22083  16.384  32.666  11.659
50358W        W22084  30.958  20.728   1.351
50359W        W22085  19.176   0.750   2.736
50360W        W22086  42.880  18.607   4.656
50361W        W22087   6.309  28.973   1.891
50362W        W22088  13.903  29.000   0.842
50363W        W22089  21.640  42.311  10.924
50364W        W22090  43.014  32.027   1.841
50365W        W22091  24.484  12.137  10.743
50366W        W22092  44.684  16.731  13.931
50367W        W22093   7.839   4.286  14.943
50368W        W22094  29.145  32.505   2.242
50369W        W22095  37.393  26.514  10.856
50370W        W22096   8.730  14.654   4.279
50371W        W22097  31.666  23.001  11.944
50372W        W22098   9.739  36.124   3.154
50373W        W22099  26.970  13.774   1.306
50374W        W22100  37.518  39.099  14.957
50375W        W22101  15.091  27.525  12.068
50376W        W22102  16.571   1.956  10.516
50377W        W22103  39.015  36.925   3.271
50378W        W22104  40.358   9.342  12.993
50379W        W22105  12.139  11.467  11.967
50380W        W22106  20.241  15.778   2.255
50381W        W22107   0.206  10.448   2.670
50382W        W22108   9.393  37.422   0.334
50383W        W22109  31.304  13.324  13.980
50384W        W22110  41.940  32.852   4.620
50385W        W22111  21.158  33.724   0.527
50386W        W22112  14.381  30.602   3.195
50387W        W22113  11.134  15.104   1.622
50388W        W22114  34.680  23.021   3.102
50389W        W22115  30.377   6.657  14.802
50390W        W22116  38.795  22.568  14.412
50391W        W22117   8.415   6.612   2.758
50392W        W22118   1.510  34.047  11.061
50393W        W22119  44.864   0.362  13.549
50394W        W22120  15.393   8.899  10.660
50395W        W22121  17.306   1.795   2.273
50396W        W22122  37.775  39.958   1.810
50397W        W22123   9.112  22.558  11.952
50398W        W22124  22.274   6.269  11.540
50399W        W22125  20.025  20.591  12.147
50400W        W22126  16.787  36.471  11.471
50401W        W22127  38.942   4.356   1.198
50402W        W22128  10.776  22.288  14.718
50403W        W22129  15.208  34.118   1.832
50404W        W22130  42.949  31.382   2.135
50405W        W22131  15.704  21.930   4.491
50406W        W22132  17.676  35.229   4.554
50407W        W22133  44.274  12.203   4.421
50408W        W22134  29.073  28.375   2.892
50409W        W22135  30.089  22.300   2.818
50410W        W22136  24.516   2.826   3.963
50411W        W22137   9.717  20.605  13.000
50412W        W22138  34.425  42.414  13.477
50413W        W22139  42.817  20.911   3.612
50414W        W22140  20.521  39.023  12.557
50415W        W22141   7.675  38.721   4.427
50416W        W22142  36.137   4.442   2.817
50417W        W22143  39.357  18.195  12.821
50418W        W22144  28.134   1.526   2.345
50419W        W22145   3.016  11.751   2.702
50420W        W22146  17.512  18.624   4.125
50421W        W22147  20.169  30.685  14.443
50422W        W22148  28.708  31.698  12.202
50423W        W22149  33.718  17.611   3.717
50424W        W22150   6.386  31.145   3.626
50425W        W22151  26.109  32.606  13.380
50426W        W22152   2.865  31.973  13.621
50427W        W22153  17.240  12.754  11.557
50428W        W22154  33.376  10.791   3.099
50429W        W22155  25.051   1.495  14.898
50430W        W22156  30.958  44.719   4.721
50431W        W22157   6.832  12.873  14.177
50432W        W22158  30.392  17.827  13.536
50433W        W22159  38.925  18.571  10.992
50434W        W22160  38.393  21.243   2.861
50435W        W22161   3.966  15.643   4.634
50436W        W22162  41.026  13.653   0.188
50437W        W22163  21.798  12.844  11.623
50438W        W22164  14.119   0.344  12.888
50439W        W22165  38.948  40.558  12.877
50440W        W22166   9.824  26.189  13.960
50441W        W22167  33.945  36.934   4.349
50442W        W22168  12.579  18.330   1.341
50443W        W22169  33.402  42.848   4.514
50444W        W22170  10.018   4.069   4.214
50445W        W22171  28.014  21.460   0.832
50446W        W22172  28.656  24.046  13.929
50447W        W22173  33.726  13.272  14.096
50448W        W22174  21.222   0.061  11.046
50449W        W22175  26.021  32.470  11.458
50450W        W22176  36.906  36.329  11.910
50451W        W22177  17.001  37.370  10.602
50452W        W22178  30.073  22.571   4.087
50453W        W22179  36.533  17.602  14.955
50454W        W22180   8.870  37.621   0.372
50455W        W22181  16.406  27.968   0.367
50456W        W22182  38.364  38.071   1.781
50457W        W22183  32.546  33.864  14.384
50458W        W22184   6.639  14.198  12.423
50459W        W22185   9.178  37.095  12.621
50460W        W22186   5.404  14.315   3.600
50461W        W22187  41.212  20.448   3.545
50462W        W22188  33.735  26.345   1.435
50463W        W22189  12.360  40.570  14.961
50464W        W22190  10.391  10.365  14.266
50465W        W22191  16.352  12.761  13.911
50466W        W22192  35.277  25.147   4.539
50467W        W22193   1.757  12.213   0.721
50468W        W22194  14.860  43.929   2.010
50469W        W22195  44.176  40.915  11.739
50470W        W22196  13.174  25.910  12.437
50471W        W22197   4.128  26.939   1.642
50472W        W22198  23.620  24.770  14.326
50473W        W22199  43.481   9.794   3.569
50474W        W22200  35.054   1.264   1.520
50475W        W22201  26.698   4.414  13.844
50476W        W22202  18.598  32.416  11.940
50477W        W22203   8.470  30.179  14.236
50478W        W22204  12.319   6.260  12.577
50479W        W22205   2.417   8.320  12.968
50480W        W22206  21.751   2.540  14.325
50481W        W22207  18.676   1.909   0.721
50482W        W22208  13.695  19.000   0.282
50483W        W22209  23.603  25.819   3.513
50484W        W22210   1.085  13.818   0.486
50485W        W22211  23.469  38.994  11.073
50486W        W22212  19.590  22.778   3.031
50487W        W22213   6.314  31.190  12.114
50488W        W22214  10.953   0.801  14.250
50489W        W22215   0.016  35.913  11.617
50490W        W22216  18.584  42.802   4.097
50491W        W22217  33.161  37.927  14.948
50492W        W22218  25.449  41.079  12.496
50493W        W22219  13.277   0.767  12.822
50494W        W22220  14.541  33.075  13.006
50495W        W22221  18.143   9.277   1.233
50496W        W22222  38.646  39.085   1.120
50497W        W22223  17.595  28.105   2.378
50498W        W22224  10.857  35.941   4.590
50499W        W22225  40.957  24.252  11.951
50500W        W22226   0.833  13.291   1.405
50501W        W22227  42.048  38.263   0.870
50502W        W22228  38.798  15.254  12.513
50503W        W22229  30.932  39.742   4.164
50504W        W22230  18.047  42.489  13.062
50505W        W22231  37.383  36.901  13.477
50506W        W22232  36.747  14.166   1.499
50507W        W22233  41.993  11.748   1.323
50508W        W22234  18.050  23.565  11.645
50509W        W22235  35.630  36.290   3.643
50510W        W22236  32.431  20.352  13.911
50511W        W22237  34.659  32.510  14.290
50512W        W22238  31.950   8.705   4.060
50513W        W22239  27.677  19.501  13.135
50514W        W22240  20.459   5.811   1.648
50515W        W22241  43.012   6.805  12.885
50516W        W22242  13.050   4.341   0.594
50517W        W22243  21.756  20.436   4.111
50518W        W22244  26.205  28.573   5.072
50519W        W22245  18.831  41.946   2.035
50520W        W22246   3.662  26.569   1.671
50521W        W22247  11.666  28.902  11.223
50522W        W22248  20.447  25.772   2.161
50523W        W22249  10.327  31.670   3.274
50524W        W22250  34.381   4.463   4.469
50525W        W22251  42.311  23.967   2.303
50526W        W22252  26.131  43.223   5.387
50527W        W22253  17.127  26.037  13.482
50528W        W22254   1.182  16.626   4.447
50529W        W22255   2.250  32.502  12.519
50530W        W22256  18.797   0.417   0.422
50531W        W22257  17.048  42.420  12.158
50532W        W22258  44.771  20.652   1.577
50533W        W22259  25.641  23.745   1.048
50534W        W22260  10.082   2.351   0.777
50535W        W22261  42.173  35.407  13.500
50536W        W22262  20.667  42.919   2.159
50537W        W22263  41.275  11.883   3.079
50538W        W22264   3.683  37.236   0.390
50539W        W22265  39.820   4.471   0.328
50540W        W22266  12.734  34.549   3.167
50541W        W22267  33.441  38.536  13.985
50542W        W22268  23.099   9.758   3.999
50543W        W22269  16.015  11.406  13.734
50544W        W22270  16.059  17.416  11.902
50545W        W22271  34.570  38.408  10.676
50546W        W22272  27.005   2.662  14.965
50547W        W22273  22.683  34.884  10.641
50548W        W22274   4.692  16.630   3.379
50549W        W22275  33.412   5.463   4.147
50550W        W22276  30.035  41.323  10.666
50551W        W22277  17.625  27.116  13.419
50552W        W22278   9.068  29.913  14.910
50553W        W22279  40.440  29.473  10.784
50554W        W22280  32.875  42.997  12.973
50555W        W22281   7.848  10.748   0.946
50556W        W22282  42.852   1.268   0.206
50557W        W22283  41.991   3.069  11.133
50558W        W22284  40.345   9.355   3.843
50559W        W22285   4.726  23.495  10.648
50560W        W22286  40.918  12.815   3.445
50561W        W22287  13.047  44.583   1.028
50562W        W22288  30.523  42.537   3.278
50563W        W22289  22.203  14.114  11.529
50564W        W22290  39.118   5.440   0.551
50565W        W22291   2.214  29.091   1.210
50566W        W22292   8.754  33.615  12.899
50567W        W22293  41.444  39.532  14.772
50568W        W22294  14.615  31.059   3.101
50569W        W22295  22.691  14.734  12.503
50570W        W22296  19.192   6.052  10.687
50571W        W22297  29.320  22.043   2.413
50572W        W22298  16.069  20.666  12.709
50573W        W22299  35.418  21.310  14.731
50574W        W22300  40.099  30.066   4.423
50575W        W22301   0.880  41.826   4.149
50576W        W22302  41.529  20.105   3.779
50577W        W22303   5.352  21.208  14.000
50578W        W22304  20.179  37.350   0.206
50579W        W22305  40.077  16.737  12.856
50580W        W22306  21.168   5.230   0.968
50581W        W22307  34.045  19.783  14.059
50582W        W22308  38.014   6.579  14.965
50583W        W22309  17.735   3.848  14.536
50584W        W22310   4.848   7.867  13.950
50585W        W22311   2.657  10.443  13.466
50586W        W22312  35.439  15.729  14.907
50587W        W22313  20.660  36.659   2.947
50588W        W22314   7.172  15.246   1.942
50589W        W22315  21.561  21.823  13.265
50590W        W22316  15.134  34.685   3.125
50591W        W22317  30.566  16.600   3.648
50592W        W22318  16.134   9.709   3.317
50593W        W22319  35.213  26.863   2.297
50594W        W22320  26.532  18.479   3.313
50595W        W22321  42.238  36.578  11.175
50596W        W22322  12.158  24.591  14.831
50597W        W22323  42.932  23.725   3.063
50598W        W22324   4.479  13.825  10.521
50599W        W22325  39.999   8.663  14.310
50600W        W22326  24.852  13.140   0.328
50601W        W22327  28.879  41.381   3.113
50602W        W22328   5.786   2.982   2.378
50603W        W22329  35.451  12.558   3.013
50604W        W22330  42.431  43.252  14.190
50605W        W22331  26.503  35.027  14.142
50606W        W22332  30.073   4.969  14.396
50607W        W22333  36.947   8.335  13.104
50608W        W22334  38.777  38.473   1.080
50609W        W22335  34.140  38.727  11.200
50610W        W22336  33.080  27.639  11.512
50611W        W22337  40.692  17.653   4.029
50612W        W22338   1.735  36.786   3.207
50613W        W22339  35.367  20.398  12.946
50614W        W22340   7.708  44.306  10.719
50615W        W22341   6.326  21.121   1.090
50616W        W22342  31.211   3.239   0.029
50617W        W22343  24.655  15.346   1.852
50618W        W22344   8.550  13.115  14.928
50619W        W22345  35.916  40.731  11.134
50620W        W22346   9.816  39.692  12.459
50621W        W22347  44.173  39.389   2.213
50622W        W22348  10.173  29.481   1.370
50623W        W22349   5.761  16.048   5.185
50624W        W22350  35.860  35.853  11.575
50625W        W22351   4.021  10.144  14.303
50626W        W22352  25.734   2.280  10.718
50627W        W22353  26.190  39.042   1.715
50628W        W22354  11.701  42.958  10.275
50629W        W22355   4.635  31.780   2.766
50630W        W22356  16.694   3.977   0.442
50631W        W22357   3.720  33.057   0.978
50632W        W22358  14.045  12.177   0.488
50633W        W22359  12.872   6.206  14.868
50634W        W22360  41.443  17.855  11.032
50635W        W22361  36.967  33.513  14.471
50636W        W22362  42.583  12.073  13.042
50637W        W22363  37.134   3.691  13.266
50638W        W22364  31.919  18.263  13.821
50639W        W22365   4.253  13.565  12.007
50640W        W22366  28.544  40.435   4.490
50641W        W22367  36.599   8.560   4.639
50642W        W22368   9.807  43.148  11.107
50643W        W22369  43.397  29.348  13.973
50644W        W22370  17.533  32.033  12.409
50645W        W22371  43.988  28.037  11.113
50646W        W22372  29.664  17.198   2.812
50647W        W22373  20.088  37.982  11.233
50648W        W22374  21.271  21.744   2.800
50649W        W22375  26.265  13.728  10.778
50650W        W22376  24.773   3.687   3.345
50651W        W22377  35.106  41.874   0.021
50652W        W22378   6.821   6.108  12.502
50653W        W22379  27.590  30.176   1.998
50654W        W22380   5.345   8.131  10.980
50655W        W22381  39.864  34.835   2.793
50656W        W22382   0.246  39.609  14.475
50657W        W22383  24.109   7.150   0.346
50658W        W22384  35.990   7.160  12.877
50659W        W22385  17.507  44.330  12.446
50660W        W22386  25.132   8.303   3.275
50661W        W22387  17.598  22.104  12.382
50662W        W22388   7.273  16.801   1.267
50663W        W22389  16.751   3.915   3.629
50664W        W22390  18.348  21.082  11.076
50665W        W22391  37.065  44.989  14.002
50666W        W22392  40.456  35.620   1.774
50667W        W22393  17.206  13.429  13.887
50668W        W22394  39.423   6.453  11.194
50669W        W22395  27.700  31.034  11.616
50670W        W22396  15.895  42.774   0.213
50671W        W22397   9.199  38.126   2.591
50672W        W22398  41.056  32.494   3.820
50673W        W22399  32.531  19.257  11.026
50674W        W22400  26.692  14.598  13.007
50675W        W22401   2.038  13.757   3.690
50676W        W22402   7.297  35.561   2.514
50677W        W22403  10.789  13.001   1.191
50678W        W22404  43.009  24.340  14.944
50679W        W22405  35.007  37.288  12.479
50680W        W22406  14.849  36.540   4.519
50681W        W22407  43.760  26.752  10.590
50682W        W22408  39.836  24.575  12.152
50683W        W22409  24.499   3.687   1.404
50684W        W22410  32.128   6.758   2.430
50685W        W22411  33.542  41.802   0.853
50686W        W22412   7.332  43.715  14.419
50687W        W22413  12.806  37.903  12.398
50688W        W22414  30.497   8.307   0.458
50689W        W22415  14.247  21.235  10.604
50690W        W22416   1.023  17.598   4.547
50691W        W22417  17.205  35.562  14.235
50692W        W22418  26.051   4.720  12.495
50693W        W22419   7.469  10.139   2.257
50694W        W22420  19.469  40.380  11.557
50695W        W22421  13.194   4.364  13.355
50696W        W22422  25.359  33.379   4.575
50697W        W22423  42.044  34.441  11.581
50698W        W22424  39.356   7.772   0.993
50699W        W22425  11.413  31.105  10.711
50700W        W22426   8.833   7.315   2.327
50701W        W22427  37.437  39.361   1.823
50702W        W22428  38.875   0.932   2.625
50703W        W22429  26.657  37.867  14.534
50704W        W22430   4.219  33.249  11.964
50705W        W22431  31.040  43.419  12.072
50706W        W22432   8.843  43.514   3.198
50707W        W22433   2.516  25.407   1.178
50708W        W22434  18.669  12.918  14.925
50709W        W22435  34.119   3.445   2.343
50710W        W22436  43.187  11.768   2.830
50711W        W22437  14.892  13.537  14.284
50712W        W22438  32.835  35.140  10.431
50713W        W22439  13.831  28.336  14.532
50714W        W22440  19.866  11.785  11.228
50715W        W22441  24.538  15.859   2.298
50716W        W22442  31.982  15.025   4.489
50717W        W22443   4.696   5.218   3.245
50718W        W22444  27.088  23.019   3.779
50719W        W22445  29.819  29.964  14.829
50720W        W22446  26.166  24.577   1.204
50721W        W22447  34.843  25.043  14.730
50722W        W22448  39.846  27.047  14.997
50723W        W22449  16.185  35.981  11.718
50724W        W22450  15.773  33.555  12.759
50725W        W22451  38.847  28.613  12.581
50726W        W22452  32.089  28.735  11.135
50727W        W22453   1.525  11.163  11.240
50728W        W22454  21.718  33.472   3.340
50729W        W22455  27.587   5.930  11.410
50730W        W22456  13.750  40.905  13.780
50731W        W22457  15.397  28.964   1.920
50732W        W22458  43.515  43.985  14.234
50733W        W22459  21.094  32.180  10.650
50734W        W22460  35.764   4.267   3.163
50735W        W22461  39.971  38.881   1.351
50736W        W22462  11.682  16.923   1.299
50737W        W22463  30.522  39.342   0.257
50738W        W22464  31.192  37.813  13.295
50739W        W22465   1.856  12.839  12.927
50740W        W22466  35.365  27.710   1.267
50741W        W22467  20.747  25.972   5.462
50742W        W22468  43.377  30.363  13.626
50743W        W22469  23.254  26.569   0.387
50744W        W22470  10.266  11.286   0.692
50745W        W22471  14.535  16.200  13.343
50746W        W22472  37.400  35.033   1.441
50747W        W22473  18.720  13.852   1.261
50748W        W22474   7.943  16.683   2.479
50749W        W22475  15.432   7.694   0.087
50750W        W22476  21.087  26.966   2.023
50751W        W22477  34.680  37.073  14.745
50752W        W22478  37.691  41.380  14.869
50753W        W22479  38.091  29.182   0.823
50754W        W22480  13.315  39.556  13.419
50755W        W22481  32.774  38.400   1.850
50756W        W22482   2.385  43.006   1.756
50757W        W22483  26.917   8.895  10.026
50758W        W22484  27.130  32.010  12.990
50759W        W22485  41.820  35.339  13.065
50760W        W22486  40.481  44.869  10.979
50761W        W22487  19.522  42.240  11.436
50762W        W22488  37.516  32.092  10.263
50763W        W22489  41.316  42.904  14.767
50764W        W22490  11.579  40.523   4.560
50765W        W22491   6.652  23.530   1.452
50766W        W22492  29.655  17.249  13.057
50767W        W22493  22.435  35.987   4.931
50768W        W22494  32.969  16.652   2.602
50769W        W22495  37.132  38.912   1.834
50770W        W22496  14.675  25.089   2.664
50771W        W22497  43.821  32.063   2.793
50772W        W22498  32.590  31.054  14.805
50773W        W22499  21.526  40.957   3.444
50774W        W22500  16.297  42.013  13.919
50775W        W22501  23.665  19.165  13.484
50776W        W22502   0.299   0.096  14.318
50777W        W22503   6.347  39.225  13.946
50778W        W22504  43.384  18.109   0.027
50779W        W22505  26.069  44.318  13.003
50780W        W22506   6.968   3.705   4.490
50781W        W22507  20.298  35.332   4.159
50782W        W22508  20.064  28.696  11.160
50783W        W22509  39.249  25.665  10.688
50784W        W22510   2.287  11.265   4.115
50785W        W22511  43.052  31.550  12.532
50786W        W22512  29.662  31.432   1.425
50787W        W22513  41.807  23.784  12.391
50788W        W22514  23.732  43.416   3.103
50789W        W22515  13.738  20.682  14.073
50790W        W22516  19.710  34.008  11.116
50791W        W22517   5.951  23.718  10.719
50792W        W22518  41.970  32.491   3.256
50793W        W22519   1.762  29.419  14.421
50794W        W22520  10.829  30.207   3.113
50795W        W22521   4.221  37.830   1.775
50796W        W22522   7.372  34.529   1.241
50797W        W22523  17.384  34.127  13.132
50798W        W22524  25.161  23.527  13.317
50799W        W22525   2.747  12.119  11.630
50800W        W22526  20.285  32.554   3.354
50801W        W22527   7.140  22.018  14.232
50802W        W22528  31.452  12.611   0.422
50803W        W22529  41.526  43.325  14.477
50804W        W22530  24.611   5.865  14.062
50805W        W22531   1.361  14.997   2.889
50806W        W22532  19.600  22.550   1.692
50807W        W22533  22.705   4.000   3.119
50808W        W22534  33.041  17.609  14.425
50809W        W22535  40.273   3.895  13.074
50810W        W22536  15.909  30.522   3.336
50811W        W22537  38.372  34.856  12.335
50812W        W22538  21.964   5.343   2.859
50813W        W22539  34.967  12.536  14.861
50814W        W22540  27.974  25.656   4.877
50815W        W22541  42.969  17.749  13.401
50816W        W22542  23.699   3.304   2.386
50817W        W22543  17.704  39.327  12.810
50818W        W22544  17.299  38.862  11.900
50819W        W22545  11.650  20.600   3.793
50820W        W22546  11.115  44.214   3.213
50821W        W22547   1.491  36.874   1.001
50822W        W22548   1.082   1.890   1.014
50823W        W22549  12.362  27.409  12.869
50824W        W22550  27.078  23.755  11.149
50825W        W22551  29.473  10.153  10.319
50826W        W22552  26.006  35.423   1.118
50827W        W22553   6.842  10.176   2.622
50828W        W22554  27.093  44.212  11.625
50829W        W22555   8.276  10.147  14.883
50830W        W22556  36.888  26.541  10.719
50831W        W22557   9.673  32.447   4.860
50832W        W22558  32.284  31.419   0.402
50833W        W22559  31.626   9.826  11.092
50834W        W22560  20.376  18.695  14.203
50835W        W22561  34.482  14.346  11.823
50836W        W22562  17.526  36.169   2.596
50837W        W22563  27.617  32.563   3.782
50838W        W22564  23.645   7.879   3.725
50839W        W22565  35.113  20.176  11.925
50840W        W22566  22.791  28.951   0.332
50841W        W22567  26.471  28.024  12.480
50842W        W22568  39.852  40.422  12.770
50843W        W22569  17.802  34.624   1.746
50844W        W22570   2.278   4.562   1.927
50845W        W22571  43.042  15.473   0.783
50846W        W22572   9.865   3.158  13.912
50847W        W22573  11.819  35.493   2.307
50848W        W22574   8.839   4.233   0.509
50849W        W22575  24.505  42.036  11.584
50850W        W22576   8.035  41.900  11.670
50851W        W22577  44.081  42.003  13.112
50852W        W22578  21.211  29.882   1.923
50853W        W22579  25.657  20.829  10.757
50854W        W22580   0.027  31.500   1.139
50855W        W22581  28.931  30.219  14.925
50856W        W22582   0.235  13.360   0.806
50857W        W22583   8.950  39.114   4.273
50858W        W22584   5.941  29.475  10.627
50859W        W22585  27.926  25.190   4.072
50860W        W22586  38.256  43.948   3.893
50861W        W22587  18.004  16.714   0.845
50862W        W22588  20.202  29.074  12.804
50863W        W22589  40.312  27.748   0.237
50864W        W22590  11.763  41.859   0.121
50865W        W22591  23.851  28.993  12.713
50866W        W22592  37.385  31.682   4.312
50867W        W22593  21.549   2.770   0.716
50868W        W22594  31.941   8.304  11.166
50869W        W22595  39.632  20.494   0.857
50870W        W22596  44.703  21.245   2.325
50871W        W22597  29.640  13.709   0.791
50872W        W22598  29.452  17.196  11.247
50873W        W22599  34.923  30.354   2.173
50874W        W22600  38.567  15.197   4.346
50875W        W22601   7.287  31.453   2.838
50876W        W22602  29.963  20.633   0.373
50877W        W22603   1.984  32.928  12.278
50878W        W22604  13.526  11.947   1.351
50879W        W22605  17.979  18.620   0.414
50880W        W22606  15.587  24.101  14.387
50881W        W22607  38.332  44.509  12.153
50882W        W22608  25.549   2.852  14.499
50883W        W22609   2.447   5.806  13.632
50884W        W22610  38.436  32.224  13.194
50885W        W22611  37.397  12.917   4.652
50886W        W22612  43.329  31.330  13.254
50887W        W22613  20.293  14.834  13.536
50888W        W22614  30.208  36.841   3.239
50889W        W22615  13.331  16.803   3.198
50890W        W22616   4.254  24.533  13.368
50891W        W22617  30.161  16.185   3.113
50892W        W22618  17.600  28.353  14.759
50893W        W22619  39.369  42.083   3.212
50894W        W22620  14.788  38.887   0.360
50895W        W22621  32.606  22.233  11.596
50896W        W22622  42.347  16.714  13.822
50897W        W22623  11.564  42.117   2.751
50898W        W22624  44.851  37.470   0.327
50899W        W22625  14.386  17.522  14.900
50900W        W22626   9.410  30.364  10.729
50901W        W22627  37.323  33.313   0.468
50902W        W22628   7.152  11.177   3.717
50903W        W22629   0.368  28.590  12.598
50904W        W22630   2.988  32.757   1.874
50905W        W22631   1.259  15.308   1.421
50906W        W22632  43.861   2.451  13.821
50907W        W22633   6.716   0.856  10.819
50908W        W22634  21.524  37.840   2.808
50909W        W22635  36.894  28.480   4.885
50910W        W22636   6.665  37.329  11.914
50911W        W22637  37.450   1.034  14.446
50912W        W22638   6.892  20.482  12.644
50913W        W22639  16.577  15.078  14.445
50914W        W22640  24.687  23.084   1.897
50915W        W22641  41.750   4.807  10.920
50916W        W22642   3.262  13.833  13.867
50917W        W22643  37.592   9.222  12.313
50918W        W22644  17.322   4.751   3.326
50919W        W22645  16.771  20.197  12.403
50920W        W22646  16.643  35.753   0.376
50921W        W22647   2.926  33.983   2.687
50922W        W22648  42.861  24.068  13.148
50923W        W22649   3.028  42.453  10.700
50924W        W22650  35.977  43.215  13.506
50925W        W22651  32.413   1.528  14.917
50926W        W22652  43.592  43.294  11.109
50927W        W22653  41.247   3.814  14.311
50928W        W22654   5.806  41.445   4.077
50929W        W22655  38.452  39.863  10.894
50930W        W22656  28.002   2.710  10.641
50931W        W22657  35.577  35.438  12.444
50932W        W22658  43.646  26.098   1.749
50933W        W22659  41.497  42.915  11.142
50934W        W22660   3.668  19.201  14.977
50935W        W22661   7.718  18.686  10.521
50936W        W22662  42.605   0.892  12.086
50937W        W22663  44.292   8.472   3.965
50938W        W22664  31.923  29.227  11.122
50939W        W22665  18.767  39.099   1.321
50940W        W22666  39.452  34.916   0.257
50941W        W22667  19.565  43.796  13.521
50942W        W22668  24.942  43.271  10.584
50943W        W22669  41.010  17.591  11.122
50944W        W22670  22.288  13.114   0.649
50945W        W22671  14.716  21.618   0.424
50946W        W22672   0.801  27.555  14.559
50947W        W22673  21.713  11.612   2.583
50948W        W22674  28.160  41.812  11.439
50949W        W22675  36.493  30.752  12.318
50950W        W22676   5.880   0.887  12.911
50951W        W22677  19.979  35.002  11.076
50952W        W22678  11.703  26.174  12.770
50953W        W22679  23.678  16.706   4.498
50954W        W22680  27.623  39.603   4.081
50955W        W22681   3.187  41.452   2.446
50956W        W22682  35.506  24.143   2.243
50957W        W22683   3.218  31.984   2.343
50958W        W22684  23.231  17.670  11.690
50959W        W22685  15.274  27.567   2.382
50960W        W22686  23.169   6.572   2.639
50961W        W22687  40.844  37.962  12.879
50962W        W22688  28.541   0.266  10.957
50963W        W22689  38.010   1.888   0.436
50964W        W22690   2.795   6.503   3.913
50965W        W22691  16.252  30.734   1.937
50966W        W22692  10.234  37.997   3.838
50967W        W22693  32.057  25.730   5.467
50968W        W22694  37.040  23.709  13.546
50969W        W22695   5.720  13.412   9.759
50970W        W22696  29.450  29.135   1.348
50971W        W22697  44.972  41.896  14.784
50972W        W22698   4.216   6.491  14.911
50973W        W22699  12.205  29.865  11.881
50974W        W22700  38.554   5.885  14.495
50975W        W22701  35.079  15.518  13.484
50976W        W22702  35.874   3.160   0.182
50977W        W22703   9.784  22.024   0.106
50978W        W22704  20.936  32.536   0.837
50979W        W22705  40.749   0.917   4.611
50980W        W22706  13.271  42.700  10.355
50981W        W22707  38.947   1.831   1.325
50982W        W22708  16.792  31.514   3.895
50983W        W22709  27.627  30.679   1.681
50984W        W22710  41.925  22.947   2.853
50985W        W22711   0.962   0.053   3.191
50986W        W22712   1.481  17.291  12.650
50987W        W22713  26.993  37.836  14.917
50988W        W22714  40.510  43.911   3.014
50989W        W22715  29.693   2.688   1.660
50990W        W22716  11.373  12.182  12.652
50991W        W22717   0.489   4.900   2.041
50992W        W22718   8.893  19.988   1.243
50993W        W22719  36.639  23.149  10.674
50994W        W22720  24.558   1.751  14.003
50995W        W22721   3.683   2.723   3.686
50996W        W22722  40.485  17.092   3.205
50997W        W22723  40.865  32.110   0.309
50998W        W22724  41.352  16.709   0.197
50999W        W22725  16.095  14.254   0.445
51000W        W22726  14.388   9.117   2.342
51001W        W22727  13.088  40.404  11.962
51002W        W22728   1.120   6.136  11.964
51003W        W22729  12.077  22.320   3.019
51004W        W22730  19.131  25.502   2.500
51005W        W22731   6.324  23.273  13.383
51006W        W22732   3.301  33.179  11.969
51007W        W22733  11.795  30.409   4.094
51008W        W22734  17.162  27.881   1.392
51009W        W22735   3.406  37.632  10.449
51010W        W22736  28.399  22.633   1.428
51011W        W22737  23.322  38.380  11.574
51012W        W22738  31.614   0.247   3.464
51013W        W22739  44.559  27.077  14.658
51014W        W22740   8.865   6.261   3.503
51015W        W22741  40.399  24.710   3.882
51016W        W22742  13.129   1.348  10.722
51017W        W22743   9.660  28.594  14.500
51018W        W22744  21.228  14.395  13.029
51019W        W22745  24.800  39.524  11.156
51020W        W22746  30.072  37.766  12.982
51021W        W22747  34.567  35.316  12.486
51022W        W22748  10.419  18.257   5.179
51023W        W22749  36.727  15.255  12.922
51024W        W22750  32.661   3.225   0.941
51025W        W22751  25.482  23.195   3.306
51026W        W22752   8.801  28.405   4.597
51027W        W22753  41.510  22.649  11.670
51028W        W22754  14.849   0.030   4.577
51029W        W22755  17.567  15.282   1.859
51030W        W22756  43.004  28.964   4.260
51031W        W22757  39.928  41.789  11.447
51032W        W22758  17.359  12.308   3.181
51033W        W22759  22.061   2.411   1.515
51034W        W22760  38.543  40.479  12.565
51035W        W22761  14.591  15.800   4.289
51036W        W22762  10.346   8.694   2.764
51037W        W22763  27.516  33.311  13.346
51038W        W22764   1.009  37.527  13.988
51039W        W22765  13.871  23.127   1.763
51040W        W22766  44.784  13.335  10.976
51041W        W22767  19.516  11.627  13.459
51042W        W22768   3.559  12.657  10.743
51043W        W22769  33.855  44.743  11.522
51044W        W22770  29.292   5.810  11.467
51045W        W22771  38.022   1.457   3.709
51046W        W22772  34.818  41.410  10.220
51047W        W22773  20.292  28.652   0.202
51048W        W22774  14.315  16.031   2.786
51049W        W22775   6.809  25.731   3.180
51050W        W22776  12.377  10.723  12.810
51051W        W22777   3.315   6.632  12.015
51052W        W22778   5.696  37.591  11.900
51053W        W22779  17.860  40.517  14.304
51054W        W22780  32.640  10.045  12.380
51055W        W22781  39.779   6.763  11.393
51056W        W22782   2.399  29.919   0.737
51057W        W22783   3.370  44.830   1.944
51058W        W22784  38.770  11.755  12.942
51059W        W22785  29.286  15.911  11.018
51060W        W22786  20.265  19.848   4.670
51061W        W22787   7.937  32.475  10.272
51062W        W22788   9.164  13.832  11.220
51063W        W22789  38.203  12.548   3.383
51064W        W22790  30.482  10.122  13.966
51065W        W22791  19.028  32.449  14.335
51066W        W22792   6.120  36.310   1.758
51067W        W22793  14.267   6.132   2.309
51068W        W22794  22.211  20.998   2.665
51069W        W22795   6.472  26.577   4.218
51070W        W22796  23.956   0.674  12.796
51071W        W22797  10.917  38.458   2.150
51072W        W22798   3.680  44.548   3.211
51073W        W22799  39.380  41.046  14.770
51074W        W22800  42.876  42.347  12.994
51075W        W22801   8.350  43.559   1.396
51076W        W22802   9.925   8.854  11.115
51077W        W22803   7.115  22.226   4.187
51078W        W22804  43.587   6.379   3.687
51079W        W22805  30.797   4.721   4.671
51080W        W22806  10.413  20.083   1.295
51081W        W22807  18.842   8.629  12.863
51082W        W22808   7.430  31.958  14.481
51083W        W22809  18.076  15.887  13.143
51084W        W22810  29.738  14.647  12.395
51085W        W22811  35.421  33.905  13.791
51086W        W22812  17.581  27.096   4.703
51087W        W22813  43.212   0.753  14.859
51088W        W22814   1.269  31.351  11.967
51089W        W22815  16.713  31.332  10.751
51090W        W22816  44.371  23.120  11.137
51091W        W22817  31.520  34.346   2.761
51092W        W22818   7.181  26.135   0.979
51093W        W22819  18.101  40.551   0.480
51094W        W22820  36.118   2.767   3.748
51095W        W22821   3.221   6.857  12.501
51096W        W22822  24.984   2.833  12.344
51097W        W22823  11.248  26.170  11.171
51098W        W22824  27.413  38.879  12.494
51099W        W22825   5.206  26.062  13.789
51100W        W22826  41.361  11.781  13.976
51101W        W22827  12.683  10.869   2.001
51102W        W22828  20.157   1.221  14.023
51103W        W22829  26.254  20.390  13.551
51104W        W22830  29.610  41.032   2.855
51105W        W22831   2.379  38.962  14.583
51106W        W22832  33.869  35.819  11.917
51107W        W22833  27.441  27.798  12.473
51108W        W22834  25.700  18.849   0.784
51109W        W22835  36.287  19.662  14.972
51110W        W22836   7.291  13.908   0.480
51111W        W22837  28.192  10.894  11.613
51112W        W22838  20.181  27.602   0.362
51113W        W22839   1.020  13.582   3.761
51114W        W22840  32.964  41.110  10.993
51115W        W22841  22.641   1.420  14.362
51116W        W22842  35.806  24.766  10.999
51117W        W22843   1.876  36.310   4.548
51118W        W22844  25.744  42.925   4.713
51119W        W22845  18.053  14.518   1.356
51120W        W22846  18.216  38.525  10.968
51121W        W22847  38.221  19.585  11.539
51122W        W22848  35.418   6.338  14.735
51123W        W22849  39.379  16.501   3.728
51124W        W22850  34.502  44.486  12.852
51125W        W22851  26.945  43.902   5.575
51126W        W22852   4.021  20.485  13.926
51127W        W22853  22.468  26.607  11.524
51128W        W22854  17.459  34.681   3.166
51129W        W22855  22.590   4.949  10.598
51130W        W22856  42.020   7.206   3.286
51131W        W22857  24.598   2.465   0.348
51132W        W22858  10.728  42.295   0.941
51133W        W22859  36.054   3.670  13.911
51134W        W22860  39.719  17.142   0.047
51135W        W22861   3.769  25.246   3.469
51136W        W22862  13.057  29.878   2.231
51137W        W22863  29.937   3.926   1.242
51138W        W22864  21.264  31.507  11.100
51139W        W22865  24.125   5.896  14.366
51140W        W22866  28.546  21.758   1.500
51141W        W22867  19.305  40.839   1.969
51142W        W22868  44.244  25.304   1.544
51143W        W22869  10.632   5.355   4.652
51144W        W22870  34.511  40.370  12.390
51145W        W22871  15.124   1.227   4.198
51146W        W22872  17.438  15.327   1.334
51147W        W22873  10.351  35.825   4.810
51148W        W22874  30.347  43.534   3.032
51149W        W22875  29.353  13.616   4.230
51150W        W22876  35.775  28.551  11.163
51151W        W22877  10.954  12.829   3.704
51152W        W22878  42.378  35.044  11.268
51153W        W22879  14.364  24.136  12.021
51154W        W22880   1.691  36.903  14.482
51155W        W22881   9.097  20.923   2.929
51156W        W22882  44.966  14.663  10.745
51157W        W22883  39.210  43.505   2.675
51158W        W22884   3.148   1.226   4.670
51159W        W22885   6.731  37.161  11.071
51160W        W22886   3.292  36.494  10.787
51161W        W22887  41.033   1.490  12.844
51162W        W22888   5.486  19.106   2.146
51163W        W22889   9.261  43.877   4.523
51164W        W22890   8.441  30.355   3.693
51165W        W22891  43.268  25.648  13.088
51166W        W22892  28.562  32.043  13.002
51167W        W22893  38.617  17.246  14.318
51168W        W22894  37.042   0.898   0.302
51169W        W22895   2.011  23.158  11.972
51170W        W22896  25.206   1.776  11.988
51171W        W22897  14.713  40.722  10.199
51172W        W22898  25.385  11.416  14.532
51173W        W22899  35.462  28.557   4.794
51174W        W22900  13.288  22.618  10.722
51175W        W22901  31.578  27.051   2.982
51176W        W22902  33.560  43.939  10.046
51177W        W22903  28.563  19.493   4.963
51178W        W22904  34.189  20.136   4.452
51179W        W22905  14.736   3.269  14.789
51180W        W22906  41.369  35.833  13.884
51181W        W22907  17.706  14.560  12.515
51182W        W22908  12.748  33.334  10.672
51183W        W22909  18.533  28.778  11.071
51184W        W22910  43.793  12.620   2.750
51185W        W22911  29.608  33.069   0.443
51186W        W22912  17.258   9.455  10.708
51187W        W22913  25.458   0.249  11.760
51188W        W22914   9.410  32.518   1.444
51189W        W22915  39.270  19.727   0.149
51190W        W22916  12.913   3.459  14.484
51191W        W22917   2.454  19.244   3.679
51192W        W22918  17.084  38.396  13.512
51193W        W22919  38.854  12.129  12.334
51194W        W22920  11.782  30.576   3.071
51195W        W22921  23.623  33.552  11.186
51196W        W22922  13.970   7.938   0.912
51197W        W22923   4.376  13.812   5.038
51198W        W22924  28.504  35.091  10.727
51199W        W22925  43.235  24.795  12.341
51200W        W22926  11.704  41.308  12.614
51201W        W22927  37.580   1.984  12.174
51202W        W22928   9.661  30.933   1.715
51203W        W22929  38.434  40.018   4.040
51204W        W22930  32.834  11.370   2.764
51205W        W22931  25.099  28.546   4.370
51206W        W22932  27.736  22.838   3.150
51207W        W22933  29.307  26.546   2.698
51208W        W22934  24.455   0.219   0.896
51209W        W22935  41.273  19.699   0.851
51210W        W22936  33.796  19.600   1.412
51211W        W22937  40.559   9.837  14.397
51212W        W22938  23.478  13.291  13.565
51213W        W22939  37.977  38.363  10.912
51214W        W22940  37.520  22.991   4.477
51215W        W22941  41.920  21.564  14.363
51216W        W22942   2.129   6.972  13.018
51217W        W22943   1.663  16.861   4.384
51218W        W22944  29.178  34.573  12.501
51219W        W22945  24.520   4.974  12.999
51220W        W22946  13.798  24.122   3.924
51221W        W22947   6.495  33.883  12.891
51222W        W22948  41.403  12.104  11.676
51223W        W22949  41.289   0.501  10.874
51224W        W22950  41.799  20.813  12.635
51225W        W22951  30.352   7.860   0.147
51226W        W22952   9.424  42.185   2.400
51227W        W22953  29.038  27.925   4.044
51228W        W22954   7.017  40.311  14.740
51229W        W22955  33.935  42.787   9.906
51230W        W22956  43.255   3.567   3.276
51231W        W22957  28.068   4.739  10.645
51232W        W22958  24.723  20.542  14.936
51233W        W22959   5.924  25.483  12.512
51234W        W22960  38.551  26.243   2.168
51235W        W22961  15.194  24.624  13.559
51236W        W22962   8.968   4.742   2.184
51237W        W22963  21.455  23.601   3.333
51238W        W22964  15.831  40.933  11.182
51239W        W22965  13.098   5.693  11.599
51240W        W22966  30.943  26.211  14.103
51241W        W22967  40.164   0.679   3.319
51242W        W22968  27.949  34.301   4.323
51243W        W22969  16.612  21.991  12.022
51244W        W22970  32.245  17.658   1.891
51245W        W22971  24.467   8.822  13.936
51246W        W22972   8.191   6.402  13.744
51247W        W22973  36.403  33.766   4.203
51248W        W22974  34.956   0.807   1.227
51249W        W22975  37.969  28.656  12.392
51250W        W22976  35.360   1.633  11.706
51251W        W22977   7.207   2.922   2.698
51252W        W22978  19.518  31.224  11.413
51253W        W22979  25.783  41.857   0.923
51254W        W22980  29.167  32.418  14.360
51255W        W22981  17.083  31.412  12.043
51256W        W22982  36.554   1.307   1.448
51257W        W22983  20.499  22.314  10.280
51258W        W22984  20.662  11.115   1.703
51259W        W22985   9.934  11.185  12.923
51260W        W22986  16.118  20.006   2.719
51261W        W22987  20.179  32.356   4.197
51262W        W22988  10.815  25.853   0.318
51263W        W22989  27.181   4.559  14.047
51264W        W22990   4.234   7.634   0.827
51265W        W22991  18.947  42.354   4.169
51266W        W22992   7.260  42.278  11.905
51267W        W22993  23.865  43.436   0.835
51268W        W22994  15.209  15.864   0.366
51269W        W22995  20.169  19.697   0.774
51270W        W22996  16.015  10.766  13.978
51271W        W22997  38.904  21.220   3.326
51272W        W22998  41.561  39.982   0.536
51273W        W22999  35.103  25.170  14.301
51274W        W23000  40.258  27.776  13.031
51275W        W23001  15.543  34.091  12.108
51276W        W23002   5.827  37.270   3.271
51277W        W23003  36.165   7.375   4.216
51278W        W23004  10.675  17.759   4.158
51279W        W23005   2.926   5.532  10.830
51280W        W23006  11.198  39.373  13.253
51281W        W23007  21.673   2.695   3.231
51282W        W23008   4.189  12.272   1.274
51283W        W23009  41.764   2.445   3.346
51284W        W23010   5.585  15.680   9.537
51285W        W23011   0.971   3.336   2.306
51286W        W23012   0.845  11.421  13.930
51287W        W23013  11.860  16.126  11.086
51288W        W23014  36.816  13.315  14.803
51289W        W23015  25.037  13.754   4.722
51290W        W23016  15.889  25.124   0.980
51291W        W23017  23.085   3.323  14.867
51292W        W23018  37.340  40.043   2.637
51293W        W23019  25.599   8.517   4.727
51294W        W23020  39.385  10.742  11.928
51295W        W23021  30.997  29.316   1.187
51296W        W23022  32.872  42.902  11.956
51297W        W23023  12.082  42.681  13.927
51298W        W23024  11.136   2.822   0.907
51299W        W23025  14.871  26.475   0.740
51300W        W23026  34.895  24.877   3.085
51301W        W23027  11.227  36.957   1.726
51302W        W23028  17.802  39.980   0.955
51303W        W23029  11.138  33.211  13.581
51304W        W23030   8.673   0.266   1.161
51305W        W23031  22.899  35.873  13.800
51306W        W23032  42.457  19.746  14.033
51307W        W23033   1.958  28.234   1.098
51308W        W23034  19.691  10.347  11.446
51309W        W23035  15.191   9.239   1.225
51310W        W23036  14.597  15.923  11.485
51311W        W23037  42.807  18.952  14.841
51312W        W23038   6.933  28.179   2.593
51313W        W23039  25.772  13.823   4.210
51314W        W23040   4.752   8.687  12.124
51315W        W23041  36.625  37.891  11.521
51316W        W23042  41.011  12.101   4.611
51317W        W23043  16.929   0.906   0.220
51318W        W23044  22.697  37.618  13.266
51319W        W23045  25.226  14.195   3.848
51320W        W23046  39.592  25.317   4.155
51321W        W23047  19.851  42.428   0.800
51322W        W23048   4.229  28.535  13.785
51323W        W23049  16.744  26.547  14.704
51324W        W23050  39.298   5.800  14.895
51325W        W23051  33.383  43.708  11.419
51326W        W23052  21.060  11.318  13.013
51327W        W23053   4.752  17.273   0.666
51328W        W23054   9.788  11.035   4.100
51329W        W23055   6.328  24.557  10.728
51330W        W23056  44.379  19.523  13.972
51331W        W23057  16.790  37.263   3.848
51332W        W23058  39.472  23.231  10.947
51333W        W23059  12.012  43.368  10.229
51334W        W23060  25.187  33.068   4.200
51335W        W23061  20.132  19.747  13.502
51336W        W23062  13.807  38.888  10.438
51337W        W23063  27.710  39.077   4.136
51338W        W23064   1.450  29.533  12.083
51339W        W23065   3.212  24.485  12.408
51340W        W23066   6.857  26.767   2.814
51341W        W23067   2.186  42.250   3.783
51342W        W23068  34.575  18.644   1.896
51343W        W23069  43.846  30.115   3.641
51344W        W23070  35.531  37.916   3.698
51345W        W23071   5.863  18.829  11.560
51346W        W23072   8.404  14.153   1.007
51347W        W23073  34.033  29.580  11.980
51348W        W23074   4.234   7.019   4.162
51349W        W23075  44.476  17.105  12.983
51350W        W23076  32.055  21.664  10.682
51351W        W23077  28.624  17.409   1.019
51352W        W23078  16.518  37.769   1.922
51353W        W23079  20.963  39.197  12.358
51354W        W23080   1.390  15.386   1.924
51355W        W23081  34.905  33.928  13.459
51356W        W23082  33.472  26.548  13.437
51357W        W23083  30.617  15.080  10.561
51358W        W23084  23.143  23.569   2.868
51359W        W23085  36.503  14.223  12.135
51360W        W23086   6.250  43.245  12.465
51361W        W23087  15.644  37.814  14.980
51362W        W23088  19.113   1.213   1.314
51363W        W23089  42.896  23.304  11.058
51364W        W23090  18.277   7.661   0.687
51365W        W23091  11.208   1.024  11.164
51366W        W23092  16.702  22.095  14.546
51367W        W23093  29.724  18.606   3.293
51368W        W23094  30.134  40.792   1.405
51369W        W23095   7.554  22.262  13.918
51370W        W23096   6.371   4.399   9.730
51371W        W23097  38.511  15.742  13.874
51372W        W23098  16.304  31.876   3.316
51373W        W23099  37.084  19.985  12.958
51374W        W23100  15.107  34.941   4.503
51375W        W23101   7.031  21.278   1.935
51376W        W23102  33.417  25.669   4.067
51377W        W23103   5.774   8.829  10.423
51378W        W23104  21.818  14.013   4.161
51379W        W23105  26.432  14.788  13.396
51380W        W23106  21.048  41.017  13.294
51381W        W23107   9.612   4.750  12.059
51382W        W23108   1.490   8.177  10.789
51383W        W23109   1.889  38.530   4.521
51384W        W23110  22.103  10.403   3.547
51385W        W23111  38.024  21.780   4.076
51386W        W23112  34.830  42.738  13.328
51387W        W23113  33.814  13.269   2.941
51388W        W23114  28.623   2.789  13.531
51389W        W23115  33.640  26.776  14.938
51390W        W23116  37.576  12.777  11.211
51391W        W23117  20.786  21.719  12.479
51392W        W23118  33.997  33.073   2.320
51393W        W23119  39.159   4.933  10.172
51394W        W23120   7.695  13.450  11.577
51395W        W23121  20.103  22.686  11.872
51396W        W23122  39.965  32.108   3.725
51397W        W23123  17.949   1.296  12.628
51398W        W23124  28.050  21.783   1.257
51399W        W23125   8.732  16.256   2.800
51400W        W23126  34.462  15.323   0.415
51401W        W23127   8.292  17.202   0.357
51402W        W23128  30.845  17.256   1.841
51403W        W23129  33.401  29.624   5.079
51404W        W23130  35.303  43.052  11.295
51405W        W23131   9.132  35.633  10.471
51406W        W23132  30.427  34.773   4.055
51407W        W23133   9.136   4.370  11.477
51408W        W23134  17.588  23.548   0.812
51409W        W23135  12.466   0.292  11.165
51410W        W23136   6.339  39.939   0.470
51411W        W23137  38.379   3.891   4.612
51412W        W23138  40.889  14.167  11.200
51413W        W23139  30.488  31.251  14.731
51414W        W23140  31.309  39.346   3.324
51415W        W23141  38.434   2.583   2.377
51416W        W23142  13.276  36.968  12.913
51417W        W23143  24.667  38.074  10.964
51418W        W23144  11.905  39.612  12.593
51419W        W23145  15.620  35.127  11.586
51420W        W23146  34.941  28.191   5.188
51421W        W23147  12.439   4.362  14.425
51422W        W23148  15.335  41.085   2.178
51423W        W23149  39.588  42.264  14.827
51424W        W23150  17.250  33.434   0.940
51425W        W23151  28.168  30.920   2.314
51426W        W23152  33.137   9.905  12.520
51427W        W23153  31.561  17.357  13.512
51428W        W23154  35.364   3.208   0.434
51429W        W23155   5.060  26.669   2.761
51430W        W23156  21.358  43.746  11.425
51431W        W23157  33.336  44.968   1.282
51432W        W23158   9.917  25.641   3.552
51433W        W23159   2.948   2.201   2.541
51434W        W23160   3.620  23.989   3.120
51435W        W23161   6.779  40.064   2.200
51436W        W23162  12.308   3.489  14.824
51437W        W23163  30.176  42.727  13.111
51438W        W23164  39.613  13.998  11.064
51439W        W23165   7.390  28.438   0.053
51440W        W23166  40.378   5.688   0.302
51441W        W23167  28.017  20.692  13.808
51442W        W23168   4.752  11.289   0.246
51443W        W23169  14.221  22.922  14.788
51444W        W23170  35.980  15.491  14.257
51445W        W23171  28.663  18.966  12.391
51446W        W23172  27.608  19.095   3.217
51447W        W23173  20.767  38.568  12.419
51448W        W23174  22.110  27.222   3.205
51449W        W23175  11.945  35.885   2.614
51450W        W23176  22.727  37.060  14.793
51451W        W23177  38.414  42.735  14.364
51452W        W23178  28.942  17.055   1.259
51453W        W23179  12.479   4.365  10.912
51454W        W23180  17.234  38.037   0.605
51455W        W23181   8.366  15.763  13.993
51456W        W23182  38.347  41.482   4.923
51457W        W23183  20.536  15.625   3.674
51458W        W23184  21.964  41.015  11.090
51459W        W23185  34.320   7.622   1.934
51460W        W23186   7.285  36.853  11.077
51461W        W23187  21.613  37.269   0.788
51462W        W23188  30.541   6.180   1.470
51463W        W23189   0.679   8.804  11.960
51464W        W23190   4.875  25.029   1.234
51465W        W23191   2.354  22.007   0.073
51466W        W23192  30.294   4.869   3.779
51467W        W23193  17.393  34.041  14.937
51468W        W23194  20.174  27.604  11.251
51469W        W23195  17.187  25.549  10.918
51470W        W23196  34.506  21.574  13.341
51471W        W23197  21.657  27.458  14.391
51472W        W23198  26.496   3.982  11.578
51473W        W23199  16.376  21.533   2.270
51474W        W23200  15.290   0.700  11.007
51475W        W23201  31.438  27.336   1.681
51476W        W23202  34.640  15.809   0.389
51477W        W23203  10.614  15.256   4.849
51478W        W23204  28.567  12.645   3.749
51479W        W23205  26.937  16.180  13.593
51480W        W23206  40.316  17.824   2.797
51481W        W23207  24.403  34.387  14.266
51482W        W23208  41.299  33.050   2.312
51483W        W23209  34.662  33.912  12.960
51484W        W23210  27.034  41.431   4.354
51485W        W23211  11.606  12.295  12.132
51486W        W23212  26.652  11.802  13.418
51487W        W23213   9.464  33.949  14.932
51488W        W23214  16.105  42.934  13.361
51489W        W23215  30.967   2.792   0.193
51490W        W23216  26.572   4.485  11.591
51491W        W23217  13.721  13.170   3.789
51492W        W23218   3.967  44.061  13.297
51493W        W23219  16.826   9.851  13.513
51494W        W23220  18.683   9.946  13.457
51495W        W23221  23.521  13.865  11.393
51496W        W23222  44.807   5.255   4.715
51497W        W23223  18.947  18.588  13.872
51498W        W23224  29.830   0.784   5.111
51499W        W23225  30.646  35.328  11.020
51500W        W23226  19.598  15.566  13.358
51501W        W23227  44.121  15.690  10.193
51502W        W23228   3.835  32.595  12.360
51503W        W23229  22.306   4.246  13.156
51504W        W23230  11.145  26.529   1.945
51505W        W23231  27.643  32.175   3.402
51506W        W23232  21.218  24.622   3.357
51507W        W23233  10.126  35.515   0.956
51508W        W23234  22.844  16.565   4.147
51509W        W23235  21.515  36.477   4.202
51510W        W23236   8.974   4.771  10.622
51511W        W23237   6.214  34.632  13.388
51512W        W23238  13.136  32.894   3.214
51513W        W23239  11.877   3.773  10.801
51514W        W23240  34.568   4.611   2.689
51515W        W23241   5.747  43.124   1.594
51516W        W23242  25.451  10.440  11.114
51517W        W23243  10.602   6.255  10.702
51518W        W23244  16.778   1.808  11.595
51519W        W23245  36.050  44.801   4.406
51520W        W23246   0.293  30.468  12.574
51521W        W23247  12.333  22.134  12.939
51522W        W23248   8.073  41.851   3.668
51523W        W23249  22.997  38.306  10.675
51524W        W23250  37.298  30.228  10.047
51525W        W23251  38.828  29.006  13.868
51526W        W23252  24.548   9.179   1.055
51527W        W23253  18.844  28.549   4.937
51528W        W23254  15.616  16.233   1.880
51529W        W23255   5.847  10.812   0.908
51530W        W23256  27.900  26.697  13.835
51531W        W23257  12.318  42.434   4.714
51532W        W23258   0.130  30.379  14.431
51533W        W23259  11.235  28.837  12.783
51534W        W23260   5.936  28.957   0.293
51535W        W23261  31.202  23.480   4.230
51536W        W23262  13.248  44.229  13.901
51537W        W23263  43.362   9.719  14.166
51538W        W23264  44.153  36.848  11.095
51539W        W23265   6.759  23.966   4.683
51540W        W23266   3.431  32.990   4.679
51541W        W23267  20.941   0.125   4.974
51542W        W23268  10.238  12.140   1.274
51543W        W23269  39.484  27.940  13.381
51544W        W23270  20.323  17.975  12.622
51545W        W23271  41.494   3.770  12.411
51546W        W23272  33.013  25.066  10.189
51547W        W23273   2.693  43.724  11.980
51548W        W23274  27.642  23.797   0.681
51549W        W23275  36.917  25.683  12.043
51550W        W23276  31.080  19.125   0.401
51551W        W23277   1.994  25.266  14.514
51552W        W23278   1.606   0.269  14.357
51553W        W23279  23.636  10.542   2.639
51554W        W23280  20.771  44.750   1.522
51555W        W23281  10.718  41.867  14.032
51556W        W23282  14.195  13.820   0.502
51557W        W23283  16.809  41.777  14.863
51558W        W23284  17.579  28.938   1.355
51559W        W23285  42.853  12.328  11.485
51560W        W23286  42.730   5.890  14.833
51561W        W23287  41.846   5.460   0.294
51562W        W23288  35.243   6.110  12.426
51563W        W23289  26.104  10.835  13.130
51564W        W23290  29.935  42.891  13.559
51565W        W23291  29.040  42.826   2.435
51566W        W23292  14.198  34.087  14.510
51567W        W23293  19.225  22.239  12.926
51568W        W23294  31.685  35.581  13.367
51569W        W23295  44.357  37.491  13.453
51570W        W23296   0.910  19.813   3.098
51571W        W23297  17.586  22.550  10.727
51572W        W23298   5.250  40.828  13.490
51573W        W23299  32.883   2.306   1.848
51574W        W23300  26.200  19.506   4.108
51575W        W23301  21.501  30.163  11.165
51576W        W23302  43.535  21.167   4.131
51577W        W23303  22.150   1.351   2.213
51578W        W23304   0.691   4.230  13.884
51579W        W23305  14.436   6.916  10.483
51580W        W23306  38.281  28.664  11.450
51581W        W23307   5.472  26.020   4.856
51582W        W23308  26.306  14.211  13.709
51583W        W23309  36.541  26.124  10.873
51584W        W23310  28.639   3.771  14.569
51585W        W23311  26.538  21.762   1.213
51586W        W23312  32.118  32.623   0.725
51587W        W23313  11.114  12.833   4.199
51588W        W23314  36.880  20.959  13.008
51589W        W23315  18.720  33.579   3.621
51590W        W23316  42.743  31.694  12.996
51591W        W23317   1.108  37.981  11.486
51592W        W23318  18.080  27.762   4.118
51593W        W23319   1.941  25.283   0.029
51594W        W23320  24.638  24.576  12.415
51595W        W23321  11.092  42.257  11.902
51596W        W23322  39.359  31.079  11.905
51597W        W23323  24.707  27.417  12.361
51598W        W23324  30.450  44.787  13.516
51599W        W23325  41.853  30.040   1.287
51600W        W23326  16.972   8.672  13.133
51601W        W23327  12.631  41.884  11.052
51602W        W23328  32.344  38.816  12.296
51603W        W23329  33.459  15.798  10.711
51604W        W23330  24.652  38.511  12.537
51605W        W23331  23.400   0.675  12.758
51606W        W23332  23.187  17.104   1.301
51607W        W23333  14.711  33.997  14.320
51608W        W23334   0.978  22.951  12.014
51609W        W23335  40.755  30.423   3.691
51610W        W23336  42.075   5.623   2.112
51611W        W23337   3.242  15.089   3.661
51612W        W23338   3.949   7.196  12.805
51613W        W23339  31.349  26.098  10.204
51614W        W23340  15.251   9.205  13.197
51615W        W23341  25.851  34.450  13.826
51616W        W23342   5.355  17.909   0.878
51617W        W23343  23.226  13.315   1.450
51618W        W23344  37.812  17.028  14.567
51619W        W23345  17.925  34.512  10.441
51620W        W23346  20.497  27.226  12.546
51621W        W23347  43.609  29.486  13.473
51622W        W23348  12.752  24.782  14.828
51623W        W23349  26.952  28.958   2.399
51624W        W23350  34.874  12.780  11.927
51625W        W23351   0.372  20.829  13.352
51626W        W23352  19.996  30.565   3.364
51627W        W23353  26.374  30.982   1.194
51628W        W23354  37.771   4.943  12.111
51629W        W23355  17.753  44.560   1.030
51630W        W23356  15.640  26.198   2.677
51631W        W23357  34.841   3.771   0.836
51632W        W23358  31.616  13.864   4.598
51633W        W23359  22.648  39.892   1.777
51634W        W23360  20.979  12.633   1.338
51635W        W23361   1.556   3.506  13.809
51636W        W23362  44.764  33.470   0.456
51637W        W23363  14.092  10.395   3.898
51638W        W23364   2.349  17.176  11.653
51639W        W23365  34.578  21.100  11.068
51640W        W23366  20.762   3.261  11.041
51641W        W23367  29.594  43.964  11.933
51642W        W23368  20.650  43.542  12.090
51643W        W23369   5.480  39.530  12.862
51644W        W23370  14.751  14.603  10.936
51645W        W23371  38.597  27.050  11.045
51646W        W23372  18.094  18.508   0.923
51647W        W23373  30.637  42.052   1.101
51648W        W23374  39.484   0.804   4.073
51649W        W23375  40.579  39.356  13.259
51650W        W23376  37.904   9.269  11.910
51651W        W23377   7.504  42.441  12.363
51652W        W23378  22.714  35.161  10.088
51653W        W23379  38.976  38.285   0.212
51654W        W23380   8.897  19.373  14.797
51655W        W23381  23.941   9.788   1.415
51656W        W23382  31.550  35.613   4.557
51657W        W23383  21.501  22.220   2.704
51658W        W23384  40.375  18.259  12.905
51659W        W23385  42.503  22.709  11.434
51660W        W23386   8.776  10.718   3.802
51661W        W23387  31.861  14.158  12.002
51662W        W23388  13.002  35.598   2.099
51663W        W23389  39.907  37.603  10.535
51664W        W23390  31.022  43.216  11.158
51665W        W23391  21.815  22.068   1.367
51666W        W23392  40.565   8.388   0.956
51667W        W23393   0.322  29.994  11.515
51668W        W23394  31.139  34.128   0.289
51669W        W23395  18.667  14.358  11.779
51670W        W23396   1.305  12.829   1.790
51671W        W23397  43.290  39.650  13.498
51672W        W23398  29.591  31.591   0.333
51673W        W23399  24.564   0.758   0.790
51674W        W23400  14.242  41.975   0.514
51675W        W23401  38.344   7.239  13.711
51676W        W23402  39.302  20.936   0.058
51677W        W23403  32.936  22.992   2.800
51678W        W23404  13.329  40.300   0.403
51679W        W23405  27.706   5.518   3.337
51680W        W23406  27.906  17.532  11.515
51681W        W23407   1.285   0.293  12.118
51682W        W23408  38.799  40.769   3.727
51683W        W23409  37.875  18.235   1.459
51684W        W23410  11.131   4.720  13.041
51685W        W23411  32.314  39.393   1.820
51686W        W23412  35.076  11.906   1.739
51687W        W23413  41.917   3.241   3.072
51688W        W23414   5.595  37.814   2.441
51689W        W23415  10.367  35.906  11.257
51690W        W23416  28.542   9.183  10.671
51691W        W23417  33.521  29.045   3.250
51692W        W23418  19.634   5.476  12.952
51693W        W23419   1.667  37.286   3.278
51694W        W23420  24.008  11.212   3.521
51695W        W23421  39.104   9.384   2.645
51696W        W23422  28.518  31.112   2.703
51697W        W23423  17.687  37.496   3.893
51698W        W23424   4.832   4.046  12.221
51699W        W23425  21.204  19.807  14.312
51700W        W23426   3.912   0.242  12.478
51701W        W23427  29.829  36.820   3.720
51702W        W23428  10.631   0.227  14.422
51703W        W23429  35.929  22.008   4.769
51704W        W23430  32.846  29.861  12.638
51705W        W23431  15.069  23.991   3.302
51706W        W23432  16.481  31.680   4.259
51707W        W23433  33.464  12.237  10.367
51708W        W23434  38.841   1.823   4.724
51709W        W23435  42.255  37.016  11.643
51710W        W23436   0.726  17.869  11.196
51711W        W23437   4.799  17.798   4.438
51712W        W23438  23.645  33.138   2.685
51713W        W23439  42.387  43.860  13.370
51714W        W23440  13.085  15.328   0.037
51715W        W23441  23.771  23.258   1.798
51716W        W23442   1.790  34.620  11.873
51717W        W23443  43.748  12.710  14.798
51718W        W23444  30.033  26.046   3.164
51719W        W23445  26.375  12.398   1.496
51720W        W23446  39.274  21.740  11.103
51721W        W23447  34.173  33.392   4.209
51722W        W23448  30.235   4.026   0.837
51723W        W23449  24.517  37.781  11.923
51724W        W23450  28.606  31.975  11.135
51725W        W23451  28.719  28.166  13.060
51726W        W23452  14.756  24.107  13.092
51727W        W23453   5.424  12.807   0.372
51728W        W23454  11.366  13.642   0.876
51729W        W23455  12.645   8.249   3.702
51730W        W23456  20.787   1.020  11.180
51731W        W23457  42.768  11.312   2.308
51732W        W23458  27.594  19.151  12.442
51733W        W23459   9.749  39.755   0.783
51734W        W23460  14.828  41.373   5.324
51735W        W23461  41.867  27.574  11.508
51736W        W23462  33.967  31.872  12.483
51737W        W23463  31.605  14.675  12.552
51738W        W23464  13.095  40.498   3.566
51739W        W23465  36.141   1.568  11.599
51740W        W23466  32.131   2.942  14.082
51741W        W23467  16.684  22.298   0.066
51742W        W23468  36.551  27.414   3.602
51743W        W23469  17.218  10.567   2.359
51744W        W23470  22.066  37.864   0.460
51745W        W23471   3.340  41.369   0.457
51746W        W23472  10.109  25.230   5.255
51747W        W23473  16.699  41.398  14.532
51748W        W23474  35.618  39.867  13.849
51749W        W23475  29.503   6.298   2.254
51750W        W23476  18.641  12.362   2.260
51751W        W23477  31.416  36.313   4.888
51752W        W23478  37.849  39.480   3.770
51753W        W23479  31.829  33.365   2.801
51754W        W23480  32.749  40.821   5.172
51755W        W23481  34.103  24.383  13.047
51756W        W23482  22.330  29.976  10.908
51757W        W23483  40.584  42.932  12.572
51758W        W23484  40.307  13.787   4.196
51759W        W23485   7.269  30.419   2.588
51760W        W23486  41.522   9.702   1.028
51761W        W23487  12.621  43.094   1.261
51762W        W23488  18.518  33.414  13.040
51763W        W23489   9.750   3.107   0.861
51764W        W23490  14.345  42.111   3.765
51765W        W23491   5.883   6.443  12.733
51766W        W23492  20.488  22.688   3.103
51767W        W23493  27.064  43.226  11.063
51768W        W23494  34.646  15.616  12.034
51769W        W23495  28.496  26.371  12.393
51770W        W23496  30.941   0.465   0.800
51771W        W23497  10.142  21.743  13.130
51772W        W23498  33.901  19.114   1.484
51773W        W23499   7.973   4.259   3.864
51774W        W23500  17.725  39.066  14.482
51775W        W23501   6.454  38.069  10.737
51776W        W23502   7.268  37.562  14.275
51777W        W23503  39.752  34.505   0.012
51778W        W23504   5.314  16.361  13.315
51779W        W23505  13.898   4.319  14.444
51780W        W23506  42.043   1.466   0.747
51781W        W23507   3.932  42.480  11.671
51782W        W23508  29.517  44.086  14.878
51783W        W23509  22.500  27.993   5.382
51784W        W23510  20.750  10.268   5.048
51785W        W23511   8.393  19.627   3.320
51786W        W23512   1.349   0.527  13.899
51787W        W23513  29.671   1.672   1.214
51788W        W23514  17.795  36.094  13.540
51789W        W23515   7.429  39.437  11.051
51790W        W23516  38.095   7.852  10.744
51791W        W23517  42.576  24.689  11.131
51792W        W23518  36.086  37.109  12.620
51793W        W23519   3.625  22.196   3.673
51794W        W23520  31.461  29.933  13.838
51795W        W23521   9.084  21.686  10.907
51796W        W23522  21.499  33.362  12.595
51797W        W23523  40.990  40.902   4.161
51798W        W23524  19.058  21.644  13.155
51799W        W23525   5.137   9.690  14.872
51800W        W23526  12.399  29.643  12.855
51801W        W23527   9.174   1.718   2.345
51802W        W23528  11.818  34.099   4.082
51803W        W23529  11.856  34.471  12.900
51804W        W23530   2.341  27.398   2.858
51805W        W23531  37.437  33.414   1.956
51806W        W23532  15.706  40.958   5.089
51807W        W23533  42.404  28.705  14.915
51808W        W23534   6.900   3.972   2.687
51809W        W23535  43.953  44.442  14.860
51810W        W23536  34.339  39.889  11.195
51811W        W23537  33.081  18.239  12.973
51812W        W23538  20.951  31.674  12.795
51813W        W23539   7.707  25.592   0.879
51814W        W23540  15.038  11.285   3.301
51815W        W23541  13.305  38.614   3.794
51816W        W23542  11.715  35.671   1.848
51817W        W23543  23.720  36.442   0.989
51818W        W23544  31.045  28.656   4.101
51819W        W23545  23.062  37.078  13.345
51820W        W23546  41.046  26.670   0.585
51821W        W23547   5.764   7.859   1.968
51822W        W23548   8.657   7.957   3.436
51823W        W23549   9.908  33.526  12.902
51824W        W23550   7.415  44.760  11.204
51825W        W23551  12.541  18.484  14.702
51826W        W23552  34.058  30.420  14.725
51827W        W23553   1.449  31.614   3.299
51828W        W23554   1.753  14.930   5.026
51829W        W23555   7.125   2.291   1.345
51830W        W23556  13.382  40.089  13.399
51831W        W23557  28.125   8.231   4.793
51832W        W23558  40.769  19.726   0.912
51833W        W23559  33.962  35.791  11.011
51834W        W23560   3.529  16.175  11.564
51835W        W23561  27.234  37.005   4.172
51836W        W23562   4.916  29.501   2.746
51837W        W23563  35.325  16.722   4.646
51838W        W23564  37.871  12.439   1.244
51839W        W23565  42.434  10.869  12.485
51840W        W23566  31.249   4.225   0.912
51841W        W23567  12.426  20.416   0.268
51842W        W23568  27.182  22.818   2.820
51843W        W23569  22.668  25.279  11.009
51844W        W23570  17.706  44.854   4.400
51845W        W23571  31.152   6.141   3.683
51846W        W23572  11.537   7.228  14.253
51847W        W23573  30.392  36.594  14.415
51848W        W23574  10.120   7.257  12.407
51849W        W23575  15.827  19.634   3.267
51850W        W23576   8.501  13.345   5.067
51851W        W23577  10.127  27.661  12.012
51852W        W23578  16.597  25.997   2.745
51853W        W23579  23.615  12.136   1.064
51854W        W23580  35.568  19.767   1.974
51855W        W23581   2.796  22.208  11.049
51856W        W23582  21.426  16.475  11.597
51857W        W23583  36.398  13.629   2.349
51858W        W23584   5.383  17.213   3.271
51859W        W23585   6.213  25.483   4.740
51860W        W23586  31.532   9.387   0.644
51861W        W23587   5.949  15.601  10.517
51862W        W23588  26.885   7.391   2.837
51863W        W23589  30.859  14.345   3.895
51864W        W23590  34.580   5.338  12.526
51865W        W23591  43.882  38.330  13.402
51866W        W23592  28.100  20.137  13.698
51867W        W23593   2.464   1.743   5.140
51868W        W23594  10.307  28.434   0.271
51869W        W23595  37.116  33.722  14.025
51870W        W23596  20.251   1.830   2.816
51871W        W23597  40.126   8.119   4.537
51872W        W23598  40.001  23.608  13.388
51873W        W23599  31.190  11.377   1.309
51874W        W23600  18.020  34.871  13.928
51875W        W23601   6.255  17.388  14.045
51876W        W23602  34.499  39.070  12.350
51877W        W23603  41.420   6.843   3.897
51878W        W23604  15.542   4.392  10.272
51879W        W23605  23.590  22.015   2.441
51880W        W23606  26.714  12.348   4.150
51881W        W23607  27.693  25.814  11.619
51882W        W23608  15.758  29.510   3.348
51883W        W23609  25.566  42.846   2.860
51884W        W23610  19.659  20.682   4.670
51885W        W23611   1.110   9.906   0.779
51886W        W23612  14.109  39.136  10.762
51887W        W23613  30.653  40.520  13.380
51888W        W23614  24.286  36.654  12.795
51889W        W23615  24.520  35.176  11.160
51890W        W23616  41.885   2.457  12.532
51891W        W23617  25.553  17.290   3.742
51892W        W23618  30.619   7.411  12.592
51893W        W23619   9.708  20.110   2.236
51894W        W23620   4.354  23.645  13.360
51895W        W23621  32.488   3.321  14.040
51896W        W23622  25.093   6.752   4.430
51897W        W23623  14.620  28.929  10.454
51898W        W23624  26.479  35.735   3.275
51899W        W23625  34.950   9.568  11.719
51900W        W23626  19.529  28.745  11.122
51901W        W23627   4.373   2.806   1.666
51902W        W23628  17.610  20.180   4.109
51903W        W23629  36.123  18.494  11.605
51904W        W23630   9.221  13.404   1.810
51905W        W23631  31.050  14.220  13.871
51906W        W23632  18.037  23.559   2.244
51907W        W23633  41.443   1.461   4.260
51908W        W23634   7.710  39.243   3.709
51909W        W23635   2.754  28.372  11.718
51910W        W23636  24.972  35.601   4.464
51911W        W23637  20.539  44.425  14.927
51912W        W23638  19.086  20.149   2.647
51913W        W23639  40.125  17.117  13.675
51914W        W23640  28.517   5.692   3.477
51915W        W23641  11.351  23.166   2.234
51916W        W23642  37.860  15.628   4.320
51917W        W23643   0.374  37.814   2.075
51918W        W23644   6.002   3.891   4.655
51919W        W23645  31.528  35.827   0.573
51920W        W23646  25.342   1.400  13.433
51921W        W23647  40.322  32.894   1.295
51922W        W23648  37.355  10.137   3.762
51923W        W23649   0.486  44.376  10.904
51924W        W23650  26.395  43.436  13.179
51925W        W23651   2.641  15.373  12.140
51926W        W23652  13.375  34.476   1.643
51927W        W23653  38.757  32.710  13.367
51928W        W23654   2.229  26.175   3.169
51929W        W23655  28.562  12.266   4.355
51930W        W23656   2.773   8.206   3.618
51931W        W23657  39.013  30.109  11.272
51932W        W23658  43.938  37.029   2.283
51933W        W23659  23.047   4.727  12.412
51934W        W23660   9.082  28.003  13.464
51935W        W23661  42.802   1.546  11.816
51936W        W23662  36.601  13.743   2.825
51937W        W23663   5.699   5.925  10.569
51938W        W23664  12.879   0.782   0.475
51939W        W23665  31.040  42.854  14.320
51940W        W23666   8.864   2.859   3.016
51941W        W23667  32.568  24.170  12.728
51942W        W23668  22.970  15.879  12.490
51943W        W23669  37.873  42.405  12.343
51944W        W23670   9.779   3.341   1.348
51945W        W23671  31.635  33.218   3.420
51946W        W23672  15.818  27.526  11.471
51947W        W23673  13.593  21.659  11.716
51948W        W23674  22.662  18.426  10.751
51949W        W23675  40.401  44.266  12.871
51950W        W23676  15.711  35.789   5.136
51951W        W23677  10.085  14.142  14.017
51952W        W23678  29.676  25.176  10.135
51953W        W23679  37.578  25.925   1.972
51954W        W23680  25.670  28.448  12.377
51955W        W23681  15.218  32.741  12.063
51956W        W23682  44.841  42.391  12.471
51957W        W23683   4.696  22.593  11.899
51958W        W23684   1.362  24.786   3.183
51959W        W23685  22.471  40.898  13.818
51960W        W23686  28.314  41.923  10.518
51961W        W23687  29.945  15.399   4.110
51962W        W23688  29.790  21.231  12.866
51963W        W23689   1.333  44.023   2.987
51964W        W23690   8.327   3.322  11.148
51965W        W23691  34.517  31.889   4.629
51966W        W23692  14.182   2.529  14.899
51967W        W23693   7.194  42.443  10.428
51968W        W23694  40.001  25.110   1.926
51969W        W23695   7.801  15.847   5.589
51970W        W23696   5.791  40.493  11.588
51971W        W23697  12.868  37.634   3.138
51972W        W23698  41.548  23.969  11.554
51973W        W23699  37.996  27.945  14.480
51974W        W23700   1.857  18.820   1.656
51975W        W23701  17.257   0.406  14.291
51976W        W23702  23.253  23.642   3.365
51977W        W23703  31.392   2.174  12.754
51978W        W23704   1.634   9.248  13.068
51979W        W23705  17.095  21.061   0.987
51980W        W23706   6.153  32.591  11.140
51981W        W23707  10.276   4.950   2.646
51982W        W23708  38.003  16.059  14.709
51983W        W23709  18.456  11.533   2.762
51984W        W23710   7.869  35.296   3.602
51985W        W23711  30.085  14.425   0.497
51986W        W23712  40.030  41.275  13.446
51987W        W23713  25.536  21.062  14.651
51988W        W23714  32.516  26.096  11.711
51989W        W23715   8.892  40.974   4.447
51990W        W23716  44.051  24.616   3.626
51991W        W23717  39.492   0.238   2.337
51992W        W23718  21.656  30.501   3.258
51993W        W23719  19.512   1.555  13.503
51994W        W23720   8.222  44.501  10.697
51995W        W23721  38.326   9.697   3.564
51996W        W23722  35.615  38.122   0.763
51997W        W23723  18.514  27.211  11.735
51998W        W23724  44.747   8.632  12.126
51999W        W23725   2.763  17.202  11.332
52000W        W23726  14.331  44.472  12.503
52001W        W23727  17.789  32.767  14.885
52002W        W23728  13.232   9.326   4.740
52003W        W23729  21.531  23.931   4.120
52004W        W23730  33.874  42.451  12.576
52005W        W23731   7.115   3.909   1.804
52006W        W23732  25.223   6.462   0.686
52007W        W23733  44.052  33.686  11.490
52008W        W23734  21.515  10.807   1.303
52009W        W23735  25.762  15.806   3.331
52010W        W23736  16.759  14.780  11.752
52011W        W23737   9.106   2.395  12.108
52012W        W23738  13.786  13.149  11.165
52013W        W23739  25.683  15.875   4.202
52014W        W23740  12.820   4.863   4.735
52015W        W23741  31.525  20.851   0.471
52016W        W23742   5.322  34.449  10.631
52017W        W23743  25.630  37.966   3.356
52018W        W23744  19.041  30.735  13.905
52019W        W23745  26.760  23.689   3.320
52020W        W23746  24.142  30.548   2.314
52021W        W23747  44.458  23.890   2.823
52022W        W23748  14.196  44.998  11.595
52023W        W23749  15.864  40.334  12.392
52024W        W23750  28.815  12.510   0.201
52025W        W23751   4.921  12.003   1.578
52026W        W23752  43.987   4.857  10.735
52027W        W23753  17.257  31.104  14.863
52028W        W23754  34.469   6.778   1.116
52029W        W23755  25.975  36.375   4.677
52030W        W23756  37.254   7.730   0.815
52031W        W23757  17.054  41.509  12.867
52032W        W23758  21.584  15.411  14.333
52033W        W23759  38.158   1.519   3.178
52034W        W23760  19.680   2.289   2.176
52035W        W23761  41.039  35.880   2.901
52036W        W23762  29.722  25.579   1.458
52037W        W23763  17.703  10.647  14.544
52038W        W23764  18.065  13.710  14.029
52039W        W23765  37.023  11.672   0.857
52040W        W23766  27.281  15.889  12.067
52041W        W23767  43.511  31.370   3.219
52042W        W23768   0.740  19.618   5.102
52043W        W23769  29.507  20.953  14.297
52044W        W23770  10.775  18.164   0.389
52045W        W23771  29.866   2.062   1.549
52046W        W23772  37.039   3.384   2.770
52047W        W23773   0.715  44.897   2.776
52048W        W23774  32.135   4.759   2.578
52049W        W23775  41.477  41.524   4.350
52050W        W23776   1.880   9.893   1.932
52051W        W23777  14.831  30.855   1.688
52052W        W23778  35.372  42.016   2.701
52053W        W23779  21.833   3.932   1.774
52054W        W23780  26.129  21.195  12.455
52055W        W23781   6.492  34.856  14.307
52056W        W23782  11.192  21.231   0.344
52057W        W23783  32.474  25.679   4.345
52058W        W23784  29.997  12.795   0.658
52059W        W23785   0.265  25.264  12.133
52060W        W23786  38.526  31.356   3.713
52061W        W23787  26.943  38.488  14.374
52062W        W23788  41.124  43.577  12.837
52063W        W23789   5.999  24.958  12.572
52064W        W23790  24.711  15.823  13.014
52065W        W23791  18.697  16.572  14.218
52066W        W23792  22.252   7.318  11.169
52067W        W23793  28.580   9.177  12.655
52068W        W23794  10.626  19.594   2.178
52069W        W23795  44.204   4.780  12.022
52070W        W23796   0.319  14.244   0.509
52071W        W23797   7.229   5.090   0.035
52072W        W23798   6.477   4.799   4.656
52073W        W23799  20.964  13.940   3.803
52074W        W23800   3.320  18.838  14.074
52075W        W23801  27.104  42.598  14.303
52076W        W23802  32.452  10.171   1.436
52077W        W23803   7.232   0.894   1.679
52078W        W23804  33.523  42.982  14.842
52079W        W23805  42.503  39.175   5.054
52080W        W23806  13.124  13.661   2.361
52081W        W23807  32.092  30.661   4.193
52082W        W23808   6.773  42.464  11.819
52083W        W23809  19.022  18.034   1.992
52084W        W23810  33.009  20.113   4.325
52085W        W23811  12.891   0.759   1.778
52086W        W23812  13.178  21.153  13.279
52087W        W23813   1.342   7.482  13.098
52088W        W23814  42.266  31.943  13.287
52089W        W23815  38.405   0.212   4.318
52090W        W23816  23.227  33.596  14.781
52091W        W23817  42.463  23.564  11.585
52092W        W23818  34.576  22.552   3.663
52093W        W23819   4.553  11.197   2.366
52094W        W23820  21.717   8.874   5.223
52095W        W23821  18.313   3.376  14.968
52096W        W23822  29.202  14.375  14.459
52097W        W23823   6.220   5.419   3.239
52098W        W23824  29.944  12.780   3.302
52099W        W23825  39.286  13.917   0.896
52100W        W23826  11.632   2.190   1.335
52101W        W23827  24.275  38.805  10.282
52102W        W23828  29.358  20.176  14.930
52103W        W23829  34.915  37.695  11.334
52104W        W23830  11.550  39.538   0.107
52105W        W23831  18.594  21.127  14.884
52106W        W23832  40.271  29.524  12.928
52107W        W23833  16.841  30.009   0.937
52108W        W23834   2.250  29.079   2.834
52109W        W23835  15.031   1.316   3.118
52110W        W23836   7.395  15.912   4.753
52111W        W23837  39.538  32.413   3.483
52112W        W23838  20.711  17.329   2.952
52113W        W23839  16.856  39.113  12.044
52114W        W23840  44.370  33.370   1.743
52115W        W23841  43.838  43.632  14.043
52116W        W23842   2.345  30.703  10.937
52117W        W23843  26.536  20.284  11.456
52118W        W23844  31.565  21.034  13.013
52119W        W23845  43.063  16.561  10.941
52120W        W23846   0.473  14.684   0.288
52121W        W23847  36.604  30.015  14.499
52122W        W23848   5.941   4.435  13.391
52123W        W23849  43.559  12.632   1.341
52124W        W23850  37.595   9.448   0.497
52125W        W23851  25.699  32.161   0.949
52126W        W23852   5.831  40.570   3.209
52127W        W23853  43.358  24.655   2.731
52128W        W23854   9.888  30.554  10.755
52129W        W23855  44.244   1.406   3.569
52130W        W23856  14.582   7.412  14.069
52131W        W23857   8.570  11.054  10.320
52132W        W23858  24.915  31.028   1.015
52133W        W23859  32.599  32.471  11.510
52134W        W23860   9.791   3.198  14.893
52135W        W23861  17.053   1.863  10.316
52136W        W23862  21.572   5.224  14.902
52137W        W23863  29.294  40.828   3.805
52138W        W23864  26.644  16.383   1.691
52139W        W23865   2.363  37.362   0.974
52140W        W23866  12.973  35.714  11.589
52141W        W23867  30.668  19.241  13.512
52142W        W23868   2.845   3.323   1.995
52143W        W23869  39.544  33.655   0.330
52144W        W23870  22.818  21.931   1.345
52145W        W23871  37.862  14.899  10.620
52146W        W23872  28.003  23.131  10.226
52147W        W23873  15.295  29.978  13.979
52148W        W23874  33.787  11.557  14.851
52149W        W23875  13.841  12.774  14.940
52150W        W23876  22.089  17.125  10.482
52151W        W23877  30.203  24.180  13.639
52152W        W23878  20.234  31.637   4.537
52153W        W23879   7.842  42.734   3.215
52154W        W23880  36.865  15.023   3.689
52155W        W23881  14.193   6.682   4.339
52156W        W23882   8.257   7.322  14.514
52157W        W23883  14.922  12.331  13.025
52158W        W23884  14.648  23.918   4.178
52159W        W23885   0.877   6.231   0.187
52160W        W23886  14.140  37.651   4.248
52161W        W23887   0.532  41.020   2.120
52162W        W23888  34.032  31.442  14.985
52163W        W23889  18.682  34.650   1.793
52164W        W23890   2.299  11.120   2.692
52165W        W23891  13.626  33.625  10.844
52166W        W23892  23.421   0.738  14.310
52167W        W23893   1.287  33.422   1.944
52168W        W23894  28.645   5.769  14.885
52169W        W23895  11.353   5.260   0.790
52170W        W23896  27.674  37.260   0.975
52171W        W23897  38.401  44.473  14.054
52172W        W23898   0.438   0.873  13.734
52173W        W23899  28.475  33.027  13.434
52174W        W23900  25.135  40.524   2.302
52175W        W23901  19.531  42.494   1.957
52176W        W23902   6.847  25.496  14.379
52177W        W23903  38.067  38.032  11.706
52178W        W23904  38.290  15.818   2.356
52179W        W23905  34.875  29.602   2.729
52180W        W23906  31.167   7.303  10.623
52181W        W23907   1.858  15.695   0.508
52182W        W23908  25.104  13.261   1.201
52183W        W23909   7.643  25.564  12.136
52184W        W23910  21.150   3.714  12.070
52185W        W23911  27.831  30.058  12.023
52186W        W23912  31.834  43.985   2.165
52187W        W23913  36.570  26.519  11.178
52188W        W23914   4.878  20.294   4.717
52189W        W23915  26.832  43.910  12.045
52190W        W23916  43.880  17.729   3.905
52191W        W23917  30.695  33.055  13.965
52192W        W23918  38.011  31.489   3.653
52193W        W23919  18.602   0.536   0.925
52194W        W23920  15.667  28.399   0.300
52195W        W23921  34.064  43.631   3.735
52196W        W23922   9.339  20.694   2.127
52197W        W23923  31.832  43.744  10.681
52198W        W23924   4.399  10.278  11.046
52199W        W23925   9.864  40.163   2.129
52200W        W23926   7.866  26.219   1.662
52201W        W23927  12.419  16.248   4.623
52202W        W23928  24.387  10.102  12.142
52203W        W23929  43.583   5.380   4.694
52204W        W23930  31.061   7.621   2.226
52205W        W23931   7.150  38.173  12.227
52206W        W23932  11.174  28.024   2.609
52207W        W23933   2.049   3.703  13.824
52208W        W23934  43.849  13.032   3.835
52209W        W23935   3.304  18.174   3.818
52210W        W23936  21.073  21.003  12.915
52211W        W23937  24.346  11.754   4.876
52212W        W23938  37.560  39.393   0.415
52213W        W23939  43.221  16.853   4.062
52214W        W23940  10.843  34.164   1.727
52215W        W23941  10.284  43.687   1.823
52216W        W23942  36.908  37.344   1.027
52217W        W23943  14.265  37.339  11.484
52218W        W23944  21.897  15.000  14.454
52219W        W23945  37.942  20.738   2.365
52220W        W23946  31.920  11.758  12.435
52221W        W23947  20.251  38.944   2.877
52222W        W23948   2.749   6.919   4.234
52223W        W23949  22.481  22.437   0.386
52224W        W23950   2.620   7.285   4.936
52225W        W23951  16.543  27.240  10.626
52226W        W23952  28.595   2.951  14.898
52227W        W23953  31.884  32.040   2.399
52228W        W23954  43.702   9.844  13.777
52229W        W23955  36.279   3.795  14.817
52230W        W23956  26.885   3.886   0.857
52231W        W23957   9.658   4.424   1.813
52232W        W23958  35.022  21.727  14.648
52233W        W23959  14.421   2.349  10.928
52234W        W23960   4.015  37.753  11.062
52235W        W23961  21.436  13.832   1.854
52236W        W23962  24.181  25.992  13.784
52237W        W23963  34.859  30.416  12.774
52238W        W23964  34.344  10.297   1.345
52239W        W23965   7.816   6.898  10.501
52240W        W23966  40.936  17.617   1.233
52241W        W23967  21.417   4.484  10.948
52242W        W23968  35.000   0.989   0.722
52243W        W23969  44.000  40.783   2.191
52244W        W23970  37.545  44.868   1.436
52245W        W23971  18.691  10.474   4.583
52246W        W23972  12.694   3.350  13.803
52247W        W23973  22.518  28.477   0.504
52248W        W23974  33.771  37.378   4.566
52249W        W23975  32.702  15.135  10.467
52250W        W23976  31.639  12.286  14.773
52251W        W23977   0.247  12.243  11.595
52252W        W23978  37.465  15.650  14.017
52253W        W23979  24.731  39.525  14.427
52254W        W23980  28.537  24.181  12.983
52255W        W23981  23.601   8.674  13.373
52256W        W23982  13.956  38.876  11.684
52257W        W23983  39.322  38.440   4.002
52258W        W23984  11.202  24.198  10.727
52259W        W23985  43.811  16.285  13.507
52260W        W23986  24.401  40.208  13.328
52261W        W23987  18.632  17.222  13.556
52262W        W23988  13.074   1.555   0.722
52263W        W23989  38.871  12.389  11.340
52264W        W23990  16.079  39.451   0.395
52265W        W23991   6.093   9.493   4.119
52266W        W23992  14.548  34.451   0.725
52267W        W23993   2.808  43.907   0.003
52268W        W23994  24.144   7.256  10.293
52269W        W23995  33.356   6.465   2.056
52270W        W23996  29.307  44.812   1.277
52271W        W23997  24.224   0.800  11.991
52272W        W23998   9.360  21.930  14.430
52273W        W23999   5.347   6.196  10.274
52274W        W24000  10.804  33.982   4.056
52275W        W24001  44.352  34.541  10.707
52276W        W24002  21.737  33.911  14.557
52277W        W24003  24.387  11.353  14.316
52278W        W24004  37.814   6.664   2.244
52279W        W24005  31.072  44.313   1.189
52280W        W24006   6.156  37.333  11.984
52281W        W24007  27.585  11.833   0.755
52282W        W24008  10.930   6.155   2.701
52283W        W24009   7.321  28.622  14.593
52284W        W24010  16.757   6.037   4.646
52285W        W24011  41.994  42.725  11.049
52286W        W24012   5.175   0.703   2.885
52287W        W24013  21.302   9.932  14.320
52288W        W24014  10.420  35.850   4.318
52289W        W24015   5.827  35.916   2.464
52290W        W24016  11.185  42.078  14.255
52291W        W24017  26.583  20.655   3.391
52292W        W24018   4.989   2.107  11.074
52293W        W24019  21.487  41.446   1.159
52294W        W24020  36.845   5.426   3.480
52295W        W24021  19.055  29.436  14.432
52296W        W24022  41.703  10.681  13.156
52297W        W24023  30.485  16.332  11.647
52298W        W24024  25.008  20.597   4.252
52299W        W24025  40.348  27.357   4.622
52300W        W24026  17.559   9.896   0.415
52301W        W24027  29.427  29.027  14.919
52302W        W24028  24.201  32.901   2.261
52303W        W24029  15.107  11.066  12.960
52304W        W24030  35.487  21.699   2.806
52305W        W24031  39.749  21.605  14.887
52306W        W24032   2.434   4.785   2.372
52307W        W24033  10.911  39.365   1.628
52308W        W24034  44.909  20.504   2.779
52309W        W24035   6.727  12.609  11.950
52310W        W24036  41.734  24.162   0.308
52311W        W24037   1.578  21.151   3.746
52312W        W24038   7.344   5.932  11.317
52313W        W24039  21.444  42.970   4.955
52314W        W24040  25.020  31.729  14.328
52315W        W24041  36.356  15.098   3.294
52316W        W24042   9.591  44.015  12.431
52317W        W24043   5.655  31.069   1.869
52318W        W24044  41.436  23.772  13.556
52319W        W24045  33.178  15.282   2.106
52320W        W24046  29.121  18.303  12.504
52321W        W24047  37.586   5.303   1.349
52322W        W24048  15.418  27.304  13.137
52323W        W24049  18.578  38.317   0.615
52324W        W24050  24.167   2.748  14.471
52325W        W24051  28.627  11.690  14.906
52326W        W24052  14.895  35.627  12.534
52327W        W24053   9.184  44.220  12.956
52328W        W24054   4.275   6.880  13.431
52329W        W24055  42.340   8.354  14.629
52330W        W24056  25.612  14.570  13.806
52331W        W24057   5.497  29.636  13.684
52332W        W24058  35.735  14.398   3.579
52333W        W24059   4.285  39.408  11.251
52334W        W24060  14.945  28.692   1.435
52335W        W24061  43.558  31.563  14.726
52336W        W24062  29.198  44.612   0.342
52337W        W24063  25.580   1.696   5.093
52338W        W24064  23.463   6.779   3.191
52339W        W24065  19.560  16.210   2.165
52340W        W24066  10.283  18.316  13.172
52341W        W24067   4.681   2.959  11.215
52342W        W24068  30.491  11.109   2.492
52343W        W24069   1.940  34.163   4.164
52344W        W24070  29.620   6.152  14.211
52345W        W24071  20.949  22.769   0.541
52346W        W24072  36.659   2.853  10.915
52347W        W24073   7.244  24.310  11.648
52348W        W24074  38.871   0.357   3.071
52349W        W24075   6.686  28.209  14.944
52350W        W24076  43.249   8.388   3.787
52351W        W24077  29.903  14.409  13.697
52352W        W24078  34.053  43.887   3.277
52353W        W24079  17.338  26.535   2.650
52354W        W24080  14.053  38.088   2.892
52355W        W24081  39.134   5.454  10.090
52356W        W24082  28.025   1.704  11.614
52357W        W24083  16.311  18.736   2.229
52358W        W24084  27.665  31.483   4.126
52359W        W24085  37.975  27.200   2.892
52360W        W24086  38.286  29.641   4.662
52361W        W24087  43.693   4.896  12.060
52362W        W24088  31.887  39.473   3.826
52363W        W24089   5.735  24.170   4.563
52364W        W24090  35.947  43.475   2.341
52365W        W24091   8.379  44.882  12.987
52366W        W24092  10.340  23.997   5.098
52367W        W24093   5.810  17.681  14.784
52368W        W24094  28.907   7.077  14.894
52369W        W24095   4.195   2.810  11.227
52370W        W24096  25.475  43.977   1.659
52371W        W24097  22.135   5.971  14.647
52372W        W24098  10.744   3.890  12.085
52373W        W24099  37.043  26.357   3.874
52374W        W24100  34.339  11.438   3.674
52375W        W24101   8.196   0.451  12.952
52376W        W24102  38.016   8.034  13.496
52377W        W24103  42.528  32.968  13.297
52378W        W24104  39.015  22.599  10.503
52379W        W24105  25.122   9.665   1.430
52380W        W24106  20.185  34.980   4.948
52381W        W24107   1.469  13.080  11.608
52382W        W24108  38.313  44.819  11.710
52383W        W24109   7.582   3.344   3.614
52384W        W24110  26.544   5.898  10.540
52385W        W24111   3.458  30.670  11.158
52386W        W24112  28.442  16.674   4.134
52387W        W24113   5.971  22.998  12.469
52388W        W24114  21.727  41.482   2.169
52389W        W24115  36.124  30.576  12.637
52390W        W24116  38.100   6.794   2.662
52391W        W24117  15.813  35.458  10.691
52392W        W24118  35.087  43.990  13.887
52393W        W24119  31.182   9.624  13.302
52394W        W24120  34.544  28.535   2.366
52395W        W24121  25.194  44.771  11.874
52396W        W24122  25.387  12.380   2.656
52397W        W24123  27.014  34.397  10.733
52398W        W24124   6.404  28.909   2.763
52399W        W24125  14.698  17.101  14.278
52400W        W24126  27.543  11.032   1.186
52401W        W24127  13.886   1.925   2.256
52402W        W24128   2.730  28.340  12.239
52403W        W24129   3.864  14.370  13.005
52404W        W24130  40.128  40.201   1.403
52405W        W24131  35.044   6.321  10.587
52406W        W24132  39.600  15.549   1.773
52407W        W24133  31.050   9.151   3.261
52408W        W24134  38.818  27.228  11.491
52409W        W24135  21.633  42.027  12.488
52410W        W24136   8.260   8.808   3.587
52411W        W24137  18.517  33.570   1.614
52412W        W24138  25.105   3.254   3.275
52413W        W24139  41.032  19.361   4.306
52414W        W24140  33.093  41.255   5.033
52415W        W24141  25.725  37.630   1.827
52416W        W24142   2.140  13.220   4.979
52417W        W24143  27.673   7.194  14.450
52418W        W24144  37.579  23.686   0.291
52419W        W24145   6.208  24.230   0.176
52420W        W24146  42.306   5.937  12.069
52421W        W24147  25.455  40.488   2.724
52422W        W24148  20.254  28.926   4.138
52423W        W24149   0.470  33.049  11.134
52424W        W24150  43.503   1.760  12.725
52425W        W24151  28.023   1.769  12.535
52426W        W24152  28.957  10.116  12.779
52427W        W24153  27.033  23.688  12.026
52428W        W24154  19.293   4.707   1.434
52429W        W24155  18.898  20.689  12.400
52430W        W24156   9.789  19.577  14.723
52431W        W24157  29.585   3.445  11.052
52432W        W24158  16.818   4.368  12.971
52433W        W24159  25.422  30.389  13.934
52434W        W24160   0.754  15.288  14.632
52435W        W24161  10.766  25.502  14.202
52436W        W24162   8.477  38.365   4.369
52437W        W24163  20.693   2.963   0.301
52438W        W24164  33.273   3.577   2.847
52439W        W24165  15.827  34.682  13.724
52440W        W24166  19.533   0.696   3.194
52441W        W24167  18.368   7.901  13.833
52442W        W24168   6.446  25.270  11.112
52443W        W24169  40.914  44.396  13.974
52444W        W24170  42.283  24.157  11.084
52445W        W24171  43.945  16.267  14.136
52446W        W24172  22.171   2.142   3.907
52447W        W24173  15.835  33.377   1.345
52448W        W24174   1.883   8.616   1.277
52449W        W24175  38.425  18.500  11.140
52450W        W24176  12.839  26.233  11.554
52451W        W24177   8.417   6.910  12.056
52452W        W24178  14.256  36.405  14.106
52453W        W24179  26.608  30.321   3.785
52454W        W24180  38.787   0.844  10.063
52455W        W24181  34.588  20.532  13.392
52456W        W24182  29.517  20.980  12.521
52457W        W24183  36.330  20.583   0.820
52458W        W24184  14.899  19.730   2.175
52459W        W24185  15.790  24.286   1.117
52460W        W24186  32.655  22.748  12.087
52461W        W24187  39.835  19.026  11.139
52462W        W24188  15.627  12.273   1.895
52463W        W24189  37.159  36.008   2.788
52464W        W24190  42.731   3.846   4.625
52465W        W24191  10.359  17.355  12.941
52466W        W24192  24.647   7.205  13.426
52467W        W24193  30.619  39.254  14.220
52468W        W24194  20.160   4.273  13.277
52469W        W24195   0.246  11.438  14.760
52470W        W24196  14.288  14.310   0.251
52471W        W24197  41.871  21.473  13.429
52472W        W24198  14.603  24.629  13.775
52473W        W24199   3.181  34.850  14.927
52474W        W24200   0.988   9.195  11.120
52475W        W24201  26.903   5.636   1.008
52476W        W24202  15.125  23.782  14.037
52477W        W24203  30.963   0.730  10.657
52478W        W24204   3.846  26.045   3.546
52479W        W24205  11.899  12.387  10.642
52480W        W24206  28.899  18.231  14.963
52481W        W24207  39.694  21.514   3.969
52482W        W24208  29.894  27.921   2.808
52483W        W24209  24.391  11.803  14.006
52484W        W24210  38.854  21.777   0.671
52485W        W24211   3.879  17.854   4.781
52486W        W24212  21.044   5.373  13.959
52487W        W24213  34.394  30.961  12.903
52488W        W24214  23.106  42.748   2.197
52489W        W24215  41.022  44.793   3.124
52490W        W24216  13.559  38.443  11.567
52491W        W24217  23.092   5.158   1.992
52492W        W24218  21.982  28.433   2.383
52493W        W24219   3.832  33.708   1.202
52494W        W24220   7.512  19.740  12.257
52495W        W24221   5.073   3.991   3.476
52496W        W24222   9.241   0.087   4.548
52497W        W24223   9.192  11.845   4.222
52498W        W24224  39.826   4.532  13.965
52499W        W24225  19.242  31.420   4.600
52500W        W24226  27.617  29.508   4.269
52501W        W24227  15.318   5.293  13.167
52502W        W24228  24.154  43.069   4.488
52503W        W24229  40.283  35.137   2.723
52504W        W24230  24.535   0.795   4.152
52505W        W24231  27.155  15.726   2.822
52506W        W24232   0.750   9.099   3.738
52507W        W24233  35.037   0.385   3.862
52508W        W24234   6.432   2.524  13.590
52509W        W24235  22.021  34.295  14.797
52510W        W24236   6.248  13.143  10.315
52511W        W24237  13.349  32.600  14.986
52512W        W24238   5.602   4.815  13.059
52513W        W24239  21.494  43.253  11.187
52514W        W24240  44.721   3.924   3.598
52515W        W24241  17.256  30.873   3.437
52516W        W24242  22.222   9.293  11.642
52517W        W24243  25.900  31.658   0.892
52518W        W24244  39.033  44.266   0.229
52519W        W24245  33.949   4.344  12.240
52520W        W24246  13.865   1.030  14.749
52521W        W24247  23.071   3.488   0.397
52522W        W24248  39.854  39.315  12.049
52523W        W24249  10.411  42.322   1.366
52524W        W24250  39.949  28.475   0.596
52525W        W24251  20.237   6.962   0.246
52526W        W24252   0.500   8.739   4.239
52527W        W24253  27.509  44.986  11.867
52528W        W24254  21.074  14.843   0.853
52529W        W24255  43.770  29.805  11.641
52530W        W24256  37.110  36.366  10.589
52531W        W24257  10.327  41.810  13.037
52532W        W24258  18.783  11.116  10.746
52533W        W24259  12.678  34.289   2.554
52534W        W24260  15.177  28.608  11.262
52535W        W24261   6.813  29.538  12.591
52536W        W24262  34.122  33.923  13.039
52537W        W24263  33.935  30.982  11.537
52538W        W24264   1.461  37.229  10.276
52539W        W24265  44.777  16.285   1.117
52540W        W24266  44.324  20.340   3.568
52541W        W24267  37.109   1.675  13.272
52542W        W24268  17.090  30.536  11.824
52543W        W24269   0.010  40.922  14.042
52544W        W24270  26.923  41.910   4.178
52545W        W24271   8.948   3.262  14.508
52546W        W24272  24.780   3.454   0.187
52547W        W24273  22.127   5.728   2.171
52548W        W24274   0.313  37.409  12.376
52549W        W24275   6.764   1.310   4.651
52550W        W24276  25.497  40.929  11.569
52551W        W24277  19.544  24.619   5.085
52552W        W24278  32.467  41.034  11.193
52553W        W24279   7.941  30.183  12.947
52554W        W24280  11.633  41.990   5.126
52555W        W24281   1.767   3.847   0.150
52556W        W24282   5.801  11.411  11.991
52557W        W24283  10.934  22.770   3.722
52558W        W24284  11.233  17.990   3.326
52559W        W24285  34.001  37.098  13.094
52560W        W24286   1.190  12.252  12.614
52561W        W24287  29.489   3.557  12.398
52562W        W24288  43.544   4.213   4.801
52563W        W24289  32.139  27.576  12.922
52564W        W24290  30.563  16.252   0.290
52565W        W24291  14.610  30.261  10.216
52566W        W24292  28.681  10.352   3.244
52567W        W24293   0.655  21.523  13.536
52568W        W24294  17.670  35.554   4.131
52569W        W24295  38.555   6.569   4.355
52570W        W24296  26.217  41.347  12.409
52571W        W24297  16.783  36.877  14.506
52572W        W24298  18.137  15.423   4.101
52573W        W24299   2.730  11.799  13.821
52574W        W24300   6.316  43.854   3.613
52575W        W24301  27.217   4.684   1.305
52576W        W24302   6.811   7.939   5.082
52577W        W24303  32.957  28.378   1.326
52578W        W24304  41.196  43.364   4.589
52579W        W24305   2.982  33.434  13.502
52580W        W24306  41.441  38.645   4.172
52581W        W24307  14.262  24.268  14.929
52582W        W24308  31.897  12.644  12.966
52583W        W24309  19.675  15.033   1.935
52584W        W24310  17.095  24.999  10.226
52585W        W24311  16.397  30.222   0.680
52586W        W24312  10.628  43.973   3.092
52587W        W24313  31.939  11.003  12.986
52588W        W24314  31.616  34.552   3.275
52589W        W24315  44.314   2.698  12.609
52590W        W24316  33.469  38.052  10.671
52591W        W24317  38.986   8.115  12.158
52592W        W24318   0.916  14.202  13.309
52593W        W24319  42.602   9.475  13.392
52594W        W24320   5.911  35.373  12.612
52595W        W24321   9.263  10.344   1.672
52596W        W24322  11.841  36.345   2.800
52597W        W24323  18.463  41.947   3.787
52598W        W24324   2.996  17.871   1.854
52599W        W24325   1.188   1.479  10.382
52600W        W24326  15.218  15.807  10.158
52601W        W24327  29.735  10.879  11.642
52602W        W24328   6.238  42.954   4.294
52603W        W24329  19.058  39.502  11.311
52604W        W24330  38.001  14.350  13.258
52605W        W24331  16.063  32.158  11.693
52606W        W24332  11.151  34.169   2.323
52607W        W24333  40.039  36.422   1.875
52608W        W24334  41.827  42.968  14.199
52609W        W24335  13.762  18.665  12.372
52610W        W24336  32.662   6.975   1.724
52611W        W24337  29.518  21.230   4.096
52612W        W24338   4.598   6.494  14.553
52613W        W24339  24.606   9.817  11.224
52614W        W24340   4.292  40.472  10.744
52615W        W24341  10.386  44.302  11.982
52616W        W24342  27.466   1.646  11.043
52617W        W24343  35.895   8.129  11.077
52618W        W24344  40.555  10.349  13.133
52619W        W24345   4.983  28.269   0.889
52620W        W24346  18.636  11.735   1.198
52621W        W24347   1.917   1.785  11.418
52622W        W24348  32.038  12.744  13.774
52623W        W24349  31.620  41.080  14.974
52624W        W24350   6.178   9.227  14.330
52625W        W24351  33.928  34.388  13.185
52626W        W24352  34.208  20.555   1.272
52627W        W24353  31.167  24.593  10.551
52628W        W24354  30.968   0.755   3.049
52629W        W24355  18.164  31.436  14.429
52630W        W24356  30.622  14.421  12.379
52631W        W24357  17.584  37.883  12.658
52632W        W24358  43.848   4.139  14.849
52633W        W24359   7.251  25.183   3.657
52634W        W24360  24.123  20.015   2.903
52635W        W24361   6.412  19.703  14.157
52636W        W24362   1.689  20.035  12.482
52637W        W24363  16.106   2.586  10.913
52638W        W24364   0.957  23.914   4.769
52639W        W24365  39.798   5.937  14.944
52640W        W24366  32.088  18.082   3.231
52641W        W24367  34.955   8.265   1.328
52642W        W24368  30.111  17.823   3.662
52643W        W24369  15.230   7.532   2.396
52644W        W24370  31.711  16.436  12.396
52645W        W24371  22.082  33.315  13.814
52646W        W24372  38.472   6.897   4.766
52647W        W24373   1.991   5.832  11.106
52648W        W24374  38.263  29.456  14.413
52649W        W24375   7.273  40.063   2.809
52650W        W24376  29.578   1.975  13.752
52651W        W24377  32.414  35.926   4.808
52652W        W24378  16.554  20.672  12.457
52653W        W24379   2.928  40.573   0.879
52654W        W24380  34.061   0.919   1.072
52655W        W24381  29.556  41.296   0.333
52656W        W24382  21.260   9.691  12.989
52657W        W24383   7.618  29.685   1.721
52658W        W24384   7.649   8.088  11.146
52659W        W24385  11.309   4.207  12.378
52660W        W24386  35.860  14.277   2.269
52661W        W24387  44.192  38.343  13.844
52662W        W24388  16.837  37.828   0.359
52663W        W24389  24.671  18.620   3.277
52664W        W24390  19.136  24.657  13.999
52665W        W24391  44.330  37.557   0.404
52666W        W24392   8.111  13.209   4.071
52667W        W24393   7.155  32.968   1.703
52668W        W24394  14.548   8.284   3.745
52669W        W24395   8.431   8.740  11.458
52670W        W24396  17.356  37.177  12.956
52671W        W24397  44.852   8.642   2.936
52672W        W24398  39.263   8.921  11.044
52673W        W24399  16.187  35.644  13.875
52674W        W24400   4.431  31.099   4.218
52675W        W24401   4.980  18.176   1.792
52676W        W24402   0.650  43.646  13.960
52677W        W24403  25.675  41.580  11.101
52678W        W24404  34.380  13.275   1.312
52679W        W24405  31.737  28.942  11.527
52680W        W24406  21.187   0.474  12.009
52681W        W24407  19.133  24.999   1.710
52682W        W24408   9.868  25.240   2.366
52683W        W24409   9.749  44.550   4.329
52684W        W24410  32.048  18.144   1.926
52685W        W24411   4.733  23.137   2.398
52686W        W24412  38.827  21.711   3.628
52687W        W24413  12.623  44.473  14.722
52688W        W24414  15.360  15.315   3.322
52689W        W24415   4.456   5.427  13.347
52690W        W24416  42.639  18.156  11.351
52691W        W24417  34.640  23.511   3.229
52692W        W24418  26.538  14.703   0.210
52693W        W24419  27.523  21.565   4.562
52694W        W24420   0.712  20.523   4.266
52695W        W24421  18.138  37.439   4.662
52696W        W24422   2.404  43.106   4.097
52697W        W24423  43.532  26.646   0.791
52698W        W24424   0.467  41.926  11.009
52699W        W24425  18.662  34.652  12.012
52700W        W24426  17.621  24.753  12.580
52701W        W24427  24.574  42.519  14.406
52702W        W24428   1.973  19.780   3.151
52703W        W24429  29.106   0.451   1.898
52704W        W24430  18.271  20.798   4.194
52705W        W24431  36.543   3.753   1.760
52706W        W24432  13.175  44.267   0.003
52707W        W24433  33.658  31.341   4.017
52708W        W24434  39.235  17.827   1.296
52709W        W24435   9.074   8.310   3.399
52710W        W24436  17.679   2.878  10.795
52711W        W24437  40.097  20.609  12.863
52712W        W24438  16.593  10.867   4.641
52713W        W24439   1.479  23.888   1.269
52714W        W24440   5.944  17.347   2.463
52715W        W24441  24.187  35.829   2.800
52716W        W24442  23.978  24.749   4.175
52717W        W24443  40.321   6.456  12.162
52718W        W24444  31.192  44.351   1.690
52719W        W24445  22.468  38.052  13.564
52720W        W24446  11.565  41.786   0.599
52721W        W24447  41.573   9.903   3.498
52722W        W24448  44.810  33.634   2.771
52723W        W24449  12.972  22.940   0.126
52724W        W24450  15.428  11.626   3.291
52725W        W24451  33.569  41.201   3.695
52726W        W24452  37.036   1.775  14.697
52727W        W24453  35.419  27.486  10.721
52728W        W24454  25.179   5.911   2.283
52729W        W24455   0.380  13.678  13.195
52730W        W24456  27.994  41.298   3.401
52731W        W24457  33.919  35.798  13.808
52732W        W24458  19.575   3.270   1.315
52733W        W24459  11.610  29.172   4.631
52734W        W24460  21.205  28.480  13.839
52735W        W24461  27.131  25.581   4.947
52736W        W24462  19.519  31.827   0.701
52737W        W24463   2.837  33.084   0.426
52738W        W24464   6.711  21.556   1.514
52739W        W24465  10.944  15.576  12.944
52740W        W24466  39.136  43.594  11.057
52741W        W24467  20.380  28.013  12.821
52742W        W24468  31.137  10.843   2.617
52743W        W24469  20.277   4.669  12.363
52744W        W24470  31.696  43.683   3.339
52745W        W24471   7.294   0.284   1.972
52746W        W24472   5.934   7.936  10.113
52747W        W24473  21.858  12.685  10.709
52748W        W24474  39.528  19.826  13.314
52749W        W24475  42.050  43.416   0.983
52750W        W24476   6.947  27.100  10.776
52751W        W24477  28.716   8.621  13.404
52752W        W24478   7.719  14.562  14.099
52753W        W24479  35.220  33.192   2.821
52754W        W24480  43.767   1.812  14.318
52755W        W24481   5.770  44.094  13.273
52756W        W24482  32.641   8.863  12.400
52757W        W24483  20.568  38.278  12.006
52758W        W24484   4.366  42.561  14.897
52759W        W24485  21.199  15.844  14.318
52760W        W24486  20.690   2.940  13.777
52761W        W24487   8.912  22.044  13.739
52762W        W24488  35.827   0.834   2.761
52763W        W24489  27.028  14.820   0.346
52764W        W24490  24.587  14.083   4.491
52765W        W24491   5.671  25.624   0.021
52766W        W24492  17.095  13.912   1.927
52767W        W24493  23.316  25.748  10.199
52768W        W24494  40.599   4.818   5.078
52769W        W24495  38.765   2.519   1.526
52770W        W24496  36.437  36.122  11.876
52771W        W24497  15.353  40.355   4.368
52772W        W24498   9.383  30.075  12.429
52773W        W24499  11.119  33.998   1.324
52774W        W24500   3.563  31.771  14.548
52775W        W24501   9.744  23.915  14.078
52776W        W24502  31.833  19.091  10.579
52777W        W24503   8.153   3.844   0.918
52778W        W24504  15.187  13.686  10.716
52779W        W24505  42.511  13.091   3.851
52780W        W24506  25.510   7.326  11.242
52781W        W24507   9.597   5.303  11.612
52782W        W24508  12.660  32.347   0.492
52783W        W24509   9.695  31.706  12.436
52784W        W24510  22.430   8.921   3.610
52785W        W24511  17.390  16.733   2.425
52786W        W24512  15.449   3.344   1.890
52787W        W24513  11.820  11.871  10.663
52788W        W24514  32.019  36.759  11.401
52789W        W24515  37.909  35.963   3.248
52790W        W24516  37.957  16.141   0.218
52791W        W24517  40.793   4.907  10.905
52792W        W24518   2.397  13.513  14.470
52793W        W24519  14.861  24.077  12.121
52794W        W24520  10.821  16.226   1.307
52795W        W24521  38.305  14.818   0.293
52796W        W24522  28.640  12.952   0.002
52797W        W24523   8.689  43.807   9.781
52798W        W24524  37.212  28.557  12.524
52799W        W24525   6.748  36.203  14.248
52800W        W24526  36.261  34.893   2.313
52801W        W24527  34.122  27.028  12.249
52802W        W24528  24.485  13.287  12.091
52803W        W24529   9.320   2.883  10.397
52804W        W24530   6.028   7.810  13.778
52805W        W24531   3.663  31.362   0.409
52806W        W24532   8.658   4.666   0.254
52807W        W24533  18.564  43.863  11.653
52808W        W24534  30.444  23.224  12.021
52809W        W24535   5.392  28.180  13.861
52810W        W24536  37.620  22.243   1.693
52811W        W24537  23.366  43.653   2.812
52812W        W24538  37.971  32.459   2.648
52813W        W24539  17.916  11.626  14.489
52814W        W24540  43.294  19.861   5.084
52815W        W24541  42.389  20.587  14.371
52816W        W24542  33.211  34.485  14.490
52817W        W24543  43.053  17.760   4.097
52818W        W24544  11.747   9.230  12.388
52819W        W24545  12.607   9.258   2.121
52820W        W24546   0.296   6.164   2.873
52821W        W24547  27.682  10.220   1.869
52822W        W24548  20.279  32.180  12.154
52823W        W24549   2.678  35.900  13.683
52824W        W24550   4.695  10.643   2.843
52825W        W24551   3.444  39.450  11.030
52826W        W24552   3.893  18.124  11.025
52827W        W24553   3.881  16.163   2.591
52828W        W24554  15.629  40.032   4.111
52829W        W24555  37.003   4.134  11.512
52830W        W24556  23.976  25.257  13.481
52831W        W24557  10.381  21.731  13.597
52832W        W24558   3.165  25.944  12.910
52833W        W24559  21.232   0.073   1.301
52834W        W24560  19.739  24.602   2.214
52835W        W24561   5.939  17.191  10.173
52836W        W24562   3.433   7.664   1.269
52837W        W24563  18.607   7.526   4.691
52838W        W24564  23.480  24.702  11.998
52839W        W24565  24.511  10.942  11.910
52840W        W24566  19.759  33.915  12.546
52841W        W24567  34.969  26.608  12.083
52842W        W24568  32.876  37.002   3.707
52843W        W24569  23.166   6.702   2.131
52844W        W24570  31.473   8.646   3.681
52845W        W24571  12.667  32.525  13.487
52846W        W24572   0.264  29.589   0.079
52847W        W24573  30.931  15.247  11.416
52848W        W24574  28.961   4.934  10.136
52849W        W24575  24.516  21.942   4.536
52850W        W24576  32.579  25.738  10.972
52851W        W24577   5.003  14.625  13.397
52852W        W24578   5.462  12.639   3.729
52853W        W24579   4.907   3.475  14.818
52854W        W24580  36.431   3.016  14.399
52855W        W24581  24.035  31.568  10.488
52856W        W24582  29.946  35.357   2.399
52857W        W24583  43.258  17.618   0.793
52858W        W24584  15.445  34.764   5.119
52859W        W24585  16.150  11.200   0.256
52860W        W24586  28.327   8.934   2.336
52861W        W24587  18.766  43.305   1.463
52862W        W24588   7.106  31.530   0.895
52863W        W24589  28.988  34.370  11.637
52864W        W24590  24.665  41.178  14.014
52865W        W24591  34.049  32.602  13.865
52866W        W24592   0.762  13.059  14.953
52867W        W24593  29.529  41.480  10.553
52868W        W24594  36.966   3.919   0.456
52869W        W24595  23.241  36.831  13.803
52870W        W24596  38.226  40.045   2.642
52871W        W24597  15.118  36.570  10.708
52872W        W24598  25.993  11.826   0.228
52873W        W24599  27.719  26.121  12.133
52874W        W24600  30.024   3.735   2.113
52875W        W24601  21.650  20.014   2.277
52876W        W24602  27.122  19.758  12.699
52877W        W24603  36.591  43.848   1.358
52878W        W24604  19.084  13.248   3.016
52879W        W24605   8.720  40.199   0.143
52880W        W24606  28.510   7.626   1.547
52881W        W24607  23.204  38.502   0.278
52882W        W24608  33.803  23.808  13.284
52883W        W24609   4.351  13.485  10.155
52884W        W24610   7.729   2.874   3.799
52885W        W24611  12.647  17.604  13.385
52886W        W24612  19.628   4.430  10.648
52887W        W24613  19.618  34.130   4.160
52888W        W24614  10.663  31.151  14.961
52889W        W24615  35.562   4.879   4.726
52890W        W24616   3.562  23.728   1.861
52891W        W24617  38.942   1.964  11.872
52892W        W24618   3.035  40.127   3.695
52893W        W24619   4.903   9.792   1.763
52894W        W24620  28.793  12.735   2.210
52895W        W24621  41.926  14.860  14.594
52896W        W24622  42.931  38.801  13.493
52897W        W24623  36.718   5.090  12.158
52898W        W24624  10.697  20.844  14.560
52899W        W24625  42.066   1.441  11.011
52900W        W24626  40.965  15.682   3.276
52901W        W24627  15.657  38.346  10.633
52902W        W24628  14.078   0.103   1.480
52903W        W24629  28.959  32.881  13.508
52904W        W24630  36.506  11.833  13.379
52905W        W24631  30.870  43.998  10.725
52906W        W24632   6.516   6.423  14.512
52907W        W24633  26.646  36.347   1.973
52908W        W24634  35.546  42.489  13.426
52909W        W24635   8.759  20.514   5.049
52910W        W24636  30.938  20.496   1.821
52911W        W24637  14.345  30.996   0.962
52912W        W24638  41.340  31.623   3.057
52913W        W24639  35.025  13.290  11.946
52914W        W24640  42.929  37.450   4.362
52915W        W24641   8.366  40.111  12.512
52916W        W24642  18.297   4.454   3.326
52917W        W24643  31.166  43.834   1.337
52918W        W24644  43.920  27.961   3.680
52919W        W24645  18.592  35.982  14.853
52920W        W24646  11.560  24.388   9.527
52921W        W24647  16.850  24.514   4.225
52922W        W24648  44.451  36.978  13.952
52923W        W24649  27.292   0.910   0.285
52924W        W24650  16.320  21.105  10.532
52925W        W24651  32.608  31.141   2.142
52926W        W24652   0.033  14.667  11.674
52927W        W24653  15.574  18.818  10.988
52928W        W24654  27.626  12.562  14.426
52929W        W24655  17.625  36.346  13.979
52930W        W24656  42.080  42.069  13.900
52931W        W24657  36.523  13.677   0.976
52932W        W24658  34.402  18.087  11.240
52933W        W24659  30.475  12.513  13.801
52934W        W24660   9.243  24.991  13.562
52935W        W24661  21.177   3.335   1.900
52936W        W24662  15.262  37.300  11.061
52937W        W24663  19.294  15.859  13.689
52938W        W24664   4.748  23.553   3.771
52939W        W24665   4.057  33.043  14.521
52940W        W24666  28.767  43.297  11.021
52941W        W24667   3.454   3.971  12.990
52942W        W24668  12.269  17.858  12.048
52943W        W24669   1.473  29.921  12.499
52944W        W24670  20.122   5.168   3.305
52945W        W24671  19.963  41.098  11.032
52946W        W24672   4.866  18.300  13.079
52947W        W24673  26.715  44.520   0.863
52948W        W24674  27.897   2.986   4.994
52949W        W24675  32.519  41.950  10.207
52950W        W24676  39.840   1.813   4.302
52951W        W24677  37.326  21.608  12.400
52952W        W24678  32.128  41.407  11.441
52953W        W24679  36.802  33.393   1.359
52954W        W24680  35.800  12.285  14.201
52955W        W24681  19.000  15.191  14.367
52956W        W24682  15.822  40.459   1.808
52957W        W24683  29.153  25.654  10.550
52958W        W24684  22.714   4.433   3.398
52959W        W24685  32.520  10.671   3.624
52960W        W24686  41.779   8.397   0.439
52961W        W24687  17.500  22.990  13.924
52962W        W24688  19.659  41.546  10.304
52963W        W24689   4.402   0.161  14.257
52964W        W24690   9.307  21.695  11.374
52965W        W24691  28.167   1.270  14.720
52966W        W24692  34.450  39.613  14.919
52967W        W24693   6.994  15.958  11.990
52968W        W24694  42.757  37.902  11.649
52969W        W24695   8.282  18.594   0.664
52970W        W24696  24.017  18.207  13.325
52971W        W24697  36.678  32.208   9.895
52972W        W24698  31.689  28.968   3.379
52973W        W24699  11.686   8.907  11.016
52974W        W24700  38.848  25.511   3.180
52975W        W24701   9.389  42.986   2.829
52976W        W24702   7.861  41.352  13.843
52977W        W24703  30.701  44.256   4.806
52978W        W24704  32.136  38.040  14.970
52979W        W24705   4.215  13.157   1.612
52980W        W24706  18.572  28.566   1.873
52981W        W24707  20.223  32.228  13.461
52982W        W24708   2.075   0.025  14.573
52983W        W24709  32.177  38.089   1.247
52984W        W24710  23.029  10.210  11.333
52985W        W24711  29.094  20.338   1.719
52986W        W24712  11.871  30.444   0.061
52987W        W24713  31.927  41.496  13.055
52988W        W24714  10.054   6.219   2.045
52989W        W24715   7.260   4.903   4.044
52990W        W24716  11.323  17.452  10.300
52991W        W24717   9.768   8.265  12.490
52992W        W24718  39.432  43.039  13.412
52993W        W24719  38.007  31.603  11.712
52994W        W24720  19.124  12.796   4.478
52995W        W24721   3.666  28.538   3.811
52996W        W24722  37.416   7.892   1.862
52997W        W24723  39.371  31.679   2.189
52998W        W24724   1.226  16.168   0.458
52999W        W24725  31.371  31.504  11.514
53000W        W24726  12.022  23.499  10.663
53001W        W24727  10.385  35.067   2.733
53002W        W24728  33.793  10.795  11.051
53003W        W24729  34.616   9.331  13.520
53004W        W24730   5.854  14.933   1.706
53005W        W24731  37.131  26.935  11.794
53006W        W24732  12.092  42.215   2.858
53007W        W24733   3.413  43.945  13.922
53008W        W24734  33.033  11.467   2.279
53009W        W24735   5.951  38.810   0.347
53010W        W24736   1.868  16.181  14.203
53011W        W24737  24.924  12.421  10.899
53012W        W24738  36.650  15.165   4.202
53013W        W24739  29.117  15.781   1.834
53014W        W24740  28.581   2.458  10.587
53015W        W24741  10.426  38.532  12.990
53016W        W24742  25.813  15.622  14.915
53017W        W24743  35.330   6.642  12.434
53018W        W24744  36.284  28.508  14.003
53019W        W24745  18.970   2.327  11.887
53020W        W24746   7.378   7.820   4.153
53021W        W24747  41.430  39.800  11.388
53022W        W24748  40.539   2.375   0.997
53023W        W24749  15.016  26.547  12.805
53024W        W24750  42.278  29.742  14.970
53025W        W24751  33.616  27.603   4.181
53026W        W24752  20.166   9.844  14.886
53027W        W24753  12.207  27.241  11.106
53028W        W24754  39.143  43.050   4.273
53029W        W24755  20.722  30.978  10.606
53030W        W24756  43.315  26.842  11.633
53031W        W24757  24.099  38.032  12.936
53032W        W24758  17.506  24.309   3.250
53033W        W24759  44.050  15.104  11.497
53034W        W24760  37.074  41.059  11.636
53035W        W24761  23.034   4.360  13.486
53036W        W24762  30.611  27.110   4.122
53037W        W24763  32.502  13.446   3.081
53038W        W24764  10.993  25.025  14.808
53039W        W24765  33.692   0.852  14.460
53040W        W24766  21.319  30.070   3.309
53041W        W24767  37.451  36.135   0.967
53042W        W24768   9.170  33.388   3.792
53043W        W24769  25.860  41.048   1.752
53044W        W24770  37.596  20.120   3.190
53045W        W24771   1.240   6.180  10.661
53046W        W24772  18.204   4.985   4.128
53047W        W24773  37.725  24.003   4.543
53048W        W24774  10.177  43.516   4.086
53049W        W24775  23.498  14.613  11.021
53050W        W24776  26.621   9.684   4.342
53051W        W24777  15.758  33.626   2.736
53052W        W24778   4.669  18.288  14.487
53053W        W24779  18.654   6.622  14.070
53054W        W24780  18.229  23.899   2.603
53055W        W24781  38.077  17.724  11.182
53056W        W24782  24.464  26.939   1.690
53057W        W24783  21.064  37.406   4.281
53058W        W24784  37.039  13.644   1.763
53059W        W24785  40.851  28.412  12.105
53060W        W24786  22.618  19.164  11.346
53061W        W24787  27.467   1.806  12.893
53062W        W24788  32.304  32.255   0.417
53063W        W24789  13.350  31.887   4.649
53064W        W24790  15.097  43.106   2.340
53065W        W24791  36.773  42.839   5.122
53066W        W24792   2.925  17.226  12.899
53067W        W24793   9.330  24.020   1.729
53068W        W24794   7.798  31.660  12.319
53069W        W24795   7.287  25.222  14.313
53070W        W24796  38.471  24.089  13.628
53071W        W24797  25.708  10.144  12.084
53072W        W24798   4.642   4.141   4.604
53073W        W24799  31.007  26.461  12.065
53074W        W24800  10.783   0.002  13.122
53075W        W24801  14.284  26.623   0.474
53076W        W24802  30.412  29.458   2.355
53077W        W24803  22.347  41.136   5.034
53078W        W24804  22.731   9.690  11.923
53079W        W24805   4.408  16.373  11.673
53080W        W24806  26.081  10.638   3.534
53081W        W24807  24.033  20.070  12.932
53082W        W24808  36.455   4.421  14.308
53083W        W24809  27.612   8.843   1.804
53084W        W24810   7.153  16.329   1.003
53085W        W24811   5.190  21.497   3.161
53086W        W24812  30.441  43.063   3.243
53087W        W24813  10.564  19.637   3.568
53088W        W24814  17.288   4.781  10.929
53089W        W24815  42.996  32.773  14.464
53090W        W24816   1.328   0.470   1.814
53091W        W24817  13.673  14.661   0.330
53092W        W24818  13.394  13.155   3.183
53093W        W24819  11.316  13.186   3.880
53094W        W24820  11.423   1.720   0.442
53095W        W24821   8.351  10.683   1.320
53096W        W24822  28.126   4.216  10.518
53097W        W24823  13.123   6.261  10.839
53098W        W24824  21.140  43.954   0.178
53099W        W24825  29.031  39.504  13.711
53100W        W24826  25.771  40.370  12.959
53101W        W24827   7.763  13.149   1.694
53102W        W24828  26.172   6.302  12.002
53103W        W24829  18.097   4.734   4.577
53104W        W24830  43.893  25.214  14.001
53105W        W24831  23.499   5.378   2.599
53106W        W24832  26.498  15.987  14.381
53107W        W24833   7.391  10.450   1.830
53108W        W24834  33.684  44.919  12.887
53109W        W24835  17.855  44.384   4.237
53110W        W24836  41.529  27.309   4.166
53111W        W24837  11.914  38.709   1.108
53112W        W24838   5.425  13.843   9.784
53113W        W24839   1.710   1.498  11.046
53114W        W24840   1.706  31.523  13.636
53115W        W24841   8.701  11.652   0.568
53116W        W24842  29.076  29.057   2.180
53117W        W24843  26.124  44.897  12.253
53118W        W24844  29.905  41.486   2.748
53119W        W24845  14.497  43.903  11.876
53120W        W24846  36.372  29.302   1.259
53121W        W24847  25.617  32.139  11.142
53122W        W24848   8.729  38.278   1.190
53123W        W24849  36.465   7.186  13.063
53124W        W24850  32.021  29.042   0.343
53125W        W24851   1.587  28.653   3.246
53126W        W24852  33.435  28.291   4.645
53127W        W24853  15.543  19.183   4.735
53128W        W24854  39.810  27.556  12.846
53129W        W24855  14.586  43.723   3.424
53130W        W24856   0.219  33.594   4.112
53131W        W24857  31.005   6.124  12.918
53132W        W24858   6.978  44.647  14.290
53133W        W24859   7.841   8.591   3.743
53134W        W24860  40.727   4.529  13.780
53135W        W24861  39.388  26.609   4.849
53136W        W24862  43.890  11.065  10.721
53137W        W24863  36.507   7.126   2.457
53138W        W24864   5.317   2.426  13.108
53139W        W24865  38.506  28.268   1.293
53140W        W24866   2.035  16.767   2.456
53141W        W24867   5.748  20.739  14.829
53142W        W24868   4.427  39.535   2.676
53143W        W24869  35.851  31.104   3.218
53144W        W24870  44.794  25.523  13.308
53145W        W24871  40.261  32.455  11.183
53146W        W24872  41.958   3.958  12.521
53147W        W24873  34.653   9.479  14.404
53148W        W24874  34.123  42.733   0.628
53149W        W24875  23.453  20.389   1.302
53150W        W24876  20.569   6.767   4.662
53151W        W24877  29.331  24.295   2.844
53152W        W24878  25.040   3.654  12.855
53153W        W24879  15.674   4.271  14.801
53154W        W24880  37.603   8.436  14.527
53155W        W24881  41.889  44.927   4.157
53156W        W24882  26.619  44.334  11.798
53157W        W24883  36.015   6.446  10.888
53158W        W24884  37.570  12.508  13.965
53159W        W24885  40.775  19.576   3.856
53160W        W24886   2.402   5.835   4.735
53161W        W24887  31.038  40.371  14.926
53162W        W24888  23.954   0.367  11.949
53163W        W24889  34.398  18.810   3.435
53164W        W24890   3.439  24.644  11.974
53165W        W24891  39.548   8.920   0.527
53166W        W24892  44.560  39.251   9.946
53167W        W24893  33.855  15.070   5.046
53168W        W24894   8.938  26.954   0.698
53169W        W24895   6.277   8.213   4.783
53170W        W24896   7.118  14.176  11.694
53171W        W24897   3.388  21.854  13.723
53172W        W24898  39.436  31.457  13.425
53173W        W24899   3.620  29.601   3.881
53174W        W24900  40.391  12.069  10.704
53175W        W24901  28.215  26.431   3.454
53176W        W24902  22.238  24.747  12.413
53177W        W24903  22.621  12.382   0.994
53178W        W24904  22.265  36.937  12.958
53179W        W24905  34.058  37.199  12.580
53180W        W24906   4.680  12.282  11.066
53181W        W24907  39.178  42.711  12.049
53182W        W24908  43.832  25.112  12.483
53183W        W24909  30.376  32.075  13.883
53184W        W24910  21.960  41.892  12.897
53185W        W24911  17.277  18.382  11.038
53186W        W24912  31.544  23.203   1.458
53187W        W24913  19.234  29.966  12.627
53188W        W24914  39.052   4.880   1.740
53189W        W24915   4.839  24.794  12.033
53190W        W24916  37.996   3.524   2.331
53191W        W24917  34.437   3.004  11.741
53192W        W24918  11.889   9.436  14.321
53193W        W24919  28.841  20.106  12.901
53194W        W24920  18.177  10.786  14.285
53195W        W24921  19.302   9.363   3.270
53196W        W24922  39.557  31.402   0.638
53197W        W24923  18.113   9.642   3.570
53198W        W24924  14.668  18.273  13.829
53199W        W24925  10.779  27.043   0.320
53200W        W24926  21.344   5.903  10.285
53201W        W24927   6.284  10.088   1.919
53202W        W24928  31.757  12.002  12.886
53203W        W24929  26.442  11.377   4.196
53204W        W24930  43.798  39.778   2.200
53205W        W24931  39.763  32.473  10.515
53206W        W24932   8.786  25.750  12.512
53207W        W24933   6.875   7.349   1.631
53208W        W24934  19.141   3.943  11.038
53209W        W24935   6.609  18.116  13.557
53210W        W24936  21.648  12.665   5.497
53211W        W24937  33.122  37.426  11.092
53212W        W24938  22.261  28.443  10.107
53213W        W24939  36.954   4.073  12.942
53214W        W24940  12.722  36.685   0.851
53215W        W24941  21.272   9.180  14.062
53216W        W24942  30.036  32.099   1.253
53217W        W24943  37.454  22.973  14.725
53218W        W24944  19.927   7.953  14.478
53219W        W24945   0.201  11.199  14.297
53220W        W24946   2.214  12.690   4.995
53221W        W24947  19.989   8.373  11.947
53222W        W24948  27.494  42.513  10.691
53223W        W24949  33.845  29.257  11.131
53224W        W24950   5.735  29.304   4.727
53225W        W24951  16.688  35.300  11.093
53226W        W24952  17.053  28.548   4.882
53227W        W24953  35.690  26.420   1.860
53228W        W24954   6.425  21.066   3.343
53229W        W24955   6.239   4.736   3.594
53230W        W24956  17.098  30.712   2.620
53231W        W24957  27.095  38.322  11.155
53232W        W24958  17.709  43.391  10.403
53233W        W24959  25.066  29.967   4.383
53234W        W24960  23.741  43.389   4.613
53235W        W24961  23.479   3.437   1.170
53236W        W24962  10.223   9.672   0.224
53237W        W24963  36.499   6.300   3.063
53238W        W24964  22.716  16.805   1.839
53239W        W24965   9.219  34.628  11.377
53240W        W24966  36.077  27.530  12.393
53241W        W24967  30.481  21.150   2.898
53242W        W24968  40.964  29.204  11.597
53243W        W24969  28.144  21.477  14.397
53244W        W24970  31.960  11.183  11.679
53245W        W24971  13.863   8.476   4.583
53246W        W24972  37.124  14.863  10.963
53247W        W24973  37.979  44.791   1.142
53248W        W24974  44.463   3.413  11.588
53249W        W24975  34.550   6.227  10.755
53250W        W24976  39.004  32.606   4.639
53251W        W24977  32.639   7.144   3.665
53252W        W24978  15.672  20.797  11.953
53253W        W24979  23.105  32.652   4.673
53254W        W24980   4.456  37.618   2.385
53255W        W24981   0.588  44.321  10.396
53256W        W24982  11.320  42.424   3.094
53257W        W24983  14.236  31.645   0.219
53258W        W24984  22.843  24.958  12.052
53259W        W24985   8.808  31.901   4.065
53260W        W24986  44.815  40.532   2.146
53261W        W24987  11.737  17.701   4.148
53262W        W24988  32.104  24.433  12.889
53263W        W24989  18.312   9.605  14.466
53264W        W24990  19.746  12.147   3.043
53265W        W24991  31.396  42.664  13.356
53266W        W24992  40.823  23.005  11.113
53267W        W24993  30.218   5.968  12.532
53268W        W24994  14.617  13.757  10.781
53269W        W24995  29.931   0.512  10.731
53270W        W24996  13.416   6.564  11.158
53271W        W24997   0.621  18.795  12.165
53272W        W24998  30.639  16.373  14.416
53273W        W24999   5.022  10.243  10.057
53274W        W25000   9.709   5.612   3.673
53275W        W25001  12.330   9.492   0.732
53276W        W25002   4.762   0.558  13.462
53277W        W25003  43.483  27.164  10.783
53278W        W25004  28.660  21.601   2.858
53279W        W25005  26.693  10.552   4.656
53280W        W25006  27.726   1.029   0.548
53281W        W25007   6.958  31.592  12.163
53282W        W25008   0.916   4.616   2.726
53283W        W25009  32.548  32.126   4.181
53284W        W25010  26.532  38.056   0.007
53285W        W25011   3.720  28.020   3.721
53286W        W25012  44.713  35.966  14.894
53287W        W25013  33.440  18.659  11.144
53288W        W25014  33.657  15.484   3.224
53289W        W25015  18.294  31.645  10.787
53290W        W25016   9.063  33.366  13.308
53291W        W25017  28.996  12.354   3.763
53292W        W25018   9.826  12.169   3.356
53293W        W25019   4.411   1.853  11.500
53294W        W25020  27.459  24.632  12.110
53295W        W25021  17.598  24.325  12.016
53296W        W25022   4.409  31.002  14.904
53297W        W25023  42.396  37.829   2.794
53298W        W25024  31.407  32.618  13.600
53299W        W25025  20.334   6.654   1.250
53300W        W25026  28.157  44.136  13.331
53301W        W25027  19.262  24.076   0.915
53302W        W25028   6.581  30.435  13.519
53303W        W25029  36.344  31.580  13.552
53304W        W25030   1.263  29.343  14.324
53305W        W25031  12.898  35.250   1.274
53306W        W25032   4.270  28.070  10.948
53307W        W25033  10.400  17.666   2.593
53308W        W25034  12.343  44.324  10.263
53309W        W25035  30.602  36.112   1.244
53310W        W25036  31.169  38.421  10.734
53311W        W25037  18.294  15.726  14.919
53312W        W25038  26.179  26.626   3.734
53313W        W25039   6.454  39.446  13.036
53314W        W25040   3.337  13.063   2.428
53315W        W25041  33.340  35.563  14.809
53316W        W25042  21.707  39.884  13.948
53317W        W25043  39.338  29.133  12.007
53318W        W25044  43.736  18.216   1.715
53319W        W25045  33.606  31.052   0.080
53320W        W25046  15.216  34.612  10.504
53321W        W25047  34.871  40.908   4.551
53322W        W25048  31.174  29.948   0.337
53323W        W25049  35.691  39.409   2.897
53324W        W25050  33.876  13.596  11.902
53325W        W25051  14.375  24.158  12.545
53326W        W25052   7.083  13.985  11.226
53327W        W25053   2.752  33.809  11.434
53328W        W25054  12.200  31.489  12.442
53329W        W25055  24.042  15.360   5.333
53330W        W25056  10.615  27.517   0.392
53331W        W25057  32.106  26.146   2.227
53332W        W25058   9.425  11.149  13.057
53333W        W25059  39.942   4.735  12.105
53334W        W25060  33.820  29.227  11.650
53335W        W25061  27.578  18.260   3.607
53336W        W25062  36.856   3.770   0.945
53337W        W25063  19.136  12.512   2.234
53338W        W25064   8.436  17.335  13.076
53339W        W25065   5.695  39.687  10.827
53340W        W25066   0.476  36.004   2.879
53341W        W25067  39.884  19.821  14.386
53342W        W25068  21.487   4.466  13.568
53343W        W25069  23.090  10.120   4.407
53344W        W25070   4.492  39.027  10.266
53345W        W25071  30.141  13.642  11.538
53346W        W25072  41.375  24.741  14.397
53347W        W25073  40.027  44.652  12.049
53348W        W25074  10.387  10.838  14.023
53349W        W25075   9.654  30.321  11.170
53350W        W25076  17.561  19.531  11.954
53351W        W25077   4.214  36.374   1.312
53352W        W25078   9.605  12.329  13.836
53353W        W25079  35.168   0.541  13.770
53354W        W25080  15.091  31.204   0.442
53355W        W25081  40.143  34.537  13.511
53356W        W25082  38.305  16.383  10.806
53357W        W25083  18.857  23.915  14.585
53358W        W25084  44.781  32.995   0.244
53359W        W25085  32.923  18.552   2.925
53360W        W25086  20.544  25.517  11.169
53361W        W25087   9.364  37.863   4.247
53362W        W25088   3.235  25.046   1.559
53363W        W25089  31.206  15.211   2.814
53364W        W25090  37.692  42.028   3.701
53365W        W25091  33.888  25.516   0.541
53366W        W25092  34.460  11.633  13.336
53367W        W25093   9.330  44.788  11.492
53368W        W25094  25.492  42.359  10.672
53369W        W25095  14.293  29.208  13.369
53370W        W25096   1.198  19.558   0.362
53371W        W25097  11.541  11.764   0.968
53372W        W25098  31.219   5.820   2.388
53373W        W25099  23.638   0.300  14.064
53374W        W25100  12.807   8.374   1.619
53375W        W25101  27.451  13.202   0.120
53376W        W25102   3.496  22.026   4.650
53377W        W25103  11.640  17.214  12.934
53378W        W25104   9.067   8.723   3.104
53379W        W25105  29.967  41.275   3.224
53380W        W25106  34.005  14.039  12.460
53381W        W25107  16.076  29.907  11.490
53382W        W25108   8.602  27.059   4.781
53383W        W25109  12.396  23.193   0.694
53384W        W25110  29.597   5.718  13.913
53385W        W25111  15.232  27.875  13.902
53386W        W25112   1.945  35.445  11.479
53387W        W25113  17.893  43.697   1.639
53388W        W25114  44.110  19.275   0.398
53389W        W25115   0.277  37.360   2.320
53390W        W25116  37.911  42.854   4.175
53391W        W25117  25.289  33.566  12.186
53392W        W25118  27.985   4.975  12.054
53393W        W25119   3.869   7.161  11.810
53394W        W25120  40.680  14.077  13.852
53395W        W25121   6.848  41.043   4.651
53396W        W25122   8.642  30.115  11.163
53397W        W25123   3.305  23.453   2.219
53398W        W25124  14.293  40.448   1.358
53399W        W25125  34.914  14.644  13.937
53400W        W25126  27.427   5.849   1.854
53401W        W25127  12.617  27.492   2.572
53402W        W25128  30.472  40.757   0.338
53403W        W25129   0.387  40.960  14.423
53404W        W25130  17.936  14.612   3.175
53405W        W25131  26.600  14.852   0.701
53406W        W25132  34.627  13.998  11.493
53407W        W25133  34.890  15.582  14.001
53408W        W25134  24.709  27.988  12.900
53409W        W25135  17.213  33.035  11.136
53410W        W25136   3.876  37.883  11.536
53411W        W25137  38.629  27.550  14.788
53412W        W25138  26.647   9.430  11.454
53413W        W25139  40.437   0.240  11.364
53414W        W25140   0.938  32.954  12.392
53415W        W25141  33.620   2.957   3.333
53416W        W25142   4.597   9.763  13.908
53417W        W25143  33.598  20.299   3.957
53418W        W25144  27.862  25.412  12.901
53419W        W25145  11.374  23.290   4.985
53420W        W25146  31.231   0.702  11.136
53421W        W25147  23.258  23.449   0.013
53422W        W25148  20.949  31.623  12.020
53423W        W25149   2.467   4.182   3.859
53424W        W25150   4.330  37.085  14.632
53425W        W25151  23.576  20.076  13.863
53426W        W25152  24.070   3.887   1.206
53427W        W25153  28.289  20.034   3.715
53428W        W25154   3.175  21.230   1.817
53429W        W25155  38.176  39.293   1.242
53430W        W25156  37.551  41.119   5.221
53431W        W25157  39.571  32.904  11.842
53432W        W25158  23.440   8.851  11.532
53433W        W25159  21.028   0.274  10.604
53434W        W25160  40.167  37.345  10.065
53435W        W25161   7.110  40.681   2.004
53436W        W25162  34.961  15.839   0.781
53437W        W25163   9.239   5.677  13.884
53438W        W25164  23.904  34.431   1.316
53439W        W25165  21.132  15.659   1.862
53440W        W25166  44.896  39.905  12.617
53441W        W25167   3.466  30.053   4.161
53442W        W25168  26.083  17.782  12.582
53443W        W25169  30.744  19.200   2.925
53444W        W25170  38.528  42.388  10.749
53445W        W25171   0.210  21.058  11.572
53446W        W25172  13.117  23.913  14.879
53447W        W25173  31.696  21.639   1.230
53448W        W25174   4.809   4.011  10.737
53449W        W25175  27.184  42.416   2.220
53450W        W25176  11.696   5.903   3.244
53451W        W25177  18.395  31.919   1.383
53452W        W25178   2.083  38.261  11.648
53453W        W25179  37.576   6.361   4.988
53454W        W25180   3.934  37.525  14.983
53455W        W25181  15.071  34.090   0.413
53456W        W25182  15.147  16.764   0.859
53457W        W25183  20.180  34.597   3.436
53458W        W25184  27.590  14.056   0.459
53459W        W25185   6.929  35.198   2.718
53460W        W25186  17.262  30.340  14.296
53461W        W25187   1.573  34.875  13.968
53462W        W25188  21.255  22.165   3.171
53463W        W25189  27.213   4.741   2.990
53464W        W25190   2.795  36.690  10.736
53465W        W25191   5.924  37.164   3.772
53466W        W25192  15.739  22.561  14.361
53467W        W25193  18.198  40.313   4.826
53468W        W25194  16.617  36.068   2.784
53469W        W25195  15.666   2.235  14.888
53470W        W25196  15.708   3.123   4.893
53471W        W25197   5.307  18.233   4.726
53472W        W25198   9.364   2.694   2.125
53473W        W25199  18.696  11.863   3.104
53474W        W25200   1.206  15.323  13.911
53475W        W25201  16.869  38.150   5.057
53476W        W25202  40.254  32.454  10.670
53477W        W25203   6.025  12.931   3.281
53478W        W25204   0.997   3.588  12.978
53479W        W25205  23.411   3.006  12.439
53480W        W25206  13.646   5.792   2.311
53481W        W25207  31.622  18.141  13.155
53482W        W25208  39.386   7.197   4.272
53483W        W25209  40.238  35.398  11.183
53484W        W25210  37.994   3.209   4.810
53485W        W25211  27.513  31.576  13.344
53486W        W25212  18.880   2.328  13.610
53487W        W25213  19.841  34.995  14.275
53488W        W25214  20.169  23.144   2.217
53489W        W25215  31.437  15.612   0.298
53490W        W25216   5.926  19.174  12.383
53491W        W25217  35.548  43.927   3.561
53492W        W25218  24.112   0.225  12.999
53493W        W25219  18.355  35.841  12.638
53494W        W25220  41.802  33.016  11.705
53495W        W25221  42.503  43.270   1.173
53496W        W25222  21.797  22.908   1.295
53497W        W25223  30.128  20.548   4.070
53498W        W25224  25.410  32.426  13.849
53499W        W25225  31.476  38.412   2.344
53500W        W25226  36.398  38.320  11.660
53501W        W25227   1.977  27.832   1.426
53502W        W25228  18.973   9.757   4.077
53503W        W25229  27.495  24.781   0.775
53504W        W25230  13.618   7.200   0.731
53505W        W25231  27.308  14.185  12.822
53506W        W25232  43.407  43.793  13.757
53507W        W25233   8.054  29.509   1.924
53508W        W25234  37.540  40.296  12.460
53509W        W25235  14.105  30.484  13.928
53510W        W25236  14.259   7.414  10.527
53511W        W25237  16.684  18.284   4.598
53512W        W25238   8.007   2.400  12.476
53513W        W25239  37.318   0.037   3.744
53514W        W25240  34.422  28.856   3.759
53515W        W25241  20.238   8.891   2.640
53516W        W25242  35.041  38.408   0.720
53517W        W25243  42.357  19.996   1.389
53518W        W25244  26.708   2.312   4.651
53519W        W25245  13.071  42.311  13.397
53520W        W25246  40.358   1.201   2.210
53521W        W25247   2.017   9.273  13.418
53522W        W25248  12.483  11.461  11.109
53523W        W25249  36.070  29.034  12.567
53524W        W25250   7.743   7.126   0.343
53525W        W25251  40.817  43.311   1.895
53526W        W25252  30.952   3.703  12.882
53527W        W25253  29.998   2.895  12.507
53528W        W25254   7.750  10.239   0.178
53529W        W25255  34.245   9.211  14.970
53530W        W25256  20.567   9.377   2.401
53531W        W25257  30.433  25.077  14.795
53532W        W25258  23.200  23.662  12.550
53533W        W25259  21.970  25.798  14.033
53534W        W25260  14.668  41.305   2.279
53535W        W25261  24.136  14.222   1.920
53536W        W25262  31.019  44.848   1.619
53537W        W25263  10.348  16.292  12.938
53538W        W25264  24.038   5.360   0.363
53539W        W25265   9.285  25.589   2.319
53540W        W25266   0.942  21.832  10.927
53541W        W25267  15.331  34.050   0.858
53542W        W25268  25.236  10.273  12.475
53543W        W25269  37.095  17.108  11.572
53544W        W25270  30.842  34.862   3.735
53545W        W25271  14.698   8.717   4.523
53546W        W25272  15.721  38.657  11.065
53547W        W25273  25.173  38.071  14.397
53548W        W25274   8.307  20.559   1.887
53549W        W25275   5.797   2.502  12.908
53550W        W25276  31.299  21.499  12.277
53551W        W25277  30.025  36.663   2.780
53552W        W25278   1.184   7.413   3.296
53553W        W25279  40.823   2.375   2.338
53554W        W25280  11.971  35.268  12.968
53555W        W25281  24.247  35.527  10.923
53556W        W25282   1.946  44.929   0.127
53557W        W25283   3.692   6.522  14.980
53558W        W25284   4.329  15.370  11.507
53559W        W25285  32.678  41.871  12.422
53560W        W25286  32.660  19.992  12.433
53561W        W25287  14.344  23.739  14.881
53562W        W25288   4.668  35.958   1.346
53563W        W25289  26.428  15.751  12.535
53564W        W25290   6.755  34.540   2.018
53565W        W25291  19.755  37.333  11.680
53566W        W25292  33.032  40.966   2.279
53567W        W25293   5.148  25.431   2.282
53568W        W25294  32.169  16.684  12.113
53569W        W25295  11.759  40.333   5.008
53570W        W25296  22.247  37.348   2.343
53571W        W25297  17.362  24.002   2.670
53572W        W25298  44.808  30.451   4.718
53573W        W25299  25.246  19.086   4.373
53574W        W25300  37.388   8.700   2.670
53575W        W25301  34.573  21.062  12.090
53576W        W25302  25.057  29.487  11.643
53577W        W25303  32.413  13.603  12.584
53578W        W25304  39.556   0.906   1.074
53579W        W25305  32.549  33.138  11.416
53580W        W25306  18.563  36.195   4.718
53581W        W25307  23.995   8.764  13.758
53582W        W25308  37.454  12.069   2.308
53583W        W25309  44.795  38.938  10.639
53584W        W25310  24.720  32.328   2.758
53585W        W25311  37.540  22.778  12.871
53586W        W25312  22.661  32.949   3.645
53587W        W25313  13.582  26.126  14.558
53588W        W25314  15.317  38.083  12.917
53589W        W25315   6.942  29.160   3.558
53590W        W25316  34.974  39.446  11.644
53591W        W25317  22.993  39.767  12.632
53592W        W25318  39.089  43.875  11.572
53593W        W25319  42.310  10.908   4.653
53594W        W25320  29.456   5.805  10.431
53595W        W25321  34.469  22.116  12.583
53596W        W25322  19.926  20.809   1.605
53597W        W25323  39.130  26.998   4.250
53598W        W25324  15.108  23.234   2.114
53599W        W25325  22.060   5.868   0.161
53600W        W25326  20.158   5.691   3.227
53601W        W25327   6.768   3.104  11.022
53602W        W25328  25.588   0.170   2.936
53603W        W25329  35.461  21.692  14.357
53604W        W25330  25.786  30.305   0.607
53605W        W25331  10.773  44.964  10.938
53606W        W25332  15.562  24.122   3.220
53607W        W25333  10.958  15.070  13.045
53608W        W25334  27.705   6.410  10.473
53609W        W25335  13.582  22.705   2.112
53610W        W25336  34.993  25.145   0.729
53611W        W25337  35.431  35.274  11.074
53612W        W25338  35.895   9.170   2.365
53613W        W25339  32.430  43.607   2.442
53614W        W25340  12.343  19.831  11.994
53615W        W25341  10.386  13.311   2.399
53616W        W25342  40.080  37.443   1.696
53617W        W25343  34.526  28.555  13.956
53618W        W25344  16.322  31.452  11.486
53619W        W25345  24.715   4.898   4.239
53620W        W25346  35.122  32.785  12.067
53621W        W25347   0.456  22.038  10.834
53622W        W25348  43.816  33.335   1.251
53623W        W25349   2.483  30.475  10.491
53624W        W25350  37.010   1.667  11.553
53625W        W25351  39.760  25.564  12.467
53626W        W25352  28.554  14.155   4.704
53627W        W25353  39.641  37.595   2.457
53628W        W25354  35.421   3.746  12.662
53629W        W25355  35.534  15.426  13.979
53630W        W25356  36.876  26.472   3.404
53631W        W25357  22.611  25.734   2.822
53632W        W25358  30.087  22.670   4.610
53633W        W25359  29.055  36.223   3.837
53634W        W25360  33.412  12.689   1.883
53635W        W25361  36.834  19.274  13.403
53636W        W25362  24.849   3.352   4.183
53637W        W25363  17.325   3.188  14.738
53638W        W25364  23.475  37.433   0.737
53639W        W25365  24.622  29.624   3.854
53640W        W25366  36.268  30.568   2.630
53641W        W25367  27.671  26.276   1.906
53642W        W25368   9.084  25.833   1.419
53643W        W25369  24.014  34.997   1.917
53644W        W25370  38.846  28.025  14.055
53645W        W25371   2.303   5.431  11.587
53646W        W25372   1.380   8.311  12.718
53647W        W25373  34.989  23.994  12.925
53648W        W25374  38.982  36.033  13.969
53649W        W25375   0.326  33.802   2.397
53650W        W25376  37.930   7.247  12.020
53651W        W25377   6.674  38.136   0.450
53652W        W25378  14.251   7.169   2.335
53653W        W25379  38.074   5.424  11.399
53654W        W25380   3.756  13.174   2.832
53655W        W25381  24.541  17.229  14.878
53656W        W25382  15.227  24.105  11.714
53657W        W25383  22.145  43.357   4.430
53658W        W25384   3.853   0.281   1.171
53659W        W25385  14.683  12.905   1.805
53660W        W25386  27.730  30.634   3.798
53661W        W25387   8.285   7.622  11.486
53662W        W25388  32.371   8.707  13.064
53663W        W25389  14.479  32.661  13.584
53664W        W25390  20.997   4.839  13.052
53665W        W25391   3.497  11.686   0.486
53666W        W25392  32.500   9.750  12.932
53667W        W25393   1.902   8.700   0.438
53668W        W25394   9.693  39.021  13.035
53669W        W25395   9.828   2.075  11.731
53670W        W25396  29.704  43.918  11.423
53671W        W25397  27.373   1.957   0.405
53672W        W25398  43.369  38.128   3.496
53673W        W25399  22.148  31.161  11.537
53674W        W25400  26.639   2.682  14.549
53675W        W25401  21.394  14.643   4.219
53676W        W25402   2.170  21.257  10.173
53677W        W25403  33.314  21.224   0.472
53678W        W25404  35.494   6.813  14.236
53679W        W25405  44.026  12.700   4.190
53680W        W25406  21.459  33.564  14.916
53681W        W25407  29.138  29.516   4.989
53682W        W25408  17.997  18.849  11.032
53683W        W25409  21.140  43.825   4.802
53684W        W25410  23.097  41.808   2.200
53685W        W25411   4.691  12.639   5.051
53686W        W25412  14.829  17.510  12.611
53687W        W25413   8.245   1.265   4.658
53688W        W25414  38.978  30.563   2.431
53689W        W25415  32.925   1.267  10.979
53690W        W25416  24.647   3.512  10.702
53691W        W25417  44.512  31.390  12.531
53692W        W25418  12.732  22.712  11.766
53693W        W25419  35.157   2.056  13.771
53694W        W25420  21.117   9.524   0.970
53695W        W25421  35.507   0.768  14.144
53696W        W25422  19.832  25.549   4.794
53697W        W25423  33.959   2.833  11.949
53698W        W25424  26.386  14.575   3.917
53699W        W25425  20.646  13.135  13.281
53700W        W25426  43.249  23.258  11.806
53701W        W25427   6.689   2.514  10.982
53702W        W25428  41.627   2.970  14.782
53703W        W25429  17.728  44.792  12.426
53704W        W25430   4.302  23.835  12.340
53705W        W25431  33.799  11.811  10.315
53706W        W25432  37.913  15.188   0.318
53707W        W25433  15.705  35.034  14.563
53708W        W25434  37.843  26.580  11.143
53709W        W25435  36.106   3.221   0.649
53710W        W25436  22.044   8.025  11.857
53711W        W25437   2.465  26.196  10.366
53712W        W25438  42.027  25.615   3.143
53713W        W25439  37.465  11.367  11.425
53714W        W25440  23.930  39.968   2.915
53715W        W25441  19.242  44.272  13.033
53716W        W25442   4.497   3.384   3.724
53717W        W25443  24.167  21.035   0.208
53718W        W25444  22.784   9.072  13.021
53719W        W25445  26.188  19.891  13.326
53720W        W25446  16.054  22.979  13.488
53721W        W25447  41.001  15.185   1.345
53722W        W25448  11.662  29.699   4.632
53723W        W25449  26.407   4.486   0.200
53724W        W25450  32.650  20.446  13.425
53725W        W25451  25.168  22.476  13.839
53726W        W25452  19.799  16.315  12.800
53727W        W25453  25.088  32.992  12.018
53728W        W25454  31.634  21.162  12.490
53729W        W25455  29.497  43.033  11.422
53730W        W25456  13.670  25.065   0.888
53731W        W25457   8.431  18.078  13.490
53732W        W25458  26.398   6.465   4.628
53733W        W25459  14.898  34.949  12.872
53734W        W25460   1.717  13.304  13.102
53735W        W25461   8.352  12.112   1.284
53736W        W25462   1.987  22.718   4.204
53737W        W25463   6.562  27.539   4.270
53738W        W25464  11.142  38.944  14.032
53739W        W25465  27.050  18.350  14.859
53740W        W25466   3.852  42.753   4.122
53741W        W25467  33.492  18.478   4.133
53742W        W25468  35.195   1.306   4.207
53743W        W25469  41.792  15.195  12.023
53744W        W25470  43.338  22.351   1.695
53745W        W25471  31.240  33.654   0.042
53746W        W25472  31.047  30.999   1.381
53747W        W25473  36.522  12.873   2.877
53748W        W25474  36.463  30.081  13.790
53749W        W25475  12.359  12.700  10.679
53750W        W25476  26.707  20.690  13.895
53751W        W25477  15.776   3.516   0.421
53752W        W25478  32.735  18.933  11.954
53753W        W25479   6.519   6.289   0.376
53754W        W25480  33.991  12.803   4.751
53755W        W25481   1.503  31.927  10.663
53756W        W25482  22.027   6.301   1.819
53757W        W25483   4.023  42.895   0.664
53758W        W25484  28.436  16.724   2.843
53759W        W25485  17.763   1.743  12.426
53760W        W25486   9.073  23.898   3.747
53761W        W25487  40.840   7.235  14.554
53762W        W25488  11.311  11.516   3.208
53763W        W25489  36.759  17.718   0.815
53764W        W25490  41.737  18.504   2.740
53765W        W25491  20.276   1.660   3.671
53766W        W25492  31.438  38.036   1.697
53767W        W25493   5.819  36.395   4.807
53768W        W25494   7.424   6.510   3.887
53769W        W25495  19.779  20.038   0.778
53770W        W25496  37.126  25.226   1.326
53771W        W25497  42.984  30.639  12.849
53772W        W25498   3.339  41.889   2.196
53773W        W25499  34.870  29.077   3.949
53774W        W25500  19.318  43.416  14.020
53775W        W25501  30.886  20.678   2.342
53776W        W25502  14.117  42.625  11.372
53777W        W25503  42.240  18.721  13.853
53778W        W25504  11.320  31.666   4.171
53779W        W25505  38.512  27.642  11.519
53780W        W25506  25.217  37.432   4.126
53781W        W25507  41.324  29.381  12.894
53782W        W25508  25.278  27.147   3.446
53783W        W25509  26.239  20.052  13.938
53784W        W25510   5.910  20.288  13.356
53785W        W25511  37.719   3.354  12.419
53786W        W25512  10.633  34.185   4.497
53787W        W25513  26.864   1.423   0.899
53788W        W25514  10.491   9.645  13.072
53789W        W25515  42.912   6.283   3.192
53790W        W25516  15.607   3.749  12.024
53791W        W25517  26.184  13.123   1.009
53792W        W25518  26.265  39.300  12.044
53793W        W25519  32.023  44.517   1.011
53794W        W25520  10.782  32.928   2.060
53795W        W25521  34.318  10.348   2.922
53796W        W25522  38.780   9.683   0.368
53797W        W25523  21.327  22.113  14.208
53798W        W25524  44.426  18.178   3.821
53799W        W25525  23.734  30.377   0.885
53800W        W25526  15.267  11.263   1.385
53801W        W25527   9.314  21.799  13.061
53802W        W25528  20.594   8.871  14.408
53803W        W25529  17.666  42.510  13.949
53804W        W25530  24.411   0.678  12.479
53805W        W25531  27.879  15.158   2.170
53806W        W25532  43.933  30.928  12.824
53807W        W25533  15.796  31.621  12.557
53808W        W25534  15.786  15.047  13.067
53809W        W25535  39.881  27.649  14.399
53810W        W25536  12.819  20.485   4.107
53811W        W25537  32.649  38.374  12.533
53812W        W25538   3.399  42.946  12.865
53813W        W25539  37.029  21.450  13.070
53814W        W25540  12.625  31.933   9.855
53815W        W25541  19.149  16.308  13.414
53816W        W25542  27.006  35.887  10.667
53817W        W25543  31.657  41.090  12.113
53818W        W25544  33.485  13.402  11.610
53819W        W25545   5.210  29.771   3.680
53820W        W25546  16.652  40.623  12.206
53821W        W25547  18.163  44.295   5.052
53822W        W25548   0.861   1.333  11.164
53823W        W25549  40.975  15.499  13.106
53824W        W25550  13.762  39.966   3.686
53825W        W25551  17.656  44.201  11.549
53826W        W25552  33.601  31.220   0.554
53827W        W25553  41.349  34.644  14.574
53828W        W25554  20.148   8.671   3.649
53829W        W25555   6.396  39.816   4.454
53830W        W25556   9.622  37.539   2.364
53831W        W25557   5.173   8.617   0.922
53832W        W25558  25.642  10.865   0.908
53833W        W25559  35.586   8.629   0.192
53834W        W25560  25.479   5.820   2.711
53835W        W25561   4.368  12.148  10.645
53836W        W25562  24.544   3.288  13.817
53837W        W25563  23.034   2.955  12.083
53838W        W25564   0.865  30.396  13.330
53839W        W25565  19.249  11.573  14.235
53840W        W25566   0.990   7.200   4.626
53841W        W25567  35.991  30.441  14.033
53842W        W25568  35.407  43.814  13.516
53843W        W25569  40.289  34.119  11.765
53844W        W25570  22.648  34.452   2.113
53845W        W25571  39.242   1.209   2.865
53846W        W25572  35.676  10.926  12.087
53847W        W25573   7.857  11.646  11.031
53848W        W25574   7.741   9.542  12.941
53849W        W25575  13.796  44.160  11.651
53850W        W25576   1.300  12.535  11.247
53851W        W25577  38.521  33.665   2.934
53852W        W25578  34.712  26.736  13.520
53853W        W25579  36.988  11.252   2.167
53854W        W25580  23.631  22.120  11.187
53855W        W25581   6.078   6.676  11.894
53856W        W25582  16.722  26.437  10.737
53857W        W25583   4.961  29.207  14.884
53858W        W25584  23.138  10.139  10.306
53859W        W25585  23.351  38.721   3.267
53860W        W25586  26.742   0.725   4.520
53861W        W25587  22.188  27.377  12.023
53862W        W25588  25.979   7.579  11.141
53863W        W25589  36.576  36.560   3.252
53864W        W25590   4.984  10.101  13.970
53865W        W25591   6.405  36.099   4.583
53866W        W25592  36.850  16.048   1.296
53867W        W25593  27.017  33.967  14.436
53868W        W25594  44.481   0.464   4.270
53869W        W25595  34.436  25.531   3.253
53870W        W25596  40.118   3.266   2.519
53871W        W25597  22.548  25.598   9.746
53872W        W25598   4.973  39.357   1.792
53873W        W25599  18.655  16.639   1.784
53874W        W25600  41.595  38.486  11.114
53875W        W25601  22.557   8.675   4.503
53876W        W25602  42.536  38.033  13.514
53877W        W25603  26.358  42.711  13.567
53878W        W25604   4.809  36.901   2.723
53879W        W25605  25.255  35.372  11.629
53880W        W25606  39.746  14.504  10.465
53881W        W25607  22.358  43.479  13.352
53882W        W25608  34.986  15.154  14.364
53883W        W25609  16.102  25.542   0.692
53884W        W25610  12.565  35.929  13.422
53885W        W25611  22.711   5.913   0.424
53886W        W25612  18.651  37.582   1.389
53887W        W25613  42.402  24.595  14.083
53888W        W25614  26.597  23.942   3.738
53889W        W25615  42.849   5.300  11.262
53890W        W25616  21.228  21.566   4.373
53891W        W25617  27.741  25.562   0.444
53892W        W25618  15.219  43.556  13.881
53893W        W25619   1.226  24.257  14.424
53894W        W25620   5.204  10.543   1.791
53895W        W25621  23.528  28.200   4.037
53896W        W25622  33.861  23.067   1.937
53897W        W25623  35.994  26.713   2.570
53898W        W25624  11.548  22.998  11.443
53899W        W25625  31.109  33.437   3.293
53900W        W25626   5.172  43.417  13.014
53901W        W25627   4.733  40.829  13.030
53902W        W25628  40.583  18.706  12.435
53903W        W25629  16.920  21.709   3.128
53904W        W25630  13.424  18.842  13.584
53905W        W25631  16.663   3.739  14.996
53906W        W25632  37.434  20.524   0.319
53907W        W25633  10.152   9.849  11.069
53908W        W25634  36.288  13.247  14.834
53909W        W25635  26.596  19.711  10.574
53910W        W25636  22.662  17.719  14.131
53911W        W25637  17.564  43.514   4.834
53912W        W25638  20.295  13.945   4.243
53913W        W25639  18.166  38.949  11.539
53914W        W25640  39.602   8.273  14.748
53915W        W25641  20.159  31.808  13.109
53916W        W25642   7.667  26.691  13.979
53917W        W25643  43.358  22.127   4.858
53918W        W25644  34.670   7.739  11.232
53919W        W25645  29.022  23.348   1.712
53920W        W25646  25.589  14.322   4.212
53921W        W25647  13.145   5.439   4.493
53922W        W25648   4.335  26.475   4.124
53923W        W25649  10.609  38.522   1.725
53924W        W25650  12.770  35.623  12.529
53925W        W25651  26.392   7.908  11.087
53926W        W25652  10.936  20.659   3.284
53927W        W25653  44.856  15.718  11.040
53928W        W25654   1.957   4.546   4.429
53929W        W25655   2.373  36.752  13.529
53930W        W25656  41.025  17.088  11.205
53931W        W25657  32.803  24.758  12.420
53932W        W25658  23.640   7.873   4.634
53933W        W25659  19.961   1.178   5.087
53934W        W25660  23.635  36.840   4.716
53935W        W25661  13.080  23.877  12.781
53936W        W25662  24.227   6.177  13.900
53937W        W25663  36.602  11.452  13.732
53938W        W25664  17.508  31.682  13.022
53939W        W25665  15.281  23.980  11.208
53940W        W25666   7.714  43.043   1.822
53941W        W25667  25.428  41.694  13.070
53942W        W25668  26.149   0.388   2.179
53943W        W25669  33.450   8.188  12.548
53944W        W25670  33.770  43.265   2.355
53945W        W25671  24.638  35.912   4.224
53946W        W25672  41.432  39.246   4.721
53947W        W25673  19.993  35.968  11.935
53948W        W25674  26.764  20.958   4.773
53949W        W25675  40.429  33.188  11.983
53950W        W25676  33.909  27.436   0.317
53951W        W25677  38.094  35.693  13.904
53952W        W25678   5.678  27.361   2.340
53953W        W25679  16.973  15.026   3.626
53954W        W25680  21.678   4.868   3.643
53955W        W25681  33.467  42.437   1.680
53956W        W25682  33.040  25.352  12.897
53957W        W25683  36.997  26.754   1.120
53958W        W25684  29.657  41.589  14.854
53959W        W25685  39.810  24.618   1.900
53960W        W25686  35.806  12.718  11.046
53961W        W25687  44.146  35.318   2.719
53962W        W25688  26.078  42.473  10.872
53963W        W25689  12.773   9.703   0.533
53964W        W25690   4.471  30.575  11.555
53965W        W25691  15.168  15.379  14.509
53966W        W25692  44.001  34.150  12.921
53967W        W25693  37.317   9.363   0.931
53968W        W25694  37.367  22.082  13.348
53969W        W25695  27.875   2.584   0.000
53970W        W25696  15.344  40.448  14.960
53971W        W25697   2.446  38.440  13.786
53972W        W25698  22.951  38.233   1.757
53973W        W25699   6.417   0.458  11.490
53974W        W25700   7.275   4.753   9.874
53975W        W25701  39.824  21.930   3.628
53976W        W25702  37.424  31.515   2.430
53977W        W25703  37.608  26.041   3.546
53978W        W25704   1.486  22.940   3.667
53979W        W25705  33.355  25.188   4.328
53980W        W25706  15.971  20.066  10.213
53981W        W25707  17.058  20.762  12.476
53982W        W25708  34.520  16.085  13.073
53983W        W25709  44.271  36.347  12.703
53984W        W25710  22.238   3.352  10.595
53985W        W25711  21.774  38.934   1.357
53986W        W25712  24.514  38.363  13.540
53987W        W25713  12.776  38.071   3.413
53988W        W25714   5.791  44.613  11.782
53989W        W25715   4.397  36.889   3.716
53990W        W25716   5.275  29.069   4.583
53991W        W25717   6.205  33.067  12.435
53992W        W25718  40.144   4.232  12.100
53993W        W25719  34.983  18.605   4.596
53994W        W25720  17.502   1.438  13.301
53995W        W25721  11.933  10.374  14.297
53996W        W25722   5.618   9.604   4.304
53997W        W25723  32.183  25.119   1.431
53998W        W25724  36.935  31.992   4.580
53999W        W25725  44.793  10.356  10.756
54000W        W25726  12.744   4.879   3.225
54001W        W25727  36.624  16.661  12.881
54002W        W25728  22.279  40.388   0.268
54003W        W25729  11.684  43.692   3.720
54004W        W25730   5.283  15.592   4.750
54005W        W25731  35.749  11.759  14.774
54006W        W25732   2.127  12.365   2.714
54007W        W25733  36.520  41.236  10.738
54008W        W25734   5.547   3.335  14.893
54009W        W25735  34.667  31.730   2.310
54010W        W25736   5.682  41.294   0.141
54011W        W25737   4.982  15.073  11.167
54012W        W25738   7.512  40.248  14.736
54013W        W25739  43.538  39.530  11.531
54014W        W25740   1.934   3.496  12.816
54015W        W25741  12.167   1.656  13.513
54016W        W25742  41.294  24.961   2.206
54017W        W25743   1.795  39.982   4.959
54018W        W25744  36.465  25.432  14.114
54019W        W25745  38.555  24.652   4.211
54020W        W25746  30.877  19.989  11.119
54021W        W25747  34.206   4.803   0.389
54022W        W25748  25.219  12.283   2.179
54023W        W25749  15.626  26.730   0.142
54024W        W25750  26.045  17.942  10.321
54025W        W25751  10.180  24.227  12.904
54026W        W25752  15.135   1.976  13.898
54027W        W25753  44.565  23.415   2.618
54028W        W25754  39.274   7.720   2.411
54029W        W25755   9.665   5.524  14.193
54030W        W25756  32.351  15.395  10.163
54031W        W25757  20.778  16.396   4.369
54032W        W25758  35.594  40.036  12.519
54033W        W25759  16.332  21.491  14.459
54034W        W25760  31.000  34.343  13.203
54035W        W25761  37.446   2.679   5.099
54036W        W25762  16.644  37.588  13.015
54037W        W25763   6.930  44.698   0.173
54038W        W25764  20.505  40.622  11.441
54039W        W25765   8.668  40.467  11.947
54040W        W25766   9.177  42.130  11.921
54041W        W25767  27.368  42.570   0.653
54042W        W25768  28.965  44.400   1.936
54043W        W25769  42.754  16.648  14.567
54044W        W25770  35.567   3.174   4.620
54045W        W25771  28.375   9.587  10.394
54046W        W25772   1.775   6.805   0.324
54047W        W25773  24.161  15.474   3.899
54048W        W25774  39.951  39.569   3.093
54049W        W25775  40.812   8.321   2.707
54050W        W25776  16.709  13.523   0.056
54051W        W25777   1.503  35.536   4.232
54052W        W25778  34.862  28.539   0.165
54053W        W25779  42.368  26.014   0.980
54054W        W25780  12.639  29.178   3.395
54055W        W25781   7.661  37.331   4.103
54056W        W25782  42.336  12.868  13.421
54057W        W25783   8.738  23.201   2.143
54058W        W25784  26.532  21.611   3.737
54059W        W25785  25.110  25.961  14.108
54060W        W25786  16.711   9.349  13.480
54061W        W25787  29.985   6.918  14.554
54062W        W25788  25.242  23.834  10.998
54063W        W25789  42.336  37.473   0.677
54064W        W25790  41.014  40.966   1.283
54065W        W25791   6.338   6.189   4.105
54066W        W25792  22.205  25.665   4.538
54067W        W25793  17.278   8.873   4.486
54068W        W25794  15.712  38.038   1.905
54069W        W25795  20.458  33.737  14.982
54070W        W25796  37.537  13.345  11.988
54071W        W25797  23.055  21.268   4.104
54072W        W25798  12.714  32.395   2.356
54073W        W25799  30.658  27.172  10.498
54074W        W25800  26.057  32.150   2.895
54075W        W25801   6.704  18.193   0.811
54076W        W25802   1.754  31.275   2.689
54077W        W25803   4.920  19.700   2.758
54078W        W25804  13.335   8.850  12.006
54079W        W25805  23.728   7.927   2.181
54080W        W25806  15.142   3.513  11.978
54081W        W25807  16.457   0.488   1.312
54082W        W25808  25.312  21.629   1.230
54083W        W25809  35.586  44.306  14.221
54084W        W25810  18.511   8.214  11.986
54085W        W25811  43.707  38.478  12.907
54086W        W25812  10.622  15.932   4.093
54087W        W25813  13.664  35.854   1.580
54088W        W25814  38.743  16.742  14.308
54089W        W25815   6.337  12.067  11.564
54090W        W25816  41.332  14.403  11.083
54091W        W25817  32.135  26.573   3.702
54092W        W25818  24.939  44.741   1.786
54093W        W25819  27.328   9.260  14.340
54094W        W25820  38.373  23.916   1.901
54095W        W25821  10.639  19.092  11.047
54096W        W25822   8.243   2.943  14.814
54097W        W25823  17.598  30.993   4.572
54098W        W25824  19.585  42.873   0.737
54099W        W25825   7.487   8.111   0.061
54100W        W25826  29.742  43.292  14.266
54101W        W25827  18.523  22.177  13.776
54102W        W25828  28.233   7.173   1.610
54103W        W25829  10.409  18.724  14.546
54104W        W25830  20.119  11.249  10.386
54105W        W25831  27.185  27.978  10.876
54106W        W25832  44.192   1.946  10.345
54107W        W25833  38.634  39.674   2.822
54108W        W25834  42.009   1.991  11.140
54109W        W25835  40.431  16.394  10.762
54110W        W25836   6.696   7.121  13.912
54111W        W25837  27.204  40.456  11.744
54112W        W25838   1.425  11.920   4.195
54113W        W25839   9.244  26.160   9.757
54114W        W25840  29.808  38.300  14.869
54115W        W25841   0.966  11.683   1.697
54116W        W25842  14.880  40.421   4.219
54117W        W25843   8.645  30.338   2.476
54118W        W25844   2.642  36.387  11.146
54119W        W25845   0.963  43.856   4.188
54120W        W25846  19.545   0.472   4.608
54121W        W25847  26.667   1.495  12.658
54122W        W25848   3.518  34.491   0.120
54123W        W25849  32.990   9.832   3.750
54124W        W25850  11.009  25.260  11.552
54125W        W25851  32.327  37.941  14.487
54126W        W25852   5.112  29.503  14.028
54127W        W25853  39.452  15.850  12.356
54128W        W25854  18.562   6.799  12.071
54129W        W25855  29.380  24.975  14.809
54130W        W25856  24.994   1.321   1.378
54131W        W25857  42.420  20.066   2.804
54132W        W25858  27.640  15.821  13.761
54133W        W25859  44.796  26.519  11.395
54134W        W25860   9.133   9.968  11.174
54135W        W25861  23.738   8.258  14.295
54136W        W25862  16.068   5.639   2.205
54137W        W25863  27.633  42.772   0.258
54138W        W25864  26.077  16.805   0.336
54139W        W25865  43.330  39.217  12.575
54140W        W25866  22.170  16.320   0.817
54141W        W25867   4.170  35.778  13.740
54142W        W25868  15.630  21.923  12.899
54143W        W25869  30.711  21.135  11.636
54144W        W25870  12.722  20.668   0.617
54145W        W25871  38.384  26.382   3.212
54146W        W25872  22.329  15.648   4.669
54147W        W25873  43.703  28.115  10.677
54148W        W25874   7.219  39.788   4.878
54149W        W25875  31.057  12.987  10.623
54150W        W25876   4.830  36.791  12.941
54151W        W25877   1.420  23.021  14.162
54152W        W25878  30.808  23.068   2.191
54153W        W25879  40.224   8.200   0.403
54154W        W25880   2.955  43.428   2.723
54155W        W25881  26.274  21.886   1.639
54156W        W25882  17.966  13.123   0.391
54157W        W25883  38.022  19.954  12.874
54158W        W25884  38.269   8.379   2.168
54159W        W25885  25.493  42.697  13.345
54160W        W25886  17.453   0.563  11.386
54161W        W25887  25.176  19.871   1.421
54162W        W25888  12.526   4.009   1.304
54163W        W25889  11.178  39.044   3.688
54164W        W25890  11.085  13.349  11.671
54165W        W25891  19.281  13.135  11.404
54166W        W25892  38.957  34.969  13.614
54167W        W25893   1.944  25.368  11.313
54168W        W25894  21.511  31.537  14.907
54169W        W25895  10.802  27.123   4.956
54170W        W25896  27.767  17.170   3.805
54171W        W25897  26.403  14.021   4.623
54172W        W25898  23.175  15.943  11.101
54173W        W25899   7.708  18.244   3.692
54174W        W25900  26.169  10.587   0.088
54175W        W25901  19.163  43.193   2.206
54176W        W25902  23.925  44.916  13.842
54177W        W25903  19.679  33.588   1.822
54178W        W25904  40.703  25.476   3.426
54179W        W25905  32.601  22.474   2.161
54180W        W25906  16.740  35.854   3.765
54181W        W25907  41.424  26.870  10.927
54182W        W25908  37.301  22.062  12.144
54183W        W25909  40.989  44.749  11.070
54184W        W25910   2.923  13.855   0.448
54185W        W25911  23.232  18.168   3.985
54186W        W25912  13.375   1.739  14.352
54187W        W25913   5.179   4.925  13.335
54188W        W25914   7.969  15.102  13.508
54189W        W25915  32.018  41.823   5.043
54190W        W25916   3.948  16.592   4.658
54191W        W25917  40.132   1.483   4.050
54192W        W25918  34.460  25.677  12.987
54193W        W25919  13.689  33.884   4.128
54194W        W25920  38.320  29.951   2.488
54195W        W25921   8.644  37.327  12.566
54196W        W25922  38.373  11.650   3.203
54197W        W25923   4.918   1.205   0.003
54198W        W25924  43.256  15.208   2.988
54199W        W25925   5.666   7.096   4.174
54200W        W25926  35.148  41.942   3.694
54201W        W25927  10.132  14.221   2.629
54202W        W25928  27.081   8.918  14.013
54203W        W25929  10.368  12.374  13.592
54204W        W25930  15.845  18.835  12.881
54205W        W25931  33.858  26.597   3.328
54206W        W25932   2.772  18.579  10.628
54207W        W25933  28.409  28.644  11.880
54208W        W25934  34.787  15.721   4.096
54209W        W25935  40.899   3.172   0.534
54210W        W25936  43.548  15.086   1.622
54211W        W25937  10.823   0.430  10.697
54212W        W25938  21.183  17.234   4.846
54213W        W25939  13.010  26.144   0.406
54214W        W25940  41.818  24.432  13.295
54215W        W25941   5.784  10.368   4.817
54216W        W25942   8.011  18.196   0.068
54217W        W25943  13.656   5.331  12.394
54218W        W25944  10.706  31.404   4.576
54219W        W25945  36.526   7.725   4.189
54220W        W25946  27.842   6.433  14.911
54221W        W25947   8.632  41.872   2.811
54222W        W25948  18.112   3.856  13.180
54223W        W25949  31.937  31.684   0.713
54224W        W25950  36.080  22.607  13.055
54225W        W25951  22.783  31.364   1.226
54226W        W25952  35.957  15.399   3.428
54227W        W25953   6.702  20.227  14.991
54228W        W25954  13.737  24.953  12.455
54229W        W25955   9.177  16.319  14.431
54230W        W25956  11.114  14.822   4.548
54231W        W25957  38.969   6.801   0.858
54232W        W25958  28.584  17.461   2.353
54233W        W25959   9.748  10.644  13.529
54234W        W25960  37.473  15.660   1.430
54235W        W25961  37.362  19.561  11.854
54236W        W25962  19.802  43.332  13.500
54237W        W25963  33.941  24.126  12.294
54238W        W25964  30.489  13.033  11.208
54239W        W25965  35.514  44.357   3.857
54240W        W25966  31.510  15.595   2.713
54241W        W25967   9.326  18.762   0.479
54242W        W25968  26.600  15.332   4.274
54243W        W25969   1.676   4.332   0.382
54244W        W25970   4.586  41.996  13.555
54245W        W25971  16.689  21.761  14.943
54246W        W25972  23.181   6.507   0.272
54247W        W25973  38.601   4.243  11.592
54248W        W25974   3.162  13.795  14.941
54249W        W25975  41.043   0.262   3.345
54250W        W25976  21.037   5.771  11.596
54251W        W25977   3.447   4.698   9.851
54252W        W25978   5.348   7.891   2.307
54253W        W25979   1.481   9.020   3.196
54254W        W25980  44.805  21.805  11.969
54255W        W25981  23.212  10.605   1.899
54256W        W25982  23.001  14.147  13.493
54257W        W25983  15.784  30.096  10.791
54258W        W25984  42.890   1.376   2.099
54259W        W25985  22.691  11.342   2.149
54260W        W25986   1.698   5.729  10.694
54261W        W25987   3.825  19.175   3.226
54262W        W25988  24.006   4.800   1.616
54263W        W25989  28.991  11.101  12.481
54264W        W25990  36.011  11.309   2.314
54265W        W25991   9.898  29.929  12.376
54266W        W25992   5.014  37.618   1.527
54267W        W25993  24.487  33.341   2.285
54268W        W25994  11.745  22.039  14.404
54269W        W25995  43.602  40.057   0.779
54270W        W25996  20.124  37.496  13.817
54271W        W25997  33.198  37.421   3.690
54272W        W25998   4.249  34.393   1.796
54273W        W25999  20.932  29.162  11.017
54274W        W26000  41.547  18.801   4.149
54275W        W26001  15.400   8.776   1.274
54276W        W26002  27.546  18.783   1.354
54277W        W26003   8.267   4.818   5.523
54278W        W26004  27.013  39.562   4.522
54279W        W26005   6.712  16.571   0.799
54280W        W26006  33.057  36.878   2.238
54281W        W26007  36.950  42.060   3.267
54282W        W26008  28.635  18.753   2.867
54283W        W26009   2.803   2.897   0.419
54284W        W26010  30.451   8.733   2.724
54285W        W26011  29.480  27.727  11.245
54286W        W26012  40.478  41.703   1.475
54287W        W26013  16.842  27.607  10.848
54288W        W26014  24.696   2.952   0.202
54289W        W26015  13.737  19.146  12.603
54290W        W26016  27.639  15.036  12.388
54291W        W26017  36.795  31.116   0.963
54292W        W26018   0.478  29.952  12.404
54293W        W26019  31.520  36.586  10.555
54294W        W26020  14.593  44.186  14.896
54295W        W26021  20.089  24.168   4.527
54296W        W26022   7.284  41.899  13.015
54297W        W26023  19.008  33.068   1.204
54298W        W26024  20.594  31.965   4.264
54299W        W26025  27.456  33.448   1.370
54300W        W26026   2.522  33.654   2.638
54301W        W26027  34.589   2.658  12.546
54302W        W26028  10.017  35.087  14.250
54303W        W26029  38.467  21.271  12.982
54304W        W26030  12.404  10.670  10.666
54305W        W26031   3.942  40.446  10.339
54306W        W26032  14.292  38.762   3.081
54307W        W26033  35.087  11.701   3.681
54308W        W26034  15.423  12.601  12.626
54309W        W26035  25.039   2.210  11.045
54310W        W26036  30.361  22.229  13.028
54311W        W26037  14.263  37.335   1.230
54312W        W26038  19.186  35.409   1.377
54313W        W26039   4.376  31.968   1.369
54314W        W26040  35.099   0.418   4.371
54315W        W26041  15.850  37.381   1.382
54316W        W26042  20.264  15.553  13.928
54317W        W26043  21.226  11.455  11.532
54318W        W26044   3.250  42.945   3.806
54319W        W26045  35.941  26.812   2.052
54320W        W26046   9.912   6.204   1.035
54321W        W26047  41.768  17.690  13.772
54322W        W26048  38.982  39.340   0.400
54323W        W26049   4.703  20.759   4.560
54324W        W26050  21.056  15.780  12.501
54325W        W26051  44.263  34.149  11.599
54326W        W26052  40.491  25.480  10.865
54327W        W26053   7.649  22.828  13.027
54328W        W26054  23.143  19.290   0.185
54329W        W26055  11.259  12.904   2.905
54330W        W26056  39.903  35.091   2.327
54331W        W26057  19.049   0.869   0.282
54332W        W26058  42.428   8.407  12.172
54333W        W26059  37.801  43.617  11.530
54334W        W26060  12.158  32.920   0.994
54335W        W26061  43.905   9.405   3.185
54336W        W26062   1.561   2.032   2.585
54337W        W26063  20.996  27.690   2.731
54338W        W26064  20.252  14.366   1.371
54339W        W26065  14.610   5.920  11.726
54340W        W26066  39.885  12.235  14.356
54341W        W26067   9.869  15.046  10.730
54342W        W26068  26.663  17.131  11.059
54343W        W26069  15.680   5.398   4.266
54344W        W26070  21.627  11.390   4.709
54345W        W26071  28.408  38.033   2.883
54346W        W26072  11.386  30.894   2.937
54347W        W26073  12.102  41.998  12.849
54348W        W26074   7.936   1.972  12.897
54349W        W26075   7.770   0.364  14.203
54350W        W26076  38.032  12.278  12.804
54351W        W26077  14.325  18.563   2.370
54352W        W26078  40.566   9.781   3.626
54353W        W26079  15.752  43.018  12.589
54354W        W26080  32.835  25.712   1.902
54355W        W26081   9.835  35.837   4.517
54356W        W26082   8.770  34.278   4.600
54357W        W26083   1.360  20.509  11.417
54358W        W26084  41.807  40.536  14.750
54359W        W26085  30.828  10.306  11.977
54360W        W26086   5.428   8.148   3.244
54361W        W26087  39.344  13.328  12.000
54362W        W26088   5.652  42.847   2.779
54363W        W26089  41.299  38.944   0.894
54364W        W26090  29.416   2.469  13.844
54365W        W26091  19.556  25.958  13.955
54366W        W26092  37.917   8.162   3.538
54367W        W26093   6.956  35.150   0.712
54368W        W26094  10.162  12.909   1.682
54369W        W26095  17.733   4.306  14.803
54370W        W26096   5.671  25.009  14.863
54371W        W26097  29.780   3.068   2.896
54372W        W26098  13.094  18.264   2.388
54373W        W26099   8.166  28.292  14.617
54374W        W26100  44.744  18.071   0.079
54375W        W26101  13.363  31.119  14.287
54376W        W26102  34.496  27.084   0.808
54377W        W26103  28.481   4.963   2.230
54378W        W26104  32.097  28.024  10.704
54379W        W26105  30.894  14.653   3.154
54380W        W26106  33.574  34.758   3.976
54381W        W26107   1.309  39.913   4.750
54382W        W26108  39.631   0.911  11.297
54383W        W26109  22.412  34.303   4.270
54384W        W26110  22.775  33.446   2.244
54385W        W26111   1.124  32.055   4.223
54386W        W26112  44.006  40.961   0.381
54387W        W26113  35.231  14.837  14.710
54388W        W26114  30.367   2.333  10.906
54389W        W26115  17.376  36.559  12.307
54390W        W26116  21.519  28.097  13.955
54391W        W26117   6.130   6.905   3.466
54392W        W26118   6.125   4.212  10.166
54393W        W26119  33.483   3.735  12.403
54394W        W26120  28.950   5.458   2.252
54395W        W26121  23.510  20.311   1.815
54396W        W26122  10.340  22.304  10.419
54397W        W26123  29.069   3.368  10.989
54398W        W26124  13.878   1.540  14.693
54399W        W26125  31.592  32.919   2.613
54400W        W26126  22.661  36.739   4.585
54401W        W26127  32.412  43.737  13.003
54402W        W26128  18.060  36.050  13.987
54403W        W26129  27.186  32.876  14.941
54404W        W26130   6.651   7.630   2.008
54405W        W26131   1.461   8.827  11.220
54406W        W26132  23.552  42.286   3.312
54407W        W26133   8.864  13.580  13.877
54408W        W26134  18.548   8.885   1.317
54409W        W26135  32.477  33.690  12.457
54410W        W26136  14.597  44.374   1.224
54411W        W26137  22.156  34.114  10.646
54412W        W26138  43.508   3.119  12.618
54413W        W26139  43.830  36.151  11.706
54414W        W26140   5.821  31.364   4.100
54415W        W26141  11.797  32.472   0.250
54416W        W26142  22.470  27.516   4.255
54417W        W26143  16.310  19.739   2.319
54418W        W26144   0.710  38.909   1.812
54419W        W26145  32.827  31.130   4.320
54420W        W26146  38.356  30.432  13.387
54421W        W26147  38.352  14.516   2.677
54422W        W26148  43.207  35.934   3.208
54423W        W26149  11.195  18.649  11.613
54424W        W26150   1.882   4.871   0.271
54425W        W26151  13.562   2.542  12.743
54426W        W26152  13.922  15.675   3.279
54427W        W26153   0.191  14.563   4.532
54428W        W26154  37.904  13.876  13.092
54429W        W26155   8.592  31.971  12.133
54430W        W26156   8.091  17.269  12.141
54431W        W26157  11.842   2.024   0.409
54432W        W26158   1.864   7.982  11.990
54433W        W26159   1.251  36.395  12.063
54434W        W26160  23.279  28.115   1.317
54435W        W26161  24.995   6.714   0.289
54436W        W26162  30.567  36.990  11.776
54437W        W26163  23.878   7.634   0.279
54438W        W26164   1.867  11.750   4.672
54439W        W26165  23.441  31.979   1.386
54440W        W26166  29.551  17.511  12.599
54441W        W26167   6.829   0.600   1.841
54442W        W26168   4.746   1.922   2.325
54443W        W26169  22.974  42.834  13.939
54444W        W26170  31.084  36.862   1.376
54445W        W26171  15.351  13.843   4.245
54446W        W26172   7.352   2.787  12.640
54447W        W26173  40.032  24.060  12.179
54448W        W26174  16.134  23.465   2.103
54449W        W26175   1.741   8.832  13.476
54450W        W26176  10.129  43.049   0.232
54451W        W26177  10.748  42.000   1.559
54452W        W26178  28.052  26.082  10.691
54453W        W26179  19.774  16.076   2.645
54454W        W26180   3.382  17.049   3.308
54455W        W26181  30.938  39.137  13.760
54456W        W26182   1.395   1.791  10.758
54457W        W26183  41.920  43.399  14.955
54458W        W26184  16.285  18.048  12.945
54459W        W26185  28.909   0.901   3.222
54460W        W26186  28.045   5.921   4.142
54461W        W26187  24.749  34.999  10.738
54462W        W26188   9.638  35.717  10.437
54463W        W26189  17.603  31.442  11.200
54464W        W26190  44.724  28.289   1.891
54465W        W26191  34.350  19.278   3.674
54466W        W26192   3.328  22.230   0.643
54467W        W26193  13.846  12.594   0.798
54468W        W26194  12.237  34.866  11.036
54469W        W26195  13.152  33.132   0.271
54470W        W26196  44.372  25.036   0.263
54471W        W26197  15.355  37.815  13.397
54472W        W26198  44.344  32.604   1.539
54473W        W26199  39.670  21.533  13.542
54474W        W26200  32.639   0.272   4.169
54475W        W26201  26.746  24.266   1.128
54476W        W26202   1.494  26.915   0.807
54477W        W26203  31.702  26.433  11.553
54478W        W26204  21.349  23.010  12.656
54479W        W26205  12.775  43.991  10.351
54480W        W26206   4.435  32.501  12.441
54481W        W26207  26.568   3.960  12.611
54482W        W26208  34.548   2.901   4.670
54483W        W26209  42.395   4.438  13.108
54484W        W26210  27.340  17.863   2.488
54485W        W26211   7.884  24.102   3.294
54486W        W26212  38.925  34.416   4.084
54487W        W26213   5.209  33.519  13.919
54488W        W26214  39.025  38.023   4.174
54489W        W26215  13.406  38.056  11.145
54490W        W26216  25.435  44.680  10.598
54491W        W26217  10.169   5.845   4.146
54492W        W26218  37.818  16.660   1.841
54493W        W26219  38.467  14.019   5.070
54494W        W26220  35.068   9.258   0.298
54495W        W26221  22.938  32.423   3.239
54496W        W26222  35.362  17.574   1.809
54497W        W26223   6.650   9.642  12.064
54498W        W26224  42.010  29.038   2.844
54499W        W26225   9.055  35.364   1.849
54500W        W26226  35.361  38.917   2.286
54501W        W26227  34.571   2.283  11.038
54502W        W26228  21.230   7.205   3.290
54503W        W26229  40.023   9.121  11.324
54504W        W26230  35.389   3.859  14.819
54505W        W26231  16.672  19.210   4.278
54506W        W26232   6.830  17.710   2.637
54507W        W26233  36.579  43.888   4.654
54508W        W26234   7.910  16.705   3.770
54509W        W26235  14.539  15.125   2.911
54510W        W26236  24.464  15.147  11.585
54511W        W26237  32.125  28.644   2.632
54512W        W26238  24.989  33.919  14.991
54513W        W26239  42.963  35.014   4.514
54514W        W26240  15.755   0.512   2.803
54515W        W26241   7.733  11.182   0.405
54516W        W26242  35.106   0.342   2.720
54517W        W26243  24.560  14.594   4.557
54518W        W26244  12.710   6.488   1.146
54519W        W26245   7.715   5.544  14.309
54520W        W26246  23.120   8.767  13.951
54521W        W26247  23.493  12.689  11.900
54522W        W26248   8.603  35.835   4.542
54523W        W26249  27.494  35.916  14.560
54524W        W26250   1.099  27.877  12.472
54525W        W26251   6.751  44.441   1.097
54526W        W26252  33.086  10.391  14.607
54527W        W26253  10.488  19.571  13.886
54528W        W26254  34.637  43.307  14.405
54529W        W26255  31.185   7.946  12.417
54530W        W26256  39.257  21.275   1.764
54531W        W26257  33.145  36.051   1.968
54532W        W26258  39.554  33.554   3.979
54533W        W26259  27.727  12.234   3.172
54534W        W26260  30.909  23.734   3.278
54535W        W26261   0.334  23.709  14.834
54536W        W26262  35.596  44.915   3.188
54537W        W26263   5.903  39.334  14.340
54538W        W26264  41.879  14.065  12.440
54539W        W26265   0.484  11.505  13.373
54540W        W26266  35.281  15.887  13.904
54541W        W26267   9.865  24.279   4.134
54542W        W26268  30.397  16.861  14.403
54543W        W26269   5.912  42.059   2.330
54544W        W26270  24.577  38.878  13.336
54545W        W26271  30.924  19.315   1.260
54546W        W26272   4.401   8.940   1.330
54547W        W26273  40.383   6.755   3.353
54548W        W26274  19.268  16.775  10.602
54549W        W26275  42.578  15.322  11.566
54550W        W26276   9.129  34.680   3.760
54551W        W26277  10.764   2.760   3.882
54552W        W26278   0.953  22.740   0.776
54553W        W26279  20.764   2.908  14.306
54554W        W26280   5.899  41.834  11.021
54555W        W26281  17.810  10.353   0.476
54556W        W26282  43.446  30.878  13.548
54557W        W26283  12.584   2.444  11.901
54558W        W26284   4.936  31.912  14.291
54559W        W26285  20.085   0.998   1.297
54560W        W26286  29.996  39.772   1.387
54561W        W26287  43.191  32.290  14.394
54562W        W26288  23.529   6.876  11.649
54563W        W26289  33.991   5.879  13.485
54564W        W26290   7.231  10.737   0.830
54565W        W26291   1.508   5.738   3.174
54566W        W26292   0.079  37.528  12.878
54567W        W26293  35.463   7.706  11.899
54568W        W26294  12.818  23.651  14.025
54569W        W26295  39.299  37.428  11.722
54570W        W26296  17.725  30.725   1.484
54571W        W26297  29.692   8.330  12.379
54572W        W26298  29.455   3.379  14.292
54573W        W26299   0.916  25.733   1.412
54574W        W26300  31.977  10.791   1.868
54575W        W26301  12.453  31.200  12.798
54576W        W26302  19.639  28.167  13.488
54577W        W26303  44.253  44.156   4.641
54578W        W26304  13.283  26.003  10.675
54579W        W26305  34.373  44.040  12.540
54580W        W26306  15.207  21.719  12.688
54581W        W26307  31.423  28.287   4.128
54582W        W26308  34.347  23.991  10.444
54583W        W26309  25.011   9.773  14.510
54584W        W26310  12.752  13.714  13.537
54585W        W26311   0.966  37.470  14.971
54586W        W26312  26.999  26.878  14.991
54587W        W26313  13.122  17.585   1.217
54588W        W26314  32.019  17.164  10.852
54589W        W26315  40.963  27.028  10.635
54590W        W26316   9.271  26.545  12.981
54591W        W26317  40.941  14.471  12.941
54592W        W26318  18.283  27.838  13.449
54593W        W26319  17.960   5.770   0.837
54594W        W26320  40.419  31.839   0.265
54595W        W26321  26.883  40.000   1.281
54596W        W26322  36.335  24.504  10.663
54597W        W26323   0.977  28.920  14.443
54598W        W26324  20.748  41.598   0.295
54599W        W26325  16.212   6.712   4.651
54600W        W26326  23.522  29.552  14.094
54601W        W26327   7.687  25.152   4.599
54602W        W26328  18.572   0.261   2.166
54603W        W26329  14.810   3.789  12.983
54604W        W26330  35.944   2.771  14.377
54605W        W26331  32.520  15.183  11.752
54606W        W26332  37.360  42.888  14.485
54607W        W26333  11.138  43.176  12.429
54608W        W26334  43.888  28.665   3.065
54609W        W26335  27.331  29.903  11.996
54610W        W26336  43.357  44.341  11.972
54611W        W26337  18.109  19.479   3.718
54612W        W26338  28.074  29.870   4.907
54613W        W26339  11.645  24.796  14.794
54614W        W26340  14.025  24.043  11.164
54615W        W26341  18.782   8.074   2.642
54616W        W26342  20.665  10.578   1.660
54617W        W26343   3.896  28.116  11.839
54618W        W26344  26.130   4.289  14.825
54619W        W26345  32.658   3.748   1.003
54620W        W26346  22.948  44.370   1.867
54621W        W26347   8.152  20.276  12.111
54622W        W26348  36.578  25.287  12.095
54623W        W26349  15.339  36.496   0.379
54624W        W26350  36.026  14.098  11.170
54625W        W26351  36.438   8.826   9.863
54626W        W26352  11.376  11.095  12.511
54627W        W26353  11.635  15.388   0.908
54628W        W26354  16.332   5.364   4.557
54629W        W26355  21.858   0.744   0.950
54630W        W26356  29.899  10.345   2.678
54631W        W26357   3.216   5.892  12.483
54632W        W26358  42.829  10.063   4.639
54633W        W26359  34.536  26.166   3.924
54634W        W26360  10.445  28.155  11.227
54635W        W26361   7.084   0.027  14.763
54636W        W26362  30.686  31.180  11.014
54637W        W26363  13.225  15.399  12.906
54638W        W26364   9.070  32.574  13.298
54639W        W26365   9.313  44.017   2.786
54640W        W26366  25.920  28.092  14.983
54641W        W26367  16.096  14.614  11.013
54642W        W26368  22.247  13.727  13.304
54643W        W26369  23.755   1.255  14.717
54644W        W26370   2.307  44.046  13.089
54645W        W26371  16.574  23.488   3.332
54646W        W26372  32.183   3.454   0.947
54647W        W26373  27.002  23.686  14.445
54648W        W26374  11.367  34.714   0.382
54649W        W26375  16.096  42.467  12.042
54650W        W26376  37.947  42.304   0.297
54651W        W26377  22.547   9.606   3.104
54652W        W26378  19.616  16.139   1.285
54653W        W26379  39.861  29.167   0.355
54654W        W26380   2.315  40.773   3.165
54655W        W26381  16.542  10.180  11.557
54656W        W26382  13.822  12.848  13.608
54657W        W26383  43.058  19.818  11.033
54658W        W26384   9.880   3.252   3.744
54659W        W26385  44.893  15.394  14.028
54660W        W26386  29.680  29.402  11.985
54661W        W26387   8.236  29.537   4.323
54662W        W26388  26.477  27.725  13.094
54663W        W26389  16.120  12.614   4.551
54664W        W26390  36.542  10.094  11.207
54665W        W26391   1.413  44.892   0.246
54666W        W26392   9.591  32.421  11.213
54667W        W26393   3.362  23.642  12.240
54668W        W26394  21.071   5.686   3.850
54669W        W26395  22.668  18.291  14.801
54670W        W26396  17.644   0.648   1.805
54671W        W26397   0.212  17.089  12.185
54672W        W26398  42.548   4.345   4.882
54673W        W26399   1.174  42.918  14.945
54674W        W26400  34.285  44.522  12.394
54675W        W26401   6.702  11.315  10.617
54676W        W26402  24.696   3.178  11.640
54677W        W26403  32.195   7.992   0.779
54678W        W26404   8.617  32.042  12.661
54679W        W26405  44.502  27.383   0.209
54680W        W26406  15.535  10.325   1.675
54681W        W26407   8.225  24.960  10.652
54682W        W26408  23.053   8.811   3.351
54683W        W26409   4.272  15.840  12.843
54684W        W26410  26.117  25.720   2.755
54685W        W26411   7.831  15.270  13.050
54686W        W26412  36.655  35.985   2.830
54687W        W26413  21.542  34.869  14.466
54688W        W26414  41.720  30.031  10.346
54689W        W26415  11.971  42.271   0.431
54690W        W26416  37.800  30.735  11.461
54691W        W26417  19.951  37.606   5.139
54692W        W26418  31.714  22.208   2.352
54693W        W26419   1.847   4.692  11.634
54694W        W26420  24.982  22.931   3.117
54695W        W26421   1.850  20.629  13.129
54696W        W26422  19.543  16.102  12.405
54697W        W26423  22.970   6.994   1.706
54698W        W26424  31.107  24.664  14.250
54699W        W26425  43.865  40.285   2.263
54700W        W26426  32.874  33.412  12.663
54701W        W26427  19.284   4.736  11.428
54702W        W26428   6.273  11.206   4.511
54703W        W26429  16.098  39.017   3.599
54704W        W26430  32.551  31.610   2.946
54705W        W26431   7.956  41.844  13.518
54706W        W26432  23.157  39.955   3.152
54707W        W26433  36.826  31.754   3.081
54708W        W26434   2.270  26.783  14.281
54709W        W26435  38.926  34.725  13.132
54710W        W26436   9.186  29.193  14.753
54711W        W26437  25.540  44.910   4.525
54712W        W26438  31.234  10.186   2.464
54713W        W26439  15.163  22.027   1.037
54714W        W26440  30.700  12.042  12.053
54715W        W26441  43.463   5.860  11.556
54716W        W26442  32.884  13.854  13.418
54717W        W26443  10.841  35.354   9.425
54718W        W26444  44.438  23.123  14.107
54719W        W26445  37.856  20.144   4.764
54720W        W26446  44.731  22.594   2.733
54721W        W26447   4.816   3.842   1.492
54722W        W26448  34.515  14.930   0.770
54723W        W26449  24.358  27.174  10.730
54724W        W26450  28.197  27.976   3.178
54725W        W26451  10.814   3.774   4.590
54726W        W26452   0.334   8.885  14.478
54727W        W26453  15.675  14.120   1.371
54728W        W26454  38.767  15.630   2.293
54729W        W26455  16.655  28.609  14.429
54730W        W26456  14.638  40.063  14.398
54731W        W26457   1.445  44.744   2.271
54732W        W26458  42.191  30.421  11.024
54733W        W26459  34.075  37.514  10.610
54734W        W26460  10.868  34.129   0.880
54735W        W26461   3.436  29.085  14.995
54736W        W26462  40.644   2.012   4.624
54737W        W26463  18.312  35.972  10.775
54738W        W26464  40.216  17.541   3.247
54739W        W26465  21.595  28.551  11.913
54740W        W26466   2.359  25.159   2.011
54741W        W26467   8.812  23.727  10.246
54742W        W26468  11.234  10.892   0.896
54743W        W26469  41.053  34.529   1.380
54744W        W26470   3.767  28.692   0.109
54745W        W26471  36.075  21.768   3.894
54746W        W26472  42.807  38.437   2.469
54747W        W26473  33.858  29.901   1.412
54748W        W26474  29.736  42.959  10.416
54749W        W26475  23.071  16.204   4.880
54750W        W26476  35.665  24.080   4.673
54751W        W26477  20.119   4.208  11.571
54752W        W26478  27.731  11.309  13.967
54753W        W26479  43.961  18.447  12.681
54754W        W26480  41.760  17.420  14.891
54755W        W26481  43.272  31.333   1.355
54756W        W26482  14.290  20.495  11.093
54757W        W26483  17.461  33.096  12.514
54758W        W26484  30.550  36.831   2.840
54759W        W26485  11.152  14.513   0.321
54760W        W26486  11.875  33.910  11.643
54761W        W26487  44.775  24.292  14.495
54762W        W26488   4.674  23.117   3.338
54763W        W26489   5.478  44.356  11.102
54764W        W26490  38.109  21.216  14.302
54765W        W26491  20.694  32.705  14.092
54766W        W26492  27.609  40.244  11.516
54767W        W26493  35.026  20.783  13.087
54768W        W26494  12.287  40.281  10.644
54769W        W26495  12.205  18.073   3.294
54770W        W26496  24.728  11.435   3.832
54771W        W26497  15.785  44.405   0.492
54772W        W26498  28.605  20.248   1.907
54773W        W26499  12.215  34.157   0.341
54774W        W26500  32.418  38.391   2.236
54775W        W26501  24.137   8.022  12.536
54776W        W26502  32.510  12.781   3.723
54777W        W26503  30.086  23.912   4.610
54778W        W26504   1.698  25.961   1.812
54779W        W26505  30.131  14.231   2.219
54780W        W26506  13.751   0.540  11.660
54781W        W26507  42.326   8.120  12.593
54782W        W26508  39.459  35.809   3.124
54783W        W26509  22.810  21.027   1.321
54784W        W26510  24.820  43.993   2.760
54785W        W26511  26.461  37.756   4.580
54786W        W26512   6.155  32.928   4.075
54787W        W26513  27.179  13.236   4.663
54788W        W26514  39.940   0.559  14.721
54789W        W26515  40.224  15.019   0.203
54790W        W26516  25.274  44.236  14.647
54791W        W26517  43.417   5.730   2.776
54792W        W26518  18.865  24.568  12.908
54793W        W26519  34.829  44.973   3.673
54794W        W26520  13.424  21.280  12.837
54795W        W26521  14.933  43.525   3.790
54796W        W26522   2.206  44.001   4.110
54797W        W26523  26.668  43.806   3.350
54798W        W26524  33.626   2.327  13.437
54799W        W26525  36.407  18.697  12.040
54800W        W26526  12.668  17.145   3.791
54801W        W26527  42.890  14.043  14.634
54802W        W26528   0.353   4.154   1.759
54803W        W26529  35.440  36.367   4.242
54804W        W26530  42.472  12.156   2.915
54805W        W26531   9.856  16.809   3.846
54806W        W26532  21.629  34.964  14.980
54807W        W26533  13.341  14.284   9.986
54808W        W26534  44.254  39.604   1.313
54809W        W26535  22.078  39.343  14.675
54810W        W26536  14.453  10.448   0.487
54811W        W26537  41.524  18.747   1.166
54812W        W26538  39.379   2.434  13.336
54813W        W26539  37.278   1.656  12.436
54814W        W26540  43.981  27.147   4.603
54815W        W26541  30.453   6.802   4.338
54816W        W26542  14.259  32.608  11.960
54817W        W26543  36.435  31.375  14.447
54818W        W26544  14.597  39.778  14.837
54819W        W26545  30.544  17.119  14.864
54820W        W26546   6.853  20.090  10.636
54821W        W26547  25.201   0.193  14.261
54822W        W26548   0.728   1.332   3.843
54823W        W26549  19.256  33.162   2.874
54824W        W26550  16.603   0.729  10.622
54825W        W26551  27.022   9.417  13.022
54826W        W26552  41.117  36.598  13.250
54827W        W26553  43.283  33.155   0.297
54828W        W26554   9.109   4.463   4.292
54829W        W26555  27.580  22.958   4.063
54830W        W26556   6.493  22.874   4.562
54831W        W26557  16.796  42.950  12.939
54832W        W26558  12.128  20.069   1.436
54833W        W26559  42.057  20.578  13.039
54834W        W26560   1.852  23.676  12.351
54835W        W26561  33.956  38.039  10.473
54836W        W26562  33.652  37.482  13.101
54837W        W26563  12.719   8.919   1.724
54838W        W26564  23.904  15.734   0.914
54839W        W26565  19.763  15.816   3.109
54840W        W26566  44.690  41.768   2.789
54841W        W26567  27.565  10.542  14.359
54842W        W26568  32.891  40.012   1.732
54843W        W26569  39.533   9.284   4.236
54844W        W26570   7.124  42.233  14.273
54845W        W26571   5.779  33.980   4.607
54846W        W26572  22.135  40.903  14.517
54847W        W26573  20.940  28.571   1.503
54848W        W26574  12.194   1.414   2.843
54849W        W26575  15.630  31.855   1.733
54850W        W26576  41.978  43.927  12.114
54851W        W26577  29.105  15.611  13.226
54852W        W26578  44.489  42.576  14.854
54853W        W26579  20.613  33.330  14.219
54854W        W26580  36.471  18.124  14.818
54855W        W26581  16.691  34.465  10.608
54856W        W26582  16.164  10.021   3.783
54857W        W26583  14.710  23.089  14.417
54858W        W26584  18.820   3.454  14.906
54859W        W26585   1.561  31.081  14.826
54860W        W26586  30.995   0.748   0.373
54861W        W26587  28.518  34.061  10.625
54862W        W26588  43.841  18.124  14.362
54863W        W26589  14.923   8.670  12.098
54864W        W26590  25.588  41.907   2.908
54865W        W26591  31.031  36.433   1.675
54866W        W26592  33.643  18.831  11.618
54867W        W26593  32.705   0.876  11.271
54868W        W26594  34.443   5.645   1.995
54869W        W26595  39.299  22.978   4.601
54870W        W26596  36.755  31.213  10.531
54871W        W26597   5.835   0.925   2.156
54872W        W26598  11.678  32.855   2.370
54873W        W26599  32.426  23.562   0.015
54874W        W26600  26.208  19.223  11.062
54875W        W26601  42.101   3.012   0.039
54876W        W26602  29.201  31.644   4.214
54877W        W26603  34.189  24.191   0.406
54878W        W26604   0.573  23.604  14.021
54879W        W26605  24.199  20.565  12.980
54880W        W26606  25.016  11.240  13.479
54881W        W26607  25.491   2.546  11.102
54882W        W26608   4.009  25.753  12.436
54883W        W26609   9.333  22.524   2.664
54884W        W26610  14.103  42.798  13.003
54885W        W26611   7.584   7.617   0.254
54886W        W26612  36.082  16.671  10.444
54887W        W26613  28.954   6.153  12.331
54888W        W26614  14.170  39.153   5.102
54889W        W26615  18.215  11.221   2.393
54890W        W26616   2.173  17.509   1.297
54891W        W26617  31.376   2.643  13.018
54892W        W26618  36.558  34.995   0.258
54893W        W26619  29.129  11.818   4.680
54894W        W26620  25.741  24.044  14.451
54895W        W26621   0.441  13.592  14.265
54896W        W26622  41.052   3.696  13.335
54897W        W26623   3.688  35.090   3.287
54898W        W26624  36.944   5.333  12.539
54899W        W26625  36.816  24.955  11.065
54900W        W26626   5.383   0.831   2.431
54901W        W26627  38.065   1.407   0.777
54902W        W26628  20.041  21.073   2.112
54903W        W26629  27.582  37.820   4.380
54904W        W26630  15.536  25.613   1.426
54905W        W26631  21.185  15.755  10.409
54906W        W26632  10.731  33.015  11.353
54907W        W26633  34.113  30.115  12.130
54908W        W26634  13.095   3.881  14.184
54909W        W26635  29.246   9.356  14.877
54910W        W26636  13.612  11.163   1.651
54911W        W26637  41.875  26.155   2.264
54912W        W26638  16.540   5.239  14.493
54913W        W26639  32.082  42.851  12.376
54914W        W26640   5.219  29.731  11.156
54915W        W26641   4.737   2.431   2.332
54916W        W26642  15.963  38.640  13.834
54917W        W26643  25.754  44.150   5.208
54918W        W26644   7.092  16.454  12.069
54919W        W26645  29.078  41.776   0.875
54920W        W26646  20.487   4.178  12.391
54921W        W26647  28.070  23.757   2.928
54922W        W26648  29.949  21.299   2.342
54923W        W26649  29.437  20.647   1.338
54924W        W26650  30.920   4.671   1.874
54925W        W26651  12.134  29.132  11.241
54926W        W26652  44.670  28.921  14.824
54927W        W26653  10.606  36.419   3.824
54928W        W26654  10.338   9.234   0.942
54929W        W26655   6.007  36.516  13.516
54930W        W26656  33.374   2.972  11.121
54931W        W26657  20.852  28.523  11.643
54932W        W26658  25.619   1.916   4.103
54933W        W26659  20.510   8.411   2.222
54934W        W26660   8.155  14.282  14.984
54935W        W26661  34.525  23.985  11.620
54936W        W26662  36.421  33.107   0.812
54937W        W26663  31.435  18.285   1.403
54938W        W26664  24.454  14.813   4.095
54939W        W26665  17.313  18.136   2.315
54940W        W26666  15.596  19.435  11.765
54941W        W26667   9.875  37.796  11.638
54942W        W26668  12.716  25.987   0.807
54943W        W26669  28.270  37.565   4.182
54944W        W26670  41.752  43.485   4.163
54945W        W26671   0.738  21.169   3.413
54946W        W26672  27.379  36.919   2.195
54947W        W26673   8.427   5.588  14.023
54948W        W26674   5.334  16.927   1.808
54949W        W26675  39.056  19.951  12.630
54950W        W26676  36.591  22.674   0.348
54951W        W26677  17.500  19.088   3.346
54952W        W26678  18.437  41.580   1.471
54953W        W26679  29.649   5.951   0.675
54954W        W26680  33.687  12.654   4.225
54955W        W26681  35.528  40.545  12.447
54956W        W26682  27.971  17.701  12.388
54957W        W26683  33.160  21.643  13.424
54958W        W26684  32.193   0.907  11.212
54959W        W26685   9.635  14.623   1.799
54960W        W26686  18.434  19.601  12.616
54961W        W26687  21.108  13.729   0.827
54962W        W26688  11.381  13.971   2.698
54963W        W26689  24.997  21.960   3.292
54964W        W26690  11.209  32.864  13.136
54965W        W26691  21.419  26.696  10.169
54966W        W26692  23.232  41.183  11.524
54967W        W26693  35.452  32.592   0.346
54968W        W26694  39.466  13.886  13.692
54969W        W26695  26.196  30.990   3.346
54970W        W26696  15.126  41.025  13.786
54971W        W26697   6.301  36.596   4.568
54972W        W26698  14.583  19.098   3.792
54973W        W26699   7.928   0.450   4.185
54974W        W26700  44.067   0.009  11.030
54975W        W26701  33.205   0.895  11.189
54976W        W26702  15.240  27.818  13.013
54977W        W26703   8.993   0.845  12.963
54978W        W26704  27.831   4.918   4.175
54979W        W26705   1.656  13.190  13.630
54980W        W26706  35.079  41.559   2.407
54981W        W26707  19.112  25.702  10.971
54982W        W26708  28.443  10.830   3.214
54983W        W26709  41.244  18.486  12.020
54984W        W26710  34.550  40.720   3.558
54985W        W26711  32.590  14.550  12.480
54986W        W26712  40.428  30.374   1.416
54987W        W26713  32.217   0.050  13.898
54988W        W26714  34.143   1.746   1.943
54989W        W26715  28.670   2.122   1.240
54990W        W26716  15.750  16.628   3.312
54991W        W26717  32.111  42.910  14.821
54992W        W26718   6.168   4.712  10.076
54993W        W26719  25.941  18.055   3.636
54994W        W26720  10.874  42.693   4.697
54995W        W26721  12.342   3.235  13.406
54996W        W26722   0.360  43.975  12.299
54997W        W26723  10.758   2.120  12.135
54998W        W26724   3.485  11.261  11.067
54999W        W26725  10.005  29.664   3.427
55000W        W26726  37.391  29.952  10.495
55001W        W26727  25.344   3.283   4.274
55002W        W26728   2.106   0.363  12.439
55003W        W26729   4.777   3.213  13.380
55004W        W26730  22.976   9.230  14.800
55005W        W26731   9.206  44.482  11.941
55006W        W26732  38.045  29.700   3.768
55007W        W26733  43.671  19.781   3.726
55008W        W26734   5.444  26.920   3.071
55009W        W26735  23.631  28.090   2.592
55010W        W26736  22.897   3.995   3.608
55011W        W26737  38.527   3.887  12.602
55012W        W26738  38.350  15.102  10.651
55013W        W26739  38.891  20.779  13.037
55014W        W26740  13.231  23.916   2.646
55015W        W26741  16.280  29.571   3.149
55016W        W26742  15.491  17.289   0.087
55017W        W26743  22.494   1.213  12.899
55018W        W26744  39.036  33.692   1.214
55019W        W26745  36.077   6.141   3.307
55020W        W26746  43.833  12.670  12.510
55021W        W26747  38.936  28.067   1.519
55022W        W26748  44.165  16.358  14.576
55023W        W26749   0.571  17.741   0.030
55024W        W26750   9.437  35.759  14.267
55025W        W26751  39.401  12.690   4.302
55026W        W26752  39.849   5.543  14.094
55027W        W26753  32.546  39.461  14.767
55028W        W26754  20.153  35.889   2.842
55029W        W26755  11.934  34.938  13.821
55030W        W26756  10.113  26.927   1.170
55031W        W26757  29.203   2.293   4.863
55032W        W26758   7.635  30.599  14.341
55033W        W26759  11.268  20.118   1.071
55034W        W26760  31.936   9.584   1.375
55035W        W26761  31.728  17.257   1.389
55036W        W26762  28.151   2.706   1.795
55037W        W26763   9.880  33.345   4.530
55038W        W26764   8.781  33.044  10.226
55039W        W26765  17.103  30.721  10.973
55040W        W26766  17.710  33.135   4.940
55041W        W26767  40.213  13.342  14.897
55042W        W26768  16.763   0.042  14.879
55043W        W26769  29.741  28.176   4.607
55044W        W26770   2.647  40.997  14.849
55045W        W26771  26.061  42.159   4.794
55046W        W26772  27.634  37.348   4.197
55047W        W26773  29.210  36.439   4.951
55048W        W26774  11.925  26.643  14.044
55049W        W26775  25.716  23.635   1.926
55050W        W26776  18.514  21.999  12.420
55051W        W26777  32.937   0.205   0.517
55052W        W26778  12.334   2.211   2.911
55053W        W26779  40.889   1.653   3.406
55054W        W26780   6.290  30.605  13.048
55055W        W26781  11.434  20.544  10.602
55056W        W26782  30.008  42.860  14.072
55057W        W26783   8.621  17.839  13.063
55058W        W26784  10.581  36.608  14.627
55059W        W26785  16.303   5.197   3.693
55060W        W26786   2.817  38.853  13.675
55061W        W26787   4.243  39.608   2.187
55062W        W26788  14.116   3.744   2.455
55063W        W26789  29.389   7.113  11.207
55064W        W26790  14.886  14.172  10.687
55065W        W26791  15.204  39.035   3.091
55066W        W26792  27.240  15.920  12.975
55067W        W26793  30.889   5.293   2.371
55068W        W26794  10.422  22.663  13.483
55069W        W26795  20.719  15.698  14.092
55070W        W26796   0.439  22.447  12.567
55071W        W26797  12.730  21.862   4.321
55072W        W26798  36.542   5.738   2.866
55073W        W26799  15.581   6.877  11.363
55074W        W26800  20.345  42.689  13.503
55075W        W26801  38.866  33.991   3.372
55076W        W26802   9.253  21.943   1.207
55077W        W26803   2.353   6.350  14.300
55078W        W26804  42.054  37.748   1.012
55079W        W26805  28.448   1.824   1.676
55080W        W26806  39.502  29.134   3.695
55081W        W26807  24.111  31.444  12.877
55082W        W26808  15.160   6.696  11.650
55083W        W26809  35.050   3.784   3.811
55084W        W26810  39.525  44.481  12.093
55085W        W26811  36.360  20.773   1.698
55086W        W26812  43.079  38.674  12.038
55087W        W26813  24.723   4.597   1.008
55088W        W26814  28.453  43.342   0.359
55089W        W26815  18.368  25.006   4.968
55090W        W26816   8.963   1.727   4.140
55091W        W26817  35.276   1.862  13.305
55092W        W26818  27.455  29.621   1.314
55093W        W26819   7.160  13.519  14.152
55094W        W26820  30.129  33.410  11.140
55095W        W26821  23.420  41.788   2.614
55096W        W26822  28.610  19.272  13.410
55097W        W26823  37.486   0.244   4.175
55098W        W26824  44.277  35.356  12.847
55099W        W26825  26.574  20.578  10.989
55100W        W26826  13.222  17.795  12.444
55101W        W26827  37.031  37.386  14.908
55102W        W26828  44.680  16.750  14.912
55103W        W26829   1.796  10.959  11.648
55104W        W26830  29.497   6.786   4.405
55105W        W26831  12.397   5.191  11.998
55106W        W26832  35.096   0.986  14.785
55107W        W26833  26.628  20.055   3.241
55108W        W26834  21.195  16.243  12.249
55109W        W26835  10.873  31.667  10.650
55110W        W26836   8.964   1.886  13.102
55111W        W26837  29.525  27.685  12.562
55112W        W26838  22.288  39.011   4.578
55113W        W26839  10.748  27.746   1.755
55114W        W26840   3.855  26.788   2.088
55115W        W26841  15.576  42.729   2.343
55116W        W26842  24.719  22.746  12.124
55117W        W26843  26.678  35.522  11.530
55118W        W26844  24.683  35.871   4.825
55119W        W26845  12.152  25.297  12.047
55120W        W26846  43.757  16.480   2.559
55121W        W26847  39.094  38.823   3.700
55122W        W26848   7.675  21.192   0.373
55123W        W26849  28.120  37.507   2.273
55124W        W26850   5.506  35.089   2.724
55125W        W26851  21.431  26.417   2.582
55126W        W26852  34.988   3.813  11.184
55127W        W26853  27.362  30.648  11.507
55128W        W26854  30.997  22.297   1.425
55129W        W26855   7.771  42.284  13.324
55130W        W26856  32.621  42.163   4.512
55131W        W26857   3.501  39.820   1.721
55132W        W26858   3.721   5.422  14.495
55133W        W26859  19.827  13.732  10.888
55134W        W26860  25.428  43.268  10.710
55135W        W26861  40.415   8.441  12.366
55136W        W26862  17.050  18.633  12.026
55137W        W26863  24.546  43.990   4.571
55138W        W26864  39.306  29.457   2.778
55139W        W26865  23.109  31.625  14.786
55140W        W26866  36.901  35.037  11.550
55141W        W26867   6.688  39.491  11.583
55142W        W26868  14.260  30.948   1.850
55143W        W26869  24.787  12.234   2.475
55144W        W26870  41.916  12.710  14.726
55145W        W26871  11.410  29.321  14.207
55146W        W26872  18.907  43.909   3.214
55147W        W26873  11.418   5.191   3.061
55148W        W26874  21.708   4.788   4.552
55149W        W26875   2.943   1.955   2.033
55150W        W26876  37.556  20.544  12.358
55151W        W26877   9.060  26.300   5.132
55152W        W26878   1.351  30.549   1.448
55153W        W26879  41.544  22.613   2.676
55154W        W26880  16.577  19.721   4.473
55155W        W26881  14.277  28.194  13.427
55156W        W26882  12.683   5.655  10.752
55157W        W26883  28.209  40.976  12.547
55158W        W26884  24.425  24.188   0.930
55159W        W26885  24.437  19.641   0.429
55160W        W26886  36.489   5.975  14.182
55161W        W26887  22.099  26.686   4.375
55162W        W26888  22.142  17.282   4.189
55163W        W26889  23.285  31.447   1.315
55164W        W26890   5.746  15.170   2.152
55165W        W26891  23.587   1.337   4.647
55166W        W26892  29.643   6.635  12.845
55167W        W26893  21.495  16.397  14.403
55168W        W26894   4.182  10.600  10.690
55169W        W26895  33.453  41.995  13.466
55170W        W26896  40.044  20.104   4.247
55171W        W26897  21.425   5.786  13.079
55172W        W26898  38.885  29.184   0.370
55173W        W26899  17.222  44.741  14.855
55174W        W26900  33.682  16.040  12.868
55175W        W26901  28.030  38.322  13.467
55176W        W26902  11.927  37.052  14.401
55177W        W26903  44.289  44.109   4.102
55178W        W26904  18.574  41.184   0.466
55179W        W26905   1.189  23.229  11.553
55180W        W26906  24.568  26.290   5.080
55181W        W26907   7.391   4.844   4.928
55182W        W26908   7.254  27.202  13.919
55183W        W26909  30.209  31.427   1.461
55184W        W26910   3.822  22.078   0.363
55185W        W26911  10.690  37.973   4.104
55186W        W26912  21.761  28.516   2.847
55187W        W26913  32.456  40.926  10.195
55188W        W26914  35.168   7.314   0.699
55189W        W26915   9.892  12.257  10.739
55190W        W26916  22.660  24.539   3.501
55191W        W26917  22.140  23.281  11.705
55192W        W26918   2.381  10.325  11.985
55193W        W26919  14.603  32.462   0.749
55194W        W26920  13.142  31.515  11.538
55195W        W26921  17.367  40.273  14.269
55196W        W26922   8.025   1.894  10.416
55197W        W26923  40.057  39.096  11.635
55198W        W26924  10.041  10.545   1.944
55199W        W26925  18.255  36.837   3.896
55200W        W26926  42.535  15.677   4.708
55201W        W26927  36.801  21.109   3.798
55202W        W26928   7.783  32.480   4.755
55203W        W26929  23.766   5.861   0.406
55204W        W26930  29.190  22.022  12.845
55205W        W26931   8.274  15.837  14.909
55206W        W26932  29.175  24.208   3.667
55207W        W26933  27.054  22.738   1.489
55208W        W26934  10.170  22.720  11.105
55209W        W26935  21.662  15.371   1.257
55210W        W26936   1.773   3.784   2.198
55211W        W26937   6.441  10.848   2.371
55212W        W26938   0.184  18.111  14.830
55213W        W26939  15.404   8.891  12.031
55214W        W26940   8.791  44.537  14.086
55215W        W26941   3.452   3.434  14.856
55216W        W26942  28.925  23.788   4.527
55217W        W26943  40.936  29.685   0.782
55218W        W26944  37.846  19.423   2.742
55219W        W26945  43.602  29.116   3.713
55220W        W26946  14.178  13.623  13.331
55221W        W26947  36.412  19.101   3.194
55222W        W26948   2.245  22.466  14.797
55223W        W26949  15.329  24.483   1.301
55224W        W26950  28.885  25.071   2.608
55225W        W26951  22.692  36.629  13.086
55226W        W26952  28.923  13.633   3.402
55227W        W26953  44.263  27.120  12.458
55228W        W26954  42.208  21.357   1.758
55229W        W26955  23.292  15.508   3.724
55230W        W26956  27.276  18.753   2.916
55231W        W26957  17.724  27.914  13.828
55232W        W26958  20.624   5.914  13.766
55233W        W26959  16.991   5.439   0.795
55234W        W26960  30.885  36.619  14.802
55235W        W26961  23.165  28.549   5.263
55236W        W26962   5.069  24.264   4.037
55237W        W26963  30.890  28.516   3.230
55238W        W26964  31.826  32.941  10.242
55239W        W26965   9.240   7.619   1.152
55240W        W26966  16.895  39.868   4.412
55241W        W26967  42.368   8.541   5.045
55242W        W26968  32.998  39.552   1.393
55243W        W26969  13.198  10.475  13.385
55244W        W26970  43.869  27.058   3.675
55245W        W26971   2.576  24.709  14.057
55246W        W26972  18.975   5.754   1.799
55247W        W26973  36.976   1.936   0.704
55248W        W26974  35.544  30.501   1.399
55249W        W26975  11.330  14.716  12.997
55250W        W26976  25.949  12.635  13.927
55251W        W26977  38.105  15.801  10.597
55252W        W26978  42.728  34.128   3.889
55253W        W26979  25.284  32.908  10.573
55254W        W26980   3.902   8.335   1.371
55255W        W26981  30.421   4.679  11.113
55256W        W26982  33.802  38.537  12.899
55257W        W26983  25.493  19.670   0.428
55258W        W26984  32.964  16.643   4.579
55259W        W26985  22.764  25.244  14.715
55260W        W26986  15.061  13.147   4.542
55261W        W26987   9.694  43.880  14.967
55262W        W26988  24.087   6.630   0.580
55263W        W26989  15.875  39.523  10.820
55264W        W26990  19.503   7.309  14.848
55265W        W26991  25.536  35.148  11.172
55266W        W26992  24.430  30.426   3.295
55267W        W26993  30.941  18.094   3.420
55268W        W26994  30.629  44.913  11.058
55269W        W26995  33.600  19.531   9.973
55270W        W26996   0.248  19.524   1.899
55271W        W26997  19.725   2.490   0.773
55272W        W26998  20.564   4.363  13.588
55273W        W26999   4.178  37.198   2.231
55274W        W27000  15.475  26.131   1.219
55275W        W27001  39.438   3.714   0.518
55276W        W27002  27.644  29.549  12.775
55277W        W27003  11.305  11.246  10.997
55278W        W27004   7.239  13.880  14.556
55279W        W27005  22.839  22.815   1.712
55280W        W27006  21.679  19.260   2.754
55281W        W27007  30.685  43.917   3.241
55282W        W27008  31.979  36.606   2.308
55283W        W27009  34.082  11.618  11.584
55284W        W27010  25.736   9.268   2.330
55285W        W27011   6.941   0.484  14.954
55286W        W27012  21.098   8.412  13.292
55287W        W27013  17.587  34.098  14.415
55288W        W27014  39.846  36.399   4.115
55289W        W27015  39.077  41.567  12.454
55290W        W27016  36.264  14.446  12.533
55291W        W27017  27.473  28.121  14.851
55292W        W27018  14.021  21.691   2.359
55293W        W27019   9.281  27.611   1.843
55294W        W27020  20.422  24.961  12.926
55295W        W27021  28.992  18.498  11.127
55296W        W27022  40.381  18.695   0.874
55297W        W27023  10.354   8.394   3.686
55298W        W27024  30.893   8.314  14.412
55299W        W27025  14.779  35.430  13.001
55300W        W27026  38.864  28.328   3.520
55301W        W27027  25.901  44.819  11.781
55302W        W27028  38.483  39.009   1.593
55303W        W27029  11.325  29.217   0.941
55304W        W27030  26.677  40.803   4.564
55305W        W27031  13.372   9.634  11.403
55306W        W27032   3.633  22.235  13.991
55307W        W27033  40.539  25.055  13.415
55308W        W27034   5.739  32.855  13.444
55309W        W27035  43.056   6.591   2.735
55310W        W27036  36.762  29.512   2.886
55311W        W27037   4.468  12.365  14.852
55312W        W27038  42.059  35.541   1.411
55313W        W27039  11.828   5.701   4.120
55314W        W27040  25.590  34.265   4.665
55315W        W27041  40.522   9.932   2.683
55316W        W27042  16.113  24.762  14.791
55317W        W27043  11.635  21.068  11.076
55318W        W27044  39.884  32.627  11.531
55319W        W27045  15.744  16.520   4.677
55320W        W27046   4.856  43.813  14.062
55321W        W27047  17.805  37.277  11.465
55322W        W27048  16.877  14.205   5.043
55323W        W27049  27.608  23.716  13.454
55324W        W27050  26.022   9.240   2.783
55325W        W27051  10.928  36.572  12.106
55326W        W27052   6.398  29.724   4.998
55327W        W27053  34.653  24.127   3.732
55328W        W27054  33.393  16.702   4.878
55329W        W27055  13.690  10.758  13.981
55330W        W27056   9.878  18.107   3.884
55331W        W27057  19.408  44.447   3.928
55332W        W27058  12.358  19.211  13.994
55333W        W27059  34.245  34.422  12.337
55334W        W27060  33.696  21.309   1.351
55335W        W27061   7.324  33.093  14.289
55336W        W27062  17.251  28.996   4.611
55337W        W27063  40.851   0.258  11.027
55338W        W27064  22.611  16.216  11.734
55339W        W27065   6.386  43.979   4.603
55340W        W27066  12.626   4.862  14.392
55341W        W27067  39.892  40.432  14.371
55342W        W27068  19.014  30.213   1.256
55343W        W27069   3.521  13.821   1.742
55344W        W27070  38.450   2.446   3.294
55345W        W27071  17.617  25.452   0.053
55346W        W27072  38.726   9.147  13.505
55347W        W27073  30.368  28.530   3.260
55348W        W27074   1.751  20.247  11.154
55349W        W27075  37.958  43.781   2.643
55350W        W27076  10.420  20.265  11.225
55351W        W27077  25.222  42.726   1.681
55352W        W27078   6.261  44.562   5.210
55353W        W27079  22.707   2.314  13.264
55354W        W27080   5.851  18.334  14.747
55355W        W27081  40.716   6.303   3.342
55356W        W27082  15.955  19.041  11.778
55357W        W27083  37.642  22.761  11.986
55358W        W27084  23.433  33.315  13.875
55359W        W27085  32.944  43.754  10.817
55360W        W27086   1.455  26.977  14.508
55361W        W27087  38.769  21.902  11.070
55362W        W27088  20.599   0.464  10.321
55363W        W27089   0.786  30.455  12.431
55364W        W27090  21.268  25.447   4.923
55365W        W27091  32.676  19.367   3.342
55366W        W27092   6.501   0.216  14.843
55367W        W27093   4.114   8.750   4.227
55368W        W27094  21.211   3.661  11.097
55369W        W27095  28.211   3.874  10.970
55370W        W27096  28.208   8.164  10.874
55371W        W27097  34.965  11.860  12.611
55372W        W27098  28.612  25.139   0.292
55373W        W27099   4.731  37.535  13.458
55374W        W27100  36.641  18.760  10.737
55375W        W27101  38.649  14.691   4.776
55376W        W27102  42.638  11.579  12.823
55377W        W27103  42.392  26.401   2.235
55378W        W27104  29.532   6.449  10.210
55379W        W27105  24.617  24.076   4.905
55380W        W27106  38.071  42.428  12.799
55381W        W27107  43.995  14.783   1.765
55382W        W27108  40.035  10.344  13.811
55383W        W27109  26.234  41.953   1.166
55384W        W27110   4.355  36.908   5.076
55385W        W27111   5.875  42.877  11.555
55386W        W27112   9.246  20.142   0.868
55387W        W27113   6.962  28.589  13.977
55388W        W27114   8.392  33.682  11.397
55389W        W27115  14.595  43.153   4.004
55390W        W27116  41.416  41.282  12.511
55391W        W27117  41.466  39.884   2.601
55392W        W27118   7.579   0.520  11.994
55393W        W27119  18.442  27.669  14.335
55394W        W27120   1.808  20.513   2.185
55395W        W27121  18.642  10.444  14.872
55396W        W27122   6.306   5.162   0.082
55397W        W27123  19.528  33.995  14.164
55398W        W27124  44.924  16.733   0.433
55399W        W27125  29.494   3.502   4.149
55400W        W27126   4.598  16.242  10.654
55401W        W27127   5.173  11.371   1.370
55402W        W27128  30.547  18.551   4.727
55403W        W27129   5.404   6.373   2.915
55404W        W27130  33.990  37.993   0.259
55405W        W27131  13.576  12.638  14.526
55406W        W27132  36.388  20.063  13.560
55407W        W27133  17.273  38.853  13.716
55408W        W27134   4.954  26.695   3.740
55409W        W27135  40.801  13.787  13.405
55410W        W27136  19.217  26.085  12.688
55411W        W27137  22.210  12.357   4.167
55412W        W27138  37.511   7.406   4.336
55413W        W27139  15.053  30.403   0.901
55414W        W27140  26.589   8.866   1.253
55415W        W27141  19.650  23.620   4.197
55416W        W27142  15.865   0.345   1.863
55417W        W27143  13.146  23.214  14.289
55418W        W27144  40.355  12.705  13.959
55419W        W27145   7.663   1.339   3.639
55420W        W27146  28.123  33.667   5.124
55421W        W27147  19.658  13.328  11.686
55422W        W27148  20.518   5.365   0.862
55423W        W27149  24.245  22.944   4.232
55424W        W27150  13.543  27.198  13.793
55425W        W27151   9.276   1.444  14.832
55426W        W27152  19.121  12.108  14.988
55427W        W27153  22.599  12.688  14.971
55428W        W27154  42.592  21.364  14.897
55429W        W27155  32.275  17.951   2.355
55430W        W27156  24.928  22.503   4.594
55431W        W27157  27.807  25.946  13.019
55432W        W27158   2.420  31.449  12.382
55433W        W27159  42.848  31.650   1.136
55434W        W27160   1.675   2.626   0.629
55435W        W27161  32.583   3.832  13.879
55436W        W27162  21.560  38.655   3.365
55437W        W27163  31.502  12.102   1.385
55438W        W27164  10.391  30.658   2.123
55439W        W27165  30.210   8.918  14.893
55440W        W27166  31.918  43.814  12.460
55441W        W27167  24.629  10.117  14.368
55442W        W27168  22.357  35.830   2.397
55443W        W27169  37.145   4.602   4.740
55444W        W27170  42.961  40.460   3.296
55445W        W27171  21.574  17.630   4.766
55446W        W27172  30.533  13.921  12.623
55447W        W27173  11.174  41.774  13.331
55448W        W27174  17.022   7.859  12.505
55449W        W27175  14.303   0.716  14.509
55450W        W27176  31.987   8.731   4.579
55451W        W27177  11.424  16.928  11.392
55452W        W27178  40.377  31.906  13.010
55453W        W27179  31.701  37.848  13.441
55454W        W27180  19.330   2.176  11.107
55455W        W27181  38.046   3.753  12.484
55456W        W27182  25.214  24.209   2.627
55457W        W27183  40.467  25.210   4.094
55458W        W27184   0.356   8.250   2.363
55459W        W27185  39.373  39.433  10.746
55460W        W27186   8.678  38.802   1.394
55461W        W27187  31.643  40.592   0.835
55462W        W27188  14.907  16.093  14.898
55463W        W27189  19.863  44.599   3.714
55464W        W27190  32.718  30.327  12.833
55465W        W27191   0.231  14.643  13.503
55466W        W27192  19.014  23.948  13.588
55467W        W27193  37.483   8.939  11.910
55468W        W27194  12.738   4.372   3.307
55469W        W27195  10.252  19.503  10.519
55470W        W27196  39.814   6.406   3.612
55471W        W27197   6.419  26.268   3.780
55472W        W27198  19.547   2.900  13.409
55473W        W27199  27.630  30.908  12.116
55474W        W27200   3.446  40.205  13.318
55475W        W27201  18.352  40.286   0.093
55476W        W27202  23.510  43.496   2.072
55477W        W27203  39.900  43.269  13.596
55478W        W27204  41.202  20.672  11.116
55479W        W27205   9.942  31.523  12.016
55480W        W27206  30.998  36.490   2.180
55481W        W27207  43.207  41.858   3.903
55482W        W27208  12.780   2.264   4.135
55483W        W27209  37.887   0.346   2.269
55484W        W27210  10.581  41.011  12.034
55485W        W27211  19.165  22.291  10.714
55486W        W27212   4.282  17.094  12.895
55487W        W27213  26.683  39.504   1.147
55488W        W27214  34.892  30.496   0.079
55489W        W27215  17.625  39.418   9.832
55490W        W27216  10.867  30.976  13.822
55491W        W27217  20.415  32.924  14.490
55492W        W27218  10.924  16.806  12.452
55493W        W27219  34.024  25.644   2.356
55494W        W27220   9.543  36.458  10.205
55495W        W27221  23.741  28.795   0.924
55496W        W27222  16.723  39.874  13.351
55497W        W27223  11.857  43.883   0.500
55498W        W27224  24.336  19.992  13.380
55499W        W27225  14.064  25.565   0.052
55500W        W27226  40.435  17.325   3.701
55501W        W27227   3.926  29.525  11.506
55502W        W27228  26.584  21.053   1.460
55503W        W27229  31.626  30.948  10.595
55504W        W27230   4.403  18.086  11.148
55505W        W27231  38.803  29.480   2.824
55506W        W27232  34.496   6.936  14.614
55507W        W27233  35.243  29.639   0.307
55508W        W27234  14.551  20.562  13.025
55509W        W27235   6.712  17.635  12.772
55510W        W27236  41.369  17.508  14.583
55511W        W27237  34.875  31.922   5.057
55512W        W27238  43.823  24.401   0.265
55513W        W27239  24.258   9.752   1.856
55514W        W27240   1.401  32.406  11.570
55515W        W27241  34.115  41.866  13.927
55516W        W27242  18.708   2.652  12.192
55517W        W27243  19.067  33.466  14.369
55518W        W27244   3.417  35.522   4.559
55519W        W27245  35.001  11.542  14.473
55520W        W27246  24.674  12.446   5.626
55521W        W27247  13.121  13.387  13.368
55522W        W27248  26.681   6.947   1.262
55523W        W27249  13.792  42.758   2.323
55524W        W27250  23.925   7.297   2.837
55525W        W27251   2.009  33.323   0.410
55526W        W27252  24.109  24.752   1.948
55527W        W27253   6.614  15.193   2.828
55528W        W27254  44.758  11.390  10.790
55529W        W27255  33.376  43.082   1.200
55530W        W27256  13.099   3.850   4.609
55531W        W27257  22.579   2.606  11.939
55532W        W27258  38.065  11.649   1.847
55533W        W27259  16.650  33.498   4.696
55534W        W27260  43.277  27.518  14.989
55535W        W27261  10.650  41.784  13.524
55536W        W27262  33.592  32.480  14.883
55537W        W27263  26.924  41.428   0.018
55538W        W27264  34.823  14.117  13.393
55539W        W27265   1.989  24.625  14.263
55540W        W27266  13.250  37.611  13.566
55541W        W27267  15.533  36.345  10.978
55542W        W27268  32.382  41.599  14.494
55543W        W27269  44.362   2.314   4.651
55544W        W27270  38.272  22.493  14.375
55545W        W27271  29.478  32.862  13.485
55546W        W27272  12.018  14.278   4.260
55547W        W27273  24.241  36.154  12.878
55548W        W27274  43.241  36.981  12.913
55549W        W27275  40.023  25.043   3.215
55550W        W27276  28.555   5.256  10.008
55551W        W27277  25.050  37.334   3.643
55552W        W27278  44.219   7.116   1.296
55553W        W27279   0.723  24.489   0.358
55554W        W27280  41.910  26.671  10.615
55555W        W27281   5.276   5.286  11.901
55556W        W27282   4.243  31.172  14.428
55557W        W27283  11.721  16.472  13.588
55558W        W27284  35.203  35.168  14.094
55559W        W27285  20.580   8.965  11.398
55560W        W27286  13.714   3.435   2.615
55561W        W27287  26.130  34.022   4.614
55562W        W27288  23.506  22.134  13.032
55563W        W27289  43.049  29.837  11.159
55564W        W27290  10.090   6.237   1.512
55565W        W27291  40.465  42.719   1.326
55566W        W27292  15.487  12.152   3.204
55567W        W27293  24.020  21.685  12.469
55568W        W27294  44.025  13.189   1.749
55569W        W27295  16.146   4.795  12.781
55570W        W27296  12.207   8.576  12.929
55571W        W27297   5.866  28.260   2.210
55572W        W27298  24.662   0.411  13.978
55573W        W27299   1.969  20.001   4.424
55574W        W27300   6.944  39.988   3.832
55575W        W27301   6.187  14.206  11.184
55576W        W27302  23.609   2.282   2.311
55577W        W27303   8.359  12.911   3.657
55578W        W27304  31.081  42.979   0.826
55579W        W27305  32.085  42.941  10.947
55580W        W27306  16.980  34.434  13.384
55581W        W27307  14.081  13.829  14.263
55582W        W27308  14.834   0.934   3.663
55583W        W27309  16.755  38.226   0.705
55584W        W27310  14.817  43.815   2.959
55585W        W27311  15.971  13.191   1.329
55586W        W27312  23.715  24.391   0.316
55587W        W27313   2.273  18.761   3.677
55588W        W27314   0.883  43.393   0.878
55589W        W27315  29.095  34.549  14.725
55590W        W27316  44.199  32.009   4.239
55591W        W27317  41.645  34.444  13.510
55592W        W27318  12.261  33.841  14.923
55593W        W27319  14.213  40.737   3.140
55594W        W27320  44.236  16.100  13.753
55595W        W27321  29.748  30.140   3.803
55596W        W27322  27.511  36.554   4.840
55597W        W27323  41.337   6.034  14.947
55598W        W27324   4.166   3.708   2.250
55599W        W27325  34.819   3.826  13.485
55600W        W27326  35.597  13.727   0.994
55601W        W27327  37.441  24.470   4.512
55602W        W27328   2.007  30.950   2.290
55603W        W27329   8.309  22.247  12.939
55604W        W27330   0.837  42.287  11.073
55605W        W27331   3.004  26.551   0.954
55606W        W27332  42.443  14.177   4.896
55607W        W27333  24.131  10.948  11.128
55608W        W27334   2.833  37.548  13.951
55609W        W27335   1.730  35.741  11.102
55610W        W27336   7.800  12.142   2.119
55611W        W27337  19.617  19.035  14.829
55612W        W27338   4.365  43.866  14.252
55613W        W27339  16.983  43.757  14.857
55614W        W27340  26.243  18.080  10.778
55615W        W27341   5.203  30.974  10.671
55616W        W27342  29.039  34.606   3.804
55617W        W27343  14.193  42.781   1.355
55618W        W27344  43.469  30.740   4.214
55619W        W27345   7.556   6.507   5.157
55620W        W27346   1.503   9.396   4.086
55621W        W27347  17.353  33.944   0.946
55622W        W27348  38.022  19.273   0.527
55623W        W27349  42.372  17.847   3.495
55624W        W27350  37.550  31.421  13.993
55625W        W27351  19.151   7.563  10.702
55626W        W27352   4.992  23.604   4.611
55627W        W27353  33.100  14.412  13.370
55628W        W27354  16.697  24.278  14.315
55629W        W27355  33.433  32.731  11.737
55630W        W27356  29.908   2.331  13.966
55631W        W27357  41.889   4.805  11.927
55632W        W27358  11.750  20.514   2.865
55633W        W27359  17.658  37.004  11.036
55634W        W27360  36.297  24.972   4.691
55635W        W27361  23.519  38.717   1.368
55636W        W27362  14.115  17.839  11.945
55637W        W27363  35.104  18.919   4.190
55638W        W27364  38.935  35.513  10.669
55639W        W27365  39.928   7.505   2.489
55640W        W27366  29.551  24.166  12.167
55641W        W27367  23.039  17.105   4.330
55642W        W27368  27.613  25.296  12.474
55643W        W27369  15.827   2.791  10.525
55644W        W27370   6.370   9.253   2.756
55645W        W27371  42.853  36.420   2.457
55646W        W27372  13.826  26.699  12.228
55647W        W27373  17.109  32.138   2.214
55648W        W27374  37.626  22.677   0.124
55649W        W27375  17.278  43.798   0.793
55650W        W27376  23.132  20.985   3.652
55651W        W27377  12.127   3.994  14.722
55652W        W27378  13.098  39.313   3.190
55653W        W27379  21.484   4.710  13.095
55654W        W27380   2.732  21.262  10.621
55655W        W27381  31.465  12.015   2.361
55656W        W27382  35.849  34.350   1.422
55657W        W27383  14.078  32.895  12.357
55658W        W27384  20.437  33.498   0.879
55659W        W27385  22.864   3.793  14.804
55660W        W27386  18.786  37.291   1.872
55661W        W27387  39.502  33.199   0.056
55662W        W27388  42.060  36.323  11.561
55663W        W27389  40.596   3.025  11.459
55664W        W27390  18.841   7.862   3.771
55665W        W27391  36.232   0.934  12.875
55666W        W27392  36.900  15.018   0.506
55667W        W27393  39.422  41.882   1.290
55668W        W27394  36.965  11.956  11.217
55669W        W27395  17.769  44.296   1.482
55670W        W27396  42.873  42.048   0.390
55671W        W27397  15.395  10.238   4.202
55672W        W27398   8.224  17.392  11.271
55673W        W27399  37.980  23.150   2.781
55674W        W27400  14.766  12.615  11.339
55675W        W27401  40.051  29.564  14.071
55676W        W27402   5.901  30.415   4.522
55677W        W27403  14.240  31.372   2.897
55678W        W27404   9.265  22.107  10.704
55679W        W27405  24.212  22.962  12.009
55680W        W27406   3.905   3.771   0.321
55681W        W27407   1.480  21.538   3.237
55682W        W27408  21.855  32.746   2.872
55683W        W27409  12.861  40.487  12.399
55684W        W27410  19.275  14.707  12.084
55685W        W27411  38.904  41.839  11.657
55686W        W27412   1.020   3.901   3.908
55687W        W27413  16.190  14.609   2.670
55688W        W27414  20.746  34.011  14.655
55689W        W27415  35.685  36.293  12.932
55690W        W27416  20.905   0.991   2.160
55691W        W27417  15.748  17.315  13.463
55692W        W27418   1.877   8.264   3.321
55693W        W27419  25.902   6.765   1.687
55694W        W27420  43.920   7.610  11.166
55695W        W27421  34.200  15.710   2.732
55696W        W27422   8.830  28.372   2.192
55697W        W27423   5.439  34.395  14.039
55698W        W27424  33.480  16.996  12.084
55699W        W27425  30.995   2.249   0.252
55700W        W27426  23.747   5.694   4.150
55701W        W27427  38.440  32.429  13.680
55702W        W27428  16.224   6.149   1.538
55703W        W27429  37.548  11.761  14.497
55704W        W27430  21.257  29.115  12.540
55705W        W27431  41.470  16.988  14.770
55706W        W27432   6.741  34.373   0.888
55707W        W27433  31.660  24.517  10.692
55708W        W27434  16.077   4.145  10.808
55709W        W27435  24.876  20.760   3.783
55710W        W27436  16.344  39.043   0.261
55711W        W27437  12.298  10.623   2.737
55712W        W27438   4.406  33.801  13.261
55713W        W27439  21.219  22.977   2.245
55714W        W27440  36.991  13.940  12.414
55715W        W27441   4.188  14.803   1.253
55716W        W27442   0.724  18.632   4.165
55717W        W27443  22.102  33.524   4.689
55718W        W27444   9.729   5.734   4.381
55719W        W27445  41.567   1.668  11.128
55720W        W27446  18.533  23.719  11.576
55721W        W27447  18.304  21.543   3.631
55722W        W27448  37.200  31.978  13.504
55723W        W27449  40.505  37.571   3.673
55724W        W27450   7.371  31.815  11.185
55725W        W27451  12.831  13.845   3.613
55726W        W27452  36.673  20.596  10.362
55727W        W27453  22.970  40.901   4.606
55728W        W27454  12.150  10.727  14.985
55729W        W27455   9.239   4.355  13.478
55730W        W27456  44.529  25.960   3.742
55731W        W27457  34.789  36.824   2.392
55732W        W27458  16.713   3.447   0.455
55733W        W27459  25.971  23.028   3.521
55734W        W27460  27.873  38.045   4.741
55735W        W27461   3.571  22.581  12.544
55736W        W27462  36.269  31.877  14.292
55737W        W27463  25.661  19.828   4.574
55738W        W27464  10.628   9.700  11.312
55739W        W27465  39.448   9.831   1.831
55740W        W27466  41.348  13.122   4.892
55741W        W27467  44.947  13.303   1.907
55742W        W27468  28.584  31.191  13.435
55743W        W27469  23.993   0.457  14.480
55744W        W27470  26.320   2.176   3.176
55745W        W27471  11.172  22.493   0.021
55746W        W27472  39.272  34.500  13.948
55747W        W27473  12.659   7.514   2.239
55748W        W27474   4.233  39.510   1.338
55749W        W27475  39.312  24.522   1.969
55750W        W27476  36.580  40.802   0.936
55751W        W27477  33.781   2.238   0.715
55752W        W27478  22.611  26.201   1.787
55753W        W27479  44.053  44.445  11.656
55754W        W27480  27.464  43.014   1.239
55755W        W27481  31.319  42.398   2.894
55756W        W27482  20.199  41.249   1.682
55757W        W27483  43.356  31.592   1.842
55758W        W27484  18.103  42.864   3.888
55759W        W27485  23.631  26.250  11.050
55760W        W27486   4.193   4.344  14.761
55761W        W27487   9.721  25.177   3.833
55762W        W27488  15.286   9.673  14.359
55763W        W27489  37.362  37.945   1.630
55764W        W27490  34.041  10.798  11.494
55765W        W27491   5.686  19.035  11.051
55766W        W27492   9.370  40.323   2.867
55767W        W27493  30.040  11.214   4.707
55768W        W27494  10.813   8.157  11.645
55769W        W27495  18.318   3.400  11.926
55770W        W27496  44.332   8.009  14.462
55771W        W27497  33.045  19.620   4.174
55772W        W27498  19.884  38.962   3.300
55773W        W27499  39.504  30.446   1.685
55774W        W27500  30.507  12.111  14.719
55775W        W27501  27.018   5.202   3.196
55776W        W27502  24.470  12.399  11.704
55777W        W27503  41.445   7.899  14.351
55778W        W27504  11.856  23.327   5.224
55779W        W27505  11.357  21.293   1.636
55780W        W27506  16.317  12.099  10.440
55781W        W27507  28.478  11.335  11.566
55782W        W27508  18.826   6.215   0.012
55783W        W27509   0.921  32.540  13.315
55784W        W27510   0.447  28.977  14.359
55785W        W27511   6.768  30.380   2.475
55786W        W27512   1.422  42.883   3.910
55787W        W27513  32.591  40.352   4.318
55788W        W27514   6.972  36.457   4.935
55789W        W27515  14.306   4.253   4.991
55790W        W27516   2.821  11.823  11.192
55791W        W27517  34.274  20.103   2.633
55792W        W27518  13.812  40.053   1.954
55793W        W27519  43.893  34.163   2.127
55794W        W27520  13.993  31.967  13.313
55795W        W27521  37.568   4.700   2.737
55796W        W27522  29.960  27.556  13.408
55797W        W27523  38.974  35.576  11.177
55798W        W27524  11.024   2.864  12.926
55799W        W27525  39.544  30.125  14.731
55800W        W27526  33.949  21.173  14.805
55801W        W27527   3.430  31.717   3.121
55802W        W27528  18.561  14.323  13.024
55803W        W27529   9.428  39.062   1.161
55804W        W27530  31.008  39.345  11.096
55805W        W27531  28.782  30.034  13.079
55806W        W27532  12.799   0.387  14.746
55807W        W27533  43.521  41.406  13.319
55808W        W27534  35.483  24.996  13.487
55809W        W27535   8.636  22.273  11.518
55810W        W27536  19.275  13.079  14.956
55811W        W27537  12.949  17.627  14.774
55812W        W27538  23.830  38.366  11.705
55813W        W27539  30.187  10.002  13.376
55814W        W27540  21.082   0.737  11.572
55815W        W27541  13.787  28.075  11.651
55816W        W27542  17.219  36.374   1.677
55817W        W27543   9.781  24.193  11.656
55818W        W27544  21.257  19.503  13.877
55819W        W27545  37.257   4.714   0.810
55820W        W27546  38.395   7.677   0.994
55821W        W27547   7.718  17.254   9.998
55822W        W27548  42.757  10.463   3.251
55823W        W27549  13.685  21.391   1.060
55824W        W27550   7.748  19.094  12.981
55825W        W27551  44.479   1.461  14.924
55826W        W27552   2.634   6.326   4.809
55827W        W27553  12.892   3.799  10.438
55828W        W27554  10.300  10.283   4.105
55829W        W27555  27.593  21.534   2.730
55830W        W27556  25.155  34.064   3.658
55831W        W27557  35.125   6.184   0.533
55832W        W27558  17.177  27.067   2.045
55833W        W27559  34.033  13.224  13.490
55834W        W27560  35.881  31.637  10.647
55835W        W27561  27.005  24.475  11.669
55836W        W27562  33.355  35.346   3.237
55837W        W27563  18.779  22.416  12.664
55838W        W27564  42.159  26.748   5.138
55839W        W27565  24.122  16.851  13.600
55840W        W27566  23.709  29.131  13.184
55841W        W27567   4.722   0.368   3.726
55842W        W27568  16.628  30.130   0.198
55843W        W27569  15.256   7.025   2.343
55844W        W27570   2.670  13.120   4.180
55845W        W27571  43.397  16.589  11.916
55846W        W27572  18.503  32.158  14.403
55847W        W27573   8.472  32.055  14.267
55848W        W27574   5.265  25.066  12.077
55849W        W27575  16.752  21.314   1.989
55850W        W27576   7.671  35.650  14.809
55851W        W27577  24.189  10.412  11.171
55852W        W27578  16.871  28.983  14.737
55853W        W27579   7.341  16.193   4.021
55854W        W27580   4.971  30.618  11.470
55855W        W27581  21.246  17.856   0.722
55856W        W27582  36.090  43.457   0.069
55857W        W27583  14.767  43.123  10.169
55858W        W27584  17.197  27.733  10.192
55859W        W27585   5.785   1.736   3.709
55860W        W27586  35.790  14.589   0.236
55861W        W27587  39.059  16.072   3.953
55862W        W27588  43.432  25.380   4.613
55863W        W27589  10.346  13.354  12.779
55864W        W27590  11.348  13.047   3.397
55865W        W27591  42.884   6.394  14.060
55866W        W27592  39.940   6.855  12.362
55867W        W27593   1.287   7.522   1.781
55868W        W27594  37.583  15.857  14.984
55869W        W27595   8.837  21.634  14.040
55870W        W27596  30.419  28.816  13.893
55871W        W27597  13.431  39.494   2.706
55872W        W27598  25.747   0.090  12.596
55873W        W27599   8.542  12.450   1.699
55874W        W27600   1.387  26.730  10.423
55875W        W27601  38.521   6.541  14.448
55876W        W27602  29.706   8.231  12.903
55877W        W27603  34.826  10.280   0.393
55878W        W27604   9.839  10.984   2.854
55879W        W27605  35.082  42.336   3.368
55880W        W27606   4.239   3.292  12.480
55881W        W27607  38.393  23.721  14.958
55882W        W27608   6.210  14.803   0.066
55883W        W27609  10.593  11.381   2.487
55884W        W27610  38.506  21.842  10.625
55885W        W27611  34.944   6.375   3.279
55886W        W27612  22.315  22.935   0.281
55887W        W27613  22.416  24.565  14.044
55888W        W27614  19.323  39.235   1.283
55889W        W27615   3.166   5.641   4.802
55890W        W27616  27.087  10.324   3.309
55891W        W27617  15.372  32.839   0.375
55892W        W27618   1.316  21.112   1.987
55893W        W27619  29.510  23.160  13.122
55894W        W27620  13.113  38.982  13.760
55895W        W27621  16.019   9.803  11.187
55896W        W27622  25.004  26.588  12.294
55897W        W27623   0.167  28.581   1.887
55898W        W27624   7.793  43.315   4.900
55899W        W27625  38.907  12.603  12.561
55900W        W27626  37.631  12.540  12.152
55901W        W27627  10.675  16.575   2.358
55902W        W27628  25.337  26.078  13.618
55903W        W27629  36.052  41.822   0.365
55904W        W27630  10.313  13.274  10.597
55905W        W27631  15.848  35.094   2.312
55906W        W27632  12.172  34.912   3.728
55907W        W27633  22.716  40.096   0.806
55908W        W27634   5.946   9.291   4.588
55909W        W27635  25.985  36.846   3.659
55910W        W27636   0.645  33.640   0.965
55911W        W27637  22.565  20.201  14.313
55912W        W27638  31.094  36.885  12.381
55913W        W27639  23.637  26.033   2.685
55914W        W27640  27.470  14.070   1.797
55915W        W27641  29.477  16.111  14.992
55916W        W27642  15.539  28.127   0.732
55917W        W27643  26.518   0.544   4.959
55918W        W27644  43.581  42.389   0.825
55919W        W27645  37.507  18.146  11.643
55920W        W27646  40.257  38.070  10.682
55921W        W27647   2.142   9.706  14.491
55922W        W27648  22.720  15.626   2.650
55923W        W27649   5.293  21.671  13.740
55924W        W27650  35.114  44.729  10.557
55925W        W27651  17.350  14.243  10.733
55926W        W27652   9.864  44.013   1.019
55927W        W27653  44.305   5.331  12.549
55928W        W27654   2.419  28.972   4.319
55929W        W27655  16.710   4.979  10.283
55930W        W27656  19.509   1.448   2.757
55931W        W27657   0.406  12.986   3.207
55932W        W27658  13.776  41.520  13.381
55933W        W27659  14.326  15.211   0.938
55934W        W27660   5.509  37.553   1.495
55935W        W27661  18.641  10.735  14.059
55936W        W27662  42.333  26.111  13.880
55937W        W27663   3.202  40.733  11.163
55938W        W27664   7.456  18.046   3.152
55939W        W27665  32.924  39.932   2.743
55940W        W27666   6.857   8.922  13.003
55941W        W27667   7.041  18.747  11.939
55942W        W27668  17.363  13.591   3.639
55943W        W27669   9.448  37.220   5.022
55944W        W27670  17.155  40.939   2.667
55945W        W27671  43.518  32.014   0.697
55946W        W27672  17.165  37.391   2.723
55947W        W27673  36.806  24.584   3.233
55948W        W27674  33.903  38.310  14.866
55949W        W27675  30.175  19.751  10.658
55950W        W27676   8.870  24.005  12.103
55951W        W27677  31.073  41.842  14.860
55952W        W27678  41.256   4.797  13.161
55953W        W27679  43.505  17.531  11.484
55954W        W27680  42.331   9.244  10.925
55955W        W27681   0.535  33.324   2.398
55956W        W27682   4.842  23.038  14.758
55957W        W27683  28.104   8.300   1.203
55958W        W27684  39.389  43.894  14.839
55959W        W27685  38.059  29.557   3.266
55960W        W27686  36.084  34.393   2.318
55961W        W27687   3.505  14.219  11.008
55962W        W27688   2.374  11.240  12.758
55963W        W27689  14.210  17.014  12.904
55964W        W27690  34.164   3.866   0.211
55965W        W27691  32.863  23.381  10.150
55966W        W27692  34.327   2.790   1.880
55967W        W27693  31.144   7.340   0.294
55968W        W27694  27.949   5.387   1.375
55969W        W27695   3.922   5.565   0.841
55970W        W27696   1.736  10.813   3.128
55971W        W27697  33.277   0.303  10.769
55972W        W27698  10.918   6.111  12.471
55973W        W27699   2.252  34.151  13.926
55974W        W27700  29.115   6.621  12.004
55975W        W27701   3.256  41.940  12.644
55976W        W27702   6.741  36.823  14.115
55977W        W27703  21.481  14.112  11.933
55978W        W27704  39.606  21.152   1.363
55979W        W27705  17.343  19.088  14.743
55980W        W27706  13.998   2.034   4.512
55981W        W27707   2.316  38.765   0.360
55982W        W27708   0.008  44.459  11.117
55983W        W27709  29.589  24.464   4.191
55984W        W27710  21.294   2.235  14.241
55985W        W27711  23.153  37.885   1.442
55986W        W27712  12.304  29.405   2.566
55987W        W27713   6.372  10.524   3.771
55988W        W27714   0.874  38.968   0.143
55989W        W27715  36.987  29.339  14.894
55990W        W27716  17.021   5.196   1.253
55991W        W27717  25.156   0.548  13.884
55992W        W27718   0.943   0.069  10.301
55993W        W27719   7.451  12.253   2.499
55994W        W27720  20.599  38.566  14.391
55995W        W27721  13.192  26.197   3.675
55996W        W27722   3.278  25.522   1.350
55997W        W27723  31.157  15.221  14.064
55998W        W27724  36.624  21.685  12.813
55999W        W27725  29.011  40.241   2.310
56000W        W27726   0.272  10.286   3.592
56001W        W27727  13.704   3.988   1.748
56002W        W27728  41.686  33.022   1.310
56003W        W27729  19.553  29.548  12.601
56004W        W27730  35.142  13.810  14.905
56005W        W27731  42.779   3.430  14.509
56006W        W27732  36.997  42.444   0.370
56007W        W27733  17.838   4.086  12.214
56008W        W27734  38.027  13.790   3.416
56009W        W27735  22.505  18.684   3.680
56010W        W27736  38.081  33.079  11.042
56011W        W27737  18.197   1.740   0.859
56012W        W27738  42.299  20.240  11.550
56013W        W27739  10.620   8.257   0.721
56014W        W27740   0.289  29.548   1.479
56015W        W27741  40.458  44.533  10.364
56016W        W27742  18.429  16.627  13.761
56017W        W27743  10.623  26.008  14.299
56018W        W27744  23.164   7.201   3.300
56019W        W27745  17.983   2.105  12.962
56020W        W27746  44.700  34.822   3.880
56021W        W27747   8.347   8.836  11.955
56022W        W27748  40.415  17.612  11.658
56023W        W27749   7.797  24.929   2.818
56024W        W27750   1.959   3.584  12.097
56025W        W27751  31.991  41.097   1.256
56026W        W27752  43.205  14.790  11.442
56027W        W27753  28.133  10.848   4.792
56028W        W27754  13.661  36.496  10.440
56029W        W27755  31.225  17.310   4.539
56030W        W27756   3.226  24.700  10.610
56031W        W27757  16.259   3.789   2.928
56032W        W27758  44.510  41.886   4.083
56033W        W27759  30.667   2.641  11.195
56034W        W27760  15.883   6.805  13.976
56035W        W27761   8.808  30.975  13.829
56036W        W27762  40.296   1.421   0.509
56037W        W27763  26.948   6.999  13.481
56038W        W27764   3.188  41.901  14.938
56039W        W27765  31.493  35.047   3.625
56040W        W27766  36.093  31.498   4.167
56041W        W27767   9.138  18.495   2.856
56042W        W27768  42.122   4.861  10.566
56043W        W27769   1.412  36.368   0.833
56044W        W27770   4.373  27.121   2.115
56045W        W27771  12.571   1.984   3.555
56046W        W27772  41.013  22.026   4.575
56047W        W27773   4.921  13.334   3.685
56048W        W27774  15.187  41.432  12.449
56049W        W27775   7.798  13.080  14.219
56050W        W27776  44.838   7.703   3.392
56051W        W27777  36.993  10.078   2.187
56052W        W27778  31.086   4.137   3.138
56053W        W27779  43.993  43.077  14.556
56054W        W27780  14.831  22.028  11.396
56055W        W27781  23.059  33.591   3.939
56056W        W27782  26.049   8.304   2.283
56057W        W27783  35.025  30.503   3.155
56058W        W27784   3.432  14.990   4.124
56059W        W27785  33.878  35.337   2.267
56060W        W27786  27.363  34.001   0.398
56061W        W27787  23.340   4.419  13.881
56062W        W27788  16.672   6.216   0.712
56063W        W27789  42.777  29.381  11.188
56064W        W27790  25.964  23.782   1.457
56065W        W27791  37.327  18.726   3.582
56066W        W27792  12.804   0.583  12.741
56067W        W27793  10.826  19.211   0.193
56068W        W27794  37.096  38.448   3.212
56069W        W27795  15.260  10.647  10.556
56070W        W27796   6.257  22.766  13.415
56071W        W27797  12.706  11.910   0.295
56072W        W27798  43.466   2.878   1.662
56073W        W27799  39.362  32.360  11.236
56074W        W27800  11.073   8.834   3.378
56075W        W27801  32.639  31.600   2.423
56076W        W27802  22.769  35.445   1.720
56077W        W27803  32.953   3.250   0.497
56078W        W27804   2.964  43.839   4.369
56079W        W27805   5.893  12.335   4.877
56080W        W27806  10.870  30.516  10.684
56081W        W27807  35.641   2.871  14.769
56082W        W27808   1.238  15.280  14.875
56083W        W27809  37.644   4.640   4.931
56084W        W27810  11.415  17.744  13.940
56085W        W27811  11.065  23.248   1.802
56086W        W27812  43.302  16.710   2.714
56087W        W27813   0.969  21.214   2.942
56088W        W27814   5.458  26.531  12.618
56089W        W27815   8.856   8.933  14.858
56090W        W27816  31.441   4.746  14.956
56091W        W27817  39.824   6.928   4.169
56092W        W27818   1.981  20.624   1.290
56093W        W27819  24.091  43.780   2.220
56094W        W27820  27.412  42.335  13.353
56095W        W27821  10.382   5.279  12.027
56096W        W27822  30.417  10.823  11.033
56097W        W27823  39.304   8.767   2.449
56098W        W27824  10.107   7.355  11.526
56099W        W27825  26.051   7.206  12.345
56100W        W27826   4.234  22.276   2.290
56101W        W27827  14.572   0.404   3.373
56102W        W27828  30.287   0.276   4.834
56103W        W27829  23.663  10.174  11.168
56104W        W27830  35.833  21.337  12.856
56105W        W27831  38.421   8.824   1.826
56106W        W27832  44.610   4.250   1.171
56107W        W27833  25.705  20.767   2.309
56108W        W27834  44.014  36.845  13.309
56109W        W27835  39.924  27.898  14.881
56110W        W27836  11.764   5.744  12.120
56111W        W27837  15.774  33.161   0.427
56112W        W27838  28.452  37.104   2.272
56113W        W27839  15.148  31.153   1.362
56114W        W27840  30.899  27.161   9.622
56115W        W27841  33.900  18.803  14.356
56116W        W27842  14.735  39.274   4.621
56117W        W27843  41.026  11.132  12.939
56118W        W27844  27.958  42.826   3.001
56119W        W27845  17.254  24.529  14.698
56120W        W27846   0.057  25.164   2.694
56121W        W27847  31.144  13.813  14.970
56122W        W27848  24.091  13.550  11.166
56123W        W27849  15.038  14.293  10.156
56124W        W27850  37.494  17.596  10.788
56125W        W27851  24.698   7.800  14.967
56126W        W27852  34.890  43.891  13.380
56127W        W27853  17.099  31.042  10.567
56128W        W27854  16.987   0.418   1.330
56129W        W27855  12.922  44.951  14.515
56130W        W27856  30.760  33.896  13.273
56131W        W27857  38.022  20.471  13.046
56132W        W27858   3.882  11.613  14.711
56133W        W27859  25.983  17.586   0.794
56134W        W27860  42.015  23.583   1.422
56135W        W27861   0.744  26.609   4.205
56136W        W27862  18.156  29.921   4.658
56137W        W27863  11.421  18.913   2.247
56138W        W27864  16.989   6.698  11.925
56139W        W27865  18.811  20.930   4.252
56140W        W27866  41.275  18.633  10.707
56141W        W27867  21.044  12.691  14.777
56142W        W27868  38.103   3.678   5.003
56143W        W27869  20.000  14.397   4.391
56144W        W27870  24.201  37.897  11.105
56145W        W27871   0.484  31.382  12.299
56146W        W27872  10.270  35.006   0.512
56147W        W27873  23.971  43.938   0.756
56148W        W27874   6.956  20.228  11.534
56149W        W27875  44.845  18.535  14.876
56150W        W27876  38.231   6.196  12.904
56151W        W27877  11.632   7.460   2.243
56152W        W27878   3.149  32.858  11.556
56153W        W27879   9.285  12.588   2.310
56154W        W27880   5.818  22.739  12.886
56155W        W27881   0.849  28.608  12.805
56156W        W27882  41.999  13.642  14.814
56157W        W27883  39.982  37.914  14.500
56158W        W27884  16.657  16.795  10.842
56159W        W27885  44.255  36.266   4.087
56160W        W27886  40.849  18.639   2.944
56161W        W27887  28.619  25.269  13.489
56162W        W27888  11.858  39.920   1.748
56163W        W27889  31.761  10.226   2.491
56164W        W27890   6.963   8.109  12.420
56165W        W27891  23.983  38.331   4.092
56166W        W27892  16.296  32.515   1.455
56167W        W27893  29.032  34.007  14.101
56168W        W27894  18.012  32.534  12.904
56169W        W27895  11.427  43.847   1.288
56170W        W27896   5.765  26.523   4.798
56171W        W27897   6.689  11.710   2.686
56172W        W27898  11.610  11.310   0.644
56173W        W27899  16.389  23.288  11.701
56174W        W27900  18.509  35.976   1.890
56175W        W27901  43.969  34.411  10.373
56176W        W27902  32.450   8.310  11.175
56177W        W27903  42.433  34.119   1.291
56178W        W27904  41.972  28.999  13.342
56179W        W27905  38.347  14.969  12.078
56180W        W27906  13.589  43.994   4.169
56181W        W27907   1.798  28.483   1.517
56182W        W27908  20.124  44.920   1.759
56183W        W27909  20.169  33.446  12.979
56184W        W27910  19.087  44.195   2.823
56185W        W27911   7.953  26.246  12.936
56186W        W27912   7.328  32.123  13.971
56187W        W27913  23.757  42.959   4.906
56188W        W27914   6.069  29.632  14.755
56189W        W27915  39.871  22.631   2.459
56190W        W27916  10.196  24.489   1.416
56191W        W27917   0.782  16.450   2.328
56192W        W27918  24.139   0.767  13.267
56193W        W27919   2.029  20.752   0.383
56194W        W27920   4.782  14.072   1.758
56195W        W27921  27.945  38.971   2.006
56196W        W27922  15.663  14.611   1.181
56197W        W27923  23.155  11.832  11.988
56198W        W27924  30.459  31.407   4.761
56199W        W27925  40.930  21.648  10.777
56200W        W27926  34.903  15.064   0.307
56201W        W27927  18.697  25.191  13.473
56202W        W27928  12.050  25.468  10.691
56203W        W27929  21.076  12.937  13.500
56204W        W27930  20.996  35.498  14.319
56205W        W27931  37.096  28.171   2.798
56206W        W27932   1.905  20.313  12.116
56207W        W27933  36.778   6.710   2.264
56208W        W27934   0.979  35.466  14.744
56209W        W27935  34.373   1.281   2.653
56210W        W27936  34.314  44.515  14.377
56211W        W27937   1.031  30.481   3.234
56212W        W27938   1.338  36.883   0.494
56213W        W27939  11.315   0.994  13.930
56214W        W27940  24.187  27.672   3.544
56215W        W27941  24.653  36.798   4.745
56216W        W27942  15.813  29.236  14.910
56217W        W27943  17.066  20.048   2.802
56218W        W27944  33.450  33.022  11.013
56219W        W27945  11.226  20.252   0.560
56220W        W27946  44.514  41.875   2.261
56221W        W27947  26.225  35.960  11.931
56222W        W27948  10.936  38.421   3.270
56223W        W27949  25.171  10.610  14.956
56224W        W27950   2.795   7.316   3.475
56225W        W27951   9.784  23.532  10.444
56226W        W27952  18.213   0.317   3.815
56227W        W27953  15.517  38.813   2.410
56228W        W27954  13.292  10.901   2.766
56229W        W27955  19.120  17.479   3.282
56230W        W27956   0.601   6.971  13.076
56231W        W27957   5.644  35.146   3.641
56232W        W27958  38.950  33.302   0.680
56233W        W27959  31.601  23.684   2.774
56234W        W27960  37.527  11.226   2.191
56235W        W27961  11.945   3.505   1.792
56236W        W27962  42.087  44.813  13.942
56237W        W27963   9.924  27.747  14.216
56238W        W27964   5.228   8.823   2.342
56239W        W27965  23.752  32.636  13.493
56240W        W27966  16.999  32.070   0.879
56241W        W27967  23.563  34.780   1.165
56242W        W27968  19.960  31.083   2.701
56243W        W27969   8.207  19.577   4.110
56244W        W27970  25.059  28.697   3.858
56245W        W27971  38.054  24.577   0.489
56246W        W27972  29.770  32.086   3.775
56247W        W27973   1.538  20.172   1.712
56248W        W27974   1.811  28.617  13.802
56249W        W27975  30.176   8.315  12.629
56250W        W27976  41.364  31.032   2.887
56251W        W27977  10.098  31.605  13.062
56252W        W27978  42.666  25.952   0.197
56253W        W27979  15.351  21.306  14.871
56254W        W27980   9.333  32.277  14.782
56255W        W27981   8.421  40.375   4.925
56256W        W27982  12.409  12.066   1.156
56257W        W27983  30.727  43.364   4.964
56258W        W27984   9.703  17.878   1.823
56259W        W27985  16.391  12.363   1.482
56260W        W27986  19.270  15.444   2.244
56261W        W27987  27.133  29.192   4.930
56262W        W27988  12.617  32.930   3.251
56263W        W27989   7.244  13.230   4.472
56264W        W27990  20.555   4.771  13.281
56265W        W27991  44.838   0.370   3.349
56266W        W27992  36.851  44.391  10.524
56267W        W27993   9.622  35.040   1.399
56268W        W27994  16.807  35.517   2.337
56269W        W27995  17.847  44.971  11.155
56270W        W27996  42.352  23.229   1.042
56271W        W27997  21.013  40.573   0.090
56272W        W27998   3.979  22.628   1.465
56273W        W27999  18.367   1.568   1.690
56274W        W28000  22.597   0.785  10.705
56275W        W28001   5.651  43.816   4.249
56276W        W28002  44.818  16.419   2.501
56277W        W28003  18.240  12.694  12.610
56278W        W28004  12.264  20.808  10.688
56279W        W28005  14.912  25.803   0.427
56280W        W28006   2.333  25.929  12.986
56281W        W28007  16.504   2.699   4.671
56282W        W28008   3.872  34.768  13.365
56283W        W28009   3.217  19.746   4.143
56284W        W28010  11.872   6.936   0.474
56285W        W28011   3.333  33.125  11.158
56286W        W28012  24.658  40.276  13.846
56287W        W28013  32.595  30.934   1.304
56288W        W28014  20.008  35.003  12.876
56289W        W28015   9.769  20.719  14.845
56290W        W28016   9.162  17.964   1.020
56291W        W28017  18.001   7.880  13.031
56292W        W28018   9.350  44.401  10.726
56293W        W28019  28.548  20.784   4.175
56294W        W28020  30.100  27.770   0.974
56295W        W28021  13.196  37.220  11.858
56296W        W28022  19.308  35.427   4.189
56297W        W28023  12.389   4.395   4.058
56298W        W28024  32.600  33.510   1.442
56299W        W28025  43.920  20.233   4.491
56300W        W28026  13.312  18.309   4.724
56301W        W28027  25.514  28.165   0.805
56302W        W28028  12.229  44.165  10.758
56303W        W28029  44.279  41.964  13.584
56304W        W28030  18.313  40.076  11.127
56305W        W28031  16.321   7.611   1.076
56306W        W28032  18.568  36.132   3.473
56307W        W28033  15.555   7.943  12.014
56308W        W28034  20.646   5.227  11.227
56309W        W28035   3.929  36.592  13.929
56310W        W28036  25.584  34.085  12.864
56311W        W28037  38.477  19.876  11.879
56312W        W28038  40.100  18.674   4.662
56313W        W28039  12.137   2.902   4.107
56314W        W28040  21.741  18.826   1.459
56315W        W28041   5.998  27.639  14.271
56316W        W28042   9.031  25.340  14.802
56317W        W28043  36.889  20.829  12.072
56318W        W28044  10.680  37.023   1.672
56319W        W28045  36.976   3.234  11.546
56320W        W28046  26.680   6.804  10.715
56321W        W28047  19.010   4.845   0.545
56322W        W28048  23.317  28.937   0.227
56323W        W28049  43.521   4.550   3.239
56324W        W28050  30.438  32.573   3.337
56325W        W28051   0.525  25.494  12.498
56326W        W28052  29.713  15.568   1.222
56327W        W28053  25.088  29.066   4.260
56328W        W28054  18.219  40.703  14.819
56329W        W28055  19.748  34.998  14.783
56330W        W28056  14.286   5.893  14.435
56331W        W28057  16.264   5.692  12.344
56332W        W28058  44.540  10.332   4.314
56333W        W28059  12.182  29.586   1.712
56334W        W28060  37.890  10.236  10.698
56335W        W28061   9.936   7.099  13.560
56336W        W28062   9.319  32.519  13.742
56337W        W28063   2.893  31.595   3.120
56338W        W28064   5.263  40.739  12.403
56339W        W28065   7.641  41.996   0.865
56340W        W28066   2.137  39.339  12.915
56341W        W28067  20.208   9.590   4.431
56342W        W28068  44.510  23.968   1.856
56343W        W28069  25.439   6.012  14.897
56344W        W28070  24.211  39.456   2.255
56345W        W28071  37.862  11.688  14.921
56346W        W28072   6.643  28.970  14.024
56347W        W28073   1.740   9.858   2.805
56348W        W28074  36.937  25.616   4.624
56349W        W28075  24.364  27.591   4.669
56350W        W28076  12.735  17.550   2.563
56351W        W28077  25.786  35.539  10.936
56352W        W28078  31.014  12.356  14.478
56353W        W28079  25.211  16.131  14.582
56354W        W28080   0.875  13.094   1.896
56355W        W28081   4.009  41.815   1.449
56356W        W28082  41.234   2.970   2.908
56357W        W28083  25.914  17.074  11.424
56358W        W28084  43.871  32.662   2.066
56359W        W28085  38.373  25.953   1.754
56360W        W28086  19.141  10.375  14.662
56361W        W28087  17.752  36.330  13.088
56362W        W28088  44.007  16.949   3.280
56363W        W28089   2.554  32.823  10.801
56364W        W28090   9.863   4.845   2.254
56365W        W28091  25.500  26.184   0.506
56366W        W28092  12.131  22.085  14.787
56367W        W28093  33.793  19.941   2.594
56368W        W28094  42.280  27.349   4.982
56369W        W28095   5.898  44.407  12.856
56370W        W28096   4.188  32.093   2.704
56371W        W28097  44.671  40.920   3.288
56372W        W28098  12.268  25.079   2.016
56373W        W28099  13.254  34.836   4.685
56374W        W28100  28.298  27.479  11.368
56375W        W28101   3.309   9.750  11.558
56376W        W28102  10.198   6.194  11.981
56377W        W28103  26.670  32.935   2.736
56378W        W28104   2.830  35.546   3.380
56379W        W28105  44.996  37.978   0.399
56380W        W28106   3.975  14.935   0.252
56381W        W28107  15.599  40.916  14.049
56382W        W28108  24.293  22.159  12.405
56383W        W28109  11.748   6.257   5.565
56384W        W28110  18.930  25.664  12.545
56385W        W28111  25.726   8.691  11.988
56386W        W28112  40.932   3.225   3.278
56387W        W28113  18.241  35.936   1.338
56388W        W28114  23.943  42.594   4.588
56389W        W28115  23.557   5.868   2.803
56390W        W28116  15.039  36.012  11.602
56391W        W28117  13.360  33.345   3.027
56392W        W28118  28.549  17.020  11.830
56393W        W28119  32.008  19.589  14.908
56394W        W28120  31.612   2.573  13.503
56395W        W28121  17.353  23.656   1.498
56396W        W28122  44.248  11.330  12.527
56397W        W28123   8.710   3.705  14.794
56398W        W28124  22.319   3.652   1.354
56399W        W28125  43.554  22.040  14.467
56400W        W28126  14.125   0.179   3.220
56401W        W28127  18.795   9.455  13.335
56402W        W28128  41.472  11.159  11.152
56403W        W28129  32.975  44.419  11.939
56404W        W28130  22.079  38.009   3.127
56405W        W28131   5.888   4.838  11.263
56406W        W28132   8.115  29.020  10.465
56407W        W28133   5.258  25.553  11.958
56408W        W28134  14.304  20.145  11.467
56409W        W28135  25.783  27.431   1.859
56410W        W28136  35.800  24.123   3.893
56411W        W28137  21.612  42.338  11.493
56412W        W28138   8.203  32.924  11.233
56413W        W28139  19.204  23.478   4.460
56414W        W28140  40.649  17.129   0.311
56415W        W28141  29.216  35.104  10.574
56416W        W28142   5.660   9.697  14.972
56417W        W28143  39.821  26.979  12.897
56418W        W28144  37.523  10.856  12.777
56419W        W28145  13.339  30.845  10.575
56420W        W28146   2.889  19.474   2.874
56421W        W28147   2.157  29.954  12.428
56422W        W28148   6.930  20.996   4.224
56423W        W28149  18.439  30.558   2.285
56424W        W28150  34.820  14.649  14.980
56425W        W28151  21.089  34.492   1.038
56426W        W28152  33.056  29.739   0.845
56427W        W28153  25.946  26.232  11.458
56428W        W28154  29.435  29.963  13.718
56429W        W28155  34.501  11.926  14.382
56430W        W28156  11.289  36.092  10.404
56431W        W28157  20.152  29.112   2.418
56432W        W28158  31.737  14.067   0.379
56433W        W28159  26.756  23.296   5.092
56434W        W28160  27.420  15.732  11.223
56435W        W28161  13.628  34.025  11.628
56436W        W28162   8.698  12.637  11.725
56437W        W28163  29.909   1.686   4.417
56438W        W28164  17.239  37.334   4.093
56439W        W28165  31.585  32.188  13.422
56440W        W28166   6.929  23.114   0.038
56441W        W28167   6.144  44.317   3.783
56442W        W28168  14.757   6.508  10.353
56443W        W28169  32.073  24.938  14.427
56444W        W28170  10.323  31.002   1.228
56445W        W28171  30.573  21.532   0.282
56446W        W28172  19.632  19.151  13.813
56447W        W28173  33.463   9.249   0.548
56448W        W28174   0.080  15.321  13.259
56449W        W28175   8.188  33.097   4.128
56450W        W28176  11.764  18.145   1.741
56451W        W28177  35.513  21.643   4.604
56452W        W28178  12.611  23.815   3.366
56453W        W28179  33.002  39.874   3.270
56454W        W28180  19.209  23.053   4.152
56455W        W28181  35.518  40.253   1.596
56456W        W28182  35.067  22.696   2.795
56457W        W28183  43.932  11.066  12.888
56458W        W28184  40.262   3.244  13.693
56459W        W28185  17.763  19.185  13.104
56460W        W28186  24.007   6.157   0.773
56461W        W28187   7.479  44.019   0.525
56462W        W28188   1.764  20.808   1.764
56463W        W28189   6.651  44.765  13.891
56464W        W28190  35.974  38.447  12.538
56465W        W28191  34.085  12.754   1.761
56466W        W28192  43.466  36.610  13.777
56467W        W28193  12.138  18.800  14.744
56468W        W28194  16.007  15.317   0.049
56469W        W28195  10.863  24.296   3.360
56470W        W28196   2.952  22.631  10.783
56471W        W28197  27.486  42.910   2.290
56472W        W28198  20.831   2.424   3.718
56473W        W28199  39.313  24.028   1.816
56474W        W28200  19.169  38.735   1.325
56475W        W28201  23.113  35.083   1.896
56476W        W28202  23.119  41.272   4.229
56477W        W28203   8.844  15.572  14.019
56478W        W28204  41.276  35.325  13.930
56479W        W28205  41.322   5.999  12.136
56480W        W28206  43.990  37.946   0.271
56481W        W28207  25.173  30.571   1.012
56482W        W28208   6.292  40.690  14.473
56483W        W28209  41.444  33.604  10.656
56484W        W28210  20.587   9.474  11.594
56485W        W28211  31.366  35.440   0.252
56486W        W28212  38.404   8.509  11.940
56487W        W28213  22.498  34.162  14.010
56488W        W28214   1.444  23.569  14.866
56489W        W28215   2.322   7.898  11.147
56490W        W28216  40.907  13.515   2.467
56491W        W28217  14.883  33.356   3.112
56492W        W28218  27.427  25.147  12.001
56493W        W28219  13.769  33.268   1.804
56494W        W28220  20.172  21.137   1.212
56495W        W28221  31.221  12.098  12.134
56496W        W28222  33.579  28.202  10.178
56497W        W28223  11.404  26.637  10.382
56498W        W28224   0.239  19.134  12.900
56499W        W28225  16.732  11.349  11.798
56500W        W28226   6.844  14.106   1.778
56501W        W28227  14.283  25.568   1.857
56502W        W28228  21.618  32.906  10.558
56503W        W28229   8.321  38.103   3.603
56504W        W28230  42.804  27.742   0.848
56505W        W28231  37.669  16.572   2.340
56506W        W28232  39.287  42.296  11.172
56507W        W28233  23.817  37.978   1.932
56508W        W28234  30.691  28.605   3.712
56509W        W28235  41.729   3.236   1.833
56510W        W28236  12.283  16.273   3.713
56511W        W28237  16.803  33.662  13.821
56512W        W28238   1.336  16.237  14.440
56513W        W28239  34.926  23.267   2.713
56514W        W28240  18.994  35.297  11.117
56515W        W28241  24.512  29.573  11.532
56516W        W28242   3.319  14.324   1.711
56517W        W28243  11.377  38.441   1.820
56518W        W28244  38.771  34.086   0.310
56519W        W28245  34.922   0.748  12.888
56520W        W28246  20.170  19.787   2.386
56521W        W28247  44.936  10.701   0.262
56522W        W28248  28.901   5.451   3.709
56523W        W28249   9.241  32.117   2.866
56524W        W28250  32.627   8.175   1.193
56525W        W28251  31.915  24.689   2.249
56526W        W28252  33.160  37.838   3.363
56527W        W28253  23.969  36.503   0.377
56528W        W28254  38.383  12.612   4.637
56529W        W28255  13.265  44.754   1.485
56530W        W28256   5.987  40.485  11.120
56531W        W28257  42.889  36.891   2.702
56532W        W28258  26.153  13.337   0.509
56533W        W28259   0.379  30.534   4.333
56534W        W28260   3.027  24.501  14.178
56535W        W28261  38.301   9.061   3.725
56536W        W28262  27.906  29.828  14.969
56537W        W28263  24.059  23.386  14.269
56538W        W28264  41.218  21.773   3.759
56539W        W28265  18.747  32.934  13.900
56540W        W28266  23.997  12.593   2.079
56541W        W28267  14.562  43.113   1.246
56542W        W28268  27.588  12.355   0.777
56543W        W28269   0.743  32.412  13.796
56544W        W28270   6.792  11.575  14.716
56545W        W28271  17.314  36.399   0.782
56546W        W28272  31.783   3.624  14.373
56547W        W28273   2.030  21.731   2.082
56548W        W28274  17.907  15.754   4.845
56549W        W28275  18.091  14.641   0.843
56550W        W28276  29.641  40.013  13.275
56551W        W28277  13.285  44.912   1.994
56552W        W28278   7.212  15.756  12.406
56553W        W28279   9.961  31.053  10.815
56554W        W28280  14.208  36.052  10.556
56555W        W28281  28.999  17.282  10.386
56556W        W28282   4.348   2.685  13.614
56557W        W28283  26.450  41.396  13.763
56558W        W28284  11.363  37.402   4.096
56559W        W28285  28.636  16.184   1.507
56560W        W28286  13.138   1.378  12.224
56561W        W28287   7.109  32.649   2.767
56562W        W28288   3.764  44.365   4.486
56563W        W28289  34.296  17.248  11.655
56564W        W28290  44.550  21.604  11.173
56565W        W28291  44.940  18.282   2.768
56566W        W28292  25.510   4.705   1.690
56567W        W28293  34.143  31.635   1.440
56568W        W28294   7.890  10.456  14.728
56569W        W28295  43.390  40.850   4.884
56570W        W28296   0.868   7.681   2.321
56571W        W28297  17.846  27.492   4.482
56572W        W28298   9.236  15.837   2.850
56573W        W28299  31.399  30.149  12.453
56574W        W28300  19.151  29.235  13.308
56575W        W28301   8.843  21.780   4.892
56576W        W28302   4.685  41.605  14.575
56577W        W28303  20.851  14.960   5.091
56578W        W28304  38.418   6.688   0.746
56579W        W28305  22.684  34.843  11.595
56580W        W28306  19.540  42.746  11.499
56581W        W28307   5.493  12.807   1.384
56582W        W28308  20.958  14.581   2.787
56583W        W28309  21.489  41.040   2.935
56584W        W28310   3.033   4.176   2.147
56585W        W28311  28.823  17.713  11.535
56586W        W28312   1.298   4.900  10.420
56587W        W28313   5.979   3.212  13.791
56588W        W28314  36.936  31.585  14.416
56589W        W28315  36.885  34.331   1.243
56590W        W28316  23.599   0.896   4.050
56591W        W28317  21.133  27.891   2.262
56592W        W28318  10.826  28.872   2.523
56593W        W28319  17.630  25.954  14.906
56594W        W28320  15.278  15.722  12.306
56595W        W28321   7.186   6.201  13.713
56596W        W28322  11.981  43.376   3.969
56597W        W28323  31.916  18.118   1.425
56598W        W28324   1.787  41.947   4.016
56599W        W28325   7.724  40.552   4.106
56600W        W28326  32.394  27.948  14.247
56601W        W28327  34.889  39.558   3.171
56602W        W28328  43.218  33.491  13.402
56603W        W28329  30.647  12.878   4.542
56604W        W28330  16.354  27.637   0.913
56605W        W28331  19.158  27.626  12.349
56606W        W28332  43.454  24.164  11.148
56607W        W28333  11.873  29.134  13.036
56608W        W28334  43.202  32.945   2.316
56609W        W28335  16.960  38.148  10.952
56610W        W28336  29.522  19.666   2.386
56611W        W28337  44.221  10.719   4.416
56612W        W28338  10.890  43.689  11.139
56613W        W28339  21.860  33.031   4.662
56614W        W28340  17.042  25.525  14.430
56615W        W28341  11.242  41.873   3.851
56616W        W28342  35.333  35.446   4.103
56617W        W28343  27.648  41.087  11.056
56618W        W28344  26.043   2.436  11.110
56619W        W28345  41.428  21.082  12.351
56620W        W28346   8.315  18.607   2.594
56621W        W28347  14.421  38.130   0.987
56622W        W28348   0.229   1.876   3.157
56623W        W28349  13.790  14.722  13.845
56624W        W28350  11.163  12.790   0.329
56625W        W28351  37.326  25.552   1.699
56626W        W28352   5.178  18.661   1.988
56627W        W28353  36.385  35.526   1.137
56628W        W28354   7.576   6.355   1.298
56629W        W28355  19.100  34.197  14.919
56630W        W28356   9.229  20.650   1.631
56631W        W28357  31.983  25.142  13.928
56632W        W28358   8.940  38.555  13.325
56633W        W28359  35.066  28.034  13.432
56634W        W28360   5.034  10.843   4.665
56635W        W28361  35.048   5.108   1.648
56636W        W28362  25.498  14.525  11.966
56637W        W28363  20.988   8.134  11.970
56638W        W28364  16.293   2.229   0.367
56639W        W28365  41.505  38.725   4.687
56640W        W28366  41.992  44.883  12.459
56641W        W28367   1.225  33.048   3.313
56642W        W28368  28.943  14.195  10.899
56643W        W28369  23.262  12.655  12.377
56644W        W28370   3.993  40.537   0.757
56645W        W28371   2.983   9.703  12.436
56646W        W28372   8.170  42.930  14.796
56647W        W28373  36.202   2.485   1.861
56648W        W28374   4.971  13.099  14.010
56649W        W28375   8.861  34.903  11.619
56650W        W28376  29.509   5.271  12.155
56651W        W28377  40.042  21.186  13.546
56652W        W28378   8.436  27.239   4.078
56653W        W28379  36.646  40.348  14.804
56654W        W28380  31.909  40.867  14.273
56655W        W28381  32.111  23.911  11.060
56656W        W28382  20.059   2.897   4.573
56657W        W28383  44.447  43.026   0.906
56658W        W28384  35.605  21.482   1.474
56659W        W28385  41.060   4.099  14.764
56660W        W28386   7.615   8.494  10.344
56661W        W28387  27.931  22.822  14.000
56662W        W28388   9.222  24.721   4.587
56663W        W28389  26.576  17.696   1.321
56664W        W28390   6.859  25.988   0.436
56665W        W28391  42.397  12.167  10.751
56666W        W28392  34.985  21.237  14.405
56667W        W28393  34.007  11.173  14.355
56668W        W28394  29.877  16.936  14.286
56669W        W28395   0.895  12.726   3.880
56670W        W28396  15.583   7.776   2.098
56671W        W28397  35.641  42.774  13.858
56672W        W28398  36.819   1.358  14.994
56673W        W28399   8.180  11.871   4.309
56674W        W28400  35.001  12.102   0.158
56675W        W28401  30.094  12.100   0.461
56676W        W28402  20.499  10.123   0.706
56677W        W28403  22.116   0.543  13.396
56678W        W28404  41.531  13.906   2.965
56679W        W28405  23.644  19.555  13.949
56680W        W28406  27.128  33.346  11.561
56681W        W28407  18.871  18.775   3.111
56682W        W28408   3.295  31.379   4.519
56683W        W28409   6.897   7.187  10.645
56684W        W28410  19.278  37.091  14.866
56685W        W28411   8.655   2.879  14.308
56686W        W28412   0.103  24.641   3.764
56687W        W28413   6.183  21.162   5.411
56688W        W28414  25.233   8.544  13.764
56689W        W28415   7.442   5.339  12.536
56690W        W28416  23.156  38.489   4.541
56691W        W28417  19.477  23.722   2.634
56692W        W28418   6.740  28.116  14.011
56693W        W28419   5.361  21.468   2.344
56694W        W28420  31.067  25.697   4.147
56695W        W28421  44.934  43.029   3.175
56696W        W28422  33.583  41.638   2.721
56697W        W28423   0.278   9.834  14.359
56698W        W28424  31.227  20.356  12.569
56699W        W28425  26.030  42.064   3.129
56700W        W28426  26.674  11.329   3.331
56701W        W28427   7.413  37.640  11.648
56702W        W28428  38.959  34.955   4.876
56703W        W28429  43.699  12.200  11.773
56704W        W28430  30.739  20.220  12.535
56705W        W28431  19.572   0.363   0.921
56706W        W28432  10.398  23.228  12.094
56707W        W28433  12.189  22.587  13.483
56708W        W28434  33.337   5.294   3.286
56709W        W28435  29.961  39.348  11.689
56710W        W28436  10.632  17.025  14.514
56711W        W28437   4.261   2.335  11.450
56712W        W28438   6.253  35.690   1.308
56713W        W28439  21.013  20.917   1.162
56714W        W28440  23.948   0.949  14.279
56715W        W28441  37.326  29.108   2.217
56716W        W28442  34.902  35.498   4.424
56717W        W28443  44.206  21.266  11.331
56718W        W28444  23.147  39.461  10.606
56719W        W28445  23.188  12.393  13.462
56720W        W28446  25.437  42.884  12.052
56721W        W28447  32.904   9.795  13.933
56722W        W28448  41.529  43.940   2.035
56723W        W28449  26.107   4.794  14.922
56724W        W28450  14.109  23.458  11.516
56725W        W28451  21.075   3.722  13.738
56726W        W28452   4.319  22.730  13.209
56727W        W28453  34.908  30.208  13.604
56728W        W28454  26.099  43.636  12.429
56729W        W28455  14.542   6.753   3.051
56730W        W28456  28.549   7.729  13.227
56731W        W28457   2.333  26.634   1.623
56732W        W28458  38.756  22.526  12.044
56733W        W28459  30.108  21.667  11.200
56734W        W28460  10.384  34.490   3.634
56735W        W28461  17.419  42.541  12.489
56736W        W28462  13.014  27.513   0.282
56737W        W28463  31.691  38.180  11.545
56738W        W28464  12.799  17.287  13.012
56739W        W28465  12.531  14.136   2.619
56740W        W28466   6.478  14.612   0.486
56741W        W28467  40.905  42.115   3.624
56742W        W28468  12.072  26.179   3.225
56743W        W28469   3.619  31.671  11.954
56744W        W28470  32.382  20.570   4.765
56745W        W28471  36.899   4.656  11.965
56746W        W28472  18.743  29.952  12.847
56747W        W28473  38.298  19.519   1.661
56748W        W28474  24.815   2.120  11.974
56749W        W28475  34.483  13.756   2.332
56750W        W28476  17.051   1.951   3.650
56751W        W28477  31.541  41.570   5.066
56752W        W28478  41.688   6.500   1.348
56753W        W28479  19.661  25.453  13.784
56754W        W28480  41.559  44.388   4.629
56755W        W28481  37.896  35.458  14.848
56756W        W28482  27.324  22.752   2.329
56757W        W28483   1.902  30.595  14.841
56758W        W28484  24.788   1.192  10.294
56759W        W28485  26.137  25.742  13.307
56760W        W28486   6.444  28.708   4.092
56761W        W28487  19.003  31.561  14.260
56762W        W28488   6.584  44.933  12.619
56763W        W28489  36.344   1.394   2.266
56764W        W28490  20.649  42.282  13.458
56765W        W28491  20.585  22.198  12.454
56766W        W28492   6.305  28.929  13.126
56767W        W28493  38.515   0.276  11.655
56768W        W28494  17.098  40.859   3.947
56769W        W28495   5.725  23.572   1.243
56770W        W28496   7.786  27.520   4.621
56771W        W28497  18.828  24.269  12.467
56772W        W28498  44.672  17.648  11.938
56773W        W28499  13.364  40.952   3.614
56774W        W28500  15.792   7.699   1.192
56775W        W28501  40.053  14.767  11.173
56776W        W28502  38.870   8.610  12.167
56777W        W28503  27.078   2.957  11.064
56778W        W28504  39.914   5.826  11.457
56779W        W28505   9.107  30.689   4.184
56780W        W28506  14.301  17.049  11.542
56781W        W28507   1.998  35.976  12.049
56782W        W28508  20.252  31.452  12.457
56783W        W28509  23.923  37.807   4.074
56784W        W28510  24.701  34.477   4.058
56785W        W28511  25.785  42.794   5.230
56786W        W28512   1.204  40.759  14.370
56787W        W28513   8.697  20.340   4.115
56788W        W28514  42.064  33.385   1.179
56789W        W28515  36.934  44.214   4.521
56790W        W28516  35.162  11.183   3.710
56791W        W28517  17.688  16.538   4.352
56792W        W28518  25.336  22.599  13.355
56793W        W28519  10.395  36.795   1.268
56794W        W28520  38.498  31.900  10.391
56795W        W28521  44.006  14.872  10.806
56796W        W28522  39.792  16.726  11.564
56797W        W28523  27.586   7.962   2.883
56798W        W28524  29.183   1.251   1.323
56799W        W28525   4.184  17.756  12.228
56800W        W28526  36.529  10.080   2.432
56801W        W28527  43.854   8.881   1.045
56802W        W28528  15.191  39.126  10.665
56803W        W28529  25.654  13.280  12.863
56804W        W28530  17.850  24.066  12.451
56805W        W28531  18.222  24.680   0.043
56806W        W28532  34.447  31.000  11.136
56807W        W28533   8.289  30.828   0.339
56808W        W28534  29.302  27.458   4.109
56809W        W28535  22.293  35.855  14.294
56810W        W28536   5.426  19.997  14.425
56811W        W28537  39.323   7.613   1.924
56812W        W28538   6.910  14.851  10.186
56813W        W28539  27.110  44.069   0.404
56814W        W28540  25.116  22.632   0.225
56815W        W28541  37.289  26.181  12.574
56816W        W28542  32.921  37.415  10.617
56817W        W28543  43.928  19.751  11.163
56818W        W28544  11.020  38.112  14.932
56819W        W28545  26.163  20.251  11.070
56820W        W28546  20.655  10.723  12.437
56821W        W28547   4.653  37.790  13.979
56822W        W28548  26.026  31.157   0.851
56823W        W28549  12.277  20.696  13.054
56824W        W28550  35.584   0.413  11.175
56825W        W28551  13.254  10.695  12.356
56826W        W28552  43.924  31.935  10.983
56827W        W28553  25.971  14.834  11.172
56828W        W28554  36.447   7.650   0.393
56829W        W28555  18.789  10.243   4.119
56830W        W28556   1.387   0.913   5.095
56831W        W28557  36.134   8.434   0.688
56832W        W28558   9.851  33.829   2.723
56833W        W28559  10.813  12.192  13.358
56834W        W28560  14.737  34.982   0.386
56835W        W28561  15.329  44.756  14.517
56836W        W28562  40.804  31.346  10.647
56837W        W28563  13.865  11.255  14.449
56838W        W28564  19.175  10.287   2.298
56839W        W28565  29.913  28.088  14.899
56840W        W28566  20.180  43.756  10.612
56841W        W28567  41.706  40.821   2.863
56842W        W28568   3.403  28.477  11.538
56843W        W28569  27.669  14.178   3.145
56844W        W28570  35.391  41.428  11.421
56845W        W28571  16.064  24.677  13.894
56846W        W28572  40.826  31.362  14.537
56847W        W28573  36.314  26.252   4.221
56848W        W28574   7.086  15.875   3.702
56849W        W28575  35.138   8.126   4.298
56850W        W28576  41.316   3.588   4.117
56851W        W28577   5.910  20.644  13.799
56852W        W28578  42.699  11.681   2.723
56853W        W28579   4.421  35.271  14.829
56854W        W28580  33.347  30.022   4.133
56855W        W28581   7.918   6.834   4.973
56856W        W28582  11.526  13.802  13.028
56857W        W28583   8.625  23.766  11.707
56858W        W28584  33.930  10.179  13.627
56859W        W28585  32.073   2.397   3.003
56860W        W28586   2.519   6.309   2.417
56861W        W28587   0.344  20.004   4.203
56862W        W28588  40.059  22.750  13.521
56863W        W28589  27.540  25.077   0.303
56864W        W28590  30.418   4.681   2.027
56865W        W28591   8.397  21.945  13.903
56866W        W28592  32.859  25.262   2.184
56867W        W28593  43.924  40.829  13.528
56868W        W28594   0.872  32.666  12.808
56869W        W28595  41.849   7.244  13.483
56870W        W28596  18.389  35.854   0.348
56871W        W28597   8.359  42.861  12.345
56872W        W28598  34.065  23.923  11.412
56873W        W28599  26.899   4.826  12.945
56874W        W28600  42.994  39.253   0.766
56875W        W28601  25.181   6.638  11.226
56876W        W28602  23.751  22.727   1.845
56877W        W28603  42.820  11.643  14.926
56878W        W28604  16.008  12.779  13.366
56879W        W28605  32.094  23.170   1.227
56880W        W28606  43.296  36.088   9.809
56881W        W28607   1.547  14.201  12.457
56882W        W28608  35.979  15.125  12.034
56883W        W28609  17.231  41.348   3.669
56884W        W28610  36.036  11.298   3.216
56885W        W28611  43.869  38.494   0.513
56886W        W28612   4.710  13.785  11.934
56887W        W28613   7.257  28.557  12.211
56888W        W28614  29.413  28.603   2.292
56889W        W28615   6.211  19.729   1.399
56890W        W28616   8.105   5.325   4.581
56891W        W28617  21.630  21.616  11.438
56892W        W28618  11.097  16.079  14.816
56893W        W28619  26.258  44.709  10.642
56894W        W28620  29.123  15.539  10.666
56895W        W28621  18.709  25.714   1.462
56896W        W28622  37.826   0.090   4.872
56897W        W28623  28.488   1.742  13.253
56898W        W28624  30.442   6.340   3.171
56899W        W28625  12.688  40.769   2.311
56900W        W28626   8.393  21.640  14.316
56901W        W28627   6.954   2.453   2.649
56902W        W28628  18.719  42.718  14.503
56903W        W28629  10.332  35.603  14.887
56904W        W28630  43.500  16.647   1.746
56905W        W28631  17.782  12.950   2.370
56906W        W28632  18.221   0.823   3.854
56907W        W28633  35.788  33.489  13.584
56908W        W28634  34.389  29.113   4.204
56909W        W28635  38.168  31.942  14.990
56910W        W28636  14.814  40.047  11.574
56911W        W28637  27.649  35.113   2.682
56912W        W28638  39.938  33.546   0.016
56913W        W28639  36.369  43.727  12.491
56914W        W28640   4.089  31.102   2.838
56915W        W28641   9.455   0.651  12.776
56916W        W28642  11.349  19.518  13.277
56917W        W28643   8.107  38.641  12.468
56918W        W28644  17.150  28.292  12.802
56919W        W28645   9.651   2.620   0.831
56920W        W28646  31.023  24.405   3.879
56921W        W28647  16.991  13.217   1.394
56922W        W28648   7.779  43.309  14.327
56923W        W28649  28.862   1.778   3.081
56924W        W28650  13.164  28.549   4.490
56925W        W28651  12.408   9.873   3.264
56926W        W28652  19.570  28.525   4.108
56927W        W28653  42.415  39.349   3.513
56928W        W28654  44.798  29.668  10.706
56929W        W28655  41.260  36.582   0.905
56930W        W28656  40.906  36.390  10.580
56931W        W28657  44.843  29.303   1.358
56932W        W28658   0.932   7.740  13.824
56933W        W28659  24.831  42.983  11.659
56934W        W28660  32.383  16.184  10.681
56935W        W28661  13.605   3.818   4.723
56936W        W28662  38.596   2.279   4.650
56937W        W28663   3.911  16.550  11.615
56938W        W28664  43.933  11.130   2.761
56939W        W28665  43.798  41.007  11.410
56940W        W28666  40.838   0.257   4.460
56941W        W28667   1.942  38.322   3.626
56942W        W28668  12.065  12.932   1.286
56943W        W28669   8.385  29.065  11.799
56944W        W28670  32.341  37.265   1.603
56945W        W28671   6.211  27.985   2.617
56946W        W28672  22.118  15.039   9.648
56947W        W28673  25.755  13.879  10.623
56948W        W28674  44.907   0.254   0.531
56949W        W28675  38.361  32.966  13.601
56950W        W28676  22.238  15.186  14.813
56951W        W28677   4.531  34.200  12.982
56952W        W28678  21.130  14.308   2.214
56953W        W28679  19.160   2.468  12.355
56954W        W28680  29.111  17.225  14.034
56955W        W28681  35.217  19.277   2.962
56956W        W28682  31.124  39.442   0.955
56957W        W28683   8.671  21.513   1.518
56958W        W28684  28.067   5.830  10.289
56959W        W28685  36.848   0.245   1.949
56960W        W28686  38.049   3.238   0.795
56961W        W28687   1.907  23.530   4.564
56962W        W28688  26.358  13.280   4.306
56963W        W28689  24.112   4.478  14.494
56964W        W28690  37.139  23.895  13.058
56965W        W28691  32.870   5.017   0.785
56966W        W28692  12.315  32.605   4.125
56967W        W28693  39.163  31.516  12.600
56968W        W28694  42.451  39.137  11.037
56969W        W28695  19.484   3.774  13.337
56970W        W28696  42.532  10.646  13.828
56971W        W28697  41.834  17.548   0.947
56972W        W28698  27.395  44.284   3.382
56973W        W28699  44.255   5.630   3.838
56974W        W28700  41.556  40.639  11.670
56975W        W28701  31.019  28.981   2.242
56976W        W28702  12.806  36.065   2.149
56977W        W28703  44.778  16.395  10.449
56978W        W28704  35.799  37.486  14.036
56979W        W28705  41.563  31.499  13.993
56980W        W28706   7.616   3.954  13.075
56981W        W28707  28.022  34.294   1.926
56982W        W28708  33.189   0.733  12.131
56983W        W28709  32.114  26.568   1.801
56984W        W28710   6.750  31.672  11.218
56985W        W28711  36.850  36.582  13.881
56986W        W28712   2.563  34.344  11.534
56987W        W28713   8.653   4.382   4.085
56988W        W28714  20.158  41.288  13.208
56989W        W28715  38.933  18.756   2.768
56990W        W28716  22.481  37.884   2.840
56991W        W28717   6.801  17.333  12.187
56992W        W28718   7.681  21.788  14.911
56993W        W28719  28.794  20.118   3.702
56994W        W28720  37.513  11.337   0.848
56995W        W28721  27.242  25.309   3.806
56996W        W28722  36.931  26.560  11.543
56997W        W28723  25.393  36.400  14.954
56998W        W28724   7.393  41.861   1.323
56999W        W28725  43.903  12.100  13.275
57000W        W28726   2.702  35.571  14.490
57001W        W28727  44.380  11.025   1.865
57002W        W28728  39.896  34.337  12.511
57003W        W28729  24.441  16.360   0.348
57004W        W28730  16.548  13.099  12.488
57005W        W28731  37.439  40.809   2.479
57006W        W28732  41.035  12.077  11.026
57007W        W28733  36.174  29.998  14.210
57008W        W28734  28.917   0.117   3.660
57009W        W28735  21.662   8.596  12.693
57010W        W28736  27.209  20.588  13.869
57011W        W28737  29.108  16.300   1.889
57012W        W28738  15.299  19.196  10.705
57013W        W28739   3.493  37.524   2.177
57014W        W28740   4.674  35.776  12.613
57015W        W28741  20.026  33.963  10.492
57016W        W28742   5.736  16.288  11.228
57017W        W28743  12.270   6.437  13.629
57018W        W28744  37.873  17.984  10.786
57019W        W28745   2.432  19.034   4.144
57020W        W28746  24.982  35.659   0.238
57021W        W28747  28.597  10.430   4.130
57022W        W28748  27.122  42.387  12.369
57023W        W28749  41.586  26.524  11.576
57024W        W28750  33.608  27.089   4.102
57025W        W28751  29.154  29.391  14.661
57026W        W28752   4.520  39.312  13.062
57027W        W28753   7.669   5.111   2.466
57028W        W28754  34.447  10.874  14.415
57029W        W28755  19.658  23.125   3.881
57030W        W28756  43.961   3.685  13.475
57031W        W28757   9.357  21.956   4.885
57032W        W28758   2.797  30.744   3.826
57033W        W28759  13.622  31.873   3.794
57034W        W28760  24.562  18.760  11.860
57035W        W28761   9.768  21.969   4.555
57036W        W28762  32.029   1.995  11.609
57037W        W28763  30.687  13.537  14.759
57038W        W28764  44.338  38.440   3.498
57039W        W28765  11.083  42.523  13.909
57040W        W28766   1.904   1.270  12.820
57041W        W28767  24.472  13.773  11.543
57042W        W28768   0.652  35.862  10.241
57043W        W28769   9.649  15.538  12.012
57044W        W28770  37.849  27.293   1.896
57045W        W28771  43.078  42.579  14.528
57046W        W28772  33.778  42.314   5.214
57047W        W28773  26.455  19.787   1.704
57048W        W28774   7.052  39.734  11.237
57049W        W28775  22.602   2.908   4.049
57050W        W28776  35.303  26.188   1.443
57051W        W28777  41.517  18.634   1.718
57052W        W28778  41.285  22.431   1.365
57053W        W28779  17.534  41.030  13.366
57054W        W28780  24.826  11.689   4.576
57055W        W28781  21.356  36.476   1.756
57056W        W28782   5.378  14.635  12.079
57057W        W28783  31.986  27.291   3.226
57058W        W28784  44.368  33.573   3.625
57059W        W28785  31.240  22.783  10.002
57060W        W28786  29.639  27.954   0.513
57061W        W28787   1.717  44.473  12.455
57062W        W28788  26.826  43.774   4.729
57063W        W28789  42.803  16.707   4.875
57064W        W28790  20.145  43.101   1.470
57065W        W28791  17.554  26.777   1.330
57066W        W28792  37.622  19.630  12.788
57067W        W28793   2.013  40.430  13.813
57068W        W28794  16.153  15.574  13.363
57069W        W28795  18.671  20.811   2.612
57070W        W28796  12.213  43.537   0.725
57071W        W28797  32.054  26.910   2.783
57072W        W28798  26.949  37.585   4.834
57073W        W28799  30.366  25.256  13.008
57074W        W28800  44.254  12.053   1.742
57075W        W28801   1.782  32.868  14.120
57076W        W28802  12.087  23.500  11.981
57077W        W28803   0.794  32.145   4.627
57078W        W28804  37.853  12.315  14.404
57079W        W28805  16.821  43.365   4.686
57080W        W28806  16.079  25.428  13.527
57081W        W28807  24.730  32.155  12.133
57082W        W28808  31.870  31.885   0.247
57083W        W28809  10.212   9.537   4.682
57084W        W28810   5.437  12.059  14.990
57085W        W28811  24.102  39.887  13.023
57086W        W28812   6.360  12.261   0.111
57087W        W28813   8.874  10.896   4.278
57088W        W28814  15.719  34.689  13.090
57089W        W28815  35.431   0.202   4.797
57090W        W28816   1.809  11.408   5.066
57091W        W28817  26.262  42.236   2.241
57092W        W28818  15.631  25.251   0.555
57093W        W28819  22.463  19.731   4.614
57094W        W28820  16.122   0.033   2.205
57095W        W28821  15.594  37.621   4.370
57096W        W28822  42.704  36.881   0.696
57097W        W28823  31.847  39.437  14.002
57098W        W28824  29.534   6.500   3.124
57099W        W28825  32.119  42.781   4.118
57100W        W28826  17.300  41.961   1.836
57101W        W28827  32.039  23.238   9.825
57102W        W28828  27.388  13.495   1.777
57103W        W28829  25.303  34.935   0.783
57104W        W28830   6.450  36.576   2.034
57105W        W28831   9.278  34.490  10.380
57106W        W28832   4.298   4.596  13.389
57107W        W28833  11.408  21.040   4.195
57108W        W28834   1.307   5.940  14.397
57109W        W28835  12.178  35.687  10.704
57110W        W28836   9.868  42.000  14.548
57111W        W28837  22.584  28.358  11.616
57112W        W28838   6.417  26.937   4.719
57113W        W28839  34.209  37.070   0.690
57114W        W28840   5.426   0.442   3.277
57115W        W28841  22.542  43.754   1.136
57116W        W28842  43.238   5.742   1.145
57117W        W28843  15.336  26.680  10.023
57118W        W28844   2.398  17.892  10.032
57119W        W28845  23.650   5.320  14.379
57120W        W28846  15.189  35.784  12.941
57121W        W28847   6.627  22.737   1.852
57122W        W28848  17.411  40.073   3.706
57123W        W28849   8.869   3.247  13.986
57124W        W28850  40.538  27.475   3.220
57125W        W28851   7.877  35.343   5.465
57126W        W28852  12.240   4.536  12.552
57127W        W28853  26.663  22.227  10.751
57128W        W28854   4.857  42.324   2.802
57129W        W28855   6.256   5.306   0.973
57130W        W28856  33.471  29.613   0.007
57131W        W28857  17.269   8.325   0.430
57132W        W28858  22.905  41.767   3.491
57133W        W28859   5.381   0.196  13.863
57134W        W28860   0.633  16.510   4.522
57135W        W28861  18.843  38.681   3.621
57136W        W28862  32.200  23.074  12.039
57137W        W28863  22.535  26.948   0.818
57138W        W28864  35.266  31.812  13.968
57139W        W28865   8.918  14.203   4.118
57140W        W28866  36.459  28.223   3.130
57141W        W28867   2.269  11.505   2.339
57142W        W28868  41.575   1.971  12.027
57143W        W28869  33.439  16.729  12.532
57144W        W28870  11.720  41.398  10.787
57145W        W28871  22.627   3.162   1.351
57146W        W28872  11.093   4.432   4.782
57147W        W28873  31.011  12.914  14.239
57148W        W28874  44.498  30.643  14.396
57149W        W28875  23.211  10.167  12.672
57150W        W28876  16.129  24.941  11.297
57151W        W28877   6.378  12.882   2.433
57152W        W28878  23.811   5.949  12.497
57153W        W28879  19.172   3.986  11.992
57154W        W28880  15.515  39.941  14.001
57155W        W28881   2.844  16.853   0.951
57156W        W28882   4.445  33.431  11.538
57157W        W28883   1.836  41.068  11.996
57158W        W28884  32.616  43.060   0.055
57159W        W28885  20.093   8.222   1.931
57160W        W28886   2.834  16.078   2.839
57161W        W28887  20.365  18.659  11.456
57162W        W28888  15.588  26.137  11.596
57163W        W28889  26.503   2.948   4.610
57164W        W28890  43.900   6.847  10.796
57165W        W28891  23.897  41.628   4.510
57166W        W28892   6.857  15.227  10.661
57167W        W28893  33.881  30.475  13.897
57168W        W28894   3.832  32.389   4.694
57169W        W28895  42.863  42.276   2.220
57170W        W28896  22.016  14.376  11.957
57171W        W28897  11.259  15.166   4.182
57172W        W28898   4.920   2.947   3.231
57173W        W28899  39.948  39.735   1.293
57174W        W28900  27.533  32.094   1.905
57175W        W28901  13.260  20.579   4.367
57176W        W28902  39.512  11.660  12.411
57177W        W28903  41.425  30.878  13.045
57178W        W28904  25.301  40.771  14.272
57179W        W28905  31.002   4.699  14.700
57180W        W28906  41.865  34.954  11.555
57181W        W28907  20.739  17.115   4.423
57182W        W28908  23.301  11.372   0.437
57183W        W28909   1.804  37.415  10.648
57184W        W28910   7.703  16.463  12.828
57185W        W28911  10.787  35.391  10.950
57186W        W28912  31.067  28.608  14.439
57187W        W28913  39.887  13.282   4.572
57188W        W28914  25.888  26.082  12.390
57189W        W28915   8.847  28.537   2.681
57190W        W28916  36.111  18.176   2.748
57191W        W28917   6.248   0.671   2.990
57192W        W28918  22.301  37.398   2.862
57193W        W28919  23.082   1.606   1.357
57194W        W28920  10.326  39.076   0.783
57195W        W28921  30.013  38.838   1.843
57196W        W28922   4.182   0.844   2.672
57197W        W28923  21.276  35.947  11.574
57198W        W28924  17.746  26.094   0.814
57199W        W28925  37.761   3.439   1.478
57200W        W28926  41.667  26.848   4.940
57201W        W28927  14.022   2.859  14.048
57202W        W28928   9.890  16.215  11.722
57203W        W28929  24.251  22.056   0.397
57204W        W28930  14.459  42.394   1.611
57205W        W28931  29.380  39.457   4.682
57206W        W28932  16.090  11.065  11.518
57207W        W28933   7.644   9.386   4.164
57208W        W28934  34.938  25.396   3.281
57209W        W28935  15.574  14.714  14.317
57210W        W28936   7.485   4.787   2.071
57211W        W28937  14.887  35.556   0.374
57212W        W28938  38.512  19.752  12.904
57213W        W28939   9.279  17.897  10.886
57214W        W28940  27.848  30.542  13.045
57215W        W28941  18.061  33.365   1.454
57216W        W28942  44.474  32.895   1.940
57217W        W28943  15.561  43.911  12.076
57218W        W28944  37.929  14.190   0.859
57219W        W28945  34.059   9.196   3.690
57220W        W28946   8.172  21.272   2.724
57221W        W28947  37.549  18.191   4.266
57222W        W28948  15.563   5.588   2.182
57223W        W28949   3.794  18.549  11.657
57224W        W28950  25.104   2.442  14.836
57225W        W28951   2.222  27.832  12.798
57226W        W28952  38.579   7.821  12.533
57227W        W28953  18.153   0.047   3.272
57228W        W28954  32.563  12.643   0.876
57229W        W28955   3.610   4.118   2.786
57230W        W28956  40.096  42.405   1.112
57231W        W28957  20.673  14.054   2.274
57232W        W28958   5.578  19.420   0.317
57233W        W28959  44.977  29.322   2.347
57234W        W28960  10.362   9.899   1.219
57235W        W28961  19.186  39.025  11.432
57236W        W28962  17.533   3.884   0.007
57237W        W28963  43.993  16.628   0.333
57238W        W28964  19.272  34.016  12.335
57239W        W28965   8.125   0.767  13.355
57240W        W28966   4.495  25.520   3.090
57241W        W28967  33.096  31.533   4.610
57242W        W28968   7.342   7.260   2.816
57243W        W28969  40.031  32.400  14.079
57244W        W28970   2.381  33.051  11.300
57245W        W28971  19.061   8.149   1.686
57246W        W28972  37.361  33.138   3.649
57247W        W28973  41.544   2.056   0.303
57248W        W28974  23.824  13.324   3.230
57249W        W28975  21.195  28.017  12.522
57250W        W28976   4.937  32.102   1.712
57251W        W28977  27.020   3.571   2.144
57252W        W28978  40.595   9.330  11.566
57253W        W28979  37.855  17.149  11.177
57254W        W28980  19.590  27.389  13.905
57255W        W28981  27.570  10.420   4.082
57256W        W28982  26.187  39.760  11.135
57257W        W28983   3.914  23.816   4.784
57258W        W28984  15.351  11.074   0.909
57259W        W28985  10.721   2.750  14.262
57260W        W28986  25.071  36.264   3.860
57261W        W28987   1.158  41.759  13.396
57262W        W28988  12.185  15.137   2.977
57263W        W28989  40.520  43.881   4.507
57264W        W28990  30.657  17.955   2.409
57265W        W28991  14.245  10.963   4.531
57266W        W28992   5.277  36.481  12.955
57267W        W28993  30.490  40.063   4.092
57268W        W28994  35.012  22.076   1.704
57269W        W28995  17.263  28.961  13.784
57270W        W28996   7.021  19.097  13.500
57271W        W28997  34.082  33.806  14.470
57272W        W28998  43.832   6.131   0.491
57273W        W28999   4.684  31.051  10.686
57274W        W29000  42.006  22.469  14.419
57275W        W29001   9.332  16.543  14.857
57276W        W29002  10.660  21.057  12.201
57277W        W29003  35.870  23.071  11.061
57278W        W29004  12.683  31.233  13.276
57279W        W29005   1.476  14.424  13.839
57280W        W29006  23.105   4.228  11.158
57281W        W29007   5.056  10.239   3.841
57282W        W29008  44.545  16.128  10.884
57283W        W29009  30.206  26.491  11.904
57284W        W29010  43.316  21.603  14.306
57285W        W29011   7.758  38.114   2.362
57286W        W29012  38.424   2.907   1.472
57287W        W29013  13.601  16.136  11.599
57288W        W29014   8.550  25.050   3.417
57289W        W29015  26.266   3.953   1.801
57290W        W29016  25.428  37.730   2.896
57291W        W29017   7.674   6.243  11.057
57292W        W29018  19.345   0.796  11.126
57293W        W29019  15.197  42.950  11.152
57294W        W29020  18.783  22.577   0.023
57295W        W29021  13.332   7.280  13.531
57296W        W29022   4.429  22.500  12.334
57297W        W29023  40.216   0.044   2.817
57298W        W29024  15.080   5.549   2.351
57299W        W29025  20.744  41.331   2.370
57300W        W29026  27.569  24.240   2.098
57301W        W29027   0.447  12.289  12.095
57302W        W29028   2.294  25.921  12.044
57303W        W29029  44.467  25.642   1.859
57304W        W29030  14.347  15.285   3.394
57305W        W29031   3.855   6.454   1.497
57306W        W29032   4.193   7.913  11.271
57307W        W29033  41.884  28.853   0.856
57308W        W29034  19.006  43.453   4.875
57309W        W29035  42.552  24.113   1.832
57310W        W29036   6.476   7.068  11.156
57311W        W29037  21.183  14.544   1.271
57312W        W29038  16.081   9.988   2.460
57313W        W29039  32.998  27.400   0.413
57314W        W29040  21.253  16.678  14.767
57315W        W29041  41.221   1.727   2.340
57316W        W29042  33.866  22.736  11.045
57317W        W29043  44.275  27.916  14.357
57318W        W29044  15.745   0.447  10.308
57319W        W29045  35.748   5.809   2.372
57320W        W29046  33.001  16.838   3.641
57321W        W29047  15.718  36.186  10.047
57322W        W29048  23.225   0.575   1.856
57323W        W29049  44.501   4.923  10.709
57324W        W29050   4.998  20.257   3.792
57325W        W29051   3.911  39.244   1.750
57326W        W29052  40.399  15.156   4.571
57327W        W29053   7.172  15.179   1.408
57328W        W29054  30.160  32.640  13.365
57329W        W29055  21.003  36.372   1.404
57330W        W29056   5.540   6.812  12.857
57331W        W29057  33.680   0.569  12.057
57332W        W29058  40.097  12.260  13.884
57333W        W29059  26.914   3.221  14.184
57334W        W29060  32.914  28.421  13.426
57335W        W29061  23.153  44.081  14.503
57336W        W29062   2.125  41.359  10.780
57337W        W29063  30.183   8.377  13.885
57338W        W29064  20.128   9.673  11.405
57339W        W29065  14.379  15.255  12.935
57340W        W29066  27.582  30.314   3.418
57341W        W29067  38.341  31.992   1.936
57342W        W29068  35.333  16.164  10.437
57343W        W29069  35.384  41.492   2.835
57344W        W29070  21.168   8.110   3.800
57345W        W29071  29.504  37.424   3.054
57346W        W29072  19.080  38.132  12.212
57347W        W29073  34.036  16.188   2.734
57348W        W29074   2.310  11.763   3.881
57349W        W29075  20.305  38.330   3.621
57350W        W29076  32.140  18.106  14.515
57351W        W29077  20.203  11.363  13.277
57352W        W29078  33.540  16.817  11.620
57353W        W29079   1.423   9.924  12.038
57354W        W29080  21.129  10.450  12.532
57355W        W29081  41.120  35.366  13.409
57356W        W29082  40.873  35.861   0.039
57357W        W29083  38.683  18.326   2.919
57358W        W29084  42.079  25.870  14.334
57359W        W29085  37.114  33.863   1.329
57360W        W29086  30.067  21.663  14.437
57361W        W29087   5.715  30.090   2.752
57362W        W29088  42.392  12.415   0.869
57363W        W29089  26.317   0.337   4.531
57364W        W29090  42.946  33.627  12.052
57365W        W29091  20.812  11.736  12.391
57366W        W29092  31.232  33.482   0.965
57367W        W29093  36.897   5.163   0.891
57368W        W29094  21.737  25.208  14.708
57369W        W29095  15.951  31.443   3.298
57370W        W29096  21.232  37.287  12.716
57371W        W29097  12.128   4.980  14.913
57372W        W29098  34.864  24.343   2.930
57373W        W29099   5.149  42.691   5.006
57374W        W29100  17.242   9.927  10.497
57375W        W29101  27.074  13.123   2.679
57376W        W29102  23.106   7.451  11.099
57377W        W29103  39.668  19.580   2.160
57378W        W29104   5.398  20.783  13.532
57379W        W29105  44.693  18.481   0.400
57380W        W29106  31.133  36.299   3.560
57381W        W29107  41.928  21.265   0.489
57382W        W29108  20.220  27.642   2.321
57383W        W29109   9.919  16.271   4.713
57384W        W29110  14.197   7.939  11.851
57385W        W29111  19.230  38.760   2.727
57386W        W29112  11.341  30.658   4.193
57387W        W29113  43.037   4.406   4.211
57388W        W29114  21.627  40.087   0.756
57389W        W29115  41.761  18.376  12.982
57390W        W29116   3.495  11.810   2.860
57391W        W29117  10.302  38.538  12.118
57392W        W29118  12.424  29.720   2.171
57393W        W29119  18.058  17.098   3.317
57394W        W29120  29.592  23.074   0.416
57395W        W29121  42.934  37.168   9.968
57396W        W29122  17.611  13.778   0.745
57397W        W29123  34.090  12.174   0.693
57398W        W29124   5.445  10.203  14.327
57399W        W29125  20.757  23.894  14.517
57400W        W29126   2.309  38.355   0.709
57401W        W29127  43.794  12.379   4.550
57402W        W29128  14.367  40.448   2.722
57403W        W29129   1.473  35.454  14.949
57404W        W29130  35.138  26.513  11.046
57405W        W29131  30.351  15.646  13.162
57406W        W29132  22.649  24.099   0.311
57407W        W29133  21.471   0.998   1.445
57408W        W29134  27.951  44.854   5.437
57409W        W29135  16.326   6.245   4.903
57410W        W29136   8.221   1.550  14.281
57411W        W29137  41.245  35.544  14.789
57412W        W29138  29.910   9.470   2.411
57413W        W29139  28.240   0.690  11.675
57414W        W29140  28.894  11.800  12.084
57415W        W29141  42.032   8.632  11.433
57416W        W29142   6.515   5.424   2.783
57417W        W29143   8.834   3.545  11.978
57418W        W29144  27.798  14.513  10.762
57419W        W29145  13.555  14.068  11.214
57420W        W29146   8.549  15.125   0.294
57421W        W29147   5.152  37.061  11.138
57422W        W29148  19.796  29.499   0.512
57423W        W29149  40.820  16.073  10.766
57424W        W29150  14.076  24.581  12.033
57425W        W29151  39.346  35.624   4.156
57426W        W29152  16.224  43.929   4.406
57427W        W29153  20.993   5.130  12.187
57428W        W29154  41.253   0.907   3.738
57429W        W29155  17.335  10.221  11.146
57430W        W29156  20.256  25.390  14.904
57431W        W29157   4.277  37.007  12.950
57432W        W29158  37.041  18.545  13.002
57433W        W29159   9.458  18.206  13.208
57434W        W29160  43.883   6.285  13.460
57435W        W29161  20.093   9.291   2.176
57436W        W29162   2.812  39.825   3.252
57437W        W29163  15.309  22.130  11.224
57438W        W29164  42.483  26.208  13.376
57439W        W29165   1.961  10.352  11.131
57440W        W29166  29.275  13.048  12.945
57441W        W29167  32.802  16.203  14.333
57442W        W29168  12.400  20.349  11.174
57443W        W29169  30.878   7.201  13.476
57444W        W29170   8.354  28.144   2.137
57445W        W29171  38.546   8.128  10.588
57446W        W29172  28.676  16.027   1.998
57447W        W29173  15.199  38.581   1.631
57448W        W29174  32.175  22.165   3.080
57449W        W29175  27.023  18.273   2.684
57450W        W29176   1.540  19.567  14.915
57451W        W29177  28.553   3.715   3.823
57452W        W29178  15.524  30.672  10.746
57453W        W29179   4.282  22.226  13.388
57454W        W29180  25.802  12.540  10.810
57455W        W29181  17.018  30.961   0.305
57456W        W29182  28.188   0.352  14.861
57457W        W29183  12.125  31.577   4.696
57458W        W29184  26.946   1.561  10.441
57459W        W29185  11.692  30.810  10.389
57460W        W29186  27.430  38.964   3.288
57461W        W29187   7.138  16.957  11.979
57462W        W29188  33.482  12.243   2.175
57463W        W29189  41.116  12.752  11.421
57464W        W29190   6.985  26.971  14.448
57465W        W29191  34.934  28.586   4.850
57466W        W29192   7.148  29.627   3.552
57467W        W29193  16.405  37.433   1.525
57468W        W29194  29.140  29.383  11.941
57469W        W29195  21.761  37.088  10.926
57470W        W29196  30.058  14.648  11.574
57471W        W29197   7.906  34.445   1.292
57472W        W29198  21.755  39.457  10.829
57473W        W29199  13.288  22.309   0.459
57474W        W29200  27.997   9.076  11.709
57475W        W29201  41.894   5.289  13.155
57476W        W29202  35.976  23.146   4.155
57477W        W29203   2.855  42.711  12.123
57478W        W29204  27.455  44.249   4.232
57479W        W29205   3.437  29.399   1.247
57480W        W29206   5.176  25.640   1.470
57481W        W29207  37.088   8.378  14.538
57482W        W29208  32.206  19.130   3.386
57483W        W29209  18.306   4.538   2.393
57484W        W29210   6.402   5.189   1.871
57485W        W29211   0.272  38.953  10.879
57486W        W29212   2.544  40.286   4.584
57487W        W29213  26.056  33.089   0.800
57488W        W29214   8.373  32.877   2.584
57489W        W29215  42.005  29.590  12.677
57490W        W29216  13.854  37.461  10.732
57491W        W29217   7.488  39.018   2.874
57492W        W29218  22.126   6.839   0.248
57493W        W29219   0.221  17.142   4.570
57494W        W29220  27.575  32.409   0.322
57495W        W29221  25.125  29.552   4.076
57496W        W29222  44.530  16.181   2.937
57497W        W29223   2.152  38.937  11.081
57498W        W29224  18.090  19.611   1.761
57499W        W29225   2.161  15.547   2.384
57500W        W29226  27.526  41.425  13.812
57501W        W29227  11.150   5.869   2.348
57502W        W29228  18.021  33.105  13.534
57503W        W29229   1.070  19.495   2.671
57504W        W29230  41.059  27.715  12.659
57505W        W29231  40.912  18.296  10.535
57506W        W29232   3.223  19.543   1.231
57507W        W29233  17.193  16.160   2.647
57508W        W29234  23.827  31.030  11.841
57509W        W29235  40.260   8.262   3.451
57510W        W29236   9.223   8.112  14.711
57511W        W29237  11.328  14.082   0.573
57512W        W29238  12.792  16.994   0.908
57513W        W29239  42.279  19.309  11.834
57514W        W29240  31.036  11.628  12.135
57515W        W29241  20.313  33.678   3.634
57516W        W29242  26.038  19.158  13.154
57517W        W29243  39.270  35.538  11.945
57518W        W29244  11.356   0.799   3.293
57519W        W29245  24.500   0.335  14.482
57520W        W29246  36.363  28.476  14.878
57521W        W29247   2.947  36.144   1.198
57522W        W29248  13.417   2.732  11.593
57523W        W29249  37.963  29.936  12.055
57524W        W29250   3.956  44.819   4.688
57525W        W29251  44.694  40.921  11.593
57526W        W29252  32.592  26.919  13.471
57527W        W29253  44.423  12.100  13.944
57528W        W29254  44.919  30.644  11.947
57529W        W29255  17.285  20.304  12.455
57530W        W29256  37.974  13.167  12.537
57531W        W29257  31.455  40.913   4.464
57532W        W29258   1.968  25.682   1.384
57533W        W29259  21.151  41.580  13.297
57534W        W29260  26.424  15.554   1.353
57535W        W29261  36.809  39.421  10.717
57536W        W29262  44.831   9.644   1.776
57537W        W29263  26.926   0.719   2.907
57538W        W29264  41.965  31.451   4.756
57539W        W29265  41.375  27.446  12.344
57540W        W29266  33.805  32.142  13.770
57541W        W29267  34.425  14.824  10.455
57542W        W29268  15.087   5.461  11.124
57543W        W29269  10.728  41.010  14.908
57544W        W29270  23.851  34.614  12.405
57545W        W29271   4.645  43.580   1.762
57546W        W29272  29.143  28.549   0.122
57547W        W29273   4.218  27.463  12.884
57548W        W29274  36.091   7.383  14.806
57549W        W29275  32.515   7.183  12.556
57550W        W29276  17.722   3.949   2.823
57551W        W29277  34.381  17.550  11.221
57552W        W29278  27.680   4.424  14.897
57553W        W29279  17.149  31.247   0.742
57554W        W29280   7.874  41.021   3.909
57555W        W29281  14.531   6.831   5.000
57556W        W29282   6.463  22.022   0.276
57557W        W29283  12.874  41.233   2.399
57558W        W29284  15.328  44.293  12.329
57559W        W29285  21.439  18.721  12.261
57560W        W29286  39.120  31.361   1.829
57561W        W29287  10.704  24.672   3.700
57562W        W29288  25.448  28.106   3.432
57563W        W29289  43.084  41.429   2.215
57564W        W29290  17.142   0.799  10.352
57565W        W29291   1.921  13.184   0.326
57566W        W29292  43.065   3.757  10.997
57567W        W29293  13.159  27.026   1.412
57568W        W29294  21.803  32.380  13.588
57569W        W29295   7.512   1.521   2.765
57570W        W29296  39.485  10.648  13.953
57571W        W29297   1.525  12.427  12.969
57572W        W29298   5.352  12.575  11.387
57573W        W29299  30.544  44.687   4.410
57574W        W29300  42.974   7.698   0.268
57575W        W29301  17.997   1.397   4.557
57576W        W29302   3.175  12.103  11.910
57577W        W29303  30.401   1.359  11.240
57578W        W29304  21.705  34.389   3.331
57579W        W29305  32.853   0.912  13.932
57580W        W29306  42.245   7.385  13.807
57581W        W29307   8.832  34.056  12.069
57582W        W29308  10.853   0.963   3.192
57583W        W29309  24.715  38.447   2.437
57584W        W29310  12.464  36.152  14.269
57585W        W29311  25.132  15.720   3.276
57586W        W29312  32.380  20.013  14.877
57587W        W29313  27.665   6.743   1.474
57588W        W29314  36.716  39.377   2.937
57589W        W29315  42.927   8.243  13.286
57590W        W29316  40.511   0.553  10.404
57591W        W29317  38.411  30.435   3.649
57592W        W29318  38.237   1.911  13.921
57593W        W29319  10.451  19.596   3.070
57594W        W29320  29.733  14.571   4.216
57595W        W29321  27.130  28.106  11.391
57596W        W29322  44.900  13.330  10.450
57597W        W29323   9.601  28.946  12.342
57598W        W29324  28.724  11.259  14.292
57599W        W29325  31.610  35.623  13.871
57600W        W29326   5.107   1.678   4.534
57601W        W29327  20.069  25.251   1.184
57602W        W29328  12.784  31.151  11.365
57603W        W29329  30.778  11.300  10.362
57604W        W29330  11.932  39.458  12.084
57605W        W29331  10.294  41.211  11.659
57606W        W29332   4.342   2.666  13.118
57607W        W29333  15.322  38.126   3.126
57608W        W29334  27.410   9.743  12.863
57609W        W29335  44.735  30.110   3.889
57610W        W29336  11.636  33.986   1.292
57611W        W29337  26.067  32.427   1.201
57612W        W29338   5.108  33.809   4.114
57613W        W29339  11.676  16.273   0.927
57614W        W29340  44.717  32.018   2.311
57615W        W29341  35.959  10.915   1.957
57616W        W29342  27.010  21.274  11.953
57617W        W29343   0.359  38.298   1.856
57618W        W29344  14.369  20.025   4.585
57619W        W29345  18.118  39.549   0.480
57620W        W29346  24.563  24.575   2.107
57621W        W29347  23.673  36.216   3.945
57622W        W29348  18.598   9.395  10.589
57623W        W29349   1.769  21.433   4.585
57624W        W29350  13.118   5.155   0.207
57625W        W29351  23.950  33.374  10.848
57626W        W29352  19.777  17.311   1.304
57627W        W29353  44.915  40.485  10.631
57628W        W29354  16.998  16.690  11.210
57629W        W29355  17.186  42.483   2.477
57630W        W29356  27.758  14.591  12.606
57631W        W29357   8.370  32.477  11.052
57632W        W29358  32.670  37.516   1.914
57633W        W29359  20.012  41.489  10.678
57634W        W29360  36.591  21.706   1.722
57635W        W29361  11.568  13.361  10.677
57636W        W29362   7.228   5.634  10.431
57637W        W29363  26.345  40.889   1.670
57638W        W29364   7.500   5.800  12.780
57639W        W29365   4.388   5.482   0.045
57640W        W29366  44.691  20.256   3.195
57641W        W29367   5.772  19.748  11.658
57642W        W29368  19.270  35.574   0.794
57643W        W29369  37.172  19.467  13.038
57644W        W29370  28.552  23.285  13.537
57645W        W29371   9.208  13.141   2.719
57646W        W29372  13.836  35.797   2.629
57647W        W29373  25.961  33.578  13.944
57648W        W29374  39.947  43.360   3.817
57649W        W29375  39.899   0.733  10.895
57650W        W29376   4.365  21.489   0.546
57651W        W29377  32.546  19.866   4.156
57652W        W29378  16.421  34.052   3.662
57653W        W29379   8.746  13.694   0.845
57654W        W29380  29.987  42.022   2.486
57655W        W29381  18.957  39.389  11.784
57656W        W29382   4.423  12.787   4.652
57657W        W29383  19.074  32.151  11.801
57658W        W29384  27.452  21.456  11.750
57659W        W29385   8.805  35.536   2.308
57660W        W29386  43.839  42.948   1.332
57661W        W29387   0.753  27.166  13.879
57662W        W29388   1.952   1.295  13.655
57663W        W29389  40.259  25.427  13.155
57664W        W29390  32.190  22.025   0.763
57665W        W29391  39.374  26.197  10.571
57666W        W29392  13.487  38.872  14.103
57667W        W29393  37.610  15.590  11.550
57668W        W29394   7.850  15.009   4.838
57669W        W29395  15.897  20.619   2.290
57670W        W29396  11.830   7.696  12.610
57671W        W29397  13.263  30.588  13.055
57672W        W29398  37.561   9.403   4.069
57673W        W29399  32.914  28.902   1.210
57674W        W29400  11.447  12.727  13.982
57675W        W29401  19.261  41.389   3.242
57676W        W29402  37.911  41.531   3.485
57677W        W29403  33.080  15.655   4.624
57678W        W29404  27.101  28.585   3.095
57679W        W29405  42.076   4.225   1.820
57680W        W29406   1.866  21.547   3.616
57681W        W29407  14.026  43.883  10.426
57682W        W29408   0.292   3.056  12.628
57683W        W29409  32.504  26.504  12.045
57684W        W29410  26.402   4.877   2.698
57685W        W29411   4.791  10.392   0.594
57686W        W29412  28.668  38.577   1.855
57687W        W29413  26.944   4.494  13.404
57688W        W29414  31.967   6.785   3.884
57689W        W29415  13.745  31.935   4.317
57690W        W29416  22.075  44.287   4.426
57691W        W29417   6.843   0.418  10.562
57692W        W29418   6.696  21.195   2.848
57693W        W29419   7.161  40.836  13.011
57694W        W29420  34.598  34.966  10.727
57695W        W29421  43.780  31.140   4.365
57696W        W29422  39.054  29.732   3.208
57697W        W29423  37.190  31.011   4.499
57698W        W29424  33.963  25.761   3.278
57699W        W29425   2.756  12.776  12.002
57700W        W29426  42.548  23.630   1.314
57701W        W29427  39.240   6.144   3.052
57702W        W29428  33.668   1.650  12.422
57703W        W29429  25.110   4.950  12.390
57704W        W29430  14.064  44.482   3.727
57705W        W29431  43.344   2.261   0.939
57706W        W29432  32.811   4.793  10.595
57707W        W29433  20.034  22.806   4.108
57708W        W29434  43.427   0.347  10.667
57709W        W29435  16.994  38.567  10.670
57710W        W29436   0.764  16.820   2.687
57711W        W29437  30.399   7.865   1.419
57712W        W29438   3.556  42.740   0.391
57713W        W29439  39.501  37.133   0.506
57714W        W29440  19.835  15.204  13.070
57715W        W29441  35.107  27.067  12.340
57716W        W29442  40.593   9.680   1.294
57717W        W29443   7.886  22.006   0.931
57718W        W29444  19.249  39.016  14.866
57719W        W29445  28.926  32.966   5.022
57720W        W29446  22.668  43.867  11.556
57721W        W29447   6.899  11.201  12.341
57722W        W29448  23.535  14.405  10.520
57723W        W29449  20.047  39.793  14.401
57724W        W29450  41.234  25.935  10.843
57725W        W29451   9.250  33.026  14.666
57726W        W29452  32.861  44.890  14.485
57727W        W29453  40.927  24.014   2.663
57728W        W29454  34.555   4.418   0.255
57729W        W29455  19.183  34.559  11.829
57730W        W29456  25.893  44.175   3.253
57731W        W29457   5.040  13.375   5.424
57732W        W29458  27.397  43.479   2.966
57733W        W29459  18.109  33.879   1.472
57734W        W29460  14.040  35.767  10.963
57735W        W29461  37.487  37.006   4.565
57736W        W29462  36.293  33.414   1.217
57737W        W29463  14.552  31.707  12.655
57738W        W29464   6.446  10.878   1.550
57739W        W29465  15.889  27.900   5.123
57740W        W29466  14.116  11.474  11.613
57741W        W29467  30.005  15.399  13.437
57742W        W29468  24.606  41.437  13.568
57743W        W29469  16.607  24.961   0.000
57744W        W29470   8.043  12.356   1.705
57745W        W29471  17.183  43.843   3.704
57746W        W29472  35.222  20.031   0.168
57747W        W29473   4.505  13.413   5.356
57748W        W29474  10.142  32.635   0.736
57749W        W29475  16.874   7.492  11.548
57750W        W29476  44.460  20.946   9.799
57751W        W29477  33.342  18.121  14.072
57752W        W29478  20.755  16.726   0.021
57753W        W29479   7.909   8.174  13.545
57754W        W29480  44.293  18.563  10.635
57755W        W29481  38.314  32.999   2.272
57756W        W29482  34.646  33.156  11.049
57757W        W29483  36.846  32.275  11.929
57758W        W29484  37.956   0.709   2.629
57759W        W29485  37.461   8.727  12.429
57760W        W29486  43.941  42.714   4.146
57761W        W29487  13.111  41.490  10.242
57762W        W29488  34.361  28.151   4.336
57763W        W29489  26.769   1.231   0.011
57764W        W29490   5.222  26.431   4.672
57765W        W29491   8.743  42.070  13.978
57766W        W29492  39.412  16.314  13.351
57767W        W29493  22.296   3.813  14.840
57768W        W29494  25.972  20.394   2.794
57769W        W29495  39.810  24.272  12.606
57770W        W29496   0.001   3.978   4.054
57771W        W29497   5.651  41.473   0.839
57772W        W29498  17.098  40.742   2.166
57773W        W29499  34.845  32.818   0.326
57774W        W29500  43.463  33.898  13.150
57775W        W29501   6.844  12.073  11.963
57776W        W29502  10.621   2.915   2.930
57777W        W29503  14.720   4.887   1.055
57778W        W29504   8.819  19.852   0.750
57779W        W29505   3.306  14.238   0.371
57780W        W29506  40.797  12.573   4.376
57781W        W29507   0.741  24.143   0.804
57782W        W29508   7.642  40.419   2.709
57783W        W29509  18.855  27.845  12.739
57784W        W29510  24.038  12.236  13.325
57785W        W29511  38.530  22.272  13.933
57786W        W29512   9.437  35.475  13.810
57787W        W29513  16.999  29.133   0.785
57788W        W29514  24.473  21.407  11.621
57789W        W29515  19.514  38.388   1.531
57790W        W29516  29.432   1.713   4.172
57791W        W29517  24.417  42.935   0.379
57792W        W29518   5.763  29.973  10.693
57793W        W29519   0.379  44.436  13.839
57794W        W29520   2.027   6.920  13.948
57795W        W29521  43.874  12.463   0.463
57796W        W29522  30.476   4.376   3.811
57797W        W29523  37.333   9.390  14.339
57798W        W29524   3.831  23.546  13.546
57799W        W29525   8.732  22.488  10.651
57800W        W29526  35.507  34.983   4.914
57801W        W29527  39.967  31.553   1.338
57802W        W29528  35.410  21.542   0.990
57803W        W29529  21.030  42.217   1.480
57804W        W29530  13.710  26.931   0.291
57805W        W29531  22.557  31.230   0.226
57806W        W29532  37.033  18.813   3.156
57807W        W29533  15.560  15.085  11.620
57808W        W29534  10.242  20.690  11.020
57809W        W29535  28.532  31.685   3.794
57810W        W29536  25.132  10.283  14.445
57811W        W29537  34.452   8.600   2.201
57812W        W29538  43.521  42.923   0.934
57813W        W29539  21.544  22.462  13.897
57814W        W29540  24.486  33.430   4.652
57815W        W29541   6.505  15.095  13.278
57816W        W29542  17.560  25.238  12.421
57817W        W29543   4.598  24.447   0.846
57818W        W29544  18.383  29.770   3.171
57819W        W29545  42.816   2.365  12.563
57820W        W29546  33.117  29.666  10.654
57821W        W29547  17.400  43.314   3.759
57822W        W29548   0.514   6.105   9.874
57823W        W29549  38.171  27.736  14.936
57824W        W29550  23.187  14.688   0.661
57825W        W29551  39.834  30.867   0.907
57826W        W29552   8.157  25.052  14.308
57827W        W29553  20.660   8.246  12.992
57828W        W29554   0.313  29.603   4.933
57829W        W29555   3.448  18.357  13.986
57830W        W29556   5.348  15.917   5.734
57831W        W29557  21.801  14.408  10.297
57832W        W29558  24.707  30.553   1.211
57833W        W29559  18.300  32.088  10.467
57834W        W29560  31.690   1.169   1.335
57835W        W29561  32.397  40.153  14.501
57836W        W29562  16.774  33.627   3.725
57837W        W29563   1.928   7.808  13.710
57838W        W29564  37.927   0.245  11.957
57839W        W29565  33.375   7.127  11.201
57840W        W29566  12.657  40.140   2.816
57841W        W29567  31.818  23.177   0.771
57842W        W29568  27.590  33.197  14.769
57843W        W29569   9.418  30.968  12.586
57844W        W29570  36.860  44.769   3.682
57845W        W29571   5.041  11.636  13.941
57846W        W29572  40.405  24.363  10.576
57847W        W29573  13.349  12.136  11.580
57848W        W29574   5.895   0.642  10.925
57849W        W29575  36.872  18.043   1.218
57850W        W29576  30.979  11.714   3.106
57851W        W29577  36.142  10.347  12.150
57852W        W29578  30.468  15.467  11.484
57853W        W29579   0.999  24.223   1.258
57854W        W29580  37.352  25.134   4.927
57855W        W29581  37.039   1.725   4.886
57856W        W29582  36.319  36.480   1.251
57857W        W29583  14.142  13.280   4.977
57858W        W29584  33.379  29.085  14.977
57859W        W29585  24.996  43.531  12.500
57860W        W29586   1.950  11.408  11.058
57861W        W29587   9.794  24.749   0.947
57862W        W29588  36.987  32.475  11.480
57863W        W29589  13.636  28.067  12.133
57864W        W29590   3.400  11.310  13.030
57865W        W29591   9.631   5.479  13.527
57866W        W29592  13.270  25.630   3.652
57867W        W29593  37.673  39.752   4.228
57868W        W29594  28.843  11.270  13.284
57869W        W29595  29.662   7.570   3.304
57870W        W29596  10.823   4.356   2.286
57871W        W29597   4.732  28.586  13.664
57872W        W29598  40.155  18.667   2.432
57873W        W29599  43.768  34.382  13.393
57874W        W29600  29.244  11.103   0.444
57875W        W29601  38.271  15.312  12.558
57876W        W29602  41.240  35.170   4.018
57877W        W29603   0.271  21.549  12.026
57878W        W29604  14.852  18.201  11.954
57879W        W29605  16.238  42.768   2.833
57880W        W29606  25.073  32.586  14.962
57881W        W29607  22.598  19.391  11.800
57882W        W29608   1.926  44.347   0.822
57883W        W29609  11.946  15.764  12.880
57884W        W29610  41.245  22.933  13.894
57885W        W29611  13.706  44.485   3.330
57886W        W29612  21.739  34.821  13.239
57887W        W29613  25.394  14.174   4.674
57888W        W29614  19.632  25.024  11.197
57889W        W29615  30.518  28.488   4.195
57890W        W29616  17.823   4.855  12.537
57891W        W29617  16.495   4.237  11.639
57892W        W29618  44.933  43.573  11.115
57893W        W29619  35.505  34.789  11.219
57894W        W29620   6.502  19.135   2.221
57895W        W29621  12.123  21.621  13.081
57896W        W29622  16.458  39.026   4.019
57897W        W29623  33.760  14.988  13.396
57898W        W29624  32.054  35.568   4.629
57899W        W29625  32.726  33.181   1.851
57900W        W29626  13.353  32.095   1.657
57901W        W29627   7.368  32.377   4.128
57902W        W29628  25.567  29.276   2.184
57903W        W29629  42.743  35.021  13.897
57904W        W29630  17.981  15.710  14.012
57905W        W29631  12.174  17.786  13.345
57906W        W29632  20.218   9.128  14.159
57907W        W29633  35.097  43.454  14.107
57908W        W29634  23.653  15.127   9.755
57909W        W29635  23.549  23.177  12.967
57910W        W29636  41.348  38.490   2.651
57911W        W29637  22.987  14.162   1.422
57912W        W29638  25.478  15.550  12.257
57913W        W29639  33.167   0.912   2.660
57914W        W29640  21.121  23.749   1.763
57915W        W29641   8.346  40.106   3.662
57916W        W29642  10.704  12.256  13.981
57917W        W29643   8.705  42.863  10.162
57918W        W29644  22.061  21.751   1.713
57919W        W29645  16.372   9.230  11.404
57920W        W29646  17.881  38.375   4.146
57921W        W29647  31.507  32.217   1.762
57922W        W29648   4.293  10.873  13.961
57923W        W29649   8.736   5.170   1.954
57924W        W29650  21.050   5.635   3.325
57925W        W29651  10.385   9.429  14.786
57926W        W29652  29.604  40.461   0.773
57927W        W29653   5.361  10.669   0.782
57928W        W29654  44.110  37.829  13.783
57929W        W29655  33.849  34.416  12.670
57930W        W29656  27.162  37.504   4.366
57931W        W29657  39.836  24.568   3.143
57932W        W29658   6.210   9.401   1.291
57933W        W29659  23.603  39.211  10.627
57934W        W29660  14.078  29.083   1.321
57935W        W29661   1.108  24.514   0.796
57936W        W29662  41.394  29.659  11.129
57937W        W29663  30.738  30.392   3.573
57938W        W29664  35.511  38.407  11.760
57939W        W29665  11.163  35.245  11.630
57940W        W29666  12.713  14.662  12.322
57941W        W29667  30.029  21.087   4.126
57942W        W29668   1.156  25.662  12.933
57943W        W29669  10.080  12.638  14.494
57944W        W29670  23.983  42.543   0.821
57945W        W29671  22.297  15.174   5.033
57946W        W29672   1.206  20.579  13.459
57947W        W29673  23.957  24.796   4.690
57948W        W29674  36.469   1.037   1.893
57949W        W29675   6.949   4.145   0.886
57950W        W29676  23.103  16.157   4.334
57951W        W29677  39.232  11.206  10.759
57952W        W29678   2.631  11.683   1.017
57953W        W29679  15.376  34.678  11.648
57954W        W29680  27.547  38.842   4.561
57955W        W29681  13.759  42.948   2.833
57956W        W29682  18.649  25.019   0.961
57957W        W29683  12.140  38.066  13.091
57958W        W29684  14.324  31.138  13.404
57959W        W29685  42.457  33.357   2.745
57960W        W29686  43.833  24.583  12.444
57961W        W29687  18.859  15.260  12.932
57962W        W29688  29.808  41.955  10.501
57963W        W29689  12.112  20.527  11.594
57964W        W29690  43.689  15.207   3.328
57965W        W29691  43.980  15.423  13.904
57966W        W29692  36.315  35.982  12.339
57967W        W29693  29.378  10.765  12.568
57968W        W29694   7.817   2.462  14.312
57969W        W29695  12.153  18.181   0.975
57970W        W29696  25.426   6.827   1.910
57971W        W29697   2.005  28.601   3.600
57972W        W29698  39.722  44.239   3.174
57973W        W29699  23.613  19.055   0.235
57974W        W29700   2.481   7.658  12.535
57975W        W29701  11.415  16.738  10.688
57976W        W29702  24.276  15.621  11.531
57977W        W29703  41.728  18.620  13.849
57978W        W29704  40.287   9.794  13.370
57979W        W29705  23.534  14.723   1.503
57980W        W29706   6.632  42.485  12.593
57981W        W29707  22.665  43.028   2.333
57982W        W29708  31.978   5.789   1.419
57983W        W29709  15.800  20.499  14.585
57984W        W29710  30.212  39.973   0.925
57985W        W29711  26.174   3.997  11.974
57986W        W29712  33.307  22.025   3.720
57987W        W29713  36.561  38.555   1.243
57988W        W29714  32.665  44.683  10.948
57989W        W29715  28.533  40.304   2.973
57990W        W29716  40.879  37.576  10.677
57991W        W29717  24.585  23.028   0.990
57992W        W29718  41.262   8.210   2.931
57993W        W29719  34.018  31.416  14.477
57994W        W29720  42.876  16.063  10.930
57995W        W29721  41.348  22.960   1.270
57996W        W29722  28.622   3.808  12.066
57997W        W29723  16.863  37.053  12.950
57998W        W29724   7.492  13.942   3.889
57999W        W29725  24.169  44.304   1.466
58000W        W29726  17.272  35.761   5.036
58001W        W29727  40.393  31.155  10.936
58002W        W29728  28.649   9.335  13.982
58003W        W29729  40.516  32.650   1.720
58004W        W29730  30.360   6.863   0.298
58005W        W29731  30.535   3.784   5.004
58006W        W29732   6.854  16.866  10.457
58007W        W29733  37.989   7.416   1.182
58008W        W29734   1.871  24.972  10.696
58009W        W29735  10.640   5.872   3.935
58010W        W29736  34.955   5.630   1.782
58011W        W29737  38.972   3.938   3.790
58012W        W29738  34.626   2.427   1.640
58013W        W29739  10.331  11.582   3.735
58014W        W29740  21.230  32.890  12.552
58015W        W29741  26.979  12.239  14.426
58016W        W29742  43.955  30.108  10.744
58017W        W29743   7.901  32.598  12.765
58018W        W29744  20.643  23.400   0.806
58019W        W29745  42.740  17.695   4.496
58020W        W29746  44.432  11.416   0.346
58021W        W29747  29.476  16.006  13.952
58022W        W29748   4.860  44.081  11.513
58023W        W29749  20.640  20.138   3.140
58024W        W29750  37.664  36.121   2.825
58025W        W29751   8.687  34.982   3.030
58026W        W29752  40.891  26.550  12.085
58027W        W29753  18.282  20.296   4.726
58028W        W29754  32.396  39.936   4.076
58029W        W29755  27.948  33.138  12.468
58030W        W29756  42.429  19.680   2.453
58031W        W29757  14.139  25.590  14.547
58032W        W29758  26.986  35.609   4.753
58033W        W29759  24.145  11.628   3.176
58034W        W29760  38.599  22.483  13.443
58035W        W29761  29.504  43.298  12.618
58036W        W29762  18.703  31.448   2.027
58037W        W29763  34.110  20.196  14.355
58038W        W29764  31.099  20.097   4.476
58039W        W29765  25.484  18.840   3.948
58040W        W29766  39.170  32.686   2.101
58041W        W29767  26.011  29.456   0.954
58042W        W29768   4.208  19.788   3.307
58043W        W29769  32.833  24.613  14.833
58044W        W29770  27.464  12.341   3.609
58045W        W29771  34.087  25.439   1.012
58046W        W29772  32.203  40.051  12.949
58047W        W29773   8.862  13.208   3.566
58048W        W29774  13.562   5.952   4.583
58049W        W29775   2.699  33.060  14.806
58050W        W29776   4.802   4.450   5.480
58051W        W29777  24.704  39.016   0.858
58052W        W29778  23.672  20.165  11.063
58053W        W29779   9.925  29.461  11.087
58054W        W29780  21.963   3.832  13.943
58055W        W29781  34.244  27.208   1.271
58056W        W29782  43.401  35.901   4.134
58057W        W29783   9.071  30.909  14.299
58058W        W29784  23.958   2.064   1.913
58059W        W29785   9.811   6.404  12.470
58060W        W29786  31.596  22.431  14.100
58061W        W29787   3.931  14.888   2.520
58062W        W29788  18.770  42.078  12.739
58063W        W29789  15.144  17.817   2.405
58064W        W29790  38.838  23.714   2.169
58065W        W29791  39.499  37.816  14.737
58066W        W29792  11.610  36.580   1.426
58067W        W29793   7.197  41.899   4.100
58068W        W29794  22.699  27.463   0.363
58069W        W29795   8.637  16.783  11.998
58070W        W29796  30.419  13.899  13.417
58071W        W29797   0.897  33.655  14.795
58072W        W29798  36.056   9.456  13.364
58073W        W29799  15.146  18.820  14.274
58074W        W29800   1.697   3.430   2.778
58075W        W29801  41.435  12.063  13.519
58076W        W29802   5.812  20.978   0.281
58077W        W29803  32.588  14.881   2.747
58078W        W29804  40.559  16.784  11.086
58079W        W29805  43.205  23.257   1.819
58080W        W29806  21.206  44.996   2.335
58081W        W29807  12.722   6.533   4.095
58082W        W29808  39.761  37.100  10.625
58083W        W29809  40.378  35.497   4.857
58084W        W29810  38.216  10.313   4.705
58085W        W29811  19.266  27.878  14.870
58086W        W29812  25.537  25.288  11.992
58087W        W29813  31.138   3.928  12.478
58088W        W29814  35.128  30.483  10.723
58089W        W29815  11.328  16.142   4.296
58090W        W29816  30.861  12.311  12.912
58091W        W29817   0.329   5.994  14.406
58092W        W29818  11.188  35.197   0.359
58093W        W29819  20.932  10.015   0.957
58094W        W29820  43.840  22.204  11.446
58095W        W29821   9.539  21.681   1.881
58096W        W29822  16.592  11.250  10.368
58097W        W29823   9.226  38.418  14.745
58098W        W29824  15.542  20.009   2.178
58099W        W29825  26.798  10.130   0.554
58100W        W29826  36.090  12.742   2.251
58101W        W29827  35.908  33.451   1.706
58102W        W29828   5.833   2.887   4.057
58103W        W29829  22.455  32.165   3.221
58104W        W29830  35.585  22.721  12.355
58105W        W29831   6.898  29.488   2.418
58106W        W29832  19.782  38.970   1.880
58107W        W29833  32.193  30.296   0.925
58108W        W29834  33.913  26.350  13.689
58109W        W29835  32.456  13.830  11.770
58110W        W29836  31.474  27.943  14.028
58111W        W29837  18.186  11.902  11.508
58112W        W29838  32.689   1.412   0.348
58113W        W29839   4.959  10.763  12.831
58114W        W29840  28.766   0.299   4.582
58115W        W29841  44.550   7.815  13.130
58116W        W29842  34.284  35.610  12.148
58117W        W29843   0.489  42.080   2.389
58118W        W29844  23.200  36.481   0.937
58119W        W29845   8.178  23.617   2.329
58120W        W29846  30.382  16.523  10.706
58121W        W29847  40.245  25.199   2.663
58122W        W29848  39.885  40.072   3.155
58123W        W29849  37.797   6.849  13.835
58124W        W29850  17.632  12.032   2.818
58125W        W29851  15.920   8.741   1.303
58126W        W29852  24.075  31.977   4.250
58127W        W29853  10.975  31.459  11.928
58128W        W29854   6.901  36.881  13.624
58129W        W29855  15.760  42.494  12.428
58130W        W29856  34.344  11.175  11.623
58131W        W29857  17.156  18.581  12.959
58132W        W29858  39.967  22.746   1.510
58133W        W29859  40.855  30.595  14.564
58134W        W29860  12.057  28.094  10.687
58135W        W29861  43.077  40.880   4.205
58136W        W29862  43.030  33.668  12.973
58137W        W29863  40.929  10.372  13.989
58138W        W29864  23.731  27.925   0.666
58139W        W29865  11.384  24.659  11.816
58140W        W29866  42.458  16.765   2.665
58141W        W29867   5.768  22.557   1.500
58142W        W29868  21.732   4.414   2.317
58143W        W29869  16.013  41.491   1.747
58144W        W29870  34.580  27.744  14.942
58145W        W29871   0.198  25.506   2.334
58146W        W29872  27.487  38.853   1.801
58147W        W29873  25.087  43.669   1.847
58148W        W29874  29.821  44.472   3.213
58149W        W29875  38.513   2.094   1.375
58150W        W29876  43.115  28.409  12.810
58151W        W29877  18.274   4.560  12.543
58152W        W29878   2.025  19.524   4.603
58153W        W29879  23.079  26.134   4.220
58154W        W29880   5.918  35.906   4.616
58155W        W29881  10.841  15.287  11.200
58156W        W29882   1.940  11.232   4.510
58157W        W29883  29.086  19.215   3.808
58158W        W29884  40.462  30.471  14.268
58159W        W29885   4.363  39.327   0.877
58160W        W29886   6.916  33.589  13.067
58161W        W29887  32.065  31.129  14.842
58162W        W29888  42.719  13.041   3.083
58163W        W29889  10.874  37.397  12.103
58164W        W29890  30.925  17.066   2.317
58165W        W29891  30.571  36.118  12.046
58166W        W29892  15.348  35.046  10.814
58167W        W29893  41.248  32.467   0.160
58168W        W29894  25.317  21.030   4.107
58169W        W29895   4.666  11.593   4.157
58170W        W29896   7.397   4.122  14.689
58171W        W29897  12.351  23.308   3.617
58172W        W29898  34.378  15.879  12.622
58173W        W29899  10.926  15.503  12.112
58174W        W29900  20.833  10.806  12.918
58175W        W29901   6.839  11.777   4.647
58176W        W29902   8.758   0.783   0.428
58177W        W29903  26.454  10.474   3.203
58178W        W29904  42.377  24.441   3.206
58179W        W29905  18.073   8.235   1.746
58180W        W29906  13.037   3.537   4.194
58181W        W29907  31.129  28.156  11.899
58182W        W29908   0.466  40.475  12.010
58183W        W29909  38.826  21.673  14.788
58184W        W29910  38.621  26.814   3.372
58185W        W29911  21.038  21.909  12.960
58186W        W29912  28.751  10.139  13.546
58187W        W29913   0.767   4.899  13.074
58188W        W29914  16.342  18.239   2.119
58189W        W29915  23.657   0.014  12.151
58190W        W29916  44.471  40.753  12.625
58191W        W29917  43.916  26.675   3.306
58192W        W29918  36.628   6.816   3.754
58193W        W29919  19.533  17.536   0.921
58194W        W29920   5.724  32.564  12.064
58195W        W29921  23.152  37.940  14.397
58196W        W29922  40.813   7.925   0.920
58197W        W29923  16.543  22.726  12.405
58198W        W29924  28.885  24.799   1.057
58199W        W29925  25.040  29.516   1.985
58200W        W29926  43.084  27.090  12.026
58201W        W29927  19.320  32.097  13.997
58202W        W29928   2.728  44.070  12.387
58203W        W29929  28.103  30.908  14.935
58204W        W29930  11.345  23.792  13.004
58205W        W29931  19.177   4.491   0.949
58206W        W29932  21.094  17.811  13.404
58207W        W29933  41.091  28.650  10.950
58208W        W29934   7.179  26.519   1.789
58209W        W29935  17.890  44.127   1.965
58210W        W29936   2.470  15.736   0.039
58211W        W29937  34.131  24.259   4.704
58212W        W29938  18.466  31.219   0.466
58213W        W29939  27.700  43.863  12.956
58214W        W29940  28.157   3.660  12.273
58215W        W29941  12.321  23.730   4.850
58216W        W29942   4.346  20.291   3.208
58217W        W29943  42.436  42.467   2.453
58218W        W29944  20.227   2.173  11.531
58219W        W29945  29.558  42.932   3.251
58220W        W29946  38.440   4.851   0.572
58221W        W29947  24.659  33.948  10.692
58222W        W29948  27.019  20.933  14.243
58223W        W29949  22.243  12.166  14.338
58224W        W29950  34.951   8.797   2.078
58225W        W29951  22.044  14.771   3.141
58226W        W29952  21.228  25.109   4.544
58227W        W29953  25.725  18.054  11.221
58228W        W29954  28.022  34.140   4.879
58229W        W29955  10.455  24.890  12.516
58230W        W29956  40.504  38.801  13.457
58231W        W29957  26.514   1.724   4.608
58232W        W29958  25.431  44.568   1.794
58233W        W29959  43.136   2.099  12.877
58234W        W29960  13.877  13.663   2.817
58235W        W29961  18.765  28.816   0.026
58236W        W29962   5.467  33.457  11.518
58237W        W29963  36.841   2.421   0.851
58238W        W29964   2.416  15.564  10.748
58239W        W29965  18.743   0.826   4.491
58240W        W29966  12.085  44.977   2.716
58241W        W29967   2.436  43.101   0.402
58242W        W29968  17.736  44.050   0.940
58243W        W29969   7.250  36.421  14.738
58244W        W29970  10.841   6.729   3.863
58245W        W29971  35.514  41.923  12.483
58246W        W29972  15.175   0.712  14.368
58247W        W29973  36.473   8.846   5.052
58248W        W29974   3.148  23.895   4.053
58249W        W29975  24.169  28.493   0.791
58250W        W29976  25.483  18.541  11.299
58251W        W29977  27.848  42.272  13.622
58252W        W29978   2.312  25.135   3.769
58253W        W29979   6.381  23.776  11.680
58254W        W29980  33.101  20.776  12.483
58255W        W29981  12.925  32.058   0.848
58256W        W29982  40.362  25.865   3.425
58257W        W29983  36.954  19.286   2.403
58258W        W29984   1.251   0.221   2.282
58259W        W29985  20.486   0.791   0.111
58260W        W29986  41.998  10.717  10.561
58261W        W29987  26.942  33.376   1.317
58262W        W29988  11.509  25.012   4.632
58263W        W29989  40.527  41.537   0.020
58264W        W29990   1.350  17.142   1.898
58265W        W29991   6.761  41.388   1.892
58266W        W29992  38.908   7.374   1.721
58267W        W29993   9.312  17.206   4.457
58268W        W29994  13.055  33.064   2.252
58269W        W29995  19.526  33.043  14.319
58270W        W29996   1.560  14.271  11.042
58271W        W29997  18.587  14.346   3.807
58272W        W29998  38.432   5.812   3.129
58273W        W29999  18.797  37.876   4.052
58274W        W30000  43.516  44.515   1.684
58275W        W30001   8.411   5.112  13.783
58276W        W30002   0.760   8.238  11.323
58277W        W30003  27.985  42.445   1.188
58278W        W30004  41.950   8.675   3.259
58279W        W30005   1.240  36.325  13.947
58280W        W30006  15.087  15.714   0.873
58281W        W30007  43.951  40.014  12.125
58282W        W30008   8.766  22.761  14.681
58283W        W30009   3.982  42.421  12.190
58284W        W30010  25.993   3.024   3.487
58285W        W30011   6.398   2.977  11.700
58286W        W30012  24.647  14.400   2.689
58287W        W30013  41.114  34.445  13.431
58288W        W30014  18.761  14.792  12.090
58289W        W30015  12.159  14.146   3.049
58290W        W30016  17.527  43.688   1.260
58291W        W30017  29.075   7.154  12.110
58292W        W30018  30.659  42.006   3.215
58293W        W30019  13.614  24.793   3.148
58294W        W30020  17.624  39.236  11.473
58295W        W30021  39.317   4.534   2.019
58296W        W30022  43.729  16.586  12.380
58297W        W30023   0.260  11.470  12.510
58298W        W30024  21.206  39.809  13.862
58299W        W30025  39.356  20.062   4.860
58300W        W30026  37.873  43.733   4.149
58301W        W30027  33.448  29.421   0.927
58302W        W30028  15.635  19.521  14.327
58303W        W30029  33.304  10.266   3.778
58304W        W30030  38.806  10.596   3.217
58305W        W30031   8.627  20.647  13.760
58306W        W30032  25.667  27.575  12.107
58307W        W30033  36.934   7.234   3.802
58308W        W30034   1.662   9.844   0.054
58309W        W30035  27.023  20.695   3.671
58310W        W30036  11.412  25.696   3.835
58311W        W30037  10.585  18.073  14.076
58312W        W30038  26.976  27.347   4.218
58313W        W30039  43.142  12.827   3.337
58314W        W30040  21.126   0.332  12.498
58315W        W30041   3.291  20.830  14.893
58316W        W30042  35.414  10.735   1.195
58317W        W30043   2.085  32.665   2.663
58318W        W30044  20.174   7.487   0.306
58319W        W30045  35.039  12.900   2.832
58320W        W30046  34.975  30.942   4.493
58321W        W30047  31.083  31.619  13.629
58322W        W30048   0.522  14.136   3.859
58323W        W30049  33.546  30.347   3.763
58324W        W30050   8.665  43.748  14.317
58325W        W30051  12.574  44.478   1.228
58326W        W30052  29.409  39.281  13.972
58327W        W30053  24.447  35.133   1.712
58328W        W30054   1.358  32.918   3.795
58329W        W30055  37.996  12.700   4.995
58330W        W30056  32.062  21.671  12.623
58331W        W30057  42.732  23.543  12.449
58332W        W30058   3.728  18.548   2.142
58333W        W30059   8.708  13.532   1.742
58334W        W30060  10.638  12.105   0.873
58335W        W30061  33.898  26.673   4.096
58336W        W30062  11.177   9.868   0.785
58337W        W30063   7.752  23.833   0.272
58338W        W30064  27.344   8.112   1.653
58339W        W30065  19.072  20.160   4.136
58340W        W30066  18.697  18.798   1.353
58341W        W30067  37.399  38.964  11.809
58342W        W30068  32.716   7.696  11.716
58343W        W30069  17.324  33.947   1.921
58344W        W30070  38.607  23.724  11.151
58345W        W30071   2.710   7.763   3.240
58346W        W30072  18.831  34.042  12.605
58347W        W30073  12.632  22.620  12.268
58348W        W30074   7.841  17.631   1.867
58349W        W30075  32.569  20.233   3.787
58350W        W30076  10.222  15.122  10.370
58351W        W30077  16.142  11.764  10.795
58352W        W30078  37.769  31.478  10.746
58353W        W30079  22.062  41.861  10.718
58354W        W30080  36.021  23.642  14.513
58355W        W30081  12.590   3.733   4.444
58356W        W30082  31.619  44.169   2.605
58357W        W30083  30.719  41.411  10.088
58358W        W30084  31.928  16.132  14.786
58359W        W30085  35.818   2.675   1.510
58360W        W30086  20.287  38.651  12.978
58361W        W30087  19.169  30.117   3.219
58362W        W30088  25.486  41.518  14.071
58363W        W30089  27.513  14.175   3.987
58364W        W30090   4.895   7.588   0.490
58365W        W30091  11.873  23.158   2.211
58366W        W30092  19.568  14.486   1.710
58367W        W30093  28.122  32.481   3.778
58368W        W30094  42.420  15.354   1.407
58369W        W30095   2.819   0.733  10.748
58370W        W30096  10.194  19.980   3.402
58371W        W30097  10.391   2.223   1.750
58372W        W30098  16.204   0.949   0.029
58373W        W30099   7.880  34.536  12.320
58374W        W30100   7.088  33.871  14.799
58375W        W30101   5.592  30.349   2.315
58376W        W30102  23.158  39.571   3.516
58377W        W30103  39.412  30.362  11.568
58378W        W30104   5.388   4.442  14.354
58379W        W30105   2.772  27.892   3.709
58380W        W30106  29.402  12.450  11.174
58381W        W30107  24.216  44.958  14.270
58382W        W30108  41.569  14.117   4.486
58383W        W30109  11.349  42.359  10.668
58384W        W30110   2.469  40.034   0.200
58385W        W30111  24.950   8.647  14.622
58386W        W30112   5.684  43.109  10.317
58387W        W30113   9.807   3.831   0.247
58388W        W30114  11.106  19.665  10.531
58389W        W30115   0.294  43.951  13.743
58390W        W30116  35.147  29.088  14.547
58391W        W30117  16.192  18.007  14.490
58392W        W30118  32.886  30.639  13.769
58393W        W30119  28.599  34.346  14.785
58394W        W30120  38.540  22.131  14.922
58395W        W30121  31.928  11.729   0.349
58396W        W30122   4.625  17.243   5.043
58397W        W30123  36.403  35.112  14.787
58398W        W30124  19.127  34.108   0.767
58399W        W30125  41.444  29.436   1.368
58400W        W30126  22.403  29.481  12.088
58401W        W30127  37.060  32.691   3.683
58402W        W30128  12.055  22.703   2.388
58403W        W30129  16.670  34.849   0.220
58404W        W30130  29.437  42.838   4.750
58405W        W30131   6.916  43.460   1.347
58406W        W30132  11.125   0.311  14.461
58407W        W30133  42.958  35.925   2.292
58408W        W30134   4.481  20.379  13.238
58409W        W30135   7.679  26.059   4.360
58410W        W30136  17.358   0.070  11.462
58411W        W30137   1.365  39.818   0.829
58412W        W30138  18.075  10.552   4.179
58413W        W30139  32.336   5.483   3.144
58414W        W30140  40.445  37.183   0.977
58415W        W30141  25.439  25.870   2.774
58416W        W30142   1.773  10.272   3.726
58417W        W30143   0.451   1.898  12.812
58418W        W30144  12.499  25.787   4.959
58419W        W30145   6.671  41.310  13.573
58420W        W30146  42.999  18.236  10.973
58421W        W30147   6.196   4.523  12.111
58422W        W30148  20.502  38.884  11.104
58423W        W30149  16.135  18.246  12.470
58424W        W30150  23.157  30.846  12.939
58425W        W30151  11.861   8.804   0.767
58426W        W30152  16.757  31.257  11.679
58427W        W30153  13.275  42.911  14.437
58428W        W30154  24.736  44.750   5.071
58429W        W30155  24.949  17.654  10.728
58430W        W30156  25.565   3.500  14.052
58431W        W30157   3.666   4.841  11.433
58432W        W30158  20.775  25.339  12.824
58433W        W30159  35.940  15.351   3.942
58434W        W30160   9.322   6.951   3.586
58435W        W30161  16.893  27.826   0.957
58436W        W30162  18.125  14.271  12.607
58437W        W30163   0.844   4.645   5.068
58438W        W30164  43.877   4.441  10.435
58439W        W30165  33.958  17.764   0.007
58440W        W30166  37.347  27.539   1.211
58441W        W30167   3.248  26.071   1.268
58442W        W30168  38.533   0.297   0.836
58443W        W30169  33.569  19.014   0.331
58444W        W30170   8.246  41.425  13.346
58445W        W30171  18.145  10.285  11.521
58446W        W30172  44.293   3.870   2.362
58447W        W30173   4.413  30.089   0.988
58448W        W30174  18.342  40.943  11.004
58449W        W30175   4.689  20.653   3.683
58450W        W30176  16.845   1.810   3.200
58451W        W30177   8.341  14.650   0.362
58452W        W30178  16.371  19.775  14.131
58453W        W30179  40.925  32.503   0.769
58454W        W30180  22.275  36.576   1.823
58455W        W30181  10.436   1.223   3.423
58456W        W30182  27.792   7.241   1.340
58457W        W30183  32.780   9.686  11.016
58458W        W30184  10.146  26.489   5.016
58459W        W30185   2.257  39.378   2.458
58460W        W30186   3.766  27.501   3.750
58461W        W30187  13.233  17.761   0.261
58462W        W30188  35.031   3.832   3.302
58463W        W30189   6.378  11.481  10.248
58464W        W30190  35.022  37.485   4.913
58465W        W30191  17.742  31.676   4.123
58466W        W30192  27.157  33.128   1.768
58467W        W30193   0.161  40.914  12.026
58468W        W30194  36.552  39.818  11.678
58469W        W30195  31.932  14.051   4.984
58470W        W30196   6.245  31.550  13.807
58471W        W30197  11.233   8.694   0.279
58472W        W30198  23.252  34.672   3.897
58473W        W30199  15.672  13.159  11.504
58474W        W30200  31.609  17.271  12.092
58475W        W30201  38.669  34.938   2.372
58476W        W30202   4.710  11.186  13.931
58477W        W30203  10.672   0.001  10.434
58478W        W30204  15.146   6.266  11.367
58479W        W30205   9.480  43.006  12.336
58480W        W30206   6.327  25.515   4.225
58481W        W30207   9.688  21.558  13.314
58482W        W30208  14.224  12.635   4.901
58483W        W30209  16.582  24.088   1.618
58484W        W30210  20.588  30.917  12.721
58485W        W30211  34.150  13.833  13.886
58486W        W30212   9.143   7.389   5.089
58487W        W30213  40.346  40.280   4.829
58488W        W30214  25.134  23.502  13.826
58489W        W30215   9.879  36.907  11.439
58490W        W30216  25.087   9.628  11.376
58491W        W30217   1.365   6.884  12.602
58492W        W30218  27.747  33.948  12.424
58493W        W30219  40.067  26.161   2.541
58494W        W30220  23.711  17.510   4.321
58495W        W30221  42.919  13.697   0.616
58496W        W30222  25.917  42.079  10.585
58497W        W30223  19.329   3.422   1.762
58498W        W30224  34.837  21.756  12.570
58499W        W30225   9.098   6.348  13.386
58500W        W30226   6.325  37.537   2.742
58501W        W30227  38.435  10.463   0.952
58502W        W30228  33.036  32.793   2.777
58503W        W30229   2.872  14.374   3.656
58504W        W30230   1.956  44.462  11.140
58505W        W30231  27.600   9.784   2.783
58506W        W30232  12.397  25.481   3.024
58507W        W30233  10.350  32.723  10.762
58508W        W30234  24.151  32.787  12.720
58509W        W30235  42.110  20.501   0.764
58510W        W30236  42.821  31.669   3.895
58511W        W30237  30.367  29.278  12.179
58512W        W30238  17.270  40.980  10.639
58513W        W30239  16.209  25.075  11.819
58514W        W30240  37.863  43.402   3.244
58515W        W30241  14.328  21.753  10.702
58516W        W30242  31.571  10.432   1.515
58517W        W30243  17.999  13.876   1.966
58518W        W30244   2.922  15.690  11.551
58519W        W30245  23.729   6.653  13.365
58520W        W30246   9.519  28.684  13.993
58521W        W30247   1.510  10.343   3.262
58522W        W30248  13.807   8.528  12.544
58523W        W30249  43.065  16.249  14.407
58524W        W30250   9.867  38.819  12.570
58525W        W30251  19.733  18.637   3.579
58526W        W30252  34.577  23.228  13.433
58527W        W30253  28.556  25.220  10.367
58528W        W30254  13.568  26.248   3.346
58529W        W30255  17.241  40.397   0.213
58530W        W30256  15.850   0.980   1.155
58531W        W30257  23.245  40.990   1.645
58532W        W30258  44.493  30.451   0.806
58533W        W30259  31.868  42.419  11.420
58534W        W30260  23.196  16.135   2.239
58535W        W30261  33.651   1.599   5.064
58536W        W30262  28.870  11.716  13.538
58537W        W30263   0.954  26.801   1.443
58538W        W30264  17.541  28.040  10.566
58539W        W30265  24.069  27.645  11.596
58540W        W30266  27.252  19.841   4.100
58541W        W30267  44.329  14.636   2.763
58542W        W30268  25.973   8.248   3.681
58543W        W30269  10.957  11.490   2.833
58544W        W30270   0.814   8.827  13.647
58545W        W30271   2.965  40.992  11.574
58546W        W30272  17.566  37.514  11.076
58547W        W30273   2.134  15.164  12.852
58548W        W30274  25.707  22.068   3.823
58549W        W30275  39.634  27.476  14.823
58550W        W30276  38.017   9.749  10.586
58551W        W30277  40.607  44.417   2.173
58552W        W30278  14.668  25.365   4.171
58553W        W30279  32.110  14.569   5.009
58554W        W30280  10.815  20.563   4.126
58555W        W30281  23.412  34.328  12.967
58556W        W30282  27.223  24.547  13.544
58557W        W30283  34.506   0.196   0.747
58558W        W30284  11.147   2.019   1.280
58559W        W30285  44.003  17.874   3.058
58560W        W30286   2.964  34.339   2.299
58561W        W30287  31.019  21.562  13.527
58562W        W30288  26.644  22.208  12.894
58563W        W30289  23.544  30.893  14.981
58564W        W30290  28.984   5.679  10.620
58565W        W30291  29.382  22.718  11.134
58566W        W30292   5.859  39.783   3.894
58567W        W30293  38.072   8.294   3.030
58568W        W30294  27.647  17.817   0.364
58569W        W30295  33.953  38.341   0.983
58570W        W30296  14.295  30.963   3.660
58571W        W30297  16.312  14.391  14.971
58572W        W30298  27.644  20.936  11.718
58573W        W30299  38.315  35.326   1.474
58574W        W30300  44.842  40.827   2.765
58575W        W30301  43.542  28.560  12.021
58576W        W30302  19.260  10.516  11.237
58577W        W30303  43.955  24.989   1.037
58578W        W30304  39.375  20.260  12.937
58579W        W30305  43.807  37.843   3.388
58580W        W30306  16.496  28.066  10.693
58581W        W30307  37.891  40.486  11.882
58582W        W30308  38.114  31.991   2.889
58583W        W30309  42.872  11.517   3.212
58584W        W30310  15.144  11.576   4.589
58585W        W30311  40.056   1.416   0.043
58586W        W30312  27.635  34.465  12.415
58587W        W30313   0.857  26.486   9.812
58588W        W30314   0.900  15.576   1.853
58589W        W30315  23.608  34.911  10.777
58590W        W30316  28.282   4.862   4.883
58591W        W30317   7.226  36.044  14.383
58592W        W30318  40.062  42.813  14.410
58593W        W30319  19.233  28.985   2.355
58594W        W30320   2.857  42.787   0.419
58595W        W30321  42.912  32.083  14.950
58596W        W30322   2.037  34.068  11.090
58597W        W30323  31.674   6.768  12.027
58598W        W30324   3.987  17.326   4.319
58599W        W30325  21.638  27.564   1.566
58600W        W30326  24.026  22.031   2.169
58601W        W30327   2.987   0.477  13.061
58602W        W30328  13.443   0.754  14.574
58603W        W30329  27.484  43.319   4.564
58604W        W30330   0.952  35.497   1.810
58605W        W30331   6.860   4.887   5.015
58606W        W30332  37.573  41.489  12.953
58607W        W30333   0.435  14.584  14.781
58608W        W30334  22.285  42.925   5.321
58609W        W30335   2.742  36.108  11.574
58610W        W30336  35.062  21.000   0.346
58611W        W30337  12.667  14.578  10.542
58612W        W30338  39.775   7.459   3.046
58613W        W30339   1.962  21.677  11.411
58614W        W30340  14.862  40.569   2.820
58615W        W30341   6.227  32.670  11.987
58616W        W30342  37.547  32.767  13.293
58617W        W30343  10.893  19.867  12.444
58618W        W30344  15.672   2.318   3.657
58619W        W30345  26.550  18.609  14.458
58620W        W30346  15.036  26.184  13.810
58621W        W30347  43.533  18.361  12.414
58622W        W30348  20.123  18.301   2.351
58623W        W30349  33.909  33.863  12.523
58624W        W30350  27.646  37.962  13.082
58625W        W30351  36.404  34.973  11.733
58626W        W30352  41.144  37.490  12.628
58627W        W30353   5.872   0.478   0.943
58628W        W30354  29.935  13.785  14.370
58629W        W30355  31.580  21.849  10.842
58630W        W30356  19.100  29.639   4.774
58631W        W30357  31.093  10.445  11.533
58632W        W30358  11.606  43.028  13.941
58633W        W30359  27.444  31.302   3.239
58634W        W30360  13.904  30.632   1.280
58635W        W30361  30.910  35.491  12.613
58636W        W30362  17.540  40.911  14.367
58637W        W30363   1.810  43.738  14.312
58638W        W30364  15.365  24.057   3.752
58639W        W30365  29.647  34.486   0.573
58640W        W30366  34.457  44.792  11.117
58641W        W30367  14.146  18.186  13.546
58642W        W30368  14.588  36.964   2.914
58643W        W30369  26.700  44.359  12.302
58644W        W30370  29.019  23.089   2.726
58645W        W30371  15.296  37.944   0.360
58646W        W30372  23.967   6.732   0.069
58647W        W30373   2.242  27.632  14.593
58648W        W30374  35.361  30.574  14.249
58649W        W30375   9.441  32.045   1.114
58650W        W30376  15.142  44.874   2.354
58651W        W30377  30.998  27.494   1.960
58652W        W30378  17.748  29.618  13.774
58653W        W30379  33.389   2.532  13.874
58654W        W30380  26.361  32.713  12.947
58655W        W30381   9.114  30.385   0.178
58656W        W30382  28.192  14.811   4.484
58657W        W30383  18.809  25.160  10.627
58658W        W30384  25.126   7.368  12.217
58659W        W30385  19.293  19.492  11.590
58660W        W30386   9.088  41.333   1.915
58661W        W30387  13.795  40.368  10.335
58662W        W30388  11.497  26.108   1.379
58663W        W30389  32.231  42.361  10.083
58664W        W30390  26.560  38.396   1.903
58665W        W30391   0.159  25.233  13.600
58666W        W30392  24.025  43.351   1.940
58667W        W30393  44.486  13.024  10.606
58668W        W30394  30.990  28.196   2.829
58669W        W30395   4.759  24.766  14.997
58670W        W30396   4.711  22.364  10.011
58671W        W30397  15.071  19.964  13.541
58672W        W30398  35.903  32.385   2.837
58673W        W30399  36.911  23.585   4.090
58674W        W30400   4.931   0.352   0.737
58675W        W30401  42.982   4.443  11.608
58676W        W30402   7.341   4.688   0.363
58677W        W30403  32.963  41.051  11.869
58678W        W30404  15.264  38.057   1.650
58679W        W30405   4.378  31.955   0.196
58680W        W30406   9.488  44.810  13.878
58681W        W30407  40.635  41.531   0.980
58682W        W30408  15.567  32.467   0.716
58683W        W30409  37.915  38.480   1.745
58684W        W30410   9.722  27.043   4.915
58685W        W30411  28.290  23.439  11.154
58686W        W30412   9.010  20.936  11.899
58687W        W30413  35.981  10.406   5.197
58688W        W30414  30.976  41.283  13.072
58689W        W30415  31.845  44.812   1.451
58690W        W30416  27.518  32.925   4.151
58691W        W30417  28.163  18.278   0.802
58692W        W30418  42.639  21.799   3.575
58693W        W30419   3.683  33.819  13.894
58694W        W30420  16.769   5.014   4.602
58695W        W30421  28.590   2.190   3.334
58696W        W30422  41.326  37.574  13.463
58697W        W30423  18.358  34.471   3.571
58698W        W30424  34.980  36.925  12.842
58699W        W30425   6.373   5.807   3.739
58700W        W30426  28.650   5.777  14.002
58701W        W30427   8.978   9.906  14.477
58702W        W30428  25.190  18.060  10.495
58703W        W30429  37.462   2.443   2.462
58704W        W30430  29.816   2.243   0.312
58705W        W30431  10.674  19.261   4.924
58706W        W30432  28.734  25.706  10.170
58707W        W30433  26.516  33.879  14.344
58708W        W30434  22.554  17.075  14.951
58709W        W30435  37.256  41.908   2.864
58710W        W30436  10.160  35.841  12.252
58711W        W30437  38.413   0.362   4.834
58712W        W30438  22.799  15.819   4.548
58713W        W30439  19.673   0.881  14.649
58714W        W30440  28.941  23.777   3.464
58715W        W30441  30.409   1.495  12.191
58716W        W30442   2.939  24.782  13.669
58717W        W30443  43.471   3.360  14.816
58718W        W30444  43.306  15.686  11.450
58719W        W30445   3.255   4.169  11.493
58720W        W30446   6.491  44.459  14.275
58721W        W30447  27.455  11.282  11.684
58722W        W30448  34.181  20.711  14.858
58723W        W30449  22.242  31.580  14.544
58724W        W30450   5.436  20.315  11.684
58725W        W30451  36.917  26.525   4.789
58726W        W30452  23.198  10.392   1.383
58727W        W30453  42.357   8.942  12.190
58728W        W30454  28.523   8.678   1.579
58729W        W30455   8.178  44.291   0.797
58730W        W30456  14.932  39.229  11.113
58731W        W30457  40.416  16.798   3.644
58732W        W30458  15.166   0.793   1.876
58733W        W30459   7.369  38.998  11.950
58734W        W30460   2.201  15.414   4.172
58735W        W30461   5.258  33.806  13.405
58736W        W30462  26.894   4.657   3.849
58737W        W30463  42.677   7.170  14.026
58738W        W30464  18.840  28.424  11.814
58739W        W30465  24.984  38.968   4.623
58740W        W30466  31.562  41.399  13.937
58741W        W30467   5.335  13.849   2.393
58742W        W30468   4.424  36.524   4.101
58743W        W30469  32.984  31.873  14.475
58744W        W30470   5.349   2.427   1.819
58745W        W30471  22.254  19.069   3.443
58746W        W30472  26.233  39.302   2.824
58747W        W30473   6.352  36.333   0.082
58748W        W30474   4.979  38.339   4.937
58749W        W30475  10.820  14.139   3.365
58750W        W30476   3.867   9.922  13.406
58751W        W30477  23.304  40.924  13.496
58752W        W30478  23.692   2.739   3.370
58753W        W30479   5.109  20.694  10.713
58754W        W30480  27.175  37.409   3.843
58755W        W30481  36.427   3.139  11.330
58756W        W30482   1.411  41.746   4.774
58757W        W30483  38.984  41.363  14.867
58758W        W30484   8.590  30.707  13.414
58759W        W30485  26.658  40.889   2.763
58760W        W30486  20.591  35.147  14.237
58761W        W30487  41.960  24.489  13.798
58762W        W30488   8.989   0.545   2.762
58763W        W30489  26.106  29.496   3.316
58764W        W30490  11.810  41.519  14.280
58765W        W30491  19.421   5.267  10.681
58766W        W30492  44.305  26.133  11.400
58767W        W30493   5.190  27.470   2.195
58768W        W30494  26.738  32.669  14.747
58769W        W30495   8.696  38.998   2.393
58770W        W30496  13.438  42.814   4.813
58771W        W30497   9.935  14.269  12.484
58772W        W30498  18.260  22.436  13.363
58773W        W30499  12.849   1.057  11.958
58774W        W30500  33.975  28.155   3.977
58775W        W30501  13.665  35.062  14.142
58776W        W30502  27.279   6.375  13.009
58777W        W30503   5.773   3.161   0.834
58778W        W30504  15.170   0.477   0.023
58779W        W30505  11.676   4.200   1.319
58780W        W30506  11.382  15.703  12.027
58781W        W30507  34.291  41.871   2.207
58782W        W30508  26.907  36.404  14.424
58783W        W30509  19.212  43.378   3.087
58784W        W30510  30.162  30.657  11.523
58785W        W30511  22.513  44.336  14.452
58786W        W30512  31.719  36.550   4.539
58787W        W30513  13.772  42.390   4.598
58788W        W30514   8.913  24.096  13.792
58789W        W30515  41.398  11.327   4.360
58790W        W30516   7.366  44.992  14.267
58791W        W30517  35.955   9.318   4.704
58792W        W30518  28.182   3.803   1.103
58793W        W30519  27.424  44.086   5.495
58794W        W30520  18.524  21.886   2.864
58795W        W30521  42.511  26.463   4.863
58796W        W30522  38.268   6.139   4.377
58797W        W30523  22.709  44.984  11.162
58798W        W30524  24.224   2.288  13.448
58799W        W30525   1.399  12.115  10.514
58800W        W30526  10.417  32.879  12.172
58801W        W30527  11.376   3.640   4.533
58802W        W30528  11.879  38.513   2.144
58803W        W30529  42.411  19.155   2.502
58804W        W30530   0.245   8.210  13.995
58805W        W30531   3.498  16.087   3.414
58806W        W30532   1.241  12.621   1.306
58807W        W30533  20.263  17.666   1.834
58808W        W30534   7.638  31.678  13.867
58809W        W30535  41.490  15.076  14.382
58810W        W30536   2.940  18.855  12.808
58811W        W30537  37.254   5.941  12.967
58812W        W30538  22.473  20.185  12.150
58813W        W30539  29.682  19.628  14.631
58814W        W30540  31.616  14.089   2.794
58815W        W30541  42.386  16.301  10.695
58816W        W30542  35.260  10.819  12.465
58817W        W30543  40.065  21.708   1.728
58818W        W30544  21.431  23.478   3.849
58819W        W30545  24.710  40.786  13.656
58820W        W30546  36.471   8.290   1.483
58821W        W30547   1.255  42.169   1.900
58822W        W30548  23.652   2.828  14.427
58823W        W30549  16.098  36.998  10.724
58824W        W30550   5.492  44.405   3.135
58825W        W30551  35.551  27.575   2.947
58826W        W30552   7.419   6.773  10.956
58827W        W30553  25.376   8.347   0.475
58828W        W30554   8.826  41.607   4.716
58829W        W30555   2.182  13.053  14.538
58830W        W30556  36.904   2.789  11.880
58831W        W30557   5.871   6.851   1.689
58832W        W30558   0.339   9.588  10.599
58833W        W30559  36.844   3.240  13.165
58834W        W30560  44.740  44.063  10.948
58835W        W30561  11.718  39.354   4.315
58836W        W30562  12.865  40.053   0.375
58837W        W30563  22.961   8.894  12.570
58838W        W30564   2.554  14.603  10.661
58839W        W30565  43.406  31.189  12.635
58840W        W30566  39.499   6.864   0.901
58841W        W30567  29.489   5.786   1.863
58842W        W30568  19.923   1.812  10.792
58843W        W30569  39.966  17.155   0.507
58844W        W30570  25.718  33.081   4.890
58845W        W30571  15.551   0.505   3.282
58846W        W30572   6.269  19.038   3.394
58847W        W30573  20.642  33.032  10.424
58848W        W30574  43.961  26.242  12.017
58849W        W30575  10.162  38.410   3.530
58850W        W30576   5.963   2.907   3.217
58851W        W30577  23.142  32.513  13.771
58852W        W30578  41.485  20.194   5.368
58853W        W30579  24.670  41.277  11.091
58854W        W30580   0.366  11.716   0.212
58855W        W30581  39.926  28.171  14.440
58856W        W30582  44.195  19.965   2.638
58857W        W30583  14.525  10.205   2.716
58858W        W30584  34.924  10.724   2.234
58859W        W30585  22.677   9.105  10.163
58860W        W30586  10.640  15.419   3.962
58861W        W30587  23.515  35.491  13.531
58862W        W30588  34.155  26.418   3.711
58863W        W30589  29.096  19.178  12.569
58864W        W30590  20.036  18.694  11.918
58865W        W30591   4.479  40.810  11.614
58866W        W30592  43.264  32.498   2.059
58867W        W30593  21.742  25.667   4.901
58868W        W30594  42.460  30.133   3.786
58869W        W30595  14.908  34.328  10.149
58870W        W30596  22.585   4.032  12.652
58871W        W30597  29.098  19.111   4.635
58872W        W30598  30.601  25.251  12.067
58873W        W30599  24.199  22.304   0.871
58874W        W30600  42.350  42.253  13.460
58875W        W30601   3.512  24.058  12.545
58876W        W30602   0.841   0.685  11.439
58877W        W30603  35.670  19.636  12.559
58878W        W30604   0.824  22.036  10.464
58879W        W30605   5.281   6.421  13.954
58880W        W30606  22.957   7.800  14.000
58881W        W30607  11.555   4.857  12.166
58882W        W30608  27.370  30.359  12.895
58883W        W30609  23.698   9.705   0.341
58884W        W30610  14.650  42.337   2.098
58885W        W30611   2.780  44.063  12.908
58886W        W30612  38.543  30.658   1.775
58887W        W30613  10.319  43.404  11.984
58888W        W30614   6.979  30.161   2.917
58889W        W30615  37.911  15.136   2.279
58890W        W30616  27.161  17.945  13.508
58891W        W30617  19.504  30.042  11.392
58892W        W30618  17.092   2.881   2.159
58893W        W30619  41.025   8.794   3.804
58894W        W30620   1.406   2.459  14.622
58895W        W30621  14.885  16.742   1.880
58896W        W30622  35.602  39.533   1.187
58897W        W30623  19.223  26.132  10.679
58898W        W30624  41.350   2.615  11.415
58899W        W30625  39.078  35.552  13.801
58900W        W30626  18.767  22.594  11.784
58901W        W30627  43.622  27.507   0.357
58902W        W30628   9.654   7.299  12.638
58903W        W30629  37.318  12.750  13.022
58904W        W30630  33.108  18.668   1.516
58905W        W30631  10.771  20.277  14.241
58906W        W30632   7.423   6.687  13.578
58907W        W30633  17.867   2.397   1.310
58908W        W30634  30.073  43.456   4.307
58909W        W30635  26.015  37.004   2.450
58910W        W30636   1.662  21.536  13.416
58911W        W30637   7.597   3.376   2.675
58912W        W30638  15.513  41.436   1.841
58913W        W30639  32.345  17.771   4.321
58914W        W30640  41.497  27.952  12.447
58915W        W30641  33.447  30.624   1.776
58916W        W30642  17.119  23.981   3.125
58917W        W30643  41.898   3.324  11.854
58918W        W30644  31.855  38.524   4.844
58919W        W30645  31.884  28.493   4.484
58920W        W30646  42.461  37.074  12.572
58921W        W30647  39.392  18.538  14.521
58922W        W30648  24.226  42.210   2.245
58923W        W30649  13.371   0.935   1.977
58924W        W30650  29.500  29.981   2.950
58925W        W30651  10.626  13.645  11.626
58926W        W30652  33.053  16.150  13.866
58927W        W30653   7.120  35.962  13.886
58928W        W30654   8.636  19.724   2.849
58929W        W30655   3.856  42.234   4.169
58930W        W30656  31.048  20.561  14.494
58931W        W30657  42.935  27.949  14.885
58932W        W30658  21.031  24.526   4.763
58933W        W30659   9.680  15.677  12.533
58934W        W30660   4.795  41.000  14.774
58935W        W30661  36.045   0.486   3.200
58936W        W30662  42.063  26.547  14.056
58937W        W30663  16.680  21.461  10.607
58938W        W30664   9.212  26.041  14.342
58939W        W30665  35.957  15.790  13.815
58940W        W30666  35.951  34.876   1.465
58941W        W30667  42.807  15.055   4.219
58942W        W30668  14.036  34.836   3.674
58943W        W30669  40.319   1.812  13.933
58944W        W30670  36.874  25.103   4.419
58945W        W30671   7.710  31.655   3.721
58946W        W30672  29.870  28.144   3.696
58947W        W30673  44.487  27.130   4.453
58948W        W30674  24.962  26.579   2.297
58949W        W30675  31.834  12.762  10.235
58950W        W30676  21.959  32.819  13.791
58951W        W30677  39.548  10.277   3.192
58952W        W30678  28.098   7.770  13.527
58953W        W30679  42.728  17.225   1.826
58954W        W30680  37.885  28.177  10.643
58955W        W30681  27.570  44.899   1.703
58956W        W30682   9.864   8.869   2.881
58957W        W30683  18.689   6.879   1.313
58958W        W30684  27.955  35.157   2.228
58959W        W30685  17.896  37.868  13.592
58960W        W30686   4.784   0.491  11.505
58961W        W30687  27.012  36.037   0.861
58962W        W30688  15.288  40.608   5.217
58963W        W30689  11.633  14.478  10.358
58964W        W30690   1.428  31.847  12.899
58965W        W30691   8.384  33.636   0.475
58966W        W30692  32.674   5.202  14.592
58967W        W30693  21.071  36.968   2.858
58968W        W30694  27.773   4.925  14.963
58969W        W30695  35.817  29.610   4.599
58970W        W30696  14.266  13.254  10.990
58971W        W30697  29.502  42.656   2.176
58972W        W30698  29.929  37.277   2.304
58973W        W30699   9.566  43.465   2.135
58974W        W30700  29.592   6.556  14.557
58975W        W30701  18.514  16.277   4.432
58976W        W30702  15.152  11.564   3.734
58977W        W30703  39.514  15.564   0.086
58978W        W30704  35.653   2.007  12.926
58979W        W30705  21.058  26.554   1.704
58980W        W30706  16.405  20.520   2.371
58981W        W30707  44.746  25.979   0.825
58982W        W30708  13.762  42.255   2.400
58983W        W30709  14.682  39.604  12.523
58984W        W30710   0.463  20.937  12.550
58985W        W30711  27.980   2.765   1.308
58986W        W30712   7.769  43.861   4.189
58987W        W30713  15.107  43.718   4.305
58988W        W30714  29.453  32.532   0.516
58989W        W30715   5.705  28.986  10.668
58990W        W30716  13.654  31.530  11.606
58991W        W30717  19.781   6.052   3.235
58992W        W30718  34.521  39.340  14.476
58993W        W30719  29.695  43.511   4.644
58994W        W30720  43.794   9.337  12.084
58995W        W30721   1.947  23.198   3.697
58996W        W30722   5.861  24.614   1.382
58997W        W30723  15.710  17.483   2.840
58998W        W30724  31.994   8.365  13.585
58999W        W30725   0.916  43.802   1.226
59000W        W30726  30.038  11.347  13.806
59001W        W30727  33.894  24.561  12.592
59002W        W30728  16.773  36.522   4.962
59003W        W30729  40.686  44.914   1.725
59004W        W30730   6.763   2.094   1.672
59005W        W30731   4.436  35.716   4.625
59006W        W30732  17.123  44.987  10.651
59007W        W30733  28.358  35.973   2.474
59008W        W30734  24.607   4.589   1.510
59009W        W30735  40.552  11.358  13.824
59010W        W30736  26.690  15.312  14.096
59011W        W30737  41.928  29.561   1.549
59012W        W30738   8.224  22.105  14.426
59013W        W30739   7.748  40.319   4.546
59014W        W30740   7.006  44.493   3.320
59015W        W30741  44.525   3.749   4.070
59016W        W30742  41.847  36.028   3.251
59017W        W30743  42.942   2.134   1.260
59018W        W30744  21.550  33.075   2.591
59019W        W30745   5.685  43.932  12.779
59020W        W30746   6.205  17.861   4.298
59021W        W30747  34.367  33.977   4.128
59022W        W30748   1.948  27.275   3.239
59023W        W30749  10.924  18.492  12.048
59024W        W30750  19.155  11.293  12.391
59025W        W30751  38.943   2.688  13.431
59026W        W30752  16.152   3.029  14.070
59027W        W30753  31.139  32.860  14.824
59028W        W30754  29.480  10.223   4.080
59029W        W30755   4.903  21.802   4.072
59030W        W30756   1.311  37.891  13.401
59031W        W30757  20.302  11.121  12.468
59032W        W30758  41.927   9.871   3.862
59033W        W30759  18.299  25.054  14.085
59034W        W30760  41.383   1.454  11.993
59035W        W30761  31.193  44.738  12.507
59036W        W30762   7.195   7.624  10.670
59037W        W30763  26.744   6.040  12.548
59038W        W30764  35.878   5.470   4.072
59039W        W30765  15.546  33.197  12.274
59040W        W30766  35.716  29.143  12.920
59041W        W30767  23.727  41.954  14.421
59042W        W30768  15.224   3.353   4.269
59043W        W30769  10.522  28.271  11.705
59044W        W30770  16.667  38.529  10.260
59045W        W30771  28.520  35.625  11.536
59046W        W30772   0.208   3.666  11.143
59047W        W30773  35.037  10.261  13.526
59048W        W30774  22.099  42.086   1.399
59049W        W30775   2.227   2.399   3.986
59050W        W30776  19.256  19.199   2.722
59051W        W30777  21.764   3.784  13.460
59052W        W30778  21.349   0.173   3.662
59053W        W30779  11.569  37.863   4.005
59054W        W30780  34.510  19.330  10.945
59055W        W30781  28.985  37.020   4.298
59056W        W30782  21.477   8.267   2.419
59057W        W30783   3.606  42.799  10.214
59058W        W30784  20.779  27.520  13.811
59059W        W30785  13.885  15.820  11.924
59060W        W30786  32.425  10.659   2.633
59061W        W30787  10.381   1.429  13.790
59062W        W30788  31.507  29.646  13.366
59063W        W30789   1.845  20.014   2.135
59064W        W30790  34.880  35.991   4.626
59065W        W30791  38.820   8.301  11.708
59066W        W30792  14.665  17.512   1.327
59067W        W30793  28.644  18.279  14.465
59068W        W30794  27.071  13.822   3.471
59069W        W30795  27.448   8.010   3.376
59070W        W30796  20.040  14.898   4.315
59071W        W30797  35.667   8.105  12.663
59072W        W30798  12.276   4.805   4.374
59073W        W30799  22.511  13.596  12.069
59074W        W30800  44.927  10.677  14.732
59075W        W30801   2.673  26.047   0.353
59076W        W30802  42.089  22.073  12.193
59077W        W30803  27.999  22.207   2.781
59078W        W30804  22.207  34.523  13.358
59079W        W30805  12.815  20.310  12.559
59080W        W30806  38.344  10.371  11.871
59081W        W30807  30.174  38.426  10.556
59082W        W30808   9.574  41.617   2.663
59083W        W30809  26.488  20.250  10.573
59084W        W30810  40.137  19.647   4.624
59085W        W30811   3.273  42.979  12.001
59086W        W30812  29.067  23.153  13.408
59087W        W30813  28.470  40.468  14.459
59088W        W30814  29.848  19.350   0.112
59089W        W30815  38.286   8.192   3.942
59090W        W30816  33.891  27.917   1.657
59091W        W30817  29.072  10.681   4.280
59092W        W30818  10.151  25.660  12.105
59093W        W30819   8.416  22.103   0.856
59094W        W30820  15.947  31.490  14.454
59095W        W30821  25.509  23.944   4.475
59096W        W30822  14.586  41.304  14.782
59097W        W30823   0.457  34.124   4.104
59098W        W30824  17.180  21.693  10.779
59099W        W30825   9.236   7.565  12.018
59100W        W30826  17.626  36.233   4.764
59101W        W30827  18.262  32.496  14.759
59102W        W30828   3.891  23.528   3.881
59103W        W30829   0.136  12.558   3.216
59104W        W30830  30.879  30.230  12.119
59105W        W30831  23.223  16.877  10.665
59106W        W30832  21.552  10.115   4.728
59107W        W30833  19.590  25.245  12.051
59108W        W30834  19.543  28.225  12.175
59109W        W30835  21.099  11.730  11.953
59110W        W30836  33.815  35.021   0.868
59111W        W30837  38.680  34.538   5.038
59112W        W30838  13.665   1.972   1.279
59113W        W30839  26.964   2.455   4.222
59114W        W30840  21.837  38.613  10.997
59115W        W30841  13.121   7.374   3.669
59116W        W30842  28.622  26.428   4.784
59117W        W30843  11.620  33.919  11.161
59118W        W30844   2.376  12.169   3.578
59119W        W30845   6.058  40.776   3.616
59120W        W30846  34.478  44.290  10.362
59121W        W30847   4.773  11.931   0.754
59122W        W30848  34.922  10.582   1.231
59123W        W30849  35.056  39.591   2.423
59124W        W30850  19.769  17.339   2.736
59125W        W30851  33.458  38.754   0.249
59126W        W30852  11.368  33.853  14.996
59127W        W30853  14.759   0.858   0.205
59128W        W30854  28.377  38.109  11.049
59129W        W30855   2.244  23.047   2.808
59130W        W30856  33.501  29.320   3.687
59131W        W30857   4.435  34.279  11.193
59132W        W30858  16.293   8.420  13.241
59133W        W30859  23.950  11.426  11.214
59134W        W30860  12.081  37.874   2.311
59135W        W30861   0.130  34.597   4.065
59136W        W30862  19.852  12.324   1.751
59137W        W30863  14.318  29.849  11.579
59138W        W30864  33.011  34.080   4.709
59139W        W30865  23.476  36.596   0.516
59140W        W30866  41.899  34.869  12.069
59141W        W30867  18.466  15.288   3.702
59142W        W30868  38.017  32.069  11.988
59143W        W30869  40.860  35.162  11.999
59144W        W30870   4.283  15.290  14.851
59145W        W30871  21.924  38.260  14.325
59146W        W30872  38.982   7.957   1.685
59147W        W30873  22.493  16.842  14.463
59148W        W30874  22.624  24.217  12.393
59149W        W30875  23.687  41.253  13.177
59150W        W30876  26.478  10.847   0.773
59151W        W30877  33.925  17.030  11.402
59152W        W30878  22.508   3.853  10.627
59153W        W30879   6.051  13.064  11.521
59154W        W30880  30.026   7.879  14.099
59155W        W30881  20.735   7.735   0.786
59156W        W30882  31.309  34.586   3.764
59157W        W30883  18.732  18.748  13.392
59158W        W30884  13.122   6.643   3.313
59159W        W30885  26.076  40.941   2.251
59160W        W30886  42.368   9.826   4.678
59161W        W30887  14.882  26.468  10.503
59162W        W30888  20.005  43.799  11.095
59163W        W30889   2.735  23.839  11.522
59164W        W30890  36.359   9.782   2.817
59165W        W30891  20.023  33.571   3.209
59166W        W30892  20.048  19.045  13.093
59167W        W30893  33.076  11.843  11.455
59168W        W30894   1.496   3.726  14.708
59169W        W30895  16.879  25.441   1.652
59170W        W30896  24.449  37.234   0.927
59171W        W30897   1.796   4.802  10.621
59172W        W30898  42.271  27.507  13.497
59173W        W30899  32.855   2.418   3.659
59174W        W30900  37.867  32.404  14.902
59175W        W30901  27.073   8.953   1.413
59176W        W30902  35.958  31.722   4.700
59177W        W30903   1.702  29.904  14.272
59178W        W30904  31.973  42.758   0.845
59179W        W30905  22.223  20.972   3.619
59180W        W30906  21.152  32.648  10.845
59181W        W30907  26.959  16.583  14.059
59182W        W30908  15.532  41.347  13.743
59183W        W30909  37.299  43.334  12.179
59184W        W30910  32.995  18.489   4.311
59185W        W30911  35.163  34.041   2.839
59186W        W30912  37.812  36.880  13.155
59187W        W30913  15.202  28.511  12.145
59188W        W30914  36.395  22.408   5.023
59189W        W30915  36.580  37.281   2.310
59190W        W30916  37.414  13.000  13.891
59191W        W30917  41.861  13.679   1.760
59192W        W30918   6.404  12.128   3.171
59193W        W30919  10.797  35.700   3.138
59194W        W30920  19.543   2.875   3.220
59195W        W30921  42.087  20.620  12.247
59196W        W30922   3.809  14.519  12.423
59197W        W30923  32.992   0.462   3.446
59198W        W30924   2.727  10.868  10.721
59199W        W30925  28.166  34.812   1.280
59200W        W30926   1.455  12.558   2.216
59201W        W30927  16.545  18.163  13.580
59202W        W30928  35.142  19.627  12.573
59203W        W30929  16.682   3.560  10.006
59204W        W30930  25.034   1.960  11.516
59205W        W30931  32.576  19.597  11.606
59206W        W30932  11.240   3.716   1.823
59207W        W30933  34.509  17.264   3.160
59208W        W30934  29.846  34.350   3.672
59209W        W30935  44.235   8.915  14.473
59210W        W30936  26.384  28.119   3.306
59211W        W30937  29.628   4.471   4.356
59212W        W30938   2.044  27.979  11.921
59213W        W30939  13.840   3.341   4.634
59214W        W30940  40.322  15.067  13.741
59215W        W30941  12.845   3.303   3.741
59216W        W30942  24.528   5.386   2.750
59217W        W30943  21.109   7.637   0.441
59218W        W30944   4.916  39.923  12.137
59219W        W30945  19.679  19.511   0.700
59220W        W30946   4.798  42.585   3.256
59221W        W30947  44.934  44.033   3.267
59222W        W30948  39.105  19.305  11.597
59223W        W30949  13.694  29.078   0.374
59224W        W30950  30.833  25.582  11.540
59225W        W30951  14.840  18.153  11.043
59226W        W30952  29.510  16.615  12.518
59227W        W30953  17.841  21.394   2.862
59228W        W30954   7.339  28.948   0.015
59229W        W30955   1.428  12.990   0.326
59230W        W30956  41.328   0.465  13.545
59231W        W30957   8.340   2.769  12.617
59232W        W30958   1.937   6.666  14.397
59233W        W30959  38.341  23.763   3.222
59234W        W30960  20.901  28.931  14.003
59235W        W30961  42.916   0.730   2.905
59236W        W30962   5.814   8.988   3.075
59237W        W30963  23.005   1.960  12.998
59238W        W30964  41.983  16.037  10.943
59239W        W30965  18.062  34.545   4.474
59240W        W30966  15.741  40.765   2.230
59241W        W30967  17.144  12.332  13.326
59242W        W30968  43.002  43.996  13.096
59243W        W30969   7.284  27.971  12.921
59244W        W30970   3.491  41.005   2.633
59245W        W30971  22.006  37.626   0.914
59246W        W30972   3.812  30.458   3.238
59247W        W30973  25.806  29.090   1.769
59248W        W30974  33.601  29.878   1.863
59249W        W30975  37.230  37.993   4.516
59250W        W30976  42.380  12.067  11.582
59251W        W30977  13.637   7.837  11.250
59252W        W30978  31.249  12.513   1.226
59253W        W30979  19.278  34.275  10.999
59254W        W30980  22.115  22.043  10.480
59255W        W30981  13.161   9.231  11.704
59256W        W30982  11.842  44.830  11.786
59257W        W30983  11.262  19.273  14.342
59258W        W30984  18.836  26.605   2.877
59259W        W30985  16.830  34.003   3.319
59260W        W30986  25.507  10.784   0.343
59261W        W30987  20.537  25.194   2.803
59262W        W30988  31.045  21.755   0.476
59263W        W30989  39.707  44.733  11.669
59264W        W30990  39.030  42.526   4.242
59265W        W30991  30.935  11.452   3.860
59266W        W30992  36.991  37.290  11.681
59267W        W30993  26.527  21.838  14.614
59268W        W30994  37.936  16.508  14.448
59269W        W30995   6.394   1.429   1.259
59270W        W30996  29.436  43.561  13.918
59271W        W30997   4.352  42.672   3.846
59272W        W30998  29.420  27.955   0.051
59273W        W30999  25.437  33.608  13.903
59274W        W31000   5.261  11.166  14.624
59275W        W31001  22.257  22.154   4.341
59276W        W31002   7.315  27.285   4.615
59277W        W31003  22.159  25.453  12.667
59278W        W31004  21.148  25.022  13.462
59279W        W31005  20.436  35.578   0.022
59280W        W31006   8.418  26.609  12.361
59281W        W31007  25.561  16.082   4.658
59282W        W31008  11.134  16.358  12.589
59283W        W31009  23.307  23.174  12.440
59284W        W31010   8.350  40.798   2.136
59285W        W31011   2.479  42.233  12.449
59286W        W31012  31.490  23.749  12.664
59287W        W31013  22.710  13.694  10.261
59288W        W31014   0.791  11.113  13.509
59289W        W31015  23.123  18.626   1.871
59290W        W31016  43.205  24.448  13.029
59291W        W31017  25.626   8.273  14.435
59292W        W31018  36.572   8.222  12.771
59293W        W31019  12.327  25.223   2.506
59294W        W31020  18.145  21.919   1.510
59295W        W31021  28.937  24.216   3.197
59296W        W31022  26.225  12.201  13.791
59297W        W31023   4.205  44.768  11.535
59298W        W31024   0.711  24.773  11.070
59299W        W31025   4.179  21.800  13.118
59300W        W31026  35.903   1.846   1.516
59301W        W31027   1.298   1.524  11.318
59302W        W31028  18.236  37.164   0.322
59303W        W31029  11.394  26.098  12.055
59304W        W31030   4.600  31.256   2.766
59305W        W31031  26.092  27.637  13.467
59306W        W31032  10.393   8.736  10.241
59307W        W31033  12.871  28.996  14.917
59308W        W31034  24.586  35.864   2.145
59309W        W31035  26.973  15.101  13.027
59310W        W31036  16.313  28.993   4.210
59311W        W31037   9.831  19.917  13.356
59312W        W31038  16.724  44.499   1.356
59313W        W31039   3.857  44.453  14.405
59314W        W31040  39.749  18.086  11.435
59315W        W31041  32.365  30.893   0.810
59316W        W31042  18.741  20.444   0.459
59317W        W31043  24.315  19.620  12.045
59318W        W31044  21.783  12.841  13.375
59319W        W31045  41.163  16.186   3.338
59320W        W31046  29.946   1.999  12.589
59321W        W31047   9.957  35.625   4.058
59322W        W31048  22.795  19.781  14.983
59323W        W31049  32.615  37.363  14.048
59324W        W31050  32.599  29.935   3.610
59325W        W31051  11.661  42.891  13.029
59326W        W31052  18.540  16.254  11.558
59327W        W31053  38.585  39.486  13.421
59328W        W31054  44.451  23.715  13.041
59329W        W31055  12.401  30.309  13.328
59330W        W31056  15.038  23.606   1.317
59331W        W31057   4.745  34.633   3.879
59332W        W31058  14.711  38.401   9.804
59333W        W31059  19.130   9.010  10.448
59334W        W31060   0.358  37.244   0.179
59335W        W31061  13.311  22.939  11.706
59336W        W31062  42.831  23.228   1.421
59337W        W31063  17.684  28.536   2.128
59338W        W31064  22.796  43.631   0.714
59339W        W31065  12.442  37.898  10.857
59340W        W31066  21.594  40.202  13.040
59341W        W31067  15.420  21.521   4.735
59342W        W31068   4.668  44.070   0.861
59343W        W31069  19.488  19.759   5.034
59344W        W31070   8.627  42.537   1.316
59345W        W31071  37.306  44.790  14.862
59346W        W31072  11.167   0.922  12.451
59347W        W31073   9.419  21.635  10.511
59348W        W31074  38.415   5.592  12.186
59349W        W31075   2.495  42.473   4.164
59350W        W31076  29.187  44.341  12.090
59351W        W31077  15.672  36.699  12.868
59352W        W31078   2.916  42.993  10.639
59353W        W31079  31.244  15.002  13.493
59354W        W31080  22.070  30.166   0.375
59355W        W31081  23.724  42.265  11.492
59356W        W31082  20.486  26.920   5.179
59357W        W31083   7.461  19.385   4.783
59358W        W31084   0.375  15.940   3.570
59359W        W31085  15.540   9.853  13.880
59360W        W31086  35.766  25.996   3.367
59361W        W31087  39.743  25.953   0.020
59362W        W31088   9.167  14.765  12.286
59363W        W31089  33.615   9.899   4.766
59364W        W31090  43.848  36.395  13.483
59365W        W31091  35.305   4.854  10.750
59366W        W31092  13.765  31.057  12.495
59367W        W31093   0.261   6.434  11.573
59368W        W31094  24.092  15.236   0.679
59369W        W31095  15.668  26.036   1.685
59370W        W31096   0.047  19.625   4.426
59371W        W31097  18.716  25.559  14.982
59372W        W31098   0.688   6.691   0.277
59373W        W31099   2.450  13.628   0.510
59374W        W31100  43.333  35.198   1.265
59375W        W31101  20.606  30.160  11.980
59376W        W31102   3.784   0.983   1.824
59377W        W31103  43.336  18.165  14.516
59378W        W31104  11.584  37.543  13.816
59379W        W31105  34.042  40.291  11.667
59380W        W31106  13.596  14.213   1.057
59381W        W31107   7.620  31.629   4.562
59382W        W31108  21.192   4.341  10.457
59383W        W31109  44.179  12.078   0.858
59384W        W31110  30.185   6.736  12.147
59385W        W31111   5.096   6.786   2.431
59386W        W31112  38.495  40.160   3.125
59387W        W31113   2.223  24.770   4.149
59388W        W31114  27.979  19.512  12.307
59389W        W31115  34.661  39.105   4.402
59390W        W31116  26.123  35.471   3.554
59391W        W31117  39.303   2.343   0.236
59392W        W31118  16.623  20.844   1.839
59393W        W31119   6.772  27.031  13.990
59394W        W31120  41.059   9.897   1.181
59395W        W31121  34.743  43.055  10.503
59396W        W31122  39.420  22.265   3.670
59397W        W31123  25.001  40.721  11.559
59398W        W31124  40.415  26.947   1.386
59399W        W31125  13.791   0.194   2.083
59400W        W31126   4.807  23.492   1.274
59401W        W31127  34.970  19.800  13.559
59402W        W31128  30.911   3.407   4.901
59403W        W31129   5.164  28.861   0.736
59404W        W31130  32.878   2.285   0.736
59405W        W31131  35.006  10.226   2.008
59406W        W31132  43.310  20.142  14.740
59407W        W31133  15.789   8.371   3.305
59408W        W31134  26.941  34.516   1.500
59409W        W31135  23.304  40.864   2.157
59410W        W31136   0.529   5.828   2.327
59411W        W31137  26.619  15.554   2.181
59412W        W31138  10.698  38.289  14.299
59413W        W31139  25.977  33.942  11.067
59414W        W31140  39.603  20.198   3.907
59415W        W31141  39.866  33.110   1.343
59416W        W31142  43.832  11.717  11.492
59417W        W31143   7.617  40.616  13.499
59418W        W31144  25.478  27.725   2.315
59419W        W31145  15.033  19.239   4.816
59420W        W31146  15.536  23.584  12.312
59421W        W31147  35.172  35.166   0.722
59422W        W31148  41.910   8.874   0.572
59423W        W31149  12.274   5.332   0.252
59424W        W31150  28.598  25.809   3.693
59425W        W31151   9.748   4.165   4.840
59426W        W31152   1.918  18.223   4.520
59427W        W31153   9.062   6.187   3.977
59428W        W31154  14.052   5.758   4.626
59429W        W31155  10.805  19.685   4.052
59430W        W31156  10.308   2.053   4.077
59431W        W31157  42.890  43.697  11.276
59432W        W31158  26.207  17.843   0.345
59433W        W31159  23.685  32.017  13.395
59434W        W31160  13.843  25.546   2.831
59435W        W31161  26.578  18.479  13.066
59436W        W31162  33.071  25.767  10.758
59437W        W31163  29.179  33.419   2.599
59438W        W31164  13.068  41.832  12.972
59439W        W31165  43.102  33.421  14.662
59440W        W31166  30.978  26.265   5.092
59441W        W31167  26.915   5.904   1.887
59442W        W31168  10.784  35.950  13.862
59443W        W31169  36.582  34.031  10.685
59444W        W31170  41.008   8.135  14.596
59445W        W31171  36.213   6.706  12.940
59446W        W31172  27.972  43.293  11.402
59447W        W31173  24.806   8.747  13.526
59448W        W31174  13.813  23.117   0.495
59449W        W31175  37.573  38.345  12.569
59450W        W31176   9.790  41.384   3.091
59451W        W31177   7.962  36.976   3.181
59452W        W31178  37.003  39.553  11.676
59453W        W31179  33.721   0.025   2.846
59454W        W31180   4.008  38.311   1.730
59455W        W31181  19.687   1.409  13.981
59456W        W31182   1.763   6.438  13.926
59457W        W31183  38.524  43.426  12.096
59458W        W31184  36.108  43.960  12.925
59459W        W31185  43.280   6.326  11.400
59460W        W31186  14.273  34.732   0.376
59461W        W31187  42.922  21.695   1.728
59462W        W31188   3.519   8.620  13.520
59463W        W31189  31.482  24.621   4.555
59464W        W31190  16.822  18.959   0.893
59465W        W31191  14.667  12.396   1.816
59466W        W31192  13.821  32.428  14.818
59467W        W31193  38.799  42.629  11.132
59468W        W31194  43.195  13.709  12.399
59469W        W31195  17.286  12.809   3.988
59470W        W31196   2.354   4.462  13.401
59471W        W31197  32.348  14.635   1.490
59472W        W31198  25.078   0.625   0.119
59473W        W31199  24.299  44.748  12.910
59474W        W31200   7.539   6.284   0.410
59475W        W31201   4.657   5.384   2.394
59476W        W31202  43.952  18.718  11.175
59477W        W31203   4.363  36.215   4.509
59478W        W31204  42.929   1.075   3.940
59479W        W31205   4.920   9.024  11.182
59480W        W31206  42.538  40.633   1.932
59481W        W31207  18.516  22.216   2.349
59482W        W31208  16.510  11.162  13.343
59483W        W31209   6.690  42.885   2.688
59484W        W31210   6.895  34.739  11.429
59485W        W31211  10.491  42.402   0.502
59486W        W31212  13.945   2.921  11.581
59487W        W31213  16.915  26.716  11.997
59488W        W31214  23.128  14.631  14.159
59489W        W31215  15.169  34.527   2.179
59490W        W31216  25.949  22.539   2.189
59491W        W31217  29.100   1.888  13.968
59492W        W31218   2.300  42.976  13.182
59493W        W31219  36.750  20.230   2.521
59494W        W31220  34.013  11.173  12.584
59495W        W31221  26.763  35.846  11.947
59496W        W31222  43.069  28.950   0.264
59497W        W31223   7.357  26.532   2.276
59498W        W31224  14.153   6.600   3.351
59499W        W31225  34.993  27.744  14.443
59500W        W31226  23.469  23.600   3.842
59501W        W31227  25.021   4.705  11.951
59502W        W31228  22.100  35.468   0.260
59503W        W31229  44.432  32.045   4.697
59504W        W31230   1.979  37.735  11.583
59505W        W31231  37.939  19.743   3.132
59506W        W31232  23.656  30.678  11.049
59507W        W31233  12.458  38.470  14.792
59508W        W31234  34.090   0.716  12.905
59509W        W31235  39.351   5.332   4.369
59510W        W31236   7.170   7.260   1.224
59511W        W31237  25.848  10.083  13.442
59512W        W31238  11.422  28.426   4.158
59513W        W31239  29.588   8.705   0.406
59514W        W31240  18.076  30.646   3.910
59515W        W31241  22.267   8.652   1.938
59516W        W31242  16.646  12.837   1.423
59517W        W31243   4.357   9.700  14.378
59518W        W31244  37.240  15.198  12.845
59519W        W31245   4.007  41.760   4.076
59520W        W31246  22.479  37.622  12.797
59521W        W31247  22.195  34.176   2.340
59522W        W31248  27.155  28.106   3.380
59523W        W31249   4.461  34.220   2.240
59524W        W31250  16.264  15.523  13.854
59525W        W31251  24.185  44.849  11.072
59526W        W31252  24.001  14.608   3.369
59527W        W31253   6.242  25.480  12.911
59528W        W31254  11.234  44.166  12.778
59529W        W31255  17.568  15.179  14.954
59530W        W31256   5.542  38.883   3.799
59531W        W31257  11.851  43.325  11.108
59532W        W31258   8.280  38.970  13.879
59533W        W31259   6.428  29.188   3.621
59534W        W31260  42.386  11.154  12.046
59535W        W31261  37.124  19.180   0.265
59536W        W31262   3.445  35.668  14.002
59537W        W31263  16.568  12.053  14.485
59538W        W31264  33.074  36.493  12.113
59539W        W31265   1.283  35.422   3.168
59540W        W31266  23.368  41.259   1.215
59541W        W31267   6.969   7.211   2.116
59542W        W31268  32.911   8.109  12.463
59543W        W31269  38.550  24.766   2.934
59544W        W31270  27.473   0.191  13.509
59545W        W31271  22.459  27.004   0.257
59546W        W31272   7.642  17.146   3.640
59547W        W31273  10.758   4.948   0.260
59548W        W31274  25.241  37.883  13.040
59549W        W31275  27.556  35.057  11.203
59550W        W31276  17.169  34.380   4.650
59551W        W31277  38.092  40.465  14.973
59552W        W31278   8.209  13.867  13.141
59553W        W31279  38.845  37.577  10.271
59554W        W31280  39.893  31.939   3.052
59555W        W31281  14.856  37.828   0.089
59556W        W31282  21.509  21.649  10.478
59557W        W31283  28.950  26.521  13.152
59558W        W31284   4.143  35.331   1.366
59559W        W31285   9.026  28.103  10.334
59560W        W31286  15.752  37.437  12.468
59561W        W31287  22.651  15.346   1.672
59562W        W31288   8.842  31.691  13.393
59563W        W31289  33.828  35.586   0.015
59564W        W31290  43.060  20.149  13.331
59565W        W31291  44.300   6.563  13.557
59566W        W31292  41.409  32.589  10.577
59567W        W31293  10.170  34.683  11.434
59568W        W31294  26.315  30.521  11.519
59569W        W31295  17.353  28.909   3.320
59570W        W31296  20.636   4.831  10.881
59571W        W31297  22.683  12.157   3.236
59572W        W31298   4.092  31.994   1.808
59573W        W31299  11.472  16.184  12.264
59574W        W31300  10.276  34.070   2.847
59575W        W31301  10.930  33.552   0.118
59576W        W31302  39.430  20.849   2.715
59577W        W31303  14.052  18.294   5.024
59578W        W31304  41.256   2.958  10.660
59579W        W31305   0.256  22.949   4.078
59580W        W31306  37.568  10.208   5.072
59581W        W31307  32.634  28.694  14.535
59582W        W31308  14.376  14.338   3.614
59583W        W31309  19.109   5.010  12.023
59584W        W31310  42.733  36.108  11.653
59585W        W31311   0.696   6.158  10.460
59586W        W31312   6.513  17.572  11.445
59587W        W31313  31.505  25.213   3.874
59588W        W31314  28.915  27.735  13.829
59589W        W31315  27.140  26.627  12.784
59590W        W31316  23.104  14.419   4.601
59591W        W31317  37.287  26.298  13.861
59592W        W31318   7.375  42.771  12.890
59593W        W31319  42.450   9.874   2.138
59594W        W31320  26.477  22.511   2.691
59595W        W31321   4.808   7.235  10.560
59596W        W31322  13.244  11.692  14.006
59597W        W31323  15.621  19.802  11.204
59598W        W31324  26.872  12.556   4.689
59599W        W31325  28.017  16.266  12.125
59600W        W31326  19.046  12.360   4.830
59601W        W31327  13.807  39.374  13.490
59602W        W31328  40.316  18.012   2.266
59603W        W31329  15.099  10.248  14.649
59604W        W31330  43.996  24.938  12.958
59605W        W31331   7.226  28.220  11.150
59606W        W31332  14.674  44.502  10.250
59607W        W31333   6.789  27.158   3.953
59608W        W31334   8.229  42.801  10.377
59609W        W31335   0.830  15.691  14.006
59610W        W31336   7.076  13.233   2.244
59611W        W31337   4.744  18.657  12.275
59612W        W31338  22.259  16.568  13.512
59613W        W31339  20.758   7.257   4.735
59614W        W31340   1.871  23.731  12.891
59615W        W31341   4.027  17.756   3.413
59616W        W31342  27.232  42.787  11.519
59617W        W31343   7.346  36.713  11.695
59618W        W31344   9.079  37.536  14.892
59619W        W31345  12.299  40.065  14.032
59620W        W31346  20.680  27.014  12.108
59621W        W31347   7.971   6.239   5.332
59622W        W31348  10.859  21.044  11.330
59623W        W31349   4.174  30.111  10.701
59624W        W31350  26.623  13.609  12.995
59625W        W31351  35.839  12.470  13.346
59626W        W31352  13.371  32.528   1.920
59627W        W31353   7.646  17.571   3.311
59628W        W31354  41.924  40.751  12.003
59629W        W31355  29.997   9.158   2.819
59630W        W31356   5.781  37.587   2.873
59631W        W31357  16.619  43.100  11.585
59632W        W31358   5.072   1.829  14.735
59633W        W31359  13.368  19.048  14.889
59634W        W31360   6.927  33.346   4.295
59635W        W31361  35.675  36.094   1.933
59636W        W31362  11.067   3.851   4.130
59637W        W31363   4.702  13.791   4.593
59638W        W31364  37.651  14.256  12.843
59639W        W31365  15.683  41.556  12.483
59640W        W31366  26.613  15.797   0.821
59641W        W31367  20.286  14.463   3.441
59642W        W31368   2.829   6.192  14.915
59643W        W31369  17.103  10.961   3.807
59644W        W31370   3.501  42.235  11.560
59645W        W31371   1.855  27.688  13.799
59646W        W31372  42.380   4.812   1.489
59647W        W31373  26.637  42.152  12.544
59648W        W31374  17.823  27.072  12.935
59649W        W31375  13.830  20.259   4.223
59650W        W31376  19.565   5.202  13.970
59651W        W31377  38.600  11.109   0.276
59652W        W31378   0.438  35.289  10.981
59653W        W31379  20.043  42.125  14.912
59654W        W31380  34.009  32.873  13.430
59655W        W31381  39.019  23.078  10.693
59656W        W31382  21.722  14.603  11.121
59657W        W31383  38.792   1.478   0.065
59658W        W31384  35.064   8.123   1.864
59659W        W31385   0.931  25.014   4.814
59660W        W31386  38.002  26.094  10.635
59661W        W31387  32.531  25.204  14.494
59662W        W31388   5.913   0.834  13.959
59663W        W31389   7.429  30.419  10.777
59664W        W31390  27.116  36.296   1.296
59665W        W31391  19.016  20.018  10.673
59666W        W31392  36.029  27.590  14.064
59667W        W31393  43.337  44.920  11.514
59668W        W31394  17.156  44.685  12.591
59669W        W31395  24.623  18.817   3.784
59670W        W31396  10.704  23.070   5.598
59671W        W31397  41.019  16.055  13.945
59672W        W31398   4.402  41.189   4.828
59673W        W31399  36.340   0.677  13.724
59674W        W31400  23.596   7.254  14.514
59675W        W31401  16.489  10.072   1.836
59676W        W31402  31.514  18.562  14.021
59677W        W31403  23.654  12.592  10.721
59678W        W31404  32.679  38.806  13.486
59679W        W31405   3.356  38.070   1.310
59680W        W31406  34.456  23.738  13.601
59681W        W31407  24.103  43.557  11.616
59682W        W31408  37.111  37.414   3.325
59683W        W31409  29.103  34.318   2.435
59684W        W31410  25.638  21.054  12.675
59685W        W31411  15.334   2.732  11.586
59686W        W31412  35.521   4.575   0.354
59687W        W31413  42.928   1.815  12.512
59688W        W31414  34.789   4.286  11.126
59689W        W31415  13.699  19.773  13.894
59690W        W31416  15.068  42.935  10.654
59691W        W31417   1.382  21.695   0.292
59692W        W31418  17.712   9.123  13.992
59693W        W31419   0.832  10.315   1.502
59694W        W31420  14.392  34.029   4.738
59695W        W31421  24.892  36.029   1.726
59696W        W31422  25.569  25.637   0.952
59697W        W31423  43.416  39.196  11.160
59698W        W31424  42.692  34.413  13.330
59699W        W31425  15.269  30.621   1.325
59700W        W31426  16.322  14.850   3.110
59701W        W31427   5.671  11.681  13.338
59702W        W31428   3.921   4.215   1.058
59703W        W31429  34.832  41.337  12.401
59704W        W31430  12.382  11.674  13.519
59705W        W31431  23.512   4.915  14.062
59706W        W31432  30.840  35.526   0.240
59707W        W31433  12.156  13.514  12.450
59708W        W31434   4.204  25.705   1.312
59709W        W31435   8.345  37.613   0.409
59710W        W31436  25.487  33.013   0.764
59711W        W31437  25.197  42.808  10.592
59712W        W31438  34.831  19.361   4.171
59713W        W31439   6.029   2.525  14.364
59714W        W31440  29.074  16.808  10.587
59715W        W31441   7.649  13.153   1.199
59716W        W31442  39.819  10.268   1.766
59717W        W31443  23.710  18.128  13.739
59718W        W31444   3.420  39.108   0.533
59719W        W31445  37.991  44.209  14.304
59720W        W31446  44.209   3.152   5.121
59721W        W31447   5.417  29.151  13.512
59722W        W31448  15.487  23.630  11.616
59723W        W31449   1.426  10.712  13.845
59724W        W31450  29.048  21.035  10.417
59725W        W31451  33.523  32.550  11.210
59726W        W31452  36.437  15.382  10.876
59727W        W31453  31.574  31.022  12.647
59728W        W31454  25.624  33.683   1.254
59729W        W31455  27.960  12.726   0.737
59730W        W31456   3.622  44.461  13.311
59731W        W31457  18.158  39.565  12.413
59732W        W31458  35.857  17.824   3.820
59733W        W31459  11.588  25.190   3.307
59734W        W31460  13.312  26.328   2.240
59735W        W31461  19.844  13.649   4.181
59736W        W31462  29.445  16.784  10.955
59737W        W31463   1.137  18.850   4.383
59738W        W31464  22.736  42.888  10.265
59739W        W31465  14.053  43.674  12.947
59740W        W31466  19.660   5.217   0.033
59741W        W31467   6.815  32.997  10.799
59742W        W31468  21.977  38.986   3.273
59743W        W31469  12.235  23.243  13.061
59744W        W31470  11.271   2.259  12.445
59745W        W31471  33.497   3.246   0.520
59746W        W31472  30.616  35.306   0.840
59747W        W31473  20.230  25.097   3.627
59748W        W31474  39.031  14.082  11.454
59749W        W31475  11.563  15.620   4.245
59750W        W31476   2.741   5.311  14.407
59751W        W31477  20.167  44.872  11.853
59752W        W31478  37.916  14.603   0.005
59753W        W31479  26.439  14.397  14.777
59754W        W31480  44.733  26.071   4.718
59755W        W31481  28.148   4.219  12.544
59756W        W31482  38.766   2.081   0.895
59757W        W31483   0.907  25.701  13.950
59758W        W31484  30.382  29.209  13.493
59759W        W31485  38.096  31.934   4.700
59760W        W31486  25.568  18.769  12.582
59761W        W31487   1.289  20.612   1.854
59762W        W31488   4.290  39.332   4.776
59763W        W31489  39.459  29.171  11.133
59764W        W31490  40.749  21.183  14.017
59765W        W31491  16.317  12.329   2.328
59766W        W31492  20.954   9.099  14.981
59767W        W31493  20.113   3.830  14.003
59768W        W31494  44.126  28.202   3.249
59769W        W31495  43.510  25.515  10.855
59770W        W31496  37.137  15.897   2.820
59771W        W31497  18.438  37.718  11.179
59772W        W31498   7.720  32.551   0.286
59773W        W31499  35.747  27.225   4.706
59774W        W31500  34.368  29.172   4.730
59775W        W31501  42.515   2.339  13.834
59776W        W31502   0.510  16.525   1.834
59777W        W31503  18.779   7.686  11.829
59778W        W31504  15.918  27.146   4.179
59779W        W31505  35.953  10.124   0.754
59780W        W31506   0.479  15.771  12.474
59781W        W31507   4.997  20.903   3.293
59782W        W31508  33.968  38.035  12.869
59783W        W31509   0.994  15.930  12.494
59784W        W31510  22.075  42.380  12.548
59785W        W31511  16.344  38.214   5.083
59786W        W31512  37.939  18.775   0.747
59787W        W31513  11.736   9.249  14.797
59788W        W31514  27.495   9.218  11.893
59789W        W31515  23.622  36.410   1.966
59790W        W31516   4.880  32.023   5.076
59791W        W31517  12.825   7.019   4.258
59792W        W31518  22.991   9.883  12.308
59793W        W31519  43.597  22.553  11.160
59794W        W31520  30.713  40.924  14.018
59795W        W31521  43.444   5.839   3.766
59796W        W31522   8.157  23.598   1.097
59797W        W31523   1.769  28.567   2.016
59798W        W31524  26.896  24.154  14.749
59799W        W31525  11.735  20.146  11.670
59800W        W31526   0.411  11.741  14.367
59801W        W31527   0.928   2.874   0.425
59802W        W31528  10.112  23.111   2.845
59803W        W31529   0.790  32.131  10.068
59804W        W31530  36.820  13.949   2.382
59805W        W31531  15.200  15.879  14.422
59806W        W31532  35.861  30.014   4.259
59807W        W31533   7.458  36.918   3.279
59808W        W31534  32.004  27.181  12.460
59809W        W31535  16.100  19.715  11.030
59810W        W31536  32.400  28.525  10.757
59811W        W31537   1.386   4.769  11.887
59812W        W31538  16.852  39.407  14.895
59813W        W31539  39.499  22.280   1.854
59814W        W31540   0.554  37.374   2.778
59815W        W31541  27.466  25.004   4.183
59816W        W31542  24.642  38.975  14.449
59817W        W31543  43.760  33.534   2.742
59818W        W31544  36.656   1.566   1.893
59819W        W31545  11.233  28.529   0.434
59820W        W31546  25.757  15.793  11.899
59821W        W31547  15.820  42.638   5.047
59822W        W31548  38.091  24.488  14.521
59823W        W31549  31.381  38.292   0.272
59824W        W31550   1.464  15.669  11.659
59825W        W31551   9.844   5.005  13.410
59826W        W31552  10.189  12.213  12.118
59827W        W31553   4.696   8.741  14.999
59828W        W31554  41.038  14.179  12.506
59829W        W31555  14.550  21.829   1.677
59830W        W31556  24.992   4.495  11.501
59831W        W31557   5.371  43.845   0.873
59832W        W31558  28.932   0.490  10.704
59833W        W31559   7.621  10.344   3.621
59834W        W31560  12.233  23.072   1.197
59835W        W31561  40.748  12.536   3.843
59836W        W31562  42.110  42.498  14.995
59837W        W31563  19.530  24.135   1.378
59838W        W31564  42.341  16.384   3.080
59839W        W31565  23.006  32.357   1.387
59840W        W31566  32.047   9.374  13.616
59841W        W31567   2.291  23.603   3.315
59842W        W31568  16.364  32.540   3.263
59843W        W31569   4.887  21.497  10.467
59844W        W31570  23.560  31.514  10.661
59845W        W31571  29.223  10.883  11.681
59846W        W31572  26.097   5.537  14.633
59847W        W31573  11.125  16.774   2.562
59848W        W31574  43.103  24.845  14.907
59849W        W31575  26.232  24.543  11.006
59850W        W31576  26.461   7.895   0.415
59851W        W31577  36.005  43.873  11.633
59852W        W31578  35.378  40.193  12.064
59853W        W31579   7.726  39.333   0.529
59854W        W31580   2.483  39.074   4.171
59855W        W31581  23.470  26.483  12.429
59856W        W31582  21.091   6.191   0.388
59857W        W31583  16.185  24.493  13.421
59858W        W31584  21.354  14.850  10.406
59859W        W31585  28.528  23.984   1.187
59860W        W31586  41.844  35.756  10.351
59861W        W31587   7.618  15.039  13.897
59862W        W31588   9.996  25.825   9.761
59863W        W31589  18.737   9.561   1.881
59864W        W31590  29.014  44.218   2.890
59865W        W31591  18.252  44.029  14.524
59866W        W31592  29.410  35.085  11.587
59867W        W31593   5.331  35.960   1.661
59868W        W31594  25.154  35.119  12.597
59869W        W31595  43.767  32.985  14.051
59870W        W31596  17.162  10.394   3.981
59871W        W31597  17.811  21.701   2.066
59872W        W31598  38.181   7.492  12.642
59873W        W31599  13.760   8.170   1.778
59874W        W31600  41.984  36.362   1.889
59875W        W31601  11.198  38.040   4.815
59876W        W31602   5.110  22.092  14.509
59877W        W31603  17.162  37.918   5.457
59878W        W31604   5.443  27.490  12.624
59879W        W31605  22.239  16.659  11.409
59880W        W31606  30.958  32.120  13.796
59881W        W31607  41.067  37.432   2.814
59882W        W31608  23.005  30.019  12.516
59883W        W31609   7.246  20.816  14.857
59884W        W31610   5.805   7.109   0.660
59885W        W31611   3.978  26.527   1.268
59886W        W31612  41.230  43.955   0.439
59887W        W31613  38.285  43.424  11.627
59888W        W31614  14.560  24.436   4.084
59889W        W31615   4.344  23.062   4.638
59890W        W31616   1.234   1.901   3.374
59891W        W31617   9.316   0.946   2.741
59892W        W31618  13.630   3.804   2.232
59893W        W31619  23.686  33.666   4.671
59894W        W31620   3.761  16.489  14.110
59895W        W31621  39.987  12.075   3.160
59896W        W31622   9.501  11.383  12.612
59897W        W31623  43.008  26.382  11.612
59898W        W31624  11.184  38.995  12.655
59899W        W31625   6.498   0.430   4.166
59900W        W31626   1.058  11.252   3.373
59901W        W31627  13.540  13.102  13.947
59902W        W31628   4.636  13.837  14.691
59903W        W31629   4.194  20.312  14.846
59904W        W31630  32.339   9.936  14.701
59905W        W31631  14.610  37.981  14.429
59906W        W31632  37.403   3.269  14.030
59907W        W31633  16.727  40.538   3.747
59908W        W31634  27.003   0.638  14.025
59909W        W31635  31.124  11.359  11.184
59910W        W31636  40.967  11.326   4.054
59911W        W31637   6.676  13.477  13.365
59912W        W31638  27.739   5.926  14.858
59913W        W31639  23.536  19.017   1.513
59914W        W31640  31.567  20.682   2.822
59915W        W31641   8.628  35.264   1.351
59916W        W31642  16.203   8.899   1.770
59917W        W31643  20.667  29.364   2.691
59918W        W31644  42.486   6.267  13.458
59919W        W31645  41.561  42.269  13.658
59920W        W31646  12.409  17.643  12.892
59921W        W31647  22.129  17.069   0.261
59922W        W31648  37.522  24.634   3.762
59923W        W31649  44.274  35.996  10.672
59924W        W31650   4.214  19.977  13.994
59925W        W31651  43.257  39.994   4.585
59926W        W31652   4.483  17.219   0.193
59927W        W31653  20.192   4.085   0.776
59928W        W31654   4.015  33.972  13.544
59929W        W31655  39.380  38.426   3.494
59930W        W31656  14.300  38.274  13.249
59931W        W31657  31.660  21.192   4.668
59932W        W31658  17.628  11.256  10.869
59933W        W31659   3.888  41.368   1.210
59934W        W31660  35.350  17.763   3.731
59935W        W31661  13.557  42.509  12.524
59936W        W31662  41.298  32.930   2.823
59937W        W31663  24.575  43.431   1.146
59938W        W31664  14.108  44.227  12.075
59939W        W31665  17.976  40.455  11.230
59940W        W31666  25.042  32.050  13.907
59941W        W31667  35.366  44.468   1.594
59942W        W31668  14.042  18.667  10.708
59943W        W31669  19.682  42.281  12.361
59944W        W31670  13.655  32.061  14.472
59945W        W31671  44.286  43.532   2.730
59946W        W31672   6.062  13.061   1.479
59947W        W31673  19.104  33.641  13.484
59948W        W31674  40.486  17.572   1.491
59949W        W31675  37.829  31.210  12.626
59950W        W31676  41.998  33.132   2.646
59951W        W31677   7.708  20.254  13.855
59952W        W31678  22.004   1.241  10.762
59953W        W31679  25.537   9.894  13.049
59954W        W31680  30.316  21.521  12.556
59955W        W31681   2.875  28.481  13.527
59956W        W31682  40.098  12.909   2.760
59957W        W31683  44.899  27.876   0.002
59958W        W31684   9.801   3.273   4.254
59959W        W31685  22.654  32.891   0.854
59960W        W31686  25.926  11.547  14.772
59961W        W31687  13.533  11.254  13.932
59962W        W31688  37.330  35.879  13.240
59963W        W31689  30.077  27.673   1.913
59964W        W31690  36.589  14.689   4.889
59965W        W31691  19.641  13.810  11.883
59966W        W31692  14.168   9.410   3.153
59967W        W31693  14.221   6.930  12.102
59968W        W31694  44.766  27.013  14.151
59969W        W31695  36.995  14.088   4.123
59970W        W31696  13.848  26.036  14.984
59971W        W31697   8.171  16.392  11.097
59972W        W31698  14.489   9.408   2.755
59973W        W31699  17.302  17.850   4.163
59974W        W31700   4.693   8.584  11.110
59975W        W31701  14.343   0.046   0.107
59976W        W31702  40.518  35.463   3.599
59977W        W31703  22.200   1.965  14.869
59978W        W31704   0.696  32.025   5.138
59979W        W31705  35.994  11.159  13.815
59980W        W31706  41.914  24.904  13.465
59981W        W31707   9.121  39.438   1.344
59982W        W31708  23.757  27.521  13.874
59983W        W31709  29.653  35.853  12.953
59984W        W31710  31.005  41.093  14.429
59985W        W31711  39.983  11.855  11.641
59986W        W31712  41.362  15.719  12.845
59987W        W31713  18.047  23.892  13.408
59988W        W31714   6.826   1.781  12.191
59989W        W31715  40.546  33.584  11.022
59990W        W31716  20.547   3.002  13.287
59991W        W31717  12.462  22.879   4.343
59992W        W31718  16.957  43.903  11.142
59993W        W31719   1.495  24.055  11.105
59994W        W31720  42.003  31.655   2.753
59995W        W31721  19.652  35.839   3.606
59996W        W31722  43.987  20.702   3.377
59997W        W31723  24.752  43.606  14.182
59998W        W31724   0.143  38.117  12.101
59999W        W31725   0.097   3.568   3.701
60000W        W31726  31.656   7.288  12.801
60001W        W31727  28.138  14.740  14.622
60002W        W31728  38.422  19.838   1.129
60003W        W31729   3.205  31.178   3.282
60004W        W31730  41.956  15.479   2.285
60005W        W31731  26.971  29.201  13.499
60006W        W31732   4.428   3.874   3.114
60007W        W31733   6.797   6.973   9.807
60008W        W31734  15.042  26.205   2.801
60009W        W31735  14.470  29.627   1.407
60010W        W31736  19.527   5.754   0.728
60011W        W31737  36.161  42.932   1.822
60012W        W31738  33.893   3.807   0.639
60013W        W31739  10.203  17.425   1.477
60014W        W31740   4.242  16.081   3.407
60015W        W31741   3.276  37.064   3.444
60016W        W31742   1.951  17.208  11.948
60017W        W31743   4.700   7.276   4.168
60018W        W31744  28.842  12.583   1.115
60019W        W31745   9.099   3.910   2.032
60020W        W31746  31.715  40.547   4.807
60021W        W31747   6.222  15.702   4.735
60022W        W31748  44.377  40.330  10.946
60023W        W31749  30.638   4.917   1.080
60024W        W31750  36.781  34.230  14.797
60025W        W31751   0.547  16.807  11.468
60026W        W31752   3.865  10.734   0.299
60027W        W31753   6.338  18.434  13.846
60028W        W31754  29.209  30.096   4.307
60029W        W31755  44.854  36.586   0.434
60030W        W31756  15.259  10.529   3.705
60031W        W31757  16.559  13.624  12.416
60032W        W31758  30.663  16.368  11.163
60033W        W31759   2.182   2.430   0.841
60034W        W31760  43.942  23.893  13.018
60035W        W31761   5.239  15.605   4.220
60036W        W31762  44.846  22.202   0.029
60037W        W31763  41.370  10.838   4.511
60038W        W31764  10.790  15.392   1.880
60039W        W31765  21.295  23.119   1.363
60040W        W31766  22.612   5.002  12.526
60041W        W31767  20.256   3.471   1.298
60042W        W31768   0.836  35.615  11.059
60043W        W31769  30.086  18.114   4.089
60044W        W31770  20.226  31.390   1.767
60045W        W31771  24.412  13.607   3.872
60046W        W31772  23.170  34.158  11.355
60047W        W31773  36.087  30.934  14.212
60048W        W31774  19.303  20.270   2.192
60049W        W31775   6.287  21.628   4.023
60050W        W31776   7.890  39.322   2.772
60051W        W31777   1.215  27.011   0.355
60052W        W31778   3.025   7.099  13.006
60053W        W31779  25.016  16.813  10.428
60054W        W31780  12.730  44.863   1.944
60055W        W31781  18.286  15.021   3.291
60056W        W31782  15.285  43.639   0.295
60057W        W31783  26.075  33.448   1.173
60058W        W31784   8.084   9.760  14.001
60059W        W31785  16.652  32.201  13.790
60060W        W31786  13.460  26.021   1.464
60061W        W31787  35.421  36.807   0.192
60062W        W31788  28.001   1.173   3.770
60063W        W31789   7.913   8.946  14.925
60064W        W31790  12.855  19.223   4.260
60065W        W31791  24.545  42.089  10.704
60066W        W31792  29.399  44.311  11.606
60067W        W31793  17.357  20.635   4.480
60068W        W31794  10.269  33.225   0.762
60069W        W31795  27.567  26.867  14.276
60070W        W31796  30.858  11.831  14.479
60071W        W31797  32.981  44.856  13.584
60072W        W31798  32.098  44.315   2.756
60073W        W31799  11.193   5.601  14.962
60074W        W31800   2.845  33.804   2.233
60075W        W31801  12.065  39.481   3.105
60076W        W31802  23.116   6.485   1.639
60077W        W31803  34.817  38.842  14.763
60078W        W31804  22.472  23.066  12.994
60079W        W31805  20.730  44.922  11.087
60080W        W31806   4.400  15.682   3.689
60081W        W31807  40.373  40.618  11.230
60082W        W31808   0.447   5.868   3.390
60083W        W31809   4.329  15.369  12.468
60084W        W31810  25.270  39.433  14.407
60085W        W31811  41.119  22.525   0.873
60086W        W31812  34.923  42.231  14.267
60087W        W31813  10.718   7.940   3.177
60088W        W31814  40.758  31.106  12.513
60089W        W31815   5.392   7.461   4.992
60090W        W31816  23.742  36.934  14.039
60091W        W31817  11.030  16.845  14.259
60092W        W31818   7.945  18.035   3.291
60093W        W31819  33.419  36.781  11.563
60094W        W31820  35.083  33.595  12.934
60095W        W31821  24.982   6.859  10.776
60096W        W31822  34.986   1.525  12.942
60097W        W31823  16.118  22.681  13.960
60098W        W31824   4.324  23.653   1.245
60099W        W31825   1.499  40.915   4.201
60100W        W31826  12.294   2.388   4.322
60101W        W31827  11.127  37.495  12.607
60102W        W31828   4.357  18.217  12.993
60103W        W31829   6.288  31.164   3.112
60104W        W31830  24.375  26.138   9.407
60105W        W31831  22.111  28.667   5.071
60106W        W31832   8.659  42.615   3.674
60107W        W31833  15.397  37.459   5.358
60108W        W31834  39.498   3.309   4.929
60109W        W31835  18.117  38.826  13.398
60110W        W31836  13.276  23.435  11.655
60111W        W31837  18.086  40.871   3.882
60112W        W31838  22.833  33.397  13.937
60113W        W31839  32.981  39.863  13.412
60114W        W31840  44.623  22.579   4.574
60115W        W31841   3.874  24.742   3.439
60116W        W31842  21.833  19.672   1.364
60117W        W31843  38.630   4.777   1.450
60118W        W31844  43.516  32.686  14.394
60119W        W31845  39.954  32.618   4.477
60120W        W31846  44.012  34.061  11.129
60121W        W31847  40.925  34.675  11.085
60122W        W31848  23.079  31.373   2.855
60123W        W31849   6.195  41.027   2.752
60124W        W31850  21.393  17.306  14.541
60125W        W31851  23.198   9.213  11.872
60126W        W31852  24.944  36.124  12.561
60127W        W31853  32.107  44.366   4.550
60128W        W31854  15.674   6.640  12.372
60129W        W31855  33.625   4.168   0.310
60130W        W31856  32.831  42.273  14.958
60131W        W31857  41.964  26.551   0.380
60132W        W31858  10.826  28.129   4.912
60133W        W31859   4.703  16.057  11.969
60134W        W31860  34.035   7.692  13.902
60135W        W31861  16.581  42.056   1.394
60136W        W31862  10.138  12.754  10.623
60137W        W31863  32.493  14.211   4.989
60138W        W31864   9.785  15.051   4.236
60139W        W31865  39.401  40.616  14.463
60140W        W31866  34.358   7.506   0.364
60141W        W31867   8.727  18.654   1.365
60142W        W31868  15.904  25.702  12.586
60143W        W31869  25.662   0.567   3.771
60144W        W31870  10.870  23.102   4.196
60145W        W31871  29.113  13.897  12.472
60146W        W31872   6.182  32.164  12.887
60147W        W31873  11.713  14.671  13.561
60148W        W31874   6.673  13.822  11.481
60149W        W31875  40.511  26.578  14.943
60150W        W31876   3.368  17.565  11.154
60151W        W31877   6.936  31.921   0.284
60152W        W31878  38.399  43.704  12.523
60153W        W31879   5.261  22.723  10.689
60154W        W31880  25.868   4.284   1.674
60155W        W31881   4.792  11.629  14.856
60156W        W31882  30.554   4.929   2.850
60157W        W31883  43.745  29.618   3.707
60158W        W31884  33.453  36.422   1.133
60159W        W31885  34.880  41.344  11.583
60160W        W31886  30.860  21.193   2.229
60161W        W31887  39.104  31.882   2.610
60162W        W31888   8.441  39.611  11.816
60163W        W31889  10.307  43.328  11.065
60164W        W31890  27.544  36.211  11.007
60165W        W31891  23.055  44.889   0.184
60166W        W31892  13.872  16.565  11.566
60167W        W31893  38.796  25.397  14.855
60168W        W31894  27.451  26.239   4.525
60169W        W31895  33.377  25.958   1.309
60170W        W31896   3.985  28.650   3.388
60171W        W31897   8.062  14.177  11.977
60172W        W31898  40.431  11.612  10.929
60173W        W31899   9.438  35.044   4.698
60174W        W31900  32.909   3.450   1.704
60175W        W31901  31.439   6.418  13.119
60176W        W31902  41.417  23.510  13.080
60177W        W31903  31.364  15.732   3.232
60178W        W31904  37.019  12.230  14.818
60179W        W31905  34.846   1.452  13.443
60180W        W31906  23.985   1.211  13.518
60181W        W31907  42.454  44.649   0.897
60182W        W31908  43.043   6.952   1.307
60183W        W31909  18.614  12.095   4.956
60184W        W31910  21.237  38.747  12.338
60185W        W31911   3.930  42.135   3.260
60186W        W31912  32.004   7.712   3.220
60187W        W31913  41.066   0.891  11.207
60188W        W31914   1.004  14.291  11.562
60189W        W31915   8.408  40.375   1.150
60190W        W31916  27.869  35.462   0.405
60191W        W31917  20.448  17.276  10.276
60192W        W31918  12.168  34.455   1.838
60193W        W31919  33.522   6.680  12.029
60194W        W31920   5.388   0.473   1.284
60195W        W31921  29.512  23.988   3.271
60196W        W31922  19.960  24.055   3.203
60197W        W31923   9.810  34.164   5.422
60198W        W31924  40.283   1.937  10.733
60199W        W31925  36.380  16.958   2.707
60200W        W31926  34.170   1.159  11.062
60201W        W31927  32.491  17.197  10.584
60202W        W31928  30.331  13.409   2.113
60203W        W31929  26.753  26.969  13.092
60204W        W31930  35.257  10.096  14.488
60205W        W31931  35.375  22.106   4.811
60206W        W31932   4.743  15.665  14.218
60207W        W31933   5.456  41.731  14.961
60208W        W31934   8.647  38.111   0.412
60209W        W31935   6.652   0.091  14.330
60210W        W31936  11.131   1.683   1.665
60211W        W31937  42.379  15.077   2.869
60212W        W31938  12.986   6.229   4.431
60213W        W31939  16.679  15.774  14.056
60214W        W31940  33.423   1.715   2.320
60215W        W31941  27.089  35.833  11.547
60216W        W31942  44.271  31.745  13.882
60217W        W31943  32.325  40.808   4.197
60218W        W31944  32.150   4.423   4.320
60219W        W31945   9.719  21.575  14.276
60220W        W31946  11.300   6.862  11.857
60221W        W31947  30.967  26.572   1.929
60222W        W31948  41.811   7.241  14.051
60223W        W31949  24.350  43.583   0.697
60224W        W31950   6.966  20.505   4.094
60225W        W31951  24.738  26.587   5.536
60226W        W31952   0.225  18.267  14.327
60227W        W31953   5.170  31.476  11.149
60228W        W31954  20.187  11.181  14.282
60229W        W31955  39.014  14.389  14.422
60230W        W31956  32.851  34.097   0.977
60231W        W31957  20.681  37.368   0.863
60232W        W31958  17.072   1.296   1.506
60233W        W31959   7.837  36.074  10.117
60234W        W31960  11.304  36.984   3.295
60235W        W31961  12.270   6.957  11.431
60236W        W31962  27.939  10.079  12.080
60237W        W31963  36.014  18.876  12.958
60238W        W31964  36.900  27.990   3.270
60239W        W31965  18.144  21.835  13.889
60240W        W31966   1.059  19.241  11.440
60241W        W31967  42.777   8.238  12.800
60242W        W31968  38.098  38.362   3.317
60243W        W31969  25.627  39.305  10.681
60244W        W31970  43.383   6.699  14.092
60245W        W31971  20.583  32.741   1.283
60246W        W31972  15.010  26.066   3.693
60247W        W31973  17.581  42.193   2.232
60248W        W31974   4.442  34.481  13.941
60249W        W31975  30.952  16.157   1.813
60250W        W31976   2.395  24.466  11.125
60251W        W31977  36.522  44.055  11.586
60252W        W31978  18.591  28.528   3.876
60253W        W31979  25.024  32.081   0.944
60254W        W31980  18.045  37.995   1.883
60255W        W31981  29.371  24.207  14.733
60256W        W31982  27.086  11.703   2.849
60257W        W31983  26.998  34.972  14.357
60258W        W31984  14.550  12.134   0.449
60259W        W31985  10.087  18.568  14.916
60260W        W31986  27.434  36.189   2.878
60261W        W31987  28.107   6.849   4.578
60262W        W31988   6.820  28.580   3.713
60263W        W31989   3.807  21.958   2.312
60264W        W31990  34.526  23.442   0.051
60265W        W31991  20.816   5.988   2.583
60266W        W31992  33.280   9.961  14.353
60267W        W31993   7.531  21.240   1.744
60268W        W31994   3.469  10.777   3.224
60269W        W31995  17.589  27.923  11.942
60270W        W31996  34.214  30.843   3.912
60271W        W31997  20.315  33.317   4.034
60272W        W31998  17.135  18.310   4.306
60273W        W31999  18.026  28.429  13.836
60274W        W32000  13.221   2.227  11.573
60275W        W32001  29.861  36.110  14.013
60276W        W32002   8.807  18.356  11.013
60277W        W32003   7.987   1.776  13.384
60278W        W32004  21.028  44.533  10.140
60279W        W32005  36.073  26.291   2.245
60280W        W32006  39.580  36.008  14.532
60281W        W32007   4.979  15.814  10.620
60282W        W32008  34.843  17.791  11.215
60283W        W32009   8.376   8.663   1.187
60284W        W32010  32.268  28.244   3.324
60285W        W32011  28.918  27.002   0.942
60286W        W32012  27.158   3.304   1.725
60287W        W32013  19.583  33.417  13.475
60288W        W32014  40.468  38.812   1.227
60289W        W32015   2.430  17.201  12.693
60290W        W32016  30.454  36.918   4.599
60291W        W32017  21.559  18.855  10.721
60292W        W32018  36.310   0.275   0.402
60293W        W32019  38.346  27.699   2.902
60294W        W32020  20.014  11.590  14.552
60295W        W32021  15.152   5.639   3.809
60296W        W32022  34.250  37.329   2.765
60297W        W32023  17.677  40.564   1.811
60298W        W32024  17.121  17.911  10.902
60299W        W32025  33.928  12.175  12.409
60300W        W32026  17.654  39.436   4.577
60301W        W32027  23.640   7.268   2.348
60302W        W32028  28.708  35.524   0.812
60303W        W32029  13.865   8.806  12.058
60304W        W32030  15.348  20.420  14.857
60305W        W32031  27.195  38.311  14.802
60306W        W32032  37.362   6.427   1.801
60307W        W32033  18.451   6.883  13.025
60308W        W32034  41.698  23.625   1.001
60309W        W32035  38.419  43.173  12.575
60310W        W32036   7.608  21.494  11.012
60311W        W32037  12.328  27.534   4.818
60312W        W32038  23.970  32.081  14.664
60313W        W32039  43.693   7.138   1.271
60314W        W32040  36.362  41.360   0.392
60315W        W32041  17.396  38.567   1.361
60316W        W32042  14.327  24.952  11.381
60317W        W32043   6.903  34.341  11.116
60318W        W32044  43.834   4.312  11.452
60319W        W32045   0.878   0.230  10.804
60320W        W32046   8.285  10.476   0.858
60321W        W32047  29.362  43.151   2.182
60322W        W32048  43.434  16.128  11.683
60323W        W32049  28.155  24.029  13.478
60324W        W32050  11.025  34.127   3.110
60325W        W32051  23.745  26.358  12.865
60326W        W32052  40.542  35.034   0.901
60327W        W32053  14.734   0.355   0.332
60328W        W32054   0.524  40.385   4.356
60329W        W32055  13.326  20.426   0.032
60330W        W32056   1.914  31.434   3.165
60331W        W32057  17.064   2.259  12.047
60332W        W32058  30.656   4.683   5.176
60333W        W32059  42.014  12.038   2.224
60334W        W32060  41.133  12.239  13.936
60335W        W32061  18.565   1.839  14.442
60336W        W32062   4.774  32.280  12.111
60337W        W32063  30.644  38.349  11.542
60338W        W32064   2.710  30.932  10.636
60339W        W32065  22.274  12.400  13.881
60340W        W32066  29.459  12.964  11.210
60341W        W32067  34.801  29.385   0.237
60342W        W32068  38.644  33.347   4.978
60343W        W32069  14.350  44.069   3.723
60344W        W32070  24.026  38.522   4.830
60345W        W32071  16.713  36.941  10.489
60346W        W32072  24.566  41.899   3.665
60347W        W32073  40.855   3.695  12.073
60348W        W32074  15.597  13.573   2.244
60349W        W32075  31.490   5.866   0.823
60350W        W32076  40.550  14.648  14.978
60351W        W32077   6.076  19.551   0.389
60352W        W32078  42.349  10.968  13.460
60353W        W32079  27.682  18.081   3.147
60354W        W32080  14.429  28.883   1.951
60355W        W32081   2.472   6.319   1.119
60356W        W32082   0.527  23.681  12.978
60357W        W32083  15.664  14.739   4.060
60358W        W32084  38.842   4.348   3.138
60359W        W32085  41.297   5.734  10.669
60360W        W32086  39.463  17.567   0.890
60361W        W32087  20.600  29.163   1.061
60362W        W32088   1.412  14.669  12.181
60363W        W32089  31.653  16.100  14.312
60364W        W32090  36.329  41.040   4.206
60365W        W32091  41.996   7.101  13.007
60366W        W32092  35.812   4.090  12.718
60367W        W32093  43.814  16.366  14.950
60368W        W32094   8.445  29.523  13.859
60369W        W32095   7.760  34.896   0.327
60370W        W32096  37.499  25.984  10.579
60371W        W32097  35.543  16.277  14.117
60372W        W32098  15.572  25.997  14.510
60373W        W32099  21.005  23.709   4.076
60374W        W32100  35.008  33.984  12.559
60375W        W32101   9.942   9.687  11.509
60376W        W32102  41.169   8.785  11.493
60377W        W32103  19.250  31.264   1.382
60378W        W32104  22.482  44.294  14.963
60379W        W32105   0.453   0.314   2.625
60380W        W32106  14.712  25.079  14.019
60381W        W32107  29.401   7.164   2.715
60382W        W32108  33.094   4.693   2.135
60383W        W32109  27.757  13.210   0.686
60384W        W32110  28.372  42.274  13.604
60385W        W32111  31.157  36.348  11.521
60386W        W32112  40.324  24.597   3.367
60387W        W32113  43.763   3.193  13.348
60388W        W32114  16.942  37.630  10.093
60389W        W32115  25.115  43.090  14.878
60390W        W32116  17.020  11.148  13.206
60391W        W32117  14.837  15.553  10.673
60392W        W32118  13.574   1.466   1.458
60393W        W32119  19.623  34.936   2.843
60394W        W32120   3.823  22.565   2.340
60395W        W32121  16.797  15.043  11.123
60396W        W32122  12.368  15.180   0.513
60397W        W32123   1.270   0.455   4.618
60398W        W32124  24.094  40.824  14.496
60399W        W32125  11.579   8.795   3.500
60400W        W32126  41.367  41.767   2.896
60401W        W32127  31.175  23.304   3.402
60402W        W32128  28.940  10.690   0.391
60403W        W32129  14.054   4.458   2.910
60404W        W32130  22.689  19.965   4.210
60405W        W32131  24.263  10.088  13.376
60406W        W32132   8.598  14.054  14.867
60407W        W32133  16.731  41.027  11.875
60408W        W32134  43.383  22.337  12.123
60409W        W32135  23.936   9.082  13.310
60410W        W32136  33.935   1.515   2.371
60411W        W32137  17.047   5.418  10.310
60412W        W32138  32.933   2.379   0.208
60413W        W32139  44.244  20.595  11.961
60414W        W32140   4.375  38.804  12.469
60415W        W32141  33.340  42.443  11.474
60416W        W32142  17.805  12.549  14.688
60417W        W32143  19.026  14.859  12.525
60418W        W32144  32.393  28.177  12.418
60419W        W32145   4.358  44.863   4.329
60420W        W32146   9.814  24.072  11.153
60421W        W32147  34.844   4.269   0.657
60422W        W32148   2.284   8.305  14.377
60423W        W32149  38.448   8.306  14.049
60424W        W32150  18.647  43.727   1.707
60425W        W32151  33.655  30.359  12.637
60426W        W32152  41.417   0.256  14.950
60427W        W32153  41.496  41.281   4.849
60428W        W32154  30.842  32.125   4.873
60429W        W32155  14.772  31.258   0.857
60430W        W32156  27.642  41.918   4.399
60431W        W32157  25.976  17.377   4.634
60432W        W32158  25.902  35.865  14.037
60433W        W32159  16.024  40.860  10.700
60434W        W32160   6.863  30.429   1.973
60435W        W32161  44.724  36.774   0.930
60436W        W32162  38.727   5.202  10.277
60437W        W32163  32.016  41.166  10.322
60438W        W32164  39.903  16.118  12.568
60439W        W32165  10.173  29.564   2.355
60440W        W32166  27.405   8.200  14.404
60441W        W32167   0.554  39.597   9.995
60442W        W32168  18.268  28.005  14.929
60443W        W32169  32.506  11.779  10.706
60444W        W32170  23.821   8.430  12.466
60445W        W32171   8.362  37.908   0.870
60446W        W32172  18.741  32.649  10.630
60447W        W32173  18.306   1.517   4.960
60448W        W32174  24.112  32.657  11.850
60449W        W32175   1.015  40.299  11.112
60450W        W32176  22.199  27.373  12.880
60451W        W32177  17.979  24.682   2.851
60452W        W32178   6.485  32.963  13.975
60453W        W32179  23.122  39.393   4.501
60454W        W32180  22.945  38.856  14.623
60455W        W32181  43.793  27.418   0.834
60456W        W32182   4.843  11.391  14.385
60457W        W32183  41.593  17.990  14.512
60458W        W32184  43.270  23.604  14.617
60459W        W32185  14.840  16.552   3.233
60460W        W32186  12.308   2.972  13.890
60461W        W32187  19.104  38.277   1.084
60462W        W32188  22.035  28.972  10.961
60463W        W32189  44.865  42.943  14.786
60464W        W32190  20.659   3.847  14.043
60465W        W32191   2.269  23.023  12.399
60466W        W32192  28.229  36.897  11.759
60467W        W32193  24.250  37.488   1.357
60468W        W32194   2.513   9.715   0.278
60469W        W32195  32.780  14.958  14.959
60470W        W32196  19.646  15.119  12.605
60471W        W32197   9.244  29.587  13.473
60472W        W32198  31.059  35.118   3.345
60473W        W32199   2.894  10.908   0.376
60474W        W32200  17.715   2.507   1.804
60475W        W32201  30.624  35.585   1.288
60476W        W32202  10.254  35.589   1.846
60477W        W32203   9.926  13.308   3.321
60478W        W32204   5.312  15.077   0.071
60479W        W32205  20.206  15.958   1.380
60480W        W32206   3.831   3.799   1.773
60481W        W32207   7.688  30.682  11.196
60482W        W32208  27.402  25.816   0.770
60483W        W32209  43.507  22.526   0.008
60484W        W32210  30.690  16.368   4.106
60485W        W32211  11.396  15.320  12.909
60486W        W32212   4.766  23.664  12.530
60487W        W32213  18.517  38.282   1.865
60488W        W32214  36.594  29.845  11.491
60489W        W32215  25.068  23.148  11.516
60490W        W32216  32.120  30.173  13.948
60491W        W32217  40.216   4.807   0.383
60492W        W32218   1.306  12.098  11.009
60493W        W32219  38.919  30.955   0.019
60494W        W32220  34.161  27.987   4.853
60495W        W32221  40.816  25.546   4.327
60496W        W32222  19.180  15.124   1.809
60497W        W32223  20.125  21.280  14.679
60498W        W32224  24.037  24.199   1.309
60499W        W32225  13.619  38.397   4.635
60500W        W32226  19.435  37.122  13.649
60501W        W32227  40.812   5.985  14.984
60502W        W32228  32.394  28.147   1.843
60503W        W32229  35.812  17.099   1.163
60504W        W32230   3.769  36.942  10.682
60505W        W32231   2.735  21.869  12.505
60506W        W32232  36.424  13.401  12.882
60507W        W32233   3.006  19.002  11.081
60508W        W32234  11.254  34.113  14.575
60509W        W32235  12.330  24.833  11.868
60510W        W32236   7.310  17.872   0.477
60511W        W32237  23.961  25.040  11.381
60512W        W32238  30.212   1.438  12.886
60513W        W32239  28.130  41.997   4.561
60514W        W32240  23.618  32.490  14.796
60515W        W32241  26.555  18.275   1.755
60516W        W32242  31.374  36.371  14.858
60517W        W32243  39.810  29.411   2.726
60518W        W32244   4.992  24.254   1.725
60519W        W32245  41.788  20.261  11.476
60520W        W32246   0.557   4.612  11.059
60521W        W32247  15.536   5.393   0.898
60522W        W32248  22.940  18.593  11.262
60523W        W32249   6.366  32.200   2.118
60524W        W32250  21.079  25.358  11.205
60525W        W32251  20.465  24.022   3.313
60526W        W32252  19.602  14.225   0.463
60527W        W32253   8.226  35.111   0.404
60528W        W32254  38.078   9.439  12.379
60529W        W32255   3.298  28.256  11.089
60530W        W32256  35.933   7.220  11.862
60531W        W32257  44.372   0.451  13.322
60532W        W32258  20.943  43.508   0.552
60533W        W32259  12.347  37.798   1.878
60534W        W32260  37.299  12.535   3.762
60535W        W32261  22.594  35.003   1.947
60536W        W32262   9.830   0.346   2.330
60537W        W32263  31.401  43.839  12.387
60538W        W32264  34.083  43.294  14.441
60539W        W32265  32.036  36.302   4.196
60540W        W32266  18.687   6.663   2.701
60541W        W32267  26.313  37.536   0.707
60542W        W32268  23.786  12.238   4.609
60543W        W32269   4.781  38.789  13.086
60544W        W32270   8.508  44.904  10.499
60545W        W32271  11.087  26.601   0.258
60546W        W32272  42.471  38.047   2.318
60547W        W32273   4.887  29.127   3.125
60548W        W32274  18.065  14.233  14.997
60549W        W32275   1.185  16.368   2.029
60550W        W32276  39.531  27.566  12.385
60551W        W32277  29.514   4.904   2.886
60552W        W32278  13.595  21.223  11.008
60553W        W32279  36.313   3.296   1.114
60554W        W32280   8.630  25.107   0.663
60555W        W32281  18.811  31.535  10.880
60556W        W32282  13.926  40.978   3.755
60557W        W32283   1.450   8.442   2.496
60558W        W32284  35.996   1.969  13.817
60559W        W32285   8.743   3.911   3.290
60560W        W32286   3.998  31.613  14.272
60561W        W32287  34.427   4.685  14.375
60562W        W32288   5.226   8.241  14.554
60563W        W32289   3.693   8.893  11.075
60564W        W32290  20.714  17.239   0.300
60565W        W32291  23.192   3.735   2.741
60566W        W32292  28.013  16.601   3.155
60567W        W32293  19.225  28.783  13.089
60568W        W32294  22.585   3.875   2.139
60569W        W32295  40.132  36.395  11.695
60570W        W32296  24.447  29.021  11.564
60571W        W32297  19.295  18.840   1.969
60572W        W32298  43.187   9.349  14.858
60573W        W32299  39.484  19.215  14.263
60574W        W32300   2.318  22.493  11.493
60575W        W32301  28.511  35.036   3.467
60576W        W32302  20.393   2.156   3.933
60577W        W32303  28.539  43.516  14.859
60578W        W32304  44.742  24.125  12.934
60579W        W32305  42.821   7.240  11.649
60580W        W32306   3.335  10.915  14.853
60581W        W32307  36.861  15.822  12.611
60582W        W32308  23.703  41.408   3.671
60583W        W32309  31.916  27.746  11.967
60584W        W32310  10.345  39.052  10.712
60585W        W32311  15.849   3.983  14.380
60586W        W32312  18.002  41.553   1.767
60587W        W32313   5.798  27.826   2.860
60588W        W32314   8.538   5.537  14.839
60589W        W32315   8.763  18.252  10.007
60590W        W32316  22.709  17.695  12.500
60591W        W32317  10.411   2.780   1.953
60592W        W32318  11.380  10.775  13.026
60593W        W32319  40.922  26.026  11.371
60594W        W32320  33.491  18.049  12.074
60595W        W32321  13.582  20.044  10.661
60596W        W32322  36.106   3.804  13.008
60597W        W32323   2.671  29.495  14.417
60598W        W32324  20.216  23.262   1.371
60599W        W32325  35.093  16.042  11.508
60600W        W32326  13.138  11.635   0.336
60601W        W32327  43.323  32.413   2.558
60602W        W32328  42.285   5.127  14.400
60603W        W32329   9.059  43.445   1.969
60604W        W32330  16.673  14.792   2.715
60605W        W32331  13.231  40.815   4.653
60606W        W32332  42.459   4.151  12.480
60607W        W32333   4.807  11.269  12.912
60608W        W32334   6.852  39.077  13.947
60609W        W32335   1.842  29.561   3.841
60610W        W32336  25.092  20.775   1.775
60611W        W32337  30.707  41.887   4.743
60612W        W32338  31.665  14.572   0.361
60613W        W32339  36.516  32.944   1.383
60614W        W32340  18.044  39.963   2.361
60615W        W32341  14.346  39.014   0.704
60616W        W32342  21.537  38.435  11.797
60617W        W32343  43.711  30.926   2.399
60618W        W32344  38.011  25.975   2.656
60619W        W32345   6.431  11.849  12.171
60620W        W32346  33.645  40.634  12.430
60621W        W32347  37.758  30.266   4.981
60622W        W32348   9.341   7.355   2.479
60623W        W32349  39.942   7.635  14.300
60624W        W32350  18.171  34.926   0.481
60625W        W32351   5.361   4.033   2.690
60626W        W32352  40.849   5.427   1.338
60627W        W32353  38.897  10.420   2.720
60628W        W32354  12.501  44.200   2.669
60629W        W32355  13.407  11.832  14.467
60630W        W32356  26.617  25.693   2.290
60631W        W32357  32.872  19.051   1.215
60632W        W32358  27.885  40.953  12.967
60633W        W32359  35.084  21.210   5.133
60634W        W32360  18.582  35.871   2.428
60635W        W32361  36.276  38.851   3.252
60636W        W32362   4.277  24.999  14.029
60637W        W32363  29.643  28.616  11.081
60638W        W32364  34.891   2.475   3.943
60639W        W32365  26.468  31.488  13.883
60640W        W32366  29.750  35.050  10.203
60641W        W32367  38.706  20.899  11.233
60642W        W32368  44.960  41.228   0.355
60643W        W32369  33.997   5.183  11.137
60644W        W32370   0.729  24.423  14.443
60645W        W32371  13.876  20.225  11.045
60646W        W32372  41.480  21.994  14.933
60647W        W32373   9.648   1.873   2.518
60648W        W32374   9.336  29.721  11.203
60649W        W32375  21.261  40.322  11.115
60650W        W32376  26.743  12.179   1.782
60651W        W32377  20.559  14.245   2.791
60652W        W32378  18.720  16.158  14.557
60653W        W32379   7.175  18.519  12.380
60654W        W32380  11.947  10.737   4.095
60655W        W32381  32.154  17.084  14.342
60656W        W32382   7.160  23.103  12.924
60657W        W32383  26.737  27.901  11.107
60658W        W32384   4.917   7.424   3.707
60659W        W32385   4.485  31.254  11.955
60660W        W32386  19.167  15.116  11.423
60661W        W32387  27.094  32.364  14.960
60662W        W32388  16.929  20.437   3.135
60663W        W32389   2.490  27.108   4.057
60664W        W32390  37.814  17.516  11.565
60665W        W32391  21.248  18.677  13.108
60666W        W32392  38.932  32.033  10.128
60667W        W32393  41.005  25.428  10.658
60668W        W32394   1.756   9.276  12.571
60669W        W32395  25.957  23.560  14.271
60670W        W32396   0.397  36.453  11.064
60671W        W32397   5.546  10.070   2.467
60672W        W32398   2.692  26.775  12.122
60673W        W32399  15.657   4.280  13.829
60674W        W32400  34.409  31.690  14.265
60675W        W32401  19.508  17.209  14.194
60676W        W32402   1.730  40.028  14.574
60677W        W32403  24.984  11.692  12.016
60678W        W32404   5.751  29.537   2.121
60679W        W32405  43.132  39.306  13.859
60680W        W32406  40.873   4.586  14.729
60681W        W32407  22.038  19.046  14.987
60682W        W32408  28.699  31.500   4.239
60683W        W32409  13.919  42.690   3.251
60684W        W32410  37.732  24.053  14.818
60685W        W32411  10.404  10.226  11.301
60686W        W32412   1.888  39.375  11.210
60687W        W32413  26.509  13.319  13.853
60688W        W32414   3.876  33.608   0.689
60689W        W32415   0.546  38.363   2.769
60690W        W32416  24.197  25.461  12.112
60691W        W32417  30.146   9.713   4.149
60692W        W32418   7.237  24.777   0.909
60693W        W32419  12.697  29.551  13.790
60694W        W32420  31.126   4.096  12.014
60695W        W32421   8.875  15.264   3.811
60696W        W32422  10.306  14.022  14.488
60697W        W32423  34.936  30.509  14.551
60698W        W32424  30.909  28.115  12.773
60699W        W32425  29.227   5.048   3.774
60700W        W32426  34.283  30.371   3.661
60701W        W32427   1.594  24.071  12.125
60702W        W32428  38.767  42.032   0.015
60703W        W32429  33.581  38.536  13.480
60704W        W32430  26.999   1.756   3.751
60705W        W32431  25.554   7.331  13.452
60706W        W32432  28.634  10.359   1.923
60707W        W32433   2.847  22.581   2.209
60708W        W32434  39.506  10.729   4.865
60709W        W32435  26.908  10.595  11.078
60710W        W32436  39.895  14.115  14.334
60711W        W32437  19.164  28.519   1.594
60712W        W32438  43.321  31.010  11.566
60713W        W32439  38.001  22.643   2.795
60714W        W32440  20.134  15.290   3.740
60715W        W32441   9.126  20.137   4.367
60716W        W32442  14.137  24.542   3.781
60717W        W32443  18.480   2.920   3.894
60718W        W32444  26.451   8.389   0.580
60719W        W32445  30.625  10.668   0.813
60720W        W32446  24.714  22.775  13.865
60721W        W32447  40.604  26.649  12.506
60722W        W32448  10.923  37.883   3.281
60723W        W32449   5.945  14.509   0.402
60724W        W32450  41.418  18.149   3.401
60725W        W32451  11.343  12.039   3.172
60726W        W32452   5.068  21.220  14.495
60727W        W32453   4.636  44.726  13.988
60728W        W32454   2.647  44.947  13.480
60729W        W32455  18.721  11.813  14.886
60730W        W32456  43.480   7.317   2.883
60731W        W32457  23.163  34.092  11.852
60732W        W32458  12.904  38.539   0.029
60733W        W32459   9.130  38.535  13.866
60734W        W32460  24.534  22.641  10.708
60735W        W32461  29.207  19.524  10.646
60736W        W32462  19.271   2.455  14.515
60737W        W32463  36.864  42.363  12.103
60738W        W32464  39.304  42.115  14.428
60739W        W32465  33.947  20.070   3.070
60740W        W32466   2.188   5.310   1.478
60741W        W32467   4.672   3.712  13.514
60742W        W32468  39.921  44.379   1.389
60743W        W32469  34.877  26.094  11.928
60744W        W32470  17.524  11.207  13.081
60745W        W32471  25.322   7.865   4.190
60746W        W32472  16.074  26.549   3.224
60747W        W32473  22.927  11.635  12.418
60748W        W32474  44.493  26.411   0.661
60749W        W32475  32.514  28.529  13.112
60750W        W32476  31.347  27.127  14.841
60751W        W32477  44.469  38.857  11.563
60752W        W32478  15.184   8.890   4.515
60753W        W32479  12.702  44.266  13.682
60754W        W32480   4.182  26.037  12.849
60755W        W32481   4.185  33.981   0.889
60756W        W32482  29.653  15.078   3.647
60757W        W32483  30.582  16.049  10.781
60758W        W32484  33.006  42.455  14.505
60759W        W32485  15.581  28.678  13.069
60760W        W32486  36.367  16.217  10.448
60761W        W32487   2.914  40.635   4.674
60762W        W32488  15.252  38.130  14.888
60763W        W32489  28.086  25.593  12.434
60764W        W32490  33.692  34.013   1.775
60765W        W32491  23.508  43.482  11.946
60766W        W32492  12.192  29.724   4.547
60767W        W32493   4.211  41.263  11.145
60768W        W32494   0.366  39.017  11.386
60769W        W32495  44.286  29.425  14.839
60770W        W32496  44.899  41.824   0.318
60771W        W32497  36.538   1.213   3.200
60772W        W32498  22.416  35.347   0.750
60773W        W32499  16.820   0.452  14.558
60774W        W32500  37.811  34.384   2.787
60775W        W32501   6.181   0.377   4.566
60776W        W32502  12.519  26.252   0.366
60777W        W32503   0.812  35.021  11.882
60778W        W32504  36.408  36.372  12.988
60779W        W32505  42.714  44.973   0.330
60780W        W32506  37.570   1.008   0.337
60781W        W32507  23.733  36.137   0.122
60782W        W32508  10.238  44.335   3.145
60783W        W32509  11.089  24.734  13.454
60784W        W32510  18.154  33.425   0.493
60785W        W32511  12.668  15.631   0.330
60786W        W32512  15.448  26.673  11.924
60787W        W32513  35.191   7.571  11.176
60788W        W32514  19.978   7.353   1.745
60789W        W32515  37.157   0.323  13.508
60790W        W32516  43.770  26.202  13.934
60791W        W32517  22.863  41.414   4.662
60792W        W32518  11.867  42.443  12.912
60793W        W32519   6.709  15.635   2.464
60794W        W32520  34.836  19.196  12.518
60795W        W32521  17.690  34.365  10.868
60796W        W32522  20.265   3.682   4.213
60797W        W32523   2.219  38.270  13.353
60798W        W32524   6.713  21.125  11.058
60799W        W32525  44.861  30.082   0.664
60800W        W32526  36.244  13.250   5.025
60801W        W32527  20.255  30.409   1.672
60802W        W32528  18.195   2.290  13.473
60803W        W32529  38.364  29.109  10.512
60804W        W32530  41.659  12.214  13.968
60805W        W32531   2.619  33.402   4.444
60806W        W32532   0.802  41.024   3.797
60807W        W32533  24.265  40.569  10.696
60808W        W32534  11.162  11.829  12.985
60809W        W32535  34.791  40.219  11.052
60810W        W32536  21.538  11.564   0.671
60811W        W32537  32.511  38.613  10.850
60812W        W32538  34.051  37.635  14.376
60813W        W32539  23.808  37.311  11.191
60814W        W32540  33.841   6.631  10.716
60815W        W32541  13.599   4.506   2.693
60816W        W32542  31.452   5.946   0.302
60817W        W32543  27.366  26.002  13.933
60818W        W32544  15.856  38.387   2.418
60819W        W32545  18.099  39.506   0.986
60820W        W32546  26.154   8.889  10.510
60821W        W32547   6.453   3.858  13.100
60822W        W32548  42.299  18.706  10.717
60823W        W32549  35.100  16.355   0.814
60824W        W32550  38.256   5.802  14.977
60825W        W32551   5.453  33.963  11.186
60826W        W32552  44.819   2.511  14.462
60827W        W32553  35.845   1.674  14.219
60828W        W32554  10.227  30.997  14.727
60829W        W32555  24.117   4.129  12.895
60830W        W32556   0.012  17.388   2.360
60831W        W32557  16.300  33.276  10.742
60832W        W32558  22.420  23.075  10.955
60833W        W32559   7.046  24.194  13.046
60834W        W32560   8.202  16.678   4.191
60835W        W32561  29.626  38.908   1.218
60836W        W32562  41.845  38.951  11.578
60837W        W32563  17.662   9.625  13.531
60838W        W32564  41.340  22.428   2.233
60839W        W32565  26.916   8.358   0.335
60840W        W32566  12.249  13.737   4.763
60841W        W32567  22.546  33.622   0.264
60842W        W32568  40.947   7.664   2.311
60843W        W32569  29.476  25.532  12.460
60844W        W32570  42.496  32.441  14.447
60845W        W32571  16.768   0.895   1.375
60846W        W32572  38.954  24.543   2.696
60847W        W32573  36.688   5.038   1.365
60848W        W32574  40.633  12.036   3.744
60849W        W32575  39.990  17.971  10.996
60850W        W32576  27.084   2.507   1.342
60851W        W32577  37.751  37.524   5.076
60852W        W32578  41.222  23.630  10.639
60853W        W32579  32.604   0.904   1.231
60854W        W32580  44.475  34.288  11.148
60855W        W32581  20.923  21.827  13.983
60856W        W32582  39.052  22.182   2.102
60857W        W32583  13.071   9.919   1.739
60858W        W32584  13.708  13.905  14.673
60859W        W32585  24.045  36.552   4.174
60860W        W32586  39.079  34.402   3.151
60861W        W32587  31.421  26.103   4.040
60862W        W32588  39.060  12.210  10.455
60863W        W32589  43.775  27.499  13.313
60864W        W32590  15.274   7.334  12.889
60865W        W32591  10.213  40.750   1.343
60866W        W32592  19.285  24.549   0.267
60867W        W32593  43.001  29.698   3.186
60868W        W32594  28.653  22.236   1.667
60869W        W32595  22.425   9.223  14.835
60870W        W32596   4.667  19.131  13.515
60871W        W32597  22.745  25.047  12.846
60872W        W32598  25.391   0.725   4.634
60873W        W32599  24.963  31.551   2.168
60874W        W32600  38.877  23.525  14.973
60875W        W32601  11.334  14.106   3.670
60876W        W32602  44.729  34.523   2.778
60877W        W32603  27.743  35.200  13.166
60878W        W32604  42.394  12.418   4.312
60879W        W32605   0.033  27.616  11.667
60880W        W32606   7.117  35.976   2.273
60881W        W32607   4.992  12.906  11.524
60882W        W32608  18.570  37.662   3.617
60883W        W32609  29.048   9.268   2.573
60884W        W32610  25.708  17.515  11.192
60885W        W32611   0.957   0.215  14.002
60886W        W32612  12.221  22.614  11.949
60887W        W32613  30.856  30.914   3.263
60888W        W32614  17.603   2.754  12.326
60889W        W32615  41.900   6.054   4.150
60890W        W32616   0.233   1.873  10.652
60891W        W32617  13.943  42.364   1.518
60892W        W32618  44.460  41.309  11.919
60893W        W32619   5.752  18.252   2.425
60894W        W32620  39.522  13.489  11.062
60895W        W32621  16.233  43.869   4.923
60896W        W32622   4.502  26.644  12.342
60897W        W32623  17.052  31.772   0.444
60898W        W32624  35.014  18.792   1.628
60899W        W32625  20.098  29.658  11.411
60900W        W32626  37.132   5.397   0.469
60901W        W32627  39.222  44.888  12.073
60902W        W32628   5.392  25.546   4.141
60903W        W32629  21.476  36.108   1.392
60904W        W32630   8.153   9.186  10.722
60905W        W32631   4.441  37.490   4.245
60906W        W32632  10.153   6.860  13.089
60907W        W32633  33.457   7.332   4.326
60908W        W32634   9.196  10.836   3.490
60909W        W32635  35.216  11.028   3.222
60910W        W32636   9.969   9.738  12.444
60911W        W32637  18.268  43.322   1.693
60912W        W32638  29.919  31.085   1.748
60913W        W32639  41.851  17.183  12.700
60914W        W32640  15.126  41.108  12.874
60915W        W32641  39.308   0.385   3.860
60916W        W32642  41.229   4.631   4.490
60917W        W32643  39.084  42.400  14.830
60918W        W32644   0.449  17.317  12.607
60919W        W32645  15.310  26.585   0.961
60920W        W32646  17.151  34.153   4.188
60921W        W32647  27.709  39.163  13.411
60922W        W32648  30.383   7.142  13.537
60923W        W32649   9.592  17.294  12.350
60924W        W32650  12.094  24.217  13.995
60925W        W32651  29.071  33.014  13.997
60926W        W32652   2.708  37.674  11.162
60927W        W32653  18.009  16.299  11.530
60928W        W32654  13.597  13.476  10.796
60929W        W32655   7.705  22.633   2.680
60930W        W32656  43.656  18.249   2.823
60931W        W32657  31.128  24.009  11.064
60932W        W32658  14.508  30.690  14.328
60933W        W32659   2.804   6.333  12.971
60934W        W32660   2.729   0.963  12.037
60935W        W32661  32.333   9.867   0.627
60936W        W32662  17.884  42.921  13.505
60937W        W32663  30.564   0.524  13.983
60938W        W32664   6.157  28.430  13.243
60939W        W32665  17.997  11.242  13.965
60940W        W32666  37.293  18.929   1.382
60941W        W32667  40.535  21.170   3.676
60942W        W32668  12.079   8.104  12.066
60943W        W32669   6.307  26.597   1.522
60944W        W32670  16.089  20.682  11.251
60945W        W32671  33.352  23.666   2.150
60946W        W32672  22.739  36.135   4.151
60947W        W32673   9.776  26.512  11.691
60948W        W32674  38.499   8.439   2.671
60949W        W32675  29.139  36.502  10.640
60950W        W32676  19.131  36.628   4.920
60951W        W32677  20.227   0.637   4.720
60952W        W32678  44.011  17.021  12.278
60953W        W32679  33.772   9.351  13.123
60954W        W32680   7.268  24.685   3.799
60955W        W32681  15.504  31.924   0.848
60956W        W32682  28.709  34.391  11.188
60957W        W32683  28.493  23.167   3.700
60958W        W32684   7.489  25.429   0.294
60959W        W32685  29.750   9.135  12.938
60960W        W32686  41.950  28.229  10.785
60961W        W32687  42.826  35.025   0.247
60962W        W32688  17.147  33.665  13.097
60963W        W32689  24.189   7.810   2.645
60964W        W32690  31.185   8.589  11.048
60965W        W32691  24.048   0.812   0.242
60966W        W32692   1.260  30.735  11.059
60967W        W32693   7.684   5.898  14.679
60968W        W32694  11.758  31.220  12.468
60969W        W32695  31.937  25.099   1.931
60970W        W32696  28.471  14.651   0.717
60971W        W32697  21.095  32.139   2.170
60972W        W32698   3.198   2.245   0.933
60973W        W32699  25.565  14.306  14.974
60974W        W32700  23.657  28.538  12.542
60975W        W32701  13.730  26.664  12.743
60976W        W32702  23.842   4.771   3.605
60977W        W32703  15.890  29.639  10.559
60978W        W32704   2.941  12.250  13.963
60979W        W32705  29.296   9.149   2.142
60980W        W32706  28.584   7.163   4.235
60981W        W32707  27.081  32.575   0.447
60982W        W32708  14.881  39.765   1.213
60983W        W32709  21.063   7.089  14.830
60984W        W32710  31.087  12.042  14.055
60985W        W32711  29.911  40.084   2.360
60986W        W32712  14.639   5.791   3.274
60987W        W32713  19.440   1.861  10.601
60988W        W32714   2.366   4.653   4.052
60989W        W32715  43.720  41.867  10.617
60990W        W32716  13.690  34.571   4.577
60991W        W32717   9.775  26.582   4.680
60992W        W32718  16.577   7.714  12.816
60993W        W32719  17.710  11.759  13.096
60994W        W32720  42.285  23.026   3.665
60995W        W32721  15.825  38.589   4.296
60996W        W32722  15.571  19.034  11.453
60997W        W32723  39.293  21.352   2.830
60998W        W32724   8.853  32.372  12.346
60999W        W32725  29.225  14.991  14.881
61000W        W32726  37.128  10.822   1.436
61001W        W32727   7.486  33.717  13.417
61002W        W32728  16.544  14.561   2.251
61003W        W32729  25.401  37.518   0.672
61004W        W32730  30.142  12.558  10.815
61005W        W32731  13.576  37.936   1.342
61006W        W32732  24.578   5.922   2.756
61007W        W32733  31.401   4.298  13.889
61008W        W32734  11.591  44.261   1.524
61009W        W32735  22.701   2.370  14.247
61010W        W32736  37.341  33.523   4.245
61011W        W32737  44.830  14.043  12.078
61012W        W32738  21.447  26.594  11.466
61013W        W32739  44.415   9.516  10.721
61014W        W32740  20.517  23.111  11.513
61015W        W32741  39.424   6.156   2.096
61016W        W32742  22.143   9.705  14.828
61017W        W32743   8.576   5.398  12.067
61018W        W32744  15.215  29.965  11.579
61019W        W32745   3.993  11.800  14.236
61020W        W32746  17.047  17.200  11.331
61021W        W32747  32.875  30.824   2.948
61022W        W32748  25.419   5.049   3.707
61023W        W32749  34.939  30.349   0.564
61024W        W32750  23.224  29.391  14.945
61025W        W32751  31.702  44.580   5.126
61026W        W32752   5.228   2.558  12.611
61027W        W32753   0.919  18.237   3.336
61028W        W32754   9.295  18.402   0.126
61029W        W32755  36.877  36.875  10.648
61030W        W32756  18.422  19.520  13.122
61031W        W32757  38.590  33.993  13.612
61032W        W32758   0.249  32.870   2.378
61033W        W32759   9.311  22.835   5.072
61034W        W32760   0.344   5.226   4.152
61035W        W32761  30.408   8.176  14.300
61036W        W32762  43.516  20.059  11.209
61037W        W32763  16.228  43.466   2.236
61038W        W32764  42.177  36.193   4.605
61039W        W32765  39.367  38.805   2.034
61040W        W32766  15.356  37.519   3.673
61041W        W32767  33.966  22.781  13.986
61042W        W32768  38.557  39.616   0.471
61043W        W32769  20.466   9.327   3.726
61044W        W32770  30.979  34.338   2.854
61045W        W32771   5.886  27.555   0.252
61046W        W32772   5.179   6.649  12.529
61047W        W32773  27.998  29.889  13.376
61048W        W32774   8.411  42.090  13.566
61049W        W32775   5.916  18.388   3.519
61050W        W32776  37.507  28.569   1.210
61051W        W32777  40.421  23.910  13.036
61052W        W32778   2.235  42.951   2.256
61053W        W32779  12.229  12.839   4.793
61054W        W32780  40.415   3.625   2.204
61055W        W32781  28.615   6.796   0.961
61056W        W32782  28.101  23.972  14.420
61057W        W32783  29.080   2.911   3.764
61058W        W32784  33.449  27.779   4.659
61059W        W32785  24.571  32.910   0.039
61060W        W32786  13.643  15.960   1.694
61061W        W32787  27.736  31.658   0.161
61062W        W32788  21.124  35.141  11.992
61063W        W32789  25.383  36.936   4.229
61064W        W32790  27.085  37.557  11.118
61065W        W32791  39.886  24.432   2.662
61066W        W32792   9.305  17.395  11.016
61067W        W32793  34.467  24.333   4.182
61068W        W32794   8.820  22.073   1.832
61069W        W32795  36.924  33.915   4.073
61070W        W32796  29.885   6.946  12.507
61071W        W32797   2.962  26.518   0.420
61072W        W32798  20.340  26.266   2.295
61073W        W32799  19.291  10.824   2.774
61074W        W32800  12.268   0.406   3.841
61075W        W32801  39.416  41.455   1.005
61076W        W32802  39.892  24.696   3.649
61077W        W32803  26.565   9.398  12.355
61078W        W32804  39.475  22.784   2.808
61079W        W32805   8.768  28.569  11.480
61080W        W32806  16.672   7.939   3.228
61081W        W32807  19.293  13.735   2.978
61082W        W32808  44.427  41.421   2.474
61083W        W32809  37.834  44.476  10.648
61084W        W32810   6.880  12.753   2.177
61085W        W32811   9.227  38.000   0.043
61086W        W32812  19.721  31.450  12.447
61087W        W32813   0.420  32.354  11.676
61088W        W32814  20.006  44.408  14.995
61089W        W32815   2.775  43.381  13.419
61090W        W32816  41.879  15.623  11.225
61091W        W32817  20.731   9.777  12.148
61092W        W32818   1.278  13.393   1.714
61093W        W32819  27.426  33.467  13.822
61094W        W32820  12.236  37.067  13.871
61095W        W32821  10.635  13.294  14.932
61096W        W32822  42.018   2.809  11.982
61097W        W32823   1.992  33.363  11.462
61098W        W32824  42.438  43.544  12.796
61099W        W32825  28.154  24.696  10.471
61100W        W32826  33.473  18.766   3.091
61101W        W32827  15.825  30.410  10.371
61102W        W32828  23.519  26.123  11.964
61103W        W32829   1.414  41.951  13.808
61104W        W32830   9.206  30.007  14.028
61105W        W32831  38.901  24.581  10.675
61106W        W32832  12.895   0.439   4.990
61107W        W32833  38.830  43.571  13.968
61108W        W32834  33.784   7.224  14.243
61109W        W32835  32.810  14.667   3.604
61110W        W32836  31.407   3.984  14.326
61111W        W32837  14.411   3.730   3.352
61112W        W32838  41.129   7.850   3.702
61113W        W32839  41.590  20.927  13.859
61114W        W32840   1.030  32.200  11.882
61115W        W32841  10.812   7.120   3.528
61116W        W32842  10.143  38.302   1.579
61117W        W32843  14.584  34.001   1.410
61118W        W32844  18.342   2.480   1.999
61119W        W32845   4.686  27.456  12.015
61120W        W32846   5.760  17.771   2.679
61121W        W32847  12.827  11.731  12.541
61122W        W32848   7.182   6.394   4.316
61123W        W32849  42.299  38.968   0.492
61124W        W32850   8.972  12.057   5.097
61125W        W32851  32.871  25.295  10.670
61126W        W32852  40.953   2.957  12.519
61127W        W32853   4.953  23.553  11.581
61128W        W32854  13.124  30.536  11.361
61129W        W32855  11.738  22.156  10.751
61130W        W32856  36.472  31.898   4.172
61131W        W32857  43.432  28.359   2.372
61132W        W32858  28.521  42.823   0.179
61133W        W32859  27.086  14.991   1.773
61134W        W32860  39.713   8.161   0.249
61135W        W32861  23.209  29.431   0.946
61136W        W32862  23.986  10.315  13.007
61137W        W32863   8.145   6.722   0.908
61138W        W32864  10.563  37.192   3.679
61139W        W32865  17.301  25.202   2.397
61140W        W32866  32.548  32.083   2.676
61141W        W32867   4.427  14.724  14.336
61142W        W32868   9.393  26.537  11.354
61143W        W32869  31.686  18.065   2.856
61144W        W32870  39.309  23.510   4.103
61145W        W32871  20.700  11.247   2.736
61146W        W32872  37.271   5.646  11.618
61147W        W32873  14.310  35.539  13.223
61148W        W32874   0.747  20.667  13.672
61149W        W32875  29.303  37.735   4.826
61150W        W32876  10.186  11.252   2.209
61151W        W32877  18.394  23.130   0.968
61152W        W32878  30.596   2.904   4.496
61153W        W32879   7.177   2.284   3.076
61154W        W32880  41.981   9.771   0.782
61155W        W32881  29.729  10.589  12.945
61156W        W32882   9.038  13.610  13.383
61157W        W32883  30.881  19.185  13.016
61158W        W32884  43.293  38.973  11.616
61159W        W32885  42.736  35.326  14.330
61160W        W32886   4.439  36.114  12.916
61161W        W32887  13.670  33.556  14.087
61162W        W32888  26.532  17.334   4.541
61163W        W32889   8.704  22.814   0.185
61164W        W32890   1.842  43.486   0.317
61165W        W32891   6.971  12.075   2.390
61166W        W32892  30.066   1.514   0.813
61167W        W32893   5.675   5.777   4.691
61168W        W32894  38.762  21.204  12.057
61169W        W32895   2.772  43.894   2.760
61170W        W32896  16.580  28.824   0.803
61171W        W32897  18.998   1.273   2.783
61172W        W32898  43.322   6.883  10.138
61173W        W32899  44.027  36.603  14.508
61174W        W32900  32.535  25.259  10.224
61175W        W32901   2.487  32.138  10.862
61176W        W32902  30.859  44.736  14.287
61177W        W32903  15.119  44.482   1.339
61178W        W32904  29.502   9.007   4.721
61179W        W32905  22.758   1.215   2.688
61180W        W32906  20.729  35.887  12.517
61181W        W32907  25.180   3.171   0.344
61182W        W32908  16.611  38.334  13.314
61183W        W32909  27.011  41.765  12.586
61184W        W32910  26.654   5.218   0.822
61185W        W32911  31.424   3.241  11.728
61186W        W32912  34.080  34.162   0.497
61187W        W32913  20.757  21.512   3.647
61188W        W32914  26.957   6.966   0.410
61189W        W32915  17.354  40.781   0.829
61190W        W32916   9.856  35.902   3.624
61191W        W32917  21.774  17.821  10.711
61192W        W32918  15.311  14.371  13.357
61193W        W32919   4.507  12.351   2.291
61194W        W32920  25.843   1.501  13.532
61195W        W32921  29.978  13.355   3.942
61196W        W32922  30.595  40.362  10.751
61197W        W32923  15.575  16.145  12.254
61198W        W32924  30.964  13.482  10.517
61199W        W32925   4.803  19.239   0.964
61200W        W32926   0.708  43.147  14.860
61201W        W32927   0.450  21.440   1.400
61202W        W32928  19.778  25.569  14.811
61203W        W32929  18.183  16.684   3.607
61204W        W32930  18.138   6.395   3.353
61205W        W32931  28.092  22.799   4.197
61206W        W32932  34.414  29.679  12.327
61207W        W32933   9.435  19.368  13.979
61208W        W32934  30.386  23.780  11.039
61209W        W32935  43.916  32.138  14.378
61210W        W32936  19.758  39.294  14.864
61211W        W32937  32.210   7.949   3.643
61212W        W32938  17.281  31.734  13.502
61213W        W32939  11.090   6.713   1.838
61214W        W32940  20.082   1.559  12.152
61215W        W32941  35.312   3.790  13.585
61216W        W32942   6.652   8.701   2.879
61217W        W32943   2.441  38.276   0.212
61218W        W32944  17.195  37.323   0.929
61219W        W32945  25.073  29.317   5.078
61220W        W32946  35.091  14.045  10.683
61221W        W32947   7.998  25.949  12.116
61222W        W32948   4.176  13.704  14.498
61223W        W32949   5.999  41.614  14.221
61224W        W32950  39.347  22.727  10.876
61225W        W32951  40.767  15.246  12.055
61226W        W32952  41.372  24.616   3.363
61227W        W32953  37.513  25.040   3.091
61228W        W32954  17.089   2.414   3.885
61229W        W32955  18.433   2.300   5.058
61230W        W32956  10.564  26.970  11.906
61231W        W32957   0.783  21.096  11.474
61232W        W32958  21.814  10.787   3.748
61233W        W32959  17.637  21.712  13.095
61234W        W32960  16.249  42.869  14.844
61235W        W32961   5.712  22.078  13.533
61236W        W32962   0.024  42.573  11.434
61237W        W32963  42.328  38.348   2.732
61238W        W32964  12.367  43.283  11.054
61239W        W32965  33.183  11.584   0.874
61240W        W32966  19.831  11.311   1.120
61241W        W32967  27.683  28.531  14.593
61242W        W32968  10.688   1.865   1.462
61243W        W32969  41.298  37.990  12.524
61244W        W32970  21.331  19.064   3.646
61245W        W32971  13.162  16.543   1.377
61246W        W32972   9.626  39.304  10.752
61247W        W32973  40.532  39.432   1.707
61248W        W32974  19.203   0.645   3.613
61249W        W32975  23.569  32.987   1.115
61250W        W32976  15.625  41.796  13.324
61251W        W32977  10.322  44.960   1.347
61252W        W32978  30.062  29.735   0.230
61253W        W32979  43.918  17.035  12.790
61254W        W32980  36.002   5.294   0.722
61255W        W32981  39.342  42.732   4.658
61256W        W32982  40.039   7.432   1.099
61257W        W32983  37.784  28.408   0.810
61258W        W32984  31.039  20.067  12.025
61259W        W32985  17.395  26.846   4.302
61260W        W32986   8.840  22.990  12.049
61261W        W32987   3.592  38.934   1.473
61262W        W32988   9.522  20.303   0.460
61263W        W32989  10.140  15.868   4.401
61264W        W32990  22.215  26.443  11.961
61265W        W32991  19.716  10.619  10.535
61266W        W32992   4.941  42.779   0.490
61267W        W32993  32.336  32.543   3.332
61268W        W32994   3.180  27.425   4.204
61269W        W32995  22.529  43.940   3.481
61270W        W32996  26.048  33.726   2.343
61271W        W32997  25.110  31.265  14.622
61272W        W32998   7.112  32.173  10.575
61273W        W32999  12.842  36.801   0.269
61274W        W33000   6.316  12.101   4.721
61275W        W33001   2.464  44.357   2.758
61276W        W33002  22.587  12.302   1.863
61277W        W33003   5.773   0.900  12.355
61278W        W33004  20.968  20.301   2.761
61279W        W33005  11.790   0.780  14.135
61280W        W33006  35.851   9.929   1.703
61281W        W33007  11.309  34.983   3.173
61282W        W33008   9.200  20.292   4.875
61283W        W33009  44.398  31.643   3.935
61284W        W33010  10.715  25.357  12.886
61285W        W33011  35.410  32.654  10.937
61286W        W33012  35.371  22.950   4.120
61287W        W33013  10.919  26.560  11.224
61288W        W33014  25.935  13.158  12.460
61289W        W33015   8.734  40.752  13.037
61290W        W33016  20.783  29.137  12.334
61291W        W33017  33.007  12.916  12.348
61292W        W33018  16.287  18.696   3.152
61293W        W33019  16.722  33.577   2.142
61294W        W33020   7.660  11.685  14.492
61295W        W33021   6.861  35.337   1.805
61296W        W33022  30.885  31.247  12.171
61297W        W33023  23.474  20.661  14.408
61298W        W33024  42.493  31.063  14.653
61299W        W33025  27.583  32.547  14.796
61300W        W33026  37.513   4.954  14.823
61301W        W33027  22.746  11.863  10.538
61302W        W33028  28.619   6.227  13.136
61303W        W33029  27.540  31.235  14.964
61304W        W33030   5.029   5.375  10.968
61305W        W33031  29.625  32.460   4.500
61306W        W33032   0.978   7.459  14.888
61307W        W33033   3.430  21.268   4.125
61308W        W33034   5.840  10.359  12.949
61309W        W33035  39.448  16.243   1.415
61310W        W33036  32.974  17.244  10.842
61311W        W33037  37.281  22.317  12.854
61312W        W33038  13.915  11.754  14.607
61313W        W33039  33.708  34.858  13.937
61314W        W33040   3.027  10.132  11.183
61315W        W33041  16.602  39.538   0.338
61316W        W33042  33.405  22.751  12.562
61317W        W33043  22.454  14.095  12.017
61318W        W33044  39.994  33.875   4.032
61319W        W33045   0.858   2.160   4.173
61320W        W33046  41.095  27.401  14.566
61321W        W33047  44.229  39.982  14.455
61322W        W33048  38.913  26.760  14.465
61323W        W33049   3.196  29.477  14.245
61324W        W33050  12.829  43.540  11.085
61325W        W33051   3.961  11.625   0.232
61326W        W33052  20.816   4.272   4.587
61327W        W33053  15.895  31.238   5.074
61328W        W33054  24.928  43.699  12.012
61329W        W33055  30.710   3.463   1.436
61330W        W33056  27.123   6.274  10.372
61331W        W33057  41.061  19.940   3.544
61332W        W33058  18.154  35.429  14.651
61333W        W33059  29.055   5.825  13.088
61334W        W33060  32.401  39.490   3.767
61335W        W33061   1.765  36.642   2.712
61336W        W33062   1.983   5.517   4.097
61337W        W33063  33.003  43.232   1.951
61338W        W33064  37.128  26.252   0.320
61339W        W33065  33.888  26.917   0.380
61340W        W33066  10.299  44.143   5.109
61341W        W33067   6.844  25.498  12.434
61342W        W33068  32.000   1.318  10.560
61343W        W33069  40.803  17.355   0.781
61344W        W33070   4.772   1.296  12.869
61345W        W33071  24.564  34.668   2.646
61346W        W33072  36.638   4.905   4.580
61347W        W33073  18.181  18.672  13.127
61348W        W33074  22.051  15.466   2.015
61349W        W33075  28.570  42.479  11.517
61350W        W33076  42.040  11.831  14.218
61351W        W33077  36.060  43.810   1.412
61352W        W33078   0.930  40.558   3.596
61353W        W33079   2.979  21.750   0.669
61354W        W33080  35.860  21.046   1.693
61355W        W33081  41.859  42.024  11.520
61356W        W33082  14.621  34.302  14.720
61357W        W33083  30.595   4.812  13.597
61358W        W33084   0.349  33.677  13.961
61359W        W33085  17.332   8.267  12.586
61360W        W33086   0.767  38.476   0.008
61361W        W33087  37.020  11.407  12.102
61362W        W33088   7.507  44.306   3.158
61363W        W33089  34.486  28.049  10.983
61364W        W33090  38.860  38.312  13.854
61365W        W33091  17.640  14.224   3.404
61366W        W33092  20.366  17.254   0.797
61367W        W33093  29.652   8.270   1.196
61368W        W33094   7.361  11.860   4.629
61369W        W33095  11.778  19.711  14.408
61370W        W33096   9.892  33.980  11.928
61371W        W33097  26.586  25.155   3.203
61372W        W33098  12.768  38.888  10.713
61373W        W33099  42.806  11.241  13.395
61374W        W33100  15.511  40.945  14.871
61375W        W33101  14.021  28.707  11.139
61376W        W33102   9.298  32.854   1.052
61377W        W33103  42.818  23.442   2.633
61378W        W33104  22.820  42.788   3.750
61379W        W33105  13.041  11.842  14.852
61380W        W33106  15.021  25.756   4.122
61381W        W33107   0.352  27.229   0.770
61382W        W33108  24.929  39.044  10.996
61383W        W33109   6.334  10.124  13.862
61384W        W33110   2.133  14.821   1.389
61385W        W33111  26.572  15.794   4.059
61386W        W33112  34.424  35.648   4.279
61387W        W33113  29.045  36.972   3.130
61388W        W33114  40.848   4.506  11.702
61389W        W33115  37.372  30.940  14.995
61390W        W33116  34.297  38.081  14.021
61391W        W33117  43.858   2.233  12.160
61392W        W33118  21.983  19.381  13.786
61393W        W33119  32.982  16.817   0.032
61394W        W33120   6.712  33.941   3.287
61395W        W33121  13.979  11.917   4.514
61396W        W33122  29.932  39.537  11.209
61397W        W33123  34.543  38.524  13.349
61398W        W33124  27.992   0.743  12.574
61399W        W33125   4.828  42.182  13.114
61400W        W33126  12.775  12.642  12.111
61401W        W33127  30.253  27.466  14.445
61402W        W33128  14.717  10.055  14.323
61403W        W33129  27.583  12.331  10.592
61404W        W33130   8.629   7.230  11.481
61405W        W33131  39.087  25.527   3.803
61406W        W33132  28.992  23.471  14.385
61407W        W33133  38.136  39.372  11.011
61408W        W33134  36.563  40.921  14.432
61409W        W33135  29.215  36.401   4.333
61410W        W33136  34.027  36.888  11.932
61411W        W33137   7.746  11.384  14.915
61412W        W33138   0.041  25.932   3.727
61413W        W33139  15.715  20.332   1.806
61414W        W33140  12.256  31.014  14.527
61415W        W33141  18.997  17.141  12.455
61416W        W33142  32.515  25.634   3.372
61417W        W33143  37.370  35.469   2.203
61418W        W33144  14.934  20.688   2.340
61419W        W33145  17.134  32.210  14.480
61420W        W33146  16.963  41.395   1.260
61421W        W33147   4.934  34.125  12.050
61422W        W33148  35.066  11.606   9.862
61423W        W33149  42.083   8.777  10.949
61424W        W33150  44.742  39.172   4.068
61425W        W33151   9.347  40.768   4.627
61426W        W33152   4.022   2.350  10.995
61427W        W33153   0.728   5.926   2.971
61428W        W33154  19.544  34.261  14.609
61429W        W33155  30.167  40.486   1.921
61430W        W33156  12.858  40.904  12.033
61431W        W33157   2.929   1.991  10.539
61432W        W33158  10.290  19.543   5.146
61433W        W33159  42.347   9.402   1.916
61434W        W33160   7.484   1.828  13.456
61435W        W33161  13.146  27.450  14.003
61436W        W33162  31.255  29.223  10.584
61437W        W33163  19.800  15.890  11.983
61438W        W33164  34.121  21.023  11.297
61439W        W33165  20.107   2.793   0.980
61440W        W33166   1.218  26.202  11.592
61441W        W33167  14.833   7.927   1.262
61442W        W33168   6.651   8.525   5.120
61443W        W33169  12.273  11.812  14.303
61444W        W33170  11.794  25.096   2.812
61445W        W33171  21.496   0.522  11.327
61446W        W33172  30.057   5.153   4.208
61447W        W33173  30.582  10.766  11.969
61448W        W33174   8.415  20.201  12.546
61449W        W33175  32.534  17.174  12.128
61450W        W33176  38.994  28.453  12.109
61451W        W33177  24.371  12.671  14.421
61452W        W33178  18.517  19.718  11.086
61453W        W33179  17.845   9.820  14.513
61454W        W33180  39.578  20.694  11.960
61455W        W33181  42.035  30.912   1.569
61456W        W33182  16.831  43.617  12.337
61457W        W33183  39.467  39.748   3.096
61458W        W33184   3.868  37.379   1.865
61459W        W33185  28.602  26.230  13.420
61460W        W33186  19.537  44.204  14.926
61461W        W33187  18.538   8.752  14.191
61462W        W33188  33.442  12.223   4.085
61463W        W33189  32.178  25.659  10.245
61464W        W33190  19.784  25.091  14.511
61465W        W33191   6.112  17.280   1.988
61466W        W33192  44.353  24.777   3.211
61467W        W33193  33.851  31.981   1.169
61468W        W33194  18.631   0.684   3.117
61469W        W33195   5.956   9.927  12.643
61470W        W33196  25.081  12.138  11.292
61471W        W33197  10.950  40.358   2.985
61472W        W33198  34.648   3.444  12.201
61473W        W33199  25.585   3.882  13.501
61474W        W33200  18.348  26.482  12.425
61475W        W33201  38.534  24.504   0.310
61476W        W33202  16.480  29.616  14.311
61477W        W33203   7.326   3.372   3.159
61478W        W33204  30.227  15.700   0.965
61479W        W33205   0.678  34.963  10.542
61480W        W33206  18.921  11.748   2.656
61481W        W33207  40.519   9.822  10.373
61482W        W33208  30.775  26.589   1.433
61483W        W33209   3.289  27.387  12.167
61484W        W33210  38.410  30.974  14.799
61485W        W33211  14.758  12.198  13.952
61486W        W33212  10.226   2.035  10.521
61487W        W33213  16.700  11.103   4.168
61488W        W33214  39.311   3.629  14.403
61489W        W33215  37.794  24.650   3.307
61490W        W33216   1.886  26.460   1.817
61491W        W33217  30.696  15.595   2.222
61492W        W33218  44.400   5.237  14.323
61493W        W33219   0.916  43.856  14.347
61494W        W33220   9.162  37.826  14.410
61495W        W33221  29.019  30.610   2.397
61496W        W33222  10.735   8.931   0.238
61497W        W33223  42.461  11.113  12.962
61498W        W33224  19.853  38.390  13.617
61499W        W33225  22.272  36.485   2.778
61500W        W33226  14.163  36.625  11.997
61501W        W33227  26.639  38.432  13.369
61502W        W33228  31.137  28.955   0.370
61503W        W33229  17.684  31.520   4.614
61504W        W33230  17.512  32.052   4.351
61505W        W33231  23.260  25.655  11.832
61506W        W33232  21.211   4.194  11.827
61507W        W33233  15.578  17.477  11.105
61508W        W33234  10.423  32.356  12.836
61509W        W33235  10.409   4.962   1.740
61510W        W33236  19.139  40.851   2.465
61511W        W33237  11.687  35.657   0.922
61512W        W33238  19.779  37.004   0.862
61513W        W33239  42.366  11.227   3.932
61514W        W33240  32.405  14.569  14.894
61515W        W33241   0.062  41.796   0.963
61516W        W33242  16.212  39.772  11.738
61517W        W33243  20.654  12.389  14.321
61518W        W33244  11.897  17.694  14.731
61519W        W33245  42.292   5.149  12.514
61520W        W33246  20.081  33.968  11.997
61521W        W33247  28.635  17.294  14.396
61522W        W33248  30.016  17.054  10.539
61523W        W33249   1.901  24.280   0.927
61524W        W33250   1.936   3.394   1.883
61525W        W33251  22.730  44.419  13.573
61526W        W33252  17.150   8.742   0.744
61527W        W33253   4.893  29.657  10.760
61528W        W33254  33.626   0.628   0.964
61529W        W33255  27.969  37.546   4.596
61530W        W33256  12.578  35.317   2.866
61531W        W33257  22.582  31.754   0.154
61532W        W33258  10.869  42.289   3.290
61533W        W33259  29.961  39.278   1.313
61534W        W33260  15.521  16.259   3.727
61535W        W33261  37.802  10.435   3.795
61536W        W33262   4.604  40.561  12.623
61537W        W33263  23.307  23.173   4.098
61538W        W33264  14.168  27.490  11.410
61539W        W33265  15.779  27.001  10.715
61540W        W33266  19.253  39.888  12.120
61541W        W33267  28.220  36.118  14.930
61542W        W33268   6.870  30.419   3.333
61543W        W33269  17.488  36.938   0.721
61544W        W33270  21.492  39.132   3.204
61545W        W33271   0.198  28.267  14.324
61546W        W33272  23.293  44.291  13.813
61547W        W33273  43.492  38.219  12.469
61548W        W33274  19.027  11.433   1.374
61549W        W33275  42.695  38.953   2.293
61550W        W33276  42.288  12.279   1.407
61551W        W33277  39.014  22.949  11.193
61552W        W33278   3.835   8.139  13.641
61553W        W33279  15.506   9.137   4.207
61554W        W33280  21.245   4.682  12.056
61555W        W33281  13.602  25.301   3.247
61556W        W33282   9.223   1.884  10.420
61557W        W33283  31.219  39.900   0.737
61558W        W33284  12.591  15.037  10.800
61559W        W33285  11.723   4.404   0.824
61560W        W33286  40.950  41.110  12.668
61561W        W33287  22.822  15.758   9.924
61562W        W33288   6.261   2.261  11.173
61563W        W33289  33.793  32.872  12.100
61564W        W33290  29.412   2.256   1.762
61565W        W33291  18.773  32.947  11.219
61566W        W33292  42.536  13.314   4.314
61567W        W33293   2.299  42.372   4.652
61568W        W33294   1.647  39.014   4.512
61569W        W33295   5.593   6.595   4.267
61570W        W33296  41.395  23.465   2.391
61571W        W33297  37.527  29.431   4.158
61572W        W33298  10.791  44.490  11.702
61573W        W33299   7.753  37.845   4.362
61574W        W33300   3.870  21.323   4.400
61575W        W33301  32.236  42.551   4.598
61576W        W33302  34.050  22.737  14.884
61577W        W33303  21.001  34.407   1.857
61578W        W33304  44.014  14.254   0.676
61579W        W33305  33.943  35.367  13.436
61580W        W33306  17.817  11.125   1.878
61581W        W33307  36.787   8.981  12.909
61582W        W33308  21.998   4.668  13.063
61583W        W33309  15.283   8.429   3.269
61584W        W33310  34.137  10.427   4.280
61585W        W33311  13.818  18.555  13.421
61586W        W33312   7.060   7.403   9.683
61587W        W33313  29.435  31.190   2.729
61588W        W33314   0.060   5.691  10.386
61589W        W33315  10.895  17.729  13.848
61590W        W33316  19.994  43.746  13.215
61591W        W33317  13.330  23.084   4.716
61592W        W33318  33.308  39.295   1.761
61593W        W33319  13.642  29.358   2.878
61594W        W33320  33.458  32.780   4.966
61595W        W33321   6.785  30.053   0.350
61596W        W33322  23.805  14.619   9.667
61597W        W33323   5.849  11.286  14.850
61598W        W33324  36.799  38.908   3.206
61599W        W33325  26.617  44.257  11.296
61600W        W33326  39.321   7.356  14.092
61601W        W33327  29.124  19.394   0.363
61602W        W33328   9.298  18.173   4.499
61603W        W33329  37.727  18.248  10.378
61604W        W33330  42.376  14.783   4.257
61605W        W33331  13.599   3.118  10.427
61606W        W33332  21.526   0.018  11.460
61607W        W33333  38.540  23.279  12.973
61608W        W33334  31.162  41.928   3.099
61609W        W33335  22.575  23.946   1.280
61610W        W33336  31.533  24.277  13.869
61611W        W33337  31.548  43.405   1.465
61612W        W33338  14.790  30.593  12.496
61613W        W33339   6.643  35.982   2.478
61614W        W33340  20.239  30.858  13.580
61615W        W33341   4.007  42.447   2.456
61616W        W33342   9.628   8.909   3.750
61617W        W33343  26.506  33.144  11.189
61618W        W33344   3.895   9.148   4.482
61619W        W33345  17.248  29.190   2.892
61620W        W33346  31.305  13.692   1.850
61621W        W33347  25.968  40.788   4.055
61622W        W33348  12.922   8.768   2.424
61623W        W33349  33.352  31.053  10.383
61624W        W33350  20.545  31.463   4.158
61625W        W33351  35.977   8.266   1.292
61626W        W33352  33.807   6.525  11.571
61627W        W33353  20.532  14.849   2.684
61628W        W33354   5.055   5.853   1.787
61629W        W33355  36.002  43.145   3.525
61630W        W33356  20.577  16.167  11.530
61631W        W33357  29.633  41.898   2.861
61632W        W33358  16.652   4.130   2.957
61633W        W33359  23.022  20.451   3.602
61634W        W33360  29.740  27.592  11.680
61635W        W33361   3.822   7.166  11.317
61636W        W33362  31.363  40.673   3.258
61637W        W33363  20.420   4.680   5.069
61638W        W33364  16.319  22.513   0.449
61639W        W33365  17.107  26.712   4.712
61640W        W33366  18.732  25.209   1.433
61641W        W33367  40.460   8.705   2.607
61642W        W33368  38.415   8.408  14.562
61643W        W33369  11.453   3.389   0.979
61644W        W33370  14.628   8.120   1.698
61645W        W33371  30.972  10.827   0.428
61646W        W33372  29.945  40.891   4.400
61647W        W33373  16.589  22.462   4.568
61648W        W33374  29.645  39.308   4.267
61649W        W33375  13.750  22.726  13.902
61650W        W33376  15.620  34.201   2.126
61651W        W33377  20.381  13.917   1.702
61652W        W33378  41.079   1.201  14.273
61653W        W33379  31.271  31.605   1.424
61654W        W33380   8.868   6.952   4.294
61655W        W33381   8.819   7.872  14.936
61656W        W33382  13.248  34.377  14.237
61657W        W33383  39.009  19.205   2.361
61658W        W33384  28.875  36.045  10.578
61659W        W33385  27.833   2.225   0.400
61660W        W33386   2.289  32.153   1.726
61661W        W33387   2.672  41.045   0.878
61662W        W33388  15.732  26.057  13.511
61663W        W33389  37.504  44.239  13.113
61664W        W33390  21.834  40.054   2.160
61665W        W33391  42.762  18.626  12.059
61666W        W33392  40.895  24.044   3.633
61667W        W33393  17.816  15.820  12.406
61668W        W33394  38.988  10.437  11.705
61669W        W33395  33.158  26.609  14.964
61670W        W33396   3.686  29.648  11.959
61671W        W33397  22.563  30.660   4.207
61672W        W33398   3.956  15.567   5.488
61673W        W33399  31.471   8.072   1.827
61674W        W33400  36.326  19.315   1.416
61675W        W33401  22.515  41.579   0.612
61676W        W33402  15.117   7.287  12.400
61677W        W33403  40.876   4.969   9.909
61678W        W33404  32.846  24.593   1.275
61679W        W33405  33.583  23.511  13.659
61680W        W33406   9.433  23.342   4.986
61681W        W33407  33.551   5.393   2.421
61682W        W33408   5.890  32.687   4.477
61683W        W33409  40.971  26.668   4.544
61684W        W33410  34.103  15.736   1.245
61685W        W33411  14.573  31.683   1.094
61686W        W33412  14.065  25.480   1.411
61687W        W33413  32.337  29.987  12.893
61688W        W33414  11.779  34.392   0.467
61689W        W33415  10.632  37.844   0.284
61690W        W33416  41.286   8.905   5.036
61691W        W33417  11.692  18.001  13.321
61692W        W33418  16.141  33.848   4.037
61693W        W33419   2.481  35.846   2.806
61694W        W33420  44.960  44.011   4.219
61695W        W33421  22.519  39.989  10.969
61696W        W33422  22.945   9.587   1.128
61697W        W33423  43.749  15.691   2.499
61698W        W33424  19.656  23.291   1.473
61699W        W33425  23.457  13.109  14.448
61700W        W33426  35.415  24.601  13.786
61701W        W33427  34.888  21.114   9.936
61702W        W33428  39.785  28.452  11.097
61703W        W33429  32.476   6.395   2.252
61704W        W33430  37.892   0.841  14.287
61705W        W33431  44.654   0.297   0.046
61706W        W33432  27.188  36.654   3.046
61707W        W33433  25.533  17.054  12.637
61708W        W33434   7.318  30.033  11.559
61709W        W33435  37.030  42.476   1.481
61710W        W33436  33.383   2.445   1.824
61711W        W33437  30.513  42.238  11.047
61712W        W33438   7.670  17.743  12.320
61713W        W33439  39.828  29.037  10.743
61714W        W33440  40.761   7.282  14.049
61715W        W33441  25.506  13.108  13.908
61716W        W33442  14.725  39.401   1.910
61717W        W33443  17.066   4.347   2.577
61718W        W33444  31.091  23.585  12.384
61719W        W33445  22.272   0.341   3.819
61720W        W33446  34.150  41.380  14.786
61721W        W33447  43.369  42.025   2.829
61722W        W33448  43.495  30.132  12.652
61723W        W33449  28.442  24.716  12.943
61724W        W33450  27.987  27.023   0.476
61725W        W33451  37.597  26.797   0.396
61726W        W33452  41.016  31.135   1.352
61727W        W33453  28.143  41.288  11.158
61728W        W33454  40.011  35.909   3.096
61729W        W33455  31.593  35.998   3.357
61730W        W33456  16.110  37.199  10.219
61731W        W33457  13.075  21.128   3.578
61732W        W33458  33.961  17.648  10.568
61733W        W33459  37.495  43.360   4.714
61734W        W33460  42.026   3.052  13.949
61735W        W33461   7.806  11.741  12.848
61736W        W33462  38.826  38.923   4.135
61737W        W33463  44.415  32.862  13.301
61738W        W33464   1.830   7.712  14.228
61739W        W33465   2.870   0.811   4.853
61740W        W33466   8.884  31.012   2.150
61741W        W33467  18.388  42.861  13.540
61742W        W33468  10.956  30.198  12.295
61743W        W33469  11.635  12.507  11.463
61744W        W33470  37.937   8.776  12.137
61745W        W33471  20.376  43.444   0.814
61746W        W33472  21.003   2.907   3.953
61747W        W33473  12.312  36.271  11.955
61748W        W33474  44.391  44.588   4.360
61749W        W33475  35.035  12.271  13.726
61750W        W33476  31.031   7.834   1.634
61751W        W33477  44.868  15.094  11.030
61752W        W33478  44.436  11.672   5.035
61753W        W33479  20.624  22.154   1.863
61754W        W33480  41.072  14.360   1.851
61755W        W33481   4.001   5.435  13.640
61756W        W33482  36.760  32.473   1.355
61757W        W33483  38.580  33.634  13.244
61758W        W33484  34.316  37.640   4.395
61759W        W33485  10.344  31.039   4.504
61760W        W33486  35.689  19.924   3.312
61761W        W33487  11.166  31.562   3.659
61762W        W33488  40.848  24.647   3.274
61763W        W33489  21.271  39.728  13.018
61764W        W33490   4.969  37.445   4.168
61765W        W33491   3.373  18.711   1.151
61766W        W33492  20.996  26.074   1.894
61767W        W33493  19.188   7.252   3.510
61768W        W33494  19.766   0.519  10.921
61769W        W33495   7.339   1.913   0.369
61770W        W33496  43.930  25.626   1.817
61771W        W33497  28.489  42.903  14.374
61772W        W33498  32.145   7.248   0.371
61773W        W33499   4.144  34.823  11.130
61774W        W33500  38.935   0.264  14.971
61775W        W33501   6.857  27.889   0.384
61776W        W33502  19.677  26.506   2.613
61777W        W33503  25.295  13.295   3.446
61778W        W33504  22.340   2.450  13.863
61779W        W33505   3.348   4.260  12.423
61780W        W33506  19.789  27.247  11.894
61781W        W33507   4.123   0.874  14.802
61782W        W33508  39.038  42.291   2.268
61783W        W33509  23.009  30.620   4.464
61784W        W33510  23.302  24.080   3.731
61785W        W33511  11.209  24.520   9.910
61786W        W33512  14.936  34.037   4.874
61787W        W33513  27.209   8.809   2.781
61788W        W33514  23.935  38.787  11.034
61789W        W33515   2.314  19.554   4.178
61790W        W33516  44.379  22.761  13.298
61791W        W33517   4.978   1.305   3.643
61792W        W33518  26.671   4.439  10.675
61793W        W33519   8.308  23.502   3.658
61794W        W33520   6.636  41.260   1.022
61795W        W33521  28.168  42.061  14.004
61796W        W33522  29.947   1.520   2.690
61797W        W33523  34.641  44.810   1.043
61798W        W33524   6.331  25.742   3.751
61799W        W33525  25.977  31.487  11.673
61800W        W33526   8.661  32.896   4.212
61801W        W33527  34.437  41.523   3.166
61802W        W33528  21.411   0.319   2.691
61803W        W33529  38.445  43.372   4.697
61804W        W33530  16.305  35.380   2.317
61805W        W33531   9.280  28.229  13.909
61806W        W33532  21.426   1.600   2.361
61807W        W33533  43.741  42.966  12.077
61808W        W33534  38.005  26.007   1.385
61809W        W33535  26.816  23.098  11.552
61810W        W33536  28.482  44.490  14.718
61811W        W33537   1.838  15.768  12.510
61812W        W33538  29.075  15.716  12.708
61813W        W33539   1.856  38.293   1.884
61814W        W33540  30.331  37.883   1.765
61815W        W33541  22.581  15.079  12.140
61816W        W33542  24.668  28.528  11.560
61817W        W33543  41.196  44.126   2.845
61818W        W33544   1.445  15.141  11.582
61819W        W33545  41.037  26.135  13.247
61820W        W33546   2.258  44.626  10.210
61821W        W33547   8.825   9.938   4.869
61822W        W33548   0.009  42.730   3.844
61823W        W33549  21.192  10.733  14.823
61824W        W33550  42.540   2.016   2.817
61825W        W33551  39.601  14.556   1.918
61826W        W33552  31.404  19.333  10.440
61827W        W33553   8.795   0.367  11.678
61828W        W33554  41.524   1.490  14.444
61829W        W33555  42.161  19.448  12.364
61830W        W33556  27.160  40.891  13.281
61831W        W33557  42.366  22.636   1.353
61832W        W33558  10.374  17.757   4.560
61833W        W33559  41.573  37.233  14.521
61834W        W33560  43.733  18.744   3.779
61835W        W33561  24.586   4.170   3.483
61836W        W33562  18.741  29.414  14.916
61837W        W33563  25.109  25.667   5.070
61838W        W33564   5.213  10.863  11.362
61839W        W33565  37.903   8.467  11.200
61840W        W33566  21.517  35.168   2.655
61841W        W33567  36.001   3.442   4.688
61842W        W33568  44.021  30.064   0.652
61843W        W33569  11.842  31.107   2.451
61844W        W33570   0.497   0.979  11.191
61845W        W33571  39.321  42.025  12.380
61846W        W33572  16.497   6.808   3.187
61847W        W33573  43.981   2.734  12.030
61848W        W33574  26.317  17.683   3.750
61849W        W33575  15.353  13.709  13.876
61850W        W33576  16.790  41.951   1.866
61851W        W33577  36.642  32.067   1.699
61852W        W33578  34.373  22.667  11.023
61853W        W33579  14.917  25.622  12.467
61854W        W33580  30.375  24.633  11.614
61855W        W33581   3.541   3.497   0.854
61856W        W33582  23.279  27.957   3.382
61857W        W33583  30.540  25.511   0.053
61858W        W33584  18.471  19.236   1.531
61859W        W33585  37.917  28.942   1.266
61860W        W33586  31.531  44.342  12.408
61861W        W33587  22.002  19.461   0.864
61862W        W33588  18.245  40.359   3.885
61863W        W33589  33.554  38.598   3.715
61864W        W33590  16.794   0.015   1.854
61865W        W33591  10.713  34.083   3.549
61866W        W33592   2.235  13.369  12.424
61867W        W33593  42.268  20.010  12.408
61868W        W33594  32.065  14.177  14.748
61869W        W33595   5.795   3.784   3.932
61870W        W33596  28.110  22.192   4.261
61871W        W33597  18.120  14.755  10.717
61872W        W33598  18.589  16.148   0.448
61873W        W33599  42.738   9.762   2.794
61874W        W33600  31.858  44.887  14.268
61875W        W33601  18.712  43.797   3.739
61876W        W33602  17.237  22.098  13.710
61877W        W33603  31.473  12.296   1.916
61878W        W33604   0.473  43.991   2.625
61879W        W33605  16.126  43.817  11.583
61880W        W33606  26.611  43.925   5.167
61881W        W33607  18.213  26.486  11.898
61882W        W33608  19.244  16.525   3.101
61883W        W33609  23.636  17.534  11.997
61884W        W33610  11.650  43.415  10.630
61885W        W33611  15.721  12.090   4.059
61886W        W33612  25.587   2.986   0.018
61887W        W33613  35.777  44.988  11.487
61888W        W33614   9.774   3.819  12.146
61889W        W33615  14.806  38.765   1.314
61890W        W33616  12.367  17.188   2.443
61891W        W33617  14.910  29.061   1.047
61892W        W33618  21.620  13.713  10.472
61893W        W33619   5.913  29.468   0.219
61894W        W33620  27.743  22.699  11.482
61895W        W33621  19.493  33.670   3.148
61896W        W33622  14.312  24.568   0.415
61897W        W33623  14.685  10.240   0.030
61898W        W33624   9.383   8.368   3.831
61899W        W33625  33.357   1.708   4.137
61900W        W33626  44.301  41.525   9.932
61901W        W33627  30.522  24.660   5.124
61902W        W33628  39.128  26.895   3.344
61903W        W33629  22.205  28.851   2.672
61904W        W33630  26.202   4.456   0.694
61905W        W33631  18.691  28.909   2.282
61906W        W33632  39.419  36.960   3.648
61907W        W33633  16.058   7.145  14.920
61908W        W33634  28.758  15.485  12.106
61909W        W33635  44.877  10.798   2.404
61910W        W33636   4.889  20.072   2.342
61911W        W33637   6.931  35.296   3.788
61912W        W33638   7.995   0.321  12.307
61913W        W33639   4.799  41.799   2.791
61914W        W33640  30.255  31.405   2.847
61915W        W33641  43.274  12.747   4.216
61916W        W33642   8.908   3.944   4.195
61917W        W33643  35.348  32.591   2.185
61918W        W33644  13.060  21.674   3.970
61919W        W33645  28.511  13.083  14.514
61920W        W33646  26.017   6.863  13.152
61921W        W33647  13.619  22.443   2.578
61922W        W33648  27.204   6.217  11.643
61923W        W33649  38.734   2.523  10.423
61924W        W33650  26.767  28.659   1.016
61925W        W33651   7.279   5.931   2.715
61926W        W33652  43.811  36.459  12.920
61927W        W33653  17.628  22.045  14.883
61928W        W33654  14.534  15.289  12.432
61929W        W33655  10.084  10.842   3.275
61930W        W33656  31.831   2.354   1.701
61931W        W33657  14.717  14.285  12.498
61932W        W33658  33.375  23.273   2.833
61933W        W33659   5.537   3.804   4.394
61934W        W33660   3.033  36.746  11.183
61935W        W33661  40.438  10.889   4.556
61936W        W33662  19.485   0.923   0.606
61937W        W33663   1.702  34.489   2.858
61938W        W33664   4.673  28.215   3.764
61939W        W33665  10.908  41.063   0.421
61940W        W33666   7.470  31.982   0.536
61941W        W33667  26.650  41.914   0.804
61942W        W33668  26.423  22.461  13.279
61943W        W33669   1.745  38.138  12.097
61944W        W33670  18.475   4.516  11.560
61945W        W33671  21.042  14.751   1.916
61946W        W33672  11.367  24.720  14.361
61947W        W33673  26.417  33.020  14.536
61948W        W33674  38.006  39.295  14.246
61949W        W33675  23.982  37.924  11.988
61950W        W33676  33.387   1.329   3.757
61951W        W33677  32.912  12.236   2.622
61952W        W33678   6.721  22.196  10.695
61953W        W33679  18.546  34.595   0.394
61954W        W33680   7.899  39.014  12.046
61955W        W33681  11.358  21.891   3.858
61956W        W33682   4.260   8.444   2.566
61957W        W33683  43.429   5.565   3.265
61958W        W33684  12.114  29.345  11.919
61959W        W33685  38.038  18.967  14.502
61960W        W33686  13.628   0.039  10.459
61961W        W33687  28.235  21.401   3.768
61962W        W33688  32.826   0.725   0.790
61963W        W33689  40.547  30.795  12.172
61964W        W33690  19.134  42.826  11.812
61965W        W33691  22.187  12.277   2.222
61966W        W33692  30.404  37.450  13.856
61967W        W33693  34.739  36.059  14.793
61968W        W33694  36.957   6.388   2.810
61969W        W33695  43.346  25.533   3.109
61970W        W33696   4.872   1.228  10.821
61971W        W33697  16.592  28.660   1.323
61972W        W33698  41.221  26.411  14.453
61973W        W33699  44.648   3.510  12.992
61974W        W33700  43.500  10.213  14.327
61975W        W33701   0.673   2.107  10.833
61976W        W33702  28.659  13.469  13.619
61977W        W33703   6.297  37.603   1.708
61978W        W33704  34.329  42.220   3.833
61979W        W33705  41.358  13.641   3.374
61980W        W33706  43.554  24.696   3.626
61981W        W33707  28.418  10.247  14.985
61982W        W33708  33.335  11.447  13.063
61983W        W33709  24.601  25.122   3.862
61984W        W33710  28.227  36.909  10.736
61985W        W33711  36.839   9.696   2.639
61986W        W33712  16.362  41.238   2.974
61987W        W33713  34.382  26.788  14.818
61988W        W33714  30.978   6.452  12.492
61989W        W33715  19.841  26.100   3.308
61990W        W33716  32.979  22.516   1.821
61991W        W33717   7.383  38.321  11.399
61992W        W33718  36.493  38.656  14.194
61993W        W33719  20.120  35.436  14.195
61994W        W33720  44.280  17.434   0.468
61995W        W33721  30.215  22.808   2.707
61996W        W33722  15.863   8.686  10.570
61997W        W33723  26.972   1.912   4.483
61998W        W33724  41.379   9.435  14.478
61999W        W33725  37.522   9.741   9.950
62000W        W33726  29.196  14.386   2.243
62001W        W33727  18.328   8.391   2.170
62002W        W33728   7.803  38.004  11.517
62003W        W33729  39.326  43.481   0.212
62004W        W33730  33.933  15.622  12.586
62005W        W33731  33.022  32.016   4.830
62006W        W33732  15.761  43.509   2.741
62007W        W33733  16.616  16.127   4.408
62008W        W33734  43.909  27.693  13.781
62009W        W33735  23.102  17.104   4.855
62010W        W33736   4.726  19.578   0.554
62011W        W33737  41.400  13.915   0.489
62012W        W33738  43.199  21.510  13.804
62013W        W33739  40.912  34.909  11.541
62014W        W33740  40.498  11.297   0.194
62015W        W33741  18.131   0.742  12.820
62016W        W33742  44.183  22.586  12.819
62017W        W33743   5.947   4.770   3.167
62018W        W33744  27.144  17.072   3.307
62019W        W33745   7.133  27.062   1.059
62020W        W33746  16.669  31.013   0.754
62021W        W33747   0.480   0.335   4.066
62022W        W33748   9.130  40.837   2.119
62023W        W33749  20.985  35.290  13.833
62024W        W33750  43.432  32.830   2.850
62025W        W33751  19.458  38.390  11.454
62026W        W33752  29.089   7.714  13.362
62027W        W33753  22.981  35.442   4.611
62028W        W33754   1.998   9.147   3.211
62029W        W33755  44.325  12.065  12.963
62030W        W33756  13.912  42.848   1.805
62031W        W33757   6.495  21.311   2.080
62032W        W33758  33.390  34.033  12.478
62033W        W33759  40.565  29.938  12.894
62034W        W33760   5.380  31.986   0.465
62035W        W33761  29.508  31.377  10.749
62036W        W33762   3.207   0.315   3.611
62037W        W33763  23.785  13.696  13.416
62038W        W33764   5.948  42.281  12.402
62039W        W33765  34.328  12.640   3.348
62040W        W33766  10.712  43.106  11.874
62041W        W33767  29.104  12.851  10.843
62042W        W33768  43.968  23.999   2.705
62043W        W33769  43.489  32.969   0.735
62044W        W33770   2.970   7.799  12.454
62045W        W33771  33.376  25.532   0.481
62046W        W33772  26.158   0.358   1.141
62047W        W33773  30.493   8.254   0.996
62048W        W33774   4.730  14.249  12.134
62049W        W33775   2.758  30.698  14.960
62050W        W33776  11.876  33.083   1.937
62051W        W33777  13.779  25.280  12.053
62052W        W33778  18.206  20.725  13.855
62053W        W33779   9.216  18.097  14.176
62054W        W33780   8.807  24.197  11.473
62055W        W33781   2.430   3.691  12.944
62056W        W33782  15.827  14.230  13.299
62057W        W33783  24.732  37.597   1.181
62058W        W33784  23.278   5.776   4.352
62059W        W33785   7.389  10.884  11.028
62060W        W33786  30.687  16.352  12.653
62061W        W33787  27.972   9.379   4.766
62062W        W33788   2.173   9.940  14.954
62063W        W33789   7.803  41.343  11.590
62064W        W33790  14.805  27.431  14.884
62065W        W33791  44.784  26.037  11.544
62066W        W33792  37.345  24.519  13.677
62067W        W33793  33.215  10.607   4.309
62068W        W33794  16.896   4.245   1.306
62069W        W33795  31.530   6.329  11.198
62070W        W33796  10.843   7.405   5.007
62071W        W33797  19.244  33.569  10.530
62072W        W33798  21.208  13.705  11.719
62073W        W33799  13.762  30.926   2.389
62074W        W33800  39.849  12.407   0.228
62075W        W33801  20.471   3.855   0.354
62076W        W33802  14.639  12.232  13.450
62077W        W33803  39.380  40.556  14.996
62078W        W33804  38.942  17.909  12.993
62079W        W33805   9.744  23.443  13.772
62080W        W33806  43.172  28.360  14.037
62081W        W33807  36.582  28.986  12.888
62082W        W33808   2.482  15.206   4.592
62083W        W33809   4.852   7.864   2.260
62084W        W33810  28.698   3.086  12.668
62085W        W33811  39.948  35.165   4.820
62086W        W33812   2.368  30.898   3.186
62087W        W33813  42.744  34.350   3.439
62088W        W33814  31.605   8.729  14.819
62089W        W33815  27.624   6.462   2.331
62090W        W33816  35.360  14.175   0.952
62091W        W33817   9.426  11.749  12.140
62092W        W33818  40.502   3.299   0.836
62093W        W33819  16.880  25.063  13.851
62094W        W33820  28.040  40.203  11.261
62095W        W33821  44.767  31.606   0.702
62096W        W33822  43.393   8.504  13.292
62097W        W33823  41.495  22.698   1.778
62098W        W33824  40.630  20.604   0.887
62099W        W33825  44.762  40.750  11.038
62100W        W33826   1.414  13.336  12.047
62101W        W33827  38.524  16.318  11.281
62102W        W33828  11.832  44.867  12.296
62103W        W33829  43.056   6.817  14.884
62104W        W33830  42.476  28.059   4.300
62105W        W33831   6.238  23.068  13.860
62106W        W33832  24.064   1.793  13.321
62107W        W33833   0.696  19.710  11.566
62108W        W33834  30.200  38.539  12.574
62109W        W33835  23.697  43.518  13.413
62110W        W33836  23.846  18.238   0.697
62111W        W33837   0.169   7.009  13.369
62112W        W33838   9.634  43.506  12.465
62113W        W33839   8.931  34.535   0.295
62114W        W33840  40.368  21.105   2.711
62115W        W33841  29.863   4.980  12.460
62116W        W33842  40.000  27.599  11.470
62117W        W33843  24.602  24.134   4.394
62118W        W33844  16.531  15.187   0.462
62119W        W33845  27.689  22.471   4.190
62120W        W33846  19.076  33.396  13.017
62121W        W33847  19.352  34.927   4.109
62122W        W33848  10.643   8.824  13.496
62123W        W33849  37.076  33.767  14.893
62124W        W33850  12.832  40.459   4.478
62125W        W33851  39.093  34.850   3.832
62126W        W33852   4.474  32.346   1.759
62127W        W33853  41.364  31.967  12.091
62128W        W33854   8.411  28.111   1.615
62129W        W33855  30.048  35.320   0.247
62130W        W33856  24.077  19.173   4.064
62131W        W33857   1.442   8.226  14.879
62132W        W33858  43.776   3.266  14.425
62133W        W33859  12.384  17.842   4.702
62134W        W33860  35.781  33.472   1.200
62135W        W33861   6.176   3.559  10.744
62136W        W33862  33.438  34.774   2.659
62137W        W33863  30.133  20.085   3.318
62138W        W33864  39.718  17.287   2.569
62139W        W33865  15.169  23.533  13.590
62140W        W33866  11.128   3.740   0.435
62141W        W33867  44.100  37.528  10.733
62142W        W33868   6.240  13.556   5.076
62143W        W33869  23.454  40.415  14.958
62144W        W33870  14.929  27.310  12.989
62145W        W33871  43.222   2.692  12.617
62146W        W33872  41.274  34.676   4.295
62147W        W33873  31.124  27.852  11.481
62148W        W33874  20.196   1.754  13.999
62149W        W33875  23.371  15.590  11.944
62150W        W33876  34.338  31.305  10.739
62151W        W33877   3.805  17.192   0.989
62152W        W33878  20.155   5.679  10.743
62153W        W33879   8.260   6.543   0.035
62154W        W33880  35.626  25.183  10.732
62155W        W33881  39.801   8.934   2.311
62156W        W33882  44.550  30.552   2.258
62157W        W33883  30.903   0.487  13.545
62158W        W33884   3.010  30.573   4.988
62159W        W33885  21.554   0.986  10.719
62160W        W33886  12.146  39.945   2.646
62161W        W33887  31.012  13.331  11.016
62162W        W33888   1.276  13.122  10.612
62163W        W33889  12.061   0.483  13.085
62164W        W33890  20.660   9.318  12.344
62165W        W33891  15.155  27.900   3.323
62166W        W33892   5.618  30.377  12.436
62167W        W33893  26.297  14.559  11.645
62168W        W33894  25.155  12.102   4.417
62169W        W33895   5.445   3.960   9.938
62170W        W33896  38.236   4.919  13.431
62171W        W33897  14.173  17.273   4.097
62172W        W33898   5.452   5.308  10.648
62173W        W33899  18.808  22.077  11.992
62174W        W33900  15.075  35.953   3.767
62175W        W33901   9.635  22.284   1.299
62176W        W33902  14.843  19.585  13.232
62177W        W33903   1.964  17.269  12.461
62178W        W33904   7.821   6.326   0.842
62179W        W33905  43.744  15.091   2.821
62180W        W33906  36.595  13.895   1.929
62181W        W33907  43.495   3.211  13.978
62182W        W33908  17.104  13.318  11.590
62183W        W33909  13.342  42.991   0.291
62184W        W33910   7.262   8.231  14.610
62185W        W33911  36.199  16.738   0.347
62186W        W33912  44.487  30.198   5.066
62187W        W33913  19.958   6.516   0.242
62188W        W33914  25.171  34.232   0.388
62189W        W33915  15.999   5.274  12.557
62190W        W33916   7.694  24.087   1.925
62191W        W33917  42.482  16.215   0.908
62192W        W33918  12.561  22.616   2.297
62193W        W33919   1.946  41.899  13.853
62194W        W33920  34.959  17.919   3.420
62195W        W33921   7.678  31.141  10.865
62196W        W33922  32.924   7.325   1.418
62197W        W33923  11.830   7.360  13.865
62198W        W33924   5.639  41.990  13.518
62199W        W33925  22.728  23.890  11.954
62200W        W33926  41.883  12.382   4.991
62201W        W33927   0.022  22.621   3.716
62202W        W33928  16.230  43.424  13.238
62203W        W33929  18.037  19.972   0.580
62204W        W33930   0.948  22.512   2.833
62205W        W33931   9.855  43.365  14.044
62206W        W33932  42.493   6.454  12.952
62207W        W33933  40.973  12.894   1.278
62208W        W33934  15.014  21.209   4.537
62209W        W33935   2.174  44.664   3.039
62210W        W33936   5.441  42.270  12.528
62211W        W33937  26.302  35.499  11.043
62212W        W33938  21.546  32.483  11.155
62213W        W33939  37.379  19.172  12.656
62214W        W33940  29.130  20.052  12.477
62215W        W33941  43.045  16.892  10.431
62216W        W33942  11.800   9.707  11.476
62217W        W33943  29.468  25.920   0.061
62218W        W33944  35.108  24.288   1.334
62219W        W33945  29.597  40.272  14.743
62220W        W33946  12.803  38.008   0.703
62221W        W33947   2.469  38.375   3.074
62222W        W33948  39.275  44.004   4.047
62223W        W33949  10.660  42.288  13.707
62224W        W33950  10.762  18.683   2.708
62225W        W33951   4.738  35.552  13.072
62226W        W33952  26.193  22.839   4.972
62227W        W33953   9.510  40.085  14.892
62228W        W33954  22.645  16.198  14.013
62229W        W33955  28.914  34.954  15.000
62230W        W33956  10.430   9.628  12.163
62231W        W33957  31.969  39.032   4.113
62232W        W33958  25.580  11.722   2.342
62233W        W33959  32.510   7.913  10.778
62234W        W33960   8.443  23.860  13.834
62235W        W33961  29.604  19.414  10.337
62236W        W33962  39.456  43.820  11.930
62237W        W33963  11.710  35.626  10.995
62238W        W33964  17.676  30.549   3.598
62239W        W33965  41.235  25.191   2.670
62240W        W33966  21.169  30.414   1.939
62241W        W33967  35.119  23.558  12.355
62242W        W33968  30.551  33.479   2.343
62243W        W33969   0.381  10.475   0.167
62244W        W33970  10.713  33.547  11.091
62245W        W33971  19.653  36.521  12.542
62246W        W33972   2.930  27.379  11.534
62247W        W33973  23.416   4.763  10.680
62248W        W33974   1.938  13.736   2.718
62249W        W33975   5.890   8.746  13.532
62250W        W33976  38.819  40.115  10.615
62251W        W33977   0.770   7.727   3.376
62252W        W33978   5.855   7.181  11.646
62253W        W33979  13.742  20.974   0.544
62254W        W33980  24.765  12.887  10.172
62255W        W33981   1.283  23.416   1.347
62256W        W33982  29.438  31.681   3.695
62257W        W33983  20.629  17.900   3.065
62258W        W33984  17.089  13.917  13.712
62259W        W33985   3.645  26.178   2.695
62260W        W33986  34.050   3.344   1.439
62261W        W33987   9.754  19.967   0.784
62262W        W33988   9.202  20.184  14.777
62263W        W33989   4.244  35.543   2.788
62264W        W33990  23.693   7.704   2.642
62265W        W33991  20.071  25.491   3.915
62266W        W33992  20.714  27.507  12.021
62267W        W33993  27.724  13.083  13.376
62268W        W33994   8.159  24.125  10.658
62269W        W33995   5.396  27.476  10.741
62270W        W33996  38.847  17.715  11.511
62271W        W33997  16.816  16.040   0.901
62272W        W33998  10.221  31.375   2.831
62273W        W33999  28.558  37.864   1.365
62274W        W34000  31.962   5.297   4.315
62275W        W34001  26.426  42.280  13.273
62276W        W34002  42.514  17.477  13.442
62277W        W34003  16.322  31.559  10.474
62278W        W34004  41.020  44.244  11.155
62279W        W34005  33.285   0.983   0.826
62280W        W34006  38.498  43.804   0.320
62281W        W34007  28.062  12.170  11.027
62282W        W34008  41.264  16.862  11.621
62283W        W34009  10.196  21.520   2.451
62284W        W34010  33.093  27.605   4.307
62285W        W34011  42.669   6.845  11.929
62286W        W34012  29.575  25.705   0.973
62287W        W34013  34.846  29.174  10.263
62288W        W34014  10.144  10.101  12.116
62289W        W34015  18.895  23.566   0.399
62290W        W34016   3.731  10.364   9.999
62291W        W34017  11.287  40.641  14.122
62292W        W34018  42.034  39.859  13.082
62293W        W34019  40.736  24.456  10.961
62294W        W34020  27.530  24.462   3.757
62295W        W34021   3.665  25.158  11.106
62296W        W34022  31.550  33.563  10.550
62297W        W34023   2.886  39.451  14.432
62298W        W34024  15.634  39.443   4.636
62299W        W34025  29.769  19.399   2.746
62300W        W34026   5.061  24.077   3.327
62301W        W34027  14.796  19.281  14.888
62302W        W34028  14.796  34.024   0.925
62303W        W34029  37.606   3.442  13.320
62304W        W34030  34.119   6.588  14.746
62305W        W34031   2.498  15.579   1.608
62306W        W34032  11.266  30.952   0.308
62307W        W34033  31.937  34.416  10.751
62308W        W34034  23.460  42.946  12.061
62309W        W34035  19.607  14.945   3.601
62310W        W34036  34.907  21.471   0.942
62311W        W34037  32.626  30.607  10.899
62312W        W34038  39.426  16.359  12.449
62313W        W34039  10.608   9.293  14.340
62314W        W34040  29.094  27.827   3.176
62315W        W34041  43.893  21.867   4.703
62316W        W34042  33.594  30.645  14.760
62317W        W34043  32.521  36.648  13.443
62318W        W34044   3.796   6.304   4.602
62319W        W34045  36.086   6.489   2.826
62320W        W34046   6.214  13.908  12.567
62321W        W34047  41.278  11.075  13.419
62322W        W34048  38.503  30.916   0.327
62323W        W34049   3.644  10.287   2.022
62324W        W34050  40.747  30.598   4.188
62325W        W34051   5.231  41.851  13.039
62326W        W34052  21.077  38.385  14.129
62327W        W34053  39.913  40.475   2.186
62328W        W34054  30.557  25.911   4.204
62329W        W34055  41.413   8.841   0.303
62330W        W34056  28.531  33.553   4.447
62331W        W34057   6.659  21.958   4.185
62332W        W34058  37.074   4.235   0.894
62333W        W34059  20.516  27.410  14.951
62334W        W34060  38.022   2.711  13.382
62335W        W34061   7.700  25.019   0.517
62336W        W34062  17.575  17.127  12.861
62337W        W34063  18.644  23.579   0.914
62338W        W34064  40.218  42.279   2.897
62339W        W34065  27.584   3.444  14.746
62340W        W34066  26.153  18.352  12.431
62341W        W34067   7.649  27.727   0.974
62342W        W34068  42.483  44.367   1.873
62343W        W34069  20.814  43.458  13.499
62344W        W34070  31.352   3.315   3.176
62345W        W34071  19.902  23.727  11.871
62346W        W34072  18.704   3.217  13.532
62347W        W34073  25.929  10.721  11.434
62348W        W34074   5.048   5.266   0.280
62349W        W34075  12.325  14.611  10.953
62350W        W34076  14.256  17.077   3.124
62351W        W34077   0.020  36.336  10.733
62352W        W34078   6.354  13.243   5.510
62353W        W34079  16.994  42.520  11.655
62354W        W34080   8.641  17.231  14.908
62355W        W34081  40.778   9.169   0.017
62356W        W34082   9.907  41.841   4.300
62357W        W34083  27.183  25.016   3.366
62358W        W34084  11.119  30.637  12.606
62359W        W34085  30.618   6.872   0.776
62360W        W34086   6.968  19.235   0.461
62361W        W34087   3.276   2.327  11.392
62362W        W34088  39.140  27.495  14.865
62363W        W34089   8.273   6.341  12.490
62364W        W34090  25.432  11.117   1.367
62365W        W34091   5.493   5.193  11.143
62366W        W34092  28.785  20.457  12.427
62367W        W34093   5.781  28.658  11.971
62368W        W34094  28.734   9.252  14.940
62369W        W34095  21.266   7.354  10.753
62370W        W34096   2.550   1.012  11.573
62371W        W34097   8.308  29.708  13.370
62372W        W34098  23.857  23.738   5.278
62373W        W34099  29.507  31.145  11.214
62374W        W34100  43.743  35.894  14.019
62375W        W34101   0.326   5.389  10.729
62376W        W34102  26.994  15.277  13.532
62377W        W34103   3.762  16.919  13.467
62378W        W34104  14.665  24.090   1.707
62379W        W34105  22.684   3.774   2.637
62380W        W34106   8.809  17.250  14.024
62381W        W34107  24.152   6.602   1.874
62382W        W34108   0.387  37.471   3.329
62383W        W34109  35.535  34.084   4.662
62384W        W34110  17.619  30.540   1.020
62385W        W34111   5.267   6.730  11.077
62386W        W34112  32.080   4.259   2.386
62387W        W34113  36.674   9.917  12.882
62388W        W34114  32.044   0.243   1.734
62389W        W34115  29.527   5.214  14.035
62390W        W34116  36.316  34.026  11.132
62391W        W34117  32.367  16.347  11.726
62392W        W34118  34.518   0.505  13.097
62393W        W34119  17.664  31.535  14.533
62394W        W34120  17.864  19.823   1.232
62395W        W34121  34.159  22.143   0.783
62396W        W34122   0.390  39.874  12.420
62397W        W34123  26.686  12.336  13.454
62398W        W34124  40.276  30.181   3.120
62399W        W34125  38.683   7.256   0.931
62400W        W34126  41.445  14.198  12.846
62401W        W34127   6.743  22.750  12.036
62402W        W34128  22.962  24.013   3.138
62403W        W34129  35.555  11.239  12.502
62404W        W34130  29.971  12.305  11.235
62405W        W34131   0.410   1.354   3.350
62406W        W34132  39.830   7.743   1.942
62407W        W34133  32.148   1.475  11.582
62408W        W34134   9.512  17.585   0.931
62409W        W34135  11.344  15.137  11.959
62410W        W34136  13.296  41.498   2.240
62411W        W34137   0.720  19.728  13.990
62412W        W34138   7.679  34.375  14.320
62413W        W34139   6.291  31.157  14.118
62414W        W34140  40.418  40.371  14.561
62415W        W34141   7.444   7.908  12.376
62416W        W34142  26.943  32.970   0.923
62417W        W34143  24.122  38.394  13.929
62418W        W34144  41.574  27.879   0.389
62419W        W34145  17.187  10.861   3.235
62420W        W34146  16.583  11.093  11.368
62421W        W34147  24.750  11.655  12.602
62422W        W34148  38.803   7.384   0.397
62423W        W34149   5.435  23.726  10.716
62424W        W34150  35.502  10.377  14.890
62425W        W34151  40.087  37.909  13.607
62426W        W34152  42.778  25.895   2.026
62427W        W34153   8.108   6.015  12.119
62428W        W34154   8.597   7.364  10.600
62429W        W34155   3.779  24.616   1.948
62430W        W34156   0.402   2.398   3.207
62431W        W34157  40.192  35.685  13.552
62432W        W34158  10.505  25.722   2.862
62433W        W34159  12.819  38.861  12.478
62434W        W34160   4.510   6.918  14.840
62435W        W34161   7.312   9.868   0.906
62436W        W34162  37.840  16.814   4.462
62437W        W34163  40.766  25.095  11.059
62438W        W34164   5.912  31.439  10.656
62439W        W34165  13.701   8.677   1.912
62440W        W34166  39.081  42.396  12.892
62441W        W34167  40.823  33.028  11.560
62442W        W34168  10.100   0.427  13.465
62443W        W34169   0.556  27.642  11.642
62444W        W34170  13.414  42.716   3.248
62445W        W34171   7.694  39.814   4.587
62446W        W34172  13.158  20.008  14.824
62447W        W34173  29.282   4.848   5.069
62448W        W34174  19.463  30.017  14.392
62449W        W34175  38.887   0.993  12.308
62450W        W34176   3.319  10.085  12.546
62451W        W34177  41.751  16.644  11.526
62452W        W34178  21.176  32.425  12.297
62453W        W34179   2.814  41.959  13.434
62454W        W34180  18.518  11.845  13.463
62455W        W34181  22.986   4.805   4.222
62456W        W34182  10.175   7.962  13.898
62457W        W34183  43.730  43.492  13.065
62458W        W34184  42.959  19.054  10.594
62459W        W34185  38.471  21.194   1.056
62460W        W34186  39.947  24.649  10.613
62461W        W34187  14.192  19.044   0.774
62462W        W34188  26.150   9.401  13.958
62463W        W34189   4.515  25.103  10.213
62464W        W34190  33.989  42.758  14.993
62465W        W34191  27.757  28.439   0.614
62466W        W34192   8.867  28.009   1.346
62467W        W34193  28.862  42.586   4.066
62468W        W34194   0.466  20.996   4.232
62469W        W34195  26.179   3.511   3.269
62470W        W34196  34.285  25.024  14.510
62471W        W34197  43.936  26.370   2.284
62472W        W34198  22.910  14.377   5.075
62473W        W34199   5.956   3.070  14.290
62474W        W34200  32.607  30.550   4.263
62475W        W34201  15.534  29.122   3.074
62476W        W34202  41.439  42.688  11.617
62477W        W34203  23.502  25.411  13.184
62478W        W34204   8.769  16.382  11.641
62479W        W34205   1.047  26.589   2.442
62480W        W34206  16.258  22.207  10.295
62481W        W34207  32.494  27.583  11.547
62482W        W34208   8.604  34.092   0.337
62483W        W34209  42.634  34.707  14.845
62484W        W34210  43.988  41.299   2.183
62485W        W34211  38.945  21.928   1.181
62486W        W34212   6.747  42.257  13.923
62487W        W34213   1.035  28.969   5.130
62488W        W34214   8.858  27.396  11.497
62489W        W34215  30.167   3.191  13.604
62490W        W34216  12.421  23.612   2.868
62491W        W34217  14.647  44.002   4.373
62492W        W34218  33.720  40.923   2.386
62493W        W34219  14.638  17.707   2.299
62494W        W34220  40.252  12.755  11.125
62495W        W34221   2.965   0.345  13.559
62496W        W34222  19.454   3.779   1.306
62497W        W34223  24.790  37.783   3.732
62498W        W34224  40.885  24.276  11.449
62499W        W34225  12.439  19.214   1.432
62500W        W34226   5.822  35.014   0.184
62501W        W34227  17.281  44.771  11.890
62502W        W34228  12.827  37.931  13.775
62503W        W34229  16.251   1.788   1.803
62504W        W34230   9.686   7.772   2.505
62505W        W34231   6.869   9.080   1.844
62506W        W34232  40.427  11.639  10.395
62507W        W34233  21.312  18.274  12.551
62508W        W34234  36.332  20.454  10.725
62509W        W34235  16.919  10.638  14.426
62510W        W34236  41.793  34.964   0.220
62511W        W34237  17.230  38.456   1.862
62512W        W34238  16.110  15.783   4.967
62513W        W34239  32.927  24.908  13.811
62514W        W34240  42.448  33.561  12.054
62515W        W34241  39.468  37.293  12.690
62516W        W34242  27.091  38.369  11.657
62517W        W34243  17.204  36.056   3.613
62518W        W34244  18.006  37.846   2.737
62519W        W34245  30.477  35.300  14.955
62520W        W34246  39.253   3.343  12.369
62521W        W34247  32.912  20.514   2.649
62522W        W34248  19.103  36.878  13.966
62523W        W34249  33.812  27.518  13.491
62524W        W34250  11.220   4.676  11.348
62525W        W34251  43.321  32.683  11.164
62526W        W34252  37.658  30.537  14.814
62527W        W34253  27.155  19.307  14.610
62528W        W34254   0.871  32.392  11.424
62529W        W34255  33.530   7.792  13.907
62530W        W34256  39.296  10.230  12.674
62531W        W34257   3.099   8.690   4.057
62532W        W34258  35.725  40.106  14.882
62533W        W34259  16.136   2.514  14.036
62534W        W34260   9.546   5.818   1.149
62535W        W34261  11.786  16.061  13.285
62536W        W34262  32.510  32.795   4.765
62537W        W34263  36.038  43.066  12.023
62538W        W34264  24.243  31.987   2.790
62539W        W34265  24.956  38.352   1.675
62540W        W34266  22.609  22.652  11.185
62541W        W34267  12.157   1.069  10.774
62542W        W34268   9.809  43.124   1.315
62543W        W34269  34.387  42.968  10.104
62544W        W34270  23.693   8.599   0.069
62545W        W34271  16.697   6.846  13.336
62546W        W34272  41.457  11.789   4.581
62547W        W34273  30.536   0.504  11.923
62548W        W34274  12.999  29.059  10.947
62549W        W34275  29.192  36.352  13.935
62550W        W34276  41.042  39.746  11.084
62551W        W34277  33.539  17.681  14.240
62552W        W34278   1.899   7.462  14.858
62553W        W34279  21.918   2.834   1.211
62554W        W34280  44.544  32.721  14.336
62555W        W34281  15.682  10.267   4.633
62556W        W34282  38.608  12.381  14.856
62557W        W34283  28.443   0.998  12.459
62558W        W34284  41.447  12.260   4.356
62559W        W34285   1.203   0.446   1.051
62560W        W34286  18.328  43.036   0.419
62561W        W34287  19.466   5.130   2.472
62562W        W34288  16.572   8.811   2.147
62563W        W34289   5.822   5.615   0.925
62564W        W34290  27.907   4.302  14.260
62565W        W34291  24.172  25.672  11.625
62566W        W34292   4.312  44.079   2.611
62567W        W34293  14.646  36.532  13.773
62568W        W34294   6.763   6.859   1.735
62569W        W34295  12.606  11.961  11.070
62570W        W34296  27.653  28.137  10.714
62571W        W34297  23.477  35.626  12.509
62572W        W34298  11.370  12.780   1.950
62573W        W34299   5.168  36.531  10.642
62574W        W34300  25.587  42.382  14.222
62575W        W34301  29.506  39.360  11.444
62576W        W34302  44.084  44.405   2.908
62577W        W34303   7.911   6.638   0.421
62578W        W34304  27.323  39.101  12.021
62579W        W34305  18.745  41.501  13.541
62580W        W34306  14.583  40.527   4.615
62581W        W34307   2.349   9.223   0.219
62582W        W34308  14.163  38.302   3.341
62583W        W34309  33.893  30.866   0.794
62584W        W34310  32.892  22.209   4.611
62585W        W34311  25.058  39.390   3.723
62586W        W34312  11.096  18.557   4.449
62587W        W34313  30.955  12.378   0.383
62588W        W34314  30.600  37.620   1.417
62589W        W34315  15.210  43.914  11.631
62590W        W34316   9.675   6.134   4.775
62591W        W34317  27.660   3.842   1.150
62592W        W34318  19.556  37.880   3.589
62593W        W34319  44.779  22.311  11.883
62594W        W34320  34.550  26.399  12.446
62595W        W34321   9.076  17.134  12.381
62596W        W34322  20.000   1.479   0.255
62597W        W34323   5.824  26.544   1.714
62598W        W34324  22.014  33.489   0.879
62599W        W34325   6.368   3.891   9.811
62600W        W34326   2.668  30.296   4.065
62601W        W34327  40.247  36.236  13.368
62602W        W34328  32.866  24.730   2.247
62603W        W34329  29.211  12.384   0.514
62604W        W34330  43.867  29.196   3.231
62605W        W34331  42.326  43.140   0.650
62606W        W34332  17.065  26.558   2.219
62607W        W34333  44.540  10.129   0.851
62608W        W34334  42.315  38.025   3.287
62609W        W34335  12.345   7.546   4.872
62610W        W34336  43.931  33.902  13.386
62611W        W34337   5.385   0.769   0.850
62612W        W34338  21.266  34.575  13.304
62613W        W34339  31.446  40.539  12.053
62614W        W34340  28.928  12.672  12.040
62615W        W34341  33.469  14.168   0.990
62616W        W34342  26.172  39.088   0.387
62617W        W34343  42.849   0.923   0.653
62618W        W34344  36.783   8.282  14.953
62619W        W34345  30.005  15.939   2.670
62620W        W34346  25.223  40.784   0.963
62621W        W34347  44.951   6.534   2.887
62622W        W34348  27.861   5.228   3.751
62623W        W34349  12.624  30.686  11.516
62624W        W34350  37.846  19.212  12.466
62625W        W34351   9.201  18.474  12.529
62626W        W34352  14.025  27.446   2.719
62627W        W34353  14.401  21.770   2.668
62628W        W34354  26.973   4.813  14.474
62629W        W34355  22.797   6.225  13.845
62630W        W34356  24.661  11.679   3.338
62631W        W34357   1.752  31.473  11.893
62632W        W34358   2.269  15.785  13.792
62633W        W34359  18.370   7.644  12.183
62634W        W34360   1.749  20.632   3.723
62635W        W34361   4.169  32.345   2.229
62636W        W34362  35.525   5.013  14.075
62637W        W34363   6.949   7.725  14.546
62638W        W34364   9.758  43.275   3.170
62639W        W34365  21.034  40.655  11.959
62640W        W34366   0.438  30.053   4.142
62641W        W34367  29.670  32.522   1.810
62642W        W34368   0.325  13.668   1.200
62643W        W34369  36.682   1.258   0.496
62644W        W34370  23.489  42.895  10.711
62645W        W34371  30.561  40.292   0.644
62646W        W34372   2.413  20.230  12.045
62647W        W34373   4.774   3.206   0.259
62648W        W34374  34.936  21.486  11.183
62649W        W34375  18.103  32.462  14.270
62650W        W34376  25.694   0.161   2.383
62651W        W34377   3.338  10.335   4.602
62652W        W34378  36.727   2.305   4.093
62653W        W34379   6.236   7.584  11.057
62654W        W34380  16.728   6.295   3.146
62655W        W34381  14.380  39.024  11.947
62656W        W34382  40.883  29.191   4.389
62657W        W34383  25.507  41.259   0.029
62658W        W34384  12.759   6.272   3.110
62659W        W34385  25.144  30.337   1.489
62660W        W34386  30.738  34.494   1.511
62661W        W34387  31.800  14.898   3.761
62662W        W34388   6.726  14.156   3.692
62663W        W34389  35.010  10.707   4.606
62664W        W34390  31.758  19.043  11.478
62665W        W34391   2.378  23.461  14.906
62666W        W34392  44.640  16.229  12.283
62667W        W34393  16.030  36.524  10.967
62668W        W34394  10.175  26.398   0.419
62669W        W34395  35.262  35.549   0.318
62670W        W34396  38.288   5.342  13.104
62671W        W34397  42.284  29.899   2.413
62672W        W34398  11.331  32.610   4.443
62673W        W34399  23.485  11.150  10.423
62674W        W34400   1.312  22.631   0.377
62675W        W34401  14.094  32.830  13.912
62676W        W34402  29.226  37.884   4.159
62677W        W34403  21.178  15.330   2.258
62678W        W34404  19.114  25.757   4.319
62679W        W34405  17.748  27.490   0.064
62680W        W34406  13.567  20.462   0.519
62681W        W34407   6.464  35.955  12.955
62682W        W34408  38.938  30.716   4.832
62683W        W34409  19.310  32.962  11.218
62684W        W34410   3.174  20.625  13.089
62685W        W34411  18.910   9.742  11.971
62686W        W34412  18.361  33.952   4.745
62687W        W34413  16.158  16.265  11.527
62688W        W34414   0.579  30.453  11.610
62689W        W34415  41.318  31.487  14.458
62690W        W34416   4.722   5.628   0.456
62691W        W34417   0.632  37.041  11.048
62692W        W34418  42.438  41.980  14.338
62693W        W34419  23.882  31.527   2.279
62694W        W34420  13.788  41.343  12.879
62695W        W34421  22.838  38.009  13.977
62696W        W34422  19.667  43.785   2.067
62697W        W34423  22.129  26.481   3.340
62698W        W34424  24.057  28.984  14.779
62699W        W34425  11.197  32.492  13.516
62700W        W34426  18.644  35.721  13.050
62701W        W34427  29.972  32.915  12.496
62702W        W34428  28.117  11.618  14.938
62703W        W34429  35.844  26.139  12.271
62704W        W34430  38.826   9.777  12.825
62705W        W34431  13.611   9.421  11.885
62706W        W34432   5.130  28.534   1.734
62707W        W34433  33.120  25.539   0.981
62708W        W34434  40.307  41.488   4.094
62709W        W34435  32.517  40.836   2.381
62710W        W34436   1.520   0.645  13.004
62711W        W34437  17.030   3.389   3.558
62712W        W34438  41.336  28.865   0.713
62713W        W34439   0.381  18.777  11.662
62714W        W34440  43.778  20.364  14.487
62715W        W34441  32.647  36.989   1.919
62716W        W34442  20.986  28.049   3.100
62717W        W34443  31.378  42.916   4.637
62718W        W34444  23.927  21.722   3.835
62719W        W34445   1.477  41.078  14.044
62720W        W34446  28.335  12.597  11.177
62721W        W34447  12.795  16.306  11.491
62722W        W34448  28.360  34.471  13.987
62723W        W34449  12.869  28.564  13.494
62724W        W34450  17.559  20.014  12.812
62725W        W34451  21.448  30.204  12.897
62726W        W34452  21.187  34.687   2.254
62727W        W34453   1.684  37.814   3.374
62728W        W34454  21.161  33.406   5.166
62729W        W34455  32.860  35.840  14.518
62730W        W34456   7.908  20.005  12.466
62731W        W34457   5.638   3.689   0.785
62732W        W34458  25.716  18.555  14.955
62733W        W34459   8.326  16.161   0.349
62734W        W34460   5.820   6.719   2.748
62735W        W34461  21.711   3.021  12.294
62736W        W34462  31.348  38.956  11.157
62737W        W34463  18.634  32.200   5.170
62738W        W34464  10.794  39.401   3.910
62739W        W34465   5.247  42.397   1.662
62740W        W34466  11.800  29.011   0.876
62741W        W34467  43.475  33.423  12.866
62742W        W34468   1.456  17.637   3.365
62743W        W34469  16.524  39.244   1.721
62744W        W34470  35.988   8.343  13.431
62745W        W34471  10.390  39.533  12.155
62746W        W34472  11.401  38.495   2.338
62747W        W34473   4.201  10.491   2.901
62748W        W34474  16.680  39.409  12.452
62749W        W34475  13.314  19.166   4.502
62750W        W34476   5.762  21.813   0.100
62751W        W34477  29.185  38.993  14.402
62752W        W34478  22.456  40.507   3.383
62753W        W34479  25.656   2.072  11.189
62754W        W34480  15.034  25.373  14.265
62755W        W34481   4.789  18.494   2.938
62756W        W34482  15.165  29.473  11.152
62757W        W34483  33.052  43.753  10.121
62758W        W34484  28.628   1.437  11.512
62759W        W34485  41.512  25.071  11.410
62760W        W34486  25.978  28.584  11.981
62761W        W34487  38.310   4.776  10.856
62762W        W34488  11.602  16.829   3.855
62763W        W34489   1.326  22.455  12.454
62764W        W34490  40.456  28.485  14.834
62765W        W34491  29.475   1.558  14.686
62766W        W34492  40.825  35.105  14.029
62767W        W34493   2.737  29.488  10.758
62768W        W34494  18.756  28.956   3.601
62769W        W34495  33.536  31.634  14.404
62770W        W34496  11.633  18.646   1.823
62771W        W34497   8.216   2.352   3.234
62772W        W34498  19.305  21.955   0.189
62773W        W34499  32.406   2.343  13.939
62774W        W34500  11.281  28.000   2.096
62775W        W34501  31.374  24.554   2.160
62776W        W34502  17.751   1.045  13.054
62777W        W34503  17.066  43.535   3.292
62778W        W34504   2.374  16.899  10.429
62779W        W34505   8.882  21.229  11.017
62780W        W34506   3.242  28.208   3.680
62781W        W34507  37.414  20.784   2.686
62782W        W34508  38.036  29.517   2.354
62783W        W34509  34.953  37.634   3.962
62784W        W34510   9.182  34.386  12.356
62785W        W34511  36.182   3.430   4.204
62786W        W34512   4.389  36.141  11.460
62787W        W34513  37.877  37.883   3.106
62788W        W34514  12.813  44.453   4.286
62789W        W34515  11.330  38.513  11.091
62790W        W34516   2.860  19.112  13.972
62791W        W34517   6.396  22.247  11.628
62792W        W34518  21.218  32.336   5.000
62793W        W34519   7.252  29.797   0.349
62794W        W34520  22.888   3.297  13.938
62795W        W34521  11.159  34.299   4.616
62796W        W34522   6.857  28.998   0.312
62797W        W34523  19.816   3.943  14.423
62798W        W34524  31.975  38.388   2.912
62799W        W34525  22.444  13.986   3.401
62800W        W34526  36.552   9.575  11.161
62801W        W34527  27.278  38.749   4.130
62802W        W34528  16.104   3.374   3.191
62803W        W34529  27.128  32.451  14.438
62804W        W34530  14.649  13.338  14.748
62805W        W34531  37.786   9.875   3.286
62806W        W34532  30.420  30.727  11.077
62807W        W34533  15.745  21.044  12.535
62808W        W34534   5.647   1.553  13.503
62809W        W34535  19.734   7.222   0.313
62810W        W34536  36.890   3.597   4.846
62811W        W34537   5.685  11.517  10.685
62812W        W34538  22.773  22.654  12.939
62813W        W34539  11.619  31.092   1.288
62814W        W34540  27.666  27.575   2.923
62815W        W34541  36.039  14.641   3.234
62816W        W34542  29.425  20.815  11.199
62817W        W34543  16.211  43.175   0.957
62818W        W34544   1.667  16.847  12.443
62819W        W34545  29.138  11.330   2.271
62820W        W34546  19.324   5.214  11.588
62821W        W34547  38.740   9.395   3.714
62822W        W34548  39.940  10.918   0.150
62823W        W34549   0.837   8.323   4.151
62824W        W34550   3.297  29.021   4.157
62825W        W34551  39.626  15.056   1.874
62826W        W34552  37.820  42.963  14.863
62827W        W34553   0.467   5.683  14.790
62828W        W34554  33.469  25.094  13.135
62829W        W34555   8.243  18.151  14.331
62830W        W34556  28.663   7.829   0.463
62831W        W34557  44.897  24.579   1.227
62832W        W34558  30.554  22.983  13.482
62833W        W34559  26.788  34.412   2.285
62834W        W34560  40.589   1.715   5.055
62835W        W34561   3.143  17.597   2.789
62836W        W34562  34.033  23.074   4.373
62837W        W34563  31.636  41.114   0.820
62838W        W34564  33.409  29.652   1.395
62839W        W34565  16.803   4.759   1.061
62840W        W34566   6.235  11.789   4.326
62841W        W34567   9.812   9.328   0.156
62842W        W34568  20.535  15.392   4.150
62843W        W34569  30.268  17.121  13.970
62844W        W34570  10.299   0.273   0.852
62845W        W34571   7.315  13.638  10.398
62846W        W34572  21.221  20.298   2.257
62847W        W34573  43.189   2.961   0.701
62848W        W34574  15.335   3.243  11.550
62849W        W34575  25.512   7.009   3.719
62850W        W34576  34.981   4.814  10.336
62851W        W34577  30.170  40.441   4.333
62852W        W34578  29.548  13.575   3.690
62853W        W34579  32.362  44.374  11.455
62854W        W34580  19.810  13.626   1.267
62855W        W34581   8.614  30.948  12.962
62856W        W34582   0.977  41.796  11.053
62857W        W34583   1.324  14.034  10.635
62858W        W34584  21.536  14.060  14.265
62859W        W34585  28.904  24.592   3.865
62860W        W34586  24.039  27.123  10.293
62861W        W34587  22.027  15.537   4.237
62862W        W34588  24.330   1.931   4.531
62863W        W34589  43.280  26.579   1.673
62864W        W34590  32.547  12.653  13.771
62865W        W34591  28.951  29.853  14.537
62866W        W34592  25.095   6.171   1.786
62867W        W34593  42.948  21.130   0.906
62868W        W34594  21.927  33.993   0.954
62869W        W34595   8.623  43.543  10.727
62870W        W34596   0.268  30.435   2.915
62871W        W34597  18.334  19.025  14.353
62872W        W34598   2.977  34.130   3.613
62873W        W34599  36.131   8.051   4.191
62874W        W34600  26.275  36.364  12.604
62875W        W34601  31.852   1.015   3.204
62876W        W34602  38.852  44.414   2.679
62877W        W34603  25.565   4.976  10.192
62878W        W34604   5.467  38.742   1.646
62879W        W34605  34.876   0.963  13.911
62880W        W34606   0.567  10.762  11.970
62881W        W34607   9.791  23.237   2.137
62882W        W34608  36.622  36.394  11.491
62883W        W34609   7.935   8.396  14.939
62884W        W34610   0.172  33.475  11.137
62885W        W34611  15.521   8.453   2.802
62886W        W34612  10.890  23.470   0.962
62887W        W34613  37.550  11.658   0.391
62888W        W34614  14.772  37.046   1.890
62889W        W34615   2.168  25.029   0.432
62890W        W34616  34.025  22.490  10.630
62891W        W34617   1.377  35.330  12.920
62892W        W34618  23.511  36.887  11.056
62893W        W34619  19.651  39.529  12.164
62894W        W34620   6.643  29.049   2.303
62895W        W34621  41.920   5.979   0.263
62896W        W34622  12.942  34.720   1.790
62897W        W34623  41.786   6.229   2.480
62898W        W34624   4.865   3.211  12.462
62899W        W34625   8.161  11.702   3.101
62900W        W34626  27.459  22.462  14.836
62901W        W34627   8.737  21.156  12.374
62902W        W34628   0.583  33.136  12.057
62903W        W34629  32.274  31.197   1.647
62904W        W34630  18.666   0.784   2.207
62905W        W34631   9.942  33.731   1.736
62906W        W34632   1.671  29.680  12.922
62907W        W34633  19.259   7.656   2.433
62908W        W34634  25.081  10.966   1.814
62909W        W34635  26.529  18.999  13.063
62910W        W34636   9.614  29.974  13.604
62911W        W34637  27.114  11.553   0.896
62912W        W34638   2.764  28.500   4.374
62913W        W34639  43.478  28.564   1.141
62914W        W34640  23.883  33.686  11.640
62915W        W34641  15.340  25.117  14.786
62916W        W34642  19.128  41.982  12.380
62917W        W34643  30.618   4.869  13.078
62918W        W34644  10.845  13.367   2.631
62919W        W34645  33.163  21.310   1.366
62920W        W34646  38.810  11.870  14.898
62921W        W34647  35.867  33.200   4.462
62922W        W34648  22.661  38.125   0.037
62923W        W34649   5.865  22.713  12.052
62924W        W34650  14.307  23.611  11.054
62925W        W34651  23.954  29.921   0.748
62926W        W34652  28.016  25.550  11.918
62927W        W34653   2.193  40.541   1.465
62928W        W34654  35.852  28.394  14.787
62929W        W34655  41.407   0.423   3.669
62930W        W34656  42.214  12.168  13.878
62931W        W34657   3.399  14.084  13.029
62932W        W34658  30.931   4.625   0.751
62933W        W34659   1.731  40.921  13.637
62934W        W34660   2.760  25.197  13.955
62935W        W34661  32.972  34.926  13.585
62936W        W34662  32.837   7.589  13.369
62937W        W34663  32.932   2.294  13.914
62938W        W34664  29.988  23.953  12.943
62939W        W34665   1.382  44.152  11.605
62940W        W34666   3.354  21.351   0.035
62941W        W34667  17.671  29.970   4.807
62942W        W34668  31.078  24.248   0.828
62943W        W34669  30.982  29.825   4.125
62944W        W34670  15.259   7.918   3.350
62945W        W34671   4.155  29.522   3.902
62946W        W34672  29.659  26.877   1.805
62947W        W34673  11.255   7.173   1.984
62948W        W34674  16.016  22.813   3.687
62949W        W34675  38.557  36.248  10.614
62950W        W34676  30.633   6.822   1.316
62951W        W34677  12.066   6.631   3.298
62952W        W34678  34.382  37.116  13.453
62953W        W34679   1.876  12.131   4.285
62954W        W34680  22.687   9.298  14.326
62955W        W34681   1.241  11.663  11.689
62956W        W34682  43.402  20.951  13.060
62957W        W34683  20.197  43.458   4.203
62958W        W34684  30.893  28.326  11.471
62959W        W34685  12.840  31.834  10.705
62960W        W34686  15.572  33.148  14.955
62961W        W34687   5.844  25.202   1.696
62962W        W34688   0.158   2.975   2.349
62963W        W34689  29.023  30.104   2.284
62964W        W34690  13.684  31.432   0.686
62965W        W34691  38.949  10.168   0.312
62966W        W34692  11.697  14.348   2.910
62967W        W34693   7.099   9.756   2.442
62968W        W34694  39.534   1.283  13.817
62969W        W34695  24.999  27.042  12.551
62970W        W34696  32.847   5.842   0.611
62971W        W34697  36.405  33.586   0.248
62972W        W34698  28.560  28.159   4.141
62973W        W34699  41.097   8.291   0.067
62974W        W34700  39.981  44.743   0.504
62975W        W34701  10.189  39.578  14.965
62976W        W34702  24.978   9.549  13.652
62977W        W34703  34.876   8.873  10.594
62978W        W34704   1.038  43.772  11.573
62979W        W34705  13.295  39.271   0.334
62980W        W34706  35.776  29.121  14.550
62981W        W34707  23.994   1.455   1.045
62982W        W34708  25.503  20.592  14.448
62983W        W34709  13.233  14.786  10.526
62984W        W34710  39.045   1.792   3.648
62985W        W34711   3.735  10.284   3.721
62986W        W34712  27.042  31.221  10.936
62987W        W34713  10.831  16.566  13.831
62988W        W34714  34.312   3.797  13.473
62989W        W34715  26.838  44.665  11.458
62990W        W34716  16.310  27.703  12.325
62991W        W34717  39.448  30.027   4.956
62992W        W34718   1.495   9.927   2.339
62993W        W34719   6.158  15.803   0.820
62994W        W34720  44.423  40.256   5.079
62995W        W34721  24.965  30.376  11.226
62996W        W34722  37.587  33.821   4.633
62997W        W34723  17.702  18.814   2.964
62998W        W34724  30.808   2.735   3.031
62999W        W34725  31.503  24.679   4.036
63000W        W34726   8.833   0.240   2.190
63001W        W34727  37.480  41.263  10.560
63002W        W34728  42.344  38.375   4.705
63003W        W34729   7.264  20.669  11.525
63004W        W34730   0.297  15.386   2.728
63005W        W34731  38.543  12.359  13.947
63006W        W34732  41.457  33.931   3.645
63007W        W34733  28.444  13.846   4.285
63008W        W34734  31.970  40.941   4.555
63009W        W34735  17.174  15.578  10.510
63010W        W34736  20.162  44.503   4.116
63011W        W34737  19.192   8.135  14.378
63012W        W34738  22.583  10.804   0.695
63013W        W34739  44.222  42.718  10.414
63014W        W34740  29.876  37.639  12.539
63015W        W34741  27.473   9.837  10.906
63016W        W34742  30.168   8.296  14.869
63017W        W34743  32.437  14.852  12.899
63018W        W34744  19.067  10.803  13.786
63019W        W34745  30.369   0.040  11.882
63020W        W34746  14.093  42.827  13.924
63021W        W34747  22.647  25.173  10.421
63022W        W34748  31.682  35.790   1.813
63023W        W34749  14.697   4.385   2.755
63024W        W34750  22.625   5.455  10.657
63025W        W34751   9.201  21.244   0.800
63026W        W34752  28.066   8.628   5.396
63027W        W34753  17.028  20.496  12.019
63028W        W34754  28.650  24.432  12.544
63029W        W34755  29.626  20.705  12.929
63030W        W34756  21.050  28.999  10.160
63031W        W34757  31.000  17.375   4.065
63032W        W34758   3.243  32.353  11.576
63033W        W34759  18.518  42.865   2.690
63034W        W34760   6.400  30.207   3.374
63035W        W34761  22.133  12.322   0.133
63036W        W34762  23.732   6.793  12.862
63037W        W34763  11.173  38.775  11.513
63038W        W34764   1.460   8.988  14.296
63039W        W34765  11.619  20.793  14.486
63040W        W34766   8.688  36.338   4.614
63041W        W34767  15.555  19.720  10.194
63042W        W34768  11.833   6.575   9.985
63043W        W34769  32.143  40.807   9.798
63044W        W34770  23.094  24.504  10.928
63045W        W34771   7.873  25.602   3.176
63046W        W34772  14.264   6.306  14.958
63047W        W34773  21.771   6.866   0.692
63048W        W34774  16.635   7.110  12.888
63049W        W34775  12.777   7.495   0.415
63050W        W34776   2.355  14.398  13.832
63051W        W34777  39.908  25.212  12.815
63052W        W34778  32.093  13.262   0.303
63053W        W34779  13.806  31.914   1.452
63054W        W34780  32.849  21.663  12.993
63055W        W34781  35.267  29.740  11.258
63056W        W34782  22.449  21.191  11.974
63057W        W34783  19.783  41.302  13.576
63058W        W34784  28.996   3.482   4.047
63059W        W34785  11.113  20.595  12.937
63060W        W34786  44.307  10.302   3.242
63061W        W34787  30.081  20.017   4.848
63062W        W34788  35.627  31.368   0.958
63063W        W34789  28.395  31.839  14.869
63064W        W34790  34.115  44.311  11.391
63065W        W34791   3.550  21.266   0.512
63066W        W34792  10.782  36.929  13.386
63067W        W34793   3.973  30.176  11.988
63068W        W34794   9.363  33.745  10.256
63069W        W34795  31.466  29.025  11.080
63070W        W34796  36.581   4.340   2.547
63071W        W34797  16.243  24.109  11.677
63072W        W34798  34.317  22.980   0.266
63073W        W34799  10.364  34.508   1.272
63074W        W34800  17.997  24.920   3.701
63075W        W34801  12.406  34.898   1.929
63076W        W34802   3.785  15.713  12.998
63077W        W34803  17.363  38.291   5.041
63078W        W34804  16.193  23.083  10.770
63079W        W34805  36.883  33.976   3.506
63080W        W34806   3.319   1.372   0.322
63081W        W34807  16.608   8.165  12.457
63082W        W34808  38.721   7.053  14.452
63083W        W34809  25.812  16.588  11.933
63084W        W34810  12.541  42.706  12.218
63085W        W34811  37.845  20.025  11.549
63086W        W34812  34.615  39.782  10.774
63087W        W34813   9.658  25.845  10.621
63088W        W34814   7.124   6.821   0.951
63089W        W34815   3.323  28.609  13.265
63090W        W34816  43.916  31.096  11.443
63091W        W34817  35.085  42.281  13.354
63092W        W34818  28.489  41.063   3.271
63093W        W34819  16.110  42.509  14.019
63094W        W34820   1.942  39.982  13.497
63095W        W34821  24.133  42.692   4.103
63096W        W34822  43.950  10.643   1.818
63097W        W34823   8.272  37.692  12.510
63098W        W34824  42.771  11.163   4.745
63099W        W34825   4.609  11.276   3.252
63100W        W34826  19.057   9.912   1.298
63101W        W34827  43.352  36.978   1.407
63102W        W34828   1.741  41.801   0.317
63103W        W34829  40.750  28.940  11.204
63104W        W34830  21.687   4.983  10.622
63105W        W34831   3.331  43.784   2.757
63106W        W34832  42.007   0.453   2.863
63107W        W34833  33.929  19.854   4.084
63108W        W34834  41.529   6.411   2.899
63109W        W34835  10.835   2.510   1.718
63110W        W34836  20.215  41.748   0.283
63111W        W34837   0.912  33.604   1.410
63112W        W34838  29.185   5.725   0.785
63113W        W34839  41.471   5.322  11.381
63114W        W34840  35.013  42.948   2.287
63115W        W34841  40.626  20.695  11.998
63116W        W34842  10.749  12.235  11.376
63117W        W34843   9.837  31.097  11.681
63118W        W34844  19.987  29.033  11.901
63119W        W34845  17.658   5.015   3.794
63120W        W34846  38.774  37.031   2.812
63121W        W34847   6.574  38.171  13.905
63122W        W34848  38.551  10.807   2.669
63123W        W34849  20.300  13.720  11.195
63124W        W34850  10.131  42.113   0.272
63125W        W34851   5.676  28.189  11.096
63126W        W34852  13.470  29.652  14.500
63127W        W34853  26.081   5.033  14.466
63128W        W34854  13.493   7.463   2.303
63129W        W34855  40.751   6.161  12.208
63130W        W34856  18.254  18.615   3.594
63131W        W34857  17.118  15.744   1.205
63132W        W34858   8.292  19.300   4.559
63133W        W34859  30.735  21.257  14.848
63134W        W34860  32.649  39.933   3.646
63135W        W34861  32.310   3.418  12.102
63136W        W34862  10.865  40.523  13.795
63137W        W34863  29.425  18.669   0.746
63138W        W34864  29.547  14.770   2.317
63139W        W34865  14.846  20.598   3.866
63140W        W34866  40.411  24.035   1.371
63141W        W34867  35.400  18.316   1.442
63142W        W34868  17.146  28.574   3.812
63143W        W34869  44.495  11.259   1.388
63144W        W34870   6.042  13.282   2.350
63145W        W34871  17.835  12.791  14.002
63146W        W34872  41.948   5.816  12.949
63147W        W34873  14.091   2.001  14.900
63148W        W34874  36.074  36.000   3.692
63149W        W34875  25.139  20.327   2.388
63150W        W34876   9.863  34.546  14.135
63151W        W34877  29.482  30.952  13.888
63152W        W34878  29.585  30.656  12.487
63153W        W34879  28.657  41.332  10.975
63154W        W34880   4.920  16.340   0.360
63155W        W34881  30.232  40.969   0.904
63156W        W34882   2.234   2.493  13.318
63157W        W34883   0.006  20.535  13.577
63158W        W34884  42.559  37.133   3.443
63159W        W34885  14.105  24.504  13.079
63160W        W34886   6.413  33.168  14.458
63161W        W34887   0.226  12.171   0.472
63162W        W34888  40.511  30.994  13.374
63163W        W34889  21.161  27.158   1.023
63164W        W34890  36.940  23.067   1.307
63165W        W34891  25.549  18.726   2.258
63166W        W34892  37.247  35.917  11.123
63167W        W34893  24.981  22.070   1.289
63168W        W34894   6.717  13.597   0.287
63169W        W34895   2.959  24.597   1.484
63170W        W34896  34.101  14.025   4.087
63171W        W34897  11.775  30.388   1.164
63172W        W34898  28.970  37.301  11.254
63173W        W34899  23.990  26.183   4.222
63174W        W34900  44.782  24.469  13.345
63175W        W34901   2.533  27.867   2.857
63176W        W34902  27.487   9.826  10.398
63177W        W34903  24.709  12.464   5.101
63178W        W34904   8.259   1.389  11.111
63179W        W34905  30.252   8.373   2.365
63180W        W34906  29.138   2.516  10.614
63181W        W34907   9.167  35.498  13.348
63182W        W34908   2.794  14.753   0.861
63183W        W34909  13.103   4.845  14.165
63184W        W34910  44.777  30.181  10.640
63185W        W34911  20.616  21.114   4.579
63186W        W34912  32.734  41.770   3.676
63187W        W34913  14.643  42.314   4.267
63188W        W34914  37.041  11.346  13.348
63189W        W34915   5.773   0.865   2.765
63190W        W34916   1.933  13.722  14.326
63191W        W34917  40.502  24.610   4.885
63192W        W34918  22.037  11.200  14.142
63193W        W34919   0.938  17.219   0.250
63194W        W34920  26.680  36.536  13.919
63195W        W34921   1.686  14.716   2.321
63196W        W34922  44.969  10.981   3.337
63197W        W34923  19.808  30.546   4.696
63198W        W34924   3.932  30.109   1.627
63199W        W34925  34.678  29.968   1.769
63200W        W34926  21.907  25.431  13.653
63201W        W34927   2.964  16.563   4.584
63202W        W34928  26.572  20.577   0.513
63203W        W34929  41.426  21.672  14.471
63204W        W34930  39.632  36.576  11.547
63205W        W34931  44.628  37.058  11.099
63206W        W34932   1.540  36.355  14.820
63207W        W34933  40.926   2.697  14.309
63208W        W34934  29.351   2.969   2.657
63209W        W34935  24.433  31.494   2.261
63210W        W34936   2.585  36.444   0.914
63211W        W34937  35.081   0.754   1.739
63212W        W34938   6.240  30.796  12.555
63213W        W34939  17.424  26.372   5.066
63214W        W34940  25.682  31.382  13.682
63215W        W34941  27.219  10.809   4.114
63216W        W34942   0.393   4.649  13.771
63217W        W34943  42.292  19.094   4.736
63218W        W34944  38.370  21.652   1.283
63219W        W34945  13.236  18.765   3.690
63220W        W34946  44.691   5.885   1.501
63221W        W34947   6.597  11.992   0.984
63222W        W34948  31.382   0.768   0.748
63223W        W34949  23.541  36.538   4.319
63224W        W34950   5.159  14.574  14.931
63225W        W34951  23.669  24.055  13.800
63226W        W34952  43.968  29.528  12.081
63227W        W34953  37.361   0.671   0.777
63228W        W34954  29.537  23.014  13.608
63229W        W34955  30.599  36.985   2.300
63230W        W34956  10.274  28.671   3.809
63231W        W34957  41.894  40.556  13.752
63232W        W34958  14.732  22.520   2.243
63233W        W34959  12.127  24.311   1.234
63234W        W34960  12.661  15.113   3.190
63235W        W34961  28.846  27.497  12.027
63236W        W34962  35.954  17.067  13.261
63237W        W34963  28.988  31.915   3.805
63238W        W34964  39.020  27.701  11.570
63239W        W34965  31.150   1.296  12.851
63240W        W34966  19.983  43.369   2.195
63241W        W34967   7.186  33.504   2.938
63242W        W34968  17.663  32.952  13.900
63243W        W34969  29.101   3.788  14.266
63244W        W34970  19.528  33.456  11.707
63245W        W34971  23.076  10.896   0.074
63246W        W34972  32.917   8.008   4.543
63247W        W34973  27.133  43.390   4.919
63248W        W34974   7.169  29.929  11.072
63249W        W34975   4.566  24.362   4.194
63250W        W34976  15.142  26.855  13.188
63251W        W34977  33.125  19.612  14.592
63252W        W34978  32.675  41.153  13.050
63253W        W34979  10.971   9.300   3.112
63254W        W34980  34.863  40.330   1.188
63255W        W34981   8.431  15.230  13.233
63256W        W34982  10.328   9.573   1.916
63257W        W34983  13.414   9.936  13.435
63258W        W34984   1.187   6.677   1.044
63259W        W34985   7.325  43.815  11.144
63260W        W34986  40.986   8.633   3.108
63261W        W34987  30.657  40.621   2.097
63262W        W34988   9.491  31.078   4.020
63263W        W34989  12.525   8.770   4.362
63264W        W34990   2.849   5.939   4.523
63265W        W34991  12.229  23.277   4.621
63266W        W34992  25.015  29.924  13.033
63267W        W34993  24.671   4.988  10.271
63268W        W34994   3.829  18.832   4.360
63269W        W34995   7.323  13.665   2.875
63270W        W34996   4.650  31.412  11.112
63271W        W34997  30.939  18.177   4.690
63272W        W34998  21.467  11.481   0.178
63273W        W34999  44.287  25.061   3.661
63274W        W35000  28.595   2.692   3.757
63275W        W35001   0.382   2.920   0.069
63276W        W35002  21.574  20.104   1.378
63277W        W35003  12.910   6.833  12.696
63278W        W35004  26.433  11.025   1.911
63279W        W35005  38.340  10.277  14.546
63280W        W35006   9.883  44.381  10.707
63281W        W35007  24.050   0.240   2.811
63282W        W35008   6.785  19.883   1.799
63283W        W35009   7.337  30.036   3.277
63284W        W35010  37.813   9.906   0.395
63285W        W35011  35.468   8.721   4.197
63286W        W35012  33.787  17.007  12.822
63287W        W35013   4.060  19.669  12.988
63288W        W35014  10.647  21.658   3.311
63289W        W35015   6.459   8.510  14.709
63290W        W35016  20.905  23.734   2.596
63291W        W35017   0.861  14.890  14.975
63292W        W35018  21.909  23.547  12.057
63293W        W35019  27.309  43.458   9.866
63294W        W35020  22.799  22.803   2.823
63295W        W35021  12.384  39.863   0.434
63296W        W35022   9.591   1.071  11.096
63297W        W35023  32.396  25.702   5.059
63298W        W35024  30.926  13.702  14.043
63299W        W35025  16.850  38.962   2.569
63300W        W35026   9.100   3.230   2.746
63301W        W35027  39.417  30.656   3.068
63302W        W35028   3.378  40.458   3.367
63303W        W35029  29.693  10.876   4.971
63304W        W35030  23.010  15.989  11.990
63305W        W35031  15.517  38.195   4.638
63306W        W35032   9.268  28.267   1.911
63307W        W35033   7.423  16.084  13.037
63308W        W35034  16.707  15.275  13.917
63309W        W35035  12.218  32.499  11.531
63310W        W35036  28.122   4.763   3.338
63311W        W35037  36.312  30.931   3.442
63312W        W35038  23.425  27.530  13.424
63313W        W35039  28.638  41.902  12.102
63314W        W35040  44.185   9.148   1.833
63315W        W35041  41.117  37.453  12.101
63316W        W35042   6.365  44.108  10.677
63317W        W35043  11.788  37.983  10.953
63318W        W35044  41.267   9.799  11.472
63319W        W35045  14.669  11.718  10.959
63320W        W35046  28.702  26.107  11.904
63321W        W35047  12.797  15.691  14.817
63322W        W35048   4.391  12.296   1.783
63323W        W35049  18.296  14.472   4.234
63324W        W35050  25.181   1.976   4.385
63325W        W35051   8.086   0.177   3.234
63326W        W35052  35.538  41.918   0.306
63327W        W35053  18.735  42.095   1.515
63328W        W35054  29.635   7.433  11.648
63329W        W35055  22.632  15.727   3.153
63330W        W35056   8.875  37.729   3.356
63331W        W35057  20.556  24.667   2.776
63332W        W35058  23.244  36.299   3.139
63333W        W35059   6.287  29.459  11.893
63334W        W35060  40.114   0.373  12.636
63335W        W35061   7.286  37.862   2.381
63336W        W35062  12.264  43.073   4.248
63337W        W35063  12.711  35.447  12.049
63338W        W35064  43.026   3.570  14.982
63339W        W35065  42.875  39.679   4.242
63340W        W35066  36.470  21.195  14.978
63341W        W35067   9.303   7.027   1.016
63342W        W35068  43.336   1.472   0.410
63343W        W35069  25.319  18.918  14.970
63344W        W35070   1.832  25.159   4.000
63345W        W35071  29.392   5.718  10.946
63346W        W35072  14.235  23.482   2.331
63347W        W35073  27.029   5.428  11.149
63348W        W35074  24.077  20.723  12.491
63349W        W35075  14.039   2.923   0.394
63350W        W35076   5.252  27.160   2.657
63351W        W35077  40.115  39.300   2.671
63352W        W35078  31.544  10.314  14.961
63353W        W35079  12.794   1.591  11.070
63354W        W35080   0.040   7.309  12.382
63355W        W35081  33.363   2.017   3.183
63356W        W35082  14.727   9.772  10.730
63357W        W35083  19.203  22.441   2.922
63358W        W35084  36.494  12.347   0.668
63359W        W35085  38.863  13.755   2.183
63360W        W35086   0.202  22.824   2.797
63361W        W35087  11.735  37.405  10.192
63362W        W35088  32.944  24.993  13.279
63363W        W35089  18.614  43.236  14.558
63364W        W35090  44.089   0.768  14.594
63365W        W35091  37.410  39.760  11.436
63366W        W35092  29.304  25.210   9.758
63367W        W35093  21.154  34.275  10.261
63368W        W35094  18.133  11.760   2.442
63369W        W35095   9.929  43.409  14.828
63370W        W35096  26.042  18.129  14.922
63371W        W35097  23.574  12.175   0.456
63372W        W35098  33.425  16.669   4.357
63373W        W35099   4.253  41.397   3.330
63374W        W35100  15.117  42.981  12.848
63375W        W35101  41.466   8.863   1.666
63376W        W35102  35.639  27.147   2.331
63377W        W35103   1.000  24.499   3.556
63378W        W35104  36.319  12.652  12.025
63379W        W35105   3.662  44.021  12.869
63380W        W35106  39.791  28.110   4.047
63381W        W35107  10.386  18.075   2.221
63382W        W35108   1.536  37.689  12.897
63383W        W35109  20.195  43.375  11.414
63384W        W35110   4.717  13.250  11.247
63385W        W35111  34.116  21.154   0.360
63386W        W35112   9.369  31.365   3.190
63387W        W35113   1.312  29.021   4.358
63388W        W35114  35.007  39.340  14.830
63389W        W35115  36.442  21.127   4.918
63390W        W35116  35.485  10.885   0.699
63391W        W35117  33.307  29.285  11.671
63392W        W35118  24.467  43.934  10.170
63393W        W35119   6.898  27.020   4.985
63394W        W35120  21.739  20.955   4.276
63395W        W35121  39.828  22.685   3.206
63396W        W35122   8.456  38.947   0.787
63397W        W35123  42.420  33.453   0.780
63398W        W35124   9.632  31.857   3.184
63399W        W35125  20.117  20.936   4.626
63400W        W35126  26.021  21.515   3.733
63401W        W35127  38.457  28.863  12.380
63402W        W35128  42.678  36.384  14.018
63403W        W35129  25.999  22.343   3.110
63404W        W35130  42.405   6.206   0.443
63405W        W35131   6.999  16.273  13.963
63406W        W35132   7.924   6.364   3.860
63407W        W35133  23.796  13.831  12.397
63408W        W35134  25.629  15.424  13.449
63409W        W35135  15.217   4.597  12.352
63410W        W35136  37.275  18.589   5.070
63411W        W35137   7.885  40.844   1.834
63412W        W35138  22.093  19.944  13.483
63413W        W35139  16.350   4.449  12.082
63414W        W35140  41.474  17.135   4.777
63415W        W35141  27.670  29.614   4.770
63416W        W35142  16.593  31.623  11.993
63417W        W35143  13.679   1.494   3.464
63418W        W35144  27.241  38.280  13.146
63419W        W35145  44.413  25.263  11.163
63420W        W35146  42.261  29.669   3.612
63421W        W35147   8.914   5.328   2.889
63422W        W35148  12.264  20.116   1.930
63423W        W35149   8.220   2.918   2.781
63424W        W35150  26.895  21.499  14.296
63425W        W35151  11.118  12.377   1.719
63426W        W35152  21.248  28.576   0.999
63427W        W35153   4.297  15.592  10.088
63428W        W35154  16.992  14.857   2.301
63429W        W35155  31.079  16.057  10.946
63430W        W35156  38.331  19.396  12.011
63431W        W35157  17.078  26.416   0.755
63432W        W35158   9.735  33.526  12.079
63433W        W35159  29.555  44.596  14.050
63434W        W35160  25.905  20.440   1.151
63435W        W35161  40.541  17.043   2.387
63436W        W35162  22.445  27.036  11.177
63437W        W35163   9.355   6.443   3.645
63438W        W35164  41.917  27.629   4.260
63439W        W35165  17.564  15.369  12.529
63440W        W35166  18.010   3.178   3.822
63441W        W35167  15.129   5.711   0.707
63442W        W35168   9.418   4.136   0.398
63443W        W35169  27.639  19.564   3.880
63444W        W35170   3.505   5.420  14.999
63445W        W35171   1.174  41.381   4.036
63446W        W35172  43.638  18.842  12.612
63447W        W35173  37.782  26.585  12.999
63448W        W35174  22.488  44.571   4.581
63449W        W35175  18.000  17.245   1.849
63450W        W35176  27.034  38.809  11.023
63451W        W35177  22.622  29.387   4.552
63452W        W35178   4.486  18.663  13.631
63453W        W35179  38.001   7.962  11.237
63454W        W35180   2.917  21.276   4.216
63455W        W35181   0.548  14.572   1.836
63456W        W35182  12.737   0.357  13.212
63457W        W35183   7.103  16.773   2.709
63458W        W35184  32.916  26.736  13.859
63459W        W35185  33.424  19.812   3.768
63460W        W35186  31.845   4.713  12.509
63461W        W35187  39.004   6.877   0.331
63462W        W35188  34.474  25.041   3.467
63463W        W35189  12.774   7.053   1.958
63464W        W35190  14.575  16.535   1.510
63465W        W35191  24.155   8.484   1.494
63466W        W35192  11.757   1.188  14.808
63467W        W35193  33.917  19.038   2.286
63468W        W35194  11.496  21.236  11.969
63469W        W35195  37.390  30.834   3.243
63470W        W35196  23.150  21.257   3.183
63471W        W35197  16.066   8.214  11.645
63472W        W35198  14.784  20.582  12.014
63473W        W35199   4.452   0.437  14.795
63474W        W35200  13.148   0.421  14.303
63475W        W35201  43.478  34.445  10.560
63476W        W35202   2.117  21.996   3.635
63477W        W35203   8.206  36.621  13.676
63478W        W35204  17.152  38.551   3.311
63479W        W35205  31.471  22.236   4.645
63480W        W35206  12.724   7.327   1.281
63481W        W35207  39.106  24.961  12.841
63482W        W35208  29.876  43.881  12.437
63483W        W35209  31.973  34.580  11.752
63484W        W35210  39.130  27.902   3.401
63485W        W35211  34.424  22.518  13.844
63486W        W35212  37.627  25.962   5.053
63487W        W35213  38.960  26.523  13.917
63488W        W35214  11.564  25.635  10.668
63489W        W35215  44.042  37.124   0.334
63490W        W35216  12.393  40.213   0.854
63491W        W35217  28.218  43.796  12.924
63492W        W35218  36.488  31.172  12.909
63493W        W35219  17.530  31.967  14.239
63494W        W35220  25.669   5.900  14.443
63495W        W35221  27.166  15.177  12.541
63496W        W35222  32.512  16.501   0.815
63497W        W35223  29.698  27.722   2.315
63498W        W35224   6.917   2.694  14.335
63499W        W35225   8.839  37.413  14.453
63500W        W35226  28.960  21.518   1.337
63501W        W35227  23.831   2.520   2.911
63502W        W35228  16.670  24.121   3.743
63503W        W35229  17.165   3.994   0.794
63504W        W35230  44.159  35.239  11.383
63505W        W35231   5.528   0.142   1.674
63506W        W35232  10.359  21.188   5.019
63507W        W35233  17.337  38.943   1.689
63508W        W35234  42.567  17.668  14.350
63509W        W35235   2.747  26.810   1.363
63510W        W35236  18.227  23.170  11.374
63511W        W35237  11.928  26.409   3.676
63512W        W35238  28.939  18.843  11.847
63513W        W35239  19.672  28.573   3.614
63514W        W35240  42.534   0.849  11.145
63515W        W35241  24.904  38.410   1.165
63516W        W35242  37.391   8.998   0.305
63517W        W35243  39.955   7.970  10.624
63518W        W35244  36.267   2.672  11.560
63519W        W35245  37.862   7.076  14.957
63520W        W35246   6.780  12.417  14.402
63521W        W35247  43.234  31.650   4.232
63522W        W35248  17.429  13.316  11.127
63523W        W35249   4.204  38.876  14.800
63524W        W35250  38.119  10.609  14.945
63525W        W35251  32.969  28.243  14.258
63526W        W35252  14.676  37.948   2.360
63527W        W35253  35.858  23.155  12.409
63528W        W35254  37.148  26.941   3.267
63529W        W35255   0.525  25.074   0.958
63530W        W35256  14.324  34.839  10.939
63531W        W35257  24.583   8.903  14.876
63532W        W35258  18.279  21.126  11.996
63533W        W35259  28.738  13.679  11.109
63534W        W35260  41.370  26.177   2.864
63535W        W35261  28.395  36.471   2.758
63536W        W35262  15.459  44.318   0.912
63537W        W35263  15.160  42.240   4.149
63538W        W35264   1.899  35.886   2.413
63539W        W35265  38.829  11.848   2.323
63540W        W35266   7.704  14.552   3.496
63541W        W35267  29.274  43.408   1.737
63542W        W35268   1.336  11.265  14.029
63543W        W35269  44.401  26.478   2.080
63544W        W35270  41.071   5.642  14.682
63545W        W35271  15.085  27.660  14.389
63546W        W35272  28.058  32.312  11.521
63547W        W35273  35.613   8.795   0.716
63548W        W35274  11.392  43.302  12.911
63549W        W35275  34.821  22.493   4.108
63550W        W35276   9.850  30.605  14.204
63551W        W35277  18.153  43.765   0.832
63552W        W35278  28.568  41.918   0.682
63553W        W35279  39.436   5.715   4.002
63554W        W35280   9.690  27.545   0.175
63555W        W35281  38.012  34.500  10.935
63556W        W35282  29.222  43.309   4.647
63557W        W35283  24.480   0.615   1.778
63558W        W35284  22.998   3.747  11.430
63559W        W35285   9.765  10.163  10.716
63560W        W35286  10.165   2.250   1.273
63561W        W35287  33.905  36.979   2.812
63562W        W35288   5.276  13.881  11.538
63563W        W35289   1.389   3.843   3.010
63564W        W35290  34.870   6.040  14.537
63565W        W35291  42.962  22.066  10.774
63566W        W35292  15.555   8.858  11.521
63567W        W35293   3.823  11.677   2.223
63568W        W35294   4.226   7.101   0.827
63569W        W35295   7.368   8.239   1.787
63570W        W35296   9.152  39.557  14.035
63571W        W35297  24.484   3.793   0.894
63572W        W35298  11.681  32.147   5.113
63573W        W35299   5.606  35.152  11.149
63574W        W35300   3.180  29.007   2.294
63575W        W35301  10.537  30.849   4.075
63576W        W35302  42.727   9.300  13.920
63577W        W35303  26.844  35.462  12.273
63578W        W35304   2.365  41.934  12.914
63579W        W35305  18.803   9.621   2.387
63580W        W35306   9.128  31.140  12.103
63581W        W35307  12.382  40.122  11.597
63582W        W35308  26.418  13.744  11.312
63583W        W35309  33.318  32.045  11.210
63584W        W35310   2.940   4.057   3.726
63585W        W35311  42.457   0.274  11.658
63586W        W35312  25.291  14.026  12.882
63587W        W35313   7.334  24.173  10.253
63588W        W35314  28.919   1.411  13.816
63589W        W35315  30.210  29.555  10.486
63590W        W35316  10.070  37.262  11.094
63591W        W35317  16.500   0.954   0.482
63592W        W35318  32.292  44.352   9.726
63593W        W35319  36.869  24.584  10.672
63594W        W35320  30.614  26.246   0.697
63595W        W35321  22.230  11.519   2.741
63596W        W35322  38.310   7.814  13.045
63597W        W35323  27.468   4.252   2.850
63598W        W35324  11.279   4.814   4.453
63599W        W35325  39.766  39.533  11.572
63600W        W35326  27.847   7.723  11.532
63601W        W35327  14.727  21.813  13.985
63602W        W35328  31.500  17.533  13.993
63603W        W35329  19.191  17.105  10.978
63604W        W35330  35.165  24.196   4.664
63605W        W35331  32.696  43.914   4.110
63606W        W35332  44.735  29.596   5.126
63607W        W35333  14.569   7.426  14.598
63608W        W35334  42.802  39.423   2.092
63609W        W35335  18.955  40.396   4.161
63610W        W35336   2.431  28.932   4.831
63611W        W35337  17.643   9.618   3.796
63612W        W35338  12.193  18.560  11.500
63613W        W35339  29.534  33.642   3.035
63614W        W35340  35.163  38.054   4.183
63615W        W35341  26.936  24.309  13.894
63616W        W35342   6.336  27.950   4.506
63617W        W35343   3.730  37.353  12.387
63618W        W35344  10.434  27.935  14.384
63619W        W35345   5.460  17.847   2.273
63620W        W35346  30.500  31.496  12.453
63621W        W35347   2.267  32.099  10.393
63622W        W35348  26.165   1.171  14.913
63623W        W35349  29.906  16.266  12.516
63624W        W35350  29.731  22.694   5.010
63625W        W35351  33.455  10.132   2.422
63626W        W35352  34.922  34.413   3.108
63627W        W35353  10.166   4.727  11.220
63628W        W35354   9.249   6.333   0.277
63629W        W35355  11.436  35.997   4.754
63630W        W35356  22.206   7.074  13.036
63631W        W35357  43.890  31.152   2.836
63632W        W35358  42.548  42.199   0.764
63633W        W35359  35.400  42.430  12.464
63634W        W35360  35.639  18.231   0.984
63635W        W35361  38.920  40.462   3.287
63636W        W35362  39.129  12.818  12.140
63637W        W35363  28.168  38.069  13.046
63638W        W35364  33.176  31.542   3.171
63639W        W35365  27.215  36.936  14.768
63640W        W35366  37.173   3.283  13.576
63641W        W35367  18.568  12.353  12.056
63642W        W35368  39.561  28.710   0.304
63643W        W35369   3.355   1.270   1.381
63644W        W35370  19.649  26.614  13.547
63645W        W35371   3.022  44.008   2.325
63646W        W35372   3.943  35.889  11.633
63647W        W35373  25.985  24.774   0.274
63648W        W35374  28.765  39.156  10.007
63649W        W35375   1.059   1.173   4.213
63650W        W35376   1.981   2.801   3.560
63651W        W35377  29.619   9.274   3.332
63652W        W35378  26.143  26.683  10.683
63653W        W35379  33.302  40.565   1.380
63654W        W35380   7.815  44.872  11.525
63655W        W35381  21.023  20.516  11.937
63656W        W35382  24.973  25.083   1.199
63657W        W35383  40.307  10.227  14.646
63658W        W35384  37.293  41.206  13.906
63659W        W35385  11.870  33.077  13.897
63660W        W35386  10.826  32.458  13.129
63661W        W35387  11.218  40.609  10.505
63662W        W35388  20.786  11.089   0.746
63663W        W35389  37.129   4.197  13.409
63664W        W35390  32.708  40.395  11.614
63665W        W35391  16.121  16.650  12.488
63666W        W35392  22.186   1.172   3.917
63667W        W35393  16.754   0.453   0.437
63668W        W35394  41.778  28.936   2.394
63669W        W35395  15.703  21.343   0.849
63670W        W35396  24.872   6.330   2.391
63671W        W35397  42.538  44.056   4.873
63672W        W35398  25.972   8.298  14.839
63673W        W35399  24.133  25.475  11.159
63674W        W35400  32.656  44.550   1.891
63675W        W35401  11.510  10.636   1.352
63676W        W35402   9.967   5.262  13.875
63677W        W35403  30.176   0.049   2.778
63678W        W35404  38.394   7.092   4.289
63679W        W35405   9.726   1.832   1.204
63680W        W35406   7.354  20.175   4.066
63681W        W35407  37.315  21.562  14.916
63682W        W35408   8.006  31.600  14.813
63683W        W35409  30.643  34.393  11.148
63684W        W35410  29.346   4.451   2.672
63685W        W35411  37.816  18.908   4.075
63686W        W35412  13.641  33.897   0.408
63687W        W35413  30.600  20.012   4.617
63688W        W35414  17.562  24.558   0.897
63689W        W35415   6.172  32.520  13.907
63690W        W35416  23.634  26.721   2.215
63691W        W35417  37.884  40.722  13.863
63692W        W35418  10.893  25.141   2.279
63693W        W35419  12.683  34.966  13.283
63694W        W35420  38.315   1.444  14.764
63695W        W35421   6.773  36.860   4.635
63696W        W35422  15.523  21.695  13.352
63697W        W35423  12.742  11.668  10.664
63698W        W35424   0.652  10.663  13.304
63699W        W35425  28.691  40.780  11.671
63700W        W35426  12.116  31.957   1.476
63701W        W35427  27.611  36.547  10.531
63702W        W35428  20.525   7.298   2.990
63703W        W35429  44.469  42.943  14.462
63704W        W35430  17.073  24.436   1.816
63705W        W35431  23.739  14.248   1.611
63706W        W35432  43.000  19.274  12.364
63707W        W35433   6.608  24.065  10.647
63708W        W35434  11.399  12.144   1.320
63709W        W35435   3.725  11.218  14.395
63710W        W35436  22.830  18.310   2.662
63711W        W35437  18.211  21.051  14.254
63712W        W35438   7.494  18.517  11.908
63713W        W35439  18.330  28.287  10.919
63714W        W35440  28.533   5.177   1.350
63715W        W35441   2.513  18.963   1.270
63716W        W35442   3.212   3.386   1.623
63717W        W35443  28.584  38.534  12.731
63718W        W35444  39.085  22.074  12.769
63719W        W35445  15.731  25.484   2.783
63720W        W35446  36.010  42.437   0.358
63721W        W35447  44.005  32.268   1.762
63722W        W35448  38.582  13.141  13.373
63723W        W35449   3.731  29.153  10.425
63724W        W35450   7.886  21.130  10.748
63725W        W35451  12.181   7.735  13.789
63726W        W35452  13.771  36.032  13.943
63727W        W35453  44.235  22.470   2.829
63728W        W35454  42.862  14.713  12.605
63729W        W35455  31.870   7.941  11.551
63730W        W35456  42.451  37.312   2.760
63731W        W35457  25.304   3.082   2.772
63732W        W35458  12.662  34.550   3.675
63733W        W35459  28.257   0.360   4.592
63734W        W35460  31.963  16.119   3.780
63735W        W35461  10.984  21.015   3.857
63736W        W35462  44.749  34.940   0.617
63737W        W35463  15.710   0.644   4.584
63738W        W35464  33.135  23.228   2.379
63739W        W35465   2.265   3.267  11.833
63740W        W35466   0.361  11.894   2.454
63741W        W35467  14.368   9.115  12.984
63742W        W35468  16.676  33.534  14.801
63743W        W35469   5.481  16.855  14.555
63744W        W35470   0.371  10.717   1.028
63745W        W35471  27.134   9.768   1.038
63746W        W35472  37.036  20.795  14.563
63747W        W35473  26.242   0.707  11.186
63748W        W35474  18.577  23.144  13.631
63749W        W35475   5.448   0.988   3.226
63750W        W35476  26.185   1.704  12.651
63751W        W35477   8.676  40.821  12.438
63752W        W35478  24.955   1.838  12.966
63753W        W35479  14.223   8.618  14.956
63754W        W35480  12.115  42.222   1.773
63755W        W35481  37.206   1.337   4.215
63756W        W35482   7.809  31.509   2.240
63757W        W35483  26.415  40.929  12.656
63758W        W35484  14.388  13.753   2.788
63759W        W35485  23.706   8.949   3.693
63760W        W35486   7.387  35.528  12.391
63761W        W35487  21.586  38.353  13.950
63762W        W35488  23.424   7.352   2.891
63763W        W35489  35.503  19.584  14.299
63764W        W35490  32.244  12.325   3.606
63765W        W35491  16.104  24.151   0.352
63766W        W35492  11.265  40.239  11.792
63767W        W35493  24.038  31.950  12.388
63768W        W35494  13.344  11.164   4.659
63769W        W35495  35.374  24.762   1.536
63770W        W35496  12.349  20.942  14.079
63771W        W35497  40.700  32.755   4.093
63772W        W35498  24.999  15.173  13.891
63773W        W35499   7.775  31.955   1.950
63774W        W35500   4.224  20.003   4.109
63775W        W35501   3.803  20.689   2.016
63776W        W35502   6.755   9.617   2.843
63777W        W35503  27.099  19.842   3.171
63778W        W35504  23.159  19.119   2.576
63779W        W35505   1.785   1.997   2.128
63780W        W35506   1.772  21.118   3.270
63781W        W35507  33.360  44.683  11.689
63782W        W35508  30.297  43.452  14.762
63783W        W35509  13.854   4.607   0.771
63784W        W35510   9.327  10.623   1.226
63785W        W35511  42.587   8.976   2.748
63786W        W35512  32.622  20.874   4.419
63787W        W35513  37.385  36.957  11.716
63788W        W35514   5.912  32.608  12.968
63789W        W35515  41.383  41.253   1.057
63790W        W35516  44.439  15.120  14.852
63791W        W35517  12.154  21.112   3.109
63792W        W35518  18.879  42.720  13.548
63793W        W35519  27.602   2.360  10.655
63794W        W35520  38.427  36.798   3.306
63795W        W35521  16.988  22.606  11.540
63796W        W35522  38.548  10.701   4.568
63797W        W35523  18.212  17.088   4.749
63798W        W35524   7.280  31.478  13.090
63799W        W35525  38.798   8.211   3.853
63800W        W35526   7.881  28.967  11.701
63801W        W35527  21.645  39.365   2.737
63802W        W35528  33.706   9.297   2.054
63803W        W35529  20.278   6.199   3.270
63804W        W35530   7.730  16.679  11.096
63805W        W35531  14.054  22.023   4.208
63806W        W35532  22.525  37.296   0.653
63807W        W35533   9.601  30.565   0.247
63808W        W35534  41.484  22.113   4.371
63809W        W35535   6.205   8.242   0.485
63810W        W35536  22.256  13.074  11.570
63811W        W35537  22.759  24.173   2.571
63812W        W35538  23.688  13.048   3.652
63813W        W35539  27.646   6.395  11.216
63814W        W35540  21.717  39.633  12.299
63815W        W35541  27.065  22.215   1.421
63816W        W35542  20.633  39.055   1.436
63817W        W35543  36.012   6.208   2.166
63818W        W35544  41.723  38.548  12.991
63819W        W35545  25.056  18.844  12.524
63820W        W35546  31.539  15.351   0.783
63821W        W35547  30.468  12.681   0.862
63822W        W35548  31.495  33.339  11.008
63823W        W35549  36.525  16.573   4.131
63824W        W35550   3.387  32.541   0.879
63825W        W35551  33.612  29.293  12.136
63826W        W35552  16.057  21.991   3.260
63827W        W35553  23.333  37.744   0.322
63828W        W35554  14.687  43.442   4.475
63829W        W35555  19.214  43.804   4.035
63830W        W35556   5.348  13.491  12.476
63831W        W35557  31.097  28.469   0.533
63832W        W35558  23.077  40.520   1.483
63833W        W35559  37.982   7.379   4.565
63834W        W35560  12.596  16.805   1.404
63835W        W35561  25.192   9.562   3.786
63836W        W35562  42.915  20.594   4.392
63837W        W35563  28.663   3.571  14.078
63838W        W35564  22.504  40.007   3.535
63839W        W35565  25.809  28.735   1.393
63840W        W35566  11.236  36.375   3.636
63841W        W35567  26.666  33.351   4.702
63842W        W35568   9.844  24.775   5.086
63843W        W35569   8.381  43.814  11.960
63844W        W35570   1.034  28.407   2.292
63845W        W35571  10.559  11.108  14.830
63846W        W35572  29.953  32.398   3.077
63847W        W35573  34.008  41.906  10.467
63848W        W35574  33.018  19.061   4.297
63849W        W35575  43.488   7.663   0.165
63850W        W35576  38.956  29.960  12.061
63851W        W35577  26.269  25.047  11.233
63852W        W35578  25.959  13.578  13.526
63853W        W35579  28.267  16.723  12.157
63854W        W35580  31.423  23.693  10.204
63855W        W35581   6.719  13.502   1.004
63856W        W35582   6.214   6.496   3.152
63857W        W35583  34.415  15.963   0.863
63858W        W35584   8.997   2.346   2.920
63859W        W35585  33.211  10.270  12.901
63860W        W35586   5.575  23.462   0.749
63861W        W35587  24.802  37.596  13.058
63862W        W35588   4.538  22.073  14.742
63863W        W35589  32.272   6.889  14.216
63864W        W35590   7.916  37.953   3.290
63865W        W35591  38.501  30.139   4.553
63866W        W35592  26.827  10.345   2.867
63867W        W35593  16.743  36.091  14.756
63868W        W35594  14.764  37.673   0.852
63869W        W35595  11.509  21.678  11.608
63870W        W35596   7.147   2.988  13.479
63871W        W35597  30.453  33.064   4.761
63872W        W35598  27.685  15.211  10.871
63873W        W35599  30.656  22.688   1.376
63874W        W35600  10.161  43.431   2.659
63875W        W35601  14.346   9.407   3.658
63876W        W35602  29.118  10.887   0.892
63877W        W35603  19.595  14.115   4.290
63878W        W35604  18.312  22.496  11.034
63879W        W35605   1.601   9.532   3.226
63880W        W35606  22.571  19.407  10.891
63881W        W35607  27.024  26.921  10.698
63882W        W35608   0.756  32.473   1.094
63883W        W35609  18.581  34.242  11.667
63884W        W35610  43.373  14.722  13.348
63885W        W35611  31.397   9.400  12.121
63886W        W35612  38.327  39.866   3.541
63887W        W35613  10.275  22.445   9.907
63888W        W35614  11.540  40.827  12.395
63889W        W35615   3.265  12.809   4.342
63890W        W35616  39.476  22.030   0.936
63891W        W35617  13.647  26.920   1.231
63892W        W35618  37.557  19.186   3.750
63893W        W35619  28.380  24.715   0.933
63894W        W35620  32.028  36.099  12.067
63895W        W35621  10.751   6.319  12.024
63896W        W35622  31.422  11.626   0.376
63897W        W35623  23.566  24.516   4.414
63898W        W35624   2.961  28.716  11.388
63899W        W35625   7.665  21.204   3.656
63900W        W35626  31.500  15.570  11.968
63901W        W35627   5.873  39.344   3.636
63902W        W35628  35.538   0.987   3.204
63903W        W35629  10.866  31.525   0.465
63904W        W35630  15.288  24.794   2.190
63905W        W35631   3.388  20.668  10.766
63906W        W35632   3.892  43.808   4.559
63907W        W35633   5.452  44.106   2.082
63908W        W35634  13.657  40.916   2.920
63909W        W35635  11.876   1.299  12.959
63910W        W35636   8.734   1.824   0.256
63911W        W35637  18.817  24.557  10.757
63912W        W35638  35.978  23.647   3.983
63913W        W35639  20.087   0.351  14.090
63914W        W35640  17.067  26.392   4.273
63915W        W35641  20.060   7.069   3.139
63916W        W35642  27.625  19.527  14.456
63917W        W35643  18.140  39.079   2.766
63918W        W35644  10.215  22.199   4.738
63919W        W35645   4.814   6.189  12.045
63920W        W35646  22.963  22.257  14.705
63921W        W35647  32.164  34.433   4.061
63922W        W35648   8.409  15.782  12.998
63923W        W35649  17.242   9.871  13.822
63924W        W35650  27.148  31.609  13.732
63925W        W35651   0.683   8.536   2.808
63926W        W35652  43.981  34.666  13.002
63927W        W35653   3.507  32.423   4.299
63928W        W35654  35.478   8.851  14.757
63929W        W35655  35.058  28.127  11.912
63930W        W35656  25.634  24.400   2.895
63931W        W35657  34.483  19.727   4.316
63932W        W35658   4.437  41.511   1.401
63933W        W35659  29.737  41.389   1.695
63934W        W35660  42.425  15.776   0.227
63935W        W35661  15.300   4.793  14.466
63936W        W35662  26.125  27.576   0.111
63937W        W35663  32.933  11.219  14.027
63938W        W35664   6.163  18.955   1.855
63939W        W35665  12.860  17.212   4.286
63940W        W35666   5.302  40.487   0.368
63941W        W35667  32.240  11.769  12.894
63942W        W35668  16.122   7.316   1.773
63943W        W35669  27.108  16.762   1.907
63944W        W35670  12.287  37.197  13.334
63945W        W35671  21.540  22.648   3.270
63946W        W35672  38.324  14.290  14.988
63947W        W35673  40.515  33.858  10.576
63948W        W35674  13.479  11.953   5.158
63949W        W35675   2.452  18.961  12.338
63950W        W35676   3.030  26.560  13.503
63951W        W35677  38.442  18.490   0.827
63952W        W35678   8.868  12.732  14.775
63953W        W35679  16.105   5.845   0.314
63954W        W35680   5.792  29.902  12.450
63955W        W35681  30.496  17.281   4.118
63956W        W35682  32.922  37.418  11.959
63957W        W35683  25.525  13.179   2.159
63958W        W35684  23.453  19.633  13.463
63959W        W35685  39.424  17.973   2.698
63960W        W35686   7.662  39.835   0.284
63961W        W35687  21.262  31.973   3.087
63962W        W35688   1.502  35.963  12.136
63963W        W35689  29.842  24.755  11.599
63964W        W35690  17.351  32.443  14.938
63965W        W35691  42.307  23.247  13.310
63966W        W35692  41.305  40.400  12.912
63967W        W35693   4.504   9.013   1.837
63968W        W35694  30.415  17.404   0.869
63969W        W35695  37.028   7.427  13.253
63970W        W35696  31.417  42.082   1.651
63971W        W35697   1.609  29.828   2.622
63972W        W35698  30.643  16.580  12.092
63973W        W35699  32.555  11.922  11.695
63974W        W35700  26.587   9.155  12.825
63975W        W35701   8.839  39.808  13.702
63976W        W35702  37.754  20.848   1.026
63977W        W35703  13.920  36.763   1.892
63978W        W35704   8.893  10.687   4.754
63979W        W35705  29.006  28.011  10.481
63980W        W35706  32.546  22.612   4.458
63981W        W35707  29.901  22.672   1.124
63982W        W35708   9.625  17.271  10.629
63983W        W35709  37.116  17.744  11.160
63984W        W35710  19.986  42.384   4.076
63985W        W35711  20.036  25.251  13.133
63986W        W35712  41.044  32.449   4.352
63987W        W35713   0.377   0.091   1.195
63988W        W35714   5.623  22.680   3.315
63989W        W35715  41.123  15.731   2.707
63990W        W35716  38.104  33.528   4.565
63991W        W35717  23.979   8.974   3.240
63992W        W35718  30.499  33.886  13.709
63993W        W35719  17.577   1.969   3.622
63994W        W35720   3.862  23.921   0.609
63995W        W35721  42.377  33.107  10.642
63996W        W35722  22.017  39.949   0.406
63997W        W35723  24.263  31.391  13.890
63998W        W35724  15.790  42.998   2.763
63999W        W35725  14.553  30.121  13.372
64000W        W35726  11.184  38.892  10.131
64001W        W35727  12.248   0.512  13.977
64002W        W35728  37.509  21.343  11.489
64003W        W35729  42.873  18.309  14.250
64004W        W35730  38.484  33.819  10.600
64005W        W35731   9.792  30.083   3.647
64006W        W35732  25.522  10.313  10.268
64007W        W35733  33.488  41.354  13.878
64008W        W35734   2.720  30.492  12.160
64009W        W35735  32.516   9.778   2.589
64010W        W35736  44.101  13.091  11.533
64011W        W35737  21.241   2.591   4.292
64012W        W35738   5.253   0.757  12.334
64013W        W35739  43.521  32.423  12.555
64014W        W35740  26.065   0.771  14.234
64015W        W35741  38.894  20.066   4.586
64016W        W35742   3.871  15.095  13.899
64017W        W35743   5.143  12.082  12.179
64018W        W35744  43.939  30.091   2.679
64019W        W35745  33.998  38.840  13.584
64020W        W35746   8.850  28.050   3.701
64021W        W35747  23.957  36.031   4.987
64022W        W35748   4.727  35.998   4.222
64023W        W35749  13.805  42.588   1.050
64024W        W35750  36.572   4.989  11.678
64025W        W35751  40.947  25.187  12.043
64026W        W35752  16.235  40.316  12.023
64027W        W35753  10.124   6.738  13.994
64028W        W35754  34.889  34.536   4.105
64029W        W35755  42.287  20.832   1.738
64030W        W35756  15.812  28.934  12.496
64031W        W35757  16.713  17.400   0.921
64032W        W35758   1.432  25.203  13.527
64033W        W35759   9.161  41.820  14.930
64034W        W35760  31.337   1.003  11.557
64035W        W35761   9.271  15.792  12.812
64036W        W35762  22.617   4.357  11.375
64037W        W35763  26.173   5.934  14.337
64038W        W35764  15.801  44.218   2.378
64039W        W35765  25.521   6.211   0.354
64040W        W35766  20.795  14.191  14.817
64041W        W35767  27.685  27.215   4.681
64042W        W35768  35.399  29.442  10.845
64043W        W35769  11.711  32.226  12.700
64044W        W35770   4.913   2.126   1.869
64045W        W35771  44.180  40.995  12.259
64046W        W35772  40.429   3.258  13.190
64047W        W35773   9.887   6.818   2.240
64048W        W35774  13.376  15.535   1.400
64049W        W35775  27.258  40.409   0.566
64050W        W35776  25.533  43.300   3.268
64051W        W35777   5.244  18.165  14.522
64052W        W35778  15.618  17.174   3.879
64053W        W35779   8.934  27.900   4.571
64054W        W35780   5.199  38.862   4.958
64055W        W35781  18.733  23.509   1.808
64056W        W35782   2.006  27.906   2.783
64057W        W35783  44.889  16.261  13.161
64058W        W35784  16.272  34.395  12.005
64059W        W35785  21.153  35.207   2.250
64060W        W35786  34.489  14.871  12.462
64061W        W35787  23.945   0.678   9.848
64062W        W35788  33.045  40.927  14.697
64063W        W35789   8.435  25.760   2.341
64064W        W35790   1.965  35.105  11.849
64065W        W35791   7.441   3.452   1.796
64066W        W35792  41.867  10.647   4.519
64067W        W35793  19.253  21.763   3.799
64068W        W35794  35.318  12.818  11.167
64069W        W35795  28.126   5.858  13.747
64070W        W35796  11.871   4.868  13.529
64071W        W35797  29.166  15.340   2.695
64072W        W35798  23.002  14.525  12.861
64073W        W35799   6.810   5.974   4.192
64074W        W35800   5.342   1.426  14.559
64075W        W35801  16.544  34.418   0.519
64076W        W35802  17.727   3.070   2.902
64077W        W35803   3.891  11.098   4.086
64078W        W35804  16.793  41.595  12.437
64079W        W35805   9.835  14.319   3.624
64080W        W35806  32.611  31.346   0.892
64081W        W35807  44.521  32.599   0.542
64082W        W35808   9.060   6.079  12.858
64083W        W35809  29.177  27.119  12.842
64084W        W35810  20.564  21.527   2.254
64085W        W35811  13.469   3.811   1.321
64086W        W35812  25.658  15.245  11.199
64087W        W35813  20.716  37.370  11.486
64088W        W35814  38.568  40.805  11.182
64089W        W35815  41.796  41.296  12.881
64090W        W35816  17.324  29.072  14.952
64091W        W35817  13.842   9.743   3.357
64092W        W35818   6.167  30.533   4.092
64093W        W35819  31.950  22.916   5.497
64094W        W35820  36.919   4.033   1.377
64095W        W35821  23.803  16.240   3.437
64096W        W35822  34.997  30.865   2.210
64097W        W35823  23.589  25.648   3.030
64098W        W35824  26.595  27.539   3.942
64099W        W35825  29.846  44.916  11.912
64100W        W35826   1.678  27.277  13.538
64101W        W35827  13.428  36.519  14.774
64102W        W35828  12.904  15.026   4.057
64103W        W35829  25.182  18.002   3.226
64104W        W35830  14.450  44.294  11.127
64105W        W35831  23.196  26.557   1.928
64106W        W35832   2.830   3.825   1.831
64107W        W35833  41.292  22.947   2.378
64108W        W35834  23.996   1.747   1.477
64109W        W35835  14.705  39.703  10.230
64110W        W35836   3.800  37.006   3.524
64111W        W35837   7.417  37.375  12.522
64112W        W35838  20.213  14.392   0.393
64113W        W35839  21.659  34.925   0.509
64114W        W35840   4.904   1.220   0.511
64115W        W35841  18.762  37.032  13.577
64116W        W35842  11.503  17.604  10.760
64117W        W35843   0.280  14.013  14.530
64118W        W35844   0.046   2.508  11.589
64119W        W35845  32.699  27.020  14.525
64120W        W35846  18.536  30.618  13.895
64121W        W35847  38.960  10.612   0.823
64122W        W35848  16.108  10.260  14.161
64123W        W35849   9.405  34.314  13.989
64124W        W35850   3.406  30.025  14.952
64125W        W35851  20.500   1.794   1.228
64126W        W35852  31.149   9.125  11.025
64127W        W35853  12.252  31.515   1.726
64128W        W35854  40.900  34.087   0.963
64129W        W35855  27.387  42.811  13.538
64130W        W35856  21.510  20.617  12.042
64131W        W35857  36.430  31.573  12.006
64132W        W35858  40.313  13.943  13.485
64133W        W35859   5.434  37.553   0.259
64134W        W35860  32.157  23.760   9.790
64135W        W35861   2.115  32.136   2.667
64136W        W35862  27.561   7.597  12.402
64137W        W35863   0.049  39.042  12.181
64138W        W35864   2.224   6.975   4.299
64139W        W35865  28.514  30.558   0.019
64140W        W35866   3.783  13.026   1.884
64141W        W35867   4.672   0.836  10.556
64142W        W35868  18.100  37.940  12.472
64143W        W35869  21.589  13.086   3.204
64144W        W35870   2.323  19.870   2.284
64145W        W35871  21.280  10.905   3.528
64146W        W35872  11.543  29.557   2.253
64147W        W35873   5.443  21.790   2.797
64148W        W35874  17.657   0.474  13.492
64149W        W35875  14.308   2.751   1.097
64150W        W35876   0.657  13.146   3.642
64151W        W35877  33.217  22.085  12.089
64152W        W35878  16.145   6.354  10.722
64153W        W35879   5.204  19.151  12.846
64154W        W35880  14.564   5.868   4.674
64155W        W35881  26.964  26.233   3.705
64156W        W35882  12.323  24.659  13.230
64157W        W35883  26.039   3.610   4.248
64158W        W35884  13.394  19.862  13.020
64159W        W35885  24.689  42.497   0.359
64160W        W35886  10.594  38.277   1.263
64161W        W35887   2.261  43.937   0.865
64162W        W35888   9.107  36.548  14.963
64163W        W35889   7.273  28.718   0.487
64164W        W35890  31.963  44.997  11.996
64165W        W35891   6.082  24.519  12.861
64166W        W35892  17.103  11.328   3.425
64167W        W35893  41.969   5.794  13.909
64168W        W35894  34.856  23.090  12.522
64169W        W35895   4.601  23.572   0.776
64170W        W35896  37.007  42.385   2.808
64171W        W35897  10.334  34.552   2.681
64172W        W35898  35.421  25.976   0.967
64173W        W35899   4.448  36.836   1.847
64174W        W35900  17.640   6.504   3.095
64175W        W35901  23.710  23.578  14.828
64176W        W35902   3.106  24.141   3.213
64177W        W35903  10.170  14.594   4.961
64178W        W35904  28.117  39.855   1.928
64179W        W35905  17.212   9.859  12.394
64180W        W35906   8.448  18.120  12.677
64181W        W35907  44.577  13.785   2.375
64182W        W35908  17.697  34.901  14.859
64183W        W35909  33.045  17.068   4.121
64184W        W35910  35.678  13.234   4.144
64185W        W35911  10.318  16.515   0.305
64186W        W35912  20.525  43.377  13.086
64187W        W35913  31.468  24.133   0.479
64188W        W35914   5.619  43.748  11.064
64189W        W35915  23.538  31.420   0.028
64190W        W35916   4.746  15.810   0.830
64191W        W35917  23.012  23.744   2.419
64192W        W35918  42.748  12.816   4.294
64193W        W35919  39.952  31.657   0.423
64194W        W35920   6.869  31.721   2.716
64195W        W35921  15.880   5.636  14.333
64196W        W35922  15.203  43.806  12.465
64197W        W35923  28.428  29.049   4.425
64198W        W35924  36.486  20.244   1.725
64199W        W35925   5.437  44.632  14.400
64200W        W35926  11.296  31.055   2.438
64201W        W35927  18.168  14.911  13.428
64202W        W35928  12.351  42.898  11.388
64203W        W35929   5.160  13.301   9.749
64204W        W35930  17.755  31.361  11.693
64205W        W35931  20.191  11.126   1.951
64206W        W35932  11.191  17.184  10.784
64207W        W35933   7.445  31.549   1.830
64208W        W35934  39.056  14.539  13.861
64209W        W35935  30.579  30.463   1.543
64210W        W35936  11.284  35.504  13.560
64211W        W35937  24.484  10.423  11.766
64212W        W35938   0.749  17.122   4.561
64213W        W35939  14.320  14.781   1.682
64214W        W35940  31.067  34.576   3.317
64215W        W35941  15.539  25.460  13.450
64216W        W35942  40.605  20.333   4.203
64217W        W35943  35.865   9.263   1.803
64218W        W35944  38.400  35.846  11.377
64219W        W35945  33.392  33.916   3.156
64220W        W35946   4.934  12.869   4.606
64221W        W35947  21.989  29.718  11.261
64222W        W35948  41.493  39.482  10.991
64223W        W35949  42.033  20.498   2.079
64224W        W35950  22.282  24.656  11.541
64225W        W35951  38.486  16.265   1.355
64226W        W35952  24.665  15.887   0.417
64227W        W35953   5.225  26.216  10.604
64228W        W35954   1.813  43.225  14.393
64229W        W35955  18.680  33.386  14.798
64230W        W35956  10.717  14.170  14.802
64231W        W35957  44.705  28.878  12.995
64232W        W35958  32.036  21.926   2.644
64233W        W35959  43.433   3.394   2.386
64234W        W35960   1.253  38.829  11.959
64235W        W35961  10.179  19.661  14.348
64236W        W35962  21.636  28.669   0.086
64237W        W35963  35.491  26.615  12.795
64238W        W35964  33.478  32.035  12.452
64239W        W35965  34.456  26.509  14.379
64240W        W35966  10.926  23.019  12.080
64241W        W35967  27.846   9.398   4.258
64242W        W35968  17.603   9.358   1.277
64243W        W35969  13.796   6.257   2.148
64244W        W35970  12.728  40.567   0.384
64245W        W35971  28.019  34.799   1.850
64246W        W35972  43.347  12.590  10.765
64247W        W35973  42.452  27.669   0.003
64248W        W35974  40.999  13.962  12.978
64249W        W35975   7.932  22.194   2.808
64250W        W35976  17.404   3.822   2.425
64251W        W35977  12.748  20.704   3.639
64252W        W35978  34.767  36.143  10.393
64253W        W35979  10.192  32.883   3.155
64254W        W35980  39.244   1.719  13.923
64255W        W35981  16.842   7.018   4.481
64256W        W35982  30.123  16.031  12.908
64257W        W35983  26.724  43.138  10.696
64258W        W35984  41.446  14.180   2.249
64259W        W35985  43.432  13.779   0.454
64260W        W35986  17.856  30.366  11.959
64261W        W35987  29.952  31.603   1.031
64262W        W35988  11.742  19.660   9.915
64263W        W35989   3.489  40.138  11.168
64264W        W35990  35.881   9.573   4.201
64265W        W35991  13.478  40.883  10.716
64266W        W35992  17.635   2.331   3.166
64267W        W35993  42.026  27.555   1.351
64268W        W35994   0.027  29.685   1.973
64269W        W35995  41.752  14.117  11.010
64270W        W35996  30.962  40.568   0.411
64271W        W35997  35.853  10.776   3.377
64272W        W35998  24.524  31.898  12.526
64273W        W35999  23.970  32.565   3.152
64274W        W36000  42.467   0.322  14.377
64275W        W36001  24.235  27.228  13.878
64276W        W36002  20.684  19.453  14.975
64277W        W36003  15.841  26.435  14.280
64278W        W36004   1.772  21.310   1.873
64279W        W36005  13.202   6.182  12.436
64280W        W36006   1.265  39.975   4.217
64281W        W36007  21.703  15.919  14.423
64282W        W36008  37.175   7.564  11.540
64283W        W36009  26.017  38.599   0.414
64284W        W36010   5.073   2.555   4.409
64285W        W36011  20.603  34.697   4.801
64286W        W36012  39.410  15.107   2.405
64287W        W36013   5.499  30.523   1.799
64288W        W36014  15.764  39.778   3.679
64289W        W36015  36.911  27.179   2.819
64290W        W36016  27.101  38.541  13.561
64291W        W36017  41.928  41.264  11.989
64292W        W36018  41.364  35.589   4.820
64293W        W36019  27.691  28.494  14.086
64294W        W36020   8.197  29.969  13.839
64295W        W36021   9.082   5.263  11.625
64296W        W36022   7.968  31.981  14.444
64297W        W36023  44.269  42.864  10.907
64298W        W36024  35.959  39.394   1.528
64299W        W36025  36.574  38.439   3.168
64300W        W36026   1.886  10.288  13.041
64301W        W36027  10.777  26.162   2.749
64302W        W36028  39.494  11.658  11.896
64303W        W36029  42.956  25.928  13.433
64304W        W36030  40.480  30.834   1.212
64305W        W36031  12.474  41.240   3.182
64306W        W36032  13.356  38.687   5.095
64307W        W36033  12.828   4.184   4.301
64308W        W36034   3.657  11.848   9.900
64309W        W36035  13.874  10.205  13.281
64310W        W36036  12.791   8.816  10.632
64311W        W36037  31.732  44.549  11.956
64312W        W36038   1.537  34.471   3.418
64313W        W36039  29.879  44.776   2.123
64314W        W36040  28.022  36.154  11.156
64315W        W36041   1.948   1.402  14.962
64316W        W36042  27.225  12.920  13.476
64317W        W36043  43.588  15.589  13.401
64318W        W36044  31.560   0.374   1.937
64319W        W36045  27.949   8.925   3.279
64320W        W36046  11.063  27.418   1.463
64321W        W36047  44.263  18.985  13.298
64322W        W36048  28.207  13.592  11.051
64323W        W36049  43.458  36.790  14.738
64324W        W36050  12.352  27.026  11.561
64325W        W36051  16.707  39.737   1.852
64326W        W36052  26.593  10.406  14.479
64327W        W36053  20.469  24.492  11.972
64328W        W36054  32.990  15.130   2.554
64329W        W36055  43.277   1.822  10.781
64330W        W36056  13.261  36.833  10.940
64331W        W36057  38.481  27.028  13.314
64332W        W36058  10.583  39.766   3.233
64333W        W36059  24.076  15.027  10.050
64334W        W36060   1.846   8.541  11.944
64335W        W36061  24.678   2.293   4.268
64336W        W36062   7.824  43.526  13.850
64337W        W36063  18.590  24.072   0.019
64338W        W36064  40.865   8.625  14.746
64339W        W36065  43.990  13.092   2.670
64340W        W36066  17.901   0.779  11.523
64341W        W36067  13.419  29.099  14.931
64342W        W36068  18.817  34.846   2.394
64343W        W36069   4.985   7.214  11.068
64344W        W36070  11.346  39.707  10.609
64345W        W36071  44.249  38.337   2.286
64346W        W36072  14.339   3.171   0.743
64347W        W36073   2.643  12.294  13.554
64348W        W36074   9.720  11.835  12.566
64349W        W36075   5.689  11.833   0.942
64350W        W36076   2.578   0.737   3.516
64351W        W36077   4.701  15.000  13.196
64352W        W36078  38.083   7.169   3.055
64353W        W36079  42.065  34.896   0.657
64354W        W36080  20.689  42.076  11.060
64355W        W36081  15.223  38.285  12.454
64356W        W36082   1.997  14.227   3.409
64357W        W36083  21.651   2.254  12.536
64358W        W36084  12.265   3.754   0.737
64359W        W36085   9.077  35.091  11.165
64360W        W36086  34.166  18.688   1.368
64361W        W36087  13.180  26.560  14.885
64362W        W36088  14.084  34.111  13.591
64363W        W36089  38.981  19.135   5.109
64364W        W36090  10.357   5.085   3.707
64365W        W36091   7.453   8.336   2.752
64366W        W36092  11.298  30.092  13.494
64367W        W36093  25.723   7.202   3.267
64368W        W36094  13.200  13.833  11.705
64369W        W36095   7.074   7.931  11.045
64370W        W36096  42.740   8.113  11.422
64371W        W36097  33.085  20.249  12.613
64372W        W36098  30.215   6.241   2.712
64373W        W36099  12.879  37.008   4.841
64374W        W36100  44.299   6.771   1.646
64375W        W36101  12.552  41.007  14.286
64376W        W36102  22.545  16.787  12.848
64377W        W36103  21.722  38.319   2.674
64378W        W36104  42.574  38.621   0.192
64379W        W36105  42.916  28.753   1.072
64380W        W36106  21.479  12.748  13.796
64381W        W36107  39.486   7.098  11.729
64382W        W36108  29.929  38.376   3.872
64383W        W36109  26.171  32.270  14.957
64384W        W36110   5.297  39.831  11.519
64385W        W36111  36.793  16.138  14.322
64386W        W36112  43.696  23.003   0.020
64387W        W36113  10.427  31.858  13.955
64388W        W36114  19.264   8.232  11.464
64389W        W36115  33.086  40.477   1.938
64390W        W36116   2.321  44.807   2.500
64391W        W36117   7.803  18.608   2.424
64392W        W36118  16.841  31.131  12.946
64393W        W36119  22.634   5.301   3.555
64394W        W36120  24.100   4.020   2.715
64395W        W36121  30.879  27.150  10.994
64396W        W36122  28.476   7.173   2.059
64397W        W36123  17.740  35.408  14.955
64398W        W36124  42.870  13.232   3.527
64399W        W36125  27.476   0.745   1.349
64400W        W36126  22.447  23.607   3.763
64401W        W36127  12.791   7.146  13.983
64402W        W36128  38.826  17.234   4.892
64403W        W36129  20.741  42.473   1.855
64404W        W36130  35.559   2.833  10.975
64405W        W36131  23.999  17.702  11.697
64406W        W36132  37.360  37.478   4.748
64407W        W36133  18.699   5.358   0.376
64408W        W36134  38.385  20.835  10.623
64409W        W36135   8.086  10.923  14.505
64410W        W36136  21.052  26.243  12.002
64411W        W36137  28.560  29.334   2.185
64412W        W36138  12.128  39.027   2.873
64413W        W36139   2.269   8.288  12.071
64414W        W36140  34.363   7.309   4.751
64415W        W36141  33.908  12.361   1.153
64416W        W36142  13.618  21.902   0.856
64417W        W36143  43.541  17.735   2.804
64418W        W36144   1.935  22.746  11.226
64419W        W36145   8.796  30.201   4.278
64420W        W36146  41.928  29.588   1.033
64421W        W36147  29.628  10.721   4.199
64422W        W36148  16.682  22.678   1.886
64423W        W36149  36.565  14.393  12.978
64424W        W36150  37.968  42.050  11.938
64425W        W36151   2.787  23.209   4.127
64426W        W36152  14.680  31.450   4.267
64427W        W36153  15.020  18.772   2.667
64428W        W36154  25.117  25.436  13.936
64429W        W36155  42.577  23.715  11.082
64430W        W36156   2.277  38.629   1.702
64431W        W36157  13.461  40.266   1.425
64432W        W36158  18.075   7.330   1.738
64433W        W36159   2.354   8.114   3.352
64434W        W36160  24.982  12.382  10.387
64435W        W36161  28.021  21.026   5.077
64436W        W36162  31.027  22.947   4.895
64437W        W36163  28.671  32.855  11.243
64438W        W36164  21.301  22.065   2.249
64439W        W36165  22.657  39.333   2.453
64440W        W36166  23.742   5.231   0.747
64441W        W36167  27.857  33.509   2.710
64442W        W36168   5.867  43.330  11.311
64443W        W36169  14.511   1.835   3.655
64444W        W36170  11.218  43.327   1.941
64445W        W36171  31.877   3.020  11.409
64446W        W36172  32.661   1.828  12.974
64447W        W36173  20.490  23.995   2.431
64448W        W36174   1.996  19.074   1.228
64449W        W36175  13.179   2.785  12.505
64450W        W36176  22.154  15.120  13.613
64451W        W36177  23.090   3.947   2.263
64452W        W36178   2.340  12.996   2.318
64453W        W36179   0.425   5.455   0.704
64454W        W36180  15.510  40.852   9.773
64455W        W36181  38.119  37.293  13.133
64456W        W36182  18.738  15.557   2.244
64457W        W36183  23.277  11.198  12.465
64458W        W36184   8.829  44.075  13.834
64459W        W36185  41.431  40.874  13.536
64460W        W36186  29.613  16.671   2.723
64461W        W36187   4.345  12.107  14.429
64462W        W36188  11.644  33.710   3.647
64463W        W36189  21.688  36.752   0.794
64464W        W36190  12.114   9.769   2.823
64465W        W36191  10.431   3.179  14.589
64466W        W36192  34.864  12.109   1.277
64467W        W36193   4.589  38.797   3.999
64468W        W36194  35.288  36.915   2.357
64469W        W36195  30.460  11.385  14.109
64470W        W36196  38.441  11.667  11.750
64471W        W36197  22.185   2.502   2.968
64472W        W36198  16.854  13.569  11.188
64473W        W36199  44.852  22.792  14.742
64474W        W36200  21.130  20.991  11.086
64475W        W36201  44.207   8.622   1.884
64476W        W36202  40.377  13.434  13.479
64477W        W36203  21.580  16.089  11.918
64478W        W36204  30.279  11.122  11.438
64479W        W36205   7.959  19.212  11.668
64480W        W36206   0.219  20.514   1.361
64481W        W36207  26.721  23.230  14.531
64482W        W36208  13.350  30.559   3.252
64483W        W36209  26.024  33.931   1.014
64484W        W36210  38.794  37.823   0.412
64485W        W36211   4.236  34.687   4.796
64486W        W36212  32.241  12.307  12.816
64487W        W36213  19.629  44.924  12.105
64488W        W36214  28.391  25.417   4.644
64489W        W36215  43.006  32.450  12.502
64490W        W36216  30.384   0.736   4.234
64491W        W36217   9.683  36.064  12.423
64492W        W36218  21.308  17.171  12.851
64493W        W36219  38.959  38.819   1.426
64494W        W36220   1.777   7.321   1.837
64495W        W36221   4.804  12.254  12.558
64496W        W36222  33.965  27.053  10.702
64497W        W36223   7.571  20.732  10.621
64498W        W36224   4.348  41.459   1.903
64499W        W36225  16.449  40.945   4.546
64500W        W36226  29.608  16.502  13.535
64501W        W36227  16.121   5.900   3.691
64502W        W36228  30.082  15.349  12.109
64503W        W36229   5.661   7.831   3.705
64504W        W36230  35.973  38.016  13.024
64505W        W36231  42.034  35.776   2.334
64506W        W36232   0.864  40.142  12.019
64507W        W36233  33.615  10.508  13.881
64508W        W36234   7.739   4.246  11.332
64509W        W36235  21.253  14.284   1.712
64510W        W36236  33.373   3.364  10.726
64511W        W36237  21.199  14.360   3.620
64512W        W36238  31.356  36.382  10.998
64513W        W36239   9.488  42.220   3.317
64514W        W36240  38.841  29.363   0.869
64515W        W36241  21.656  33.423   4.384
64516W        W36242  11.237  35.166   5.107
64517W        W36243  38.042  31.226  14.035
64518W        W36244  23.988   5.287   4.349
64519W        W36245  21.097  42.400   1.008
64520W        W36246  33.608  10.388   3.378
64521W        W36247   5.933  34.145  12.879
64522W        W36248  10.618  30.957  14.327
64523W        W36249  34.778  23.534  12.782
64524W        W36250  37.547  10.855   2.777
64525W        W36251  35.772  10.347   3.717
64526W        W36252  13.552  11.360   0.418
64527W        W36253   8.207  17.167  12.654
64528W        W36254  33.290  37.343  12.743
64529W        W36255  24.223  35.572   1.888
64530W        W36256   7.443   4.013   5.165
64531W        W36257  25.071  26.106   2.182
64532W        W36258  40.013  27.623   1.193
64533W        W36259  13.254  41.353   4.599
64534W        W36260  17.887  23.356  12.111
64535W        W36261  12.794  44.016   3.479
64536W        W36262  17.051  36.358   2.680
64537W        W36263  34.403   0.004   0.286
64538W        W36264  32.867   3.360   4.451
64539W        W36265  20.658  16.995  10.724
64540W        W36266   5.797  30.629  11.051
64541W        W36267  21.112  27.368   2.343
64542W        W36268  17.099  26.146  11.582
64543W        W36269  32.883  21.708  13.892
64544W        W36270  20.929  18.683  13.500
64545W        W36271  10.084  41.515   2.689
64546W        W36272  11.641  38.955   4.651
64547W        W36273  20.272  11.062   2.514
64548W        W36274   5.505   7.901   2.798
64549W        W36275  42.265  32.025   3.249
64550W        W36276  10.647  21.848   4.853
64551W        W36277  34.902  34.850   0.380
64552W        W36278  34.852  18.814  13.367
64553W        W36279  18.156  38.953   5.085
64554W        W36280  27.357  36.847   3.680
64555W        W36281   4.725  23.283   4.313
64556W        W36282  22.607  44.092   2.370
64557W        W36283  19.794  29.496   2.397
64558W        W36284  16.614  44.777   2.284
64559W        W36285  40.823  40.081   4.530
64560W        W36286  28.524  33.102   1.280
64561W        W36287  41.679  12.944   4.042
64562W        W36288  36.460  23.648   3.299
64563W        W36289  33.469  25.596  14.328
64564W        W36290  44.435  15.683  13.973
64565W        W36291   2.487  17.285  14.042
64566W        W36292   0.450  31.380   4.662
64567W        W36293  28.589  29.503   2.687
64568W        W36294  18.265  10.641  11.150
64569W        W36295  16.997  29.046   3.708
64570W        W36296  23.041  13.714   1.151
64571W        W36297   4.405  32.447  11.620
64572W        W36298  39.810   5.764  13.414
64573W        W36299  33.573  36.405  12.955
64574W        W36300  39.638   4.926   4.228
64575W        W36301   1.979  16.866  13.247
64576W        W36302  24.905  26.038   3.739
64577W        W36303   0.903  21.767  14.966
64578W        W36304  26.974  13.828  13.421
64579W        W36305  30.595  42.932   1.802
64580W        W36306   8.847  39.710  11.519
64581W        W36307  23.527   4.743   3.157
64582W        W36308   2.460  40.380  11.164
64583W        W36309  17.769  26.119  11.845
64584W        W36310   8.440   1.344  13.864
64585W        W36311  43.939  20.119   0.441
64586W        W36312   3.540  19.605  13.838
64587W        W36313  37.817   3.478  13.777
64588W        W36314  21.301  38.643  13.166
64589W        W36315   0.860  11.149  12.068
64590W        W36316  15.566  29.418   0.364
64591W        W36317  10.996  14.723   3.084
64592W        W36318  21.731   8.057   4.665
64593W        W36319  29.069   9.858  14.761
64594W        W36320  27.153  40.969  13.791
64595W        W36321   7.384  43.910  13.918
64596W        W36322   5.397  36.104   4.772
64597W        W36323  23.419   1.691  12.831
64598W        W36324  28.173  31.657  12.971
64599W        W36325  25.010  35.965   3.413
64600W        W36326  32.574  17.649  10.846
64601W        W36327  40.117  32.593   3.036
64602W        W36328   3.780  25.786   2.333
64603W        W36329  30.543  42.843  12.366
64604W        W36330   8.110   9.349   2.371
64605W        W36331  15.816  13.791   4.027
64606W        W36332  14.500  41.954  10.787
64607W        W36333  37.499  27.413  12.992
64608W        W36334  35.369  12.155  12.687
64609W        W36335   4.293  42.988   4.261
64610W        W36336  37.524  18.843  13.894
64611W        W36337  43.595  37.474  10.715
64612W        W36338  37.814  26.630   0.842
64613W        W36339  42.402  32.857   2.856
64614W        W36340  12.903  36.423  14.733
64615W        W36341   2.395  19.395  14.585
64616W        W36342  37.525   7.590  14.830
64617W        W36343   0.852  14.319   2.356
64618W        W36344   6.252  10.637  14.048
64619W        W36345  37.491  22.459   4.626
64620W        W36346   0.538  17.885  14.522
64621W        W36347   8.512  16.544   3.194
64622W        W36348  17.601  28.658   0.225
64623W        W36349  38.480  31.979   0.484
64624W        W36350  18.537   6.216  13.417
64625W        W36351  11.749  32.627  14.230
64626W        W36352  36.541  27.416   1.770
64627W        W36353  27.126  10.772   2.704
64628W        W36354   2.632   2.871  13.367
64629W        W36355  13.593   8.266   2.771
64630W        W36356  26.832  28.176  11.928
64631W        W36357  37.543   2.882  12.595
64632W        W36358  42.676  28.212  14.020
64633W        W36359  39.564  43.274  11.919
64634W        W36360  26.577  20.688   3.928
64635W        W36361  41.028  19.877  11.700
64636W        W36362  20.805   1.166   4.178
64637W        W36363  12.843  42.322  11.420
64638W        W36364  43.565  17.035   2.283
64639W        W36365  27.510  29.490  14.760
64640W        W36366  19.300  24.891   4.711
64641W        W36367  16.599   4.394  14.840
64642W        W36368  28.165  22.127  12.056
64643W        W36369  19.647  17.848  11.175
64644W        W36370  14.867   7.087   0.323
64645W        W36371  22.091  35.053   3.928
64646W        W36372  33.625  22.992   0.050
64647W        W36373  38.634   9.281  11.544
64648W        W36374   1.854  43.492  13.417
64649W        W36375  13.201  14.686  13.106
64650W        W36376  21.023  17.420   4.084
64651W        W36377  27.665  20.343  13.936
64652W        W36378  32.558  44.235  13.131
64653W        W36379  40.256  33.981   0.129
64654W        W36380   6.076  27.774   3.640
64655W        W36381  31.068  15.478  13.536
64656W        W36382  22.064  18.268  11.123
64657W        W36383  41.504   0.255   0.812
64658W        W36384  21.794  44.510   1.312
64659W        W36385   6.392  37.180   3.227
64660W        W36386  39.415   1.174   4.856
64661W        W36387  25.658  24.034  13.116
64662W        W36388  13.029  32.305   4.612
64663W        W36389  38.618   6.257  13.681
64664W        W36390  13.414  24.066   0.286
64665W        W36391   7.748  10.260   3.094
64666W        W36392  13.345  16.888   2.330
64667W        W36393  39.813  18.487  11.070
64668W        W36394  28.849  44.770  12.080
64669W        W36395  33.129  22.749   1.250
64670W        W36396  33.108  43.948   2.213
64671W        W36397  33.644   9.853  11.053
64672W        W36398   4.320   7.911  13.812
64673W        W36399   6.319  31.299  12.631
64674W        W36400  12.133  10.410   0.812
64675W        W36401  22.329  30.395  13.002
64676W        W36402  12.532  43.026   1.774
64677W        W36403  30.897   7.313  14.423
64678W        W36404   5.966  35.509   3.849
64679W        W36405  36.840  32.724  14.037
64680W        W36406   0.426  37.352   1.187
64681W        W36407   8.735  43.894   1.298
64682W        W36408  14.201  12.890  10.549
64683W        W36409  43.869  37.571  12.068
64684W        W36410   9.622  36.358   3.689
64685W        W36411  19.206   2.696  13.996
64686W        W36412   0.732  35.522   3.866
64687W        W36413  40.794   0.695   3.174
64688W        W36414  26.925  36.558   0.862
64689W        W36415  42.241  24.710  12.083
64690W        W36416  38.034  28.237   1.759
64691W        W36417  30.226  13.619   4.309
64692W        W36418  36.183   7.460   0.782
64693W        W36419  32.131   4.309  10.851
64694W        W36420  19.111  44.459   4.574
64695W        W36421   6.408  22.314   3.618
64696W        W36422  33.380  24.459   0.362
64697W        W36423  42.943  43.830   4.633
64698W        W36424  37.757   7.210  12.524
64699W        W36425   3.788   4.903   4.069
64700W        W36426   9.970  44.149  11.157
64701W        W36427  40.340  44.698   1.406
64702W        W36428  36.849   1.521   1.073
64703W        W36429  27.982   9.861   4.489
64704W        W36430  17.989   0.890  12.340
64705W        W36431  10.473   6.153   2.338
64706W        W36432  21.108  37.736   2.051
64707W        W36433  27.256  17.206  12.848
64708W        W36434  36.122   1.954   2.830
64709W        W36435  13.799  40.117  12.162
64710W        W36436  24.132  12.486  14.847
64711W        W36437  20.680  35.585   4.479
64712W        W36438  17.965  11.424  12.094
64713W        W36439  37.934  33.007  13.052
64714W        W36440  11.198  44.837  14.697
64715W        W36441  17.282  44.820   1.884
64716W        W36442   6.059  29.113  14.749
64717W        W36443   6.885  35.604  11.034
64718W        W36444  36.549   1.645   2.858
64719W        W36445  24.579  43.306  13.307
64720W        W36446  22.891   6.352   0.676
64721W        W36447  26.683  14.201  12.018
64722W        W36448   3.803   6.419   3.278
64723W        W36449  37.479  20.729  13.807
64724W        W36450   6.304  15.280  14.842
64725W        W36451  11.120  36.637  12.690
64726W        W36452  21.273  31.386  14.025
64727W        W36453  15.303  41.139  14.398
64728W        W36454   5.787   8.312   0.827
64729W        W36455  19.677  35.283   0.209
64730W        W36456  16.310   6.178  14.877
64731W        W36457  45.000   3.225  14.825
64732W        W36458  18.335  16.886  14.461
64733W        W36459  13.564  15.560   5.103
64734W        W36460  24.198  40.104   4.662
64735W        W36461  14.094  19.561   4.516
64736W        W36462  20.633  15.087   0.905
64737W        W36463   2.724   6.936  13.390
64738W        W36464  12.746   8.724   2.908
64739W        W36465   4.835  11.158   2.787
64740W        W36466  26.447   8.819  10.933
64741W        W36467  25.681   7.182   4.177
64742W        W36468  28.648  29.040  11.085
64743W        W36469   0.982  40.258   4.572
64744W        W36470  31.756   2.325  11.886
64745W        W36471   3.378  18.023  14.878
64746W        W36472  39.331  23.745  12.070
64747W        W36473  36.566  33.074  12.867
64748W        W36474  32.456  20.762   0.591
64749W        W36475  31.350  29.017  12.000
64750W        W36476  13.778  17.060  11.601
64751W        W36477  28.500  15.601  12.554
64752W        W36478  21.768  10.847   3.238
64753W        W36479  11.348  33.219   0.356
64754W        W36480  39.031   7.122   1.289
64755W        W36481   5.109  18.220   2.305
64756W        W36482  15.612  13.003  12.328
64757W        W36483   1.169  21.110  14.226
64758W        W36484  34.918  28.641  14.662
64759W        W36485  28.616  34.661   3.146
64760W        W36486   6.244  43.701   0.879
64761W        W36487  31.510  36.086   1.009
64762W        W36488  13.724  25.705  11.741
64763W        W36489  22.003  17.965  14.837
64764W        W36490  18.464  22.858   0.519
64765W        W36491  23.719   9.847  14.816
64766W        W36492  30.510  25.815   1.905
64767W        W36493  11.692  12.395  14.938
64768W        W36494  10.502  16.784  11.533
64769W        W36495  31.627   2.835  13.995
64770W        W36496  39.591  30.441   0.186
64771W        W36497  27.124  40.323  10.249
64772W        W36498  30.960   4.725  10.672
64773W        W36499  10.240  44.764   3.883
64774W        W36500  17.014  17.516   1.654
64775W        W36501  11.908   2.439   0.909
64776W        W36502   3.424  29.562   0.230
64777W        W36503  33.407  27.474   2.222
64778W        W36504  27.923  36.366   0.421
64779W        W36505  34.354  39.531  12.542
64780W        W36506  33.966  44.720  10.992
64781W        W36507  42.932  31.911  13.866
64782W        W36508  14.339  44.294  10.601
64783W        W36509  42.460   7.464  11.912
64784W        W36510   1.809   2.094   0.799
64785W        W36511   9.978  36.511   4.947
64786W        W36512  31.374  40.315  14.502
64787W        W36513  23.110  36.072  13.361
64788W        W36514   8.304  40.490   0.190
64789W        W36515  21.675  34.444   2.229
64790W        W36516  44.964  35.353   0.897
64791W        W36517  21.480  20.308   2.716
64792W        W36518  21.909  35.064   1.352
64793W        W36519  39.593  12.342  13.887
64794W        W36520  26.220  37.838   3.817
64795W        W36521   4.877  21.410   0.468
64796W        W36522  42.896  23.164  14.609
64797W        W36523   4.261  11.674  11.402
64798W        W36524   2.190  44.895   0.901
64799W        W36525  19.512  36.326  14.640
64800W        W36526  27.505  14.669  11.147
64801W        W36527   3.149  28.553  11.990
64802W        W36528  41.469  23.086   0.765
64803W        W36529   9.248   1.195   2.270
64804W        W36530  27.897  34.024   3.436
64805W        W36531  23.387   9.509   2.708
64806W        W36532  25.788   9.234   1.228
64807W        W36533  28.233  20.241  10.747
64808W        W36534  21.017   9.182  13.157
64809W        W36535  41.545  10.419  12.264
64810W        W36536  27.470   2.849   1.341
64811W        W36537  43.409   3.919  14.568
64812W        W36538  12.240  22.235   2.509
64813W        W36539  19.289  30.582  13.486
64814W        W36540  20.742  28.317   0.056
64815W        W36541  29.724  20.199   4.099
64816W        W36542  19.052  10.983   2.323
64817W        W36543  44.281  24.544   4.093
64818W        W36544  23.753  13.287  13.995
64819W        W36545  29.467  16.210  11.686
64820W        W36546  37.508  40.757  11.616
64821W        W36547  40.062  14.149   1.805
64822W        W36548  26.497  22.150   3.086
64823W        W36549  14.542  43.459  14.380
64824W        W36550  39.096   7.902   4.637
64825W        W36551  25.105  31.521  12.183
64826W        W36552  28.128  29.459  13.041
64827W        W36553  20.865   9.812   2.414
64828W        W36554  26.511   9.961   3.067
64829W        W36555   2.007  12.618  14.317
64830W        W36556  31.067  38.596  14.505
64831W        W36557  33.792  29.449  13.423
64832W        W36558  23.822  41.993   1.658
64833W        W36559  11.095  37.423   3.091
64834W        W36560  28.949  13.193  11.591
64835W        W36561   9.106  12.338   0.849
64836W        W36562   2.798  43.831   1.805
64837W        W36563  43.552  10.313  14.853
64838W        W36564  40.914  33.199  11.085
64839W        W36565  30.436  11.700   0.499
64840W        W36566  19.824  43.102   0.261
64841W        W36567  38.375  31.570   2.227
64842W        W36568  38.067  36.299   1.809
64843W        W36569  44.978  44.185   2.780
64844W        W36570  11.195  21.594  14.040
64845W        W36571   5.035  37.400   1.058
64846W        W36572   4.664  41.368   2.320
64847W        W36573  38.939  31.533   9.603
64848W        W36574  17.734  24.497  14.955
64849W        W36575  44.881  17.751   3.615
64850W        W36576  35.803  12.338  10.614
64851W        W36577  38.156  31.173   1.278
64852W        W36578   1.326  32.848  14.904
64853W        W36579  29.117  13.884   3.827
64854W        W36580  44.804  20.188   1.300
64855W        W36581  32.499  32.992   1.397
64856W        W36582  32.990  29.371   2.755
64857W        W36583   8.062  15.129  11.298
64858W        W36584  30.993  12.320  11.725
64859W        W36585  21.109  11.713   1.411
64860W        W36586  39.323  14.935  12.593
64861W        W36587  40.044  11.398   3.800
64862W        W36588  28.500  44.286   2.718
64863W        W36589  35.466  40.322   3.246
64864W        W36590  11.317  34.134   5.101
64865W        W36591  10.795  38.925   0.573
64866W        W36592   0.902  38.111   0.370
64867W        W36593  34.002   3.309  14.378
64868W        W36594   0.801  42.477   1.069
64869W        W36595   7.141   7.712   1.915
64870W        W36596  32.140  35.466  12.455
64871W        W36597  10.063  44.271   4.651
64872W        W36598  20.585   6.349   0.476
64873W        W36599  25.513   2.790   4.267
64874W        W36600  31.604  33.373   2.339
64875W        W36601  41.330   9.487   3.308
64876W        W36602  25.081  43.274  14.400
64877W        W36603  27.587  39.661  14.966
64878W        W36604   4.636  14.271  14.973
64879W        W36605  32.576   6.972   2.245
64880W        W36606  25.741  23.608  10.940
64881W        W36607  18.156  33.832   2.907
64882W        W36608  26.976  24.039   0.716
64883W        W36609  42.914   8.296   4.570
64884W        W36610  15.564  20.818   1.752
64885W        W36611  41.044  21.722  12.960
64886W        W36612  29.683   0.308  10.303
64887W        W36613  15.107  36.097   4.688
64888W        W36614  32.684  24.615  11.932
64889W        W36615  22.102   0.510  12.529
64890W        W36616   4.533   1.859  12.936
64891W        W36617   8.139  12.637  11.930
64892W        W36618  28.100   9.394  12.616
64893W        W36619  30.670   0.072   3.196
64894W        W36620   3.280  29.807   3.548
64895W        W36621  40.017  12.236   2.639
64896W        W36622  13.167  39.215  11.560
64897W        W36623  38.843  32.203  11.659
64898W        W36624   2.964  35.922  14.210
64899W        W36625  28.189   1.023   2.418
64900W        W36626  35.992  40.228  13.899
64901W        W36627  13.165  37.253   0.322
64902W        W36628  36.849  32.827   0.903
64903W        W36629  28.084   0.946   4.780
64904W        W36630  30.435   9.877   4.575
64905W        W36631   6.178  16.775  14.788
64906W        W36632  36.595  13.257  13.464
64907W        W36633  43.273  34.416   0.897
64908W        W36634   8.903  18.134   2.257
64909W        W36635  43.362  40.404  11.945
64910W        W36636   4.362  31.998  10.551
64911W        W36637  38.935   6.913   4.293
64912W        W36638  35.548  14.226   4.380
64913W        W36639  36.448   2.392   2.502
64914W        W36640  42.086  41.682   4.847
64915W        W36641  43.657  11.745   3.952
64916W        W36642  42.974  23.559  12.922
64917W        W36643  26.977  26.429   4.417
64918W        W36644  13.857   7.611  11.671
64919W        W36645  22.737   7.444   5.076
64920W        W36646  30.256   9.043  11.045
64921W        W36647   6.140   8.782   2.720
64922W        W36648  20.152  44.254  10.754
64923W        W36649  10.789  20.533   4.653
64924W        W36650  26.967   9.676  13.471
64925W        W36651   5.347  16.617   0.405
64926W        W36652  10.879  40.995  13.985
64927W        W36653  26.153  34.581  11.207
64928W        W36654   4.689  22.681   4.178
64929W        W36655  29.113  25.141  13.429
64930W        W36656  31.802  35.552  14.745
64931W        W36657  43.276  32.366   4.760
64932W        W36658  13.315  11.814  12.784
64933W        W36659  24.173  28.146   2.985
64934W        W36660   6.811   1.773   0.323
64935W        W36661  26.646  37.361   1.861
64936W        W36662  34.410  17.715   0.786
64937W        W36663  33.965  10.131   2.601
64938W        W36664  16.474   9.298   3.454
64939W        W36665   2.876   1.475   1.256
64940W        W36666  44.415   2.452  12.125
64941W        W36667  31.067  44.943   0.752
64942W        W36668  37.116  10.373  12.056
64943W        W36669   1.250  43.015   0.789
64944W        W36670   9.275   5.759   4.119
64945W        W36671  21.819  43.540  13.284
64946W        W36672  17.165   6.980  12.337
64947W        W36673  24.967  17.417   5.057
64948W        W36674  22.224  36.651  13.417
64949W        W36675  26.471   7.289  13.905
64950W        W36676  38.175  23.126  10.709
64951W        W36677  30.552  44.462  10.198
64952W        W36678  18.996   3.354  12.837
64953W        W36679   7.729   4.719  13.546
64954W        W36680   6.201  17.336   0.699
64955W        W36681  14.074  35.332  12.357
64956W        W36682  35.577  30.624  10.457
64957W        W36683  20.022  25.636  10.718
64958W        W36684  21.153  17.091   3.167
64959W        W36685  29.951  14.655   3.463
64960W        W36686   0.985  17.572  13.806
64961W        W36687  30.895  32.899  10.623
64962W        W36688  12.207   9.163  13.000
64963W        W36689  39.347  31.871   0.716
64964W        W36690  32.921  20.914  12.007
64965W        W36691  11.289  35.686  12.282
64966W        W36692  21.429  16.697   2.316
64967W        W36693  26.017  28.961   2.227
64968W        W36694  19.100   5.372   0.705
64969W        W36695  39.368  10.226   2.679
64970W        W36696  33.922   2.166  12.715
64971W        W36697   4.791  41.474  13.814
64972W        W36698  40.839   2.023  11.588
64973W        W36699   2.520  28.681   3.511
64974W        W36700  33.530   1.739  14.283
64975W        W36701  21.279  13.420  10.737
64976W        W36702  39.412  43.974  13.474
64977W        W36703   7.434  38.378   2.781
64978W        W36704   9.448  33.446  11.655
64979W        W36705  25.722  30.555  10.704
64980W        W36706  42.966  30.120   2.728
64981W        W36707   6.725  23.277  12.049
64982W        W36708  30.473  40.848   4.496
64983W        W36709  33.359  38.347  13.064
64984W        W36710  12.870  14.169  13.112
64985W        W36711   2.157  26.730   5.088
64986W        W36712  22.948  21.492  13.366
64987W        W36713  22.594  28.043   1.244
64988W        W36714  24.996  43.615  14.785
64989W        W36715  14.765  10.281  13.854
64990W        W36716  31.769  12.491  13.428
64991W        W36717  41.646  30.691   3.856
64992W        W36718  24.553   1.662  14.988
64993W        W36719   7.252  30.866  10.991
64994W        W36720  23.069   2.189   2.270
64995W        W36721  39.922   7.431  10.609
64996W        W36722  41.757  21.257  11.715
64997W        W36723  43.774   4.844   0.907
64998W        W36724   3.341  21.265   2.689
64999W        W36725  43.811  37.982  12.845
65000W        W36726  30.118   1.142   3.889
65001W        W36727  40.331  24.686   1.884
65002W        W36728  16.262  44.499  10.480
65003W        W36729  42.254   4.843  14.845
65004W        W36730  33.017  35.115   2.658
65005W        W36731  26.516  28.993   4.110
65006W        W36732   6.280  44.455  11.053
65007W        W36733  34.049  38.382  13.327
65008W        W36734   5.352   0.076  10.661
65009W        W36735  21.604  28.668   0.603
65010W        W36736   7.361   3.297  12.082
65011W        W36737  27.294   0.305  10.232
65012W        W36738  42.648  31.687   3.416
65013W        W36739  16.515  29.006  10.505
65014W        W36740  18.261  30.717  12.658
65015W        W36741  33.747   9.163  14.797
65016W        W36742  14.277  10.212   2.258
65017W        W36743  37.078   6.270   1.384
65018W        W36744  39.591  42.296  10.758
65019W        W36745  34.045   5.206   2.231
65020W        W36746  21.994  24.800   0.945
65021W        W36747   0.676   8.053   3.756
65022W        W36748   8.109  17.102   0.868
65023W        W36749  43.935  10.247  14.002
65024W        W36750  35.774  13.225  14.834
65025W        W36751  41.574  12.693   3.567
65026W        W36752   8.765  15.573  14.963
65027W        W36753  33.658  36.543   3.638
65028W        W36754  12.190  35.796   1.021
65029W        W36755  11.667  23.469  13.939
65030W        W36756  40.992  18.848   3.428
65031W        W36757   6.498  42.381   0.391
65032W        W36758  21.843  33.360   1.368
65033W        W36759  13.630  22.943   0.932
65034W        W36760  38.614  31.145   1.985
65035W        W36761  15.859  24.208  13.965
65036W        W36762  20.298   1.734   1.705
65037W        W36763  17.893  24.066  11.566
65038W        W36764  24.252   2.899   1.853
65039W        W36765  35.537  32.559  14.380
65040W        W36766  23.300  31.956  10.880
65041W        W36767  21.774  20.614  12.506
65042W        W36768  34.647  41.238  10.683
65043W        W36769  12.311   1.969  10.430
65044W        W36770   1.584  29.107  12.317
65045W        W36771  33.864  17.377  14.510
65046W        W36772  40.892  33.531   1.747
65047W        W36773  44.531   8.259  10.719
65048W        W36774   9.240  33.818   2.199
65049W        W36775  37.856   5.391   1.785
65050W        W36776  34.506  12.775  14.948
65051W        W36777  14.293  39.333  13.309
65052W        W36778  16.744  23.329   0.804
65053W        W36779   2.438   1.210   3.602
65054W        W36780  31.952  26.838   4.299
65055W        W36781  35.531  39.373   2.430
65056W        W36782  12.845  18.037  10.694
65057W        W36783  17.571   5.167  13.824
65058W        W36784  21.147   3.206  14.553
65059W        W36785  43.723  22.834   3.642
65060W        W36786  23.511  44.451   4.769
65061W        W36787  28.923  21.833  13.239
65062W        W36788  33.992  31.867  13.354
65063W        W36789  35.604  40.352  11.617
65064W        W36790  30.790  40.454  11.236
65065W        W36791   9.765   7.096   0.777
65066W        W36792  22.298  30.727   5.011
65067W        W36793  36.394   6.407  14.790
65068W        W36794  22.381  19.570   3.295
65069W        W36795  42.802  12.813  12.590
65070W        W36796   6.339  13.227   0.472
65071W        W36797   9.814   5.940  11.084
65072W        W36798  40.556   0.707  11.198
65073W        W36799  39.345  32.363   3.953
65074W        W36800  38.446  16.295   0.147
65075W        W36801  34.882   6.456  12.248
65076W        W36802  14.280  42.319   1.105
65077W        W36803  17.222  10.114   1.205
65078W        W36804  35.028   2.162   1.375
65079W        W36805  26.451   6.482   1.217
65080W        W36806  32.539  41.939  13.533
65081W        W36807  17.171  37.153  11.046
65082W        W36808  29.200  29.682   0.842
65083W        W36809   4.756  40.031  12.615
65084W        W36810   1.249   9.221   3.643
65085W        W36811  24.943  27.343  11.890
65086W        W36812  33.004   5.699  13.078
65087W        W36813  13.093  10.219  12.551
65088W        W36814  29.916   1.495  12.435
65089W        W36815  12.204  37.052  10.924
65090W        W36816   7.545  13.100   0.664
65091W        W36817  26.416  19.159  14.814
65092W        W36818  15.686   6.773   4.732
65093W        W36819   3.153  37.024   0.400
65094W        W36820  15.338  23.559   0.029
65095W        W36821  25.440  23.573   2.388
65096W        W36822  31.227  14.363   1.291
65097W        W36823  22.361   7.052  13.812
65098W        W36824  25.738  42.349   2.697
65099W        W36825  16.182  32.033   4.620
65100W        W36826  10.263  15.147   3.726
65101W        W36827  39.927  14.335   2.270
65102W        W36828  31.815  27.650  14.296
65103W        W36829  38.110  17.813   4.851
65104W        W36830  31.600  42.342  13.713
65105W        W36831  31.508   4.163   4.881
65106W        W36832  17.077   9.680   0.448
65107W        W36833   2.694  13.734  10.533
65108W        W36834  13.220   8.693   0.412
65109W        W36835  34.103  29.717  10.727
65110W        W36836  22.099   4.139  14.468
65111W        W36837  44.507   8.314   4.469
65112W        W36838  28.494  13.184   2.243
65113W        W36839  38.230  12.843   1.145
65114W        W36840   2.893  29.412   1.315
65115W        W36841  18.509  21.702   4.308
65116W        W36842   2.447   1.375   0.943
65117W        W36843  33.328   2.760  13.361
65118W        W36844  20.916  26.645  10.162
65119W        W36845  20.536  28.925  11.921
65120W        W36846  17.293  18.173  14.224
65121W        W36847  34.382  26.053  12.081
65122W        W36848   3.967  12.716   2.927
65123W        W36849  25.731  23.339   0.364
65124W        W36850   7.771  18.533   3.280
65125W        W36851  35.627   0.512   4.408
65126W        W36852  38.956   9.592   4.157
65127W        W36853  35.836  20.514   2.226
65128W        W36854  42.737  21.605  10.770
65129W        W36855  20.543  28.755   2.394
65130W        W36856  22.556  21.787   3.808
65131W        W36857  18.750  38.086   1.411
65132W        W36858  25.168  35.247   1.203
65133W        W36859   1.439  41.868  14.325
65134W        W36860   1.351   3.812   2.508
65135W        W36861  40.555  17.083  14.236
65136W        W36862  23.036  10.601  13.151
65137W        W36863  41.311  33.856   0.786
65138W        W36864   5.918  33.248   3.211
65139W        W36865  20.797  37.857  10.573
65140W        W36866  30.202  15.595   2.355
65141W        W36867  19.986  28.600  12.691
65142W        W36868  29.389  28.396  12.057
65143W        W36869  40.469   4.291  11.434
65144W        W36870  12.149  33.153   3.213
65145W        W36871  13.776  22.580  11.145
65146W        W36872   9.280  33.263   3.316
65147W        W36873  37.835  19.947  14.380
65148W        W36874  27.352  23.473  14.770
65149W        W36875  10.623  13.242   1.615
65150W        W36876   1.468  20.660   1.366
65151W        W36877  12.342  22.538  11.442
65152W        W36878  25.921  14.877   1.840
65153W        W36879  33.387  36.526  14.640
65154W        W36880   9.286  21.234   3.337
65155W        W36881  14.354  33.090  11.428
65156W        W36882   2.376  31.655   4.256
65157W        W36883  42.094   5.988   3.667
65158W        W36884   9.780  40.853   4.332
65159W        W36885   4.533  10.584  13.070
65160W        W36886   0.569  40.398  13.360
65161W        W36887  36.395  22.140  11.964
65162W        W36888   7.812   3.372  13.936
65163W        W36889  36.238  32.817   4.540
65164W        W36890  33.438   2.664  12.440
65165W        W36891  36.127   7.862  13.562
65166W        W36892  26.158  26.848  14.377
65167W        W36893  39.152  21.202   9.795
65168W        W36894  25.727  42.809  14.881
65169W        W36895  29.956  28.234  14.037
65170W        W36896  42.983  10.566   0.926
65171W        W36897  35.130   6.941  13.924
65172W        W36898  29.142  22.617   3.267
65173W        W36899  37.468  24.497   2.149
65174W        W36900  38.873  44.765   3.765
65175W        W36901  31.549   4.684   1.374
65176W        W36902  32.624  19.478   2.423
65177W        W36903   0.886  37.889   1.917
65178W        W36904  28.240   8.773   2.838
65179W        W36905  26.134  20.441   0.279
65180W        W36906  36.928  34.569  11.112
65181W        W36907   9.255  34.342  12.877
65182W        W36908   0.868  40.896   0.225
65183W        W36909  33.164  43.882   0.365
65184W        W36910   9.628  16.935  11.517
65185W        W36911  10.250  39.801   3.734
65186W        W36912  27.169   6.452  12.095
65187W        W36913   5.930   7.827   4.735
65188W        W36914  16.333  24.388   3.440
65189W        W36915  34.738   5.635  13.878
65190W        W36916  30.498  19.689   0.827
65191W        W36917  36.893   8.991   3.137
65192W        W36918   9.619  39.908  12.885
65193W        W36919  36.372  31.694  12.540
65194W        W36920  25.459  23.781  14.102
65195W        W36921  18.973  12.363  13.385
65196W        W36922  41.405   2.979  14.310
65197W        W36923   2.810  34.850  13.061
65198W        W36924   2.298  40.574   4.225
65199W        W36925  34.568  33.460   3.351
65200W        W36926  29.227   3.859  11.176
65201W        W36927  12.168  37.578  13.645
65202W        W36928  34.489  33.984  12.462
65203W        W36929   7.574  10.756   2.813
65204W        W36930   5.678  12.890   5.077
65205W        W36931  17.618  31.253   1.359
65206W        W36932  26.090  32.805   4.090
65207W        W36933  33.523  14.954  11.680
65208W        W36934  36.070  28.767  13.052
65209W        W36935  35.141  35.186  13.595
65210W        W36936  28.142  21.892   3.783
65211W        W36937  42.837  27.639   3.202
65212W        W36938  21.104  38.308   3.336
65213W        W36939   4.028  40.881   1.146
65214W        W36940  13.284   1.733   0.287
65215W        W36941  30.125  12.181   2.899
65216W        W36942  15.615  14.143  13.752
65217W        W36943  19.139  40.816  11.605
65218W        W36944  40.705  36.917   2.322
65219W        W36945   2.276  36.307  11.597
65220W        W36946  34.844  27.671   0.369
65221W        W36947  11.645  40.960  10.531
65222W        W36948  17.469  11.388  11.334
65223W        W36949  10.654  44.741  14.593
65224W        W36950   9.760   8.338  13.924
65225W        W36951  29.391  36.045  10.790
65226W        W36952  32.829  40.902   4.183
65227W        W36953  18.647  43.627  13.308
65228W        W36954  31.504  27.522  11.744
65229W        W36955  17.304  39.267  12.250
65230W        W36956  35.167   4.337   2.121
65231W        W36957  37.594  29.412   0.885
65232W        W36958  14.456   7.747   0.953
65233W        W36959  31.603  27.214  12.142
65234W        W36960  42.300   9.601  13.867
65235W        W36961   9.267   7.222   1.498
65236W        W36962  16.707  21.746   3.892
65237W        W36963  33.441  43.932  14.909
65238W        W36964  31.824   4.386   3.900
65239W        W36965  23.485  11.312  12.929
65240W        W36966   3.800  38.747   1.959
65241W        W36967  22.212  14.195   4.426
65242W        W36968  32.904  25.733   4.071
65243W        W36969  33.290  16.626   1.610
65244W        W36970   7.157  29.018  10.528
65245W        W36971   6.846  34.060   4.630
65246W        W36972  37.066  35.737  14.014
65247W        W36973  37.862  36.614   0.384
65248W        W36974  12.170   5.383   3.695
65249W        W36975  13.814   5.684  12.037
65250W        W36976  42.059  44.983   0.949
65251W        W36977  18.141  34.629   0.041
65252W        W36978  16.219  28.629  11.928
65253W        W36979  16.946  35.833   1.885
65254W        W36980  26.163   7.842  14.994
65255W        W36981  32.965   0.383  14.296
65256W        W36982  33.129   8.429   3.297
65257W        W36983   3.964  31.044   0.704
65258W        W36984  38.357  26.968   0.816
65259W        W36985  40.849   5.808   0.796
65260W        W36986  20.272  16.320   4.394
65261W        W36987  41.623  15.415   1.906
65262W        W36988  11.922  22.967   0.791
65263W        W36989  16.584  10.794   3.767
65264W        W36990   3.890  43.910   0.451
65265W        W36991   8.613  34.783   4.592
65266W        W36992  43.024  12.006   1.568
65267W        W36993   7.901   2.243   1.793
65268W        W36994  29.512  42.284  12.317
65269W        W36995  12.421   4.855   1.791
65270W        W36996  27.376  18.235   1.341
65271W        W36997  44.998  40.856   1.344
65272W        W36998  30.176  19.777  11.517
65273W        W36999  32.108  24.007   3.660
65274W        W37000  24.234  17.336   4.089
65275W        W37001   3.742   9.801   3.932
65276W        W37002  16.898  12.659  12.514
65277W        W37003  23.020  43.493   1.199
65278W        W37004  28.513  32.651   2.823
65279W        W37005  44.117  10.541   5.091
65280W        W37006  34.707  40.078  13.897
65281W        W37007  24.430  12.858  11.489
65282W        W37008  25.220  26.861   4.320
65283W        W37009  40.542  11.512   1.908
65284W        W37010  10.287  33.569  11.389
65285W        W37011  25.667   7.196  11.989
65286W        W37012  27.035   2.117   0.007
65287W        W37013  25.065  13.810   1.197
65288W        W37014  24.734  12.831  11.904
65289W        W37015   8.406  36.994  14.026
65290W        W37016  34.948  32.077   0.965
65291W        W37017  16.624  19.427   1.012
65292W        W37018  37.159   2.823   0.881
65293W        W37019  10.935   5.365   2.202
65294W        W37020  39.195  35.038  12.049
65295W        W37021   1.435  37.987  12.468
65296W        W37022  20.151  43.996   4.178
65297W        W37023  23.347  31.967  11.897
65298W        W37024  44.470  21.709   2.289
65299W        W37025  43.409  21.356   1.053
65300W        W37026   8.320  44.960  12.078
65301W        W37027  41.879  28.485   2.634
65302W        W37028  44.433   1.701  12.521
65303W        W37029  21.360  38.010  12.368
65304W        W37030  28.286  40.918   0.775
65305W        W37031  10.443  22.217  13.764
65306W        W37032   8.188  38.813  14.357
65307W        W37033  13.917  24.135  13.432
65308W        W37034  13.538   5.773   3.736
65309W        W37035   9.273  27.630   4.292
65310W        W37036  24.910  36.939  11.491
65311W        W37037  23.940  28.521  12.112
65312W        W37038   1.741  28.647  12.461
65313W        W37039  10.244  41.259   1.398
65314W        W37040   6.962  15.752  11.523
65315W        W37041  28.909  32.526  12.799
65316W        W37042   2.609  15.270  12.984
65317W        W37043  34.992   7.289   4.133
65318W        W37044  33.811  40.491   1.311
65319W        W37045  27.936  14.259   2.706
65320W        W37046  18.492   9.548   0.259
65321W        W37047  36.530  14.681   1.362
65322W        W37048  10.234  20.769   1.690
65323W        W37049  16.797  43.722   0.313
65324W        W37050  29.231  12.236   1.013
65325W        W37051  36.288   1.725  14.470
65326W        W37052   0.774  34.888   0.198
65327W        W37053  27.036  43.191   2.637
65328W        W37054  23.623  22.648   3.238
65329W        W37055  27.333  30.934   4.103
65330W        W37056  31.229  31.114  13.578
65331W        W37057  19.241  17.841   2.412
65332W        W37058  12.319  31.442   3.687
65333W        W37059  17.187  39.905   0.509
65334W        W37060  26.501   9.300   0.453
65335W        W37061  23.491  37.323  13.831
65336W        W37062  40.361  17.504   0.516
65337W        W37063  26.540   9.679  13.746
65338W        W37064  38.081  17.091  12.611
65339W        W37065   9.454  14.138   0.722
65340W        W37066  13.765   0.010  14.784
65341W        W37067  34.471  23.263   0.662
65342W        W37068   4.758  13.183   4.969
65343W        W37069   0.742  29.592  12.776
65344W        W37070  21.868  17.876   3.688
65345W        W37071  39.663   2.386  12.014
65346W        W37072   0.501   6.131  11.189
65347W        W37073  24.505  19.266   2.841
65348W        W37074  20.950  31.951  14.705
65349W        W37075  19.639  26.579   4.128
65350W        W37076   7.102  28.103  12.432
65351W        W37077  33.212   3.833   4.830
65352W        W37078   8.347   3.868   1.402
65353W        W37079  31.141  15.250  13.012
65354W        W37080   0.851  17.294   2.839
65355W        W37081  39.077  24.096   3.222
65356W        W37082  26.374  44.844  11.601
65357W        W37083  10.392  19.336   0.424
65358W        W37084  10.976  28.450  11.846
65359W        W37085   1.491  21.655  12.946
65360W        W37086  21.230   1.947   0.609
65361W        W37087  32.925  23.133   0.254
65362W        W37088  39.880  26.466  11.239
65363W        W37089  27.634   4.364  13.840
65364W        W37090  43.694  24.951   4.494
65365W        W37091  34.179  19.124   1.052
65366W        W37092  39.520  20.014  13.796
65367W        W37093   2.363  21.970  11.173
65368W        W37094   3.680  40.450   0.357
65369W        W37095   7.050  33.436  11.606
65370W        W37096  21.595  31.377   2.396
65371W        W37097  27.495  31.459  11.023
65372W        W37098  19.235  10.582  12.843
65373W        W37099  30.258  44.695   1.152
65374W        W37100   7.710  10.301   4.963
65375W        W37101  11.168  36.053   3.127
65376W        W37102  13.000  28.114   4.235
65377W        W37103  31.244   0.814  14.936
65378W        W37104  21.310   7.483  13.044
65379W        W37105  19.498  26.427   2.114
65380W        W37106  16.759  33.514   0.753
65381W        W37107  26.055  22.494  12.913
65382W        W37108  31.248  35.785  11.581
65383W        W37109  14.109  10.714  14.265
65384W        W37110  38.008  35.349   1.893
65385W        W37111  29.866   9.270   4.137
65386W        W37112   0.401  15.050   1.711
65387W        W37113  36.881  43.436   1.401
65388W        W37114  11.135  33.771   3.705
65389W        W37115   5.348  12.126  10.658
65390W        W37116   4.277  40.865  14.773
65391W        W37117  24.153   3.562  14.026
65392W        W37118  40.887  33.235   3.989
65393W        W37119  10.632  19.306  11.635
65394W        W37120  24.731  30.480   0.278
65395W        W37121  30.923  21.160   3.183
65396W        W37122  41.380   6.041   3.322
65397W        W37123  22.024  30.197   1.255
65398W        W37124  18.534  12.107   2.678
65399W        W37125  14.844  18.789   0.744
65400W        W37126  27.713   5.841   5.026
65401W        W37127  36.495  13.738  14.937
65402W        W37128  14.578  36.938  13.432
65403W        W37129  36.829  23.039   2.641
65404W        W37130  19.722  32.045  13.003
65405W        W37131  10.332   8.239   2.432
65406W        W37132  30.577  11.187   0.652
65407W        W37133  24.692  25.160  12.629
65408W        W37134  42.516  43.620   0.780
65409W        W37135  44.066  35.501  10.933
65410W        W37136  11.108   4.367   4.248
65411W        W37137  21.104  14.585  14.290
65412W        W37138  34.089  26.203  14.178
65413W        W37139  34.306  44.338   3.171
65414W        W37140  19.282  14.707   2.891
65415W        W37141  19.735  14.672  14.720
65416W        W37142  26.924  39.475   0.683
65417W        W37143  18.567   7.111  11.174
65418W        W37144  39.350  15.115   4.804
65419W        W37145  16.596  10.194   2.653
65420W        W37146  20.346  23.958  13.152
65421W        W37147  26.655  33.136   4.201
65422W        W37148  38.267  24.284  11.939
65423W        W37149  26.683  39.488  12.312
65424W        W37150   3.782   5.691   4.138
65425W        W37151  32.891  35.904  13.990
65426W        W37152  10.755  24.439  10.885
65427W        W37153  36.785  38.919  13.459
65428W        W37154  32.644  24.565   3.268
65429W        W37155  26.292   2.898  13.358
65430W        W37156  10.356  14.812  10.822
65431W        W37157  35.467   2.335   2.833
65432W        W37158  39.077  15.800  13.055
65433W        W37159  44.212   6.505   0.658
65434W        W37160  24.539  19.025   2.368
65435W        W37161  42.539  25.967   5.046
65436W        W37162   5.344  18.662  12.980
65437W        W37163  10.375  25.757  11.192
65438W        W37164  32.058  13.011  13.310
65439W        W37165   8.909  26.480   3.630
65440W        W37166  29.121   7.673   3.600
65441W        W37167  25.958   1.705  14.002
65442W        W37168  11.263  41.626   2.990
65443W        W37169   9.607   7.725   4.614
65444W        W37170  15.232  33.974  11.268
65445W        W37171  20.300  11.150  11.738
65446W        W37172   3.254   5.911   1.904
65447W        W37173   3.668  15.300  10.694
65448W        W37174   5.363  12.185  11.702
65449W        W37175  40.538  11.852  13.513
65450W        W37176  41.815  38.849   5.087
65451W        W37177  29.535  38.783  13.397
65452W        W37178   2.274  43.877   2.755
65453W        W37179  15.780  38.133   2.898
65454W        W37180  16.291  39.538  11.190
65455W        W37181  29.466  36.836   0.011
65456W        W37182   1.839  11.461   2.663
65457W        W37183  10.218  31.496  14.929
65458W        W37184   4.410  39.049   0.275
65459W        W37185  10.738   1.309   5.013
65460W        W37186  18.303  34.394  13.946
65461W        W37187   1.408  41.616  14.946
65462W        W37188  44.084  11.595  14.978
65463W        W37189  40.561  38.925   2.754
65464W        W37190   4.822   6.691  11.778
65465W        W37191  42.023   2.002  14.830
65466W        W37192  17.315  20.629   1.332
65467W        W37193  24.008  30.703   3.206
65468W        W37194   3.931  12.729   4.786
65469W        W37195  26.059  21.282  13.363
65470W        W37196   4.386  22.204   4.320
65471W        W37197   0.315  13.865  12.251
65472W        W37198  25.646  24.701  14.025
65473W        W37199  39.404  37.761  10.494
65474W        W37200   3.340  36.212   3.317
65475W        W37201   5.331  28.181   1.291
65476W        W37202  16.580  40.687   9.856
65477W        W37203  24.607  41.806   3.140
65478W        W37204  33.678  24.131  10.954
65479W        W37205   5.497  16.443   1.757
65480W        W37206  37.109  37.795   5.077
65481W        W37207  40.529  12.245   2.368
65482W        W37208   2.211  40.827   0.984
65483W        W37209  22.486   7.197  14.836
65484W        W37210  36.882  29.199   1.207
65485W        W37211  14.760  41.477   2.757
65486W        W37212  24.631  16.221   3.752
65487W        W37213  25.554  18.126  13.792
65488W        W37214  11.474  33.057   4.685
65489W        W37215  36.829  25.272   0.286
65490W        W37216  34.178  21.272  13.694
65491W        W37217  23.205  33.863   3.073
65492W        W37218  28.489  42.428  14.182
65493W        W37219  26.116   1.916  11.032
65494W        W37220  16.596   6.455  14.370
65495W        W37221   4.220  44.986   0.976
65496W        W37222  12.815  31.902   2.327
65497W        W37223  34.608  23.013   2.319
65498W        W37224  42.908  28.253   0.920
65499W        W37225  12.154   5.610  11.856
65500W        W37226  40.119  28.512   1.586
65501W        W37227  16.804  36.722   1.384
65502W        W37228  33.427   3.374   4.263
65503W        W37229  24.584  25.609   3.624
65504W        W37230  33.879  16.838   0.812
65505W        W37231  39.327   5.169  11.856
65506W        W37232   5.680  21.211  13.574
65507W        W37233   5.248  30.019  12.439
65508W        W37234  44.399  33.102  14.704
65509W        W37235  43.286  39.292   1.756
65510W        W37236  38.148   0.291  13.452
65511W        W37237  39.772  32.590  11.017
65512W        W37238  31.342  42.467  11.165
65513W        W37239  28.440  30.374   0.787
65514W        W37240  39.464  43.320   1.677
65515W        W37241  36.359  23.251  11.937
65516W        W37242  22.227  32.026   4.548
65517W        W37243  38.825   6.365  11.819
65518W        W37244  14.718   9.937   2.258
65519W        W37245  12.571  42.485   1.810
65520W        W37246  15.289   8.102   4.222
65521W        W37247  18.717   3.698  12.119
65522W        W37248   3.701   2.724  11.205
65523W        W37249  10.571  37.299   0.392
65524W        W37250  29.862  20.141   2.865
65525W        W37251  44.690   5.785  10.991
65526W        W37252   1.887  44.762  13.766
65527W        W37253  36.328  11.915   3.151
65528W        W37254  39.310  20.774  12.399
65529W        W37255  39.336  29.413  12.529
65530W        W37256  36.635  43.928  12.913
65531W        W37257   8.049  37.940  12.068
65532W        W37258  18.312  37.504   1.768
65533W        W37259  31.497  26.994  13.084
65534W        W37260  25.919   4.953   3.731
65535W        W37261  20.836  27.463   9.765
65536W        W37262  18.618  26.520   2.383
65537W        W37263  19.314  25.870  13.516
65538W        W37264   5.778  29.589   1.624
65539W        W37265  34.021   5.281   4.163
65540W        W37266  39.683  19.705   3.703
65541W        W37267  23.623  29.131   4.571
65542W        W37268  43.308  15.587  13.823
65543W        W37269  22.928  40.895   3.637
65544W        W37270  25.713  14.185   0.473
65545W        W37271   0.442  28.572  13.631
65546W        W37272  18.528  12.708  10.814
65547W        W37273  21.031  24.038  13.454
65548W        W37274  30.351  24.049  14.480
65549W        W37275  34.840  17.640   3.001
65550W        W37276  32.583   3.394  11.170
65551W        W37277   6.047  42.678   5.135
65552W        W37278  36.504  22.615   4.547
65553W        W37279  21.133  10.680   0.347
65554W        W37280   2.973  30.059  12.982
65555W        W37281  43.359  13.765   1.436
65556W        W37282  12.690   6.680  11.308
65557W        W37283  43.958  19.627  13.099
65558W        W37284  22.286  23.129   2.206
65559W        W37285   9.217  12.817   3.359
65560W        W37286   2.313  21.477  11.060
65561W        W37287  38.958  40.501  11.997
65562W        W37288  12.320  28.666  10.534
65563W        W37289  12.109  28.050  14.568
65564W        W37290  20.965   1.895  12.116
65565W        W37291  29.431  34.917  14.885
65566W        W37292   4.453  21.718  10.675
65567W        W37293  39.294  23.499   2.253
65568W        W37294  28.532  32.150   2.828
65569W        W37295  34.004  20.853   1.703
65570W        W37296  33.804  11.187  13.039
65571W        W37297  31.574  19.068   2.382
65572W        W37298  31.844  25.540  10.672
65573W        W37299  30.088  26.672   3.073
65574W        W37300   2.091  30.316  10.122
65575W        W37301   4.221  15.329  10.707
65576W        W37302  34.377   6.633   2.334
65577W        W37303  18.788  35.576   2.048
65578W        W37304  24.991  14.801  11.987
65579W        W37305  41.875  36.402  12.672
65580W        W37306  24.939  15.091   0.469
65581W        W37307  24.486  13.140  12.605
65582W        W37308  16.293  26.029  12.825
65583W        W37309   7.243  21.714  10.655
65584W        W37310  36.792  21.252  14.435
65585W        W37311  16.656  32.157   4.228
65586W        W37312  10.603   8.389  14.396
65587W        W37313   1.375  11.601  12.950
65588W        W37314  29.190  18.587  10.667
65589W        W37315  18.156  23.465  13.658
65590W        W37316  43.777  22.594  13.769
65591W        W37317  42.768   4.102  12.943
65592W        W37318  32.999  18.694  12.702
65593W        W37319  40.029   2.943  13.349
65594W        W37320  35.367  21.073   2.680
65595W        W37321  11.777  16.363   3.709
65596W        W37322  17.308  21.531   1.154
65597W        W37323  26.068  24.030   3.764
65598W        W37324  24.606  43.909   1.862
65599W        W37325  21.272  44.249   3.668
65600W        W37326   9.224  20.529   4.058
65601W        W37327  19.181  39.549  13.990
65602W        W37328   0.002  21.664   4.901
65603W        W37329  23.569  13.342  12.606
65604W        W37330   8.240  13.261   4.570
65605W        W37331  18.090  32.348   1.386
65606W        W37332  38.909  13.557  10.609
65607W        W37333  13.829  24.188  12.783
65608W        W37334  40.987   7.835   0.279
65609W        W37335  37.543  42.434  12.754
65610W        W37336  31.236  44.412  11.912
65611W        W37337   2.319   2.762   4.719
65612W        W37338   0.033  16.872   3.268
65613W        W37339   2.911  36.885   1.779
65614W        W37340  24.421  32.443   4.268
65615W        W37341  26.084  30.624  13.273
65616W        W37342  39.360  35.521  14.622
65617W        W37343  23.682   2.751  12.924
65618W        W37344  31.478   0.262   2.430
65619W        W37345  38.927  16.735  11.464
65620W        W37346  23.736   2.236  13.852
65621W        W37347  41.011  13.775  12.132
65622W        W37348  35.479  23.464   1.439
65623W        W37349  17.146  25.151   4.591
65624W        W37350  30.686  26.914   2.980
65625W        W37351  11.119  33.182  14.415
65626W        W37352  40.151   7.351   2.025
65627W        W37353  43.915  23.987  14.966
65628W        W37354  42.369  22.702   2.758
65629W        W37355  27.226  18.277  11.411
65630W        W37356  30.914  36.002  12.434
65631W        W37357  39.409  13.723  11.494
65632W        W37358  25.577   5.670  10.172
65633W        W37359   7.319  13.220  10.730
65634W        W37360   0.934  31.681  12.993
65635W        W37361   6.354  14.140  13.436
65636W        W37362  20.294   2.452  14.348
65637W        W37363  25.276  42.021  13.978
65638W        W37364  22.340   9.844  14.328
65639W        W37365  25.220  30.651  13.539
65640W        W37366  26.076  22.581   3.795
65641W        W37367   9.707  44.875   0.515
65642W        W37368  31.841  28.002   4.222
65643W        W37369   5.874  32.094   2.217
65644W        W37370  42.223  43.354   1.610
65645W        W37371   1.031   0.031   1.836
65646W        W37372   5.390  20.183   4.749
65647W        W37373  33.423  10.207   1.437
65648W        W37374  39.693  37.428   5.027
65649W        W37375  17.162  21.243  11.193
65650W        W37376   0.356  32.442   1.433
65651W        W37377  31.436   7.178  11.329
65652W        W37378   4.424  10.838  12.108
65653W        W37379  30.568  27.669   0.663
65654W        W37380   8.765  21.137  10.174
65655W        W37381  42.442  14.703   4.779
65656W        W37382  18.323  12.136   1.082
65657W        W37383   7.494  29.993  14.501
65658W        W37384   9.828  24.769   3.294
65659W        W37385  19.535   2.925   4.604
65660W        W37386  44.397   8.748  10.809
65661W        W37387  21.931   4.671   1.018
65662W        W37388  26.632  37.378  10.378
65663W        W37389   5.759  30.267   0.789
65664W        W37390  18.053   5.384  11.079
65665W        W37391  16.332  22.619  11.953
65666W        W37392   1.817  18.543   1.204
65667W        W37393   8.963  33.341  11.537
65668W        W37394  11.429   3.401   2.693
65669W        W37395  39.819  12.296  13.411
65670W        W37396   1.232   5.324   3.617
65671W        W37397  13.149  17.660  11.415
65672W        W37398   9.579  41.387   1.810
65673W        W37399   3.516  12.866   1.337
65674W        W37400  36.163   7.326   1.816
65675W        W37401   0.283  13.541  14.753
65676W        W37402  17.659   1.374   3.189
65677W        W37403  18.081  15.283   0.305
65678W        W37404  21.383   7.832  13.437
65679W        W37405  18.123  36.404   3.630
65680W        W37406   7.772  30.375   3.300
65681W        W37407   6.896  29.501  14.133
65682W        W37408   0.443  39.431  11.108
65683W        W37409   7.456  19.618   0.843
65684W        W37410  14.140  10.355   0.948
65685W        W37411  33.892  20.085  14.819
65686W        W37412   6.477  13.158  11.264
65687W        W37413  35.455  23.532   0.390
65688W        W37414   7.520   1.064  14.885
65689W        W37415  20.344  16.100  11.061
65690W        W37416  22.210  33.668   2.249
65691W        W37417  15.566  41.173   4.219
65692W        W37418  44.863  10.833   1.782
65693W        W37419   7.889  15.014  10.256
65694W        W37420  44.500  16.150  14.889
65695W        W37421  40.345   3.174   0.371
65696W        W37422  12.609  29.845  11.140
65697W        W37423  44.060  20.834  14.389
65698W        W37424  14.131  28.612   1.631
65699W        W37425  21.233  14.130  11.451
65700W        W37426  16.257  12.209  12.785
65701W        W37427   4.710  24.755   3.209
65702W        W37428   2.299  28.588   1.374
65703W        W37429  44.702  44.954   3.088
65704W        W37430   1.272  27.406   0.892
65705W        W37431  43.198  32.610  10.654
65706W        W37432   1.182  44.746   4.019
65707W        W37433  41.924  27.188  14.417
65708W        W37434  20.160  44.487  12.680
65709W        W37435  26.510  34.357   2.771
65710W        W37436  18.774   5.948   1.314
65711W        W37437   8.397  18.582  13.388
65712W        W37438  34.332  38.941   4.045
65713W        W37439   2.996  18.118  14.030
65714W        W37440  24.865  36.868  10.611
65715W        W37441  11.630  18.143  14.748
65716W        W37442  38.450  37.587   4.334
65717W        W37443  19.089  18.267   3.725
65718W        W37444  22.896  27.866   9.528
65719W        W37445  42.021   7.931   0.397
65720W        W37446  12.318  44.055  12.135
65721W        W37447  26.094  11.197   2.268
65722W        W37448   9.364   2.346  14.424
65723W        W37449   5.490  14.752   1.398
65724W        W37450   8.958  18.214   1.421
65725W        W37451  40.767   8.691   2.184
65726W        W37452  11.262  13.190   4.849
65727W        W37453  17.779  10.375   2.343
65728W        W37454   8.769  14.344   1.374
65729W        W37455  34.637  12.798   3.719
65730W        W37456  43.396   2.423   3.591
65731W        W37457  20.946  44.723  11.528
65732W        W37458  19.556  37.998   1.200
65733W        W37459  30.689   9.374  11.064
65734W        W37460  12.268  36.948  12.461
65735W        W37461  33.726  43.388   4.621
65736W        W37462   9.251  16.590   1.191
65737W        W37463  40.115  10.027   2.353
65738W        W37464  25.619  17.055  14.724
65739W        W37465  17.708  42.270   1.318
65740W        W37466   8.846  13.786   4.412
65741W        W37467  22.026  36.694  12.574
65742W        W37468  41.566  41.371  13.433
65743W        W37469  14.006  35.849  13.515
65744W        W37470  24.628   8.733  11.230
65745W        W37471  20.639  10.840   0.296
65746W        W37472  32.265  14.184  13.893
65747W        W37473  42.976  41.549   0.387
65748W        W37474   0.889   9.600   3.603
65749W        W37475   2.305  24.175   2.025
65750W        W37476  39.524  32.633   0.776
65751W        W37477  43.362  20.017   3.372
65752W        W37478   0.019  37.162   1.517
65753W        W37479  14.203   3.499  11.884
65754W        W37480   0.281   3.311   4.231
65755W        W37481   5.201  37.746  13.502
65756W        W37482   8.263  19.999  14.995
65757W        W37483  12.415   1.794  14.415
65758W        W37484  21.126  27.086   1.531
65759W        W37485  44.826   6.334   4.454
65760W        W37486  10.971  25.430   2.743
65761W        W37487  21.553  36.893   3.758
65762W        W37488  10.328  41.474  11.222
65763W        W37489   9.758  20.934  11.123
65764W        W37490  27.624  19.238   2.229
65765W        W37491  11.914   8.477  11.077
65766W        W37492   5.001  13.666   2.014
65767W        W37493   4.944  17.638   4.906
65768W        W37494   5.827  36.517  14.384
65769W        W37495  41.565  11.877  12.437
65770W        W37496  41.624  19.698   4.933
65771W        W37497  14.571  43.234   2.518
65772W        W37498  24.604   5.908   1.863
65773W        W37499  24.615  15.875  11.241
65774W        W37500  18.342  31.104  11.923
65775W        W37501  37.068   6.735  12.164
65776W        W37502  14.344  42.315  14.762
65777W        W37503  23.390   2.151  14.238
65778W        W37504  38.923   6.910  10.951
65779W        W37505  29.161   4.750  11.130
65780W        W37506  35.078  23.867   2.361
65781W        W37507  30.647  13.632  13.046
65782W        W37508   0.555  38.942   0.574
65783W        W37509  26.778  41.456   3.344
65784W        W37510  22.009  32.439   3.275
65785W        W37511  40.793  31.571   2.261
65786W        W37512   9.317  14.941   4.497
65787W        W37513   0.645  40.086  10.148
65788W        W37514   4.132  43.088  11.091
65789W        W37515  40.387  44.400  11.204
65790W        W37516  31.622  26.618   3.719
65791W        W37517  34.893  39.880   4.874
65792W        W37518  35.564  10.112  13.663
65793W        W37519  16.304   3.871   3.943
65794W        W37520   8.214   9.796  12.906
65795W        W37521  44.209  44.275   1.019
65796W        W37522   6.334  36.842  11.051
65797W        W37523  21.512  17.291  11.506
65798W        W37524  16.557  41.416  11.107
65799W        W37525  44.899  36.987   0.084
65800W        W37526  16.115   5.828  12.799
65801W        W37527  41.796  32.849   2.264
65802W        W37528   8.977  44.935  13.803
65803W        W37529  32.189  38.058  13.474
65804W        W37530  33.511  41.516   1.294
65805W        W37531   2.782  43.506  12.929
65806W        W37532  21.083  35.445   2.694
65807W        W37533  33.530  11.404  14.450
65808W        W37534  27.200  26.309   0.632
65809W        W37535   8.613  26.606   1.358
65810W        W37536  18.810  32.030  14.004
65811W        W37537   4.421   0.466  13.860
65812W        W37538   3.566  20.825  11.697
65813W        W37539  10.235   4.527  13.474
65814W        W37540  30.631  22.617   0.443
65815W        W37541  21.640  14.690  12.056
65816W        W37542   6.200  42.737  12.460
65817W        W37543   2.926  35.367  13.076
65818W        W37544   9.272   1.934  10.917
65819W        W37545   6.156   2.212   5.021
65820W        W37546  30.100  32.950  14.208
65821W        W37547  28.999  16.244  11.886
65822W        W37548  15.514   2.455   2.635
65823W        W37549  36.204  44.089  11.187
65824W        W37550  26.647  39.772   4.830
65825W        W37551   0.822  43.060   2.233
65826W        W37552   2.125  25.489  12.796
65827W        W37553  11.146  35.643   5.457
65828W        W37554   5.101  13.145   2.132
65829W        W37555   9.196  15.698   3.756
65830W        W37556  17.160  42.049  11.539
65831W        W37557  11.585  16.309   3.233
65832W        W37558  37.988  18.989  10.720
65833W        W37559  38.005  12.274  10.489
65834W        W37560  30.745  23.254   3.102
65835W        W37561  20.562   8.575   2.963
65836W        W37562  19.264   8.231   2.445
65837W        W37563   3.930  25.927  14.855
65838W        W37564  24.533   0.528  13.011
65839W        W37565  26.132  13.847  12.952
65840W        W37566  12.681  13.669  11.661
65841W        W37567  44.890  38.875   3.674
65842W        W37568  35.531  33.651   3.200
65843W        W37569  32.939  16.139  14.889
65844W        W37570  37.050  31.014   0.511
65845W        W37571   7.181  20.448   3.632
65846W        W37572   8.698  29.563   0.404
65847W        W37573  37.520  20.665   4.128
65848W        W37574  11.234  22.039  12.851
65849W        W37575   3.221  18.358  14.498
65850W        W37576   9.390  27.725   4.793
65851W        W37577   0.306  26.504  10.490
65852W        W37578   1.016   6.239  12.909
65853W        W37579  10.231  10.077   1.868
65854W        W37580  25.490   9.156  12.004
65855W        W37581  23.054  38.287   3.283
65856W        W37582  19.085   0.344  11.164
65857W        W37583  29.397  12.611   4.382
65858W        W37584  15.734   1.851   2.287
65859W        W37585   1.049  24.673  14.110
65860W        W37586  32.306   6.509   4.163
65861W        W37587  34.324  20.033   1.303
65862W        W37588   2.395  32.560   0.775
65863W        W37589  17.075  13.228  12.542
65864W        W37590  21.015   4.228  13.812
65865W        W37591  27.460  37.441   2.194
65866W        W37592  32.029   1.900   4.559
65867W        W37593  33.134   3.355   3.571
65868W        W37594  27.835  23.665  11.110
65869W        W37595  29.488   5.503   3.537
65870W        W37596   3.844   9.649  14.314
65871W        W37597  14.059   2.704  13.551
65872W        W37598   6.487  38.984   1.994
65873W        W37599   0.050   1.731  13.758
65874W        W37600   4.847  32.664  11.778
65875W        W37601  15.111  39.094   1.617
65876W        W37602  43.924   9.733  13.321
65877W        W37603  28.711   5.322   1.814
65878W        W37604  12.548  17.594  10.747
65879W        W37605   9.340  12.484  14.570
65880W        W37606  14.318  41.534   3.803
65881W        W37607   5.008  12.159  13.999
65882W        W37608  38.264  26.837  12.319
65883W        W37609   3.100  28.726   2.778
65884W        W37610  13.343   2.966  12.055
65885W        W37611  24.510  37.314   4.590
65886W        W37612  29.101  10.282  12.304
65887W        W37613  44.583  42.016   4.586
65888W        W37614  23.531  41.017  11.146
65889W        W37615  27.349  30.754  10.872
65890W        W37616  44.328  20.515   1.783
65891W        W37617   1.845  21.055  14.975
65892W        W37618  33.375  39.608   0.536
65893W        W37619  44.739  26.659   4.726
65894W        W37620   2.833  15.387   3.626
65895W        W37621  23.189   5.105   2.931
65896W        W37622  12.733   4.105  11.261
65897W        W37623  27.225  30.286  11.174
65898W        W37624  10.028  20.298   0.355
65899W        W37625  44.536   3.447  14.819
65900W        W37626  37.513  16.107  13.772
65901W        W37627  32.080  41.031   3.700
65902W        W37628   3.650  36.328   4.901
65903W        W37629  34.777   7.369  14.435
65904W        W37630  34.509  34.330   4.967
65905W        W37631  19.927  30.546  10.597
65906W        W37632  32.006  29.680  14.036
65907W        W37633  15.872  20.665  14.098
65908W        W37634  33.357   3.515   1.942
65909W        W37635   7.219  25.379  14.848
65910W        W37636  36.434  23.718  13.479
65911W        W37637   7.899  21.116   1.223
65912W        W37638  40.799  14.341   2.777
65913W        W37639  25.535   6.241  12.792
65914W        W37640  34.357  36.080  13.582
65915W        W37641  28.482  11.167   3.647
65916W        W37642  41.578  28.730  13.528
65917W        W37643  40.511  32.890  10.529
65918W        W37644  31.196  31.370  12.543
65919W        W37645  12.711  25.076   1.734
65920W        W37646  10.959  38.008   0.698
65921W        W37647  25.524  10.175  14.780
65922W        W37648  40.475  36.941  12.719
65923W        W37649  12.191  10.462  11.058
65924W        W37650  40.931  30.155   2.358
65925W        W37651   9.614   6.296  13.502
65926W        W37652   7.121  12.719  13.786
65927W        W37653  21.141  26.035   2.813
65928W        W37654  32.467  20.784  13.070
65929W        W37655  25.550  41.337   0.539
65930W        W37656  36.139   2.280   1.388
65931W        W37657  14.345   6.602   1.362
65932W        W37658  13.637  38.435   0.871
65933W        W37659   4.613  30.295   4.248
65934W        W37660   1.320  12.928   3.195
65935W        W37661  16.910  21.174  13.029
65936W        W37662  38.091  31.360   3.168
65937W        W37663   6.345  41.102  13.159
65938W        W37664   2.914  12.923   1.364
65939W        W37665  43.432  13.238   4.254
65940W        W37666  19.580  31.838   1.724
65941W        W37667  40.934  18.848   0.405
65942W        W37668  44.510  29.710  11.309
65943W        W37669  32.131  20.699  10.673
65944W        W37670  43.980  22.622  14.237
65945W        W37671   9.708  33.377  13.387
65946W        W37672  38.987   6.323   4.218
65947W        W37673   5.571  15.526   2.471
65948W        W37674  16.202  25.146   4.545
65949W        W37675   6.825  34.950   4.673
65950W        W37676  25.206  15.285   0.864
65951W        W37677  34.621  36.281  14.361
65952W        W37678   6.466  25.086   4.956
65953W        W37679  29.225   2.231  12.463
65954W        W37680  14.302  14.284  14.329
65955W        W37681  22.009  44.331   0.808
65956W        W37682  33.907  18.440   3.841
65957W        W37683  44.932  27.001   0.996
65958W        W37684   0.185   0.998  11.589
65959W        W37685   9.616  26.992  13.329
65960W        W37686  30.138   2.711   2.886
65961W        W37687  39.577  36.671   2.645
65962W        W37688  39.854  39.077   3.105
65963W        W37689  16.163   2.260  11.296
65964W        W37690  41.749  35.190  13.798
65965W        W37691  23.860  17.288  13.776
65966W        W37692  11.347   6.502  10.953
65967W        W37693  40.936   5.351   2.374
65968W        W37694  31.386  12.878   4.381
65969W        W37695  28.966  29.434  13.156
65970W        W37696  34.683  22.060  14.116
65971W        W37697  22.034   7.781  10.871
65972W        W37698  39.271   9.773   0.445
65973W        W37699   0.894  39.357  13.359
65974W        W37700   7.736  11.888   0.838
65975W        W37701  36.868   9.422   4.885
65976W        W37702   3.678  42.571   0.867
65977W        W37703  12.198   8.566  13.864
65978W        W37704   4.870  39.865   2.823
65979W        W37705  40.069  24.089   2.325
65980W        W37706  34.137  39.338   2.743
65981W        W37707   8.238  38.139  13.453
65982W        W37708   9.776   7.799   0.924
65983W        W37709  21.264  43.834  12.658
65984W        W37710   9.313  19.690   0.610
65985W        W37711  22.012  43.317  11.955
65986W        W37712  29.447  40.053   2.116
65987W        W37713  19.097  35.303   0.374
65988W        W37714  16.173  31.301   0.529
65989W        W37715  30.048  26.302   2.694
65990W        W37716  11.307   1.842   2.126
65991W        W37717   7.248  41.943  11.238
65992W        W37718   6.941  35.128  14.346
65993W        W37719  34.216   4.336   3.626
65994W        W37720  28.678  14.106   1.379
65995W        W37721  18.297   5.805  14.007
65996W        W37722  38.017  39.943   0.023
65997W        W37723  15.166  27.153  14.614
65998W        W37724  20.989  42.329   0.014
65999W        W37725  43.459  41.953  14.551
66000W        W37726  14.135  12.197  10.459
66001W        W37727  37.017   7.270   2.357
66002W        W37728  12.845  38.560   1.454
66003W        W37729  26.166  29.029  10.908
66004W        W37730   6.955  21.139   4.722
66005W        W37731  19.971  13.320  14.477
66006W        W37732  14.083  29.465   4.614
66007W        W37733   4.231  25.621  10.613
66008W        W37734  35.760  10.592  12.507
66009W        W37735  26.515  16.299  13.870
66010W        W37736  32.418  33.413  12.879
66011W        W37737  12.935  17.516   3.033
66012W        W37738  16.620  11.095  14.509
66013W        W37739  28.427  19.071   4.207
66014W        W37740  11.406  42.277  11.497
66015W        W37741  20.829  29.130  13.364
66016W        W37742  15.619  27.381  14.441
66017W        W37743  43.400  16.165  12.208
66018W        W37744  35.661  31.913   2.574
66019W        W37745  34.560  23.145   4.457
66020W        W37746  27.896   8.312  14.456
66021W        W37747   3.701  21.321  10.632
66022W        W37748  37.625  38.578  10.294
66023W        W37749  11.095  21.810   4.594
66024W        W37750  19.535  33.984  10.644
66025W        W37751  25.038  10.890  14.535
66026W        W37752  26.716  25.144  10.352
66027W        W37753  42.403  23.772  13.082
66028W        W37754  27.038  37.771   2.145
66029W        W37755  20.554  44.879  13.967
66030W        W37756  29.626  20.014  12.575
66031W        W37757  16.925  38.990   0.215
66032W        W37758  35.865   7.721   3.288
66033W        W37759   0.443  39.472  11.641
66034W        W37760  20.766  43.506   2.747
66035W        W37761  37.180  14.129  11.605
66036W        W37762  39.452  29.666   3.591
66037W        W37763  33.407   4.658   5.168
66038W        W37764  14.191  26.372   4.173
66039W        W37765  39.517  10.717   1.935
66040W        W37766  16.196  29.584  11.853
66041W        W37767  27.056  44.995   2.374
66042W        W37768  20.468  16.703   4.654
66043W        W37769  35.642  35.706   1.620
66044W        W37770  36.827  39.125   5.013
66045W        W37771  31.852   0.742   1.714
66046W        W37772   4.517  42.428   2.403
66047W        W37773  21.577   1.376  11.419
66048W        W37774  33.540  16.216   1.804
66049W        W37775  24.182  19.086  13.510
66050W        W37776  44.474  11.561  12.978
66051W        W37777  43.806  11.753   1.651
66052W        W37778  35.941  40.918   1.853
66053W        W37779  35.882   2.529   4.226
66054W        W37780  34.526  15.394  12.525
66055W        W37781   4.328  17.210  11.120
66056W        W37782   3.010  12.125   2.345
66057W        W37783   3.168  29.051  11.885
66058W        W37784  23.165  43.189   3.749
66059W        W37785  44.797  19.631  11.181
66060W        W37786   8.732  17.869   0.748
66061W        W37787   8.770   9.411   0.178
66062W        W37788  16.137  28.456   1.520
66063W        W37789  11.834  40.094   3.740
66064W        W37790  29.046  33.030  11.594
66065W        W37791  25.088  22.417  12.926
66066W        W37792  29.421  21.549   1.676
66067W        W37793   4.138   1.536  11.165
66068W        W37794   5.886  11.445   3.163
66069W        W37795  15.629  25.667   9.848
66070W        W37796  18.780  36.003  14.285
66071W        W37797  40.055  24.642   0.257
66072W        W37798  28.690   5.931   2.249
66073W        W37799   3.269  38.816   1.859
66074W        W37800  18.148  16.986   0.382
66075W        W37801  20.061  37.916   1.358
66076W        W37802  10.793  43.732   4.627
66077W        W37803  21.683  27.430   4.601
66078W        W37804   2.714   5.077   3.677
66079W        W37805  21.048  43.758  10.519
66080W        W37806  35.848  26.180  14.782
66081W        W37807  21.984  34.423   2.754
66082W        W37808  24.932  15.061   2.248
66083W        W37809  25.578  43.912   4.160
66084W        W37810  29.115  17.690  13.764
66085W        W37811  25.614   2.024   3.605
66086W        W37812  26.071  43.430  14.105
66087W        W37813  28.096  22.993  14.465
66088W        W37814  19.254   6.879  14.669
66089W        W37815   1.806  12.248   0.215
66090W        W37816  16.783  44.266   3.699
66091W        W37817   4.972   3.165   5.014
66092W        W37818  15.185  20.057   1.828
66093W        W37819  31.702  40.237   3.309
66094W        W37820  12.436  40.316  12.667
66095W        W37821  42.625  28.766  11.153
66096W        W37822  22.956   4.923   0.982
66097W        W37823   5.457   8.825   3.767
66098W        W37824  42.019   5.300  14.816
66099W        W37825  44.303  31.544   3.428
66100W        W37826  14.818   7.465  13.601
66101W        W37827  22.926  21.165  12.142
66102W        W37828  18.035  22.597   3.465
66103W        W37829   6.986  31.164  11.882
66104W        W37830  14.778  31.236  13.595
66105W        W37831  27.500  32.377  12.888
66106W        W37832  36.061  43.428  14.527
66107W        W37833  39.291  12.840  12.865
66108W        W37834  40.809  10.289  14.490
66109W        W37835   1.317  18.161  12.068
66110W        W37836  31.620  23.320   5.543
66111W        W37837   0.889  41.335   0.482
66112W        W37838  13.287  36.979   2.453
66113W        W37839  40.831  21.160  12.038
66114W        W37840  16.782  19.130   1.442
66115W        W37841  18.109  18.148   4.687
66116W        W37842   1.359  15.547  12.448
66117W        W37843  26.673  15.192   4.756
66118W        W37844  16.694  44.771   3.808
66119W        W37845   9.650  33.007   9.990
66120W        W37846  20.180  23.117  13.105
66121W        W37847  10.706  43.528   4.150
66122W        W37848  19.634   9.873  11.210
66123W        W37849  17.574  38.528  13.364
66124W        W37850   2.301  44.057  11.105
66125W        W37851  35.356   9.627  10.572
66126W        W37852   3.244   1.478   4.161
66127W        W37853  42.041  17.041  14.646
66128W        W37854  37.158  10.077  10.137
66129W        W37855  26.091   9.112   3.672
66130W        W37856  33.061  19.014   2.766
66131W        W37857  16.287   1.279   1.824
66132W        W37858  21.300  14.705  13.437
66133W        W37859  20.792  34.983  12.585
66134W        W37860  21.902  41.085   1.299
66135W        W37861  39.232  41.683  11.990
66136W        W37862   5.701  14.248  12.001
66137W        W37863  24.870  10.133   3.618
66138W        W37864  40.508   5.580  14.809
66139W        W37865  34.242   9.552   0.779
66140W        W37866   2.057  26.948   2.853
66141W        W37867  37.802   9.675  11.605
66142W        W37868  26.660  39.611   4.131
66143W        W37869  24.328   8.501  12.470
66144W        W37870   2.688   4.319   1.684
66145W        W37871  37.343   5.465  14.708
66146W        W37872  28.611  33.416  10.811
66147W        W37873   3.074  29.035  13.401
66148W        W37874  14.358   6.730   2.565
66149W        W37875  32.665  44.017   5.055
66150W        W37876  34.914  44.158  12.861
66151W        W37877   1.727   3.928  13.462
66152W        W37878  33.452  14.169   2.926
66153W        W37879   6.311  10.236   3.346
66154W        W37880  29.026  17.680  14.276
66155W        W37881  32.979  24.258  12.250
66156W        W37882  20.634  11.209  11.043
66157W        W37883  36.291  29.220  14.558
66158W        W37884  19.758   0.295  11.782
66159W        W37885   7.456  16.961   2.342
66160W        W37886  34.152  27.962  12.916
66161W        W37887  27.553  26.218  11.341
66162W        W37888  31.441  17.832   3.268
66163W        W37889  22.041  35.334   4.613
66164W        W37890  22.750  10.396   0.949
66165W        W37891  17.179  28.461  14.442
66166W        W37892  41.253  18.451   2.688
66167W        W37893   0.937   1.618  11.672
66168W        W37894  32.142  44.877   4.571
66169W        W37895  25.256  12.844   0.437
66170W        W37896  22.446   0.539  12.123
66171W        W37897  28.606  42.323  12.861
66172W        W37898  24.203  27.945   1.448
66173W        W37899  21.449   1.850   1.450
66174W        W37900   7.882   7.943  11.582
66175W        W37901  10.835  22.800  12.532
66176W        W37902   6.119  35.011  11.136
66177W        W37903  18.973  38.854   3.166
66178W        W37904  33.054  30.190  13.569
66179W        W37905  15.120  17.116  14.718
66180W        W37906  36.979  31.061  14.434
66181W        W37907  25.821  32.634   0.799
66182W        W37908   2.426  31.255  11.033
66183W        W37909  30.214  17.604   1.294
66184W        W37910  33.208  39.083  12.939
66185W        W37911  40.024  12.900  11.575
66186W        W37912  26.003  34.387   2.908
66187W        W37913  34.126  23.582  14.401
66188W        W37914  40.371  14.692   1.412
66189W        W37915  38.540  38.268   2.260
66190W        W37916   0.269   9.462   2.973
66191W        W37917  32.371  16.723  13.402
66192W        W37918  16.076   1.530   3.716
66193W        W37919  30.319  31.977   2.107
66194W        W37920  20.064  16.832  13.551
66195W        W37921  41.512   1.207  12.577
66196W        W37922  30.903  43.209   3.713
66197W        W37923  10.607  36.950  11.963
66198W        W37924   3.544  15.039  14.353
66199W        W37925  18.746  19.536  10.644
66200W        W37926   9.008  25.515   3.394
66201W        W37927  23.156  22.768  13.277
66202W        W37928  14.391  41.451   1.364
66203W        W37929  28.065  44.430   4.489
66204W        W37930  43.323   7.563   2.123
66205W        W37931  39.848  25.614   3.337
66206W        W37932  40.532  39.471   2.341
66207W        W37933  41.205  25.661  13.052
66208W        W37934  38.806  26.582   4.068
66209W        W37935  33.996  35.856  13.314
66210W        W37936  27.586  13.312   1.176
66211W        W37937   1.892  13.267   2.209
66212W        W37938  27.138  22.442   1.920
66213W        W37939   9.246  24.462  13.393
66214W        W37940  17.096  41.246   0.775
66215W        W37941  18.819   3.467  10.166
66216W        W37942  26.004   3.229  14.070
66217W        W37943   5.743   4.546  11.858
66218W        W37944  29.695   5.915   3.797
66219W        W37945  10.615   0.416  13.388
66220W        W37946  14.124  11.329  13.006
66221W        W37947   2.035  40.003   1.464
66222W        W37948  16.827   0.687  13.833
66223W        W37949   0.766  43.958   1.723
66224W        W37950  20.466   9.835   1.175
66225W        W37951  26.724  41.594  11.058
66226W        W37952  42.754   6.285   2.245
66227W        W37953  19.671  21.486  14.360
66228W        W37954  15.717   6.035  14.080
66229W        W37955  17.409  20.817   2.312
66230W        W37956  35.842  21.341   0.755
66231W        W37957  44.989  34.943   2.034
66232W        W37958   4.736  37.861  10.637
66233W        W37959  27.018   9.397   0.387
66234W        W37960   4.315   1.519  13.857
66235W        W37961  13.228  39.977   3.672
66236W        W37962  27.587  23.989   2.777
66237W        W37963  13.769  11.648   1.677
66238W        W37964  10.097  16.360  10.417
66239W        W37965   7.366  13.643  13.653
66240W        W37966  19.337  13.702  11.101
66241W        W37967  39.436   8.444  11.018
66242W        W37968   0.849  41.189   2.738
66243W        W37969  37.080  35.450  13.413
66244W        W37970  36.240  18.660  13.402
66245W        W37971  25.884  18.879  12.201
66246W        W37972   3.384   1.803   0.689
66247W        W37973   4.297  41.268  14.442
66248W        W37974  44.464  41.993  14.057
66249W        W37975  42.702   0.716  11.615
66250W        W37976  36.943  20.659   2.293
66251W        W37977  42.789  32.214  12.903
66252W        W37978   7.263  23.138   0.491
66253W        W37979  41.520  16.616  11.986
66254W        W37980  40.469  42.302  13.804
66255W        W37981   4.015  35.226  13.554
66256W        W37982  38.344  42.834  10.930
66257W        W37983  43.912  36.363   0.885
66258W        W37984  31.043  39.126  10.227
66259W        W37985  33.627   2.078  13.917
66260W        W37986  12.267   8.767   2.722
66261W        W37987  35.526  25.682  10.589
66262W        W37988  36.623  38.283   2.353
66263W        W37989  42.709   7.192   0.051
66264W        W37990  29.715   5.791   2.326
66265W        W37991  12.605   6.566   1.786
66266W        W37992  24.953  41.762  10.527
66267W        W37993  12.110  11.834  11.092
66268W        W37994   5.319   4.754  10.959
66269W        W37995  31.138  27.263   4.290
66270W        W37996  27.962   4.493   2.910
66271W        W37997  34.466  33.567   0.314
66272W        W37998  44.471  11.231   4.211
66273W        W37999  39.005  25.703  14.504
66274W        W38000   2.328  37.632   0.504
66275W        W38001  37.990  17.489  10.730
66276W        W38002  18.681  33.688  10.240
66277W        W38003  13.341  13.584   3.692
66278W        W38004  43.740  22.936  12.968
66279W        W38005  42.287   3.812  12.107
66280W        W38006  44.385  30.946  13.471
66281W        W38007  42.400  27.499   3.473
66282W        W38008  44.420  20.856  12.768
66283W        W38009  44.904  35.773  13.387
66284W        W38010  20.826   7.279  13.011
66285W        W38011  16.620   1.293   0.078
66286W        W38012  43.582   6.561  11.065
66287W        W38013  33.120  20.972   4.552
66288W        W38014  35.396  14.013   3.422
66289W        W38015  15.241  44.535  13.821
66290W        W38016  23.140   4.896  14.705
66291W        W38017  18.131  15.173  12.040
66292W        W38018  28.034   4.354  10.987
66293W        W38019  22.538  22.598  11.667
66294W        W38020   7.329  35.659  13.523
66295W        W38021  32.074  15.543   4.488
66296W        W38022  39.017  43.483   1.893
66297W        W38023  15.588   8.372   1.505
66298W        W38024  29.414   8.840  11.533
66299W        W38025  10.058  33.778  12.432
66300W        W38026   3.304   3.094   2.067
66301W        W38027  23.021  17.978  12.057
66302W        W38028   9.179  38.525   2.936
66303W        W38029   8.195   3.233   4.552
66304W        W38030  36.019  34.907  14.455
66305W        W38031   5.245  41.327   1.792
66306W        W38032  33.628   9.737  11.561
66307W        W38033  20.007  36.160   3.823
66308W        W38034  41.872   9.154  14.363
66309W        W38035  36.094  41.323  13.021
66310W        W38036  43.735  31.426   1.093
66311W        W38037   6.748  39.072   2.432
66312W        W38038  37.974  20.898  10.272
66313W        W38039  41.761  44.918  12.992
66314W        W38040  21.761   2.415  13.014
66315W        W38041  31.504  27.135   0.322
66316W        W38042   9.155   7.230   0.341
66317W        W38043  35.426  42.792   0.849
66318W        W38044  42.926   7.629  14.109
66319W        W38045  41.561  19.260  14.928
66320W        W38046  21.293  28.436   3.713
66321W        W38047   3.414   9.020   1.694
66322W        W38048   9.319  44.517   2.673
66323W        W38049  14.779  19.834  14.888
66324W        W38050   4.381  15.074  11.928
66325W        W38051  12.474  18.775   2.181
66326W        W38052  10.606  22.597   3.275
66327W        W38053  27.918   9.680  10.654
66328W        W38054   8.424  18.037   4.102
66329W        W38055   4.407   3.822  11.032
66330W        W38056  36.399   6.805  11.431
66331W        W38057  25.996  40.703  11.869
66332W        W38058   0.013  30.331   3.388
66333W        W38059   5.452   9.147  12.861
66334W        W38060   0.423  26.288  14.457
66335W        W38061  33.842   0.054   1.297
66336W        W38062  35.384  14.362  14.231
66337W        W38063  43.953  27.518  12.402
66338W        W38064   4.710  20.302  14.780
66339W        W38065  37.437  23.162   0.245
66340W        W38066  42.488  31.120   1.741
66341W        W38067   9.442  38.596  13.226
66342W        W38068   0.479   1.693   1.866
66343W        W38069   3.706  29.697   1.839
66344W        W38070  27.938  44.367  14.549
66345W        W38071  14.016  41.718  10.718
66346W        W38072   7.991  29.931   3.179
66347W        W38073  22.185  42.319   2.909
66348W        W38074   0.990  12.648   2.885
66349W        W38075   4.336  39.894  11.428
66350W        W38076  26.555   8.203  14.072
66351W        W38077  44.670  19.561  12.658
66352W        W38078  42.743  39.780  10.712
66353W        W38079  32.420  20.501   2.384
66354W        W38080  23.553  12.683   3.199
66355W        W38081   3.792  11.897  11.432
66356W        W38082  41.864  25.875  14.822
66357W        W38083   2.504  17.820  14.024
66358W        W38084  33.370  20.113  14.850
66359W        W38085  42.788  37.017  11.625
66360W        W38086  29.494   5.139  13.142
66361W        W38087  19.220  19.528  13.271
66362W        W38088  12.802  40.446  11.452
66363W        W38089  28.605  20.585  11.503
66364W        W38090  44.506  37.772   3.992
66365W        W38091   7.178   8.552  13.160
66366W        W38092  15.663  20.163   4.104
66367W        W38093  37.009  26.134   9.970
66368W        W38094  15.898  33.684   3.561
66369W        W38095   1.506  14.032  14.252
66370W        W38096  15.297   2.793   1.769
66371W        W38097   9.619  22.611  11.944
66372W        W38098   1.855  11.756   3.126
66373W        W38099  43.818  20.241  13.988
66374W        W38100  26.746  22.579  13.641
66375W        W38101  15.356  39.273   2.602
66376W        W38102  10.732  37.096   2.607
66377W        W38103  41.834   9.224  13.015
66378W        W38104   1.377   5.085  14.770
66379W        W38105  32.180   3.915   0.691
66380W        W38106  28.295  28.353   0.667
66381W        W38107  30.372   5.013  12.617
66382W        W38108  33.541  42.489   3.603
66383W        W38109  19.081   0.371  13.896
66384W        W38110  13.154  43.655  11.892
66385W        W38111  40.399   9.767  13.898
66386W        W38112  44.741   1.723  12.077
66387W        W38113  11.383  28.441   1.830
66388W        W38114   5.658  17.147   2.839
66389W        W38115   0.315  18.322  12.238
66390W        W38116  15.604  32.169   3.637
66391W        W38117  11.146  11.684  10.774
66392W        W38118  31.543   1.244  13.361
66393W        W38119  34.060  18.701  11.873
66394W        W38120  28.210   8.974  10.297
66395W        W38121   0.901   4.928   3.653
66396W        W38122   3.842  33.109   2.468
66397W        W38123   2.755   7.649   1.636
66398W        W38124  39.186  16.874   4.031
66399W        W38125  41.281   0.046  11.821
66400W        W38126  36.390   6.496  14.242
66401W        W38127  27.688  41.071   4.540
66402W        W38128   7.733  39.048  14.247
66403W        W38129   0.986  27.032   4.494
66404W        W38130  42.959  36.311   3.830
66405W        W38131  43.729  25.271   1.471
66406W        W38132   3.543  31.419   1.329
66407W        W38133  42.970  39.152   1.301
66408W        W38134  18.830  13.672  13.512
66409W        W38135  14.279  31.794   5.193
66410W        W38136   9.765  29.449  13.498
66411W        W38137  15.269  27.653  14.883
66412W        W38138  33.008  18.272   1.968
66413W        W38139  30.705  23.347   5.565
66414W        W38140  31.436  27.118   9.493
66415W        W38141   9.652  13.760   3.271
66416W        W38142   0.325  37.517  13.365
66417W        W38143  42.194  18.824   3.745
66418W        W38144  37.451  41.901  12.645
66419W        W38145  42.319  25.963  10.687
66420W        W38146  41.982  16.203   0.748
66421W        W38147   6.156  23.511  12.944
66422W        W38148   4.556  41.012  13.829
66423W        W38149  13.105  19.165  12.352
66424W        W38150  37.980  16.641  12.393
66425W        W38151  15.092  34.894   1.276
66426W        W38152  26.631  12.237   2.302
66427W        W38153  40.803  26.254  10.946
66428W        W38154  44.554  37.495  13.937
66429W        W38155   2.172  41.748   3.729
66430W        W38156  24.552   6.286   0.434
66431W        W38157  13.884  31.915   4.836
66432W        W38158  44.820   6.778   3.318
66433W        W38159  38.119  24.946  13.754
66434W        W38160  42.472  10.669   0.734
66435W        W38161   4.757  39.987   3.706
66436W        W38162  16.197   1.451  14.817
66437W        W38163  32.495   3.929   2.367
66438W        W38164  14.204  32.129   4.270
66439W        W38165  26.260  37.474   4.996
66440W        W38166  20.631  40.362   1.363
66441W        W38167  24.634   6.477  12.875
66442W        W38168   3.206  33.875   0.219
66443W        W38169  35.826  13.148  13.904
66444W        W38170  35.643  20.279  11.076
66445W        W38171  13.354   8.319   4.661
66446W        W38172  29.234  11.432  12.159
66447W        W38173   8.043  41.489   4.044
66448W        W38174  43.544  15.191  10.739
66449W        W38175  40.588  33.617   0.327
66450W        W38176  34.059  22.127   2.173
66451W        W38177  17.509  33.994  10.538
66452W        W38178  41.372  20.703   4.574
66453W        W38179  16.990  12.425   4.127
66454W        W38180   1.931  21.769   0.296
66455W        W38181  43.306  19.118  14.755
66456W        W38182  44.749  30.513  11.053
66457W        W38183  12.436   8.782   2.233
66458W        W38184  29.981  27.742   4.533
66459W        W38185  38.834  15.189  11.972
66460W        W38186   5.213  37.633  11.742
66461W        W38187  38.426  41.252  12.894
66462W        W38188  27.029  18.773   2.458
66463W        W38189  40.825  27.453   4.387
66464W        W38190  44.426   9.382   2.543
66465W        W38191  33.630  10.149   0.956
66466W        W38192   9.124  41.830   1.770
66467W        W38193  30.434   5.829   2.933
66468W        W38194  33.481  19.943   2.180
66469W        W38195  32.708  39.976  12.942
66470W        W38196   2.693  41.538  10.692
66471W        W38197   1.541  24.607  14.989
66472W        W38198  34.426   1.381   3.723
66473W        W38199  19.734   9.355  12.401
66474W        W38200  37.749   8.708   4.172
66475W        W38201  11.873  17.654   1.661
66476W        W38202  25.035  22.750   2.642
66477W        W38203  29.531  12.616  13.959
66478W        W38204   9.386  35.778   1.941
66479W        W38205  44.595  41.555  14.963
66480W        W38206  32.829  13.587  14.869
66481W        W38207   6.005   4.261   3.687
66482W        W38208  31.361  21.346   0.478
66483W        W38209  39.117  10.653  12.448
66484W        W38210  16.533   6.404  13.556
66485W        W38211   8.989  25.153  14.013
66486W        W38212  18.788  27.473   0.998
66487W        W38213  15.470  30.976   0.179
66488W        W38214  10.847  17.717   2.833
66489W        W38215   6.349   1.342   4.348
66490W        W38216  34.134  20.163  10.965
66491W        W38217  32.681  17.512   0.234
66492W        W38218  26.062  27.391  14.286
66493W        W38219  16.570  11.564  14.319
66494W        W38220  32.966  35.508   3.603
66495W        W38221   4.585  18.244   2.412
66496W        W38222   7.659   5.795  11.939
66497W        W38223  10.854  31.377  14.524
66498W        W38224   1.522  43.841   3.431
66499W        W38225  37.853  38.487  11.935
66500W        W38226  15.626  31.030   1.174
66501W        W38227  39.233   4.970  14.462
66502W        W38228  14.129  25.654  12.124
66503W        W38229   6.755  31.189  11.400
66504W        W38230   0.956  20.708   3.219
66505W        W38231   3.551  19.730  14.441
66506W        W38232  22.782  24.091  12.870
66507W        W38233   8.858  41.286   1.462
66508W        W38234   4.312  14.180  13.863
66509W        W38235   5.606  41.937   4.293
66510W        W38236  16.712  27.518   0.562
66511W        W38237  40.342  37.833   3.180
66512W        W38238  22.961  39.292  12.871
66513W        W38239   1.397  22.667   4.516
66514W        W38240  31.489  35.945  14.553
66515W        W38241  18.821  34.401  13.937
66516W        W38242  25.713  17.660   0.360
66517W        W38243  24.994  42.229   4.101
66518W        W38244   3.348  11.380   0.090
66519W        W38245  13.593  11.645   3.018
66520W        W38246   7.399   9.389   2.706
66521W        W38247  28.954  31.722  13.471
66522W        W38248  18.536  41.505  13.012
66523W        W38249  10.181  37.594   2.361
66524W        W38250   7.968  18.699   3.729
66525W        W38251   0.067   9.896   0.767
66526W        W38252  32.024  15.617   3.900
66527W        W38253  26.255  38.638  13.648
66528W        W38254  43.869  43.219   4.191
66529W        W38255  43.020  25.561  10.595
66530W        W38256  30.054  30.340  11.105
66531W        W38257   1.454   4.820   1.974
66532W        W38258  20.454   2.815  11.036
66533W        W38259  26.072   2.401  13.423
66534W        W38260   6.247  16.861   4.192
66535W        W38261  36.320  20.499  13.296
66536W        W38262   0.959  36.688   3.801
66537W        W38263  39.534   0.037   0.472
66538W        W38264  29.751   2.379  13.454
66539W        W38265  35.833  34.404  14.440
66540W        W38266   6.238  23.020   2.975
66541W        W38267  14.800  17.054  10.285
66542W        W38268  24.861   5.098   0.929
66543W        W38269  20.876  16.589  11.508
66544W        W38270  17.841  35.779   0.379
66545W        W38271  22.772  16.687  13.853
66546W        W38272   5.453  32.969  13.005
66547W        W38273   2.895  18.615  13.768
66548W        W38274   9.825  21.778  11.436
66549W        W38275  43.378  27.072   0.511
66550W        W38276  28.515  29.949   3.412
66551W        W38277  16.823  15.236  12.984
66552W        W38278   2.492  41.077   2.782
66553W        W38279  22.978   4.924  13.841
66554W        W38280  42.697   3.361   1.842
66555W        W38281  23.149  35.815  12.866
66556W        W38282  36.663   1.906  13.088
66557W        W38283  38.317  43.239   1.214
66558W        W38284  18.305  37.051   4.988
66559W        W38285  26.891  11.676  12.106
66560W        W38286  10.686  42.318  14.236
66561W        W38287  31.193  31.704   2.888
66562W        W38288  33.397   9.562  14.684
66563W        W38289  34.471  29.503  12.816
66564W        W38290  40.420  25.082   4.588
66565W        W38291  38.021  15.094  14.794
66566W        W38292  31.996   1.094   2.260
66567W        W38293  30.753  37.420  14.215
66568W        W38294  37.639  37.853   3.582
66569W        W38295   4.392  33.172   2.940
66570W        W38296  11.658  33.483  12.105
66571W        W38297  19.351  26.861   1.850
66572W        W38298  43.715  21.077   3.142
66573W        W38299  11.197  44.442   0.420
66574W        W38300  35.810  30.197  11.812
66575W        W38301  32.334  28.775   1.847
66576W        W38302   2.299  21.509  14.340
66577W        W38303  30.151  38.450  11.478
66578W        W38304  16.550   8.155  11.947
66579W        W38305  34.670  34.349  11.564
66580W        W38306  18.081   3.789   1.217
66581W        W38307  20.679  12.173  11.174
66582W        W38308  16.033  37.341   4.312
66583W        W38309  13.254  38.854  12.792
66584W        W38310  32.851  18.089  10.961
66585W        W38311  23.013  34.790   3.461
66586W        W38312   9.784  17.321   1.993
66587W        W38313  42.757  34.055  11.166
66588W        W38314  11.345   7.693   0.862
66589W        W38315  29.266  15.827  12.045
66590W        W38316  22.422  12.666   3.825
66591W        W38317  19.331  34.818   2.384
66592W        W38318   2.643  14.877   1.348
66593W        W38319  31.994  25.572  12.133
66594W        W38320  16.988  40.932   4.498
66595W        W38321  44.751  23.536  14.248
66596W        W38322  15.159  44.886  11.568
66597W        W38323  30.146  43.885  13.078
66598W        W38324  18.610  10.866   3.232
66599W        W38325  31.383   0.227  12.529
66600W        W38326  11.941  29.831  14.420
66601W        W38327  25.654  27.595   4.109
66602W        W38328  35.340   2.517  13.916
66603W        W38329  22.742   7.827   0.871
66604W        W38330   9.432   9.647  11.549
66605W        W38331  13.815  35.202  14.601
66606W        W38332   6.280  26.105   1.267
66607W        W38333  20.514   0.072  11.527
66608W        W38334  26.660  12.131  11.143
66609W        W38335  37.328  21.233   1.862
66610W        W38336   2.554  11.270   3.136
66611W        W38337  37.791  21.947  11.038
66612W        W38338  38.010   4.550  13.784
66613W        W38339  39.260  29.636  14.826
66614W        W38340  43.738  40.013  14.237
66615W        W38341   8.967  28.196  11.180
66616W        W38342  34.081  11.801   4.562
66617W        W38343   7.739   5.636   4.100
66618W        W38344  14.781  42.218  12.077
66619W        W38345  16.574  10.290  13.403
66620W        W38346  11.680  23.139  10.479
66621W        W38347  21.364   7.130  11.176
66622W        W38348  23.190  39.194  14.307
66623W        W38349  30.644   9.295   1.172
66624W        W38350  26.983  31.525   3.852
66625W        W38351  10.867  37.513   0.790
66626W        W38352   1.724  17.134  13.620
66627W        W38353  22.027  11.176  10.654
66628W        W38354  44.820  20.127  11.373
66629W        W38355  44.470   1.347  10.719
66630W        W38356  28.033  30.160  12.491
66631W        W38357  18.502  17.131   1.810
66632W        W38358  11.118   6.094  10.736
66633W        W38359  43.398  39.088  13.479
66634W        W38360  13.974  44.378  10.955
66635W        W38361   5.723  29.160   3.430
66636W        W38362  43.150  18.155  11.448
66637W        W38363  43.713  18.760   2.850
66638W        W38364  16.091  13.696  12.678
66639W        W38365  11.612  43.012  12.545
66640W        W38366  25.900  24.579   2.014
66641W        W38367  17.841  23.086   1.630
66642W        W38368  15.317  20.503   4.354
66643W        W38369  17.142  32.283   0.431
66644W        W38370  24.085  29.425  12.115
66645W        W38371  19.328  39.784  13.023
66646W        W38372  16.730  37.370  14.088
66647W        W38373   9.617  26.136  13.357
66648W        W38374  37.158  21.051   4.198
66649W        W38375  11.520  14.769   1.677
66650W        W38376  22.166  17.690   1.667
66651W        W38377   4.948  18.746  13.311
66652W        W38378   0.954  25.537   4.875
66653W        W38379  14.645  10.925   2.303
66654W        W38380  17.300  42.907  14.600
66655W        W38381   4.422  34.860  12.448
66656W        W38382   6.817  16.813  13.355
66657W        W38383  18.483   5.628  11.174
66658W        W38384   2.422  41.850   4.684
66659W        W38385  12.301  38.980  12.968
66660W        W38386  40.971  26.525  10.549
66661W        W38387  30.681  42.259   0.607
66662W        W38388   5.841  20.515   4.610
66663W        W38389  30.037   5.774   1.899
66664W        W38390  24.682  29.567  12.519
66665W        W38391  27.202  28.328   0.303
66666W        W38392  10.208  33.574  13.363
66667W        W38393  34.889   4.176  12.029
66668W        W38394  22.568  15.373  10.676
66669W        W38395  25.094  11.727  13.043
66670W        W38396  31.409  18.334  13.578
66671W        W38397   4.470  42.374  12.424
66672W        W38398  39.017  16.124  11.312
66673W        W38399  28.500  14.179  12.365
66674W        W38400   1.296  29.386   2.627
66675W        W38401   5.576  38.131  13.777
66676W        W38402   0.757  36.807  14.408
66677W        W38403  33.086  10.433  11.580
66678W        W38404   2.159  17.319  10.641
66679W        W38405  32.153  16.543   2.171
66680W        W38406  21.745  38.815  11.481
66681W        W38407   3.858   9.237  14.003
66682W        W38408  43.475  18.243   3.726
66683W        W38409   3.449  27.910   3.299
66684W        W38410  33.933  14.771  11.157
66685W        W38411  40.591  16.849  10.572
66686W        W38412  15.845  30.954  12.912
66687W        W38413  18.927  22.164   3.679
66688W        W38414  14.796  15.762  13.544
66689W        W38415   4.700  20.659  12.870
66690W        W38416   5.908  28.154  13.953
66691W        W38417  30.880  44.055  10.230
66692W        W38418   6.940  28.159  10.733
66693W        W38419  14.451  21.534  12.396
66694W        W38420  10.331   7.807   0.759
66695W        W38421  30.971  11.356   0.368
66696W        W38422  17.696   6.688  13.506
66697W        W38423  26.041   9.683   2.326
66698W        W38424  42.081  41.024  13.899
66699W        W38425  11.316  10.047  12.562
66700W        W38426  42.360  39.473   1.805
66701W        W38427   0.308   7.898  10.645
66702W        W38428  17.104  29.377   3.346
66703W        W38429   0.481  42.208   4.299
66704W        W38430  26.033  42.410  11.373
66705W        W38431   0.230  22.310   2.828
66706W        W38432  33.292  14.909  14.954
66707W        W38433  32.900  14.153   3.709
66708W        W38434  41.845  42.100   1.201
66709W        W38435  43.940  30.226   0.173
66710W        W38436   9.343  42.405  12.675
66711W        W38437  17.577  16.323   1.292
66712W        W38438  20.353  37.455   2.666
66713W        W38439  28.597   5.813  12.845
66714W        W38440  28.125  32.150  12.010
66715W        W38441  24.550  16.585   3.264
66716W        W38442   6.208  29.936   2.762
66717W        W38443  10.843  13.272   2.105
66718W        W38444  31.279  43.432   0.083
66719W        W38445  37.062  31.273  12.263
66720W        W38446   2.912  25.091  14.907
66721W        W38447  29.016   8.256  11.594
66722W        W38448  14.152  38.581   0.929
66723W        W38449  13.643   6.673   0.737
66724W        W38450   2.193  16.791  12.443
66725W        W38451  36.535  26.532  14.840
66726W        W38452  27.201  28.371  10.549
66727W        W38453  25.536  44.053   0.771
66728W        W38454  19.083  37.699   0.687
66729W        W38455  14.775  28.769   0.396
66730W        W38456  35.025  27.588  11.500
66731W        W38457  12.547  14.739   1.862
66732W        W38458   6.076  37.588   0.842
66733W        W38459  10.181   3.128  13.228
66734W        W38460   7.247  34.624  13.411
66735W        W38461  29.432  24.059   0.212
66736W        W38462   3.740  24.443  10.395
66737W        W38463  41.199  32.955   4.324
66738W        W38464  38.014  22.110  11.479
66739W        W38465  15.850  21.440  10.673
66740W        W38466   3.769  16.872   4.192
66741W        W38467  44.434  11.766  11.084
66742W        W38468   6.687  36.435  10.628
66743W        W38469  44.694  32.103  13.070
66744W        W38470  20.682  20.107   0.000
66745W        W38471  13.683  14.119  12.588
66746W        W38472   1.368   0.982   1.299
66747W        W38473  33.022  24.015  11.511
66748W        W38474  38.127  42.033   0.994
66749W        W38475  15.124  31.164  10.939
66750W        W38476   8.979  28.002  14.287
66751W        W38477  24.239   6.728  13.936
66752W        W38478   0.272  35.733  10.574
66753W        W38479  25.178  43.483  11.100
66754W        W38480  19.768   5.773   4.155
66755W        W38481   8.399  22.580  14.345
66756W        W38482   1.606  41.392  10.663
66757W        W38483  31.467   2.785  11.185
66758W        W38484  36.529  16.630  11.200
66759W        W38485  37.424  34.943   3.351
66760W        W38486  40.027  43.432   1.002
66761W        W38487  12.559  11.597   1.291
66762W        W38488  44.798  29.767   0.263
66763W        W38489   5.713  34.929  12.421
66764W        W38490  40.911   5.330  10.601
66765W        W38491  23.711  10.821   3.070
66766W        W38492   1.943  15.459  11.613
66767W        W38493   4.745  36.076  11.074
66768W        W38494  39.249  38.279  14.758
66769W        W38495  13.166  29.750  12.494
66770W        W38496  15.985  24.454  11.393
66771W        W38497  17.264   2.851  10.479
66772W        W38498   7.802   0.346   2.184
66773W        W38499   3.089  14.455  11.876
66774W        W38500  18.264  35.917  14.434
66775W        W38501  12.711  19.753  13.931
66776W        W38502  26.482   5.949   2.822
66777W        W38503  12.694  37.744  14.828
66778W        W38504  28.029  23.843  10.665
66779W        W38505  42.876  30.446  13.450
66780W        W38506  32.909  24.057   2.813
66781W        W38507  21.534  36.640  10.964
66782W        W38508  15.147  36.768  10.217
66783W        W38509  10.060  32.555  11.131
66784W        W38510  41.311  21.987   1.915
66785W        W38511  44.854  13.778  10.673
66786W        W38512   1.459  13.565   2.373
66787W        W38513  19.980  12.877  11.139
66788W        W38514   7.197  29.376   1.749
66789W        W38515   7.332  28.133   2.278
66790W        W38516  29.606  42.141   2.137
66791W        W38517  17.986  14.937   4.248
66792W        W38518  13.182   7.155   0.459
66793W        W38519  27.604  42.800  13.013
66794W        W38520   2.889  44.343  11.203
66795W        W38521  21.609  17.491   2.684
66796W        W38522  24.146  23.158   1.263
66797W        W38523  16.057   2.058   4.548
66798W        W38524  44.419  43.813   3.190
66799W        W38525  27.548  42.500   2.632
66800W        W38526   4.711  25.228  11.179
66801W        W38527  25.523  17.425  14.390
66802W        W38528  21.889   8.412  12.184
66803W        W38529  29.065   2.351  14.205
66804W        W38530  28.736   0.500  13.752
66805W        W38531   7.336   9.766  10.957
66806W        W38532  11.648   7.915   3.652
66807W        W38533   9.060  40.275  14.688
66808W        W38534  33.504  44.442  10.711
66809W        W38535  19.313  29.597   1.231
66810W        W38536  20.036   5.125  12.544
66811W        W38537  24.454  19.282  10.541
66812W        W38538  19.862  23.120  13.499
66813W        W38539   5.699  20.118  12.516
66814W        W38540  20.513  41.557  14.175
66815W        W38541  33.537  14.709  12.613
66816W        W38542  23.515  27.553  12.892
66817W        W38543   4.436   1.204  13.440
66818W        W38544  27.668  19.092   1.739
66819W        W38545  34.049   0.336   4.067
66820W        W38546   3.296  13.891   5.076
66821W        W38547  40.236  25.752  12.747
66822W        W38548   6.441  28.183  10.649
66823W        W38549  17.284   1.685   4.548
66824W        W38550   5.529  26.551  14.347
66825W        W38551   3.942  27.268  12.011
66826W        W38552  32.988  30.862   1.675
66827W        W38553  24.809   5.758  12.381
66828W        W38554  43.419   1.461  14.535
66829W        W38555  40.643   0.834  14.268
66830W        W38556   7.845   8.624  12.060
66831W        W38557  34.446  36.773  14.383
66832W        W38558  20.709  13.318  13.783
66833W        W38559  21.981  26.811  11.010
66834W        W38560   8.238  18.374  13.867
66835W        W38561  28.118  30.829   4.549
66836W        W38562   6.866  11.653   2.125
66837W        W38563  29.015  15.005   1.348
66838W        W38564  16.400  29.514  10.406
66839W        W38565  21.023  44.331   4.672
66840W        W38566   1.598  27.824   0.909
66841W        W38567  36.514  39.321  11.543
66842W        W38568  41.827  25.543   4.265
66843W        W38569   0.324  18.867  11.160
66844W        W38570  20.910  13.811   1.775
66845W        W38571  44.490  28.413  13.157
66846W        W38572  38.560  12.805   5.080
66847W        W38573  11.175  27.866  10.646
66848W        W38574  11.124  25.586  13.807
66849W        W38575   5.361  16.352  11.582
66850W        W38576  27.635   1.960  13.815
66851W        W38577  34.972  30.694  11.956
66852W        W38578  13.437  44.801   0.346
66853W        W38579   0.589  28.174  13.351
66854W        W38580  11.627  31.372  13.005
66855W        W38581  40.269   2.363  13.259
66856W        W38582   9.744  19.534   2.765
66857W        W38583  25.545   0.827  14.993
66858W        W38584  32.572  34.416   3.114
66859W        W38585  10.621  24.748   4.581
66860W        W38586  29.585  35.557  10.977
66861W        W38587  43.111  41.366  11.853
66862W        W38588  22.181  33.181   3.796
66863W        W38589  24.115  40.380  14.225
66864W        W38590  19.270   7.724   1.905
66865W        W38591  14.307  28.700  13.391
66866W        W38592   8.928  42.230  12.410
66867W        W38593  22.432  41.839   2.803
66868W        W38594   4.739  10.276   1.672
66869W        W38595  28.906  14.043  13.760
66870W        W38596  36.387   0.526   1.896
66871W        W38597  13.624  25.225   1.376
66872W        W38598  11.813  34.544   3.088
66873W        W38599  32.613  14.776  10.815
66874W        W38600  16.307  41.278   3.724
66875W        W38601  16.918  27.967   0.452
66876W        W38602  30.532  13.267  10.755
66877W        W38603   1.956   2.226   3.318
66878W        W38604  23.104  25.504   2.815
66879W        W38605  27.394  17.698   2.975
66880W        W38606  41.020  33.649   3.713
66881W        W38607   7.771  39.556  14.311
66882W        W38608  43.349  26.393   4.848
66883W        W38609  36.978   4.853  14.212
66884W        W38610   2.359  41.865   2.199
66885W        W38611  10.346  35.931   3.833
66886W        W38612  37.719  38.436  14.702
66887W        W38613  12.266  27.047   2.704
66888W        W38614   4.405   2.330   1.959
66889W        W38615   5.333  29.230  11.133
66890W        W38616  41.403  39.534  13.297
66891W        W38617  20.240   5.785   0.046
66892W        W38618  37.754  20.149   0.966
66893W        W38619  22.621  32.046   4.917
66894W        W38620  34.355  12.326   3.798
66895W        W38621  24.320  31.921  11.075
66896W        W38622  20.977  20.789  14.739
66897W        W38623   3.154  11.648   0.914
66898W        W38624  17.701  21.540   4.840
66899W        W38625  18.581  30.369  11.030
66900W        W38626   5.125  19.286  13.931
66901W        W38627  29.961  30.489  14.915
66902W        W38628  20.721  25.687  12.448
66903W        W38629  15.268   1.470  14.832
66904W        W38630  24.220  25.485   1.442
66905W        W38631  26.659  26.585   2.617
66906W        W38632  34.008  43.878  11.911
66907W        W38633  38.331  43.403  13.993
66908W        W38634  17.229   3.534  12.569
66909W        W38635  32.601  28.584   0.946
66910W        W38636  25.042  22.788   2.126
66911W        W38637  29.998  11.871  12.542
66912W        W38638  37.311  21.610  11.896
66913W        W38639   1.398  42.230  13.346
66914W        W38640  30.399  13.035  13.868
66915W        W38641   5.190  23.328  13.035
66916W        W38642  22.606   8.581   3.240
66917W        W38643   8.372   0.858   3.280
66918W        W38644  39.084  23.699   0.427
66919W        W38645  42.009  22.731   3.329
66920W        W38646  30.142   1.443   2.199
66921W        W38647  11.447  18.678   0.959
66922W        W38648  26.481  41.031   3.239
66923W        W38649  26.067  43.395  11.974
66924W        W38650   1.295  29.114   3.312
66925W        W38651  40.089  39.970  14.527
66926W        W38652  34.148  21.760   3.346
66927W        W38653   4.166   3.612  13.466
66928W        W38654  38.464  20.935   3.272
66929W        W38655  19.852  38.408   2.721
66930W        W38656  38.025  19.474  14.845
66931W        W38657  16.354  36.371  13.352
66932W        W38658   8.381  10.197  11.632
66933W        W38659  25.704   3.608   0.926
66934W        W38660  15.599  35.374  11.147
66935W        W38661  36.965  11.678   3.794
66936W        W38662  30.782  27.140   5.493
66937W        W38663   0.120  43.247  12.022
66938W        W38664  15.125   0.404  11.647
66939W        W38665  33.529  16.725  13.939
66940W        W38666   9.167   4.760  11.098
66941W        W38667  34.606  23.605   1.035
66942W        W38668  41.448  23.521  12.070
66943W        W38669  19.676  38.029  12.795
66944W        W38670  40.361  18.042  13.376
66945W        W38671   2.971  34.879   1.322
66946W        W38672   7.717  19.318  12.090
66947W        W38673  26.449  15.286   3.310
66948W        W38674  12.058   5.603   2.280
66949W        W38675   6.344  34.181   1.514
66950W        W38676  42.106  43.596   4.556
66951W        W38677   0.615  28.557  14.622
66952W        W38678  15.573  22.688   2.795
66953W        W38679  17.074  32.195   4.549
66954W        W38680   0.322  33.178  12.969
66955W        W38681  26.094  31.577  10.659
66956W        W38682   5.971  26.025   4.708
66957W        W38683  37.890  31.396   2.229
66958W        W38684  27.625  12.065   2.226
66959W        W38685  37.141  39.842  11.002
66960W        W38686  30.419  20.614  12.534
66961W        W38687   9.629  35.600  11.662
66962W        W38688  32.158  37.362   0.755
66963W        W38689  36.940  20.689   0.260
66964W        W38690   8.294  21.649   4.293
66965W        W38691  30.739  28.487   4.682
66966W        W38692  19.637  19.224  12.858
66967W        W38693  19.005  34.453  12.321
66968W        W38694  16.312  32.504   0.941
66969W        W38695   2.001  32.555   0.021
66970W        W38696   0.238  24.732  13.478
66971W        W38697   0.900   3.319   0.927
66972W        W38698   6.272  17.592  13.074
66973W        W38699  11.394  14.787   2.764
66974W        W38700  41.041  27.077  13.272
66975W        W38701  37.170  25.274  12.915
66976W        W38702  36.108   8.765   4.696
66977W        W38703  28.641   8.349  13.878
66978W        W38704  15.646  36.976   4.573
66979W        W38705  24.054  36.063  14.547
66980W        W38706   0.748   2.439   2.342
66981W        W38707  27.014  33.550   0.157
66982W        W38708   6.114  27.522   3.150
66983W        W38709  38.437   0.753  12.534
66984W        W38710  35.364  23.142  12.552
66985W        W38711  36.577   2.856   1.898
66986W        W38712  10.470  19.229  13.475
66987W        W38713  27.280  13.595   2.608
66988W        W38714   9.839  37.471   1.486
66989W        W38715  42.374  39.696   3.145
66990W        W38716   8.924  20.698   2.464
66991W        W38717  15.761  39.978  11.585
66992W        W38718   1.251   3.710  13.446
66993W        W38719   8.187   9.931  12.018
66994W        W38720  22.604   3.979   0.800
66995W        W38721   9.839  28.927   3.736
66996W        W38722  27.101  17.787  14.487
66997W        W38723  30.370  30.124   0.879
66998W        W38724  18.176  43.114   4.336
66999W        W38725  17.310  11.724  13.947
67000W        W38726  10.371   4.024  12.879
67001W        W38727  14.707  26.951   2.589
67002W        W38728   1.382  18.011   4.579
67003W        W38729  38.053   6.145  14.623
67004W        W38730  20.705  24.165   2.863
67005W        W38731   7.157  32.571   0.764
67006W        W38732  28.711  31.550  11.705
67007W        W38733  30.444  43.523  12.849
67008W        W38734  19.659  15.811  14.937
67009W        W38735   3.807  10.885  10.923
67010W        W38736  27.048  16.041   0.959
67011W        W38737  30.914  18.666   2.927
67012W        W38738  39.380   6.674   4.168
67013W        W38739  26.940  31.177   0.321
67014W        W38740  15.224  10.987  14.981
67015W        W38741   5.221  23.638   2.000
67016W        W38742  24.466   8.643  14.423
67017W        W38743  33.514   7.818  12.079
67018W        W38744   7.457  14.895  14.383
67019W        W38745  21.721   7.036   1.283
67020W        W38746   5.931  34.354  11.545
67021W        W38747  40.356   4.895  10.637
67022W        W38748  14.556   0.303   1.328
67023W        W38749  33.206  20.607  14.494
67024W        W38750   6.982  28.661   2.398
67025W        W38751  20.105  41.469   4.160
67026W        W38752  24.731  17.983  14.382
67027W        W38753  22.074  19.622  14.484
67028W        W38754   6.795   0.100   1.892
67029W        W38755  22.008  33.037  14.255
67030W        W38756  29.566   5.390   4.510
67031W        W38757  25.258  39.063   2.719
67032W        W38758   5.798  36.461   0.226
67033W        W38759  32.402  22.736  14.890
67034W        W38760  23.926  39.799   0.539
67035W        W38761  13.653  30.919   2.915
67036W        W38762  25.977  15.786   4.655
67037W        W38763  27.509  12.799   4.513
67038W        W38764  43.307   7.926   4.501
67039W        W38765  14.735  20.819   4.337
67040W        W38766  11.310  36.883   4.722
67041W        W38767   8.460   5.242  12.732
67042W        W38768  40.006  29.511   1.754
67043W        W38769  32.998  33.839   4.203
67044W        W38770  22.788   7.205   4.246
67045W        W38771  30.409  39.544   3.329
67046W        W38772   0.488  25.835   4.852
67047W        W38773  21.004   3.007   0.926
67048W        W38774  43.625  36.346  12.399
67049W        W38775  10.362  35.140  14.613
67050W        W38776  30.534  22.496  12.629
67051W        W38777  34.676  28.110   4.749
67052W        W38778  41.947  18.101  10.725
67053W        W38779  39.065  28.177   5.247
67054W        W38780  19.588  24.084  14.988
67055W        W38781   1.397  36.058   2.349
67056W        W38782  25.621  42.426   4.741
67057W        W38783  21.121  34.110   1.392
67058W        W38784   9.417  12.086   3.677
67059W        W38785  32.962  38.382  10.638
67060W        W38786   8.704  28.576   0.644
67061W        W38787   1.962  43.998  13.453
67062W        W38788  35.917   8.764   2.015
67063W        W38789  32.654  22.215  13.932
67064W        W38790  27.749  15.555   1.733
67065W        W38791  39.423  40.785  13.930
67066W        W38792  25.357  43.283   9.823
67067W        W38793  36.138  35.932   4.577
67068W        W38794  36.612  16.268  12.535
67069W        W38795  23.129   6.641  14.410
67070W        W38796  15.679  25.563  14.855
67071W        W38797  15.218   9.579   2.065
67072W        W38798  16.168  39.297  12.595
67073W        W38799  15.703   2.296  10.642
67074W        W38800  39.358   9.796  12.947
67075W        W38801  32.375   3.416   2.368
67076W        W38802  31.705  33.531  12.775
67077W        W38803   3.259  39.765  11.425
67078W        W38804   2.367  44.460   4.265
67079W        W38805  12.886  44.442  10.153
67080W        W38806   0.290   3.799  11.993
67081W        W38807  40.584  32.062   4.532
67082W        W38808  33.014   5.973   3.723
67083W        W38809  30.002   8.897  12.520
67084W        W38810  15.341  35.976  13.837
67085W        W38811   2.384  10.942  14.891
67086W        W38812  42.546  34.717  12.906
67087W        W38813  23.456  25.526  13.677
67088W        W38814  32.422  21.622   3.810
67089W        W38815   6.885  32.453   4.305
67090W        W38816   3.541  12.609  11.640
67091W        W38817  34.302  27.602  13.663
67092W        W38818  31.946  10.120   4.606
67093W        W38819   9.316  36.438   3.205
67094W        W38820  28.601  43.536  12.622
67095W        W38821  34.525  42.805   0.958
67096W        W38822   9.163  17.736  12.981
67097W        W38823  16.811  40.852  10.862
67098W        W38824  34.171   2.589  10.978
67099W        W38825   7.768  38.947   1.804
67100W        W38826  37.822  40.621  10.603
67101W        W38827  30.010  37.818  12.082
67102W        W38828  28.668  35.287   4.914
67103W        W38829  18.177   5.156   0.256
67104W        W38830  44.597   0.592  11.313
67105W        W38831  27.888  41.553   2.651
67106W        W38832  21.096  35.986   1.057
67107W        W38833   1.841  43.777  12.982
67108W        W38834  43.983  41.990  14.482
67109W        W38835   9.621  12.378  12.453
67110W        W38836  38.086   6.854   3.841
67111W        W38837  28.443  42.443   0.908
67112W        W38838  39.472  37.996   1.097
67113W        W38839  17.132  15.895  10.067
67114W        W38840  29.968  14.795  14.030
67115W        W38841  21.541  18.608   3.915
67116W        W38842  29.464  21.742  12.082
67117W        W38843  16.575  36.842   3.630
67118W        W38844   0.867  10.664  13.789
67119W        W38845  21.547  33.522  12.040
67120W        W38846  28.957  19.550   0.991
67121W        W38847   3.266  43.031  11.177
67122W        W38848  32.125  13.404  11.798
67123W        W38849  10.894  36.846  10.626
67124W        W38850   1.378  23.229   0.288
67125W        W38851   5.008  17.008  14.714
67126W        W38852  36.073  23.009   0.854
67127W        W38853  38.086  40.312   3.433
67128W        W38854  24.888   3.377   1.219
67129W        W38855   1.983  39.314  10.709
67130W        W38856  27.532   0.619   5.107
67131W        W38857   5.394  14.976   0.948
67132W        W38858  41.307  15.726  14.274
67133W        W38859  30.427   2.215  14.130
67134W        W38860  37.961  44.494  11.522
67135W        W38861  41.160  29.138   3.342
67136W        W38862  26.459  12.165  14.401
67137W        W38863   2.588  11.208   1.328
67138W        W38864  28.338   7.767  11.694
67139W        W38865  18.683  34.950  10.072
67140W        W38866  14.261  43.963   1.824
67141W        W38867  14.370  12.736  10.010
67142W        W38868   7.621  29.967   4.744
67143W        W38869  25.056  39.041   0.459
67144W        W38870  20.754  19.044  11.375
67145W        W38871  44.894  16.819  10.701
67146W        W38872  38.374  32.824  11.510
67147W        W38873  25.114  41.480  14.774
67148W        W38874  15.765  28.263   1.190
67149W        W38875  37.977  24.443   2.344
67150W        W38876  12.794  29.386   4.290
67151W        W38877  16.672   9.966   0.719
67152W        W38878  19.202  23.007   4.680
67153W        W38879   1.794  35.941  13.972
67154W        W38880  33.635   1.537  13.814
67155W        W38881  32.466  37.405   0.090
67156W        W38882  40.940  11.607   4.755
67157W        W38883  39.814  17.818   2.367
67158W        W38884  44.491   9.643   0.783
67159W        W38885   7.661  36.743   2.830
67160W        W38886  39.169   2.222   1.616
67161W        W38887  30.924  30.092  13.902
67162W        W38888  43.807  42.229   2.603
67163W        W38889  24.865  39.980   2.331
67164W        W38890  33.864  18.700  13.453
67165W        W38891   5.959  44.916   4.589
67166W        W38892  28.749   3.209   4.720
67167W        W38893   1.062  34.917  12.305
67168W        W38894  29.115  26.494  11.602
67169W        W38895   2.849  39.634   0.840
67170W        W38896   6.825  17.277   1.461
67171W        W38897  33.074  33.375   0.713
67172W        W38898  21.634  31.080  14.255
67173W        W38899  32.549   5.804  13.351
67174W        W38900   5.621  32.921  11.586
67175W        W38901   7.667  14.781   3.041
67176W        W38902   0.330  13.602  13.735
67177W        W38903  38.094   7.731   3.779
67178W        W38904  39.638  10.583   1.405
67179W        W38905  20.696   2.052  11.690
67180W        W38906  21.623  21.784   4.646
67181W        W38907  25.278   0.326  13.450
67182W        W38908  12.396  40.801   1.842
67183W        W38909  10.383  34.196  14.941
67184W        W38910  28.266  39.060   2.893
67185W        W38911  32.929  34.410   2.421
67186W        W38912  15.530  20.015  14.516
67187W        W38913  26.425   2.758   3.582
67188W        W38914  15.755  24.117  13.046
67189W        W38915   8.453  24.975  11.134
67190W        W38916   9.854  30.055   3.134
67191W        W38917  23.845  38.306   2.753
67192W        W38918  32.414  33.443  12.020
67193W        W38919  27.627  14.624  12.096
67194W        W38920  10.623  28.005  13.489
67195W        W38921  25.502  29.227   4.802
67196W        W38922   6.975   4.755  13.934
67197W        W38923   5.426   7.634   1.405
67198W        W38924  21.344  28.386  12.823
67199W        W38925  38.468  32.366   3.816
67200W        W38926  42.030   3.814  13.477
67201W        W38927  28.618  33.998  13.787
67202W        W38928  12.155  24.092   0.005
67203W        W38929  33.087   3.236  13.024
67204W        W38930  26.853  36.940   3.800
67205W        W38931   6.166  29.095   3.188
67206W        W38932  41.509  28.936   1.201
67207W        W38933  40.209   5.432   3.102
67208W        W38934  43.749  12.761   1.850
67209W        W38935  13.835   7.512  12.599
67210W        W38936  36.371   9.188   3.380
67211W        W38937   7.611  24.421   5.437
67212W        W38938  41.560   2.847  13.823
67213W        W38939  15.494  29.094   4.601
67214W        W38940  44.310  40.043  10.510
67215W        W38941  27.093  26.064  13.509
67216W        W38942   3.118   2.282  13.899
67217W        W38943   9.414  31.307  13.036
67218W        W38944  11.298  22.560  12.440
67219W        W38945  41.825  34.928  10.619
67220W        W38946   8.690  34.193  14.480
67221W        W38947   5.882   0.761   4.722
67222W        W38948   5.514   9.824  10.777
67223W        W38949   8.694  17.760  14.330
67224W        W38950  32.855  38.915   2.621
67225W        W38951  13.183  41.197  14.939
67226W        W38952  38.251  11.470  10.529
67227W        W38953  13.073  19.796   0.303
67228W        W38954  20.657  27.723   5.551
67229W        W38955  34.697  26.522   1.658
67230W        W38956  43.393  39.721   4.148
67231W        W38957   9.135   3.373  14.994
67232W        W38958  29.068  42.305   2.716
67233W        W38959  24.729  28.039  12.005
67234W        W38960   4.818  26.293  10.270
67235W        W38961  25.135   2.667   0.291
67236W        W38962  19.088  20.656   3.904
67237W        W38963   3.843  21.132  13.044
67238W        W38964  29.611  27.907   4.175
67239W        W38965   9.248  23.108   2.821
67240W        W38966  22.638  42.427  11.724
67241W        W38967  33.324  17.605   2.840
67242W        W38968  10.837  21.153   2.341
67243W        W38969  22.992  16.605   1.316
67244W        W38970  37.010   1.746  13.789
67245W        W38971  32.062   7.675   4.106
67246W        W38972  26.581   3.252   3.638
67247W        W38973  15.167   2.540  11.155
67248W        W38974  38.156  14.129  14.150
67249W        W38975  36.782  34.611  11.830
67250W        W38976  37.302  29.508  11.150
67251W        W38977  35.402  12.288   4.619
67252W        W38978  18.254   8.319  12.941
67253W        W38979  20.589  18.783   4.131
67254W        W38980  13.959  16.185  14.559
67255W        W38981   9.257  21.768   0.716
67256W        W38982  22.110  31.469   1.839
67257W        W38983  31.115  32.014  13.298
67258W        W38984  24.373  44.948   3.758
67259W        W38985  27.876  30.541  11.632
67260W        W38986   0.349  28.942   2.197
67261W        W38987  27.999   7.379  12.614
67262W        W38988  20.278   1.994  13.449
67263W        W38989  14.639   0.131  11.041
67264W        W38990   2.253   3.787   2.413
67265W        W38991   0.972  12.522  13.000
67266W        W38992  30.464  14.726  13.113
67267W        W38993   9.196   4.960   3.493
67268W        W38994  15.266   9.823   0.555
67269W        W38995  29.058  38.293  12.037
67270W        W38996   4.158  28.622   2.899
67271W        W38997  44.323  23.068   1.221
67272W        W38998   8.145  21.745   2.949
67273W        W38999  30.204  21.179   1.542
67274W        W39000  40.493   1.701  12.570
67275W        W39001  12.910  39.526  11.044
67276W        W39002  16.049  44.725  11.978
67277W        W39003  30.434  35.846   2.775
67278W        W39004  43.097  20.468   3.415
67279W        W39005  26.155   6.183   1.526
67280W        W39006   9.946  26.137   5.361
67281W        W39007  27.037   0.719   3.851
67282W        W39008   3.185  24.748   2.855
67283W        W39009  32.983  25.745   3.179
67284W        W39010  32.408   1.689  12.546
67285W        W39011  28.982  29.719  13.600
67286W        W39012  36.543   6.197  13.680
67287W        W39013   5.263  22.157  11.610
67288W        W39014  36.379  41.706   1.974
67289W        W39015  22.143  33.922   0.453
67290W        W39016  41.032  44.522   2.565
67291W        W39017  16.061  41.226  12.522
67292W        W39018  14.632  31.807  13.156
67293W        W39019   2.425  10.803   3.372
67294W        W39020  19.173   6.422  11.528
67295W        W39021  16.255   4.368   4.728
67296W        W39022  31.606  21.684   2.473
67297W        W39023  42.241  22.671  10.484
67298W        W39024  29.294  26.439   0.320
67299W        W39025  19.316   1.347   1.848
67300W        W39026   2.260  13.294   4.461
67301W        W39027  26.279  28.148  12.013
67302W        W39028  35.282   8.369  14.839
67303W        W39029  30.130   7.399  10.845
67304W        W39030  17.319  17.042   5.014
67305W        W39031  39.954  19.006   0.842
67306W        W39032   9.703  14.490  13.593
67307W        W39033  28.923   6.973  14.367
67308W        W39034  13.892   6.860  11.261
67309W        W39035  26.008  24.453  14.293
67310W        W39036  41.416  24.603   0.346
67311W        W39037  44.979  34.833   4.863
67312W        W39038  36.149  21.209   3.182
67313W        W39039  29.212  34.497  11.174
67314W        W39040  21.802   7.721  13.128
67315W        W39041  38.494  33.536  11.026
67316W        W39042  16.677  36.046  10.599
67317W        W39043  41.506  40.813   1.341
67318W        W39044  40.305   5.118  12.063
67319W        W39045  23.090  30.015  12.030
67320W        W39046  35.059   4.767   2.841
67321W        W39047  32.054  44.316  12.391
67322W        W39048  25.219   1.915  12.493
67323W        W39049  23.550   9.000  13.815
67324W        W39050  23.021  42.271   3.427
67325W        W39051   8.631  14.208   0.346
67326W        W39052  19.718  41.810   3.594
67327W        W39053  37.659  44.196   4.055
67328W        W39054  13.667  10.419   4.164
67329W        W39055   7.971   3.481  14.409
67330W        W39056   2.712  18.515  12.454
67331W        W39057  17.320   5.510  13.530
67332W        W39058   6.373  39.461   4.834
67333W        W39059  24.078  32.435  13.859
67334W        W39060  32.676  13.177  14.289
67335W        W39061  41.361  42.384   0.426
67336W        W39062   3.406  19.795   0.203
67337W        W39063  43.496   6.255   2.786
67338W        W39064  21.213  25.500  13.686
67339W        W39065  12.407  24.221  13.548
67340W        W39066  41.021  35.057  12.553
67341W        W39067   9.092  28.936  10.735
67342W        W39068  12.615   6.685   4.595
67343W        W39069  41.704  11.538  10.552
67344W        W39070  39.515  24.457   3.939
67345W        W39071  44.527  17.268   2.452
67346W        W39072  22.006  43.850   3.619
67347W        W39073  13.457   0.972  10.909
67348W        W39074   0.311  35.523   3.069
67349W        W39075   9.742  19.051   2.627
67350W        W39076  36.178  34.516  11.805
67351W        W39077  14.292  19.739   1.502
67352W        W39078  27.027  29.364   1.493
67353W        W39079   1.757  27.749   2.346
67354W        W39080  38.971  41.340  11.498
67355W        W39081  23.041   5.021  12.848
67356W        W39082  42.239   4.496   2.879
67357W        W39083  26.534  15.118   2.452
67358W        W39084  42.974  39.869  12.022
67359W        W39085  26.258  32.019   1.800
67360W        W39086  11.267  35.145  14.471
67361W        W39087  27.186  44.257  12.151
67362W        W39088  28.493  32.052   1.428
67363W        W39089  33.692  30.319  14.357
67364W        W39090   5.342  20.545   1.706
67365W        W39091  35.858  17.404   3.129
67366W        W39092  36.321  29.991  11.912
67367W        W39093  17.666  23.308   4.144
67368W        W39094  33.433  35.865  13.989
67369W        W39095  41.617  16.645  10.720
67370W        W39096   1.056  44.506   5.095
67371W        W39097  28.857  37.790  11.192
67372W        W39098  37.923  39.454   1.665
67373W        W39099  43.389  35.516   2.220
67374W        W39100  39.996   4.258  11.194
67375W        W39101  32.416  11.662  13.419
67376W        W39102   0.301  14.983  14.449
67377W        W39103  39.336   9.285  12.968
67378W        W39104  14.155   6.428  13.002
67379W        W39105   1.658  15.622   2.350
67380W        W39106   0.929   7.728   0.336
67381W        W39107   4.131  23.186  13.042
67382W        W39108   2.063  29.954   4.073
67383W        W39109  22.756  29.926  10.628
67384W        W39110  24.468   2.932   0.666
67385W        W39111  39.866  29.513  12.010
67386W        W39112  23.488  37.858   1.054
67387W        W39113  37.790  15.823  11.108
67388W        W39114  38.755  37.083  14.454
67389W        W39115  29.991  19.308  12.444
67390W        W39116  12.929  12.217   3.269
67391W        W39117  39.805  15.546  13.562
67392W        W39118  27.895   7.232   3.626
67393W        W39119  25.011  29.075   1.299
67394W        W39120  33.461  17.389  10.676
67395W        W39121  18.998  18.066  13.961
67396W        W39122   1.734   7.350   0.395
67397W        W39123  37.138  21.012   3.408
67398W        W39124   2.499   3.317   2.395
67399W        W39125  26.592   1.256   1.327
67400W        W39126   7.748  34.813  13.436
67401W        W39127  30.188  20.120   2.136
67402W        W39128  12.322  27.521  10.668
67403W        W39129  35.133  25.391  13.452
67404W        W39130   3.743  44.951   2.868
67405W        W39131  35.096  16.568  14.340
67406W        W39132   9.349  35.956   1.035
67407W        W39133  35.575  16.767   3.640
67408W        W39134   7.910  41.873  10.777
67409W        W39135  39.866  36.533  14.115
67410W        W39136  44.314  41.367   3.979
67411W        W39137  24.125  40.378   1.183
67412W        W39138  26.568  27.435  14.445
67413W        W39139  17.817  40.307   1.387
67414W        W39140  36.175  44.926   3.267
67415W        W39141  20.169  13.573   4.589
67416W        W39142   2.869  43.242   1.731
67417W        W39143  25.831  42.269  12.386
67418W        W39144  44.295  35.110   0.399
67419W        W39145   5.334  23.695  13.435
67420W        W39146  30.396  16.064  14.093
67421W        W39147  38.914   5.119   5.083
67422W        W39148  34.902  34.157  14.910
67423W        W39149  39.443  33.137   0.771
67424W        W39150  27.571  16.961  11.523
67425W        W39151   9.819  19.084  10.699
67426W        W39152  27.520   4.324  11.889
67427W        W39153  17.687  42.691   2.256
67428W        W39154  22.010  12.303  11.077
67429W        W39155  33.552   5.359  10.373
67430W        W39156  34.520  32.857  13.876
67431W        W39157  16.160  18.095   4.588
67432W        W39158   8.219  26.032  14.797
67433W        W39159  41.977  16.688   3.290
67434W        W39160  22.235  10.509   2.575
67435W        W39161  10.312   9.183   0.408
67436W        W39162  39.367  29.244   0.181
67437W        W39163  19.208  33.561   3.838
67438W        W39164  13.549  37.521  12.593
67439W        W39165   5.246   2.426   3.197
67440W        W39166  38.526  28.480   0.431
67441W        W39167  24.770  38.996  12.347
67442W        W39168   0.274   4.385  10.686
67443W        W39169  23.976  27.708  12.558
67444W        W39170  10.679  33.382  10.037
67445W        W39171  32.165  15.876   5.224
67446W        W39172  32.076  24.984   0.378
67447W        W39173  34.169   5.219  14.500
67448W        W39174  30.510  18.263   2.025
67449W        W39175  13.881   5.252   2.212
67450W        W39176  19.822  35.137   4.097
67451W        W39177  38.349  26.183  11.565
67452W        W39178  27.725  21.286   3.738
67453W        W39179  32.623  17.537  14.006
67454W        W39180  30.578  39.753  14.409
67455W        W39181  25.939  11.378  12.921
67456W        W39182  23.768   3.925  13.218
67457W        W39183  23.480  32.331   2.204
67458W        W39184  35.890  21.399  14.425
67459W        W39185  31.545  39.031  14.859
67460W        W39186  25.048  12.840  14.015
67461W        W39187   5.182  20.204  12.547
67462W        W39188  31.929   8.959  10.405
67463W        W39189  20.837  35.544   1.770
67464W        W39190  35.720  13.362   1.905
67465W        W39191  38.038  35.199  11.413
67466W        W39192  31.849  42.369  10.416
67467W        W39193  37.935  22.334  12.202
67468W        W39194  33.928   3.850  12.115
67469W        W39195  12.407  44.871   0.421
67470W        W39196   0.191  32.149  12.930
67471W        W39197  39.972   2.440   3.626
67472W        W39198  11.544   5.860  14.095
67473W        W39199  43.976   3.498   0.677
67474W        W39200  26.906  17.047  13.804
67475W        W39201  19.994  38.463  11.560
67476W        W39202  23.219  43.433   3.287
67477W        W39203   7.225  12.282   2.950
67478W        W39204  24.993  15.592   2.308
67479W        W39205  36.830   0.899  13.703
67480W        W39206   9.167   5.227   2.254
67481W        W39207  14.132  36.545   1.482
67482W        W39208  29.617  37.690   2.193
67483W        W39209  18.193   9.860  14.923
67484W        W39210  16.905   5.199   2.358
67485W        W39211  43.763  32.381  11.167
67486W        W39212   4.970  26.169   2.559
67487W        W39213   8.723  39.475   3.978
67488W        W39214  11.698  17.808  10.300
67489W        W39215  44.749  11.238   0.943
67490W        W39216  42.792  13.754   5.087
67491W        W39217  37.369   2.961   0.366
67492W        W39218  28.699  17.152   2.745
67493W        W39219   8.610  31.650   4.890
67494W        W39220  17.536  26.050   2.648
67495W        W39221   8.140  34.441   3.667
67496W        W39222   9.068  16.835  13.417
67497W        W39223  13.565   1.924  14.898
67498W        W39224  22.568  15.218  11.189
67499W        W39225  35.991  42.321   4.476
67500W        W39226  26.854   4.737   2.466
67501W        W39227   8.145  31.043  13.202
67502W        W39228  37.389  13.564  10.680
67503W        W39229  36.564   3.277  10.606
67504W        W39230  18.104  21.245   2.133
67505W        W39231  36.315  27.653   0.516
67506W        W39232  29.014  19.293   1.753
67507W        W39233  28.601  40.829   2.840
67508W        W39234   8.942  41.723  12.633
67509W        W39235  20.354  41.325  13.675
67510W        W39236  36.895  13.793  10.641
67511W        W39237  22.199  34.904   0.937
67512W        W39238   1.022  32.697   1.469
67513W        W39239  36.643   7.356   2.018
67514W        W39240  35.538  12.740   4.299
67515W        W39241  29.178  42.918   4.296
67516W        W39242  11.018  44.872   2.727
67517W        W39243  26.440  44.716   4.521
67518W        W39244  40.285   4.295  13.972
67519W        W39245  32.476  44.394   0.299
67520W        W39246  34.801  42.852   2.748
67521W        W39247  13.828  31.860   0.458
67522W        W39248  22.585  17.622  13.607
67523W        W39249  32.265  14.746  13.379
67524W        W39250  36.691  12.155  12.792
67525W        W39251  11.300  44.415  14.395
67526W        W39252  11.900   7.680  10.677
67527W        W39253   5.486  38.539  12.109
67528W        W39254   9.272  13.713   0.971
67529W        W39255  44.887  25.689   0.437
67530W        W39256  22.346  37.126  13.965
67531W        W39257  14.512  33.909  13.343
67532W        W39258   3.465   7.931   2.216
67533W        W39259  29.623  11.284  13.508
67534W        W39260  42.871  20.735  10.856
67535W        W39261  30.591   0.557   3.347
67536W        W39262  13.221  11.357  13.519
67537W        W39263  14.691   6.397  11.599
67538W        W39264  30.886   1.977  13.407
67539W        W39265  15.071   0.085  10.764
67540W        W39266  43.408  38.606  13.309
67541W        W39267  31.846  15.758  13.886
67542W        W39268   6.027  14.436  13.753
67543W        W39269  38.478  16.774  12.515
67544W        W39270   2.339  29.031  13.109
67545W        W39271  33.848  27.538   2.913
67546W        W39272  39.011   4.463  10.383
67547W        W39273  32.850   3.284  10.719
67548W        W39274  42.262  34.397  14.484
67549W        W39275  16.161   6.962   0.738
67550W        W39276   2.955  35.081  12.141
67551W        W39277  33.426   6.280  12.354
67552W        W39278  37.965   8.855  10.684
67553W        W39279  21.267  42.577  11.128
67554W        W39280  41.758  36.500   3.436
67555W        W39281  12.201  42.740   2.755
67556W        W39282  40.420  11.058   1.730
67557W        W39283  43.211  33.145   9.976
67558W        W39284   8.083  29.003   2.176
67559W        W39285  28.091  21.207   2.801
67560W        W39286  40.339  28.594   0.939
67561W        W39287  11.933  33.885  14.482
67562W        W39288  42.558   3.702   4.168
67563W        W39289  44.573  42.013   0.769
67564W        W39290  35.728   0.916  12.961
67565W        W39291  13.649   1.572  12.989
67566W        W39292  13.195  10.679   4.744
67567W        W39293  36.295  38.794  13.635
67568W        W39294  41.526  24.611   1.457
67569W        W39295   2.352  32.522  13.506
67570W        W39296  31.871  32.225  13.959
67571W        W39297  33.864  27.771  13.940
67572W        W39298  31.704   5.168  11.082
67573W        W39299   8.425   4.776   0.910
67574W        W39300   6.424  17.071  11.584
67575W        W39301  14.952  14.187   4.491
67576W        W39302  12.411  13.151   0.035
67577W        W39303  25.277   0.332  12.535
67578W        W39304  26.158   9.778  11.091
67579W        W39305   2.689  13.218   0.861
67580W        W39306  40.441  26.707   2.898
67581W        W39307  27.434  11.993   4.017
67582W        W39308   4.465  29.466  12.453
67583W        W39309  29.537  40.127   2.697
67584W        W39310  39.530  40.991  11.000
67585W        W39311   8.145  34.215   5.374
67586W        W39312  14.747  40.247   1.306
67587W        W39313   3.294  13.976  14.394
67588W        W39314   9.315  44.820  13.379
67589W        W39315  14.663   3.728  12.023
67590W        W39316  36.208  18.154  11.191
67591W        W39317  31.421  41.778  12.483
67592W        W39318  30.116  12.213  13.573
67593W        W39319  15.302  20.554  14.350
67594W        W39320  30.832  23.316  14.188
67595W        W39321  38.896  27.130   2.405
67596W        W39322  40.322  36.348   3.151
67597W        W39323   8.612   5.621  10.470
67598W        W39324  19.781  34.865  12.403
67599W        W39325  16.532  27.646   3.755
67600W        W39326  13.144  33.533   2.048
67601W        W39327  35.006  44.309  10.246
67602W        W39328  35.545  17.442  14.974
67603W        W39329   1.819  29.875  11.912
67604W        W39330  38.724   3.929  12.090
67605W        W39331  10.457   1.085  10.480
67606W        W39332  20.610  40.461  10.336
67607W        W39333  39.413  22.032   3.196
67608W        W39334  16.848  44.318   0.901
67609W        W39335  16.610  30.384   2.831
67610W        W39336   6.189  43.195   0.933
67611W        W39337  42.518  44.271  14.916
67612W        W39338   3.855  36.666   1.038
67613W        W39339  13.788  23.272   4.910
67614W        W39340  38.333   6.180   0.861
67615W        W39341   6.276  15.840   5.268
67616W        W39342  43.426  14.700   2.919
67617W        W39343  24.762   1.739  11.122
67618W        W39344  33.424  28.457  10.627
67619W        W39345  42.815  24.084   3.601
67620W        W39346   0.077  32.125  11.985
67621W        W39347  36.964  37.478  10.761
67622W        W39348  16.792   3.809  11.585
67623W        W39349  36.063  37.317   2.320
67624W        W39350  24.252  16.049  14.194
67625W        W39351  29.639  22.529  12.485
67626W        W39352  30.093  36.970  11.476
67627W        W39353  43.993  13.488  11.982
67628W        W39354  20.228  16.732  14.956
67629W        W39355  33.446  44.731   3.275
67630W        W39356  35.456   4.937  11.602
67631W        W39357   3.269  42.232  13.411
67632W        W39358   0.330  29.458  14.103
67633W        W39359  37.541   2.263   3.844
67634W        W39360  34.549   2.575   0.282
67635W        W39361   1.631  16.903   4.920
67636W        W39362  31.930  37.200   4.120
67637W        W39363  37.954  29.648  12.517
67638W        W39364  34.384   0.354  12.606
67639W        W39365   1.920  18.759   3.260
67640W        W39366  25.950  27.890   0.875
67641W        W39367  22.202   6.882   1.217
67642W        W39368  26.516  32.877   3.750
67643W        W39369  34.912  28.962  13.829
67644W        W39370  25.096  16.460   3.745
67645W        W39371   8.884   1.378  11.913
67646W        W39372   9.606  29.200   1.127
67647W        W39373  33.620   3.968   1.966
67648W        W39374  44.475   0.062   0.821
67649W        W39375   7.017  42.580  12.256
67650W        W39376  37.986  40.189  14.548
67651W        W39377  37.481  16.613  12.183
67652W        W39378  44.275  20.739   1.183
67653W        W39379  16.192  20.252  14.010
67654W        W39380  34.776  33.541  12.505
67655W        W39381  25.450   9.232   1.883
67656W        W39382  14.713  32.078  14.435
67657W        W39383  41.076  24.504  14.034
67658W        W39384  12.075   9.877   1.014
67659W        W39385   4.427  27.542   0.795
67660W        W39386   6.770  44.267  11.121
67661W        W39387  39.941  38.130  12.648
67662W        W39388   3.462  41.470   3.751
67663W        W39389  41.109  20.603   0.003
67664W        W39390  16.226  24.055   0.862
67665W        W39391   4.782  24.398  13.306
67666W        W39392  34.600  40.919   0.519
67667W        W39393  39.013   6.862   1.781
67668W        W39394  28.540  34.095  14.308
67669W        W39395  32.945  20.083   3.315
67670W        W39396  28.253  44.944  12.906
67671W        W39397  16.700  42.250  13.313
67672W        W39398   6.637  30.016   1.711
67673W        W39399  28.182  25.570   3.851
67674W        W39400  30.080  28.652   1.954
67675W        W39401  14.198  31.176   2.315
67676W        W39402  31.123  15.204   0.444
67677W        W39403  41.540  37.369  11.813
67678W        W39404  20.768  28.772  14.555
67679W        W39405  22.436   6.572  13.609
67680W        W39406  22.580  42.209  13.470
67681W        W39407   8.414   9.213   3.861
67682W        W39408  20.309  25.088  14.484
67683W        W39409   4.456  36.717   4.596
67684W        W39410  39.954  14.099  13.815
67685W        W39411  19.821  14.863   1.225
67686W        W39412  34.113  25.101   1.913
67687W        W39413   3.147  27.021  12.479
67688W        W39414  38.137  21.086  13.780
67689W        W39415  20.018  41.953  14.383
67690W        W39416  35.739  34.863   2.475
67691W        W39417   4.716  24.619  12.484
67692W        W39418  29.960  24.264  11.546
67693W        W39419  31.189  31.404  14.081
67694W        W39420  21.200  13.769  14.778
67695W        W39421  31.245  44.701   0.335
67696W        W39422  41.008  15.700  12.137
67697W        W39423  25.517  19.489   1.300
67698W        W39424  26.996   9.283   2.757
67699W        W39425  43.300  22.721   2.621
67700W        W39426  42.527  20.809   0.853
67701W        W39427   7.487  16.106  12.122
67702W        W39428  41.294   3.716  10.462
67703W        W39429   4.119  25.081   4.890
67704W        W39430   5.290  35.144   4.506
67705W        W39431  18.889  15.997  10.227
67706W        W39432  17.613  30.901   2.478
67707W        W39433  19.729  18.730  12.763
67708W        W39434   8.388  34.144   2.790
67709W        W39435  41.419  13.897  10.676
67710W        W39436   7.659  33.569  12.532
67711W        W39437  27.164  27.594  11.229
67712W        W39438  41.965  12.624  13.907
67713W        W39439  25.151  34.130  13.626
67714W        W39440  41.930  29.427  11.804
67715W        W39441  12.122  10.732  11.485
67716W        W39442  35.326   7.668   1.904
67717W        W39443  23.598  16.107  13.397
67718W        W39444  25.658  43.438   0.402
67719W        W39445  22.100  25.362   2.220
67720W        W39446   1.252  21.108   3.351
67721W        W39447  34.028  42.634   3.773
67722W        W39448  16.150  15.913   4.109
67723W        W39449  25.694  43.288   0.904
67724W        W39450  30.662  15.108  13.974
67725W        W39451   0.940  12.056   4.247
67726W        W39452  15.383  43.438   3.581
67727W        W39453  22.712  21.259   4.682
67728W        W39454  24.723   6.892  13.834
67729W        W39455  14.286  38.130  10.639
67730W        W39456  41.376  21.656   4.624
67731W        W39457  37.149  41.594   2.304
67732W        W39458   4.790  40.688  10.645
67733W        W39459  36.350  28.968  12.035
67734W        W39460  14.959  31.648  14.595
67735W        W39461   7.663  16.613   0.951
67736W        W39462  19.685  28.800  14.826
67737W        W39463  21.203  30.137   4.574
67738W        W39464  33.557  10.585  14.900
67739W        W39465  34.812  26.627  10.633
67740W        W39466  40.084  20.293   3.220
67741W        W39467  35.844  44.989   2.273
67742W        W39468   2.831  35.356   1.453
67743W        W39469  24.164  22.843   0.780
67744W        W39470  21.014  38.513   1.957
67745W        W39471  13.389  31.624  14.331
67746W        W39472   8.384   9.991  13.438
67747W        W39473  10.347  11.513  11.150
67748W        W39474  11.884  38.867   4.185
67749W        W39475  18.539  22.001   4.726
67750W        W39476  39.773  14.321   2.763
67751W        W39477  21.645   0.409  11.800
67752W        W39478  22.931  36.511  10.910
67753W        W39479  31.997  30.195   2.920
67754W        W39480  17.644  30.649   4.184
67755W        W39481  30.642  39.797  14.954
67756W        W39482  37.404   4.874   2.272
67757W        W39483  34.219  41.816   3.546
67758W        W39484  36.239  25.669  11.995
67759W        W39485  36.391  42.255   1.976
67760W        W39486  14.932  24.113   1.222
67761W        W39487  32.680  14.297   3.261
67762W        W39488  21.616   7.532   1.206
67763W        W39489  27.519  25.740   4.606
67764W        W39490  35.876  25.626  12.357
67765W        W39491  15.237   2.154  10.404
67766W        W39492  12.837  43.668   3.879
67767W        W39493  36.045  27.966   3.342
67768W        W39494  20.975   3.705   5.124
67769W        W39495   4.316  27.717   1.271
67770W        W39496  33.983  26.758  11.816
67771W        W39497  30.004  27.140  11.622
67772W        W39498  14.315  10.745   2.697
67773W        W39499  10.410  18.615   2.276
67774W        W39500   0.662   7.326  11.585
67775W        W39501  36.892  24.325   0.156
67776W        W39502  38.299  39.749  13.732
67777W        W39503  15.647  19.321  11.053
67778W        W39504   4.160  16.110   4.470
67779W        W39505  27.269  28.501  11.682
67780W        W39506  32.620  40.094   0.809
67781W        W39507  19.083  34.991  10.713
67782W        W39508  25.433  37.592  14.416
67783W        W39509  43.246  21.263   0.381
67784W        W39510   7.658   7.181   3.247
67785W        W39511   9.114  17.015  14.844
67786W        W39512   5.961  13.918  13.761
67787W        W39513  21.609  41.978   3.405
67788W        W39514  20.479  43.841  13.376
67789W        W39515  41.001  10.414   2.325
67790W        W39516  26.091  42.397  13.887
67791W        W39517  14.885  11.002   4.166
67792W        W39518  21.519   8.359   1.910
67793W        W39519  38.013  16.705   3.033
67794W        W39520   3.079  36.431   0.747
67795W        W39521  25.270  14.149  10.028
67796W        W39522  32.408  28.954   3.877
67797W        W39523  14.081  26.517  13.117
67798W        W39524  25.756  10.327   0.287
67799W        W39525  43.498  43.427   3.302
67800W        W39526  21.247  24.562   1.302
67801W        W39527  33.930  18.628   0.890
67802W        W39528  34.711  22.127  14.842
67803W        W39529  15.930  20.777   0.370
67804W        W39530   5.200  18.804   2.869
67805W        W39531  32.077  32.051   2.885
67806W        W39532   6.640  22.478   4.085
67807W        W39533  37.580   6.794   2.681
67808W        W39534  44.212  17.596   1.230
67809W        W39535  34.387  14.727  13.866
67810W        W39536  38.021  24.618   4.275
67811W        W39537  10.155  23.740  10.751
67812W        W39538  37.942  37.483   0.039
67813W        W39539   0.807  16.403  11.620
67814W        W39540   0.089  33.630   0.064
67815W        W39541  24.496   6.300   0.945
67816W        W39542  18.132  21.349  12.442
67817W        W39543   6.315  40.364   2.153
67818W        W39544  30.831  43.479  10.739
67819W        W39545  21.048   6.636  11.995
67820W        W39546  44.825  37.853  14.346
67821W        W39547  19.118  37.308  14.343
67822W        W39548  16.365  34.237   0.994
67823W        W39549  38.717  16.670  10.985
67824W        W39550  19.065  27.022  10.612
67825W        W39551  21.956   4.846   4.095
67826W        W39552  21.769   8.343   3.761
67827W        W39553  21.022  27.656  11.213
67828W        W39554  36.852   6.574  13.959
67829W        W39555   1.004  26.935  14.855
67830W        W39556  41.959  15.044   4.100
67831W        W39557  37.524  43.291  12.659
67832W        W39558  10.822  32.610  11.697
67833W        W39559   5.742  10.745  14.802
67834W        W39560  10.829   6.846  12.084
67835W        W39561  25.618  32.193   4.602
67836W        W39562  41.500  23.297  14.361
67837W        W39563   7.851  24.883   1.400
67838W        W39564  13.159  11.426   1.688
67839W        W39565  42.307  38.785  13.921
67840W        W39566  22.966   8.909  10.644
67841W        W39567  24.205  32.920   4.154
67842W        W39568   9.374  42.191  11.167
67843W        W39569   1.020  18.054  11.619
67844W        W39570   3.929  21.171  13.606
67845W        W39571  37.895  22.016   2.785
67846W        W39572  17.756   5.345   1.764
67847W        W39573  44.574  29.431   1.793
67848W        W39574  39.657  41.023   2.828
67849W        W39575   6.344   1.244  14.011
67850W        W39576  26.768  15.747  12.130
67851W        W39577   1.987  44.521  10.632
67852W        W39578  14.000  12.777   2.641
67853W        W39579  24.073  13.181  10.205
67854W        W39580   1.364   0.213  10.631
67855W        W39581  12.530  39.330   0.801
67856W        W39582  35.339  22.448   4.107
67857W        W39583   5.712  23.202  14.398
67858W        W39584  21.518  19.687  12.432
67859W        W39585  43.250   5.200  10.463
67860W        W39586  13.696  18.174   0.741
67861W        W39587  28.106  43.775   3.829
67862W        W39588   4.242  16.821   2.353
67863W        W39589  19.171  20.614   4.913
67864W        W39590   3.879  43.314   4.302
67865W        W39591  25.171  40.958  14.755
67866W        W39592  19.466  35.436  13.294
67867W        W39593  42.410  44.511   2.896
67868W        W39594  33.262  40.507   0.436
67869W        W39595  25.366  39.951   0.073
67870W        W39596  32.158  11.652   1.726
67871W        W39597  28.213   3.731   3.293
67872W        W39598  38.781   8.741  11.139
67873W        W39599  34.899   1.724   4.264
67874W        W39600  33.826  27.892   0.771
67875W        W39601  13.828  12.674  12.464
67876W        W39602  31.054   1.614  10.754
67877W        W39603  42.620   4.336   0.362
67878W        W39604  32.551  11.857  11.203
67879W        W39605  33.389  30.172   2.722
67880W        W39606   1.450   7.276   4.857
67881W        W39607  42.548   8.812   3.266
67882W        W39608  30.620  42.303  13.532
67883W        W39609  37.345   3.737   0.795
67884W        W39610  42.929  39.485  12.361
67885W        W39611  29.155  16.785   0.838
67886W        W39612  28.933  10.073   1.240
67887W        W39613  16.663   7.399   2.286
67888W        W39614  30.548  43.332   4.483
67889W        W39615  17.185  38.089   1.479
67890W        W39616  26.260   6.502  14.922
67891W        W39617  23.016  15.610   1.412
67892W        W39618  37.987  19.741   0.745
67893W        W39619  29.812  32.887   3.162
67894W        W39620  42.555  30.281  10.628
67895W        W39621   5.303   7.478   4.356
67896W        W39622  39.968  12.091   4.081
67897W        W39623  16.065   8.123  13.617
67898W        W39624   8.192   4.495   4.275
67899W        W39625  28.963   5.189  11.325
67900W        W39626  21.759   7.358  10.865
67901W        W39627   2.405  38.478  11.027
67902W        W39628  16.411  22.074  13.321
67903W        W39629  34.188  35.356  14.705
67904W        W39630   2.298  43.305  13.567
67905W        W39631  16.281  22.004   0.286
67906W        W39632  26.415  21.825   4.625
67907W        W39633  23.620  35.683   0.337
67908W        W39634  42.183  32.890   1.333
67909W        W39635   1.181  35.964   1.875
67910W        W39636  41.047  25.124  13.454
67911W        W39637  11.240  44.970   4.556
67912W        W39638  28.710  29.205  14.519
67913W        W39639  13.252  24.451   3.850
67914W        W39640  27.781  19.832  14.015
67915W        W39641  14.251  12.656   1.629
67916W        W39642  18.698   8.786   2.186
67917W        W39643  25.431  16.887  13.120
67918W        W39644  32.581  13.451   1.751
67919W        W39645   9.297   3.513   1.452
67920W        W39646   4.410   9.296  14.004
67921W        W39647  40.328   9.829   3.153
67922W        W39648   2.907  19.665  14.357
67923W        W39649  35.988   2.955   1.908
67924W        W39650   3.283   5.860  11.561
67925W        W39651  25.145   0.951   2.636
67926W        W39652  16.233  25.840  11.172
67927W        W39653  10.812  32.608   4.575
67928W        W39654  23.959  14.161  10.347
67929W        W39655  30.424  19.662   2.216
67930W        W39656  13.175  27.341  11.220
67931W        W39657  18.219  22.093   1.014
67932W        W39658  20.191   4.103   3.309
67933W        W39659  17.941  17.768  12.627
67934W        W39660   9.350  19.719  11.967
67935W        W39661  29.242  22.615   2.728
67936W        W39662  21.684  19.188   1.875
67937W        W39663   2.529   0.653  12.399
67938W        W39664  27.376  41.586   2.693
67939W        W39665   7.222  19.249  11.225
67940W        W39666   4.882  22.167   1.840
67941W        W39667  14.259  31.140  14.348
67942W        W39668  19.869  33.020   4.186
67943W        W39669  16.818  31.367  14.343
67944W        W39670  41.905  17.318   4.563
67945W        W39671  42.023   1.190  14.331
67946W        W39672  28.639  44.444   0.219
67947W        W39673   7.790  37.204   2.630
67948W        W39674  39.554  16.844   2.268
67949W        W39675  28.969  16.017  10.555
67950W        W39676  13.697  36.062   4.638
67951W        W39677  13.852   1.757  12.021
67952W        W39678  10.556   1.845  11.186
67953W        W39679  35.378   5.902  12.889
67954W        W39680  44.681  35.784  11.984
67955W        W39681  11.795  32.102  14.021
67956W        W39682  41.265  24.521  10.761
67957W        W39683  21.702  40.380   2.695
67958W        W39684  29.668   7.399   1.336
67959W        W39685  18.483  35.953   2.965
67960W        W39686  32.511  32.056  14.674
67961W        W39687  29.729  31.442  14.031
67962W        W39688  13.085   0.894  12.374
67963W        W39689  30.671  28.624  12.969
67964W        W39690   1.446  12.824   4.702
67965W        W39691  29.388  26.680  14.480
67966W        W39692  23.466  17.358  10.531
67967W        W39693  11.171  31.979  12.113
67968W        W39694  11.330  25.661   4.318
67969W        W39695  10.815   7.920  13.506
67970W        W39696   4.351   0.955   3.271
67971W        W39697   3.355  17.565   3.270
67972W        W39698  14.010  36.866  11.562
67973W        W39699   1.362  37.115   1.467
67974W        W39700  16.840   8.609   1.755
67975W        W39701  19.550  13.618   0.803
67976W        W39702  28.215  35.150   4.627
67977W        W39703  19.462   4.185  12.603
67978W        W39704   2.358   5.398  14.916
67979W        W39705   5.923   3.883  13.052
67980W        W39706  14.815  35.942   3.313
67981W        W39707  18.549  38.472  13.554
67982W        W39708  42.826  19.322  12.978
67983W        W39709  27.427  18.194  13.897
67984W        W39710   8.356  32.415  12.979
67985W        W39711   5.112  10.259   0.982
67986W        W39712  23.124   4.492   4.617
67987W        W39713  28.627  23.803  11.907
67988W        W39714  44.031   8.123   1.814
67989W        W39715   3.003  21.727   0.126
67990W        W39716  27.428  21.574  12.970
67991W        W39717   7.198  17.207  10.822
67992W        W39718  34.609  25.071  14.091
67993W        W39719   2.283   4.487  11.187
67994W        W39720  28.887  35.285   3.224
67995W        W39721  34.668  40.810   1.399
67996W        W39722  26.127  41.325  12.920
67997W        W39723  37.295   0.871  13.971
67998W        W39724  37.195  41.892   1.854
67999W        W39725  23.127  40.518  10.437
68000W        W39726  11.766  25.513  14.324
68001W        W39727  33.462   0.485  12.913
68002W        W39728  17.649  32.928  12.980
68003W        W39729  44.958  19.713  13.532
68004W        W39730  32.345   6.751  12.795
68005W        W39731  29.049  43.450  11.938
68006W        W39732  15.703  17.839  12.995
68007W        W39733  29.881  11.761  13.536
68008W        W39734  21.843  35.412  14.771
68009W        W39735   6.860  34.852   3.118
68010W        W39736   2.132   8.650   3.054
68011W        W39737   8.205  43.206   3.745
68012W        W39738  15.212   6.127   3.972
68013W        W39739  31.347  32.647   0.341
68014W        W39740  32.300  14.570   2.361
68015W        W39741  15.787  19.177   4.270
68016W        W39742  28.739  26.441   0.281
68017W        W39743  22.064  43.248  12.949
68018W        W39744  27.288   5.360  10.708
68019W        W39745  32.328  44.687  13.022
68020W        W39746   6.223   9.382  13.414
68021W        W39747  22.175  14.253  14.956
68022W        W39748  41.448  10.201  13.881
68023W        W39749  19.738  15.808  10.670
68024W        W39750  31.935   5.775   4.541
68025W        W39751  17.925  32.233  13.322
68026W        W39752  39.524  33.971  12.889
68027W        W39753  39.317  44.071  12.362
68028W        W39754  34.908   8.826   3.084
68029W        W39755  31.175  33.466  12.833
68030W        W39756  31.575  25.743   5.699
68031W        W39757  26.512   5.783   3.737
68032W        W39758  14.560   6.319   4.227
68033W        W39759  22.832  36.678   1.242
68034W        W39760  44.766  25.261   1.368
68035W        W39761  40.493   0.945   0.843
68036W        W39762  29.848  36.779   2.061
68037W        W39763   9.120   8.502  12.080
68038W        W39764  12.547  13.427  14.346
68039W        W39765  19.354   5.143   3.497
68040W        W39766   8.010  27.996  13.372
68041W        W39767  11.642  15.368  10.685
68042W        W39768   9.358  35.856  12.053
68043W        W39769  31.390   5.883   3.281
68044W        W39770  43.897   8.627  10.767
68045W        W39771  31.124  10.098  14.125
68046W        W39772  34.034  27.064   3.176
68047W        W39773   3.319  15.612   3.520
68048W        W39774  15.141   7.957   0.426
68049W        W39775  33.659  11.228   3.144
68050W        W39776  18.374  13.353  11.638
68051W        W39777   1.513  19.730   2.431
68052W        W39778  14.028  42.823   4.223
68053W        W39779  34.365   5.945   1.230
68054W        W39780  15.587   5.254  12.264
68055W        W39781   5.463  28.734   2.614
68056W        W39782  11.235   3.016   3.744
68057W        W39783  37.841  19.242   3.326
68058W        W39784  26.723  19.585  14.732
68059W        W39785  18.016  17.753   2.618
68060W        W39786  26.510  16.297   2.643
68061W        W39787  11.813  21.258   2.357
68062W        W39788   4.700  40.162  10.704
68063W        W39789  29.036  27.569   3.667
68064W        W39790  44.678  13.202   3.690
68065W        W39791  24.733  31.408   3.271
68066W        W39792  22.893  25.340   5.536
68067W        W39793  26.014   7.386   2.276
68068W        W39794  31.541  39.278  14.389
68069W        W39795  36.900   6.991   1.397
68070W        W39796   7.042   1.835  10.676
68071W        W39797   8.189  13.680   4.239
68072W        W39798  34.844  24.990  11.107
68073W        W39799  37.780  32.056   4.272
68074W        W39800  24.419  23.728   0.263
68075W        W39801   9.294  12.426   1.320
68076W        W39802  23.117  21.947  14.306
68077W        W39803  27.084   4.727  11.429
68078W        W39804  26.443  40.527   4.174
68079W        W39805  17.671  43.914  13.187
68080W        W39806  21.772  25.596  11.456
68081W        W39807   7.458  23.905  14.830
68082W        W39808  14.652   8.620  11.676
68083W        W39809  19.744  44.480   0.533
68084W        W39810  12.932  16.403   4.870
68085W        W39811  40.871  18.816  14.499
68086W        W39812   7.435  34.872  12.991
68087W        W39813   1.718  32.923  10.562
68088W        W39814  30.598   5.329   3.714
68089W        W39815   9.720  17.702  11.070
68090W        W39816  15.570  11.079  13.666
68091W        W39817  19.310  29.721  14.858
68092W        W39818  24.914  18.246   2.824
68093W        W39819  33.361  31.658   0.408
68094W        W39820  16.230  12.321  13.275
68095W        W39821  44.752  31.546  13.910
68096W        W39822  20.513  29.980   4.360
68097W        W39823   2.197  29.714  14.340
68098W        W39824  17.604   6.595   2.578
68099W        W39825  19.071  21.003  11.508
68100W        W39826  23.767  35.512   2.843
68101W        W39827  23.713  14.900   0.476
68102W        W39828  19.647   8.765   3.671
68103W        W39829  15.137  18.999  11.190
68104W        W39830  43.010   3.344  10.648
68105W        W39831   1.928   3.913   3.648
68106W        W39832   3.243  37.279  11.395
68107W        W39833  18.993  40.512   3.238
68108W        W39834  13.128  26.278  13.445
68109W        W39835  28.208  16.316  14.355
68110W        W39836  34.513  31.753  11.612
68111W        W39837  40.238   4.830   4.700
68112W        W39838  35.402  39.234  11.017
68113W        W39839  13.852  10.871   1.286
68114W        W39840   0.186   1.548   0.506
68115W        W39841  25.513  31.885  13.835
68116W        W39842   8.192  40.048  12.022
68117W        W39843   7.838  20.945   3.223
68118W        W39844  14.047  15.174   4.875
68119W        W39845  16.271  17.114   0.706
68120W        W39846  34.516  24.662  13.226
68121W        W39847  17.602  30.593   0.510
68122W        W39848  10.193  38.511  10.741
68123W        W39849   6.919  39.198   0.297
68124W        W39850  37.556  14.612   1.459
68125W        W39851  40.416  41.939  12.402
68126W        W39852   0.214  31.677  11.081
68127W        W39853  44.363   2.169  11.024
68128W        W39854  23.638  43.447   3.621
68129W        W39855   6.707  24.863  10.953
68130W        W39856  14.299  21.085   4.295
68131W        W39857   2.923  18.389   4.451
68132W        W39858  38.246  25.023   2.358
68133W        W39859  27.835  20.312  12.861
68134W        W39860  29.270  18.710  14.962
68135W        W39861   0.360  35.585   2.557
68136W        W39862  28.416   1.509  13.718
68137W        W39863  26.072  29.562  14.920
68138W        W39864  42.507   7.695  12.371
68139W        W39865  16.124  13.127  11.169
68140W        W39866  35.405  14.455  10.590
68141W        W39867  30.412  37.526   0.153
68142W        W39868  13.268   2.320  13.563
68143W        W39869  41.461  21.521   1.383
68144W        W39870  43.079  29.544   0.804
68145W        W39871   9.355  35.100  11.610
68146W        W39872  39.421  23.288  10.423
68147W        W39873   4.159  25.588  13.656
68148W        W39874  20.273  29.156  12.301
68149W        W39875  24.216  10.769  12.966
68150W        W39876  22.093   1.394  12.591
68151W        W39877  40.449  10.746   3.230
68152W        W39878  19.591  24.060   4.743
68153W        W39879  43.906   5.714   2.581
68154W        W39880   2.777  12.153  14.452
68155W        W39881  16.771  21.283   2.842
68156W        W39882  20.437  32.581   0.754
68157W        W39883  19.670  10.295  10.931
68158W        W39884  44.014  41.748  13.986
68159W        W39885   8.157   1.233   3.572
68160W        W39886  42.020  18.663   1.238
68161W        W39887  14.848  44.206  10.644
68162W        W39888  18.965  29.049  11.985
68163W        W39889  18.669  22.734  14.137
68164W        W39890   5.976  12.600   3.710
68165W        W39891  37.917  41.412  10.195
68166W        W39892  11.165  21.450   3.278
68167W        W39893  31.118   9.779   4.280
68168W        W39894  25.031  29.146  12.430
68169W        W39895  33.962  34.065  11.457
68170W        W39896  16.324  38.401  14.791
68171W        W39897  14.107  21.444  11.051
68172W        W39898   3.640  36.419   1.982
68173W        W39899   3.075   3.199  14.615
68174W        W39900  22.884  28.798   5.625
68175W        W39901  16.573  34.083   2.872
68176W        W39902  37.155  22.604   1.398
68177W        W39903  12.396   0.720  14.445
68178W        W39904  36.628  35.739   4.552
68179W        W39905   4.862  16.727  10.598
68180W        W39906  33.852  27.231  14.833
68181W        W39907  31.528  39.729  12.574
68182W        W39908  43.794  40.040  11.633
68183W        W39909  13.351  43.870   3.720
68184W        W39910  15.284   8.332  14.475
68185W        W39911  20.853   1.916   0.251
68186W        W39912  28.182  18.625   2.592
68187W        W39913   1.930  40.814  12.432
68188W        W39914  12.822  14.174  11.702
68189W        W39915  16.866  15.672   4.588
68190W        W39916   1.385   5.380  12.532
68191W        W39917  25.629  18.771  11.730
68192W        W39918  32.593  34.357   3.653
68193W        W39919  31.159   1.077   2.097
68194W        W39920  20.583  34.423  12.474
68195W        W39921   2.935   6.989  11.942
68196W        W39922  36.462   3.820  12.113
68197W        W39923  29.916  30.234   2.213
68198W        W39924  34.121   2.056   1.052
68199W        W39925  10.719   4.737   3.477
68200W        W39926  44.867  31.168  12.940
68201W        W39927  17.277  42.324   4.804
68202W        W39928  10.085  31.902   2.880
68203W        W39929  20.139   0.330  14.612
68204W        W39930   2.218  12.662   1.345
68205W        W39931  33.401  34.631  13.588
68206W        W39932  27.537   6.218  14.495
68207W        W39933  18.753  34.340  13.051
68208W        W39934  24.583  32.996   0.969
68209W        W39935  32.158  22.670   0.349
68210W        W39936  19.353  27.313   0.448
68211W        W39937   0.421  12.706   0.289
68212W        W39938  25.975  29.064  14.955
68213W        W39939  15.604  33.572   0.892
68214W        W39940  10.259  17.740  12.104
68215W        W39941  31.620  22.638   4.931
68216W        W39942   0.326  12.516  13.430
68217W        W39943  40.466  18.064  10.381
68218W        W39944  18.961  24.519   1.843
68219W        W39945   7.681  19.410   4.095
68220W        W39946  24.602   9.779  13.078
68221W        W39947  33.835  29.833  14.504
68222W        W39948  16.295  28.711  12.476
68223W        W39949  40.358  23.186   3.730
68224W        W39950  29.020  23.998  13.034
68225W        W39951  22.461  27.917   3.079
68226W        W39952  14.614  20.863  10.489
68227W        W39953  16.583  40.258  13.025
68228W        W39954  18.085  15.217   2.815
68229W        W39955   1.479  41.973  11.116
68230W        W39956  39.341  30.911  14.296
68231W        W39957  41.913  30.371  11.464
68232W        W39958   9.150   1.916  14.952
68233W        W39959   2.239  22.121  10.698
68234W        W39960  21.524   8.135   4.191
68235W        W39961  39.569   5.926  13.901
68236W        W39962  11.897  15.309  13.776
68237W        W39963  38.951  26.463   1.235
68238W        W39964  37.328  12.261  14.407
68239W        W39965   5.864  16.332   0.460
68240W        W39966  15.106  35.852  14.332
68241W        W39967  35.406   2.382   4.039
68242W        W39968  19.129  41.045  13.965
68243W        W39969  38.772  31.975   4.112
68244W        W39970   5.201  22.566  14.251
68245W        W39971  15.844  22.599   0.254
68246W        W39972   0.466  14.729   3.205
68247W        W39973  11.955  23.352   2.864
68248W        W39974   4.738   9.164   4.632
68249W        W39975  17.314  12.826   3.181
68250W        W39976  10.784  35.853   1.283
68251W        W39977   4.905  42.237  10.668
68252W        W39978  37.243   2.748  13.902
68253W        W39979   1.883  32.014  13.137
68254W        W39980  11.405  13.709  14.746
68255W        W39981  16.283  33.935  12.744
68256W        W39982  12.422   5.929  13.528
68257W        W39983  15.265  18.252  10.668
68258W        W39984   3.724  13.241  11.398
68259W        W39985  35.981   1.450  13.779
68260W        W39986   5.439  22.197  14.896
68261W        W39987  30.674  38.466   3.294
68262W        W39988   4.510  31.899   3.683
68263W        W39989  25.434  43.007   4.290
68264W        W39990   3.316  39.810  12.919
68265W        W39991   2.740   1.771  13.141
68266W        W39992   8.366  26.236  13.812
68267W        W39993  35.535  10.826   4.735
68268W        W39994  10.342  30.116  13.027
68269W        W39995  43.374  26.904  14.135
68270W        W39996   4.707   3.675  14.261
68271W        W39997   1.824  35.810  12.515
68272W        W39998  35.936  28.678  12.142
68273W        W39999  15.552  10.257  11.626
68274W        W40000  23.874  40.174  10.772
68275W        W40001  22.096  33.662   3.618
68276W        W40002  11.173  38.973   2.284
68277W        W40003  38.523  43.359  14.878
68278W        W40004  23.796  35.092   0.818
68279W        W40005  15.726  41.876   0.683
68280W        W40006   6.647  26.505  13.966
68281W        W40007  10.457  38.424   3.087
68282W        W40008  23.143  36.608   2.250
68283W        W40009   9.328  17.539   1.943
68284W        W40010  13.137  23.787   1.618
68285W        W40011  22.671   4.904   5.193
68286W        W40012  21.916  20.102  12.998
68287W        W40013  19.770  12.943   3.875
68288W        W40014  11.257  28.434  13.159
68289W        W40015  30.080  21.035  12.401
68290W        W40016  19.166  42.640   3.787
68291W        W40017  22.510  30.085   1.004
68292W        W40018   7.710  25.005  13.444
68293W        W40019   5.389   8.810  13.441
68294W        W40020   9.285  34.634   1.307
68295W        W40021  32.488  12.256  10.873
68296W        W40022  15.176  38.618  12.898
68297W        W40023  29.476  40.744  11.037
68298W        W40024   3.876  40.359   2.637
68299W        W40025   6.666   2.970  13.352
68300W        W40026   9.180  11.692   2.913
68301W        W40027  41.510  26.508  14.028
68302W        W40028   7.190  39.766   2.408
68303W        W40029  29.870  18.165  10.330
68304W        W40030  31.144  27.077   0.694
68305W        W40031  25.681  12.458   4.193
68306W        W40032  42.966  18.694   2.438
68307W        W40033   6.550  27.739   3.371
68308W        W40034  30.022  31.606   3.694
68309W        W40035  30.827   2.734  12.892
68310W        W40036  30.419  10.230   2.698
68311W        W40037  34.935   4.475  12.460
68312W        W40038  33.604   3.319  14.702
68313W        W40039  14.385  35.203   3.795
68314W        W40040   7.897  23.548   2.764
68315W        W40041  34.455  30.880   1.886
68316W        W40042  42.778  23.136   3.666
68317W        W40043  18.791  15.843   4.529
68318W        W40044  20.022   7.650  13.151
68319W        W40045  22.377  41.731  13.183
68320W        W40046  41.807   9.293  10.818
68321W        W40047   4.158  15.735   2.779
68322W        W40048   8.881  28.248  12.504
68323W        W40049  15.096   5.538   3.298
68324W        W40050  34.922  35.966   3.604
68325W        W40051  26.580  25.178   1.294
68326W        W40052  32.986  34.339  13.551
68327W        W40053  32.912  36.940  11.414
68328W        W40054  41.361  27.851  11.534
68329W        W40055   6.587  10.801  10.594
68330W        W40056  40.541  14.103   4.605
68331W        W40057  16.329   3.977   0.799
68332W        W40058  43.958  14.701   4.077
68333W        W40059  35.227  44.332  11.208
68334W        W40060  36.746   9.680  10.690
68335W        W40061  18.113  33.980  14.338
68336W        W40062  36.433  30.437   3.569
68337W        W40063  19.705  13.076  13.169
68338W        W40064  15.270  15.867   1.348
68339W        W40065   2.509  29.452   0.953
68340W        W40066  34.836   5.797  10.669
68341W        W40067  27.472  33.703  11.316
68342W        W40068  29.453  20.036  14.413
68343W        W40069  33.126  20.548   3.141
68344W        W40070  25.755   6.935   0.924
68345W        W40071  31.775  16.921   2.271
68346W        W40072  23.872  12.560  14.356
68347W        W40073  16.751   4.981   0.587
68348W        W40074  13.199   1.271   3.325
68349W        W40075   2.490  21.323  13.007
68350W        W40076  21.458   5.310  12.360
68351W        W40077  19.189  39.277  13.043
68352W        W40078  29.546  41.013   3.385
68353W        W40079  14.031  38.538   2.644
68354W        W40080  36.602  32.527   4.919
68355W        W40081  15.206  23.857  13.163
68356W        W40082  32.552  22.167  11.087
68357W        W40083  36.363  43.390   1.411
68358W        W40084   9.762  33.935   2.212
68359W        W40085  13.099   5.965   1.223
68360W        W40086   0.330  32.600  12.131
68361W        W40087   1.309  42.384  10.869
68362W        W40088  11.687  20.482   4.635
68363W        W40089  28.941  38.781  11.044
68364W        W40090  43.507   9.336  14.463
68365W        W40091  35.611   9.841  14.094
68366W        W40092  42.543  17.745  11.661
68367W        W40093  11.370  20.068  13.114
68368W        W40094   6.195  28.249   4.109
68369W        W40095  36.485  22.000  13.391
68370W        W40096   9.270  43.223   3.315
68371W        W40097  35.532  40.033   4.085
68372W        W40098  17.031  16.385  11.659
68373W        W40099  13.305  44.237  12.960
68374W        W40100  39.272   2.415   4.305
68375W        W40101  15.013  25.641   2.395
68376W        W40102   9.161   4.769  12.998
68377W        W40103   6.125  29.584   3.827
68378W        W40104   2.754  28.851  12.151
68379W        W40105   1.014  23.504   1.956
68380W        W40106  21.558  33.603   2.678
68381W        W40107  25.937   4.353   3.481
68382W        W40108  10.369  20.808   4.539
68383W        W40109  29.166   1.001   3.695
68384W        W40110  33.118   1.836   2.748
68385W        W40111  21.740  10.336   4.019
68386W        W40112   3.603   8.743  14.916
68387W        W40113  14.059   8.891   3.297
68388W        W40114  19.321  37.448   2.870
68389W        W40115  43.640  13.312  11.623
68390W        W40116  34.402  27.082   4.667
68391W        W40117  28.086  35.902  11.592
68392W        W40118   0.038   2.802   4.164
68393W        W40119   5.102  42.815  11.122
68394W        W40120  11.577   0.796  11.494
68395W        W40121  29.093  17.148   3.518
68396W        W40122  19.511   7.385  11.506
68397W        W40123  24.444   2.996  12.327
68398W        W40124   4.358  39.310  10.739
68399W        W40125  19.701   2.177  12.963
68400W        W40126  25.108  19.820   2.285
68401W        W40127  35.654  39.320   0.737
68402W        W40128  17.520  42.913   1.418
68403W        W40129  18.226  39.781  14.429
68404W        W40130   3.131  23.167  12.844
68405W        W40131   5.988  42.560  11.944
68406W        W40132  17.055  11.273  14.716
68407W        W40133   8.841  15.422  13.524
68408W        W40134  20.504  19.160  12.915
68409W        W40135  43.239   7.251   0.397
68410W        W40136   8.762  26.025  14.054
68411W        W40137  35.091  16.044  13.411
68412W        W40138  18.598  33.328   0.741
68413W        W40139  28.196  31.195  10.916
68414W        W40140  42.522   1.773   4.141
68415W        W40141  17.697  21.104  12.389
68416W        W40142   7.317  43.932   4.918
68417W        W40143  41.320  44.992  10.738
68418W        W40144  40.780  32.056  13.357
68419W        W40145  16.830  27.007  12.904
68420W        W40146  33.895  20.945   2.840
68421W        W40147   9.749   6.907   0.263
68422W        W40148  28.074  21.706   2.876
68423W        W40149  31.939  31.946  12.599
68424W        W40150  39.990   8.636  13.382
68425W        W40151  32.868   4.791   3.385
68426W        W40152  27.121   0.913  13.192
68427W        W40153  44.376  13.119  14.790
68428W        W40154  31.690   4.931  11.545
68429W        W40155   9.928   6.291   4.319
68430W        W40156  24.680  40.323   4.521
68431W        W40157  13.615  27.030  11.081
68432W        W40158  25.054   0.997  10.696
68433W        W40159  19.600   6.129   0.259
68434W        W40160  16.815  24.467   0.041
68435W        W40161  29.545  38.045  12.187
68436W        W40162   6.331   0.503  10.672
68437W        W40163  15.221  38.372  11.015
68438W        W40164  42.075  14.088  12.919
68439W        W40165  26.118  22.284   4.211
68440W        W40166  23.648  36.612   2.435
68441W        W40167  23.601   3.968   2.465
68442W        W40168  18.265  43.262  13.250
68443W        W40169  38.981  32.100   0.316
68444W        W40170  21.118   8.912  14.534
68445W        W40171  15.137  28.981   4.236
68446W        W40172  42.908  18.181   4.324
68447W        W40173  18.167  12.079  13.837
68448W        W40174   9.115  29.488   3.742
68449W        W40175   3.791  20.470   0.979
68450W        W40176   5.919  24.668  10.443
68451W        W40177  35.432   7.963  10.900
68452W        W40178  26.138   3.727  12.409
68453W        W40179  44.779   3.718  12.472
68454W        W40180  34.462  32.470  10.861
68455W        W40181  19.692  39.251  11.225
68456W        W40182  43.054  22.747   1.927
68457W        W40183  29.648  44.447  13.566
68458W        W40184   4.406  27.132  14.837
68459W        W40185  31.633  33.934  12.054
68460W        W40186  10.395   2.661   3.318
68461W        W40187  13.445   4.341  12.888
68462W        W40188   9.144   9.693   4.047
68463W        W40189  10.630   9.596   2.852
68464W        W40190  22.067  28.781   9.726
68465W        W40191  32.316  21.755  13.063
68466W        W40192   2.283  22.132  14.066
68467W        W40193  14.730   5.358  14.830
68468W        W40194  30.596  25.084  10.520
68469W        W40195  38.966  16.595  12.576
68470W        W40196  36.027   1.822   0.518
68471W        W40197  44.274  30.465  12.537
68472W        W40198  15.040  36.308  11.140
68473W        W40199   0.836  29.474  13.746
68474W        W40200  34.038   2.670   0.860
68475W        W40201   0.953  22.447   4.755
68476W        W40202  34.627  20.635  11.586
68477W        W40203  28.617   5.989   3.085
68478W        W40204   7.379  23.255  12.429
68479W        W40205  30.594  32.928  11.181
68480W        W40206  40.979  18.863  11.754
68481W        W40207  21.727  16.585   0.903
68482W        W40208  44.487   1.060  11.141
68483W        W40209  23.671  43.837  11.618
68484W        W40210  27.943  13.686  11.499
68485W        W40211  33.651  42.972  12.465
68486W        W40212  20.903  12.597  10.951
68487W        W40213   7.360  16.706   3.801
68488W        W40214   5.764  34.352   3.301
68489W        W40215   2.990  42.252  12.320
68490W        W40216  36.898  12.202   3.737
68491W        W40217  43.946  33.959   4.510
68492W        W40218  38.044  15.331   2.761
68493W        W40219  32.981  27.617   0.887
68494W        W40220  27.032  38.010  13.533
68495W        W40221  22.216  44.039  13.866
68496W        W40222  23.736  29.091   0.487
68497W        W40223   6.329   1.502  14.450
68498W        W40224  32.354  19.735  11.165
68499W        W40225  32.612  44.581  14.837
68500W        W40226  17.785  30.162   0.735
68501W        W40227  44.576  29.665   2.277
68502W        W40228  41.470  17.112  10.564
68503W        W40229   0.312  24.307   1.780
68504W        W40230   7.865  22.024  10.743
68505W        W40231   1.128  15.701   5.166
68506W        W40232   7.302  43.212  14.525
68507W        W40233  19.162  27.906  10.489
68508W        W40234  22.612  29.191   2.706
68509W        W40235  31.079   9.499  12.813
68510W        W40236  39.883  10.327  14.302
68511W        W40237  16.702  17.200   1.424
68512W        W40238  32.601   2.754  12.842
68513W        W40239   7.402  17.285   1.428
68514W        W40240  42.758  24.161  14.099
68515W        W40241   0.435   2.212   1.770
68516W        W40242   3.314  21.538   3.128
68517W        W40243  11.679  22.660   3.208
68518W        W40244  26.982  42.934   2.171
68519W        W40245  24.444   4.276   0.669
68520W        W40246  25.972  21.306   3.220
68521W        W40247   2.687   3.433   1.517
68522W        W40248  40.517  17.261  11.264
68523W        W40249   6.141  30.685   0.619
68524W        W40250  21.997  40.277   3.382
68525W        W40251  19.720  16.804  13.945
68526W        W40252  40.452   6.652   2.417
68527W        W40253  34.630   0.053   2.778
68528W        W40254  33.935   6.173  13.042
68529W        W40255  15.308   0.275   4.527
68530W        W40256   5.169  27.975   3.693
68531W        W40257  11.020   3.453  12.069
68532W        W40258  42.066  21.666   1.326
68533W        W40259   9.762  30.389  13.298
68534W        W40260  17.007  14.282  12.043
68535W        W40261  27.819   7.507   2.728
68536W        W40262  32.659  42.870   1.763
68537W        W40263  11.232  29.456  11.978
68538W        W40264  41.380  24.487   2.382
68539W        W40265   1.308  40.116  13.790
68540W        W40266  43.885  25.681  11.973
68541W        W40267  25.490  15.027  12.060
68542W        W40268  34.569  31.194   2.287
68543W        W40269  32.875  15.667  13.959
68544W        W40270  39.011   8.473   2.849
68545W        W40271  41.569  37.527   1.163
68546W        W40272  19.093  22.666   1.754
68547W        W40273  32.693  33.059  14.977
68548W        W40274  25.161  44.852  13.257
68549W        W40275  36.356   2.812   4.212
68550W        W40276  23.089  14.793   1.784
68551W        W40277  43.310   4.689   4.602
68552W        W40278   6.671  13.119   2.809
68553W        W40279  19.118  35.009   2.825
68554W        W40280  21.681  12.032   0.833
68555W        W40281  44.291  29.779  14.408
68556W        W40282  15.811   4.852  11.975
68557W        W40283  35.609  14.710  13.323
68558W        W40284  37.653  28.902   0.829
68559W        W40285  26.847  28.151   2.955
68560W        W40286  23.335  41.957  12.131
68561W        W40287  28.054   0.552   5.108
68562W        W40288  35.072  12.753  12.759
68563W        W40289  39.131  25.850  12.835
68564W        W40290  40.100  30.657  10.328
68565W        W40291  27.573  28.936  11.047
68566W        W40292  19.565   5.156  12.331
68567W        W40293   7.339  43.060   5.027
68568W        W40294   4.449  33.481   3.368
68569W        W40295  32.624  20.498  12.632
68570W        W40296  35.994   2.400   4.785
68571W        W40297   5.117  42.584   1.188
68572W        W40298   0.772  19.157  12.906
68573W        W40299  24.936   6.341  10.809
68574W        W40300  29.571   3.962   0.285
68575W        W40301   8.625  31.226  13.390
68576W        W40302  32.725  42.055  11.069
68577W        W40303  28.554  28.936  14.957
68578W        W40304   4.263  13.291  11.555
68579W        W40305   1.006  22.071   2.051
68580W        W40306  27.049  41.355   2.373
68581W        W40307  39.607  33.940   3.613
68582W        W40308  35.496  27.401  12.219
68583W        W40309  10.115  10.733   1.058
68584W        W40310  13.203  24.550   3.332
68585W        W40311   7.676  42.763  13.472
68586W        W40312  38.574  30.920  13.361
68587W        W40313  27.600   3.320   0.554
68588W        W40314  17.639  34.577   0.293
68589W        W40315   3.860   1.960  11.274
68590W        W40316  22.754  29.219   0.778
68591W        W40317  41.875  35.186   3.774
68592W        W40318  10.854   3.921  13.032
68593W        W40319  32.196  10.689   4.416
68594W        W40320  19.632  30.673   2.588
68595W        W40321  27.077  35.758   3.975
68596W        W40322   2.196  27.951   0.217
68597W        W40323   5.738  31.815   4.387
68598W        W40324  15.844  41.437   2.838
68599W        W40325   7.490  33.157  13.797
68600W        W40326   4.026  18.747   4.847
68601W        W40327  34.002   4.750  11.945
68602W        W40328  17.095  39.037  13.268
68603W        W40329   0.494  30.074  13.520
68604W        W40330   3.229  18.068   3.308
68605W        W40331   4.411   4.314  12.390
68606W        W40332   8.474  10.294   3.804
68607W        W40333  41.859  14.853  14.075
68608W        W40334  14.771  18.287   1.747
68609W        W40335  38.273  15.671  10.068
68610W        W40336  15.055  41.266   4.080
68611W        W40337  13.876  13.655  11.202
68612W        W40338  20.162  32.562  12.486
68613W        W40339  40.460  12.903   3.138
68614W        W40340  41.991  25.678  10.398
68615W        W40341  14.333  28.072  14.967
68616W        W40342  25.658   0.356   1.332
68617W        W40343  10.391  35.032   4.758
68618W        W40344   1.417  13.572  10.843
68619W        W40345  20.634  14.538  10.786
68620W        W40346  28.069  14.868  12.128
68621W        W40347  34.401  41.430  14.100
68622W        W40348  11.217  37.006  11.933
68623W        W40349  37.349  23.125   3.981
68624W        W40350  25.121  26.544  10.674
68625W        W40351   9.567   1.477   3.698
68626W        W40352  26.479  32.461   1.494
68627W        W40353   6.102   4.918  13.051
68628W        W40354   0.789  35.542   2.830
68629W        W40355  33.586  11.890  13.103
68630W        W40356   4.186   9.741   2.558
68631W        W40357  38.459  23.517  11.596
68632W        W40358  13.684   6.371   0.308
68633W        W40359  31.944  40.846   1.714
68634W        W40360  12.899  19.695   0.798
68635W        W40361  28.098  22.490  14.359
68636W        W40362  10.188   1.234  11.634
68637W        W40363  15.465   5.994   5.169
68638W        W40364  29.113  30.925  14.303
68639W        W40365  41.872  38.442  13.526
68640W        W40366  16.296   7.712   3.541
68641W        W40367  19.697  37.674  10.058
68642W        W40368  44.511  20.734   0.168
68643W        W40369  43.506  29.182   2.755
68644W        W40370  44.985  36.441  11.592
68645W        W40371  16.088  20.613  12.206
68646W        W40372  29.181  18.332  14.542
68647W        W40373  36.632  19.566  12.471
68648W        W40374  34.816  10.803   0.337
68649W        W40375   9.661  15.784  11.534
68650W        W40376  11.276  33.904  13.683
68651W        W40377  40.977  24.111  10.599
68652W        W40378  24.921   5.820  12.883
68653W        W40379   1.725  11.400  10.601
68654W        W40380  14.222  33.926   2.810
68655W        W40381  31.849   3.398   3.293
68656W        W40382  31.063   5.698  14.888
68657W        W40383  11.653  12.676  13.033
68658W        W40384   7.451   0.219  13.790
68659W        W40385  14.354  12.559  14.898
68660W        W40386  39.910  18.565  12.999
68661W        W40387   9.059  26.350   1.319
68662W        W40388  42.334  30.145  12.417
68663W        W40389   2.322   8.276   2.238
68664W        W40390  38.200  41.933   3.665
68665W        W40391   9.206   6.681  14.072
68666W        W40392   5.388  41.037   1.365
68667W        W40393   9.893  32.872  13.437
68668W        W40394   9.686  36.072   0.220
68669W        W40395  40.981  10.185   3.163
68670W        W40396  12.815  17.269  11.421
68671W        W40397   6.890  29.957   2.209
68672W        W40398   3.893   3.151  13.936
68673W        W40399  33.984  17.238  12.402
68674W        W40400   7.471  28.998  12.028
68675W        W40401  38.153  38.370   0.830
68676W        W40402  10.021  11.261  11.473
68677W        W40403  44.874   9.972  13.488
68678W        W40404  13.776  24.245   2.220
68679W        W40405  42.717  42.050   3.861
68680W        W40406  43.779   0.808   0.929
68681W        W40407  43.608  32.864  11.981
68682W        W40408   9.762  15.140  14.320
68683W        W40409  12.839  14.203  10.860
68684W        W40410  22.033  31.542   1.001
68685W        W40411  20.647  34.453   3.242
68686W        W40412  30.374  26.474  14.252
68687W        W40413   9.063   1.414  12.429
68688W        W40414   7.725  19.834   4.977
68689W        W40415   6.915   3.909   5.009
68690W        W40416   1.379   6.623  13.566
68691W        W40417  24.287  42.826   4.915
68692W        W40418   2.883  12.888   0.505
68693W        W40419  22.033  27.060   1.617
68694W        W40420  35.135  12.285   3.325
68695W        W40421  30.968  35.579   2.151
68696W        W40422  34.552  18.866  11.182
68697W        W40423  13.614   5.873  12.454
68698W        W40424  24.778  30.231  14.807
68699W        W40425  25.183  28.069  11.110
68700W        W40426  35.020  44.507   3.730
68701W        W40427  10.279  41.568   4.536
68702W        W40428  14.691   1.938   1.672
68703W        W40429  40.304  25.419   1.315
68704W        W40430   1.703  27.113  10.688
68705W        W40431  10.315  27.425   4.635
68706W        W40432   2.239  12.902   0.868
68707W        W40433  21.889  25.829  10.248
68708W        W40434   6.820   8.350  14.341
68709W        W40435  21.234  22.618  12.971
68710W        W40436  14.741  15.176   0.169
68711W        W40437  12.152   0.348   0.383
68712W        W40438  41.854  26.951   2.757
68713W        W40439  43.693  16.358   3.427
68714W        W40440  40.423   0.032   0.381
68715W        W40441  41.268  12.397   0.413
68716W        W40442   7.305  31.747   2.342
68717W        W40443   5.217  34.591   5.162
68718W        W40444   3.966  10.221   0.252
68719W        W40445  29.540   4.429  10.583
68720W        W40446  39.252   6.124   4.701
68721W        W40447  21.403  27.044  10.540
68722W        W40448  42.884  11.051   0.063
68723W        W40449  43.671  26.717   4.546
68724W        W40450  38.994  14.340   3.216
68725W        W40451  33.907  23.737   3.263
68726W        W40452  33.139  17.338  13.414
68727W        W40453  42.736   6.373  10.480
68728W        W40454  30.241  25.545   3.174
68729W        W40455  29.676  44.769  12.415
68730W        W40456   7.328  35.055   2.411
68731W        W40457  24.046   4.888  14.216
68732W        W40458   1.689  40.075   2.302
68733W        W40459  28.673  10.317  10.904
68734W        W40460  29.042  20.965  13.460
68735W        W40461   7.928  38.240   2.834
68736W        W40462  41.342  44.629   4.202
68737W        W40463  42.840  37.946   4.163
68738W        W40464   5.348  36.993  13.020
68739W        W40465  28.069  21.151   1.247
68740W        W40466  33.998  21.971  11.499
68741W        W40467   7.221  32.772  13.504
68742W        W40468  30.144  17.596  11.858
68743W        W40469   7.238  23.205  10.699
68744W        W40470  42.691  15.093   0.649
68745W        W40471  34.870  29.597  10.985
68746W        W40472   1.280   9.139   2.694
68747W        W40473  40.112  29.621   0.433
68748W        W40474  22.056   6.867  14.755
68749W        W40475  15.652   0.467  14.442
68750W        W40476  10.064  19.887   2.906
68751W        W40477  36.641  16.672   2.247
68752W        W40478   2.464  19.669  10.845
68753W        W40479  23.762  21.512   0.389
68754W        W40480  40.931   1.216  11.887
68755W        W40481  18.554  26.409  14.740
68756W        W40482   4.401  24.706   1.261
68757W        W40483  36.159  43.559   4.454
68758W        W40484  12.365  27.581   2.106
68759W        W40485  10.168   3.280  10.234
68760W        W40486   4.302   6.856  11.926
68761W        W40487  19.092  34.922   3.674
68762W        W40488  23.436   8.761  12.454
68763W        W40489  35.378  40.549  11.201
68764W        W40490   4.917   6.374  10.492
68765W        W40491  14.393  11.253   2.903
68766W        W40492  37.743  26.791  12.381
68767W        W40493  22.732  17.983   4.076
68768W        W40494  44.317  41.306   3.442
68769W        W40495  13.303  23.360  11.133
68770W        W40496   2.975  14.127   4.438
68771W        W40497   7.170   8.721   4.343
68772W        W40498   0.300  25.663  13.350
68773W        W40499  31.541  40.900   2.273
68774W        W40500   0.076  21.018   1.344
68775W        W40501  17.029  36.858   1.829
68776W        W40502  19.079  11.954   1.354
68777W        W40503  27.122  36.409  10.578
68778W        W40504  23.229  16.358  12.368
68779W        W40505  34.926   9.880  10.741
68780W        W40506  19.789  20.572   0.948
68781W        W40507  28.476  13.733   3.139
68782W        W40508   9.452  33.044   4.556
68783W        W40509  27.985  11.811  13.207
68784W        W40510   9.273  33.231  10.273
68785W        W40511   4.770   7.753  15.000
68786W        W40512  36.473  35.977   4.984
68787W        W40513   4.852  30.051   0.255
68788W        W40514  13.027  11.831   1.299
68789W        W40515  24.045  17.957  10.650
68790W        W40516  24.938  12.681  12.975
68791W        W40517  16.545   3.547  14.535
68792W        W40518  34.209  20.794   0.825
68793W        W40519  20.757  22.705   2.681
68794W        W40520  16.113  12.904   4.111
68795W        W40521  16.650  11.294   3.687
68796W        W40522  37.128  37.894  13.942
68797W        W40523   5.292  10.361  12.054
68798W        W40524  21.796  43.336   0.905
68799W        W40525  41.515  19.743   2.307
68800W        W40526  32.315   2.962  11.130
68801W        W40527  10.389  26.717  13.043
68802W        W40528  21.148  33.185  13.464
68803W        W40529  10.266  14.079  12.102
68804W        W40530  35.102  14.317   2.660
68805W        W40531  36.258  26.037   3.181
68806W        W40532  20.257  42.370  11.911
68807W        W40533   4.341  44.882  10.949
68808W        W40534  34.292  31.922   1.984
68809W        W40535  28.677   8.838   4.247
68810W        W40536   4.514   7.188   1.708
68811W        W40537  41.231  10.842   2.628
68812W        W40538  21.118   9.258   3.101
68813W        W40539  30.070  28.432  12.846
68814W        W40540  20.540  26.026  12.019
68815W        W40541  40.806   2.730   2.740
68816W        W40542   4.844  32.808  12.273
68817W        W40543  10.655  31.031  11.937
68818W        W40544  31.906  18.632   2.019
68819W        W40545  43.001   8.752  13.980
68820W        W40546  40.833  44.754  13.429
68821W        W40547  33.950  30.003  11.151
68822W        W40548   4.000  18.600  11.205
68823W        W40549  30.156   8.144  13.142
68824W        W40550  11.336  40.425  11.330
68825W        W40551   8.341  40.089   0.533
68826W        W40552  30.525  16.819  11.383
68827W        W40553  16.694   7.881  14.273
68828W        W40554  11.257  41.563  14.368
68829W        W40555  38.510  10.086   0.587
68830W        W40556  24.623  10.157   0.246
68831W        W40557  16.582  13.221  11.423
68832W        W40558  14.053   5.285   0.930
68833W        W40559  37.883  33.104   3.260
68834W        W40560  32.966  36.789   3.177
68835W        W40561  39.805  29.982  14.240
68836W        W40562  19.661  18.638   4.102
68837W        W40563  38.988  26.291   9.830
68838W        W40564  15.776  37.014  11.170
68839W        W40565  44.780  19.060   0.773
68840W        W40566  10.346  26.986  13.495
68841W        W40567   0.562  11.807   3.979
68842W        W40568   2.695  41.820   3.416
68843W        W40569  43.405  44.013  12.366
68844W        W40570  39.366  14.710   3.913
68845W        W40571   8.805   5.696  11.449
68846W        W40572  13.083  12.474  13.362
68847W        W40573  28.025  37.095   4.865
68848W        W40574  16.724   6.163  13.115
68849W        W40575  36.563  21.254   2.330
68850W        W40576  20.615   2.145  14.810
68851W        W40577  26.573  26.200   0.682
68852W        W40578  40.926  27.079   1.208
68853W        W40579  22.741   9.656   2.098
68854W        W40580   9.701  35.018  13.854
68855W        W40581   5.716   1.435   2.329
68856W        W40582  40.334  30.807   1.707
68857W        W40583  12.848   1.835  10.622
68858W        W40584  38.347  37.350  12.165
68859W        W40585  44.499  24.374   1.460
68860W        W40586  29.143   8.233   1.028
68861W        W40587  20.187   7.603   3.259
68862W        W40588  37.383   4.307   0.449
68863W        W40589  29.861  22.181   3.280
68864W        W40590  22.210  38.996  11.673
68865W        W40591  14.939  10.467   4.145
68866W        W40592  42.897  13.682   1.151
68867W        W40593   8.716  31.436   3.910
68868W        W40594  30.490  43.425   2.389
68869W        W40595  43.923  18.933   3.303
68870W        W40596  25.634   2.088   3.097
68871W        W40597  40.732  27.511  13.050
68872W        W40598  32.122  16.675  10.618
68873W        W40599   7.278  30.190  12.549
68874W        W40600  24.378   1.285   5.077
68875W        W40601  12.681  35.429  14.451
68876W        W40602  19.794  36.026  12.535
68877W        W40603   0.263  27.738   0.767
68878W        W40604  18.801  31.627   0.522
68879W        W40605  20.906  23.644  12.135
68880W        W40606  14.336  40.085   3.704
68881W        W40607   2.826  19.318  10.605
68882W        W40608  39.335  21.079  10.732
68883W        W40609  22.073  26.786  13.973
68884W        W40610   9.084  25.151   5.443
68885W        W40611  15.420  33.996   3.578
68886W        W40612  16.349  25.551  11.924
68887W        W40613  43.534  26.154  12.317
68888W        W40614  15.802  31.927   3.218
68889W        W40615  21.603   8.673   4.241
68890W        W40616  30.047   6.315   1.375
68891W        W40617  33.522  28.585  14.895
68892W        W40618  22.553  39.656  12.902
68893W        W40619  18.325  36.436   1.202
68894W        W40620  13.320  42.373  13.855
68895W        W40621  28.008   9.651  14.712
68896W        W40622  26.536  17.278  13.493
68897W        W40623   6.889   4.418   2.395
68898W        W40624   5.583  31.768  12.504
68899W        W40625  27.883  32.689  12.744
68900W        W40626  14.164  16.325   3.821
68901W        W40627  18.235  44.488   1.774
68902W        W40628   9.610  15.560   3.156
68903W        W40629  20.079  30.090   0.280
68904W        W40630  44.182  44.330   1.528
68905W        W40631   0.529  30.454   3.373
68906W        W40632  18.757   9.157   0.883
68907W        W40633  41.300  11.934  10.535
68908W        W40634  28.756   6.141   3.632
68909W        W40635   5.268  32.114   0.959
68910W        W40636   6.255  18.287  12.871
68911W        W40637  38.251  40.920   1.822
68912W        W40638   7.762  18.579  13.810
68913W        W40639  44.152  16.995   5.040
68914W        W40640  11.709  26.062   1.979
68915W        W40641  16.202  35.756   2.660
68916W        W40642  33.161   5.466   1.801
68917W        W40643  20.612  41.550   4.369
68918W        W40644   5.502  17.373  11.469
68919W        W40645  35.399  31.811   0.863
68920W        W40646   8.806   1.714   1.719
68921W        W40647  36.354  34.619  14.944
68922W        W40648  39.961  21.345  11.551
68923W        W40649  36.322  27.947  14.881
68924W        W40650  24.037   1.268  11.082
68925W        W40651  12.719  23.003   3.480
68926W        W40652  37.377  29.750  14.191
68927W        W40653   7.792  44.053   1.790
68928W        W40654  24.684  39.377   1.526
68929W        W40655  42.866  43.253  11.572
68930W        W40656  10.226  44.728   4.408
68931W        W40657  39.263  12.704  10.569
68932W        W40658  41.502  20.174   4.293
68933W        W40659  16.207  17.752  12.284
68934W        W40660  42.311   5.670   0.436
68935W        W40661  20.989  24.619  11.921
68936W        W40662  15.320  34.964   0.822
68937W        W40663  29.593  17.562  12.018
68938W        W40664   8.169  11.211  13.971
68939W        W40665  37.084  41.023   4.417
68940W        W40666  38.066  20.191   3.394
68941W        W40667   7.954  38.301   4.557
68942W        W40668  30.329  39.130  12.184
68943W        W40669  29.238   5.868   1.403
68944W        W40670  39.788  29.990   1.693
68945W        W40671  14.614  44.545   3.651
68946W        W40672  12.749   5.952  12.540
68947W        W40673  21.276  39.082  11.456
68948W        W40674   0.294   8.916   2.848
68949W        W40675  19.034   5.852   0.868
68950W        W40676  44.390  37.033   1.238
68951W        W40677   1.493   6.273   1.260
68952W        W40678  44.045   1.823   2.691
68953W        W40679  10.463  18.373   1.255
68954W        W40680  16.671  31.881   4.685
68955W        W40681   9.016  18.974  12.512
68956W        W40682  18.623  25.925   4.114
68957W        W40683  15.631   3.330   2.941
68958W        W40684  35.371   3.344   9.799
68959W        W40685  12.173  35.038   0.064
68960W        W40686  10.079  12.180  12.627
68961W        W40687  20.583  30.669  11.879
68962W        W40688  38.942  39.477  12.036
68963W        W40689  13.499  30.551   1.584
68964W        W40690  41.877  37.555  10.528
68965W        W40691   6.839  21.650   0.353
68966W        W40692  28.725   6.365   4.589
68967W        W40693  40.553  29.637  12.471
68968W        W40694  39.605  32.530  14.405
68969W        W40695  16.181  30.895  13.859
68970W        W40696  32.762  40.437   0.435
68971W        W40697  19.709   2.151   4.968
68972W        W40698  30.619  12.589   5.022
68973W        W40699   5.232  27.017   0.198
68974W        W40700  19.896  43.227   3.828
68975W        W40701   5.909  31.772   2.612
68976W        W40702  26.103   6.653   4.222
68977W        W40703  38.276  34.685  14.937
68978W        W40704  15.216  23.095   0.210
68979W        W40705   7.863  17.675   4.661
68980W        W40706  30.395  31.178   3.319
68981W        W40707  29.029  21.018   2.369
68982W        W40708  29.552   2.241  10.755
68983W        W40709   0.452  41.560  12.058
68984W        W40710  19.066   1.616   0.964
68985W        W40711  32.735  24.171   0.233
68986W        W40712  31.564   2.894  10.687
68987W        W40713  40.609  34.108  14.148
68988W        W40714  18.496  15.233  14.495
68989W        W40715  19.512   1.694  12.156
68990W        W40716  17.136  35.584  12.907
68991W        W40717  21.002  30.229   2.885
68992W        W40718   0.364  41.543   1.317
68993W        W40719  15.294  37.137   3.327
68994W        W40720  28.411  18.006  13.128
68995W        W40721   1.475   9.272  10.969
68996W        W40722  19.724  22.356  12.968
68997W        W40723   0.144  39.376  12.631
68998W        W40724  40.921  39.992  13.906
68999W        W40725  38.917  37.766  11.576
69000W        W40726  36.972  24.229  13.456
69001W        W40727  12.119  14.055  12.398
69002W        W40728  12.846  31.964   3.320
69003W        W40729  41.028  44.632  11.968
69004W        W40730  38.786  18.426   0.003
69005W        W40731  23.598  31.118  14.428
69006W        W40732   4.242   6.060   3.663
69007W        W40733  20.877  13.229   0.680
69008W        W40734  35.060  35.182   0.001
69009W        W40735  39.748  25.567  11.559
69010W        W40736  39.005  35.638  14.298
69011W        W40737  15.914   7.723  11.618
69012W        W40738  36.269  21.608  14.734
69013W        W40739   4.743  34.630   1.724
69014W        W40740  29.918  16.210   3.557
69015W        W40741  39.892  40.491  13.835
69016W        W40742   7.242  29.097  11.026
69017W        W40743  20.548   5.409  13.856
69018W        W40744  23.741  22.975   0.504
69019W        W40745  36.927  18.574   1.273
69020W        W40746  41.820  10.352   3.659
69021W        W40747  39.394  15.327  10.701
69022W        W40748   4.897  43.268   4.101
69023W        W40749  38.017  32.021  12.964
69024W        W40750   0.214  26.690   2.514
69025W        W40751   6.661  31.840  14.828
69026W        W40752  34.520   5.858  11.106
69027W        W40753  14.250  22.437   1.327
69028W        W40754  41.249  16.564   2.584
69029W        W40755   0.303  28.705  12.108
69030W        W40756  12.878  29.702  11.574
69031W        W40757  17.478   6.484  11.955
69032W        W40758  11.523   5.320   1.307
69033W        W40759  25.246  26.478   3.611
69034W        W40760  18.932  10.913   1.444
69035W        W40761   2.492  27.132  11.750
69036W        W40762  33.470   2.982   1.921
69037W        W40763  20.049  10.678  11.633
69038W        W40764  40.939   5.811   3.189
69039W        W40765   4.565  29.878  11.136
69040W        W40766   3.902  24.094   1.614
69041W        W40767  32.597  43.016  12.410
69042W        W40768   4.811   8.253  14.845
69043W        W40769  26.461  18.849  13.997
69044W        W40770  33.558  27.126   0.728
69045W        W40771  24.445  33.559  11.630
69046W        W40772   0.514  27.187   4.693
69047W        W40773   3.209   6.821   0.490
69048W        W40774  17.268  42.475  10.671
69049W        W40775  12.818  10.690   1.373
69050W        W40776  36.735  32.957   4.470
69051W        W40777  22.230  43.805  14.880
69052W        W40778  10.515  31.856  13.405
69053W        W40779  11.349   2.217   0.402
69054W        W40780   4.705  38.118  11.908
69055W        W40781  18.497  19.063  11.494
69056W        W40782  38.036  15.599  14.959
69057W        W40783  41.000  23.243  12.870
69058W        W40784   9.071  25.666  11.235
69059W        W40785  22.259   5.467   3.253
69060W        W40786  10.141  36.342   3.602
69061W        W40787  44.298   3.365   3.289
69062W        W40788  15.130  28.452   4.181
69063W        W40789   7.024  43.568   3.376
69064W        W40790   8.400   5.459  11.068
69065W        W40791  22.134  14.540   0.378
69066W        W40792  32.164  24.611  11.968
69067W        W40793  26.259  25.721  12.392
69068W        W40794  39.039  39.786   1.319
69069W        W40795  40.924  20.943   0.503
69070W        W40796   0.288  24.052  11.680
69071W        W40797  38.980  16.075   2.166
69072W        W40798  23.012  10.304   3.385
69073W        W40799  34.129  33.264  14.350
69074W        W40800  44.845  42.375  13.527
69075W        W40801  13.654  31.482  14.716
69076W        W40802   3.258  10.069   3.703
69077W        W40803   3.173  37.899   3.416
69078W        W40804  17.280  15.678  11.849
69079W        W40805  36.902  13.814   4.682
69080W        W40806  30.904  14.816  12.189
69081W        W40807  13.671  14.776  13.337
69082W        W40808  34.583   2.799  11.205
69083W        W40809  28.687   6.952   3.251
69084W        W40810  16.747   0.265  13.522
69085W        W40811   7.738  29.135  11.222
69086W        W40812  11.075  26.064   4.137
69087W        W40813  44.480  10.167  14.732
69088W        W40814  35.282  23.030   0.432
69089W        W40815  11.118  34.626   5.028
69090W        W40816  36.833  26.087  13.956
69091W        W40817   5.990  27.431  11.661
69092W        W40818   5.252  20.736   3.708
69093W        W40819  25.795  43.796   4.636
69094W        W40820  16.562  21.040   2.383
69095W        W40821   1.325  30.931   0.386
69096W        W40822  11.410  13.640  13.935
69097W        W40823  37.141  44.532  12.390
69098W        W40824  11.830  39.909  10.738
69099W        W40825  26.638  39.372   1.651
69100W        W40826  21.597  34.789   1.031
69101W        W40827  10.596  42.074  11.743
69102W        W40828  23.454  17.219   2.890
69103W        W40829  34.040  40.393  14.934
69104W        W40830  39.277   5.367   2.522
69105W        W40831   7.406  26.696  14.488
69106W        W40832  40.062  27.529  12.380
69107W        W40833  24.921  11.167   1.349
69108W        W40834  14.148  25.359  11.685
69109W        W40835  36.645   7.910  12.349
69110W        W40836   6.352   5.708   4.274
69111W        W40837  19.066  18.827   0.962
69112W        W40838  19.188   8.404   2.944
69113W        W40839   5.321  26.557  10.963
69114W        W40840  22.052  10.762   0.438
69115W        W40841  25.866  24.060  13.931
69116W        W40842   5.350  42.748   2.314
69117W        W40843   6.407  29.747   4.240
69118W        W40844  20.530   6.378   2.844
69119W        W40845  20.065   6.888  12.035
69120W        W40846   4.379  21.757  12.224
69121W        W40847  19.818  26.963  14.779
69122W        W40848   6.177   4.845   0.783
69123W        W40849  12.809  35.489   4.081
69124W        W40850  10.378  42.012  14.834
69125W        W40851  26.775  17.759   1.812
69126W        W40852  28.500  20.572  12.009
69127W        W40853  30.434  10.792   0.343
69128W        W40854  12.815   8.182   4.546
69129W        W40855  33.373   2.752   1.419
69130W        W40856  33.958  13.423   2.048
69131W        W40857  37.319  25.007  14.459
69132W        W40858  35.117  41.363   3.274
69133W        W40859   4.387  18.130   3.849
69134W        W40860   1.940  29.084  10.568
69135W        W40861   1.731   3.795  11.203
69136W        W40862  16.873  43.500  11.441
69137W        W40863  26.574  34.609   5.197
69138W        W40864  14.278  18.244  14.447
69139W        W40865  26.141  16.705  12.331
69140W        W40866  31.976  12.026   1.198
69141W        W40867  14.519   5.393   0.731
69142W        W40868  14.238  22.581   2.376
69143W        W40869  37.115  43.147   4.428
69144W        W40870  33.302   0.737   3.115
69145W        W40871  28.107   8.771   1.888
69146W        W40872  18.770  11.856  12.095
69147W        W40873  32.463   9.163  14.220
69148W        W40874  29.441  14.758  11.540
69149W        W40875  15.300  20.802   3.637
69150W        W40876  13.598  24.461  12.382
69151W        W40877  26.673   0.311  11.070
69152W        W40878  25.764  20.779   4.116
69153W        W40879  37.546  33.290  13.258
69154W        W40880  38.900  13.145  13.772
69155W        W40881  31.506   7.830   3.172
69156W        W40882  20.838   4.983   2.162
69157W        W40883   3.825  42.982  13.458
69158W        W40884  32.618  29.532  12.314
69159W        W40885  12.289  44.867  12.054
69160W        W40886  41.182   2.554  14.733
69161W        W40887   5.900  38.338   0.852
69162W        W40888   2.406   9.615   0.777
69163W        W40889  14.220  16.956   0.890
69164W        W40890  17.639  18.566   2.235
69165W        W40891  38.028   8.212  12.143
69166W        W40892  20.202  15.569   3.262
69167W        W40893  33.181  30.877  13.416
69168W        W40894  43.971  25.247   0.555
69169W        W40895  36.016  35.104   4.331
69170W        W40896  42.072  17.257  13.626
69171W        W40897  44.836  33.550   0.980
69172W        W40898  30.411  44.429  13.122
69173W        W40899  35.337  29.969  10.788
69174W        W40900  39.068  11.918  14.431
69175W        W40901  15.610  41.785   3.350
69176W        W40902  32.473  24.047  13.740
69177W        W40903  10.261  26.928   3.168
69178W        W40904  42.411  18.142   2.448
69179W        W40905  25.445  42.807   3.400
69180W        W40906  16.560  30.962  13.384
69181W        W40907  44.123  26.044  10.944
69182W        W40908   9.483  19.849  13.768
69183W        W40909  27.285  34.365  13.926
69184W        W40910   2.377  26.358   2.073
69185W        W40911   7.517  33.892   2.893
69186W        W40912   0.993  26.955   0.891
69187W        W40913  32.730  37.452   4.586
69188W        W40914  26.120  41.991   3.631
69189W        W40915  39.304   3.069   2.052
69190W        W40916  23.928  40.366  14.734
69191W        W40917  18.673  37.725  13.994
69192W        W40918  21.750  43.551   4.160
69193W        W40919   2.899  14.409  12.844
69194W        W40920  21.930  39.919   1.240
69195W        W40921   7.413  44.231  12.958
69196W        W40922  22.512  20.930  10.677
69197W        W40923  39.592   8.880  11.434
69198W        W40924   9.458   1.825  14.511
69199W        W40925  20.382  42.397   0.855
69200W        W40926  22.981   2.791   1.226
69201W        W40927  16.831  23.584   2.892
69202W        W40928  41.834  34.943   2.152
69203W        W40929  44.415  19.836  13.021
69204W        W40930  43.969  28.790   3.544
69205W        W40931  39.056  16.581   2.275
69206W        W40932   9.179   2.996   1.736
69207W        W40933  42.871  20.265  14.332
69208W        W40934  42.992  35.355  11.671
69209W        W40935   8.758  35.567  10.097
69210W        W40936  19.269   3.872  10.519
69211W        W40937  31.960   5.410  11.515
69212W        W40938  35.880  24.545   4.838
69213W        W40939  39.229  34.599   1.010
69214W        W40940   6.684  29.042  12.260
69215W        W40941  29.601  35.871  12.131
69216W        W40942  35.036  21.046  11.429
69217W        W40943  36.011  24.271   2.257
69218W        W40944  26.477  42.986  12.017
69219W        W40945  38.792  24.650  11.951
69220W        W40946  44.217  17.149   3.704
69221W        W40947  23.758  22.264   3.876
69222W        W40948   3.165   1.229  12.117
69223W        W40949  22.583  37.297  11.241
69224W        W40950  26.160  25.211  12.443
69225W        W40951  23.283   9.174  13.020
69226W        W40952   1.512  28.624   3.763
69227W        W40953  29.957   4.582   1.812
69228W        W40954  24.549  43.256  10.915
69229W        W40955  17.515   7.888  12.872
69230W        W40956  33.876  43.665  13.479
69231W        W40957   1.379  24.762  10.719
69232W        W40958  20.403   2.524  13.472
69233W        W40959  36.974  28.664  12.972
69234W        W40960   2.552  10.247   4.055
69235W        W40961   7.653  23.384   4.947
69236W        W40962  32.010  19.046   2.922
69237W        W40963  24.608   1.150  12.343
69238W        W40964  20.141  20.445   1.304
69239W        W40965  15.048  21.626  13.602
69240W        W40966   3.076   6.376  11.549
69241W        W40967  23.294  20.261  12.479
69242W        W40968  44.664  21.532   0.698
69243W        W40969   0.933   5.426  14.810
69244W        W40970  17.195  32.170  10.818
69245W        W40971   3.250  39.391   3.137
69246W        W40972   3.185   0.271   1.743
69247W        W40973  22.145  30.419  14.850
69248W        W40974  33.891  14.856  13.868
69249W        W40975   3.854  17.856   1.689
69250W        W40976  18.181  17.335  13.321
69251W        W40977   0.852  37.068  13.023
69252W        W40978   1.949  27.178  13.096
69253W        W40979  37.508  15.158   1.218
69254W        W40980   1.363   3.465  10.704
69255W        W40981  35.015  40.354  13.542
69256W        W40982  36.019  13.845  14.796
69257W        W40983  16.789   7.540   0.246
69258W        W40984   8.248  11.212  11.729
69259W        W40985  26.146  16.084   0.862
69260W        W40986  20.551   9.109   1.911
69261W        W40987  34.580  19.772  11.662
69262W        W40988  34.076   0.405   0.910
69263W        W40989  36.412  16.168   0.980
69264W        W40990  36.140   4.541   4.357
69265W        W40991  24.468  14.787  12.938
69266W        W40992  41.544  28.897  12.999
69267W        W40993  33.008  20.986   2.856
69268W        W40994  33.356  41.981   5.061
69269W        W40995  10.349  37.455  14.959
69270W        W40996   1.405  18.135  13.087
69271W        W40997  25.612   3.322  11.682
69272W        W40998  24.557  22.454   2.434
69273W        W40999  29.530  15.775  12.993
69274W        W41000  12.752  33.717   1.755
69275W        W41001  32.884  22.317  12.514
69276W        W41002   8.694  20.699  13.259
69277W        W41003  28.139  40.936   2.439
69278W        W41004  43.208  29.301  13.057
69279W        W41005  37.051  26.756   0.353
69280W        W41006  22.347   4.049   1.719
69281W        W41007   9.954  24.488   0.519
69282W        W41008   4.869   5.889   2.279
69283W        W41009  28.443   6.690   1.908
69284W        W41010   7.653  15.209   1.542
69285W        W41011  31.049   9.897   2.872
69286W        W41012  24.795  26.640  12.833
69287W        W41013  33.127  33.830  13.584
69288W        W41014  20.689   5.932  14.753
69289W        W41015  33.376  33.892  14.022
69290W        W41016   9.628   1.366   0.291
69291W        W41017  23.430  37.028  12.455
69292W        W41018  21.712  21.041   3.289
69293W        W41019  21.925  36.315  11.788
69294W        W41020  13.487   5.217  12.881
69295W        W41021  33.090  31.053   4.814
69296W        W41022  27.022  17.466  13.526
69297W        W41023  28.984  11.331  11.579
69298W        W41024  18.118   1.312   4.061
69299W        W41025  28.012  14.330   0.587
69300W        W41026  10.828  11.265  10.707
69301W        W41027  39.529  38.241  12.945
69302W        W41028  28.188  15.045   3.573
69303W        W41029  17.782  28.555   2.628
69304W        W41030  17.762   8.492   0.379
69305W        W41031  33.360  41.435  11.858
69306W        W41032   3.454  36.934   3.919
69307W        W41033  39.951   9.791   1.926
69308W        W41034  43.924  28.150   2.232
69309W        W41035  35.874  17.118  11.752
69310W        W41036  23.566  37.828   4.660
69311W        W41037  42.971  30.947  11.946
69312W        W41038  39.552  11.735   0.435
69313W        W41039   1.312  18.492  11.607
69314W        W41040  29.812   5.151   0.193
69315W        W41041  20.176  34.219  14.252
69316W        W41042  33.979  22.381  13.631
69317W        W41043   9.654  34.554  12.631
69318W        W41044  31.648  20.750  14.936
69319W        W41045   6.957  42.381   4.204
69320W        W41046  23.861  30.491   4.617
69321W        W41047  39.383  23.742  14.973
69322W        W41048  40.634  19.497   2.230
69323W        W41049  40.363  42.762  13.582
69324W        W41050   1.147   8.214   3.727
69325W        W41051  33.214  22.671   0.282
69326W        W41052  27.473   5.149   0.326
69327W        W41053  30.646  11.630   0.003
69328W        W41054  25.515  17.259  11.686
69329W        W41055  29.508  39.600   2.386
69330W        W41056  14.371  17.756   4.159
69331W        W41057  10.816  36.064   1.754
69332W        W41058  17.714  12.723   0.167
69333W        W41059  36.239  29.520   2.978
69334W        W41060  40.329  27.142   1.851
69335W        W41061  42.763   6.584   1.831
69336W        W41062   5.125   3.427   1.619
69337W        W41063  16.006  41.868  14.333
69338W        W41064  38.236  24.215  14.995
69339W        W41065  14.134  12.674   0.360
69340W        W41066  15.633  44.348  14.431
69341W        W41067  37.454  35.957   2.371
69342W        W41068  13.076  21.635  11.634
69343W        W41069  13.803  35.394  13.345
69344W        W41070  11.752  34.678  11.046
69345W        W41071  34.435  36.600   4.133
69346W        W41072  12.684  35.060   3.798
69347W        W41073  25.230  36.326   1.448
69348W        W41074  30.669  27.463   3.144
69349W        W41075   1.693  35.413   2.847
69350W        W41076  21.097  40.011   0.838
69351W        W41077  31.115  18.610   0.251
69352W        W41078   5.940   4.202   5.090
69353W        W41079  34.482  11.289   4.184
69354W        W41080  36.889  29.824  13.957
69355W        W41081  22.640   9.498   4.073
69356W        W41082  20.240  42.855   3.940
69357W        W41083  23.558  17.277  12.441
69358W        W41084  39.650  19.312   1.154
69359W        W41085  30.752  32.481  11.417
69360W        W41086   5.179  28.917  14.488
69361W        W41087  16.072   5.244   3.223
69362W        W41088  29.365  43.689   0.780
69363W        W41089  15.938  34.848   2.761
69364W        W41090  42.803  12.780   2.613
69365W        W41091  43.820  39.072  11.483
69366W        W41092  29.776  23.063   3.291
69367W        W41093  21.058  18.176  13.020
69368W        W41094   6.437  38.563   0.093
69369W        W41095  43.870   5.195  14.519
69370W        W41096  14.277  35.899  14.846
69371W        W41097  12.497   8.279   2.815
69372W        W41098   6.843  13.944  13.283
69373W        W41099  34.867  18.302  11.287
69374W        W41100  17.388  25.101  14.286
69375W        W41101  22.617  29.909  14.989
69376W        W41102  26.028  15.250   1.480
69377W        W41103  21.300  42.240  14.573
69378W        W41104  43.270   3.715  11.991
69379W        W41105   0.365  11.629  13.878
69380W        W41106   8.218  41.234   4.869
69381W        W41107  16.248   7.418  11.954
69382W        W41108  20.101  30.131   2.099
69383W        W41109   6.602  13.964  14.903
69384W        W41110  25.136  36.384   2.799
69385W        W41111  32.416  43.949  12.528
69386W        W41112  29.708  17.602   1.331
69387W        W41113   4.414  30.947  11.108
69388W        W41114  19.461  29.106   0.371
69389W        W41115   7.582  43.547   2.726
69390W        W41116  35.989   7.192  12.368
69391W        W41117  30.701  11.349   3.411
69392W        W41118  29.865   6.206   0.260
69393W        W41119  42.373  12.233   1.923
69394W        W41120  16.669   4.622   1.541
69395W        W41121   4.704   2.665  14.357
69396W        W41122  19.460  26.772   0.569
69397W        W41123  38.638  19.686  12.403
69398W        W41124  37.616  35.064  14.331
69399W        W41125  11.437  16.256   4.812
69400W        W41126  21.033  37.832   3.048
69401W        W41127  31.145  11.999  10.561
69402W        W41128   3.261  38.644   3.733
69403W        W41129  23.483  12.368  14.971
69404W        W41130  32.098  43.542   3.830
69405W        W41131  11.188  41.611  12.435
69406W        W41132  43.119  43.962   2.760
69407W        W41133   8.560  12.216  11.070
69408W        W41134  25.062  28.441   2.095
69409W        W41135   8.669   0.439  13.705
69410W        W41136  32.953   5.242  12.886
69411W        W41137  13.759   8.826   0.301
69412W        W41138  39.114  13.211  11.533
69413W        W41139  16.125  21.280  11.962
69414W        W41140  12.605  25.489  12.883
69415W        W41141  32.486  21.599   0.735
69416W        W41142  42.245  21.202  11.594
69417W        W41143  32.927  18.556  11.198
69418W        W41144  15.276   4.426   4.794
69419W        W41145  15.324  40.584   1.940
69420W        W41146  26.806  19.389  12.881
69421W        W41147  15.353  38.051   4.164
69422W        W41148  36.291  15.849  12.633
69423W        W41149  34.832   2.403   4.874
69424W        W41150  23.652  30.441  13.617
69425W        W41151   7.982   3.841  11.960
69426W        W41152  21.703  23.534   2.432
69427W        W41153  30.836   2.426  13.854
69428W        W41154  36.000   0.740  11.204
69429W        W41155  19.596  39.528  14.423
69430W        W41156   6.137  12.183  12.462
69431W        W41157  17.672   2.923   1.479
69432W        W41158  11.162  28.254  14.970
69433W        W41159  22.645  20.647  14.038
69434W        W41160  17.722  14.306  12.954
69435W        W41161  32.973  36.423  13.384
69436W        W41162  14.723  23.187   0.434
69437W        W41163  41.012  40.755  14.663
69438W        W41164  41.346   5.771  11.651
69439W        W41165   2.535  42.724  14.096
69440W        W41166  30.327  15.295  12.598
69441W        W41167  37.857   8.563   2.427
69442W        W41168   1.597   9.887   0.944
69443W        W41169  42.181  26.017  12.023
69444W        W41170   5.352  43.675  12.426
69445W        W41171  37.903   3.291  14.238
69446W        W41172  36.611  24.758  14.981
69447W        W41173  26.023  39.025   4.668
69448W        W41174   0.298  25.784   2.850
69449W        W41175  29.144  44.969  12.973
69450W        W41176  22.111  29.215  11.400
69451W        W41177   4.161  12.132  12.072
69452W        W41178  36.869  35.923  11.592
69453W        W41179  44.940   9.107  11.438
69454W        W41180  42.950  28.268   3.581
69455W        W41181  26.823  41.905   0.327
69456W        W41182  11.713  28.007  12.441
69457W        W41183  13.302  29.441   0.430
69458W        W41184  10.240  40.428  12.619
69459W        W41185   4.695  43.378  13.810
69460W        W41186  10.822  36.081   3.517
69461W        W41187  24.031   5.161  12.959
69462W        W41188   0.885  37.837   2.810
69463W        W41189  18.304  23.837   1.731
69464W        W41190  25.125  24.714   0.837
69465W        W41191   8.412  30.613  11.652
69466W        W41192  21.666  44.372  13.294
69467W        W41193  22.487  42.770   1.388
69468W        W41194  11.916  16.411   4.643
69469W        W41195  18.725  17.283   4.698
69470W        W41196  28.157   7.462   4.127
69471W        W41197   2.895  41.938  14.016
69472W        W41198  32.041  24.211   1.144
69473W        W41199  27.069  34.176   1.890
69474W        W41200  14.789  36.563  12.360
69475W        W41201   2.993  32.633  14.616
69476W        W41202  25.248   4.233  13.793
69477W        W41203  15.237  37.515   0.739
69478W        W41204  18.003  37.048   1.708
69479W        W41205  32.945  13.247   1.445
69480W        W41206   3.213  32.540   4.788
69481W        W41207  29.998   7.109  11.829
69482W        W41208  19.126  38.259  14.358
69483W        W41209  27.733  43.248   5.012
69484W        W41210  37.926  41.873   0.565
69485W        W41211  14.248   4.290  12.557
69486W        W41212  31.643   5.219  12.447
69487W        W41213   6.469  19.637   0.703
69488W        W41214   3.469   5.316  11.486
69489W        W41215  23.671   1.987   0.524
69490W        W41216  30.059  10.354  14.751
69491W        W41217   3.728  10.101  14.797
69492W        W41218   5.876  36.171  14.777
69493W        W41219  28.251  14.392   1.434
69494W        W41220  12.146  32.383  14.898
69495W        W41221  17.780  29.013   2.386
69496W        W41222  37.807   4.768  10.660
69497W        W41223  21.699  15.581   0.760
69498W        W41224   8.428  11.462   0.960
69499W        W41225  37.554  26.420   0.044
69500W        W41226  24.436   2.332   3.752
69501W        W41227  40.337  35.151   4.085
69502W        W41228   3.235  44.949  13.792
69503W        W41229  10.147  24.163  10.458
69504W        W41230  39.924   1.076  10.496
69505W        W41231  27.998  27.575  11.775
69506W        W41232  29.950  27.007  14.351
69507W        W41233  20.800  36.000  14.242
69508W        W41234  21.203  13.927  10.772
69509W        W41235   6.906  41.385  14.611
69510W        W41236  23.012   5.635  11.554
69511W        W41237  38.404   5.057  12.105
69512W        W41238  21.619  29.420  13.828
69513W        W41239  42.586  39.560  11.880
69514W        W41240  10.459  13.995  11.188
69515W        W41241  27.199  12.280   4.384
69516W        W41242   0.376  38.987   0.084
69517W        W41243   9.753  25.690   2.142
69518W        W41244   2.181   0.790  13.458
69519W        W41245  32.468  27.026  13.985
69520W        W41246  20.203  42.736  10.267
69521W        W41247   7.805  33.378  14.360
69522W        W41248  18.614  14.724  13.660
69523W        W41249   9.267  16.818   0.288
69524W        W41250   7.343   7.893  13.738
69525W        W41251   1.961  42.903   0.262
69526W        W41252  22.491  30.481   0.231
69527W        W41253  32.128  44.219  11.891
69528W        W41254  29.330   4.472   0.766
69529W        W41255   4.666  20.795  11.639
69530W        W41256  10.925   1.425   4.379
69531W        W41257  15.266  36.174   2.162
69532W        W41258   3.987  11.626   1.540
69533W        W41259  33.731  38.307   4.962
69534W        W41260  33.409  15.715   4.220
69535W        W41261  40.451  29.986   2.675
69536W        W41262  35.349   4.694  13.311
69537W        W41263  34.080  20.305  13.404
69538W        W41264   4.245   2.069  14.823
69539W        W41265  29.667  30.418   2.666
69540W        W41266  26.770  12.403  10.325
69541W        W41267  30.527   2.982   2.652
69542W        W41268  31.077  22.028   3.725
69543W        W41269  16.648  41.063   4.093
69544W        W41270  38.988  38.012   2.944
69545W        W41271  19.843  43.263  14.052
69546W        W41272  13.799  25.198  14.513
69547W        W41273  40.894  37.488  11.634
69548W        W41274   0.528  31.688  14.561
69549W        W41275  44.430   3.867   3.159
69550W        W41276  38.822  16.032   0.399
69551W        W41277  40.864  24.551  14.557
69552W        W41278  36.004  20.125  10.513
69553W        W41279  30.920  14.184  10.525
69554W        W41280  39.053  15.676   2.719
69555W        W41281  26.166  11.483  11.647
69556W        W41282  28.662   4.500   3.221
69557W        W41283  37.322  36.969  14.755
69558W        W41284  31.776  43.527  14.965
69559W        W41285  22.955  27.957  10.021
69560W        W41286   6.117  31.971   3.046
69561W        W41287  30.256  33.014  12.063
69562W        W41288  43.047   3.681   4.116
69563W        W41289   6.966  14.768  14.439
69564W        W41290  33.305  12.508  11.417
69565W        W41291  43.472  18.096  14.004
69566W        W41292  21.823  28.333  11.350
69567W        W41293  40.366  32.385   1.290
69568W        W41294  23.973   9.949  12.420
69569W        W41295  18.333  23.242  14.074
69570W        W41296   5.640  20.182   4.291
69571W        W41297  23.818  18.284  12.391
69572W        W41298  10.599  42.542  13.163
69573W        W41299  30.498  26.940  13.448
69574W        W41300  13.245   8.101   1.867
69575W        W41301  31.514  40.856   1.313
69576W        W41302  35.332  17.155  14.061
69577W        W41303  35.406  17.268  10.614
69578W        W41304  25.207  36.464   3.357
69579W        W41305  13.532  11.836   2.495
69580W        W41306  19.053  16.816   4.746
69581W        W41307   8.168  14.799  14.906
69582W        W41308  21.539  36.037  13.872
69583W        W41309  21.606  12.200   3.385
69584W        W41310  18.261  33.626   3.870
69585W        W41311  34.272  15.178   3.589
69586W        W41312  42.594  11.795  12.334
69587W        W41313  42.247  13.885  11.051
69588W        W41314  26.778  43.952  10.920
69589W        W41315  37.994  28.424   1.292
69590W        W41316  40.655  26.529   4.963
69591W        W41317  12.589  43.330  14.391
69592W        W41318  39.261  15.586   3.862
69593W        W41319  32.951  17.211   4.621
69594W        W41320  44.816  20.663  13.088
69595W        W41321  40.006  16.062   1.310
69596W        W41322  22.687  42.522   3.113
69597W        W41323  26.072   1.773   4.348
69598W        W41324  43.368  16.561   2.228
69599W        W41325  41.949  36.533   4.921
69600W        W41326  36.421  12.495   4.371
69601W        W41327  40.448  34.884   3.665
69602W        W41328  20.806   8.405  12.391
69603W        W41329   1.260  10.258   3.710
69604W        W41330  16.766  29.681  13.853
69605W        W41331   2.819  42.721   1.826
69606W        W41332   9.824   2.802   1.303
69607W        W41333   2.812  17.224  11.857
69608W        W41334  44.893  40.476   3.184
69609W        W41335  30.053   6.676   3.289
69610W        W41336  33.360  22.239   2.798
69611W        W41337  14.731   6.858  11.404
69612W        W41338  10.887   9.824  13.441
69613W        W41339  26.040   8.915  11.627
69614W        W41340   7.866   1.928  11.929
69615W        W41341  14.203  35.333   4.362
69616W        W41342  38.562  34.027  14.553
69617W        W41343   1.383   2.503  14.112
69618W        W41344  22.595   6.435  14.328
69619W        W41345  35.044  40.783   4.074
69620W        W41346  18.477  13.248   0.325
69621W        W41347   6.203  33.676  13.640
69622W        W41348   0.392  44.704   3.766
69623W        W41349  25.936  15.807   2.247
69624W        W41350  38.080  37.189   2.391
69625W        W41351  39.152   3.343  11.508
69626W        W41352  29.276   6.841   3.936
69627W        W41353  22.787  20.379  12.514
69628W        W41354   3.169  21.732   4.067
69629W        W41355  23.975  15.267  14.710
69630W        W41356   0.653   3.008  13.653
69631W        W41357   1.953  31.293  10.862
69632W        W41358  17.161  26.712   3.878
69633W        W41359   0.504  15.848   1.397
69634W        W41360   6.724  20.995  13.574
69635W        W41361  20.662  32.692  14.884
69636W        W41362  17.793  26.620  13.164
69637W        W41363   1.649  15.090   1.133
69638W        W41364  23.570  32.807  13.953
69639W        W41365   1.290  30.626  13.520
69640W        W41366  18.544  44.303  12.394
69641W        W41367  25.553   9.446  11.551
69642W        W41368  14.276  11.694   0.432
69643W        W41369  30.611   2.845  10.725
69644W        W41370  31.211  43.143  13.383
69645W        W41371  11.812   2.514   3.240
69646W        W41372  40.737  21.149   0.936
69647W        W41373  19.139  19.194   0.042
69648W        W41374  20.769   6.946  13.456
69649W        W41375  19.839  37.969  14.740
69650W        W41376  19.533  22.557  14.408
69651W        W41377  31.962   1.254   1.766
69652W        W41378  37.035  15.482   1.212
69653W        W41379   8.149  34.871   4.805
69654W        W41380   4.277  38.776  13.899
69655W        W41381  16.245  38.059   3.209
69656W        W41382  34.670  16.307   0.541
69657W        W41383  12.250  34.794  13.004
69658W        W41384  31.675  38.524   4.222
69659W        W41385   2.241  16.203   4.877
69660W        W41386  42.695  11.931  13.583
69661W        W41387   8.215   4.309  14.362
69662W        W41388  30.095  18.218   0.321
69663W        W41389  32.317  11.120   3.664
69664W        W41390   7.843   2.376   3.625
69665W        W41391   3.473   6.830  13.957
69666W        W41392  15.374  28.926   0.861
69667W        W41393  21.071  24.198   4.148
69668W        W41394  10.392   4.893  11.657
69669W        W41395  20.307   0.607   0.553
69670W        W41396   4.730   6.406   2.338
69671W        W41397  43.932  28.187  12.027
69672W        W41398  15.710   8.633  12.383
69673W        W41399  17.031  22.532  12.999
69674W        W41400  37.935  29.015  12.786
69675W        W41401   7.792   2.872  12.936
69676W        W41402  41.241  34.162  14.895
69677W        W41403  16.627   7.608  13.822
69678W        W41404  22.587  13.095  10.275
69679W        W41405  39.479  32.836  12.338
69680W        W41406   0.859  12.620   0.940
69681W        W41407  12.933  40.448  12.902
69682W        W41408  18.639  22.550   4.075
69683W        W41409  39.931  41.029  13.911
69684W        W41410  38.514  34.902  12.829
69685W        W41411  35.905  32.129   1.139
69686W        W41412  42.900   9.619   4.340
69687W        W41413  20.573  34.171   4.582
69688W        W41414  42.609  42.481  14.307
69689W        W41415  43.511   4.875   1.378
69690W        W41416  34.847  42.796  12.793
69691W        W41417  29.927   2.825  11.488
69692W        W41418   4.810  41.308   4.208
69693W        W41419  20.783  44.979   3.662
69694W        W41420  41.454  26.477   0.295
69695W        W41421  15.753  39.028  11.462
69696W        W41422   9.741  22.064  13.113
69697W        W41423   9.147  16.754  12.892
69698W        W41424  10.901  29.186  14.750
69699W        W41425  30.542  33.431  13.446
69700W        W41426  17.084  24.103   1.410
69701W        W41427   2.329  41.786  10.987
69702W        W41428  14.344  15.355   4.446
69703W        W41429  14.258  30.373  10.600
69704W        W41430  38.317  40.755  12.932
69705W        W41431  31.358  33.445   3.779
69706W        W41432   7.795  22.532  10.699
69707W        W41433  10.270  18.324   0.342
69708W        W41434  18.715   0.304  11.509
69709W        W41435  31.015  42.515   9.902
69710W        W41436  18.507   5.820  13.058
69711W        W41437  25.179  14.856   1.267
69712W        W41438  33.398  12.087  11.097
69713W        W41439  36.248  18.143  13.816
69714W        W41440  25.482  19.117   3.063
69715W        W41441   0.728  23.191   4.096
69716W        W41442   3.257  22.631  14.812
69717W        W41443  28.654   4.156  14.094
69718W        W41444   4.703  30.386  10.132
69719W        W41445  25.254  41.121   2.354
69720W        W41446  14.020  23.535   1.435
69721W        W41447  35.522  24.040  11.548
69722W        W41448  18.564  23.541  14.405
69723W        W41449  11.233  14.605   1.268
69724W        W41450  29.034  27.864  10.958
69725W        W41451  44.947  35.768  14.445
69726W        W41452   1.347  37.801  14.835
69727W        W41453  35.026  14.226   0.180
69728W        W41454  19.098  16.185  14.129
69729W        W41455  39.977  20.610   2.079
69730W        W41456  23.741  39.107   3.179
69731W        W41457  12.721  23.726   1.236
69732W        W41458  43.019  11.870  12.640
69733W        W41459  12.031  21.834   3.259
69734W        W41460  13.421   7.879   0.056
69735W        W41461  42.015  37.781   2.382
69736W        W41462  22.159  37.373   1.360
69737W        W41463  23.063  43.823   2.416
69738W        W41464   6.801   8.836   2.308
69739W        W41465  25.040  43.394   3.403
69740W        W41466  27.089  19.273   2.310
69741W        W41467  40.642   0.521   3.635
69742W        W41468  42.202  32.088   5.119
69743W        W41469  36.142  21.778   0.653
69744W        W41470   1.900  16.782  11.148
69745W        W41471  12.266  42.565   3.273
69746W        W41472  38.326  20.559  11.048
69747W        W41473   5.264  11.628  12.974
69748W        W41474  16.607  14.559  14.466
69749W        W41475  24.635  39.899  12.896
69750W        W41476  14.882   1.631   0.615
69751W        W41477  39.012   1.869   0.416
69752W        W41478  14.443  19.495   4.133
69753W        W41479  13.456  24.039  13.132
69754W        W41480  18.579   1.570   1.159
69755W        W41481  18.032  44.610   9.702
69756W        W41482   0.289   3.214  11.404
69757W        W41483   4.120  38.334   0.931
69758W        W41484   5.702  38.404   1.324
69759W        W41485  40.446   9.747  10.875
69760W        W41486  32.930   8.422   0.051
69761W        W41487  11.776  31.418  11.534
69762W        W41488  43.738  29.294  12.999
69763W        W41489   9.958   0.019  13.912
69764W        W41490  10.351  24.026   0.701
69765W        W41491   8.778  27.108   1.215
69766W        W41492   9.897  23.228   3.309
69767W        W41493   2.869  26.697  13.967
69768W        W41494  15.607   4.344  12.058
69769W        W41495  39.837  23.188   3.709
69770W        W41496  11.511  14.220   4.161
69771W        W41497  37.872  31.520   4.147
69772W        W41498  17.978  31.827   2.261
69773W        W41499   4.609  10.225   3.605
69774W        W41500  11.328  17.512  12.106
69775W        W41501  34.809  20.274  13.817
69776W        W41502  12.255   9.129  12.126
69777W        W41503  30.438   1.959  11.630
69778W        W41504  32.691  42.362  11.936
69779W        W41505  19.212  40.952   0.815
69780W        W41506  13.217  20.745   3.879
69781W        W41507  38.669  11.116   4.290
69782W        W41508  30.444  30.600  13.327
69783W        W41509  35.851   4.964   4.268
69784W        W41510  18.307  19.021   3.902
69785W        W41511  42.534  10.725  11.371
69786W        W41512  17.295  28.957  13.274
69787W        W41513  18.847  40.347  12.442
69788W        W41514   5.476   4.809   2.325
69789W        W41515  16.113  34.219  11.453
69790W        W41516  15.200  11.549   0.852
69791W        W41517  42.084  40.516   1.742
69792W        W41518  16.192  21.345   3.687
69793W        W41519  33.908  41.553   4.630
69794W        W41520   0.838  17.962   4.855
69795W        W41521  41.884  27.586  12.427
69796W        W41522  19.315   9.678   4.485
69797W        W41523   8.380  41.493   4.442
69798W        W41524  28.480  13.637   4.814
69799W        W41525  26.268  33.806  12.173
69800W        W41526  34.804  36.103  13.898
69801W        W41527  40.849  30.420  10.639
69802W        W41528  22.070  15.136  11.408
69803W        W41529  12.573  42.826   3.589
69804W        W41530  27.215  39.056  14.367
69805W        W41531  37.571  41.266   1.287
69806W        W41532  21.334  28.342  11.512
69807W        W41533  35.430   9.741   4.061
69808W        W41534  26.634   2.382   3.850
69809W        W41535  24.674  42.674  10.757
69810W        W41536   8.385   6.704  13.045
69811W        W41537   6.581   9.322  10.593
69812W        W41538  32.875  32.094  13.988
69813W        W41539  32.578  42.238   2.768
69814W        W41540   7.869   4.821   4.658
69815W        W41541  17.105  44.916   1.203
69816W        W41542  26.153  23.670   2.872
69817W        W41543  36.911  22.265  13.556
69818W        W41544   3.694  35.615   1.321
69819W        W41545  11.275  30.432   1.621
69820W        W41546  28.483   7.349  10.902
69821W        W41547  29.623  40.934  11.483
69822W        W41548   2.915   2.903  10.717
69823W        W41549  31.653   1.824  13.053
69824W        W41550  32.030  33.127  12.674
69825W        W41551   6.200  33.197   3.639
69826W        W41552  20.043  12.609   4.687
69827W        W41553  10.392  28.793   1.809
69828W        W41554  23.492  31.600   4.188
69829W        W41555  30.803  44.981   4.015
69830W        W41556  43.573  20.480   0.522
69831W        W41557  32.965   5.755   1.381
69832W        W41558  16.573  19.009  13.932
69833W        W41559  10.123  20.264  13.102
69834W        W41560  20.951  27.605   3.684
69835W        W41561  15.799  21.102   3.322
69836W        W41562   6.271  32.634   0.602
69837W        W41563   7.682   3.267  11.695
69838W        W41564   8.269  14.888  12.338
69839W        W41565  30.570   7.842   0.675
69840W        W41566  22.201  41.984  14.530
69841W        W41567  42.351   5.448  12.970
69842W        W41568  27.537   4.374  10.863
69843W        W41569  36.800  26.601  12.036
69844W        W41570  31.744  43.242  10.728
69845W        W41571  33.239  12.601  11.981
69846W        W41572  36.142  42.961   0.271
69847W        W41573  32.221  38.841  13.274
69848W        W41574  32.617  27.452  14.241
69849W        W41575  15.348   5.219   1.861
69850W        W41576  43.304  32.224   0.276
69851W        W41577   4.277  13.569  13.482
69852W        W41578  44.832   2.187   2.952
69853W        W41579  32.647  27.575  10.668
69854W        W41580   9.315  30.074   3.054
69855W        W41581  10.201  15.639   1.273
69856W        W41582  14.395  31.425   3.407
69857W        W41583   7.843  37.748   3.827
69858W        W41584  17.685  37.034   1.228
69859W        W41585  12.773  34.123  12.817
69860W        W41586   8.564  43.590   3.639
69861W        W41587   4.644   1.344   2.345
69862W        W41588  17.393  37.016   3.139
69863W        W41589   8.403  24.106   3.270
69864W        W41590  20.226  36.693   0.797
69865W        W41591   3.560  19.697  12.906
69866W        W41592  28.941   5.716   0.320
69867W        W41593  17.569  19.473  12.706
69868W        W41594  11.269  28.263  14.094
69869W        W41595   1.423   4.361  12.242
69870W        W41596  18.320  11.353   0.984
69871W        W41597  35.566  33.938  10.678
69872W        W41598  20.724  28.651   1.034
69873W        W41599  22.148  43.349   2.367
69874W        W41600  35.625  33.507  11.089
69875W        W41601  21.779   5.466  10.933
69876W        W41602   7.618  12.486   0.010
69877W        W41603   9.748  30.788  12.936
69878W        W41604  41.044  31.492  14.009
69879W        W41605  39.389   8.305  14.268
69880W        W41606  34.282  33.575  12.713
69881W        W41607  27.948  40.362   4.710
69882W        W41608   2.384   9.606  13.323
69883W        W41609  42.731   5.105  12.930
69884W        W41610  27.439  13.479  14.610
69885W        W41611  11.271  15.791   4.679
69886W        W41612  29.835  36.796  12.884
69887W        W41613  43.419  19.630  14.925
69888W        W41614  35.904  25.329   4.091
69889W        W41615  19.147  39.287  14.437
69890W        W41616  44.798  23.230  10.865
69891W        W41617  22.605  36.800   0.776
69892W        W41618   9.780  32.031   0.294
69893W        W41619  41.454  15.797   3.115
69894W        W41620   5.881   7.301   3.708
69895W        W41621  32.155  34.960   3.323
69896W        W41622   4.343  36.806   0.945
69897W        W41623  17.096  12.570  12.029
69898W        W41624  27.564   3.571   1.904
69899W        W41625  36.614  41.024   4.636
69900W        W41626  39.154  27.575   0.710
69901W        W41627   2.969   2.529   1.337
69902W        W41628   8.466  18.949  12.529
69903W        W41629  44.553  16.087  12.803
69904W        W41630  10.411   0.470  14.811
69905W        W41631   8.247  36.414  11.715
69906W        W41632  17.098  44.702  13.442
69907W        W41633  10.824  36.470  10.252
69908W        W41634  20.130   1.150  14.855
69909W        W41635  39.488  29.504  14.307
69910W        W41636  15.649   1.363   3.423
69911W        W41637  20.387  32.599   2.350
69912W        W41638  16.603  26.224   0.549
69913W        W41639  25.661  24.339  13.521
69914W        W41640   9.674  42.370   1.730
69915W        W41641  21.753  36.502   2.412
69916W        W41642  13.363  43.064   2.270
69917W        W41643  27.508  34.097  14.288
69918W        W41644  11.887  30.631   4.846
69919W        W41645  34.431  40.143   2.745
69920W        W41646  31.828  30.089   2.213
69921W        W41647  36.065  12.203   2.395
69922W        W41648  32.071  25.553  13.029
69923W        W41649  41.530  38.808   1.333
69924W        W41650  10.535  43.110   3.357
69925W        W41651  17.759  43.406  13.338
69926W        W41652  17.665   1.049   0.877
69927W        W41653  18.528  28.930   5.095
69928W        W41654  12.756  24.637  11.564
69929W        W41655  38.892  19.675   3.032
69930W        W41656  30.213  34.477   1.456
69931W        W41657  12.718  19.239  12.659
69932W        W41658   6.859  37.174   0.022
69933W        W41659   9.079  33.580   5.441
69934W        W41660  39.283  39.863  11.635
69935W        W41661  37.108   0.028   3.285
69936W        W41662  18.458  36.934   2.855
69937W        W41663   5.253  16.163  13.799
69938W        W41664  15.218  37.259   4.537
69939W        W41665  24.080   9.357  10.437
69940W        W41666  30.444   1.378   2.608
69941W        W41667  10.574   0.433   1.294
69942W        W41668   6.429  29.372   0.024
69943W        W41669  28.642  42.804  10.927
69944W        W41670  25.084  20.532  12.177
69945W        W41671  39.525   6.846   2.407
69946W        W41672  11.169  30.332  14.846
69947W        W41673  29.554  41.559   2.141
69948W        W41674   6.029  18.267   1.970
69949W        W41675  12.327  29.135   3.830
69950W        W41676  12.364  30.383   0.211
69951W        W41677  35.868  17.066   2.701
69952W        W41678   4.127   5.667  11.152
69953W        W41679  30.124  33.969  11.175
69954W        W41680  28.070  20.980  13.354
69955W        W41681   7.135  32.416  14.363
69956W        W41682  23.532   7.368   3.753
69957W        W41683   9.082  37.596  12.675
69958W        W41684  24.888  18.737  14.740
69959W        W41685  25.163  23.498   3.772
69960W        W41686  11.786  20.762   3.305
69961W        W41687   3.464  19.319   4.016
69962W        W41688  24.161  38.887  14.056
69963W        W41689  34.544  29.969  10.392
69964W        W41690  34.267  11.695  14.835
69965W        W41691   5.696  33.142  10.661
69966W        W41692  17.210  39.458  11.246
69967W        W41693  17.810  41.785  14.209
69968W        W41694  37.820  11.793   5.074
69969W        W41695   5.679  28.373  12.401
69970W        W41696  40.413  34.888  13.252
69971W        W41697   7.899   1.002   0.919
69972W        W41698  37.052  14.681  14.795
69973W        W41699  15.022  20.113  14.496
69974W        W41700  37.697  39.079  11.003
69975W        W41701  30.681  23.907   0.701
69976W        W41702  31.993  17.638  12.089
69977W        W41703  25.605   9.183  14.835
69978W        W41704  23.251  43.947   1.921
69979W        W41705  27.235   7.903   4.429
69980W        W41706  34.825   3.714  14.405
69981W        W41707  11.328   2.241   3.296
69982W        W41708  33.568   8.749   2.818
69983W        W41709  19.039   8.205  11.937
69984W        W41710  13.313  32.059   2.165
69985W        W41711  39.120  41.482   0.397
69986W        W41712  15.871  10.777   0.408
69987W        W41713  35.661  33.484   2.167
69988W        W41714   9.937  10.200   2.346
69989W        W41715   5.419  39.843  12.038
69990W        W41716  11.137  27.061   3.656
69991W        W41717  39.960   6.195  13.638
69992W        W41718  36.223  15.383  12.882
69993W        W41719  17.745  44.903  14.852
69994W        W41720   9.860   9.999   4.124
69995W        W41721  36.906   2.349  12.124
69996W        W41722  34.286  16.598   4.792
69997W        W41723   0.525  27.213   2.855
69998W        W41724  38.517   9.801  14.818
69999W        W41725  42.238  33.996  11.901
70000W        W41726  32.375  23.558  10.209
70001W        W41727  31.137  32.171   3.882
70002W        W41728  23.236  35.337   2.876
70003W        W41729  12.832  34.407   0.031
70004W        W41730  36.614  40.883   0.413
70005W        W41731  20.048   4.340   2.875
70006W        W41732  40.892  30.847  12.950
70007W        W41733  24.755   0.207   1.658
70008W        W41734  34.508  10.814   4.361
70009W        W41735   4.319  20.601  10.905
70010W        W41736  11.114  39.856  12.085
70011W        W41737  37.977  33.824   2.341
70012W        W41738  32.475   2.034  10.805
70013W        W41739  16.171  26.273  11.455
70014W        W41740   9.784   3.875  11.645
70015W        W41741  41.755  44.098   2.845
70016W        W41742  18.584  30.124  10.576
70017W        W41743  15.256  32.541   3.605
70018W        W41744  29.620   9.118  11.082
70019W        W41745  13.776  17.286   0.914
70020W        W41746  20.293  32.509   0.246
70021W        W41747   0.304  11.026  13.351
70022W        W41748   7.196  21.451  11.954
70023W        W41749  44.063  17.638  14.345
70024W        W41750  11.339  34.950  10.593
70025W        W41751  12.356  17.123  11.652
70026W        W41752  26.719  38.359   2.791
70027W        W41753  29.243   0.134   0.343
70028W        W41754  22.659   2.252  12.761
70029W        W41755  16.411  30.142   3.626
70030W        W41756   5.915  41.393  11.368
70031W        W41757  44.411  17.168  14.011
70032W        W41758   3.206  39.546   1.342
70033W        W41759   1.875  22.212   1.894
70034W        W41760  42.593  41.244   2.277
70035W        W41761  18.218  17.191   0.864
70036W        W41762  11.232  28.347   4.640
70037W        W41763  12.281  19.265   4.579
70038W        W41764   4.987  43.272  10.412
70039W        W41765   2.103  18.867   2.448
70040W        W41766  28.630  13.193  12.007
70041W        W41767  27.322  44.892  11.404
70042W        W41768  10.704  37.562   2.254
70043W        W41769   2.128  20.937   0.887
70044W        W41770   3.955  15.268  11.139
70045W        W41771  10.288  21.681   2.942
70046W        W41772   4.235  30.962   1.963
70047W        W41773   9.229  21.491   1.443
70048W        W41774  12.283  28.290   0.408
70049W        W41775  39.820  32.089  10.955
70050W        W41776   0.806  20.596  14.674
70051W        W41777   3.738  20.063  13.833
70052W        W41778  20.860  25.719  10.224
70053W        W41779  27.893   2.722   3.123
70054W        W41780  36.324  31.078   1.891
70055W        W41781   7.332  38.953   0.509
70056W        W41782  28.771  18.808  13.304
70057W        W41783   6.752  20.052   4.840
70058W        W41784  36.146  36.023   2.805
70059W        W41785  37.126   8.890  11.142
70060W        W41786  13.757  18.589   4.692
70061W        W41787  23.711   5.789   2.322
70062W        W41788  20.693  24.052  10.313
70063W        W41789  33.682  22.401   2.417
70064W        W41790  29.758  43.342   1.886
70065W        W41791  10.124   7.630  11.033
70066W        W41792  14.209  11.997  11.695
70067W        W41793  30.900  20.706  12.396
70068W        W41794  24.652  28.515   4.635
70069W        W41795  15.048  18.688  12.542
70070W        W41796  41.983  29.128   1.288
70071W        W41797  34.030  16.839   1.518
70072W        W41798  17.680   7.795   1.395
70073W        W41799  35.399   3.507   3.532
70074W        W41800  19.525  44.173  11.567
70075W        W41801  29.539  25.216   0.734
70076W        W41802  13.731   4.252   1.185
70077W        W41803  36.784  29.758  11.966
70078W        W41804  31.882  33.517   1.911
70079W        W41805  33.339  20.005  13.901
70080W        W41806  13.785  28.614   4.409
70081W        W41807  10.707  37.929  13.399
70082W        W41808  33.006  43.044  10.894
70083W        W41809  36.266  11.740   2.258
70084W        W41810  15.998  34.454  11.017
70085W        W41811  40.972   0.314   3.956
70086W        W41812  15.347  28.508  10.762
70087W        W41813  43.369  27.962   0.443
70088W        W41814   6.500  34.879  13.024
70089W        W41815   6.773  35.663   0.026
70090W        W41816  15.077  21.113  10.457
70091W        W41817  36.426  19.076  13.684
70092W        W41818  16.579   1.037  11.038
70093W        W41819  17.257  22.082  13.198
70094W        W41820  17.598  32.098   1.970
70095W        W41821  29.810  32.083   2.110
70096W        W41822  22.047  28.095  13.926
70097W        W41823   9.184  40.261  11.998
70098W        W41824  26.048  37.758  12.595
70099W        W41825  25.441  26.590  11.117
70100W        W41826  34.080   5.459  12.492
70101W        W41827  24.637  22.041   0.787
70102W        W41828   5.984  35.888  12.771
70103W        W41829   5.249  26.144   1.670
70104W        W41830  37.506  40.061  14.850
70105W        W41831  31.057   8.663   0.701
70106W        W41832  14.229   0.211  14.624
70107W        W41833  23.464  25.073   1.286
70108W        W41834   1.327   4.250  13.535
70109W        W41835   4.275  41.012   2.147
70110W        W41836  27.611  31.013   4.557
70111W        W41837  34.961   7.310   1.227
70112W        W41838  41.033   3.351  14.290
70113W        W41839   3.944  20.216   0.335
70114W        W41840  11.406  29.356   5.093
70115W        W41841  11.717  41.381   0.891
70116W        W41842  13.172   6.939  14.971
70117W        W41843   2.118  35.290  13.433
70118W        W41844  42.304  21.945  11.136
70119W        W41845   4.183   8.838  14.080
70120W        W41846   6.946  34.606  12.869
70121W        W41847   9.381  20.685   3.312
70122W        W41848   4.926  32.171  11.610
70123W        W41849  38.495  31.198  12.944
70124W        W41850  31.764  42.523   3.752
70125W        W41851  40.116   1.507  10.237
70126W        W41852   6.436  40.967   0.267
70127W        W41853   1.865   2.327  14.185
70128W        W41854  24.950  11.844   2.127
70129W        W41855  44.670  17.347   3.840
70130W        W41856  26.650  22.356   4.442
70131W        W41857  39.480  16.521   0.992
70132W        W41858  37.100  14.731  10.417
70133W        W41859  42.008  37.276  12.531
70134W        W41860  42.739  24.686   0.834
70135W        W41861  12.101  44.351   1.400
70136W        W41862  35.000  29.981   3.340
70137W        W41863  28.905  13.436  12.390
70138W        W41864  24.507  40.887  11.646
70139W        W41865   9.106   7.320  10.661
70140W        W41866  24.141   3.456  10.621
70141W        W41867  32.986  37.879   4.410
70142W        W41868  41.939  17.219  10.765
70143W        W41869  37.565   0.170   0.631
70144W        W41870  22.041   3.830  11.912
70145W        W41871  12.798  23.592  11.582
70146W        W41872  21.591  38.178   3.182
70147W        W41873  33.202  39.499  13.949
70148W        W41874  15.306  39.816  13.507
70149W        W41875  44.810   9.135  11.968
70150W        W41876  38.076   8.071   2.564
70151W        W41877  32.340  20.290  12.137
70152W        W41878  20.252  36.959   1.244
70153W        W41879  28.383  44.828   2.786
70154W        W41880  22.729  38.897  12.615
70155W        W41881  26.968  39.874  14.374
70156W        W41882  40.858   2.901   1.567
70157W        W41883  44.306  33.512   4.508
70158W        W41884  27.181  40.878   2.687
70159W        W41885  32.443   7.713  13.043
70160W        W41886   2.192  22.637   1.890
70161W        W41887  14.537  27.999   2.079
70162W        W41888  22.048  19.098  10.711
70163W        W41889  17.119   3.264   0.193
70164W        W41890  29.415  15.874   4.627
70165W        W41891  42.825  19.007   0.912
70166W        W41892  37.846  17.802  12.415
70167W        W41893  20.446  29.049  14.267
70168W        W41894  10.123  25.917  14.370
70169W        W41895  20.171  41.152   3.720
70170W        W41896   9.673  10.347  14.777
70171W        W41897   8.156   5.330  12.347
70172W        W41898  25.926  36.826  10.801
70173W        W41899  27.809  35.157   4.965
70174W        W41900  25.275  35.339  10.709
70175W        W41901  12.417  14.288  14.253
70176W        W41902  33.057  41.881   0.603
70177W        W41903  31.610  12.157   2.831
70178W        W41904  25.912  23.616  13.294
70179W        W41905   0.955   0.369   2.705
70180W        W41906  16.752   1.505  13.428
70181W        W41907   1.869   3.014   4.554
70182W        W41908   9.475  20.498  11.198
70183W        W41909  11.389  34.336  10.969
70184W        W41910  36.655   9.432   3.038
70185W        W41911  27.735  13.151  13.884
70186W        W41912  39.233  33.357  10.534
70187W        W41913  16.160   6.776  12.532
70188W        W41914   6.159  10.831   2.795
70189W        W41915  26.914  19.243   0.081
70190W        W41916  21.548  44.406  12.798
70191W        W41917  11.827  20.631  10.913
70192W        W41918  32.126  16.080   2.398
70193W        W41919   9.169  23.422  13.445
70194W        W41920  21.256  27.705  13.731
70195W        W41921  40.298  26.583   4.588
70196W        W41922  26.730  24.464   0.371
70197W        W41923  43.454  26.457   3.132
70198W        W41924  10.843  44.984   1.355
70199W        W41925   1.913   1.456   0.881
70200W        W41926  43.456   3.872   0.081
70201W        W41927  26.138   7.871   0.913
70202W        W41928  24.034   6.495   2.607
70203W        W41929  23.141  24.302  13.572
70204W        W41930  21.280   7.011   4.147
70205W        W41931  24.200   6.399  14.769
70206W        W41932  11.721  23.963   9.881
70207W        W41933  31.473  35.455  14.346
70208W        W41934  30.328  42.445   4.080
70209W        W41935   8.135  31.710   4.667
70210W        W41936  36.986   1.507   3.781
70211W        W41937   9.861   8.469   3.658
70212W        W41938  22.645  38.841   4.971
70213W        W41939   3.968  31.427  13.807
70214W        W41940  31.081  14.241   3.435
70215W        W41941  18.095   0.801  13.335
70216W        W41942  18.176  28.491   0.728
70217W        W41943  34.812  30.071  10.815
70218W        W41944  25.622  35.572   3.725
70219W        W41945  38.882  20.832   4.823
70220W        W41946   0.785  22.535  13.524
70221W        W41947  21.383   8.048   5.061
70222W        W41948   0.645  34.604   4.173
70223W        W41949  31.641  19.669   0.975
70224W        W41950  30.883  28.499   2.369
70225W        W41951  39.492  16.070  12.883
70226W        W41952  11.507   1.766  12.418
70227W        W41953  32.094  28.546   0.215
70228W        W41954   7.371   1.471  13.806
70229W        W41955   9.262  19.520   2.953
70230W        W41956   9.704  25.225   4.348
70231W        W41957  13.634  44.239   4.625
70232W        W41958   7.338  18.742   0.653
70233W        W41959  14.823  41.758  11.158
70234W        W41960  23.992  26.279  10.441
70235W        W41961  20.762  25.420  11.621
70236W        W41962   5.213  12.735  14.437
70237W        W41963  15.007  34.049   2.312
70238W        W41964  10.577  37.915  14.728
70239W        W41965  17.042   8.239  12.112
70240W        W41966  35.557  38.446  12.262
70241W        W41967   6.329  17.982   1.641
70242W        W41968   8.824  26.429  13.704
70243W        W41969  29.100   1.519   3.725
70244W        W41970   9.895  38.108   3.178
70245W        W41971  34.414  33.582   3.807
70246W        W41972  33.395  17.524  12.048
70247W        W41973  44.415  43.366  10.773
70248W        W41974  29.059  37.954  10.732
70249W        W41975  44.447  44.572   3.843
70250W        W41976  16.328  23.678   2.920
70251W        W41977  21.579  23.699  12.430
70252W        W41978  27.492  10.640   1.622
70253W        W41979  38.826   8.702   4.072
70254W        W41980  29.899  34.659  10.523
70255W        W41981   5.964  30.913   3.825
70256W        W41982  34.189  41.384   0.919
70257W        W41983  27.734  35.992   0.045
70258W        W41984  11.718   1.050  10.491
70259W        W41985  32.132  16.821  13.878
70260W        W41986  26.034  22.786   1.279
70261W        W41987   1.225  29.979  12.037
70262W        W41988  29.160   2.401   4.354
70263W        W41989  23.721   9.457  12.998
70264W        W41990  24.639  16.260  13.939
70265W        W41991  30.999  32.135   4.376
70266W        W41992  44.285   9.878   1.207
70267W        W41993   3.684  18.122  10.552
70268W        W41994   2.181  36.959  13.074
70269W        W41995  17.786  36.249  12.202
70270W        W41996  25.668  38.284   4.518
70271W        W41997  29.601  36.177  12.556
70272W        W41998  27.978  32.183  14.973
70273W        W41999  37.005   3.174   0.011
70274W        W42000  31.122  35.313   3.843
70275W        W42001  37.409  10.566  13.214
70276W        W42002  16.830   5.429  13.392
70277W        W42003  12.988  20.852  10.253
70278W        W42004  36.375  32.932  11.838
70279W        W42005  22.732  38.349   4.823
70280W        W42006  32.896   1.829  13.433
70281W        W42007  28.681  39.855  13.803
70282W        W42008   7.737   8.596   1.690
70283W        W42009  21.664  11.610   4.129
70284W        W42010  21.585  24.463  11.081
70285W        W42011  25.141  21.545   4.707
70286W        W42012  12.143  29.924   3.161
70287W        W42013  34.860  28.506  11.600
70288W        W42014  31.476  38.043   0.739
70289W        W42015  18.307  23.178   4.631
70290W        W42016  40.222  18.322  11.822
70291W        W42017  39.832  15.164   0.941
70292W        W42018   5.364  37.529  13.077
70293W        W42019  39.983  24.963   4.094
70294W        W42020   5.094  28.563  10.699
70295W        W42021  11.337   2.997  12.039
70296W        W42022   3.367  25.372  13.714
70297W        W42023  20.552  34.143   1.863
70298W        W42024  18.264  13.104   3.172
70299W        W42025  27.167  26.424  10.617
70300W        W42026  38.857  44.409  12.827
70301W        W42027   9.565  22.767   0.753
70302W        W42028  14.029  41.901  12.078
70303W        W42029  39.403  28.017   1.743
70304W        W42030  22.496   4.523   1.846
70305W        W42031   1.837  12.711  13.430
70306W        W42032   5.131  24.532  11.410
70307W        W42033   3.661   7.567   1.896
70308W        W42034  37.535  21.968  14.697
70309W        W42035   7.489  19.252   0.485
70310W        W42036  12.324  10.789  14.496
70311W        W42037  14.397  42.719   3.428
70312W        W42038  17.083  42.741   2.911
70313W        W42039   2.379  15.090   3.811
70314W        W42040  14.751  37.310  11.625
70315W        W42041  41.477  10.841   0.984
70316W        W42042  12.398   0.881  11.821
70317W        W42043   7.375   6.176   4.736
70318W        W42044  30.918   4.371   2.697
70319W        W42045  16.676  35.066   2.110
70320W        W42046  18.602  17.818   3.086
70321W        W42047   9.218  12.879   1.748
70322W        W42048  25.725  28.101  12.751
70323W        W42049  35.538   6.600  11.094
70324W        W42050  34.325  22.039  14.486
70325W        W42051  22.009  33.324   2.652
70326W        W42052  43.454  40.353   3.229
70327W        W42053  11.867  39.391   1.867
70328W        W42054  16.529  11.741   0.849
70329W        W42055  41.270  30.407   3.639
70330W        W42056   9.288  25.445   5.057
70331W        W42057  41.384  20.611  14.408
70332W        W42058  24.385  15.716  12.024
70333W        W42059  33.391  15.701   2.334
70334W        W42060  36.483  29.131   4.270
70335W        W42061  41.314  44.123   4.198
70336W        W42062   0.778  24.758  13.523
70337W        W42063   4.261  11.343  12.552
70338W        W42064  35.938   3.697   1.394
70339W        W42065   2.248  37.039   2.429
70340W        W42066  37.659   2.854   0.794
70341W        W42067  28.156  19.571   1.404
70342W        W42068  17.522  42.379  12.956
70343W        W42069  23.900  13.557   3.847
70344W        W42070  22.053   1.452   2.722
70345W        W42071  20.267   0.330  13.604
70346W        W42072  37.087  16.059   3.875
70347W        W42073  12.315  30.143  11.443
70348W        W42074  23.778  30.636  12.484
70349W        W42075  12.199  30.861   0.044
70350W        W42076  39.938  22.072  10.825
70351W        W42077  11.502  22.902   5.306
70352W        W42078  43.944  23.899   0.472
70353W        W42079  32.173   9.380   3.827
70354W        W42080  35.062  25.656   0.801
70355W        W42081  13.883   3.384   0.659
70356W        W42082  41.757  24.105   4.818
70357W        W42083   1.699  10.646   0.443
70358W        W42084   9.662  36.792  13.578
70359W        W42085  19.723  28.093  10.650
70360W        W42086  17.237  34.618   3.857
70361W        W42087  13.188  11.936   2.886
70362W        W42088   9.631  37.346   2.865
70363W        W42089   0.192   4.250  14.021
70364W        W42090  20.199  29.115  11.444
70365W        W42091   4.402  19.141   3.817
70366W        W42092  32.641  31.039   0.398
70367W        W42093   7.873  37.275   1.317
70368W        W42094  29.231   8.420   3.166
70369W        W42095   0.533  24.293  13.479
70370W        W42096  15.564   4.768  11.072
70371W        W42097  39.916  13.922  11.493
70372W        W42098  25.551  41.876   0.471
70373W        W42099  10.224  25.150  12.959
70374W        W42100  17.158  13.097   3.591
70375W        W42101  38.942  27.995   1.003
70376W        W42102  40.324   7.811  14.600
70377W        W42103  43.066  25.111   0.376
70378W        W42104  29.151  31.468  14.238
70379W        W42105  18.202   4.190   1.980
70380W        W42106  20.064  24.816  10.999
70381W        W42107  22.214  12.272  12.817
70382W        W42108  37.120  20.775  12.565
70383W        W42109  26.202  42.323  12.802
70384W        W42110  37.453  40.795   1.478
70385W        W42111  23.226  42.904  12.529
70386W        W42112  41.462  27.216   3.683
70387W        W42113  39.753  29.956  11.563
70388W        W42114  33.648  21.605  10.365
70389W        W42115   0.282  17.606  10.966
70390W        W42116  15.745   1.201  14.871
70391W        W42117  22.966  34.453   4.265
70392W        W42118  36.623  20.726   4.620
70393W        W42119   5.117  39.443   4.089
70394W        W42120   2.900  29.027   4.536
70395W        W42121  14.274  25.522   4.526
70396W        W42122  28.218  33.977  13.395
70397W        W42123  15.263   4.620  12.894
70398W        W42124  37.499   3.309   5.142
70399W        W42125  22.193   1.419   1.668
70400W        W42126  22.516   1.949   3.243
70401W        W42127   1.914   9.905  10.597
70402W        W42128  30.532  39.326   4.383
70403W        W42129  33.479  27.564   1.017
70404W        W42130  41.826  31.816   1.346
70405W        W42131  15.486  18.952  11.955
70406W        W42132   2.031  22.277  12.030
70407W        W42133  36.331  18.639  11.158
70408W        W42134  25.957  21.547   1.870
70409W        W42135  32.619   9.699   1.587
70410W        W42136  32.934  35.555   4.845
70411W        W42137  11.262   8.764   1.398
70412W        W42138  23.329   3.761   0.011
70413W        W42139  17.644  35.578  14.489
70414W        W42140  23.865  23.935  13.302
70415W        W42141  15.662  16.556  14.017
70416W        W42142  10.555  39.343   0.359
70417W        W42143  25.032  13.948  14.799
70418W        W42144  13.101  32.101  14.915
70419W        W42145  18.534  36.202  13.862
70420W        W42146  22.638  18.142  13.330
70421W        W42147   9.699  10.879  12.583
70422W        W42148   0.777  44.523   3.149
70423W        W42149  29.107  41.934  11.089
70424W        W42150  12.610  44.956   0.922
70425W        W42151  11.796  29.211   1.676
70426W        W42152  32.584  24.322   1.863
70427W        W42153   9.260  37.757   3.716
70428W        W42154  38.332   3.896   1.093
70429W        W42155   9.885  38.650   9.872
70430W        W42156  13.415  36.785   1.994
70431W        W42157  28.153  13.326   1.879
70432W        W42158  35.612  30.485   4.043
70433W        W42159  15.736  24.040  11.500
70434W        W42160  34.447  27.619   4.587
70435W        W42161  37.503   1.695  13.626
70436W        W42162  23.124  36.925   3.748
70437W        W42163  24.708   4.791   0.008
70438W        W42164   5.723   4.764   3.788
70439W        W42165  28.330  40.889   1.957
70440W        W42166   5.954  26.395   2.728
70441W        W42167  25.030  18.019   1.927
70442W        W42168  17.079  22.621  12.474
70443W        W42169   9.204  18.297   4.970
70444W        W42170  29.281  31.143  12.850
70445W        W42171  37.488  34.144  11.684
70446W        W42172  39.570   4.539  11.060
70447W        W42173  37.070  32.894  11.185
70448W        W42174  35.527   5.871   1.851
70449W        W42175   7.090   8.318   0.318
70450W        W42176  26.425  42.763   1.383
70451W        W42177  29.069  17.290   3.049
70452W        W42178   1.233  21.006   0.657
70453W        W42179  17.675  13.198  14.927
70454W        W42180   1.719  25.755   2.318
70455W        W42181  13.088  22.106  14.986
70456W        W42182  16.334  27.288  11.487
70457W        W42183   3.815  29.249   0.915
70458W        W42184  34.210   0.762   1.939
70459W        W42185  31.853  22.649  13.091
70460W        W42186  33.117  38.488   1.411
70461W        W42187  44.403   1.557   0.926
70462W        W42188  20.092  27.998   1.430
70463W        W42189  18.595  36.354   4.114
70464W        W42190  38.731   3.495   1.244
70465W        W42191  14.249  26.732   2.439
70466W        W42192  41.897  32.488   1.895
70467W        W42193   8.939  17.052   4.074
70468W        W42194  15.822  13.809  14.584
70469W        W42195  27.539  38.136  13.589
70470W        W42196  16.184  20.321   3.709
70471W        W42197  38.281  30.490  11.563
70472W        W42198  27.490   9.768  11.923
70473W        W42199   6.051   3.579  12.112
70474W        W42200  37.903  44.497   3.684
70475W        W42201  38.182  10.290  13.673
70476W        W42202  21.530  39.008  11.026
70477W        W42203  16.984   3.419   2.549
70478W        W42204  38.548  44.035  12.131
70479W        W42205   2.915  44.820  14.870
70480W        W42206   5.422  33.409   4.152
70481W        W42207   9.260  28.400   3.726
70482W        W42208  24.927   5.516  11.399
70483W        W42209  20.233  10.593   2.739
70484W        W42210  38.395  19.608   3.930
70485W        W42211  28.520  13.576  13.139
70486W        W42212  25.785   2.174   4.936
70487W        W42213  20.260   9.572   1.743
70488W        W42214   3.793  28.593  11.199
70489W        W42215  39.135   2.936  13.854
70490W        W42216  29.479  31.882  14.028
70491W        W42217  13.670  39.530   1.378
70492W        W42218  43.389  32.485   4.275
70493W        W42219  19.714  31.344   1.609
70494W        W42220  37.522   9.435   3.153
70495W        W42221  12.523  35.422   0.914
70496W        W42222  12.820  12.314  14.958
70497W        W42223  18.047   2.167   3.680
70498W        W42224  11.279   1.024  14.922
70499W        W42225  42.837  41.388  13.970
70500W        W42226  37.849  33.342   4.139
70501W        W42227   8.430  19.629  12.359
70502W        W42228   9.133   9.223  11.598
70503W        W42229  42.293  20.121  12.976
70504W        W42230  37.483  26.592   1.236
70505W        W42231  36.431   3.826  10.577
70506W        W42232   2.507  43.679   3.189
70507W        W42233   6.255  36.652   0.939
70508W        W42234  14.381  36.408   0.090
70509W        W42235   6.934  14.850  13.486
70510W        W42236   0.495  41.198   3.431
70511W        W42237  39.087  22.131  12.242
70512W        W42238  11.830   0.310  12.556
70513W        W42239   4.286  37.090   3.239
70514W        W42240   8.431  23.013   3.007
70515W        W42241  14.077  23.625  12.086
70516W        W42242  22.249  37.352  14.468
70517W        W42243  31.908  24.192  11.435
70518W        W42244  33.507  11.112  14.922
70519W        W42245   9.378  34.242   3.654
70520W        W42246  26.562  26.075  12.670
70521W        W42247  43.411   0.018   4.614
70522W        W42248  11.429  37.920   1.757
70523W        W42249  43.917  43.205  10.721
70524W        W42250  37.054  39.326  13.973
70525W        W42251   2.266  23.041  11.514
70526W        W42252  21.180  33.991   3.886
70527W        W42253  23.686  30.462   3.617
70528W        W42254   5.270  19.660   3.185
70529W        W42255  37.548  42.613   1.406
70530W        W42256   0.565   8.401  14.492
70531W        W42257   6.623   3.237   4.425
70532W        W42258  41.942  26.666  12.651
70533W        W42259  15.817   8.640  14.914
70534W        W42260  15.371  30.979  14.184
70535W        W42261  10.279  29.307  13.700
70536W        W42262  24.297  23.908   2.242
70537W        W42263  28.768  42.972  14.785
70538W        W42264  10.736  26.647  13.521
70539W        W42265  37.556  11.658  13.524
70540W        W42266  22.010  13.854   3.148
70541W        W42267  27.525  38.090   1.361
70542W        W42268   7.808  43.826  14.262
70543W        W42269  20.038  14.543  13.869
70544W        W42270  38.576  37.106  11.081
70545W        W42271  31.514   0.417  14.384
70546W        W42272  18.751  39.790   1.914
70547W        W42273  18.683  39.505  13.452
70548W        W42274  12.555  44.503   3.512
70549W        W42275  36.112  39.728  13.998
70550W        W42276  22.223  21.604  14.025
70551W        W42277  18.776  36.394   1.718
70552W        W42278  19.539  31.094  12.795
70553W        W42279  37.321  39.087  14.370
70554W        W42280  41.295  36.830  10.651
70555W        W42281  13.120  39.572   2.275
70556W        W42282   3.709  17.593  12.423
70557W        W42283   8.484  20.997  11.891
70558W        W42284  24.171  39.790   4.240
70559W        W42285  38.490   6.681  12.076
70560W        W42286  39.030  43.025   1.645
70561W        W42287  27.173  12.162  12.990
70562W        W42288  16.148  32.523  12.570
70563W        W42289  26.982  23.053  13.606
70564W        W42290  25.511  44.246  11.537
70565W        W42291  24.529  19.475  13.413
70566W        W42292  24.246  41.420  12.333
70567W        W42293  39.452  30.702   1.233
70568W        W42294  10.109  40.568   4.658
70569W        W42295  21.162  13.813  10.250
70570W        W42296  14.766   7.587   0.458
70571W        W42297  17.518  22.655   3.405
70572W        W42298  36.591  32.774   3.963
70573W        W42299  27.190  29.258  11.104
70574W        W42300   2.183  39.884   2.435
70575W        W42301  42.905   5.434  10.778
70576W        W42302  34.467  12.440  13.065
70577W        W42303  42.297  21.547   4.180
70578W        W42304  43.513  15.033  12.961
70579W        W42305  26.524  41.535   4.259
70580W        W42306  20.869  27.974  12.966
70581W        W42307  42.850   1.432   3.547
70582W        W42308   5.857  16.548  11.634
70583W        W42309   4.471  41.758  11.309
70584W        W42310  12.099  29.931   1.333
70585W        W42311  36.581  14.772   0.843
70586W        W42312  12.222  41.420  11.887
70587W        W42313  24.216  16.980  10.731
70588W        W42314  26.978  38.723  13.090
70589W        W42315   7.814  14.594  13.601
70590W        W42316  23.284  44.636  11.515
70591W        W42317  24.356  39.059   1.261
70592W        W42318  15.647  25.196  11.060
70593W        W42319  11.158   6.670   3.436
70594W        W42320  42.170  39.036  14.995
70595W        W42321  11.544  28.677   3.727
70596W        W42322  43.192  11.511  11.655
70597W        W42323   6.428  23.530   2.982
70598W        W42324  42.036  38.783   4.636
70599W        W42325  43.409  23.074  14.608
70600W        W42326  16.824  32.381  11.573
70601W        W42327   1.700  39.912   2.809
70602W        W42328  26.668  19.665  14.218
70603W        W42329  44.028  41.884   1.304
70604W        W42330  22.052  27.651   2.914
70605W        W42331  41.742  33.886  14.871
70606W        W42332  28.961  26.146  12.338
70607W        W42333  44.362  42.457  13.279
70608W        W42334   5.932   4.510   2.302
70609W        W42335  19.799  19.266   1.822
70610W        W42336  37.231   5.232   3.179
70611W        W42337  13.732  38.385  10.622
70612W        W42338  27.106   4.085  13.857
70613W        W42339  14.591   8.625  13.010
70614W        W42340  25.971  23.611   2.373
70615W        W42341  31.700  36.815  14.902
70616W        W42342  42.441  32.313   2.172
70617W        W42343  14.772  23.229  12.396
70618W        W42344  29.582  28.541   1.236
70619W        W42345  37.302  42.877  12.892
70620W        W42346   6.184   0.905   5.135
70621W        W42347  35.024  41.174   1.273
70622W        W42348  31.745   1.872  10.301
70623W        W42349  16.218   9.504   4.690
70624W        W42350  34.549  27.607  11.673
70625W        W42351  20.626   8.328  13.517
70626W        W42352  41.199   5.991  13.359
70627W        W42353  29.785  16.357   0.371
70628W        W42354  18.971  28.934  13.676
70629W        W42355   6.294   5.816  13.375
70630W        W42356   0.919  28.055   2.705
70631W        W42357   4.121  32.060  13.093
70632W        W42358  21.340  40.053   4.994
70633W        W42359   0.377   4.403   0.527
70634W        W42360  21.728   5.171  13.984
70635W        W42361  34.883  14.822   4.479
70636W        W42362   0.376  32.052  14.220
70637W        W42363  10.594  22.599  12.024
70638W        W42364  14.879  22.600  14.494
70639W        W42365  32.998   2.566  14.364
70640W        W42366  41.605   5.207   3.749
70641W        W42367  21.191  26.286  10.422
70642W        W42368   6.388  32.123   0.687
70643W        W42369  41.774  22.266   1.932
70644W        W42370  27.369   6.227  10.824
70645W        W42371  12.382  35.929   4.707
70646W        W42372   5.801  29.907  13.336
70647W        W42373  42.841   4.114   1.489
70648W        W42374  31.706  41.977   3.729
70649W        W42375  28.415  16.823  14.369
70650W        W42376  14.553   9.678  12.081
70651W        W42377  39.608  18.085  10.667
70652W        W42378  20.571  28.415  12.062
70653W        W42379  23.978   6.757   3.351
70654W        W42380  27.199  20.660   2.185
70655W        W42381  11.644  40.878   2.360
70656W        W42382  22.581  15.797   3.690
70657W        W42383  23.173  44.626  13.397
70658W        W42384  11.538  14.289  13.263
70659W        W42385   1.891   9.130   1.324
70660W        W42386  41.271  26.379  11.160
70661W        W42387  42.741  28.152  10.601
70662W        W42388  17.542   7.833  12.366
70663W        W42389  34.615  12.021   2.827
70664W        W42390  32.067  34.843   1.928
70665W        W42391  13.250   8.652   2.831
70666W        W42392  25.886   8.356   1.792
70667W        W42393  38.315  17.266   2.371
70668W        W42394   1.930  36.085  14.997
70669W        W42395  33.596  28.971  13.429
70670W        W42396   0.476   5.952  11.659
70671W        W42397   4.902  10.888  14.337
70672W        W42398  27.970  26.689   1.826
70673W        W42399  24.735  19.704  11.723
70674W        W42400  18.265  12.234   4.550
70675W        W42401  16.749   9.266  14.543
70676W        W42402  38.619  27.029   4.260
70677W        W42403   6.898  14.422  13.132
70678W        W42404   3.030  12.546  11.636
70679W        W42405  13.682  22.609  11.640
70680W        W42406  37.021  20.859  11.182
70681W        W42407  28.555  12.660   3.215
70682W        W42408  24.215  41.398  10.250
70683W        W42409  26.878  11.241  10.497
70684W        W42410  18.165  36.155   2.248
70685W        W42411   3.823  21.610  12.802
70686W        W42412  40.258  12.393   3.743
70687W        W42413   1.270  14.629   4.360
70688W        W42414   2.266  18.622   0.966
70689W        W42415   5.814  13.683  12.325
70690W        W42416  25.588  20.224  11.536
70691W        W42417  35.331   5.891  10.741
70692W        W42418  18.688  26.623  10.636
70693W        W42419  28.901  39.099  13.983
70694W        W42420  11.837  16.151   1.845
70695W        W42421   6.838   0.987  13.326
70696W        W42422   8.685   3.016   1.994
70697W        W42423   4.945   3.906   2.961
70698W        W42424  39.108  15.187   3.517
70699W        W42425  12.804  42.249   2.234
70700W        W42426  16.121  35.841   0.366
70701W        W42427  35.954  16.281   3.920
70702W        W42428  15.626  17.247   3.377
70703W        W42429   6.912  23.968   0.726
70704W        W42430  34.445  29.845  11.099
70705W        W42431  44.274  17.605  12.931
70706W        W42432  11.714  13.880  10.723
70707W        W42433  18.762   7.008  13.423
70708W        W42434  32.010  31.677  13.067
70709W        W42435  42.355  10.162  10.750
70710W        W42436  17.751   5.221   4.248
70711W        W42437  42.492  35.523   2.721
70712W        W42438  23.920  35.567   4.652
70713W        W42439   5.721   4.367   4.657
70714W        W42440  36.826  22.643   2.276
70715W        W42441  18.724   4.943  13.555
70716W        W42442  35.977  24.173  13.248
70717W        W42443   5.905  25.396   0.804
70718W        W42444  32.621  24.646  12.945
70719W        W42445   9.583  38.052   2.268
70720W        W42446   0.208  41.259   4.403
70721W        W42447  36.438  18.604   3.316
70722W        W42448  22.236  27.003  12.529
70723W        W42449   1.162  38.216  11.979
70724W        W42450  21.737  17.128   0.861
70725W        W42451  44.941  42.728  10.917
70726W        W42452  34.662  14.040   4.062
70727W        W42453  12.814  32.387   4.140
70728W        W42454  11.556  19.792   2.209
70729W        W42455  39.581  11.143  13.923
70730W        W42456  44.253  28.152  12.414
70731W        W42457   6.679  25.717  11.063
70732W        W42458  41.970  13.192   2.695
70733W        W42459  22.213   9.145  13.929
70734W        W42460  27.697   7.698  12.881
70735W        W42461  27.991  24.288   2.937
70736W        W42462  15.613  26.770   4.606
70737W        W42463  14.552   2.050   2.823
70738W        W42464  25.675   7.881   3.838
70739W        W42465   8.892  11.850  14.853
70740W        W42466   0.551  30.890   2.147
70741W        W42467  37.050  31.282  13.944
70742W        W42468   5.441  33.278   0.746
70743W        W42469  16.762  12.834   3.827
70744W        W42470  40.820  20.370  11.289
70745W        W42471  27.053  17.315   2.847
70746W        W42472  28.978  19.494   3.369
70747W        W42473  15.596   6.711  14.941
70748W        W42474  21.962   3.759   2.269
70749W        W42475  20.890   6.432  12.439
70750W        W42476  33.097  11.856  12.481
70751W        W42477  24.215   4.865   0.253
70752W        W42478   3.270  35.139   0.967
70753W        W42479  41.401  13.634  11.111
70754W        W42480  31.604   4.084   2.238
70755W        W42481  15.344  35.036   2.216
70756W        W42482  14.339  19.982  10.987
70757W        W42483   4.196  38.004   2.646
70758W        W42484   8.747  13.843   2.727
70759W        W42485   7.405  27.642   4.985
70760W        W42486  14.630  17.084  14.836
70761W        W42487  13.879  31.450  13.437
70762W        W42488  36.937  33.618  11.713
70763W        W42489   2.812  12.686  13.274
70764W        W42490  30.797  15.696   3.271
70765W        W42491   0.222  14.362  13.044
70766W        W42492   3.609  24.290   0.834
70767W        W42493  23.516   6.611  12.076
70768W        W42494  22.455  28.518   4.703
70769W        W42495   2.653  39.451  12.032
70770W        W42496  41.533  25.942   5.134
70771W        W42497  42.446  42.874  12.429
70772W        W42498  10.583  31.791   2.766
70773W        W42499  21.417  39.853   1.193
70774W        W42500  29.954   6.188   3.168
70775W        W42501  10.577  17.811  11.550
70776W        W42502   2.815  22.012   2.898
70777W        W42503  15.660  22.728   4.992
70778W        W42504  23.313  22.456  11.839
70779W        W42505  39.384  31.511  10.696
70780W        W42506  10.954  11.254  14.534
70781W        W42507  39.096  17.025  11.064
70782W        W42508   5.694   9.870  12.168
70783W        W42509   7.270  32.038   1.917
70784W        W42510  39.305  32.311   4.953
70785W        W42511  29.497   8.828  12.424
70786W        W42512  27.580  35.097   3.707
70787W        W42513  14.824  32.701   0.317
70788W        W42514  38.382   9.832   4.534
70789W        W42515   7.844  40.943   4.443
70790W        W42516  14.435   2.771  11.621
70791W        W42517   5.134  44.144   4.059
70792W        W42518  27.061  24.717   2.902
70793W        W42519  22.117  44.874   0.043
70794W        W42520  20.212  31.062  10.607
70795W        W42521  21.631   7.450  14.249
70796W        W42522  16.658   4.391   3.409
70797W        W42523   2.203  27.289  13.543
70798W        W42524  17.674  22.218   2.114
70799W        W42525  19.326   7.222  11.059
70800W        W42526   8.182  19.059   1.763
70801W        W42527  36.953  44.190   1.747
70802W        W42528  30.976  42.763  11.387
70803W        W42529  16.336  40.405  10.662
70804W        W42530  16.740   3.670   3.171
70805W        W42531   8.981  42.009  14.452
70806W        W42532   4.784  21.250  14.943
70807W        W42533  27.715  37.444  14.948
70808W        W42534  35.463  22.567   4.601
70809W        W42535  32.215  13.621   2.206
70810W        W42536  37.072  25.729  10.301
70811W        W42537  22.194  24.973  10.216
70812W        W42538   9.788  30.809  11.259
70813W        W42539  10.253  11.363  13.296
70814W        W42540  21.473  22.521  12.496
70815W        W42541  23.974  32.438   2.269
70816W        W42542  28.625  30.370  12.707
70817W        W42543  29.055  17.572   1.288
70818W        W42544  28.106  31.957   3.653
70819W        W42545   0.748  37.597   2.340
70820W        W42546   9.618  43.720   4.915
70821W        W42547  41.926  38.866   9.830
70822W        W42548  36.020  33.864  12.557
70823W        W42549   8.726   4.195  14.476
70824W        W42550  32.175  23.859   4.203
70825W        W42551   5.714   8.113   4.257
70826W        W42552  44.385  31.871  14.829
70827W        W42553  29.931   3.323  12.223
70828W        W42554  22.813  17.628   3.703
70829W        W42555  41.475   3.312  11.534
70830W        W42556  18.559   2.901   1.642
70831W        W42557   7.660   9.099   2.293
70832W        W42558  17.304  25.745  13.008
70833W        W42559  37.857  24.241   0.856
70834W        W42560  17.161  30.140   1.971
70835W        W42561  21.057  21.274  11.532
70836W        W42562  44.747   8.243   0.254
70837W        W42563   0.347  17.278  11.351
70838W        W42564  37.042  41.084   2.186
70839W        W42565  24.267  18.288   1.026
70840W        W42566  27.431   0.067   0.437
70841W        W42567  12.607  12.623   3.282
70842W        W42568  22.149   2.264  10.681
70843W        W42569  36.964  36.605   0.513
70844W        W42570  41.370  18.329  14.818
70845W        W42571  17.567  34.631  14.406
70846W        W42572  43.443  18.913   4.168
70847W        W42573  34.103  33.636  13.966
70848W        W42574  42.396  26.106   4.029
70849W        W42575   4.349  42.487   4.351
70850W        W42576  29.967  36.061  14.962
70851W        W42577   2.614  34.093   0.137
70852W        W42578   1.257  35.804   0.956
70853W        W42579   1.688  41.555   0.848
70854W        W42580  21.952  11.849  12.038
70855W        W42581  20.746  15.060   2.267
70856W        W42582  26.033   4.845  10.435
70857W        W42583  24.022   2.431  14.859
70858W        W42584  38.409  38.444   4.413
70859W        W42585   7.710  40.724   0.837
70860W        W42586  15.629  15.234   3.787
70861W        W42587  21.528   0.558   2.237
70862W        W42588   8.795  34.918  12.452
70863W        W42589  44.806  32.775  10.557
70864W        W42590  43.231  22.107  14.874
70865W        W42591  36.854  31.425   0.286
70866W        W42592  15.715   2.869  12.533
70867W        W42593  27.010  31.579  13.232
70868W        W42594  30.637   7.382   0.899
70869W        W42595  26.127   8.137  12.401
70870W        W42596  17.192   3.863   3.356
70871W        W42597  23.575  42.991   3.340
70872W        W42598   7.094   3.454   1.407
70873W        W42599   3.940  38.467   4.779
70874W        W42600  14.724  19.304  13.947
70875W        W42601  44.496   3.675   1.836
70876W        W42602  32.004   4.703  11.191
70877W        W42603  26.774  32.450   2.916
70878W        W42604   7.409  37.613  14.853
70879W        W42605   1.067  38.994   1.460
70880W        W42606  25.986  24.723   4.257
70881W        W42607  24.438  26.794  11.058
70882W        W42608  19.047  29.672  11.382
70883W        W42609  35.833  24.169  12.300
70884W        W42610   0.824  42.246   0.053
70885W        W42611  24.259  38.109  11.590
70886W        W42612  40.097   6.446  12.651
70887W        W42613  32.353  11.167   1.885
70888W        W42614   0.790  44.905  14.375
70889W        W42615   3.925  42.344   0.393
70890W        W42616   7.188  31.184  10.589
70891W        W42617  20.110  36.464  10.677
70892W        W42618  20.260  22.471  14.889
70893W        W42619   0.140  26.986   1.489
70894W        W42620  43.966  41.461  13.087
70895W        W42621  26.631  37.506   0.095
70896W        W42622  28.422  24.091   2.691
70897W        W42623  16.617  30.117  12.987
70898W        W42624  28.053  35.122  14.760
70899W        W42625  22.155  41.988   4.153
70900W        W42626  25.018  17.242   2.761
70901W        W42627  22.588  43.017   3.262
70902W        W42628  43.967  36.094   0.405
70903W        W42629  34.093   9.332  13.570
70904W        W42630  25.817  14.636  12.467
70905W        W42631  18.739   9.875  14.329
70906W        W42632  13.844  14.386  13.027
70907W        W42633  33.583  22.165   4.166
70908W        W42634   2.690   9.198   0.995
70909W        W42635  20.214   2.362  12.488
70910W        W42636   9.057  14.680   2.462
70911W        W42637  19.720  37.936  13.823
70912W        W42638   7.677  38.928  12.499
70913W        W42639  37.542  26.147   4.583
70914W        W42640  44.919  22.112   3.736
70915W        W42641   1.882   7.630  12.382
70916W        W42642  21.208  20.070   1.743
70917W        W42643  34.842  44.396   0.032
70918W        W42644   0.019  25.592   4.810
70919W        W42645  44.542  39.902  14.054
70920W        W42646   4.913  14.255   3.689
70921W        W42647  22.519  19.084  10.487
70922W        W42648  36.915  36.826   0.987
70923W        W42649  23.523   7.946  13.781
70924W        W42650  41.830   8.877   2.028
70925W        W42651   2.779  22.697   0.692
70926W        W42652   1.111  19.715  11.252
70927W        W42653   7.012  17.679  11.377
70928W        W42654  42.871  40.091  11.105
70929W        W42655  12.129  39.146   4.548
70930W        W42656  11.998  40.440  12.970
70931W        W42657  37.121   8.527   3.258
70932W        W42658  19.598   0.430   2.763
70933W        W42659   4.704   2.232   0.517
70934W        W42660   1.844   0.221   3.553
70935W        W42661   8.159  24.246   3.717
70936W        W42662  40.810  31.029   0.367
70937W        W42663  28.969  19.102   3.033
70938W        W42664  33.935  43.001  14.000
70939W        W42665   1.782  36.167   0.506
70940W        W42666   7.336  42.763   4.128
70941W        W42667   2.013  29.628   0.921
70942W        W42668  40.992  32.857  10.717
70943W        W42669  28.639   0.390   0.227
70944W        W42670  36.932  40.073  13.005
70945W        W42671   8.705  11.602  12.878
70946W        W42672  12.917   3.391  11.188
70947W        W42673  14.828  14.798   2.463
70948W        W42674  13.358  44.796  11.143
70949W        W42675  42.984  14.247  14.062
70950W        W42676  29.960   7.879   3.711
70951W        W42677  12.669   7.812   2.660
70952W        W42678   0.989  32.129  10.967
70953W        W42679  27.560  41.658   1.701
70954W        W42680  40.999  42.786  11.341
70955W        W42681  11.109  44.336  14.871
70956W        W42682  43.423  17.155   1.005
70957W        W42683  29.919   8.463  13.452
70958W        W42684  23.562  25.389   0.348
70959W        W42685   1.664  23.652   4.118
70960W        W42686  17.094  23.612   1.054
70961W        W42687  19.185  43.294  12.029
70962W        W42688   3.478  13.358  13.745
70963W        W42689   7.390  22.189   1.714
70964W        W42690  14.816  16.216  14.390
70965W        W42691  36.354  38.033  12.079
70966W        W42692  30.122  20.283  11.491
70967W        W42693  37.795  25.275   5.160
70968W        W42694  10.212  41.320  14.402
70969W        W42695  17.202  25.926   1.872
70970W        W42696   8.728  25.158   1.567
70971W        W42697   8.155  36.333  14.815
70972W        W42698   6.154  33.490   2.830
70973W        W42699  23.486   4.645   1.632
70974W        W42700   9.324  15.482  10.766
70975W        W42701   0.976  22.961  14.452
70976W        W42702  43.328  27.634   4.103
70977W        W42703  27.300  36.065   3.588
70978W        W42704  17.519  28.635  14.090
70979W        W42705  42.744  29.346   0.299
70980W        W42706   9.736   5.824   0.260
70981W        W42707  44.276  20.776  11.473
70982W        W42708  21.999  38.175   0.870
70983W        W42709  43.566  40.651  10.246
70984W        W42710  41.964  37.514   2.825
70985W        W42711   0.667  21.083  12.981
70986W        W42712  40.983  36.933   3.780
70987W        W42713  32.373  35.610  14.562
70988W        W42714   5.840  44.461   1.137
70989W        W42715  24.441   0.806  14.285
70990W        W42716   3.440  20.221  14.552
70991W        W42717  40.865   7.176  10.789
70992W        W42718  20.684  39.763  12.004
70993W        W42719  30.000   6.314  14.743
70994W        W42720   4.237  44.941   2.685
70995W        W42721  35.279  28.793  11.490
70996W        W42722  30.371  18.793  13.611
70997W        W42723  30.601   4.004  12.471
70998W        W42724  18.513   2.441   3.714
70999W        W42725  15.228   0.703  13.355
71000W        W42726  36.947   0.710  13.245
71001W        W42727  26.530  33.445   2.397
71002W        W42728  27.897  43.402   0.269
71003W        W42729  38.557  25.062  10.701
71004W        W42730  24.707  34.427  13.340
71005W        W42731  25.988  43.824   1.664
71006W        W42732  24.536  17.991   4.075
71007W        W42733  16.656  26.134  11.159
71008W        W42734  22.517   0.790   3.750
71009W        W42735  13.851  38.836   4.829
71010W        W42736  27.993  35.310   1.282
71011W        W42737  27.247  43.246   3.955
71012W        W42738  36.028   9.379   0.289
71013W        W42739  22.065  32.020  13.343
71014W        W42740   4.934  19.102   4.743
71015W        W42741  18.170  41.066   3.417
71016W        W42742  24.165  31.191   3.141
71017W        W42743  33.451   9.348  12.275
71018W        W42744   9.950  17.733  10.625
71019W        W42745  19.645  29.945   3.325
71020W        W42746  26.312  10.832  14.137
71021W        W42747   3.157  30.092  12.472
71022W        W42748  22.213  15.146   2.421
71023W        W42749   0.063  18.953   4.621
71024W        W42750   2.728   0.445  11.947
71025W        W42751   9.285  10.863  13.469
71026W        W42752  22.649  21.933   0.458
71027W        W42753  25.486  17.264  13.504
71028W        W42754   0.616  28.139   0.710
71029W        W42755   4.264  23.050   4.134
71030W        W42756  40.333  40.275  13.528
71031W        W42757  25.441  35.125  13.923
71032W        W42758  30.642   6.696  13.490
71033W        W42759  34.980  31.489  11.583
71034W        W42760  28.474   8.725   0.557
71035W        W42761  13.314  18.841   3.184
71036W        W42762  34.586   6.996   2.899
71037W        W42763  42.504  10.855  10.621
71038W        W42764  28.905  41.467   2.611
71039W        W42765   4.167  22.468  14.808
71040W        W42766  23.770  29.565   2.294
71041W        W42767   7.014  19.492   3.426
71042W        W42768   7.192  20.825   1.605
71043W        W42769   9.616   9.555   4.181
71044W        W42770  10.230  39.063  13.535
71045W        W42771   1.788  43.300   4.763
71046W        W42772   8.344   1.220  14.830
71047W        W42773   1.296  38.324  14.718
71048W        W42774  17.182   9.848   4.649
71049W        W42775  14.704  41.829   2.371
71050W        W42776  42.428   9.742   0.241
71051W        W42777  44.213  40.759  13.095
71052W        W42778  32.102  10.326   0.876
71053W        W42779  26.708  44.268   3.580
71054W        W42780  26.072   1.817   3.855
71055W        W42781  37.562   6.211   2.238
71056W        W42782  10.371   2.703   1.439
71057W        W42783  19.424  38.100   0.687
71058W        W42784  35.451   2.922   1.232
71059W        W42785   4.852  42.410  14.891
71060W        W42786  14.205  17.095   2.611
71061W        W42787  17.275  33.393   4.731
71062W        W42788  19.111   1.377   0.128
71063W        W42789   9.879  13.242   2.299
71064W        W42790  41.964  11.062  11.086
71065W        W42791  33.011  39.976   0.378
71066W        W42792  10.324   9.584  10.663
71067W        W42793   1.308   5.736   1.194
71068W        W42794   2.503  30.803   2.259
71069W        W42795   0.434  12.249  14.462
71070W        W42796  38.086   6.270   0.373
71071W        W42797  28.419  27.451   0.162
71072W        W42798  34.370  43.674  14.688
71073W        W42799   8.283  31.535  10.577
71074W        W42800   6.256  27.000   1.174
71075W        W42801  13.860  16.567  12.403
71076W        W42802   2.961  41.482   0.855
71077W        W42803  20.740  23.579  10.629
71078W        W42804  31.894  35.973   1.370
71079W        W42805  20.243  17.549   1.331
71080W        W42806  28.057  38.064   0.764
71081W        W42807  10.137  41.036  10.325
71082W        W42808  24.193  13.180   3.665
71083W        W42809   2.878  24.644   3.853
71084W        W42810  19.957   5.338   4.693
71085W        W42811  17.608   4.241   3.257
71086W        W42812  38.877  32.135  11.170
71087W        W42813  34.691  33.561   4.242
71088W        W42814  40.499   3.348  11.831
71089W        W42815  23.652   1.460  13.222
71090W        W42816   5.307   1.190  13.622
71091W        W42817  30.342  15.735  13.691
71092W        W42818   2.755  20.629   1.953
71093W        W42819  34.405  20.608  11.123
71094W        W42820  15.138  26.898   3.316
71095W        W42821  39.481  24.689  12.510
71096W        W42822   9.526   9.855   3.687
71097W        W42823  33.346  10.098   4.266
71098W        W42824  26.889  12.313  12.553
71099W        W42825   0.334  20.961  13.919
71100W        W42826  23.513   1.000  10.546
71101W        W42827  16.874  28.133   4.565
71102W        W42828   5.967  19.345  11.358
71103W        W42829  29.897   5.299   3.124
71104W        W42830  37.295  16.634  13.863
71105W        W42831  32.968  33.457   3.628
71106W        W42832   4.930  33.530  11.520
71107W        W42833   7.652  11.101   1.477
71108W        W42834  18.237  37.123  12.981
71109W        W42835  22.209  11.623  11.673
71110W        W42836   7.422  25.028   4.147
71111W        W42837   4.918  41.104  11.554
71112W        W42838   6.716   1.151  14.420
71113W        W42839   6.367  21.009  12.949
71114W        W42840  41.724  43.240   4.620
71115W        W42841  20.245  40.075  12.085
71116W        W42842   7.171   2.422   0.460
71117W        W42843  41.053  11.364   2.346
71118W        W42844  19.244  32.099  14.944
71119W        W42845   8.824  14.512  13.571
71120W        W42846  19.512  23.135  10.626
71121W        W42847  27.668  24.741   2.274
71122W        W42848  27.704  41.909   4.912
71123W        W42849  16.259  41.991  11.964
71124W        W42850  18.607  41.701   0.541
71125W        W42851  13.910  11.578   0.093
71126W        W42852  17.566  44.296   2.336
71127W        W42853  40.550  44.570  12.107
71128W        W42854  26.797   1.348   5.368
71129W        W42855  30.180  39.868   3.722
71130W        W42856   8.221  43.751   3.969
71131W        W42857  40.918  16.871   3.516
71132W        W42858  13.285  43.335  10.925
71133W        W42859   7.319  25.132   2.354
71134W        W42860   6.473  13.784  10.630
71135W        W42861  33.816  32.452   1.690
71136W        W42862  34.040   5.275   0.392
71137W        W42863  26.479  44.817  11.106
71138W        W42864  27.456  42.842   4.873
71139W        W42865  16.791  20.591   1.358
71140W        W42866  43.256  18.569  13.930
71141W        W42867  19.155  16.515   1.755
71142W        W42868  39.426   0.210   1.179
71143W        W42869   8.925  16.828   3.373
71144W        W42870  28.230  38.709  10.820
71145W        W42871  36.084   3.495   2.819
71146W        W42872  30.730  20.726  14.868
71147W        W42873  17.407  38.022  13.618
71148W        W42874  19.152  20.963   1.218
71149W        W42875  42.382  38.550   2.209
71150W        W42876  38.410   3.812   1.602
71151W        W42877  17.629  21.745  11.032
71152W        W42878   8.799   3.011  13.353
71153W        W42879   5.085  29.700  14.941
71154W        W42880   5.052   5.002  10.538
71155W        W42881  42.739  40.312  14.852
71156W        W42882  37.079   7.691  10.639
71157W        W42883  30.223  17.983   2.728
71158W        W42884  35.932  34.068   0.937
71159W        W42885  26.536  22.971  13.330
71160W        W42886   1.688  21.974   3.358
71161W        W42887  41.858  41.224   0.369
71162W        W42888   8.552  43.747  12.430
71163W        W42889  43.465  17.197  14.005
71164W        W42890   8.516  19.338   2.227
71165W        W42891  34.573  23.072  11.257
71166W        W42892   7.198  19.162   0.931
71167W        W42893  28.587  43.857   3.580
71168W        W42894  27.987  12.702  10.805
71169W        W42895  15.651  11.218   2.372
71170W        W42896  16.632   1.922  13.056
71171W        W42897  11.743  43.530  14.771
71172W        W42898  35.999  24.185   3.176
71173W        W42899   1.772   4.924   2.782
71174W        W42900   9.780  12.201  14.480
71175W        W42901  40.507   7.711   1.390
71176W        W42902  34.393  10.203  13.883
71177W        W42903  32.402   9.161  12.811
71178W        W42904   9.826   5.474  12.929
71179W        W42905  41.287   5.229   1.553
71180W        W42906  34.393   8.084  14.032
71181W        W42907  13.890  37.010   1.412
71182W        W42908   9.725  36.436  11.602
71183W        W42909  28.543  39.479   0.869
71184W        W42910  22.971  42.987  12.993
71185W        W42911  31.869   6.234  12.884
71186W        W42912  24.476  10.430   5.047
71187W        W42913  10.484   5.393   4.126
71188W        W42914   3.671  25.110  12.043
71189W        W42915  42.932  31.204   0.844
71190W        W42916  15.266  37.752  12.482
71191W        W42917  16.153  23.623  12.925
71192W        W42918  25.352  14.166   3.352
71193W        W42919  44.971  17.268  14.126
71194W        W42920  24.166  37.214   1.888
71195W        W42921  40.268  36.784  13.405
71196W        W42922  41.950  21.929   2.854
71197W        W42923  18.277  28.940   3.779
71198W        W42924  23.438   8.332  12.083
71199W        W42925  25.468  21.587  13.541
71200W        W42926  44.539  25.771  12.351
71201W        W42927  43.569  30.873   3.165
71202W        W42928  11.161  10.260  13.031
71203W        W42929   5.829  32.109  13.937
71204W        W42930  15.034  11.195  11.669
71205W        W42931   1.272   2.834   3.070
71206W        W42932  20.414  37.809  14.526
71207W        W42933  25.997  25.922   1.444
71208W        W42934  44.493  23.193  13.023
71209W        W42935  33.312   8.766  10.329
71210W        W42936  11.807  36.484  11.877
71211W        W42937   6.914  24.587   1.269
71212W        W42938  18.709  23.669   3.702
71213W        W42939   4.351  38.401  12.813
71214W        W42940  14.952   3.764   3.409
71215W        W42941  27.543  33.857  13.328
71216W        W42942  35.337   8.480   2.134
71217W        W42943   0.704  22.481   5.209
71218W        W42944  15.213  22.172  11.729
71219W        W42945  44.206  11.197   2.323
71220W        W42946   2.810  28.295   2.795
71221W        W42947  14.177   0.524   0.972
71222W        W42948   3.534   4.154   2.017
71223W        W42949   8.685  17.602   4.291
71224W        W42950  44.434  33.993   4.745
71225W        W42951   3.986  17.420   1.455
71226W        W42952  33.646  44.004   0.413
71227W        W42953  23.414   2.134  12.124
71228W        W42954  18.060  41.325  11.187
71229W        W42955   0.767  11.176   3.794
71230W        W42956  29.519  22.777  12.016
71231W        W42957  32.559  10.630  11.604
71232W        W42958   0.632  29.565   2.898
71233W        W42959  38.637  13.175   1.367
71234W        W42960  31.104   9.560  14.940
71235W        W42961   1.835  43.345   4.224
71236W        W42962  35.667  28.684   4.298
71237W        W42963  30.573  34.377  13.531
71238W        W42964  18.057  18.753   2.577
71239W        W42965  40.764   9.646   4.641
71240W        W42966  39.538   1.899   0.375
71241W        W42967   9.847  30.213  12.814
71242W        W42968  10.736  11.376  11.916
71243W        W42969   2.765  36.542   4.307
71244W        W42970  20.329   1.887   4.613
71245W        W42971   4.888  25.601   3.923
71246W        W42972  12.573  19.952  10.682
71247W        W42973  41.920  20.180   1.683
71248W        W42974  22.912  20.205  10.597
71249W        W42975  21.035  15.692   9.920
71250W        W42976  25.605  17.375   2.172
71251W        W42977  17.073  18.013   3.723
71252W        W42978   0.481   1.097   1.417
71253W        W42979  32.113  15.642  14.710
71254W        W42980  44.801  33.778  10.772
71255W        W42981  13.054   7.815  14.685
71256W        W42982  38.871  43.277   1.209
71257W        W42983   3.247  27.009   0.232
71258W        W42984  28.046  32.275   1.308
71259W        W42985  19.231   8.531  10.597
71260W        W42986  12.062  43.259   2.895
71261W        W42987   8.433  39.836  14.041
71262W        W42988   4.850  13.073   4.125
71263W        W42989  25.744   2.482  14.796
71264W        W42990  40.044  36.611   0.584
71265W        W42991  38.974   4.026  14.526
71266W        W42992  32.141  31.078  11.699
71267W        W42993  27.971  33.131   3.397
71268W        W42994  27.429  20.488   3.468
71269W        W42995   2.532  34.528   3.232
71270W        W42996  25.956  30.994   0.060
71271W        W42997   6.467  43.884  14.527
71272W        W42998   6.954  41.920   2.210
71273W        W42999  17.587  27.129  10.962
71274W        W43000  19.113  20.736  13.816
71275W        W43001  42.529  19.099  12.222
71276W        W43002   0.974  17.410   9.876
71277W        W43003  10.903  39.913  11.613
71278W        W43004  20.702  32.082   0.885
71279W        W43005  34.977   5.000  12.503
71280W        W43006  33.007  44.394  12.455
71281W        W43007  32.045  20.053   3.076
71282W        W43008  17.658  21.508  14.894
71283W        W43009  38.936  23.658  12.968
71284W        W43010  23.549  35.024   1.628
71285W        W43011  42.349  14.890   3.363
71286W        W43012   4.509  26.155   2.230
71287W        W43013  37.355  27.591  13.926
71288W        W43014  20.685  26.207  12.487
71289W        W43015   0.014  18.510   1.776
71290W        W43016  18.247  40.319  12.129
71291W        W43017   8.751  42.105   4.905
71292W        W43018  32.597  10.842  14.218
71293W        W43019  37.390  12.567   2.328
71294W        W43020   5.217  38.111  11.956
71295W        W43021  30.016  19.538  11.102
71296W        W43022  14.769  40.880   0.572
71297W        W43023  25.672  11.423  11.125
71298W        W43024   6.731   7.354  13.449
71299W        W43025  36.389  23.614  10.533
71300W        W43026  10.018  12.845   3.991
71301W        W43027  22.779  24.032   3.622
71302W        W43028  13.825  34.473   1.377
71303W        W43029  15.095   1.216   2.200
71304W        W43030   2.936  33.878  14.770
71305W        W43031  41.795   3.857   4.901
71306W        W43032  31.141  44.199  13.381
71307W        W43033   0.303  27.770  14.292
71308W        W43034  20.359   8.722  11.999
71309W        W43035  39.509  22.086  10.501
71310W        W43036  43.402  35.855  12.502
71311W        W43037  10.358  13.483  11.110
71312W        W43038  14.215  13.437   0.908
71313W        W43039  29.879  43.243   0.040
71314W        W43040  39.040  29.944   3.753
71315W        W43041  15.102  34.814  11.218
71316W        W43042  34.834  23.977  12.425
71317W        W43043  43.524  28.261   4.794
71318W        W43044  15.713  17.791   4.686
71319W        W43045  36.437  32.467  14.264
71320W        W43046  25.554  25.997  14.513
71321W        W43047  10.849  22.814  11.627
71322W        W43048  12.440  32.359  12.867
71323W        W43049  32.018  42.205   3.383
71324W        W43050   8.109  27.028  12.366
71325W        W43051  22.715  39.338  13.339
71326W        W43052  19.078  33.959   1.256
71327W        W43053  24.906  36.873  12.405
71328W        W43054  38.573  34.017  12.915
71329W        W43055  19.285   5.494   4.372
71330W        W43056   8.210  35.816  12.403
71331W        W43057  30.006   9.361  13.459
71332W        W43058  36.714  35.126  13.107
71333W        W43059  44.518   8.924   4.205
71334W        W43060  19.345   9.706  12.445
71335W        W43061  13.529  38.276   2.614
71336W        W43062  39.852  30.972  12.722
71337W        W43063  26.799  26.421   0.263
71338W        W43064  17.148  39.878  14.964
71339W        W43065  23.937   5.861   3.150
71340W        W43066  34.392  38.912  10.798
71341W        W43067  21.566  32.062  14.021
71342W        W43068  27.072  16.191   1.458
71343W        W43069  43.342  25.694   4.141
71344W        W43070  44.539   1.872  11.625
71345W        W43071  23.611  43.431  10.943
71346W        W43072   5.055   6.945  12.938
71347W        W43073  44.070  29.624   2.450
71348W        W43074  18.043  11.133   1.380
71349W        W43075  27.572  14.556   2.384
71350W        W43076   1.032  42.891  12.868
71351W        W43077  36.100  28.073   0.331
71352W        W43078   8.079   8.698   0.351
71353W        W43079  17.616  22.611  12.521
71354W        W43080  17.973  34.642   3.277
71355W        W43081  37.976  25.026  12.699
71356W        W43082  41.353  21.481  14.955
71357W        W43083  38.968   3.025   0.695
71358W        W43084  12.110  39.651   4.491
71359W        W43085   7.341  22.989   3.675
71360W        W43086   1.258  18.000  14.000
71361W        W43087  35.612  11.593  11.538
71362W        W43088   3.265  44.421   4.641
71363W        W43089  18.597  35.350   2.495
71364W        W43090  42.974   8.861  10.282
71365W        W43091  41.527  40.951   3.357
71366W        W43092   9.380  18.658  13.440
71367W        W43093  20.730  29.845  11.583
71368W        W43094  25.238  32.914  13.916
71369W        W43095   9.938  21.596  10.569
71370W        W43096  26.649   7.144   3.220
71371W        W43097  12.625  18.015   2.325
71372W        W43098  20.216  10.452   4.192
71373W        W43099  32.041  20.760   0.270
71374W        W43100  18.531   2.443   2.869
71375W        W43101  39.452  15.237   1.302
71376W        W43102  35.516  44.737   4.595
71377W        W43103   7.611  23.887   5.050
71378W        W43104  37.308  38.273  14.407
71379W        W43105  24.024  16.062  11.586
71380W        W43106  21.197  29.838   1.363
71381W        W43107  27.680  31.366  13.771
71382W        W43108   5.932  23.133  14.861
71383W        W43109  40.001  37.448  13.350
71384W        W43110  30.603  20.107  11.553
71385W        W43111   2.850  22.833  14.251
71386W        W43112  10.167  37.574  10.235
71387W        W43113   3.667  43.720  10.799
71388W        W43114  40.821  15.038  13.920
71389W        W43115  31.892  28.210  12.511
71390W        W43116  35.523  41.304   1.852
71391W        W43117  36.252  17.174  12.824
71392W        W43118  12.620  39.580   1.297
71393W        W43119  39.517  17.716  12.874
71394W        W43120  41.374  19.259   4.714
71395W        W43121  10.252   0.206  11.558
71396W        W43122   9.282  24.641   2.503
71397W        W43123  12.700  27.115   0.400
71398W        W43124  37.637  31.288   4.533
71399W        W43125   6.116  41.448  11.862
71400W        W43126  21.821   0.962  13.428
71401W        W43127  35.868  17.881   0.018
71402W        W43128  33.023  39.368   4.592
71403W        W43129   0.495  43.105  13.981
71404W        W43130  12.908  37.811  13.266
71405W        W43131  11.312  34.514  12.380
71406W        W43132  18.727   1.702   3.157
71407W        W43133   6.051  31.628  11.951
71408W        W43134  11.721  30.381  10.683
71409W        W43135  20.594  23.433  13.004
71410W        W43136  25.059  22.472   9.848
71411W        W43137  30.561   8.904  12.093
71412W        W43138   3.852  25.546   4.898
71413W        W43139  39.210  17.174  14.952
71414W        W43140  18.221   8.689   3.421
71415W        W43141  16.081  34.086   1.892
71416W        W43142  37.923  29.205   0.300
71417W        W43143  10.745  20.430   2.874
71418W        W43144   7.627  20.653   1.261
71419W        W43145   5.844  35.549  14.043
71420W        W43146  22.637   0.400   4.689
71421W        W43147  37.019  31.198  10.959
71422W        W43148  11.262  11.594  11.527
71423W        W43149  33.699   0.620   1.842
71424W        W43150   5.479  37.363  12.620
71425W        W43151  14.218  43.283   4.666
71426W        W43152  21.197  10.956  12.480
71427W        W43153  42.015  44.658   4.576
71428W        W43154   7.211  19.832   4.925
71429W        W43155   9.340  24.060  11.397
71430W        W43156  40.081  23.054   4.132
71431W        W43157  14.902  42.958  14.294
71432W        W43158  32.099  26.974  10.949
71433W        W43159  16.265  24.918   2.326
71434W        W43160  39.409  31.406   4.233
71435W        W43161  10.835  38.757  12.336
71436W        W43162  11.791  22.216   2.250
71437W        W43163  16.099  16.186   1.661
71438W        W43164  32.229  17.430   4.693
71439W        W43165   4.320  16.739  11.342
71440W        W43166  15.594   8.842   3.186
71441W        W43167  29.363  20.261  12.942
71442W        W43168  15.661   6.383   0.840
71443W        W43169  41.567  33.531   1.287
71444W        W43170  41.566  10.063   4.188
71445W        W43171  28.941  34.339   2.933
71446W        W43172   9.418  38.811   4.199
71447W        W43173  18.779  43.227  13.614
71448W        W43174  23.306  18.315  12.306
71449W        W43175   6.364   6.898  10.099
71450W        W43176  31.560  12.322  14.258
71451W        W43177   0.478   9.818   4.905
71452W        W43178  34.768  37.490  13.917
71453W        W43179  18.103  18.073   1.866
71454W        W43180  11.679   2.263  11.552
71455W        W43181  20.463   6.437  11.155
71456W        W43182  33.084  41.882   1.109
71457W        W43183   7.208  26.383  14.855
71458W        W43184   4.675  42.568   0.894
71459W        W43185   0.276  10.617   3.176
71460W        W43186  33.976   3.812   4.441
71461W        W43187  27.392  30.110  14.197
71462W        W43188  12.105  27.737  11.074
71463W        W43189  35.559  33.575   4.811
71464W        W43190  25.622  28.413  10.522
71465W        W43191  37.869  15.643  12.482
71466W        W43192  12.283  42.377   2.273
71467W        W43193  35.369  10.259  12.650
71468W        W43194  11.381   8.641   0.896
71469W        W43195  34.598   3.810  13.934
71470W        W43196  11.370  37.358   0.785
71471W        W43197  33.497  39.107  11.615
71472W        W43198  44.280  13.341  13.372
71473W        W43199  14.263  34.034   0.890
71474W        W43200  34.897   7.321   2.146
71475W        W43201  19.557   4.228   2.974
71476W        W43202  25.650   3.300   0.510
71477W        W43203  12.688  10.897   4.623
71478W        W43204   7.623  37.447  13.901
71479W        W43205  20.401  26.493   4.645
71480W        W43206  44.695  11.934   4.619
71481W        W43207   9.640  33.383  14.865
71482W        W43208  20.775   2.916  11.421
71483W        W43209   8.299  17.702   0.535
71484W        W43210  42.271   7.146   0.509
71485W        W43211   1.902  15.661  14.994
71486W        W43212   9.343  22.536   4.139
71487W        W43213  40.936  14.697  11.185
71488W        W43214  25.483  22.212  14.138
71489W        W43215  38.991  21.069  11.625
71490W        W43216  44.910  27.967  13.952
71491W        W43217   8.701  39.576  14.402
71492W        W43218  18.347   2.466   0.476
71493W        W43219  12.405   9.388  14.305
71494W        W43220  32.511  15.509   3.829
71495W        W43221  25.120  13.715   3.214
71496W        W43222  19.129  43.746  12.283
71497W        W43223  14.716  29.486   3.441
71498W        W43224   1.217  16.328  13.348
71499W        W43225  12.203  23.555   2.396
71500W        W43226   5.695  23.255  12.832
71501W        W43227  41.795  40.982   0.859
71502W        W43228  34.473  34.526   0.513
71503W        W43229  44.039  32.648  14.364
71504W        W43230  44.064  34.788  13.532
71505W        W43231  23.835  30.688   2.710
71506W        W43232  28.624  39.544  10.875
71507W        W43233  14.476  44.453   0.738
71508W        W43234  22.241  38.335   2.322
71509W        W43235  10.249  37.754  11.277
71510W        W43236  24.463  19.994   0.811
71511W        W43237  13.254  27.146   4.711
71512W        W43238  21.247  38.943   1.356
71513W        W43239   7.347  32.240   5.157
71514W        W43240  36.301  24.460   4.537
71515W        W43241  32.060  22.595  10.711
71516W        W43242  35.106  38.840   1.819
71517W        W43243   8.464  41.804   3.311
71518W        W43244   7.839  43.408   4.402
71519W        W43245   2.416  19.301   2.743
71520W        W43246  25.553   8.903   0.273
71521W        W43247   5.782  43.238  10.821
71522W        W43248  16.151   9.464   2.396
71523W        W43249  18.818  37.915  10.886
71524W        W43250  15.320   1.855   0.450
71525W        W43251  30.456  17.514   4.626
71526W        W43252  21.044  19.534  11.221
71527W        W43253  38.021  15.394  10.923
71528W        W43254   9.657  28.614   1.930
71529W        W43255  23.777  14.589  13.756
71530W        W43256   6.565  43.321  12.045
71531W        W43257  33.771  32.880  10.115
71532W        W43258  33.888  13.205   0.999
71533W        W43259  20.709   3.498   1.572
71534W        W43260  12.757  20.987  10.700
71535W        W43261  34.638  16.210   0.032
71536W        W43262  19.611  39.911  13.480
71537W        W43263   2.736  11.299  12.034
71538W        W43264  37.308  16.326   4.568
71539W        W43265  19.482  31.894  11.992
71540W        W43266  26.914  12.610  13.035
71541W        W43267  20.253  17.018   1.258
71542W        W43268   1.700  13.366   3.701
71543W        W43269  33.004  17.189   2.738
71544W        W43270  35.669  38.030   4.246
71545W        W43271   0.556  38.155  14.103
71546W        W43272  23.580  13.506   0.309
71547W        W43273  40.913   9.636  10.675
71548W        W43274  29.219  32.962   3.864
71549W        W43275  34.493  17.132   1.628
71550W        W43276  38.993  11.106   0.983
71551W        W43277  38.482  44.202  14.497
71552W        W43278  29.666   1.251   4.096
71553W        W43279   4.339  39.629   3.684
71554W        W43280  35.826  27.247   3.767
71555W        W43281  36.551  10.338  14.991
71556W        W43282  25.569  23.052  11.574
71557W        W43283  24.178   2.999  14.020
71558W        W43284  44.549  41.445  10.508
71559W        W43285  29.436  43.345   0.324
71560W        W43286   8.410  37.845   3.152
71561W        W43287  40.584  37.160  14.544
71562W        W43288  42.648   4.862   0.200
71563W        W43289  44.397  31.637  14.366
71564W        W43290  30.960  12.599   4.180
71565W        W43291   6.326  35.462  13.861
71566W        W43292  27.624  32.552   1.372
71567W        W43293  24.902  10.296  13.937
71568W        W43294   7.711  32.449   2.164
71569W        W43295  35.366   4.701   1.769
71570W        W43296   9.001   5.236  14.822
71571W        W43297  35.096  26.886   1.387
71572W        W43298  43.336  33.053   1.293
71573W        W43299  40.552  26.420  10.256
71574W        W43300  20.019   6.219   2.802
71575W        W43301   8.762   1.448   2.211
71576W        W43302  38.850  22.784   0.724
71577W        W43303  31.632   3.881   4.041
71578W        W43304  11.827  19.499   5.042
71579W        W43305  27.403   0.163  14.075
71580W        W43306   9.779  23.724   2.293
71581W        W43307  14.173  35.854   4.552
71582W        W43308   2.223  41.538  11.530
71583W        W43309  38.908  30.152  10.779
71584W        W43310  10.434  35.087  13.458
71585W        W43311   0.997  38.196   0.890
71586W        W43312  17.251  36.925  14.279
71587W        W43313  11.579   7.335  11.875
71588W        W43314  11.440  32.150   4.658
71589W        W43315  33.148  32.492   2.350
71590W        W43316   4.863  19.806  12.495
71591W        W43317  23.587  14.255  10.010
71592W        W43318   7.191  34.635  11.879
71593W        W43319  34.758  19.174   2.756
71594W        W43320  26.736  33.736   0.933
71595W        W43321  18.450  25.720  12.413
71596W        W43322  30.561  22.640  10.691
71597W        W43323   9.496  29.665   3.310
71598W        W43324  32.563  41.553  11.205
71599W        W43325   9.101  39.045  13.954
71600W        W43326  40.905   3.338  12.978
71601W        W43327  19.049   4.194   2.943
71602W        W43328   5.728   7.379   4.606
71603W        W43329  31.546  39.307   1.239
71604W        W43330  40.782   7.768  12.814
71605W        W43331  28.210  11.304   3.211
71606W        W43332  26.666   7.677   3.898
71607W        W43333  26.306   8.088   1.860
71608W        W43334  29.891   0.729   3.198
71609W        W43335  42.602  16.797  10.649
71610W        W43336   4.370  44.300  11.672
71611W        W43337  26.634  42.911  12.516
71612W        W43338  43.385  28.682   2.773
71613W        W43339  28.123  31.427   2.907
71614W        W43340  26.177  26.955   0.717
71615W        W43341  22.304  42.871  11.249
71616W        W43342  24.534  31.975   4.529
71617W        W43343  20.093  17.803   2.294
71618W        W43344  36.446   6.763   0.254
71619W        W43345  31.912  14.750  11.367
71620W        W43346  44.695  22.366   5.080
71621W        W43347   8.869  41.160  12.062
71622W        W43348  39.507  29.576   1.934
71623W        W43349  28.715   4.774   4.631
71624W        W43350  32.566   0.537   3.748
71625W        W43351   6.443  35.590   4.556
71626W        W43352  40.559  36.423  12.580
71627W        W43353  17.251   0.521   3.419
71628W        W43354   3.304  43.859   1.907
71629W        W43355   8.974  22.772   2.347
71630W        W43356   3.406  30.984   4.204
71631W        W43357  44.928   5.703  14.554
71632W        W43358  36.919  40.936  14.838
71633W        W43359  12.611  24.691   4.848
71634W        W43360  13.872  28.398   3.138
71635W        W43361  43.947  36.399  14.957
71636W        W43362  30.422  21.762   4.614
71637W        W43363  24.633  38.067  12.847
71638W        W43364   3.418  31.120  12.004
71639W        W43365  11.638  24.416   3.615
71640W        W43366  38.584  35.319   3.205
71641W        W43367  34.942  11.084   1.438
71642W        W43368  16.053  30.125   1.599
71643W        W43369  31.082  20.032   5.003
71644W        W43370  36.184  15.812  10.724
71645W        W43371   0.866  13.996  12.498
71646W        W43372  43.466  36.839  12.429
71647W        W43373  43.103  15.321   1.795
71648W        W43374  11.491  27.612  13.800
71649W        W43375  19.531  24.098  13.534
71650W        W43376  26.148  13.117   3.504
71651W        W43377  28.123   5.817   3.166
71652W        W43378  18.971  38.557  11.383
71653W        W43379  24.604  16.856  11.042
71654W        W43380  38.182  33.629  12.878
71655W        W43381   9.411  31.705  11.125
71656W        W43382  10.504  33.710  14.829
71657W        W43383  11.364  31.630   0.389
71658W        W43384  38.537  26.314   4.605
71659W        W43385  31.455  30.008   0.774
71660W        W43386  41.628  33.348  12.995
71661W        W43387  13.267  31.008  11.451
71662W        W43388  44.009  32.482   3.032
71663W        W43389  34.448  39.322  13.023
71664W        W43390  15.112  28.700   4.639
71665W        W43391  30.675  22.075   0.690
71666W        W43392  31.884  31.084   3.403
71667W        W43393  41.280  34.594  12.673
71668W        W43394  31.841  27.417   1.353
71669W        W43395  22.190  36.184   3.214
71670W        W43396  43.491  44.838   3.576
71671W        W43397  10.088  27.134  12.077
71672W        W43398   9.845  25.397  13.539
71673W        W43399  43.674  22.440  12.857
71674W        W43400  31.164  28.979   3.233
71675W        W43401  12.309  25.771  12.130
71676W        W43402  20.241  44.175  10.243
71677W        W43403  16.581   0.710   3.719
71678W        W43404   6.795  24.215   2.423
71679W        W43405  44.989   0.237  13.052
71680W        W43406  13.847   8.561   0.776
71681W        W43407  29.754  28.988  10.318
71682W        W43408  14.540  44.812   1.508
71683W        W43409   7.801  18.575  11.032
71684W        W43410  26.042  17.232   2.535
71685W        W43411   0.338  37.010   3.088
71686W        W43412  34.137  18.632  11.380
71687W        W43413  25.577   6.575  13.169
71688W        W43414  26.798  19.917   0.901
71689W        W43415  40.118  37.643  11.997
71690W        W43416   1.026  19.639  13.022
71691W        W43417  24.564  10.876   1.710
71692W        W43418  22.546   2.440  14.730
71693W        W43419  37.843  38.539  12.967
71694W        W43420  27.959  44.529   2.067
71695W        W43421  42.537   2.468  10.774
71696W        W43422  31.120  25.286   2.501
71697W        W43423   0.067   1.783   2.663
71698W        W43424  21.698  37.805  10.488
71699W        W43425  38.518  17.373   3.809
71700W        W43426  38.954  15.132  14.828
71701W        W43427  16.737   2.426  13.133
71702W        W43428  40.937  11.163   1.870
71703W        W43429  21.116  19.473  12.036
71704W        W43430  25.463  20.603   0.377
71705W        W43431  18.961   1.448   4.815
71706W        W43432   5.936  33.148  12.888
71707W        W43433  20.522  15.665   1.695
71708W        W43434  40.446  17.808   4.541
71709W        W43435  14.824  11.562   2.924
71710W        W43436  42.012  32.545  11.603
71711W        W43437  19.214  10.074  11.525
71712W        W43438  13.584  19.758   3.201
71713W        W43439  21.503  37.471  13.114
71714W        W43440   7.515  33.660  11.583
71715W        W43441   8.335  22.961   1.907
71716W        W43442  44.726   6.235   3.256
71717W        W43443  14.738  11.918  14.380
71718W        W43444  34.375   9.080  10.770
71719W        W43445   7.890  16.917  13.933
71720W        W43446  17.236  44.265   2.751
71721W        W43447  31.524  13.273   3.238
71722W        W43448   8.496  36.094   5.054
71723W        W43449  30.989  38.566   0.524
71724W        W43450  18.466  39.070   2.338
71725W        W43451  37.076  12.763   2.745
71726W        W43452  13.631  16.177  13.133
71727W        W43453  44.023  13.533   3.874
71728W        W43454  36.270  28.577   0.764
71729W        W43455   7.719  34.963   4.060
71730W        W43456  32.475  42.606  13.716
71731W        W43457  35.951  38.875  10.662
71732W        W43458  28.628  19.552   3.757
71733W        W43459  40.083  32.333   1.743
71734W        W43460   1.307  30.452   4.603
71735W        W43461  39.853  11.660   4.326
71736W        W43462   8.897  38.993   0.499
71737W        W43463   6.438  38.961   4.248
71738W        W43464  27.900  40.630  13.845
71739W        W43465  13.810  18.234  10.983
71740W        W43466  15.436  25.555  12.442
71741W        W43467  38.064  32.703  13.934
71742W        W43468   7.132  22.733   0.871
71743W        W43469  37.054  43.876   0.437
71744W        W43470   5.809   2.250  11.419
71745W        W43471  15.059  39.329   0.267
71746W        W43472  29.956  41.969  13.483
71747W        W43473  23.247  16.826   2.628
71748W        W43474  20.980  18.609  11.253
71749W        W43475  36.066  13.149  14.378
71750W        W43476  29.200   4.793  11.652
71751W        W43477  13.866  37.596   2.117
71752W        W43478  33.246   9.109   2.594
71753W        W43479   3.490  35.042  12.108
71754W        W43480  25.248  13.243   4.714
71755W        W43481   0.671  32.560   2.461
71756W        W43482  31.459  32.339  11.042
71757W        W43483  31.170  29.225   2.766
71758W        W43484  18.083   3.990   3.242
71759W        W43485  20.080  35.669  11.233
71760W        W43486  25.046  26.220  12.663
71761W        W43487  38.497  26.585  14.229
71762W        W43488   2.675  21.728   4.189
71763W        W43489   6.359  11.267   2.998
71764W        W43490  39.932  23.147  11.670
71765W        W43491  27.011  19.778  12.104
71766W        W43492  23.200  10.616  11.594
71767W        W43493  32.572  24.253   3.668
71768W        W43494  34.915  16.631   2.861
71769W        W43495  18.301  34.070  13.407
71770W        W43496  12.660   2.814  12.480
71771W        W43497  40.724  34.197  12.053
71772W        W43498  38.250   4.221  12.312
71773W        W43499  19.781  40.179   0.497
71774W        W43500  10.921  38.557   0.186
71775W        W43501  16.751  16.923   0.699
71776W        W43502   9.381   9.623   3.153
71777W        W43503  29.559  42.468  10.447
71778W        W43504  26.196  28.449  12.439
71779W        W43505  25.987  34.896  12.991
71780W        W43506   1.909   5.386  12.609
71781W        W43507  19.209  25.131  14.256
71782W        W43508  19.636  31.970  12.487
71783W        W43509  17.767  14.805  12.065
71784W        W43510  10.350   4.936  13.765
71785W        W43511  30.049  18.342   3.634
71786W        W43512  38.486  38.029  10.921
71787W        W43513  18.588  43.952  10.704
71788W        W43514  25.125  37.649   0.265
71789W        W43515  12.040  11.631  14.741
71790W        W43516  16.841  37.719   0.889
71791W        W43517  16.868  27.892   1.824
71792W        W43518  43.898  43.090   2.305
71793W        W43519  29.555  24.691   5.431
71794W        W43520  28.735  29.243  11.559
71795W        W43521  33.870  20.624   3.662
71796W        W43522  18.185   6.859  13.583
71797W        W43523  27.207  32.825  12.986
71798W        W43524   4.949  38.550  12.095
71799W        W43525  40.807  13.006   4.089
71800W        W43526  40.562  13.797   3.748
71801W        W43527  22.051   6.910   2.629
71802W        W43528   2.978  38.768  12.658
71803W        W43529  20.950  34.551  12.847
71804W        W43530  35.048  43.173  13.106
71805W        W43531  15.707   0.333  12.969
71806W        W43532  22.080   2.815   0.696
71807W        W43533  24.574   1.879  10.667
71808W        W43534  40.006   6.389   1.783
71809W        W43535  21.506  11.308   3.282
71810W        W43536  44.290  31.848  12.439
71811W        W43537  44.756  43.154   3.688
71812W        W43538   4.664  40.843  11.128
71813W        W43539  20.691   7.856   1.312
71814W        W43540   2.905  40.248  12.544
71815W        W43541  34.446   2.991   2.362
71816W        W43542  17.983  19.040  11.511
71817W        W43543  30.618  30.967   0.598
71818W        W43544  10.165  12.383   0.813
71819W        W43545  39.453  25.686   2.371
71820W        W43546  29.283  39.827  11.538
71821W        W43547  15.650   8.181   0.112
71822W        W43548  31.017   1.531   0.899
71823W        W43549  11.565  12.202   3.681
71824W        W43550  40.875  22.140   2.198
71825W        W43551   3.725  40.548  11.357
71826W        W43552   2.329  20.378   2.178
71827W        W43553  31.385   2.324   2.069
71828W        W43554  41.646  43.108   5.108
71829W        W43555  39.572  10.152   4.156
71830W        W43556  40.628  19.090   3.124
71831W        W43557  16.625  21.215  11.072
71832W        W43558  37.947   6.337  11.470
71833W        W43559  40.333  19.101  11.219
71834W        W43560  38.439  12.357  12.512
71835W        W43561   1.365  13.818   0.912
71836W        W43562  44.774  26.897   3.704
71837W        W43563  42.028  20.044  13.999
71838W        W43564  36.158   1.877  12.953
71839W        W43565  31.840  22.145  10.487
71840W        W43566  12.770  33.967  14.764
71841W        W43567  10.970  14.073  13.095
71842W        W43568  16.297   6.400   2.877
71843W        W43569  38.330  36.148   0.295
71844W        W43570  44.431   4.628  13.461
71845W        W43571  25.605  10.709  10.619
71846W        W43572  33.850   3.399   1.905
71847W        W43573  37.359  27.475   4.129
71848W        W43574  37.075   4.297  10.623
71849W        W43575  18.325  26.616   2.811
71850W        W43576  26.499  10.267  12.967
71851W        W43577  39.949  19.573  13.116
71852W        W43578  27.109  35.005   3.366
71853W        W43579  33.517  10.220  11.361
71854W        W43580  37.044  27.439  14.344
71855W        W43581   5.302  34.752  13.272
71856W        W43582  12.045  41.120  12.297
71857W        W43583  34.564  30.930   4.850
71858W        W43584   8.465   0.473  12.082
71859W        W43585   5.029  15.397   0.958
71860W        W43586  20.655  15.653  10.291
71861W        W43587  27.946  26.118   4.619
71862W        W43588  40.452   2.377  13.749
71863W        W43589  17.040   3.407  14.353
71864W        W43590  38.454  22.014   0.939
71865W        W43591  36.836  36.089   0.509
71866W        W43592  35.367  16.027   2.342
71867W        W43593  36.127  32.797  11.038
71868W        W43594  43.567  29.749  11.148
71869W        W43595  17.135  12.036   3.718
71870W        W43596   3.463  39.248   0.028
71871W        W43597  42.043  35.323  12.364
71872W        W43598  29.141  23.484  12.963
71873W        W43599  37.792  36.301   1.377
71874W        W43600  35.556   0.070   2.702
71875W        W43601   2.312  29.005   0.727
71876W        W43602  20.839  32.163   4.685
71877W        W43603  33.608  10.786   1.758
71878W        W43604  39.417  35.316  11.501
71879W        W43605  21.626  43.252  14.907
71880W        W43606  15.568  28.903   0.364
71881W        W43607  36.669  24.002  13.858
71882W        W43608  36.374   2.424  10.711
71883W        W43609  16.238  20.334  14.897
71884W        W43610  42.909  30.503  12.326
71885W        W43611  26.180   2.360   2.703
71886W        W43612   0.748   3.524   4.184
71887W        W43613  27.034  28.546  13.004
71888W        W43614  39.420  44.897  13.629
71889W        W43615  24.830  22.485  13.443
71890W        W43616  18.500   9.848   1.118
71891W        W43617   0.874  37.988  14.860
71892W        W43618  27.055  30.235   1.740
71893W        W43619  43.857  34.423  11.861
71894W        W43620  23.986   0.421   0.986
71895W        W43621  15.943   6.604  11.117
71896W        W43622  12.645  22.919  13.156
71897W        W43623  20.103   1.765   4.147
71898W        W43624   8.835  27.421   2.050
71899W        W43625  23.725  39.503  13.466
71900W        W43626  25.158   4.738   0.456
71901W        W43627  35.362  26.951   0.045
71902W        W43628  13.765  25.653   4.241
71903W        W43629  23.858  16.542   4.019
71904W        W43630  43.266  20.016   1.249
71905W        W43631  39.710   0.690  12.929
71906W        W43632   9.510   0.441  12.146
71907W        W43633   6.511  34.684  11.100
71908W        W43634  18.131  24.218   0.255
71909W        W43635  34.424  19.822   2.239
71910W        W43636  29.755  21.521  14.879
71911W        W43637  37.406  42.258  10.632
71912W        W43638  42.284   8.624  12.614
71913W        W43639  19.968  21.657  10.771
71914W        W43640   0.150  26.326   4.851
71915W        W43641  19.347  34.356  13.810
71916W        W43642  12.146   4.827  13.004
71917W        W43643   1.847  38.498   1.409
71918W        W43644  25.836  25.443  14.251
71919W        W43645  44.925  29.052   4.421
71920W        W43646  12.210  25.502  12.550
71921W        W43647  42.893  39.991  12.514
71922W        W43648  33.878   6.266   2.830
71923W        W43649  15.428  21.338   4.242
71924W        W43650   0.470  17.211   4.124
71925W        W43651   4.767  17.279   4.552
71926W        W43652  26.085  41.737   4.067
71927W        W43653  31.896   0.032   2.213
71928W        W43654   7.184  11.865  11.174
71929W        W43655  10.688  21.131   0.312
71930W        W43656  22.616   0.025   4.297
71931W        W43657  29.385  16.427   1.125
71932W        W43658  19.036   4.767   4.502
71933W        W43659   0.490  28.378   1.511
71934W        W43660   0.456  42.624  11.178
71935W        W43661  35.946  44.746   1.798
71936W        W43662  10.663  21.144  10.332
71937W        W43663  22.051  13.728   0.100
71938W        W43664   2.481   5.772  10.984
71939W        W43665  38.960   1.011   1.697
71940W        W43666  43.785  26.599  12.922
71941W        W43667  34.365  39.000   2.423
71942W        W43668   5.765  29.407   1.146
71943W        W43669  18.490  18.793  11.057
71944W        W43670   9.732  43.266   4.027
71945W        W43671  22.116  16.627   1.234
71946W        W43672  32.006  37.915  13.024
71947W        W43673  41.029  19.834   1.479
71948W        W43674   5.415  13.621  14.777
71949W        W43675   0.397  25.883   0.447
71950W        W43676  16.027  41.410   3.318
71951W        W43677  27.721  38.875  14.284
71952W        W43678  28.188  12.993   3.794
71953W        W43679  13.248  25.920   4.111
71954W        W43680  32.001  30.645   3.176
71955W        W43681  42.253  12.136   0.455
71956W        W43682  15.194   5.240   4.187
71957W        W43683  12.092  41.856   2.428
71958W        W43684  36.047   1.045  10.757
71959W        W43685  44.055   7.425   0.916
71960W        W43686   4.463   9.349   3.751
71961W        W43687  22.207  21.780   2.229
71962W        W43688  36.997  16.583   3.932
71963W        W43689  43.463  38.977   0.552
71964W        W43690  31.872  26.069  10.301
71965W        W43691  13.083  39.432   0.869
71966W        W43692  33.327  36.463  11.152
71967W        W43693  12.753   2.502   1.324
71968W        W43694  24.673  35.399   4.095
71969W        W43695   2.871  25.490  14.527
71970W        W43696   8.236  24.983  13.419
71971W        W43697  21.597  21.097  12.157
71972W        W43698  32.051  17.140  12.379
71973W        W43699  42.219   8.122  13.601
71974W        W43700  28.922  23.820   3.961
71975W        W43701  35.172  27.088  11.423
71976W        W43702  18.266  18.024   1.007
71977W        W43703  36.835   0.705   0.742
71978W        W43704  43.811  39.347  11.912
71979W        W43705  12.757  30.510   4.073
71980W        W43706  18.639  26.616   4.149
71981W        W43707   3.983  10.924   0.799
71982W        W43708  20.734  35.047  11.576
71983W        W43709  10.214  25.260   4.255
71984W        W43710   6.828  13.834  10.238
71985W        W43711  32.142  43.411   3.323
71986W        W43712  20.597  25.295  13.308
71987W        W43713  41.279  21.011   2.185
71988W        W43714  37.487  23.043   1.192
71989W        W43715  39.119  29.079  13.427
71990W        W43716  41.595   8.231   3.318
71991W        W43717  14.876  37.878   3.300
71992W        W43718  44.439  14.097  14.955
71993W        W43719  44.962  35.420   1.771
71994W        W43720  28.479  18.041   1.833
71995W        W43721  18.664  40.123  10.754
71996W        W43722  13.075  28.955   2.282
71997W        W43723   0.529  39.102   2.246
71998W        W43724   6.567   6.249   1.429
71999W        W43725  37.510  41.356  12.447
72000W        W43726  31.582  41.584  14.941
72001W        W43727   3.975  18.358   1.724
72002W        W43728  14.401  25.558   0.565
72003W        W43729  16.030  39.831  12.622
72004W        W43730  32.963  40.391  12.949
72005W        W43731  10.038  14.283  13.237
72006W        W43732  41.035  14.466  13.953
72007W        W43733  26.301  13.765   4.153
72008W        W43734   8.901  18.678  11.915
72009W        W43735  41.845   8.300  11.089
72010W        W43736  30.939  38.762   4.480
72011W        W43737  22.694  14.312  11.614
72012W        W43738  41.891  10.782  13.610
72013W        W43739  22.745  25.419   3.900
72014W        W43740  16.275  33.216  14.276
72015W        W43741   7.435  28.034  10.708
72016W        W43742  23.101  35.276   3.359
72017W        W43743  12.728  28.665  11.553
72018W        W43744   5.705  24.488  12.497
72019W        W43745  12.782  41.845  11.582
72020W        W43746   6.832   0.769  11.329
72021W        W43747  20.649   0.247  12.316
72022W        W43748  29.704   6.192   2.710
72023W        W43749  21.003  41.349  14.179
72024W        W43750  20.434  31.562  11.976
72025W        W43751  26.397   8.923  10.033
72026W        W43752   7.146  38.053   0.065
72027W        W43753  32.399  40.439  10.412
72028W        W43754  22.561   0.418   3.388
72029W        W43755  19.608  16.622   3.978
72030W        W43756  44.922   5.496   4.277
72031W        W43757   6.852   5.877  11.102
72032W        W43758   0.863  42.898   2.714
72033W        W43759  28.172  39.314   1.189
72034W        W43760  28.047  32.886   1.920
72035W        W43761  18.719   0.256  12.462
72036W        W43762  33.183   6.878  11.670
72037W        W43763  40.561  34.576  11.721
72038W        W43764  19.368  18.837   4.518
72039W        W43765  13.331   2.009  10.279
72040W        W43766  43.255   6.681   1.721
72041W        W43767  42.078  39.713  12.095
72042W        W43768  18.055  34.115   3.768
72043W        W43769  33.663  41.988   4.643
72044W        W43770  33.419  40.128   2.716
72045W        W43771   5.960   2.857  12.051
72046W        W43772  38.456  22.952  14.486
72047W        W43773  13.499  29.437  12.700
72048W        W43774  30.551  13.197  13.396
72049W        W43775  21.781   1.199   1.866
72050W        W43776  13.882  40.998  12.035
72051W        W43777  33.156  24.738   1.698
72052W        W43778  18.169  32.458   4.539
72053W        W43779  22.221   3.267   0.457
72054W        W43780  39.936  22.340  11.817
72055W        W43781  25.731  36.488   3.337
72056W        W43782  24.548   5.170  11.172
72057W        W43783  11.759  20.005   1.788
72058W        W43784  44.750  32.989   2.361
72059W        W43785   7.807   4.416   0.437
72060W        W43786  11.918  21.052  13.818
72061W        W43787  25.984  27.901  12.369
72062W        W43788  25.734  35.551   2.257
72063W        W43789   9.886  18.052  12.976
72064W        W43790  41.039   9.416  13.471
72065W        W43791   4.176  39.396   4.283
72066W        W43792  16.243  25.229  12.837
72067W        W43793  23.329  42.644   3.643
72068W        W43794  21.583   7.695  11.201
72069W        W43795  20.514  22.570  11.576
72070W        W43796  36.438   3.713   4.570
72071W        W43797   5.326   7.155   1.041
72072W        W43798  19.555   0.250  11.316
72073W        W43799  30.059  36.952   4.198
72074W        W43800  32.589  42.703  11.102
72075W        W43801   8.229  25.527  11.856
72076W        W43802  12.923  18.314  13.011
72077W        W43803  14.322  25.760   1.053
72078W        W43804  30.627  15.161   3.571
72079W        W43805  32.434  38.003   3.699
72080W        W43806  38.486  40.068   0.230
72081W        W43807  29.677   1.291   3.077
72082W        W43808  25.825  43.794   2.692
72083W        W43809   4.814  35.611  14.933
72084W        W43810  43.033  42.440  14.026
72085W        W43811  43.368   7.366  11.860
72086W        W43812  19.184  17.759   3.729
72087W        W43813  20.660  42.709  11.919
72088W        W43814  16.711  40.783  12.716
72089W        W43815  15.614  16.059  13.074
72090W        W43816  35.041   9.173  14.476
72091W        W43817  15.594  10.232   2.744
72092W        W43818  32.378  24.084  10.274
72093W        W43819  11.120  38.461  14.547
72094W        W43820   4.918  36.716   1.321
72095W        W43821  42.105  15.227   1.807
72096W        W43822  34.204   0.816   2.828
72097W        W43823  37.826  12.292   3.636
72098W        W43824   1.264  41.235  12.414
72099W        W43825  39.901  28.074   1.921
72100W        W43826  26.958  29.157   4.394
72101W        W43827  35.572   8.100  14.357
72102W        W43828   6.778  16.763   1.842
72103W        W43829  24.165   4.413  12.430
72104W        W43830   7.262  12.376  13.417
72105W        W43831  30.045  13.066  10.694
72106W        W43832   2.759  32.659  11.252
72107W        W43833  34.000  20.698  13.970
72108W        W43834   5.308   1.495  14.040
72109W        W43835  12.972   5.867  11.131
72110W        W43836  33.989  39.788  11.562
72111W        W43837  31.055   1.150  10.976
72112W        W43838  14.290   1.817   4.138
72113W        W43839  36.059  24.289   0.447
72114W        W43840  38.946   4.957  11.531
72115W        W43841  26.973  20.163   0.396
72116W        W43842  43.156   0.779   5.333
72117W        W43843  11.556  27.104   2.275
72118W        W43844  27.690  30.430   0.264
72119W        W43845  17.536   1.289  12.302
72120W        W43846  36.492  39.944   1.389
72121W        W43847  33.179  24.431  11.812
72122W        W43848  11.831  38.584   1.606
72123W        W43849   9.859  13.296  12.911
72124W        W43850  31.729  32.867  13.903
72125W        W43851  31.963  19.497   1.785
72126W        W43852   9.742   4.468  10.731
72127W        W43853   4.101  44.201   3.152
72128W        W43854  38.912  27.143   2.933
72129W        W43855  30.450  12.412   4.530
72130W        W43856  25.401  38.850   1.374
72131W        W43857   4.759  38.990  11.194
72132W        W43858  30.575  38.848   4.137
72133W        W43859  13.190   0.261  12.929
72134W        W43860  12.353  25.072  13.548
72135W        W43861   0.827  42.361   0.572
72136W        W43862  10.890  31.138  11.511
72137W        W43863  34.433  35.666  11.188
72138W        W43864  34.967  24.984   3.606
72139W        W43865  43.881  30.269  11.831
72140W        W43866  19.710  39.768   0.815
72141W        W43867  12.237  15.755  13.312
72142W        W43868  38.063   5.850   1.929
72143W        W43869  20.410  16.851   0.437
72144W        W43870  33.465  31.257  13.617
72145W        W43871  19.186  16.816  14.930
72146W        W43872   9.403  32.398   1.953
72147W        W43873  29.320  22.107   3.319
72148W        W43874   7.927  25.623   4.524
72149W        W43875  39.771  41.792  14.773
72150W        W43876  34.545  25.590   0.835
72151W        W43877  16.616  30.836  10.734
72152W        W43878  17.308  23.055  14.901
72153W        W43879  25.410  17.117   4.866
72154W        W43880  20.641  13.333   1.707
72155W        W43881   4.420  16.755   0.925
72156W        W43882  10.239  23.488   2.051
72157W        W43883  38.388  39.711   0.952
72158W        W43884  10.440   8.735  11.064
72159W        W43885  17.154  28.409   1.423
72160W        W43886  17.176  29.870   3.437
72161W        W43887  19.693   8.861  11.396
72162W        W43888  23.201  19.294  13.815
72163W        W43889   9.369  23.999  11.918
72164W        W43890   1.392  20.067  12.067
72165W        W43891  24.128  10.291   1.423
72166W        W43892   0.296  28.567  11.611
72167W        W43893  20.214  42.849  11.662
72168W        W43894  29.945  15.528  12.862
72169W        W43895   2.852  25.525   3.670
72170W        W43896   6.775  25.853  10.573
72171W        W43897  40.742  19.077  12.149
72172W        W43898  30.118  43.996   5.328
72173W        W43899  38.969  13.277   4.420
72174W        W43900  41.356   6.881   4.418
72175W        W43901  22.256  28.035   3.573
72176W        W43902   9.685  19.445  13.496
72177W        W43903   0.648  27.782   3.067
72178W        W43904  29.468  29.965  14.406
72179W        W43905  14.108  30.494   3.624
72180W        W43906  29.259  23.094   3.176
72181W        W43907  22.763  17.145   3.181
72182W        W43908  39.736  36.086  11.620
72183W        W43909   3.601  36.848  12.461
72184W        W43910   5.941  24.691  14.312
72185W        W43911   2.755   8.209   0.801
72186W        W43912  44.185  39.515  12.585
72187W        W43913   3.363   3.712  10.680
72188W        W43914  20.222  16.051  12.913
72189W        W43915  33.880  30.598   0.197
72190W        W43916  37.103  20.382  14.883
72191W        W43917  14.225  25.086  12.283
72192W        W43918  16.349  22.162   2.877
72193W        W43919  44.734  34.747  11.991
72194W        W43920  32.364  18.956  13.383
72195W        W43921  33.152  30.151   1.799
72196W        W43922  11.566  21.727   3.421
72197W        W43923   3.448  21.780   2.680
72198W        W43924  33.144   2.497  11.131
72199W        W43925   6.531  16.297   1.297
72200W        W43926  35.504  41.019  13.571
72201W        W43927  37.272  19.698   0.171
72202W        W43928   1.369  36.908   4.888
72203W        W43929  40.742  42.932  10.434
72204W        W43930  14.247  23.004   2.105
72205W        W43931   1.247  44.654  11.567
72206W        W43932  17.611  19.808  13.302
72207W        W43933   2.289  19.122   1.710
72208W        W43934  11.143  12.640  11.442
72209W        W43935  16.831  28.694   3.349
72210W        W43936  26.335  16.044   4.993
72211W        W43937   5.442  21.475   4.137
72212W        W43938   3.832   8.094  12.121
72213W        W43939  41.938  36.155  11.071
72214W        W43940  40.570  25.460  11.387
72215W        W43941   6.196  16.680   1.212
72216W        W43942  19.642  12.815   4.430
72217W        W43943  13.575   9.840   2.738
72218W        W43944   3.940   3.303   5.123
72219W        W43945  36.602  15.571   4.636
72220W        W43946  24.675  14.667  11.544
72221W        W43947  17.529  44.814   0.289
72222W        W43948  35.319  42.404  10.664
72223W        W43949  11.310   2.758  12.492
72224W        W43950   7.853  38.527  11.336
72225W        W43951  39.203   0.046   1.626
72226W        W43952  41.350  21.582  12.557
72227W        W43953  40.948   3.421   3.757
72228W        W43954   1.489  12.554  14.405
72229W        W43955  41.560  43.319  12.495
72230W        W43956  44.246  31.037  12.239
72231W        W43957  35.110  25.181  10.693
72232W        W43958  38.904   3.201  13.302
72233W        W43959  13.115  26.415  12.410
72234W        W43960  35.187  13.746   0.414
72235W        W43961  24.082  24.303   4.528
72236W        W43962  29.425  32.481  12.786
72237W        W43963  10.690  13.133  13.865
72238W        W43964  42.952  41.080   3.724
72239W        W43965  19.165  41.344  14.392
72240W        W43966  34.795   1.657  10.490
72241W        W43967  14.866   8.442  11.180
72242W        W43968  44.912  41.708   3.784
72243W        W43969   6.014  25.985  11.842
72244W        W43970   7.980   5.523   0.549
72245W        W43971   2.406   7.617  13.526
72246W        W43972  36.903  35.830   1.445
72247W        W43973  40.446   5.757   1.345
72248W        W43974  42.612   2.159  12.987
72249W        W43975  36.054   1.017   3.188
72250W        W43976   7.712  11.565   4.317
72251W        W43977  15.690   4.653   0.176
72252W        W43978  44.268  19.484   2.810
72253W        W43979  13.643  10.649   1.747
72254W        W43980  21.170  27.143   0.497
72255W        W43981   5.406  22.211   1.769
72256W        W43982   9.754  41.972   3.730
72257W        W43983  18.916  42.531  12.977
72258W        W43984   7.294  38.767  12.809
72259W        W43985  36.144  43.451   3.078
72260W        W43986  15.293  40.290   2.846
72261W        W43987  25.904  35.551  14.677
72262W        W43988   5.215  14.040  10.238
72263W        W43989  40.852  41.135  14.971
72264W        W43990  33.388  39.813  14.332
72265W        W43991  16.885   7.742  12.009
72266W        W43992  30.824  44.484  12.794
72267W        W43993   2.998  23.456  10.627
72268W        W43994  14.727  42.769  11.085
72269W        W43995   1.477  10.607  12.978
72270W        W43996  19.110  23.361   2.480
72271W        W43997   9.172   8.930  14.340
72272W        W43998  44.931  34.071   4.815
72273W        W43999   1.857   0.388  13.927
72274W        W44000  29.464  10.790  13.381
72275W        W44001  26.256   9.364  10.352
72276W        W44002  42.055   2.906   1.403
72277W        W44003  17.195  44.878   4.459
72278W        W44004   0.949  31.384  12.518
72279W        W44005  34.546  37.855  14.396
72280W        W44006  35.205  40.994  14.549
72281W        W44007  18.151   7.900  14.845
72282W        W44008   4.247  12.555  10.993
72283W        W44009  23.691  19.503   2.396
72284W        W44010  15.372   1.707  13.484
72285W        W44011  14.275  35.002   1.921
72286W        W44012  26.980   3.923  13.391
72287W        W44013  33.962  24.912  11.171
72288W        W44014  21.065   7.634  11.137
72289W        W44015   9.735   3.165  12.961
72290W        W44016  38.591  28.545  11.822
72291W        W44017  43.355  27.058   3.819
72292W        W44018  18.788  32.647  13.447
72293W        W44019  44.033  43.812   0.850
72294W        W44020  39.860  42.399  12.538
72295W        W44021   3.237  17.331  11.590
72296W        W44022  39.981  24.543  11.524
72297W        W44023  13.773  44.059  14.023
72298W        W44024  31.108  33.961  14.544
72299W        W44025   5.115  18.725   3.705
72300W        W44026  39.780  25.694  14.025
72301W        W44027  15.079   5.782  11.539
72302W        W44028   0.895  33.474  12.285
72303W        W44029  10.125  17.236   2.364
72304W        W44030  23.793  18.521   3.317
72305W        W44031  37.158  28.876   0.037
72306W        W44032  33.931   6.410   3.323
72307W        W44033  34.010  40.830   2.802
72308W        W44034  36.285  22.352   9.591
72309W        W44035   9.884   9.339   5.102
72310W        W44036  14.159  19.290   0.308
72311W        W44037  17.794  33.346   4.489
72312W        W44038   8.303   9.207   4.937
72313W        W44039  13.028   2.689   2.653
72314W        W44040  19.267  43.356  13.484
72315W        W44041   9.889  34.527   5.062
72316W        W44042   4.909   6.505   5.454
72317W        W44043  16.784  25.912  12.655
72318W        W44044  37.361  43.580  14.592
72319W        W44045  29.693   6.806   3.649
72320W        W44046  10.695   8.661  14.813
72321W        W44047  37.815  33.143   0.411
72322W        W44048   5.093   0.962  14.362
72323W        W44049  35.511  39.533  12.354
72324W        W44050   5.129  22.527   3.227
72325W        W44051  18.619  17.144  12.087
72326W        W44052  11.041  20.740  13.772
72327W        W44053  16.040  18.685   1.239
72328W        W44054   3.261   8.305   0.899
72329W        W44055  11.745   0.353   3.960
72330W        W44056  41.292   9.171   2.847
72331W        W44057  39.152  38.079  11.911
72332W        W44058   4.282  25.658   2.149
72333W        W44059  34.061   9.638   3.985
72334W        W44060  22.316  29.066  12.415
72335W        W44061  34.511  20.719  13.863
72336W        W44062  35.766  24.464  12.847
72337W        W44063  11.905  44.838   4.547
72338W        W44064  11.049  23.721  10.577
72339W        W44065  12.836   5.748   1.685
72340W        W44066   8.718  20.593  11.419
72341W        W44067   0.860  13.324  10.337
72342W        W44068  44.330  13.172   4.041
72343W        W44069  42.890   8.222  10.943
72344W        W44070  11.129  20.046   2.968
72345W        W44071  22.599  30.399   4.698
72346W        W44072  27.202  39.091   0.495
72347W        W44073  37.861   1.673   1.659
72348W        W44074   5.814  17.221  13.778
72349W        W44075   3.477   8.900  11.927
72350W        W44076   2.166  27.445   0.329
72351W        W44077  21.724  34.408  14.296
72352W        W44078  27.457  43.363  11.357
72353W        W44079  41.438  41.744   1.233
72354W        W44080  42.818  25.877   4.238
72355W        W44081   7.933  44.215   0.328
72356W        W44082  39.730  26.549   2.645
72357W        W44083  13.051  15.129   1.458
72358W        W44084   0.411   0.607   4.510
72359W        W44085  22.143  31.494   0.043
72360W        W44086  36.936  23.409  11.215
72361W        W44087  28.605   5.477   3.039
72362W        W44088   4.958  21.743  12.791
72363W        W44089  36.344  20.072   0.869
72364W        W44090  40.703   0.003   3.637
72365W        W44091  18.647  24.236   3.735
72366W        W44092  28.091   5.663  10.783
72367W        W44093  37.789  32.467   1.135
72368W        W44094  36.418  34.908   3.584
72369W        W44095   5.726  15.744   0.431
72370W        W44096   4.518   0.826  13.052
72371W        W44097  19.012  28.052   0.845
72372W        W44098   6.828   3.396  13.067
72373W        W44099  34.631   4.220   4.061
72374W        W44100   9.840   5.642   4.948
72375W        W44101  37.371  35.474  14.979
72376W        W44102  36.485  38.098  14.883
72377W        W44103  40.270   6.883  14.862
72378W        W44104   8.156  17.783  10.477
72379W        W44105  40.087  17.574  13.888
72380W        W44106  33.907   8.219  13.887
72381W        W44107  17.760  19.262   0.554
72382W        W44108   6.899  24.708   4.149
72383W        W44109   1.492  37.956   2.783
72384W        W44110  14.487  14.037   4.334
72385W        W44111  41.518  38.992  12.516
72386W        W44112   0.515   9.130  11.324
72387W        W44113  19.033  11.760  12.567
72388W        W44114  13.287  40.756  13.537
72389W        W44115   0.968  19.124   3.585
72390W        W44116   4.339   8.454   4.587
72391W        W44117  43.876  19.256   4.314
72392W        W44118  12.244   0.755   2.374
72393W        W44119  43.841  23.115  11.171
72394W        W44120  13.449  19.544   1.770
72395W        W44121   0.848  13.013  12.855
72396W        W44122   4.459   6.810   3.741
72397W        W44123  28.449   7.781  14.936
72398W        W44124  29.441   3.851  13.872
72399W        W44125  34.113   1.811  11.683
72400W        W44126  20.992  34.946   1.809
72401W        W44127  28.403  19.754  13.469
72402W        W44128  33.580  26.707   1.071
72403W        W44129  19.121  26.702  14.255
72404W        W44130  18.798  27.541  11.997
72405W        W44131  31.360  31.960   2.194
72406W        W44132  29.218  23.692  14.811
72407W        W44133  12.261  21.400   2.611
72408W        W44134   7.703  14.878   2.540
72409W        W44135  21.771  15.910   2.913
72410W        W44136  23.485  18.222  12.775
72411W        W44137   8.167  27.156   4.505
72412W        W44138  39.296   1.984   3.206
72413W        W44139  37.211  22.495   1.917
72414W        W44140  22.114  21.741   4.049
72415W        W44141  40.224  32.841  13.918
72416W        W44142  16.763   5.940   1.917
72417W        W44143  19.200   7.895   2.884
72418W        W44144  37.579   5.647   4.101
72419W        W44145  42.809  20.313   1.405
72420W        W44146  43.887  24.444  11.101
72421W        W44147  13.333   1.542   3.860
72422W        W44148   2.841  19.708  11.601
72423W        W44149  44.956  33.450   3.644
72424W        W44150  34.361  21.116  12.597
72425W        W44151  11.882  20.098  10.273
72426W        W44152  27.547   9.876   0.039
72427W        W44153  23.144   2.179  12.548
72428W        W44154   3.959  35.927  14.185
72429W        W44155   7.475  23.179  11.151
72430W        W44156  14.340   7.080   1.198
72431W        W44157  15.832  20.566   3.268
72432W        W44158  39.156   8.233   4.220
72433W        W44159  39.576  31.473   2.636
72434W        W44160  30.217  29.890  14.440
72435W        W44161  13.827   1.459  12.519
72436W        W44162  30.216  10.640  11.616
72437W        W44163  11.782  23.348   1.266
72438W        W44164   8.482  14.396   3.894
72439W        W44165  30.121  20.805  10.777
72440W        W44166  17.219   0.236  13.263
72441W        W44167  27.666  43.925  13.850
72442W        W44168  16.602   3.253  14.133
72443W        W44169  14.143  15.840  11.097
72444W        W44170   1.394  24.066   2.710
72445W        W44171  13.181  43.930  13.426
72446W        W44172  13.436  22.782  14.302
72447W        W44173  24.506  13.261   5.045
72448W        W44174   7.916  20.466   2.270
72449W        W44175   0.891   0.750  10.942
72450W        W44176   4.492   2.737  11.674
72451W        W44177  20.743  41.141  12.532
72452W        W44178   0.480  12.895   2.274
72453W        W44179   2.876  18.617   1.260
72454W        W44180  11.311  33.954   4.205
72455W        W44181  30.148  35.900  14.404
72456W        W44182  40.480  23.046   0.607
72457W        W44183  23.245  33.894   1.291
72458W        W44184   8.215  42.842   1.832
72459W        W44185  39.294  42.761  10.989
72460W        W44186  40.392  41.682  13.460
72461W        W44187   2.311  29.106   2.333
72462W        W44188  16.107  21.293   1.158
72463W        W44189  35.904  10.355  10.703
72464W        W44190   4.037  37.408   4.693
72465W        W44191   2.202  32.886   3.122
72466W        W44192  37.619  13.983  13.813
72467W        W44193  35.039  37.231  11.190
72468W        W44194   4.309  21.066  12.844
72469W        W44195  14.207  38.908   5.564
72470W        W44196  18.259  30.844  13.512
72471W        W44197  20.707  30.366  11.489
72472W        W44198  27.020   7.235   2.361
72473W        W44199  34.918  21.890   0.256
72474W        W44200  42.364  42.116   0.258
72475W        W44201  39.066  11.156   0.475
72476W        W44202   2.084  15.863   1.479
72477W        W44203  18.424  17.397  10.538
72478W        W44204   8.379  23.452   4.166
72479W        W44205   2.006  28.941   1.652
72480W        W44206  32.409  22.112  10.596
72481W        W44207  35.618  23.252  12.994
72482W        W44208  39.855  22.306  14.239
72483W        W44209  11.658  26.274   0.904
72484W        W44210  33.386  13.105   4.128
72485W        W44211  13.251  29.451   4.031
72486W        W44212  37.448  16.712  14.365
72487W        W44213  20.177  18.826   3.809
72488W        W44214  16.235   9.825  14.453
72489W        W44215  19.374   2.946   0.318
72490W        W44216   8.224   1.093   2.851
72491W        W44217   6.191  42.469   4.668
72492W        W44218   9.893  23.709   5.146
72493W        W44219   9.706  34.170   3.233
72494W        W44220  34.770  41.901   3.331
72495W        W44221  35.153  40.418   0.756
72496W        W44222   4.285  26.541  13.024
72497W        W44223  13.761  44.569  13.856
72498W        W44224  19.122  39.531   0.388
72499W        W44225  14.311   9.468  11.672
72500W        W44226  39.566   8.817  12.891
72501W        W44227  13.179  15.084   3.120
72502W        W44228  25.159  11.695  11.531
72503W        W44229  10.225  25.676  14.815
72504W        W44230  25.427  20.254   4.751
72505W        W44231   0.426  20.053  12.156
72506W        W44232  26.394  36.975  10.624
72507W        W44233  22.971   2.108   1.407
72508W        W44234  35.826  18.012   1.411
72509W        W44235  25.384  13.178   1.661
72510W        W44236  16.593  41.137   5.388
72511W        W44237  37.741  37.932   0.295
72512W        W44238  31.531  27.603   3.281
72513W        W44239   3.463  29.131   2.742
72514W        W44240  20.029  28.612   2.288
72515W        W44241  41.463   6.900  14.255
72516W        W44242  13.327  32.861  12.862
72517W        W44243   1.317  44.858   3.535
72518W        W44244  43.967  32.464  13.496
72519W        W44245  15.264   1.701   2.463
72520W        W44246   1.236  28.598   0.427
72521W        W44247  11.737  36.878  10.149
72522W        W44248  18.602  42.823   5.162
72523W        W44249   4.936  37.497  14.729
72524W        W44250  17.287  34.476   1.813
72525W        W44251   7.314  18.262  13.865
72526W        W44252  26.464   1.667   3.173
72527W        W44253  19.827  32.170  13.912
72528W        W44254  38.861   4.019   0.054
72529W        W44255  14.235  38.636   5.121
72530W        W44256  26.028  16.086   2.706
72531W        W44257  28.484  19.297  10.870
72532W        W44258  22.581  41.394  10.309
72533W        W44259  34.622  42.581   0.497
72534W        W44260  13.897  36.903   4.670
72535W        W44261  43.575   5.833   0.156
72536W        W44262  16.818  42.834   1.998
72537W        W44263  27.979  20.707   1.527
72538W        W44264  42.495  29.063   4.146
72539W        W44265  39.614   3.748  13.632
72540W        W44266  11.962  40.106  12.459
72541W        W44267  32.014  38.895  14.713
72542W        W44268  18.327  13.191  10.877
72543W        W44269  15.782  26.654   0.646
72544W        W44270   7.697   7.832  10.676
72545W        W44271  20.668  40.666  12.337
72546W        W44272  17.722   6.987   2.937
72547W        W44273   2.805  35.504  13.971
72548W        W44274  19.469  35.147  11.175
72549W        W44275  12.368  11.795   3.794
72550W        W44276  10.273  42.178  13.383
72551W        W44277  13.536  11.599   4.475
72552W        W44278  34.499   1.082  13.574
72553W        W44279  24.654  10.680   0.682
72554W        W44280  15.639  39.387   1.702
72555W        W44281  23.552  13.885  10.486
72556W        W44282  33.164   2.494   3.245
72557W        W44283   3.465  42.836  13.859
72558W        W44284  16.813  10.386   0.385
72559W        W44285   9.238   2.414  13.892
72560W        W44286   7.140  10.962   2.631
72561W        W44287  40.083  20.638  14.933
72562W        W44288  31.618  26.500   2.759
72563W        W44289   7.154  34.342   0.028
72564W        W44290   6.031  14.257   4.298
72565W        W44291  15.276  29.473  10.644
72566W        W44292  36.120  12.347  13.767
72567W        W44293  22.966  17.271   2.701
72568W        W44294   4.518  16.158   4.823
72569W        W44295   9.221   3.423   5.087
72570W        W44296  38.594  20.062   3.757
72571W        W44297  31.196   3.502   1.564
72572W        W44298  23.601  16.331   4.843
72573W        W44299  14.449  29.669  14.224
72574W        W44300  30.954  15.091   4.728
72575W        W44301  10.858  38.140  13.832
72576W        W44302   8.408  25.778   4.670
72577W        W44303  44.257   2.952   0.386
72578W        W44304   5.723  24.207   0.394
72579W        W44305  28.137  17.397   4.112
72580W        W44306   9.104  21.429   2.799
72581W        W44307  40.867  37.842   1.491
72582W        W44308  31.987  12.273  11.027
72583W        W44309   7.367  30.985  13.296
72584W        W44310  18.088   7.016  11.310
72585W        W44311   0.334  10.036  11.564
72586W        W44312  24.305  24.314  13.248
72587W        W44313  38.425  40.193   4.917
72588W        W44314  21.351  43.372   3.495
72589W        W44315   6.419  22.340   4.527
72590W        W44316  42.461  29.484  13.542
72591W        W44317  18.599  24.892   1.834
72592W        W44318  35.661  31.027  12.002
72593W        W44319  32.464   7.836   2.002
72594W        W44320  17.332  16.589  10.272
72595W        W44321  25.679  10.470  14.345
72596W        W44322  16.705  19.570  11.395
72597W        W44323  25.207  31.510  12.699
72598W        W44324  10.170   5.691   3.184
72599W        W44325  23.728  11.874  11.319
72600W        W44326  32.543  43.437   1.050
72601W        W44327  11.417  20.396   3.289
72602W        W44328  32.383  14.349  13.034
72603W        W44329   8.911  42.732  11.054
72604W        W44330  32.619  30.855   4.700
72605W        W44331  36.103  22.090   2.370
72606W        W44332  21.180  17.544   2.948
72607W        W44333  41.351  40.785   3.801
72608W        W44334  19.700  16.810   2.923
72609W        W44335  30.455  13.770  14.325
72610W        W44336   3.412  27.769  12.511
72611W        W44337  25.895  12.215  11.525
72612W        W44338  19.693  43.574   2.966
72613W        W44339  37.553  11.857   2.789
72614W        W44340   1.163  10.785  13.369
72615W        W44341  36.154  29.119   2.358
72616W        W44342  30.010  35.846  12.570
72617W        W44343  37.318  16.570   1.811
72618W        W44344  40.944  20.315  13.885
72619W        W44345  41.054  28.512   1.752
72620W        W44346  17.782  36.567   0.959
72621W        W44347   5.244  14.251   4.099
72622W        W44348  43.031  38.588   2.932
72623W        W44349  35.365   1.345  13.467
72624W        W44350  12.719  10.279   3.348
72625W        W44351  22.105  33.499  13.338
72626W        W44352  35.473  12.279   1.106
72627W        W44353  29.886  27.425  11.118
72628W        W44354   0.101  24.439   2.348
72629W        W44355  12.443  20.597   3.130
72630W        W44356  13.872  28.122   4.534
72631W        W44357  24.972  28.994  11.529
72632W        W44358  35.574  18.079  12.434
72633W        W44359  20.014  33.033   1.483
72634W        W44360  26.075  34.490   0.515
72635W        W44361  26.624  24.875  13.294
72636W        W44362  43.046  41.846  12.933
72637W        W44363  18.686   0.088   4.309
72638W        W44364   7.870  41.682   0.527
72639W        W44365  36.129  40.776   1.219
72640W        W44366   7.883  42.755  12.530
72641W        W44367  21.016  22.256  10.332
72642W        W44368  26.686  35.529  14.037
72643W        W44369  13.669  20.673  14.583
72644W        W44370  15.653  29.160  10.508
72645W        W44371  17.273  29.515  14.010
72646W        W44372  11.644  19.271  12.006
72647W        W44373   1.852  23.021   4.601
72648W        W44374  22.497   8.822  14.253
72649W        W44375  16.804  42.448   3.568
72650W        W44376   8.718  31.830   3.568
72651W        W44377   8.431  15.249  13.770
72652W        W44378  29.162  39.398   3.109
72653W        W44379  29.016   4.281  14.449
72654W        W44380   8.309  34.264   2.262
72655W        W44381   6.174  41.984   3.327
72656W        W44382  17.661  21.258   2.408
72657W        W44383   7.011  31.481   0.029
72658W        W44384  22.571   1.547  11.119
72659W        W44385   2.707   0.115  10.361
72660W        W44386  27.396  19.285   1.327
72661W        W44387  25.463  30.876  11.014
72662W        W44388  25.808  21.512   2.772
72663W        W44389   3.160  37.455  14.369
72664W        W44390  17.990  17.161  14.227
72665W        W44391  37.497  39.471  11.848
72666W        W44392  23.249  37.805   3.300
72667W        W44393  27.152   6.945  11.149
72668W        W44394  12.406  17.761  13.833
72669W        W44395  44.864  23.708   4.185
72670W        W44396  27.525   0.521  12.589
72671W        W44397   6.319  32.303   0.182
72672W        W44398  41.455  23.215  13.504
72673W        W44399  43.184  34.070  11.472
72674W        W44400   3.287  37.395  14.894
72675W        W44401  11.129  16.346  14.352
72676W        W44402  33.956  36.815  13.521
72677W        W44403  11.683  39.953  12.932
72678W        W44404  27.676  40.815   0.626
72679W        W44405  11.868  33.509   1.355
72680W        W44406   1.018  28.986  11.063
72681W        W44407  39.937   8.864  10.396
72682W        W44408   6.055  27.986   1.740
72683W        W44409   0.365  42.925  13.435
72684W        W44410  38.869  17.053   0.329
72685W        W44411  34.590  18.859   0.215
72686W        W44412  27.228  30.511   4.624
72687W        W44413  19.506  42.950  10.944
72688W        W44414  34.047  26.507   0.084
72689W        W44415  10.615  36.344   4.338
72690W        W44416  14.317  42.505  10.908
72691W        W44417  26.130  44.761  13.285
72692W        W44418  24.499  14.663   3.571
72693W        W44419  29.832  33.403  14.005
72694W        W44420   6.972   8.082  10.494
72695W        W44421  30.475  42.749   0.475
72696W        W44422  23.064   5.120  11.636
72697W        W44423  38.316  10.838   3.122
72698W        W44424  34.502   0.860  12.587
72699W        W44425  39.531   4.279  10.569
72700W        W44426  40.306  36.802   3.381
72701W        W44427  40.912  43.048   4.947
72702W        W44428  10.755  27.057   2.903
72703W        W44429  43.894   2.479   1.294
72704W        W44430   9.774  36.736   5.360
72705W        W44431  35.002  10.831  13.460
72706W        W44432  16.785  36.534   4.448
72707W        W44433  13.297  17.786   3.671
72708W        W44434  43.000  29.155   2.620
72709W        W44435  20.534  40.859   4.932
72710W        W44436  35.855   5.719   0.417
72711W        W44437  13.931   4.682   3.571
72712W        W44438  40.107   0.869  14.330
72713W        W44439  26.695  27.059   3.219
72714W        W44440  13.180  25.823   1.021
72715W        W44441   5.321  36.005  10.667
72716W        W44442  13.327   8.297  12.549
72717W        W44443  27.004  44.870  10.209
72718W        W44444  20.577  17.184  13.905
72719W        W44445  31.032  22.685   1.771
72720W        W44446   3.001   6.864   3.638
72721W        W44447  10.585   7.612   1.230
72722W        W44448  35.879  39.391  11.141
72723W        W44449  30.153   2.923   0.944
72724W        W44450  24.791   9.409   4.067
72725W        W44451  39.397  13.002  11.096
72726W        W44452  22.954   6.788   3.044
72727W        W44453   4.183  35.710   2.268
72728W        W44454  40.078   4.711   4.149
72729W        W44455  14.320  16.295   4.883
72730W        W44456  27.602  12.862  12.457
72731W        W44457   1.442   2.720   1.772
72732W        W44458  30.133   6.744  10.768
72733W        W44459  18.602  31.076   4.375
72734W        W44460  24.701   1.903  12.503
72735W        W44461  42.634  31.389   2.978
72736W        W44462   6.824  29.444   4.904
72737W        W44463  14.666  40.823   1.423
72738W        W44464   6.291  19.184   3.903
72739W        W44465  26.932  38.994   3.271
72740W        W44466  31.498  32.896   4.599
72741W        W44467  39.572  26.266   0.409
72742W        W44468  38.431  17.351  10.491
72743W        W44469  33.605   4.666   1.232
72744W        W44470   0.878   1.732   2.331
72745W        W44471  24.351  19.610   4.189
72746W        W44472  30.580  31.667  11.127
72747W        W44473  19.744  32.959  10.952
72748W        W44474  36.291  30.432  14.473
72749W        W44475  42.056  34.514  13.020
72750W        W44476  44.580  34.150   1.877
72751W        W44477  31.934   3.896   1.154
72752W        W44478  33.764  30.661  10.713
72753W        W44479  23.643  24.031   4.620
72754W        W44480   6.628  10.176  14.943
72755W        W44481  32.866  35.359  14.677
72756W        W44482  22.139  25.961  12.555
72757W        W44483  18.324  18.603   4.535
72758W        W44484  31.200  17.294   1.448
72759W        W44485  42.450   1.194   3.310
72760W        W44486  23.695  34.387  10.741
72761W        W44487  17.419  44.430   4.524
72762W        W44488  14.761  27.438   1.710
72763W        W44489  21.052  43.808   3.369
72764W        W44490  16.057  29.951  14.867
72765W        W44491  27.591  33.222  14.246
72766W        W44492  10.728  14.822  12.611
72767W        W44493   5.691  28.952  14.396
72768W        W44494  20.096  13.847  13.613
72769W        W44495  25.417  25.690  14.927
72770W        W44496  13.875  16.179  14.042
72771W        W44497   0.042  16.309  10.908
72772W        W44498  43.509  29.928   0.856
72773W        W44499  37.341  25.213  12.264
72774W        W44500  29.107  12.669  14.809
72775W        W44501  31.071   4.986   2.803
72776W        W44502  10.243  26.710  11.559
72777W        W44503  27.199   4.923  13.536
72778W        W44504  21.777  29.988  12.551
72779W        W44505   4.963  26.177  14.749
72780W        W44506  29.529  18.709  14.526
72781W        W44507  20.199  32.482  11.521
72782W        W44508  15.487   1.049  11.968
72783W        W44509  44.321  35.961   4.528
72784W        W44510  13.868  17.278   3.377
72785W        W44511  27.456  29.860  13.330
72786W        W44512  20.351   1.329   4.090
72787W        W44513   8.055  26.881  11.122
72788W        W44514  44.744   7.317   2.605
72789W        W44515  22.268  20.826   0.825
72790W        W44516  16.329  44.274   0.769
72791W        W44517   5.996  39.639  13.926
72792W        W44518   9.685  10.204  13.819
72793W        W44519  23.812   9.883  11.925
72794W        W44520  23.509  10.369  13.886
72795W        W44521   8.354  15.105   1.296
72796W        W44522  24.475  10.253   3.276
72797W        W44523  12.081  30.473  12.631
72798W        W44524   1.457   1.347   1.682
72799W        W44525  28.675  41.842  11.568
72800W        W44526  33.726  37.433   1.867
72801W        W44527   9.322  33.667  11.212
72802W        W44528  13.854  24.776   1.312
72803W        W44529   2.730   7.151   0.256
72804W        W44530   5.692  19.599   2.211
72805W        W44531  28.003   1.250  12.512
72806W        W44532   7.320  44.032  11.635
72807W        W44533  19.488  26.135   4.350
72808W        W44534  15.370   1.269   1.753
72809W        W44535  37.880   5.043  12.867
72810W        W44536  42.762  19.388   4.723
72811W        W44537  15.749  15.002  11.145
72812W        W44538   2.944  25.029   1.125
72813W        W44539   2.511   9.397  12.005
72814W        W44540  35.375  31.745  10.485
72815W        W44541  44.887   5.398   1.385
72816W        W44542   7.865  23.981  12.598
72817W        W44543  14.792  40.699   5.077
72818W        W44544  39.457  18.938   3.805
72819W        W44545  25.121  20.618   0.872
72820W        W44546  42.235  24.647   0.910
72821W        W44547  36.619  33.600   3.735
72822W        W44548  43.124  27.493   3.628
72823W        W44549  11.630  21.911   0.958
72824W        W44550   5.691  15.612  11.361
72825W        W44551   4.391   0.468   2.383
72826W        W44552  33.912  16.472  11.451
72827W        W44553  40.301  16.281  12.968
72828W        W44554  31.518  39.013  13.933
72829W        W44555  22.102  42.686   1.718
72830W        W44556   9.879  29.871  13.182
72831W        W44557  39.069   5.821  14.433
72832W        W44558  24.908  12.179   1.185
72833W        W44559  43.783   7.259   0.173
72834W        W44560   8.307  42.012  13.060
72835W        W44561  10.965   8.754  11.073
72836W        W44562  34.080   2.823   0.308
72837W        W44563   2.979  43.509   2.198
72838W        W44564  29.595  26.098  14.578
72839W        W44565  31.963   4.621  13.388
72840W        W44566  23.148  31.532   0.828
72841W        W44567  18.169   0.608   4.804
72842W        W44568  23.736  28.166   1.570
72843W        W44569  40.010   9.448  13.781
72844W        W44570   9.284   1.231  11.592
72845W        W44571  10.136  13.933  11.599
72846W        W44572   0.829  10.041   2.516
72847W        W44573  44.493  40.576   1.736
72848W        W44574   0.984   5.612   2.420
72849W        W44575  36.608   8.280   1.978
72850W        W44576  19.922  10.025   4.327
72851W        W44577  27.517  26.842  13.496
72852W        W44578  29.902  37.021  13.796
72853W        W44579  34.607   9.870   0.642
72854W        W44580  36.697  10.003   5.000
72855W        W44581  39.433  40.462  13.054
72856W        W44582  23.524  30.348  14.990
72857W        W44583  44.415   7.245  14.428
72858W        W44584  37.923  12.193   0.784
72859W        W44585   7.248  21.692   1.703
72860W        W44586  42.441   5.305   2.349
72861W        W44587  18.928   5.490  11.933
72862W        W44588  28.958  14.370  12.229
72863W        W44589  34.642  36.388   3.712
72864W        W44590  37.939  35.972  14.751
72865W        W44591  35.590  44.039   1.351
72866W        W44592  11.632  10.671  11.593
72867W        W44593  29.028  43.756  14.148
72868W        W44594  31.196  13.021  12.423
72869W        W44595   1.340  17.495   2.850
72870W        W44596  26.285  26.219  14.931
72871W        W44597  17.013  17.669   2.166
72872W        W44598  38.030  14.130   2.462
72873W        W44599  23.450  18.303   4.669
72874W        W44600   0.000  15.081   3.682
72875W        W44601  30.896  16.845   4.064
72876W        W44602   3.970  39.251   0.060
72877W        W44603  29.873  37.918  13.503
72878W        W44604  32.993  13.062   1.943
72879W        W44605  28.412  42.085   3.312
72880W        W44606  26.467  37.295   3.664
72881W        W44607   6.009  34.163  13.720
72882W        W44608  43.550  42.260  11.867
72883W        W44609  12.057   9.645  14.792
72884W        W44610   3.322  30.876   4.691
72885W        W44611  42.569   6.549   2.899
72886W        W44612  11.128   3.216  11.596
72887W        W44613   4.089  14.557   2.142
72888W        W44614   8.970  10.640   2.005
72889W        W44615  17.272  39.887  13.408
72890W        W44616  14.652  18.998  12.501
72891W        W44617  30.611   5.674   1.611
72892W        W44618   7.172   3.374  10.768
72893W        W44619  34.893  23.191  12.011
72894W        W44620  41.463  20.137  11.873
72895W        W44621  40.031  14.713  13.966
72896W        W44622   8.235  27.445   0.328
72897W        W44623  32.994  30.889   2.412
72898W        W44624   3.413  34.688  10.409
72899W        W44625   6.960   4.098  12.310
72900W        W44626   8.758  28.554   3.656
72901W        W44627   6.997  30.616  12.572
72902W        W44628   0.267   1.403  14.491
72903W        W44629   2.848  23.504   1.318
72904W        W44630  32.455  26.004  13.773
72905W        W44631  32.447  36.890  11.132
72906W        W44632   3.685  15.978  14.013
72907W        W44633  19.507  39.763   1.321
72908W        W44634   3.656  18.135   0.403
72909W        W44635  36.931  10.812   1.910
72910W        W44636   1.473  17.146   3.199
72911W        W44637  26.725  40.994   5.105
72912W        W44638   9.330   5.883  13.412
72913W        W44639  13.236  33.336  13.883
72914W        W44640   3.731   9.051   3.228
72915W        W44641  35.124  40.054   0.340
72916W        W44642   5.298  19.219   0.759
72917W        W44643  17.301  22.558  13.460
72918W        W44644  24.286   0.778  11.076
72919W        W44645  29.576  44.795  10.402
72920W        W44646  20.521  24.679   3.768
72921W        W44647  44.770   3.022  14.391
72922W        W44648   8.677  31.511  11.528
72923W        W44649  34.038   1.009  13.345
72924W        W44650   2.691  38.664   2.699
72925W        W44651  11.435  25.183   0.087
72926W        W44652  31.883  42.948   4.541
72927W        W44653  40.599  24.174   3.202
72928W        W44654  22.947  23.684   4.258
72929W        W44655  13.344   4.752   1.770
72930W        W44656  13.631  36.557   1.349
72931W        W44657  25.163  43.427  13.889
72932W        W44658  25.609  36.531   3.858
72933W        W44659   0.386   0.341  13.415
72934W        W44660  17.368  35.987   0.457
72935W        W44661  14.299   8.767   1.023
72936W        W44662  22.108   6.576  13.102
72937W        W44663  31.534  12.522   2.435
72938W        W44664  39.618  23.596   1.824
72939W        W44665   6.029   1.311   2.759
72940W        W44666   2.795  29.391  12.030
72941W        W44667   0.272  10.632  10.743
72942W        W44668  14.142   5.373  14.367
72943W        W44669  26.190  33.039   2.614
72944W        W44670  39.337  16.992   2.838
72945W        W44671  39.785   5.871   1.800
72946W        W44672   7.049  39.093  11.040
72947W        W44673  23.710   2.002  12.517
72948W        W44674  17.717  26.174  12.339
72949W        W44675  23.676  22.313  10.712
72950W        W44676   3.873   8.116  12.648
72951W        W44677  43.526  28.182   2.887
72952W        W44678  15.640  38.309  13.587
72953W        W44679  10.241  21.007  14.336
72954W        W44680  36.597  37.453   1.461
72955W        W44681  40.910  16.404   3.731
72956W        W44682   4.769   2.693   0.261
72957W        W44683  40.594  13.509  13.010
72958W        W44684  22.790  28.721   0.872
72959W        W44685  11.086  17.504   3.269
72960W        W44686   1.223  39.111   3.161
72961W        W44687  13.811  21.306   4.265
72962W        W44688   1.844   2.699  13.825
72963W        W44689  27.738  43.014  13.942
72964W        W44690  41.938   6.222   0.710
72965W        W44691  44.292  39.761   4.686
72966W        W44692  15.134  12.104   4.587
72967W        W44693  25.991  43.026   0.325
72968W        W44694  25.663   9.020   4.526
72969W        W44695  18.735  32.331  11.452
72970W        W44696  11.622  27.509   0.390
72971W        W44697   0.494  21.211   2.712
72972W        W44698  11.249   9.300  11.876
72973W        W44699  17.516  21.378   3.726
72974W        W44700  19.212  23.041   3.630
72975W        W44701   1.445  21.041  13.402
72976W        W44702  19.912  33.351   0.796
72977W        W44703   7.831  43.220   0.467
72978W        W44704   3.758   9.509   0.895
72979W        W44705  34.525  11.915  12.905
72980W        W44706  15.282  44.355  12.855
72981W        W44707  27.526  18.750   2.370
72982W        W44708   3.362   3.403  13.798
72983W        W44709  13.099  26.270  14.472
72984W        W44710  27.179  22.987  14.459
72985W        W44711  23.294  32.500  13.288
72986W        W44712   0.901  33.014   2.226
72987W        W44713  35.578  35.401  10.611
72988W        W44714  11.873  20.060  12.498
72989W        W44715  29.601  18.793  11.957
72990W        W44716  30.732  11.202  10.858
72991W        W44717   0.728  29.397  10.932
72992W        W44718  10.966  37.300   1.294
72993W        W44719  29.204   4.636   4.595
72994W        W44720  44.302  10.404  11.643
72995W        W44721  34.823  33.892   3.206
72996W        W44722  39.400  10.481  14.459
72997W        W44723  44.337  20.166   4.043
72998W        W44724  43.502   3.347   3.709
72999W        W44725   4.874  35.885  12.131
73000W        W44726  35.648  32.172   2.137
73001W        W44727  14.862  37.985   4.976
73002W        W44728   4.890  22.216   4.433
73003W        W44729   5.193  36.538  13.903
73004W        W44730  43.269   1.711  10.272
73005W        W44731  18.784  18.053   2.614
73006W        W44732   2.414  35.163  13.947
73007W        W44733  16.705  38.175   2.919
73008W        W44734   1.984  39.214  12.433
73009W        W44735  15.269  16.510   2.150
73010W        W44736  22.299  31.619   0.567
73011W        W44737  24.024   4.457  11.569
73012W        W44738   2.752   8.452  12.007
73013W        W44739   1.997  33.969   1.749
73014W        W44740   8.774  40.908   3.925
73015W        W44741  11.166   0.824   4.306
73016W        W44742   4.502  14.554  13.464
73017W        W44743  12.250  21.143   4.517
73018W        W44744  41.951  16.619  13.497
73019W        W44745  23.763  24.614   1.125
73020W        W44746  43.873  16.783  13.437
73021W        W44747  42.785  23.918  13.647
73022W        W44748   2.733  32.314  11.667
73023W        W44749  20.123  27.992  13.564
73024W        W44750  18.066  38.709   3.143
73025W        W44751   5.713  40.980   0.974
73026W        W44752  43.622  35.541  11.173
73027W        W44753  30.754  33.833  14.946
73028W        W44754  22.157  16.850   0.751
73029W        W44755  23.752  16.824  13.964
73030W        W44756  40.547  31.115   4.629
73031W        W44757  40.210   0.813   4.576
73032W        W44758  13.169  19.335  11.109
73033W        W44759  34.753  33.492   1.263
73034W        W44760  36.927  34.192   1.842
73035W        W44761  42.811  25.963   0.700
73036W        W44762   3.734  41.026   2.116
73037W        W44763  39.294  42.326  13.960
73038W        W44764  31.389   3.308   4.688
73039W        W44765  19.658  20.208   3.409
73040W        W44766  36.894  44.475  14.862
73041W        W44767  39.868   4.494   3.725
73042W        W44768   4.500  28.438   2.565
73043W        W44769  23.519   0.273   5.189
73044W        W44770  42.365  26.954   1.362
73045W        W44771   1.912  40.550   2.324
73046W        W44772  11.527  23.475   3.595
73047W        W44773  35.985  22.594  14.557
73048W        W44774  42.334   0.441   0.298
73049W        W44775  40.232  31.926  13.965
73050W        W44776  17.368   4.019  12.501
73051W        W44777  29.948  40.852  13.562
73052W        W44778  25.132  10.920   0.942
73053W        W44779   2.673  25.649   3.191
73054W        W44780  41.804  31.689  14.443
73055W        W44781  39.917  39.530  12.908
73056W        W44782  43.513  40.872   0.399
73057W        W44783  30.342  27.994   1.406
73058W        W44784  38.548  17.572  13.051
73059W        W44785   3.820  33.567   3.686
73060W        W44786  23.435  11.683  14.261
73061W        W44787   2.483   1.526  12.387
73062W        W44788  14.286  43.218  14.933
73063W        W44789  38.455  15.723   1.407
73064W        W44790  37.813  34.449   0.844
73065W        W44791   6.189  12.134   3.623
73066W        W44792  20.345  39.522  12.934
73067W        W44793   6.054   5.986  14.479
73068W        W44794  33.468   8.308   2.323
73069W        W44795  21.591   7.497   0.290
73070W        W44796  35.140   6.236  11.093
73071W        W44797  15.380  29.999   4.108
73072W        W44798   8.672  33.417   4.678
73073W        W44799  11.335  43.812  10.574
73074W        W44800  12.177  25.887   0.257
73075W        W44801  43.196   0.342   1.422
73076W        W44802  37.768  24.767   0.885
73077W        W44803   9.091   2.273   5.070
73078W        W44804  24.221  23.734  11.095
73079W        W44805  14.214  43.959  11.440
73080W        W44806  35.187  39.465  13.943
73081W        W44807   1.714  43.901   3.918
73082W        W44808  25.103  30.684   2.447
73083W        W44809  24.693  25.278  13.140
73084W        W44810  12.927  14.289  14.278
73085W        W44811  17.804  17.593  14.428
73086W        W44812  23.976   2.492  11.595
73087W        W44813  38.211  36.652  12.476
73088W        W44814  29.021  38.032  14.311
73089W        W44815  22.102  44.877   0.568
73090W        W44816   3.221  22.483   4.568
73091W        W44817  15.216  22.786   3.156
73092W        W44818   7.882  34.114  13.061
73093W        W44819  10.063  30.523  14.925
73094W        W44820  35.884  31.543  14.479
73095W        W44821   1.014  43.450  11.996
73096W        W44822  24.503  34.930   4.833
73097W        W44823  36.625   7.221  11.707
73098W        W44824   9.187  28.421  10.726
73099W        W44825   9.484   3.793  14.274
73100W        W44826  18.823  11.889   0.392
73101W        W44827   6.707  32.189  10.010
73102W        W44828  21.950  15.596   2.524
73103W        W44829  43.024   9.965  14.451
73104W        W44830  25.121  17.836  12.497
73105W        W44831  12.534  44.360  11.157
73106W        W44832  32.655   1.933   0.287
73107W        W44833   8.457  35.509   4.154
73108W        W44834  13.045  26.166   4.535
73109W        W44835  36.944  11.780  13.052
73110W        W44836  44.527   3.432   2.368
73111W        W44837  11.202  42.950   4.354
73112W        W44838  33.474  29.373   1.818
73113W        W44839  28.484  41.013   0.261
73114W        W44840  12.831  34.550  13.949
73115W        W44841   4.400  14.575  11.897
73116W        W44842  10.356  16.832   0.744
73117W        W44843  35.487   4.320   2.698
73118W        W44844  24.183  20.771   4.916
73119W        W44845  42.341  36.516   4.234
73120W        W44846  43.901  32.969  13.473
73121W        W44847  10.930  39.704  13.954
73122W        W44848  20.268  20.120  12.074
73123W        W44849  44.465  28.559  12.667
73124W        W44850  30.496  29.989   1.370
73125W        W44851   1.438  10.762  14.743
73126W        W44852  28.898  11.153   1.290
73127W        W44853   9.807  31.300  12.737
73128W        W44854  44.451   5.953   1.938
73129W        W44855   3.752  12.255   4.613
73130W        W44856  41.024  31.355   3.800
73131W        W44857   5.893  40.971   4.337
73132W        W44858  10.402  36.911  11.451
73133W        W44859   6.392  39.083  10.163
73134W        W44860  22.088  20.231  11.000
73135W        W44861  39.634   9.325   2.771
73136W        W44862   3.294  18.151   4.829
73137W        W44863  13.821  23.227  13.971
73138W        W44864  25.499  31.607   2.966
73139W        W44865  14.194  21.273   5.157
73140W        W44866  22.229  11.899  13.890
73141W        W44867  42.144   7.858   3.640
73142W        W44868  38.509  43.788  10.580
73143W        W44869  24.187  42.443  11.725
73144W        W44870  32.494  38.904   0.752
73145W        W44871   4.859  43.389   1.318
73146W        W44872  40.811  33.491  13.570
73147W        W44873  27.662  29.546  13.742
73148W        W44874   1.712  16.318  11.635
73149W        W44875  30.485  35.931   3.735
73150W        W44876  32.149  39.168  12.899
73151W        W44877  38.547  38.420   4.909
73152W        W44878  12.069  36.546   3.216
73153W        W44879  30.456   6.486   2.316
73154W        W44880   9.168  35.551   0.750
73155W        W44881  37.396  16.139  12.973
73156W        W44882  42.475  42.511  12.030
73157W        W44883  37.150  25.965   2.746
73158W        W44884  16.354   5.905  10.860
73159W        W44885  33.923  14.068   0.732
73160W        W44886  14.576  24.689  14.988
73161W        W44887  40.304  11.669   3.236
73162W        W44888  43.990  24.973   4.068
73163W        W44889  17.258  38.095   4.559
73164W        W44890  27.751   5.396  10.488
73165W        W44891  10.112  24.473  13.348
73166W        W44892   2.179  42.064  13.402
73167W        W44893  32.476   6.235  11.534
73168W        W44894   3.799  16.939   1.485
73169W        W44895  19.062  26.169  11.192
73170W        W44896   7.710  14.284  10.682
73171W        W44897  37.553  27.890  12.832
73172W        W44898   1.939  19.291  11.663
73173W        W44899   1.278  39.825  11.962
73174W        W44900  42.923  12.231   0.694
73175W        W44901  12.440  14.242   2.124
73176W        W44902   3.915  23.204  12.150
73177W        W44903   8.766  32.378  11.344
73178W        W44904  10.231  12.160   4.550
73179W        W44905  12.264   6.960   1.870
73180W        W44906  10.829  29.743  12.095
73181W        W44907  24.881  29.901   3.122
73182W        W44908  12.956  41.673   1.832
73183W        W44909  12.607  34.860   1.443
73184W        W44910  25.193  17.764  11.175
73185W        W44911  29.709  29.410  10.642
73186W        W44912  15.348  24.166  14.849
73187W        W44913  33.974  15.613   3.684
73188W        W44914   7.115  42.329  12.709
73189W        W44915  17.464  19.673  14.830
73190W        W44916  12.849  35.109   4.823
73191W        W44917   6.228  38.039   1.364
73192W        W44918   8.096  19.556   1.965
73193W        W44919  29.185  22.774  12.399
73194W        W44920  38.341  37.185   3.648
73195W        W44921  14.582  11.233  13.965
73196W        W44922  33.578   4.909  12.190
73197W        W44923  37.043   3.302   0.973
73198W        W44924  14.060   7.923   3.734
73199W        W44925  31.956   5.203  10.633
73200W        W44926   4.999  33.756   5.044
73201W        W44927  19.055  20.006   0.402
73202W        W44928   9.381  24.792  14.018
73203W        W44929  10.090  25.167   0.948
73204W        W44930  30.994  19.527   0.749
73205W        W44931  30.372   9.076   4.181
73206W        W44932  44.463  27.149   0.776
73207W        W44933  22.308  17.381  13.993
73208W        W44934  17.764  32.845   4.359
73209W        W44935  12.432  43.111  10.479
73210W        W44936  21.719  44.099   4.088
73211W        W44937  25.263   2.369  12.102
73212W        W44938  33.668  17.801   4.670
73213W        W44939  41.917  40.966  13.386
73214W        W44940  18.343  38.178  12.865
73215W        W44941  17.768  26.575  11.607
73216W        W44942  27.463  20.574   2.956
73217W        W44943  29.407   8.177  14.275
73218W        W44944  40.195  39.821   1.774
73219W        W44945  37.600  17.366  14.902
73220W        W44946  29.035   0.302  11.188
73221W        W44947  25.565  29.240   0.698
73222W        W44948  20.647   9.319   0.331
73223W        W44949  21.095  29.693   2.771
73224W        W44950  39.401  38.580   0.242
73225W        W44951  17.329  31.585  14.997
73226W        W44952  14.203   1.403  11.361
73227W        W44953   7.907  10.884  12.282
73228W        W44954  41.117  36.420   3.784
73229W        W44955   2.691  35.396   2.911
73230W        W44956  16.958  36.284   0.377
73231W        W44957  29.516  23.863   5.085
73232W        W44958  29.620  17.970  11.657
73233W        W44959  15.661  38.133  11.098
73234W        W44960   8.195   6.909   1.890
73235W        W44961  39.988   5.546   1.445
73236W        W44962  34.059  34.318  14.531
73237W        W44963  31.832   1.669   1.317
73238W        W44964  37.515  32.031  10.774
73239W        W44965  42.238   5.044   2.910
73240W        W44966  24.049  29.065   3.413
73241W        W44967  22.074  29.547   3.267
73242W        W44968  20.525   6.812  13.921
73243W        W44969  13.717  34.694  14.542
73244W        W44970  17.792  13.896   0.284
73245W        W44971  41.352  43.793  14.649
73246W        W44972  36.996  21.755  13.554
73247W        W44973  26.452  37.093   0.458
73248W        W44974   9.891   8.191  10.614
73249W        W44975  23.015  12.862  11.955
73250W        W44976  29.109  20.572  10.677
73251W        W44977  40.486   1.369  12.147
73252W        W44978   8.332   2.496  14.500
73253W        W44979  30.399  18.125  14.880
73254W        W44980   3.784  27.912   1.292
73255W        W44981   0.237  38.565  14.813
73256W        W44982  36.410   8.354   2.827
73257W        W44983  14.272  31.645  12.126
73258W        W44984  40.339  28.116   0.650
73259W        W44985   8.810  12.119  10.583
73260W        W44986   9.254  43.818   3.286
73261W        W44987  31.146  31.046  10.769
73262W        W44988  43.043  20.018   0.702
73263W        W44989  32.461  40.555  12.099
73264W        W44990  21.562  43.425  12.826
73265W        W44991  33.234  19.336  11.512
73266W        W44992  38.782  37.296   4.080
73267W        W44993  35.364  36.778  14.227
73268W        W44994  23.660  33.902   0.523
73269W        W44995  32.985   3.788  12.101
73270W        W44996  18.723  22.029   1.900
73271W        W44997  10.078   1.270   0.037
73272W        W44998   6.168  26.504  11.415
73273W        W44999  42.839  11.077  10.221
73274W        W45000  12.736  33.643   3.596
73275W        W45001  42.807  10.720  13.368
73276W        W45002   5.411  40.826   2.233
73277W        W45003  37.830  37.454  14.118
73278W        W45004  15.001  30.246  13.580
73279W        W45005  21.210  41.819  14.869
73280W        W45006  44.791  40.392  13.908
73281W        W45007   4.991  41.616  11.486
73282W        W45008  12.628  30.933   4.402
73283W        W45009   8.407  43.904   1.770
73284W        W45010   0.333  29.597   4.405
73285W        W45011  31.382  21.203   2.347
73286W        W45012   2.829   2.837   1.771
73287W        W45013  32.988   0.423  11.315
73288W        W45014  37.968  14.273   4.294
73289W        W45015  41.309   6.364   4.684
73290W        W45016  28.419   9.821  13.816
73291W        W45017  15.738  34.022  14.410
73292W        W45018  19.066   3.197  13.921
73293W        W45019  22.582  15.291  13.907
73294W        W45020  35.042  37.027  13.796
73295W        W45021  43.780  36.982  14.299
73296W        W45022  28.636  15.078  13.393
73297W        W45023  38.112  26.674   0.434
73298W        W45024  27.168  25.706   2.354
73299W        W45025  32.007  40.987   0.302
73300W        W45026  42.228   0.899   4.624
73301W        W45027  13.297   5.923  14.771
73302W        W45028   5.271  27.792  14.761
73303W        W45029  23.752  23.172  10.732
73304W        W45030  25.609  25.081   3.700
73305W        W45031  22.531  17.185  12.477
73306W        W45032   1.758  35.289   4.658
73307W        W45033   7.984  10.308   3.992
73308W        W45034  41.823  19.826  11.225
73309W        W45035  14.741  17.545  10.454
73310W        W45036  38.527  29.940   3.043
73311W        W45037   3.241  28.248  12.397
73312W        W45038  28.392  39.009  12.524
73313W        W45039   0.728  22.797  13.061
73314W        W45040  36.975  17.399   3.300
73315W        W45041   6.356  14.611   2.480
73316W        W45042  38.572   4.723   1.961
73317W        W45043  16.031   2.542   4.804
73318W        W45044   9.008  18.241  12.976
73319W        W45045   7.897  44.042  12.976
73320W        W45046  12.321  21.673   4.605
73321W        W45047  32.861  32.242  11.132
73322W        W45048  17.934  41.722  10.894
73323W        W45049  14.271  11.877  13.844
73324W        W45050  10.618  31.396   0.904
73325W        W45051  33.927  27.382  11.148
73326W        W45052   5.224   3.458   4.080
73327W        W45053  42.382  21.072   5.036
73328W        W45054  33.835  37.832   4.343
73329W        W45055   0.748  24.867   2.705
73330W        W45056  18.476  13.905   4.744
73331W        W45057  18.773   3.408   0.809
73332W        W45058  26.124  19.113   2.202
73333W        W45059  37.310  43.401   0.473
73334W        W45060   0.502  30.470   2.436
73335W        W45061   7.105  37.793   1.893
73336W        W45062  41.107  37.581   1.874
73337W        W45063  43.068   3.811  13.249
73338W        W45064  22.411  36.400  11.701
73339W        W45065   9.818  33.928   3.678
73340W        W45066  37.535   8.389   2.048
73341W        W45067  34.552  24.255  12.815
73342W        W45068  38.845   4.283  12.465
73343W        W45069  42.407  37.487  10.657
73344W        W45070  11.655  14.376   4.642
73345W        W45071  12.804  26.632  13.678
73346W        W45072  34.441   6.672  11.989
73347W        W45073  22.472  29.987  13.522
73348W        W45074  25.066   9.793   4.248
73349W        W45075  13.814  12.332  11.547
73350W        W45076  18.574  27.546  13.862
73351W        W45077   2.350   5.918  11.477
73352W        W45078   5.357  28.202   4.136
73353W        W45079  39.978   0.317   0.391
73354W        W45080  36.613  22.993  11.569
73355W        W45081   4.717  32.357   1.292
73356W        W45082   2.267   1.178  12.025
73357W        W45083   5.713  27.302   2.858
73358W        W45084  40.797  28.442  11.288
73359W        W45085  26.551  36.385   4.387
73360W        W45086   2.778  40.762  14.407
73361W        W45087  16.878  43.743  13.518
73362W        W45088  26.368  42.387   3.378
73363W        W45089  19.602  19.036   0.892
73364W        W45090   7.576   9.304  11.610
73365W        W45091  39.582  22.283   2.784
73366W        W45092   9.817  33.457  13.996
73367W        W45093  20.313  22.368  14.262
73368W        W45094  43.503  38.033   3.010
73369W        W45095  20.130  28.213  10.952
73370W        W45096  17.100   7.719   3.359
73371W        W45097   5.834  34.557  14.949
73372W        W45098  40.495  25.553   0.411
73373W        W45099  44.702   8.441   1.265
73374W        W45100  44.075  24.728   0.588
73375W        W45101  14.262  15.840  14.268
73376W        W45102  36.433   0.508   0.992
73377W        W45103  10.114   1.852   0.858
73378W        W45104  44.428  42.558   2.624
73379W        W45105  18.214  26.710   1.435
73380W        W45106  26.210  35.006  10.938
73381W        W45107  42.594  10.248   0.995
73382W        W45108  22.239  24.325   1.298
73383W        W45109  23.448  31.823   2.257
73384W        W45110  38.632  25.046   5.005
73385W        W45111  36.152  20.505  14.371
73386W        W45112   8.972  41.437   3.693
73387W        W45113  22.379  36.525   4.995
73388W        W45114   7.626   3.795   0.939
73389W        W45115   5.373  16.779  10.624
73390W        W45116   3.640  14.705   1.188
73391W        W45117  33.167   1.838   0.269
73392W        W45118   0.860  22.891   4.506
73393W        W45119  19.037  22.965   2.162
73394W        W45120   5.647  14.278  14.062
73395W        W45121  43.268  37.853   4.851
73396W        W45122  44.455  11.782  11.592
73397W        W45123  36.371  16.753   1.795
73398W        W45124   4.252  37.462  12.393
73399W        W45125  30.997   1.474   2.403
73400W        W45126  14.908  44.790  12.914
73401W        W45127  43.901  42.402   1.248
73402W        W45128  33.595  15.476   5.188
73403W        W45129   2.408  16.658  13.461
73404W        W45130  19.976  35.324   2.758
73405W        W45131   2.873  42.845   4.151
73406W        W45132  33.688  19.987   1.714
73407W        W45133  19.175  20.229   3.625
73408W        W45134  30.891  22.812  13.050
73409W        W45135  15.514  24.168  13.512
73410W        W45136  39.370  11.954   3.419
73411W        W45137  27.582   1.479   0.335
73412W        W45138  23.615  14.684  13.280
73413W        W45139   7.278   4.332   3.318
73414W        W45140  28.549   5.891  10.827
73415W        W45141  36.490  12.010   2.651
73416W        W45142   4.175  24.697   4.033
73417W        W45143  14.803  34.859   2.012
73418W        W45144  19.662  22.523  11.704
73419W        W45145  33.391  13.605  13.340
73420W        W45146  31.974  26.709  14.032
73421W        W45147  43.002  30.740   3.869
73422W        W45148  33.942  33.328  11.890
73423W        W45149  41.312  23.935   1.272
73424W        W45150  13.013   4.646   0.162
73425W        W45151  30.082   4.007  10.910
73426W        W45152  42.041  24.592   4.630
73427W        W45153   3.903   9.173  14.964
73428W        W45154  38.502  28.189   3.101
73429W        W45155  27.976  41.251   0.481
73430W        W45156  21.530  11.943  11.764
73431W        W45157  43.574  10.305  12.135
73432W        W45158   0.245  38.942  10.367
73433W        W45159   9.717  15.987  14.068
73434W        W45160  36.432  39.550   4.343
73435W        W45161  20.565   7.791  10.551
73436W        W45162  26.443  10.087   4.617
73437W        W45163  28.714  18.863  11.392
73438W        W45164  13.133  32.990  10.722
73439W        W45165  41.777  44.680  14.357
73440W        W45166  17.979  17.584   1.090
73441W        W45167   3.873   4.340   2.382
73442W        W45168  24.321  44.562   2.345
73443W        W45169  40.415   6.908   2.876
73444W        W45170  23.666   9.631  10.969
73445W        W45171   4.485   8.762  13.172
73446W        W45172  29.950  43.976   4.350
73447W        W45173  43.393  27.751  12.299
73448W        W45174  40.583  26.501  13.730
73449W        W45175  40.792  40.620   4.573
73450W        W45176  43.310  25.980  11.500
73451W        W45177  17.180  40.858  12.067
73452W        W45178  17.803  22.681  13.461
73453W        W45179  25.373  38.958   0.046
73454W        W45180  34.784  21.083   2.682
73455W        W45181   1.725  19.668   0.381
73456W        W45182  26.443  14.178   1.898
73457W        W45183  13.860  42.115   0.831
73458W        W45184  30.865  22.069  13.517
73459W        W45185   3.518  36.919  11.132
73460W        W45186  23.069  16.415  10.910
73461W        W45187   7.176  26.096   3.390
73462W        W45188  16.250   1.423  11.610
73463W        W45189   4.782  14.843   4.553
73464W        W45190  19.560  21.002   2.233
73465W        W45191  23.678  22.953   1.383
73466W        W45192  38.122  25.011  13.205
73467W        W45193  22.195  22.587   4.690
73468W        W45194  18.879  19.492  12.872
73469W        W45195  25.937  20.067   1.892
73470W        W45196  21.687  20.281   1.844
73471W        W45197  33.920  39.888   1.827
73472W        W45198   5.300  16.594   4.994
73473W        W45199  27.780  36.044  12.896
73474W        W45200   1.424  38.061  10.647
73475W        W45201   6.871  43.114   3.136
73476W        W45202  15.593  22.652  11.496
73477W        W45203   9.776  35.131   2.335
73478W        W45204  24.066  44.831  10.199
73479W        W45205  32.139  14.835   1.921
73480W        W45206   5.453  31.404   3.314
73481W        W45207   6.318  34.003   4.708
73482W        W45208  19.992  30.968  14.055
73483W        W45209  25.493  40.901   3.079
73484W        W45210  35.374   0.725  12.599
73485W        W45211  30.501  27.951  12.470
73486W        W45212   7.316   6.547  14.082
73487W        W45213   7.422  33.875   3.805
73488W        W45214  11.893   4.888   3.090
73489W        W45215  42.860   3.008  12.865
73490W        W45216   0.326  17.675  14.035
73491W        W45217  10.672  28.984  12.470
73492W        W45218  30.895  23.760  10.199
73493W        W45219  42.553  27.485   1.333
73494W        W45220  36.316  35.958  13.528
73495W        W45221   0.205  32.309   3.706
73496W        W45222   0.257  11.214   0.890
73497W        W45223  37.393   1.052   2.892
73498W        W45224  16.758  20.678  12.953
73499W        W45225  37.389  41.758  10.706
73500W        W45226  13.051  34.227  13.259
73501W        W45227  14.231  27.189  13.406
73502W        W45228  15.201  17.264   3.097
73503W        W45229  20.123  11.023  11.258
73504W        W45230  10.181  23.633   0.337
73505W        W45231  31.487  34.584  10.502
73506W        W45232  33.131   6.305   0.666
73507W        W45233  27.007   1.976  11.018
73508W        W45234  38.592   1.775  13.450
73509W        W45235  29.908   2.141   3.582
73510W        W45236  34.718  43.358  14.921
73511W        W45237  13.367  27.686  13.590
73512W        W45238  33.673  37.840  14.853
73513W        W45239  24.523   7.697  12.692
73514W        W45240  23.038  14.502   2.248
73515W        W45241  27.680  27.439   3.823
73516W        W45242   8.394  31.572   1.992
73517W        W45243  32.821  16.351   1.736
73518W        W45244  34.276  30.775  10.706
73519W        W45245   8.255  19.300  12.855
73520W        W45246   6.355  29.419  12.391
73521W        W45247  40.593  26.981   4.404
73522W        W45248  18.560   4.459   4.563
73523W        W45249  23.552  28.075  11.133
73524W        W45250   0.043   2.869   1.833
73525W        W45251  12.714  12.128   2.796
73526W        W45252  39.859   4.239   4.200
73527W        W45253  21.021   7.923  12.453
73528W        W45254  19.113  28.265  12.998
73529W        W45255  39.872  40.011  13.585
73530W        W45256  28.273  29.655   1.829
73531W        W45257  17.237  43.353   1.551
73532W        W45258   8.479   9.913   2.144
73533W        W45259  11.628   8.364   2.509
73534W        W45260  34.936   1.916   5.126
73535W        W45261  43.814  37.335   4.272
73536W        W45262  32.147  29.673   3.648
73537W        W45263  10.763   2.910   0.501
73538W        W45264  35.524  30.239  13.848
73539W        W45265  10.400  23.072   3.287
73540W        W45266  42.586  44.973  14.010
73541W        W45267  40.448  15.135   2.342
73542W        W45268  36.208  42.764  10.584
73543W        W45269  28.125  30.758   0.927
73544W        W45270  35.505   1.730  12.512
73545W        W45271   0.732  20.810   0.693
73546W        W45272   9.694   1.542   0.773
73547W        W45273  15.671   0.544  12.495
73548W        W45274  40.440  10.217  11.112
73549W        W45275  14.958   1.769   5.015
73550W        W45276  15.710   0.763  10.716
73551W        W45277   9.578  12.869   1.276
73552W        W45278  32.490  12.670  14.995
73553W        W45279  40.436   9.102   2.270
73554W        W45280  30.101   5.763  13.847
73555W        W45281   4.626  29.476  13.879
73556W        W45282   7.803   9.589  11.995
73557W        W45283  32.937  37.440   1.454
73558W        W45284  15.768  37.643  14.485
73559W        W45285  32.651  28.091  10.693
73560W        W45286  40.096  12.328  11.393
73561W        W45287   0.584  33.591   0.233
73562W        W45288  40.502  24.585  11.465
73563W        W45289  14.318  40.726   1.808
73564W        W45290  38.261   9.254  14.463
73565W        W45291  33.422  27.511  13.865
73566W        W45292  33.698  23.984   4.632
73567W        W45293   0.118  20.681   1.972
73568W        W45294  38.087   3.237  13.388
73569W        W45295  11.881   3.423  14.497
73570W        W45296  33.056  16.557  14.609
73571W        W45297  37.916  36.559  12.013
73572W        W45298  25.207  36.805   4.706
73573W        W45299  22.220  44.774  14.498
73574W        W45300   5.620   0.079  11.598
73575W        W45301  12.537  15.159  13.495
73576W        W45302  38.765   3.290  13.785
73577W        W45303   4.297  36.802  13.610
73578W        W45304  18.594  11.855   2.216
73579W        W45305  16.848  40.357  13.491
73580W        W45306   2.436  39.610   2.029
73581W        W45307   7.230  21.595   4.778
73582W        W45308  40.502  40.000   4.100
73583W        W45309   4.296  22.809   2.396
73584W        W45310  25.897  43.275  11.493
73585W        W45311   4.020  11.739  10.454
73586W        W45312  35.320  36.130  10.691
73587W        W45313  35.175  28.172   1.355
73588W        W45314  41.405  12.770  14.747
73589W        W45315  32.665  32.896  14.170
73590W        W45316   0.689   3.529   0.483
73591W        W45317  27.904  10.676   0.296
73592W        W45318  31.176  29.232  14.469
73593W        W45319  40.620  18.161   5.091
73594W        W45320  31.126  27.907  10.649
73595W        W45321   1.065  25.552  11.592
73596W        W45322  28.497  16.550   3.326
73597W        W45323  25.269  42.317   1.989
73598W        W45324   3.214   3.323  12.266
73599W        W45325  34.094  30.539  11.123
73600W        W45326  31.366  20.284   3.470
73601W        W45327  32.025  21.676   2.137
73602W        W45328  28.151   7.453   3.218
73603W        W45329   4.852  39.452   3.585
73604W        W45330   1.503  19.567   4.488
73605W        W45331   3.739  44.430  10.387
73606W        W45332  21.513  40.413  10.687
73607W        W45333  35.333  17.282   1.254
73608W        W45334  31.688  16.720  11.941
73609W        W45335  40.947  13.742   0.691
73610W        W45336  22.205  30.673   2.249
73611W        W45337  14.280  25.040  13.768
73612W        W45338  19.815   1.338  14.467
73613W        W45339   9.469  42.754   1.483
73614W        W45340  25.944  31.109   3.795
73615W        W45341  12.315   9.248   3.670
73616W        W45342  29.000  40.088   4.410
73617W        W45343   5.717  23.017  11.533
73618W        W45344  41.747  26.704  14.452
73619W        W45345   3.327  19.832  11.465
73620W        W45346   1.754  40.019  14.033
73621W        W45347  40.507  14.775  14.269
73622W        W45348   7.916   4.428  13.176
73623W        W45349   0.856  10.876  11.551
73624W        W45350  29.883  24.683  10.246
73625W        W45351  44.314   6.615   3.222
73626W        W45352   0.022   6.674   2.061
73627W        W45353  33.964  36.052  11.485
73628W        W45354  31.439  21.675   4.650
73629W        W45355   7.283  36.907   4.720
73630W        W45356  19.294  10.295   2.818
73631W        W45357  17.137  35.155  10.749
73632W        W45358  19.891  32.761   2.406
73633W        W45359  33.664  19.038   1.019
73634W        W45360  44.754  18.300  12.076
73635W        W45361  26.479  33.633   0.169
73636W        W45362  14.109  10.966  11.433
73637W        W45363  41.546  12.856  10.843
73638W        W45364  42.048  26.147   3.161
73639W        W45365  36.852  35.338   4.143
73640W        W45366   9.937  20.144  14.490
73641W        W45367  27.066   4.398   3.347
73642W        W45368   0.967   7.143   1.653
73643W        W45369  28.145  12.299  10.527
73644W        W45370  34.933  28.700   2.681
73645W        W45371  38.035  29.975   2.906
73646W        W45372  44.430  20.250   0.318
73647W        W45373  35.611  37.495  10.522
73648W        W45374  14.597  18.085   3.723
73649W        W45375  25.533  32.498  11.642
73650W        W45376  29.576  19.020  12.413
73651W        W45377  39.189   8.086  13.016
73652W        W45378  30.613  20.170  10.700
73653W        W45379  33.701  30.729   1.311
73654W        W45380   8.580  11.581   3.381
73655W        W45381   1.750   6.676  10.759
73656W        W45382  38.330  34.419  12.065
73657W        W45383  13.313  34.605   4.241
73658W        W45384  42.363  28.171   2.826
73659W        W45385  16.156  10.733  12.354
73660W        W45386   2.031  14.875   0.428
73661W        W45387  39.494   3.743  11.573
73662W        W45388   3.342  39.412  12.565
73663W        W45389  28.611   8.748   0.066
73664W        W45390  29.996  20.570   2.317
73665W        W45391   1.812  39.326   1.739
73666W        W45392  31.573   3.870   3.136
73667W        W45393  23.127   8.965  13.473
73668W        W45394  14.700  29.513   2.429
73669W        W45395  42.942  30.155   4.595
73670W        W45396  30.900  14.821   0.105
73671W        W45397  18.069  15.986   0.318
73672W        W45398  27.582  41.471   2.210
73673W        W45399   8.704  28.298  14.744
73674W        W45400   6.460  26.922  11.571
73675W        W45401  17.002  10.025  12.850
73676W        W45402   5.217   8.386   4.674
73677W        W45403  26.684   7.884  14.909
73678W        W45404  11.781   6.399   1.200
73679W        W45405  10.453   2.526  12.202
73680W        W45406   3.868  44.890  11.149
73681W        W45407   3.277  31.255   1.777
73682W        W45408  10.160  28.203  12.046
73683W        W45409  20.728  33.031   0.853
73684W        W45410  37.273  35.024  11.186
73685W        W45411  13.764  23.632   3.653
73686W        W45412   4.383  19.289  12.342
73687W        W45413  25.641  32.864  12.601
73688W        W45414  38.317  31.582  10.753
73689W        W45415   7.672  40.902  12.948
73690W        W45416   7.753  44.044   3.696
73691W        W45417  43.556  22.039   3.816
73692W        W45418  36.131  13.813  12.483
73693W        W45419  26.893  43.422   3.078
73694W        W45420  25.620  40.196   1.771
73695W        W45421  15.822   9.620  13.503
73696W        W45422   6.857  40.994   0.602
73697W        W45423   3.179  14.301  14.831
73698W        W45424  29.767  35.623  14.182
73699W        W45425  22.105  38.948   0.928
73700W        W45426   6.227  24.390   3.235
73701W        W45427  24.569  13.736  14.910
73702W        W45428  15.611  23.210   2.799
73703W        W45429  30.975  23.197  13.699
73704W        W45430  30.123  21.362  14.023
73705W        W45431   0.395  18.275  12.754
73706W        W45432  33.498   8.322   0.722
73707W        W45433  33.340  36.956   3.488
73708W        W45434  16.976  44.965  14.398
73709W        W45435  43.612  42.327  10.960
73710W        W45436  31.882   5.930   1.900
73711W        W45437   3.266  19.147   2.667
73712W        W45438   7.797  23.998   1.031
73713W        W45439   6.810   4.227   3.120
73714W        W45440  25.545  28.478   4.612
73715W        W45441   1.696  18.301   3.087
73716W        W45442  44.976  43.804  14.387
73717W        W45443  28.093  33.209  14.902
73718W        W45444  44.083  44.941  12.540
73719W        W45445  33.187   4.770   0.358
73720W        W45446  43.078   0.475  10.159
73721W        W45447  14.634   8.379  10.718
73722W        W45448  40.306  28.532  11.130
73723W        W45449  34.444   6.661  13.294
73724W        W45450  18.212  27.786  11.042
73725W        W45451  29.418   5.175   1.266
73726W        W45452  35.051  35.672   0.780
73727W        W45453   2.201  25.182   1.512
73728W        W45454  22.773  32.631  13.440
73729W        W45455  19.105   0.534   4.877
73730W        W45456  11.195  16.789   1.128
73731W        W45457  14.098   3.777  12.673
73732W        W45458  31.506  28.322   1.886
73733W        W45459   2.279  44.555  14.395
73734W        W45460  23.381  10.257  14.358
73735W        W45461  14.844  44.042   3.761
73736W        W45462  18.739  38.685   0.960
73737W        W45463  20.532  40.559   3.266
73738W        W45464  30.796  15.625  13.960
73739W        W45465  25.266   2.514  10.639
73740W        W45466  28.581  22.059   4.767
73741W        W45467  28.633  19.777   2.330
73742W        W45468  27.836  13.164  14.778
73743W        W45469  40.540  33.166  13.294
73744W        W45470  42.903  35.333   0.951
73745W        W45471   1.503  33.443  11.520
73746W        W45472  22.282  23.301  12.581
73747W        W45473  40.994  16.292   1.009
73748W        W45474  14.091   3.152   1.899
73749W        W45475   8.804   5.662   0.732
73750W        W45476  22.832  31.915  11.907
73751W        W45477   1.979  21.944   4.651
73752W        W45478   6.973  40.483   3.643
73753W        W45479  25.624   0.891   2.425
73754W        W45480  15.712  31.106  13.817
73755W        W45481  36.476  37.052   3.209
73756W        W45482  15.713  12.827   0.995
73757W        W45483   2.926  20.240  14.464
73758W        W45484  20.947  25.570   2.198
73759W        W45485   5.307   1.556   0.586
73760W        W45486  10.756  14.229   1.221
73761W        W45487  26.541  25.665   0.768
73762W        W45488   8.060  12.319   0.838
73763W        W45489  33.918  44.907   4.333
73764W        W45490  10.074   4.215   3.348
73765W        W45491   2.200  44.328   2.314
73766W        W45492  41.411  20.176  13.447
73767W        W45493  33.486  39.514  13.104
73768W        W45494  18.788  32.374  14.794
73769W        W45495  42.993  25.403   4.385
73770W        W45496  44.942  19.741   0.062
73771W        W45497  38.950  16.755   0.757
73772W        W45498  24.014  18.715   0.853
73773W        W45499  32.471   5.164   4.114
73774W        W45500  14.832  27.848  10.230
73775W        W45501  21.029   6.653   0.672
73776W        W45502  17.104  40.092  13.858
73777W        W45503  14.354   3.302   4.551
73778W        W45504  17.087   5.666  13.992
73779W        W45505  28.232  13.382   3.461
73780W        W45506  42.346  16.761   4.061
73781W        W45507  20.074  40.823  14.401
73782W        W45508  30.191  18.884   1.508
73783W        W45509  37.784  32.394  11.101
73784W        W45510  27.928  10.748  11.079
73785W        W45511  43.027   5.259   0.786
73786W        W45512  24.733  23.630   1.789
73787W        W45513   0.906  27.431   0.031
73788W        W45514  42.428  16.599   3.557
73789W        W45515  17.347  27.662   2.855
73790W        W45516  18.172  44.952   2.002
73791W        W45517  42.356  27.648   2.920
73792W        W45518  37.372   9.812  14.051
73793W        W45519  16.293  31.895  13.179
73794W        W45520  10.126  36.609  10.204
73795W        W45521   9.099   1.491   4.589
73796W        W45522  32.583  38.389   4.500
73797W        W45523  21.623   2.295  13.848
73798W        W45524   1.949  35.458   0.808
73799W        W45525  11.156  34.571   0.834
73800W        W45526   0.571  30.199  11.117
73801W        W45527  12.361  21.570  13.545
73802W        W45528   1.310  18.189   3.699
73803W        W45529  21.213  43.232  14.039
73804W        W45530   3.539  38.271  11.580
73805W        W45531   4.429   6.280   0.360
73806W        W45532  36.392  28.655  12.473
73807W        W45533  43.328  12.823  12.567
73808W        W45534   9.909  33.985  14.078
73809W        W45535   6.644  15.038   5.447
73810W        W45536  42.931  12.206   2.638
73811W        W45537  32.103  13.238  12.800
73812W        W45538   9.688  40.734   2.990
73813W        W45539   8.345  36.285   1.296
73814W        W45540  22.840  35.653   3.043
73815W        W45541   2.351   7.676   0.018
73816W        W45542  15.567  19.166  13.351
73817W        W45543   1.903  32.037   0.175
73818W        W45544  20.121   0.817  13.394
73819W        W45545  37.707  16.090  11.613
73820W        W45546  24.602   6.283   3.727
73821W        W45547   9.383  43.500  11.145
73822W        W45548  43.697  34.052  11.538
73823W        W45549  16.243  21.591  10.995
73824W        W45550  35.103  33.453  11.673
73825W        W45551  22.221   9.738  11.937
73826W        W45552  20.077   9.424  14.576
73827W        W45553  37.077   5.376   1.312
73828W        W45554  14.193  13.153   1.827
73829W        W45555  36.407  30.064   2.629
73830W        W45556  11.797  35.063   2.983
73831W        W45557  25.116  32.990   1.141
73832W        W45558  26.150   2.118  11.512
73833W        W45559  16.476   3.834   2.081
73834W        W45560  10.981  40.534   3.810
73835W        W45561   3.184  36.581   2.177
73836W        W45562  40.978  11.158   3.587
73837W        W45563  23.893  12.063   0.007
73838W        W45564  44.527   4.817   3.275
73839W        W45565  27.015  10.852  13.545
73840W        W45566   1.867  44.810  12.818
73841W        W45567  16.809  21.041  13.932
73842W        W45568  44.494  32.299  12.637
73843W        W45569   9.136   0.050   2.779
73844W        W45570  33.702  36.917   0.936
73845W        W45571   9.832  11.322   4.563
73846W        W45572   4.118  41.494  12.615
73847W        W45573  20.257  32.809   1.894
73848W        W45574  30.979  16.568   4.514
73849W        W45575  24.539  36.373   4.472
73850W        W45576  20.668  32.068  14.043
73851W        W45577  28.145  26.203   1.665
73852W        W45578  37.117   2.849  12.874
73853W        W45579  43.789  44.515   1.230
73854W        W45580  42.810   1.538   2.588
73855W        W45581  19.624  27.950   3.065
73856W        W45582  11.680  33.375   2.341
73857W        W45583  18.723  20.563   4.616
73858W        W45584   3.268  35.411  12.621
73859W        W45585  32.836  34.494  11.223
73860W        W45586  12.149  38.207  14.460
73861W        W45587   5.232  20.696   4.799
73862W        W45588  14.776   4.739  10.651
73863W        W45589   6.304  11.111   5.017
73864W        W45590  16.134   2.959   3.504
73865W        W45591   9.046  37.902  11.949
73866W        W45592  33.166  22.019   1.806
73867W        W45593  23.997   1.305  12.001
73868W        W45594  17.130  38.982   2.152
73869W        W45595   6.725   1.959   3.845
73870W        W45596  18.098  24.199  12.004
73871W        W45597  11.059  23.281   3.611
73872W        W45598  43.827  39.802  14.711
73873W        W45599  37.870  30.146  10.677
73874W        W45600  34.872   6.414   4.582
73875W        W45601  16.723   1.561   1.820
73876W        W45602   3.751  41.003  12.017
73877W        W45603  34.909  28.966   0.493
73878W        W45604  32.851   8.798  12.869
73879W        W45605   6.219  39.008   3.803
73880W        W45606  33.098  19.988  12.135
73881W        W45607  29.045  21.745   0.319
73882W        W45608  14.754  21.280  13.968
73883W        W45609  10.842  44.507  12.942
73884W        W45610  41.596  36.425  11.365
73885W        W45611  11.082   0.474  13.624
73886W        W45612  14.982  26.982   4.502
73887W        W45613  20.765  32.325   0.406
73888W        W45614  13.101  18.111  14.905
73889W        W45615  17.775  20.723   0.471
73890W        W45616  25.294   8.808  13.314
73891W        W45617  21.229  43.094  14.606
73892W        W45618  18.266  34.427  10.839
73893W        W45619  26.289   8.465  11.575
73894W        W45620  35.964   5.096  14.408
73895W        W45621  23.205  11.162  13.377
73896W        W45622   2.865  11.150  14.891
73897W        W45623  41.538  17.542  13.328
73898W        W45624  12.789  43.094  10.858
73899W        W45625  26.128  22.542   0.832
73900W        W45626  36.636  44.405   4.028
73901W        W45627  29.978  13.253   1.425
73902W        W45628  26.597  25.851  13.567
73903W        W45629   6.404  37.365   2.261
73904W        W45630  36.848  39.014   1.390
73905W        W45631  19.063   2.256   3.785
73906W        W45632  33.665  24.837   4.087
73907W        W45633   0.481  22.743   4.834
73908W        W45634  43.990  38.496  14.294
73909W        W45635  41.111  39.107  14.907
73910W        W45636  16.126  41.827  13.457
73911W        W45637  37.002  33.471   3.273
73912W        W45638   8.236  39.145   3.664
73913W        W45639  32.839  40.031  14.241
73914W        W45640   2.223   7.605  11.980
73915W        W45641  22.245  13.263  13.869
73916W        W45642  16.522  16.586  11.922
73917W        W45643  43.752  22.064  14.960
73918W        W45644   2.371  36.940   1.314
73919W        W45645  34.955  33.862  14.438
73920W        W45646  23.550   3.408   2.912
73921W        W45647   1.542  44.416   3.718
73922W        W45648  30.912  42.097  12.627
73923W        W45649   7.161  19.015   1.824
73924W        W45650  36.669  26.929  10.419
73925W        W45651   4.123  32.179   5.065
73926W        W45652  41.083  11.362  13.829
73927W        W45653  26.974  23.952  12.482
73928W        W45654  17.413  23.195  14.405
73929W        W45655   2.430  44.793   4.888
73930W        W45656  14.857  22.065  14.534
73931W        W45657  34.615  10.290   3.356
73932W        W45658  42.551  35.418  10.617
73933W        W45659   0.821  42.303  12.543
73934W        W45660   1.395  10.675   2.689
73935W        W45661  19.312  14.641   0.501
73936W        W45662  37.378  35.905   3.244
73937W        W45663  32.113  40.988   2.682
73938W        W45664   4.755  41.510   4.674
73939W        W45665  12.103  37.552  11.041
73940W        W45666  30.845   1.110  11.431
73941W        W45667   0.964  17.609   3.202
73942W        W45668  11.687   7.072  10.102
73943W        W45669  16.710   5.869  11.635
73944W        W45670   6.083  23.702   4.641
73945W        W45671  38.369   8.634  12.805
73946W        W45672  24.235  25.056  13.047
73947W        W45673  37.048  42.694   4.684
73948W        W45674  16.862   1.210  11.526
73949W        W45675  35.019   6.166   0.031
73950W        W45676  34.158  35.990   0.080
73951W        W45677  37.950  23.186  12.874
73952W        W45678  22.165  29.053  11.898
73953W        W45679  11.245   9.802  14.296
73954W        W45680  41.995   5.170   4.493
73955W        W45681   2.309   3.186  13.021
73956W        W45682  33.114  18.264   3.862
73957W        W45683   6.040   3.442  14.926
73958W        W45684   5.401  43.367   0.030
73959W        W45685   3.481  21.066   4.601
73960W        W45686  19.802  20.152  11.020
73961W        W45687  32.016  25.814   3.271
73962W        W45688  29.657  30.570   1.140
73963W        W45689   7.477  30.659   5.039
73964W        W45690   3.856  39.771  11.011
73965W        W45691  44.437  44.853  14.457
73966W        W45692   9.413  25.644  13.284
73967W        W45693  41.450  13.597  11.652
73968W        W45694   7.382  21.198   2.335
73969W        W45695   9.978  28.832   0.276
73970W        W45696  23.504  26.680  14.904
73971W        W45697   1.067  28.218  11.165
73972W        W45698  26.527  28.964  12.558
73973W        W45699  11.619  16.641   1.889
73974W        W45700   6.722  33.851  14.402
73975W        W45701   7.661  27.417  11.178
73976W        W45702   8.848   5.187  11.159
73977W        W45703  41.000   2.932   3.706
73978W        W45704  31.010  24.203  13.966
73979W        W45705  14.354  27.251   2.360
73980W        W45706  22.662  29.496   0.297
73981W        W45707  41.506  27.379  14.192
73982W        W45708  16.162   0.790  12.450
73983W        W45709  16.612  13.858   1.433
73984W        W45710  39.889  16.256  10.688
73985W        W45711  17.083  40.287   4.034
73986W        W45712  39.327   4.894  13.445
73987W        W45713  19.675  37.551   3.972
73988W        W45714  10.244   3.901  11.429
73989W        W45715   7.838  19.939   2.292
73990W        W45716   4.769  13.716  13.328
73991W        W45717  10.278  33.180  13.048
73992W        W45718  42.526  15.832   4.184
73993W        W45719  15.585   1.803   9.933
73994W        W45720   0.544  27.767  12.551
73995W        W45721  31.571  17.831  12.680
73996W        W45722  26.886   0.171  11.533
73997W        W45723  16.459  21.506   0.336
73998W        W45724  20.511   6.828   0.739
73999W        W45725   9.168  36.553   4.547
74000W        W45726  24.077  42.501  12.216
74001W        W45727   6.820   3.380  14.986
74002W        W45728  28.647  31.544   1.372
74003W        W45729  13.325  39.867  13.850
74004W        W45730  14.080  38.791   2.197
74005W        W45731  44.587  35.399   4.551
74006W        W45732   5.365  31.854  13.860
74007W        W45733  31.835   5.652   3.140
74008W        W45734  30.392   0.296  12.652
74009W        W45735  30.516   7.230   2.821
74010W        W45736  40.085  42.536   1.641
74011W        W45737  36.212  32.452   4.165
74012W        W45738  19.527  21.162  13.945
74013W        W45739  13.426  24.478  10.603
74014W        W45740   3.215   1.676  13.330
74015W        W45741  36.561  44.460  12.956
74016W        W45742  30.519  31.413   2.398
74017W        W45743  26.016   9.606  14.418
74018W        W45744  19.740  28.959   4.313
74019W        W45745  17.719  43.910   0.427
74020W        W45746  25.940  19.474  13.553
74021W        W45747   4.258  40.982   3.625
74022W        W45748  17.729  42.962  14.907
74023W        W45749  18.126   2.959  14.711
74024W        W45750  23.667  21.180   0.008
74025W        W45751  22.637  44.421   3.613
74026W        W45752  41.723  41.603  14.851
74027W        W45753  17.583  15.373   0.487
74028W        W45754  34.708  26.153   2.431
74029W        W45755  11.559  11.171   4.043
74030W        W45756   5.916   4.542  10.491
74031W        W45757  14.555  32.094   2.665
74032W        W45758  41.568  21.675   4.133
74033W        W45759  15.184  39.366   1.162
74034W        W45760  37.284  11.639  13.967
74035W        W45761  19.560  32.002  10.961
74036W        W45762  43.783   8.442  13.983
74037W        W45763  24.943  39.964   0.391
74038W        W45764  27.207  42.387  12.882
74039W        W45765   9.661   3.326  13.470
74040W        W45766  32.917  27.433   1.376
74041W        W45767  27.788   0.362  10.301
74042W        W45768   2.851  15.687   0.822
74043W        W45769   9.686  31.672   1.337
74044W        W45770  19.263  27.461  11.266
74045W        W45771  39.047  15.074  13.890
74046W        W45772   9.235  38.261   3.930
74047W        W45773  39.849  37.031  11.601
74048W        W45774  24.207  17.060  14.075
74049W        W45775  28.434  35.956   1.939
74050W        W45776   7.861  26.904  14.413
74051W        W45777  11.536  30.758   0.838
74052W        W45778  41.087  31.414   1.811
74053W        W45779  15.870  28.895  11.657
74054W        W45780  18.153  29.755  12.551
74055W        W45781  36.143  12.300  12.381
74056W        W45782  16.141  29.127   3.741
74057W        W45783  19.366  37.320   0.934
74058W        W45784   6.056  15.260  13.098
74059W        W45785   4.189  14.673   3.782
74060W        W45786   7.299  25.032  13.833
74061W        W45787   6.417   4.816   1.239
74062W        W45788  21.184   8.592   1.461
74063W        W45789   8.821   7.832  10.706
74064W        W45790  13.421  33.591  11.853
74065W        W45791   5.830  20.587   2.949
74066W        W45792  44.504  36.955  13.365
74067W        W45793  14.336   5.770   4.184
74068W        W45794  36.076  25.530   0.417
74069W        W45795  16.351  29.106  11.188
74070W        W45796  43.830  33.090  14.555
74071W        W45797  22.642  21.599   3.331
74072W        W45798   1.236  10.194   2.817
74073W        W45799  22.941  29.959   1.288
74074W        W45800  16.335  21.258  13.922
74075W        W45801  26.528  17.319  14.949
74076W        W45802   5.138  26.658   1.812
74077W        W45803  30.190  25.581   1.251
74078W        W45804   1.887  12.774   2.424
74079W        W45805   2.820   8.068  11.158
74080W        W45806  27.462  34.523  11.934
74081W        W45807   4.683  25.507   1.325
74082W        W45808   2.397  30.199  10.958
74083W        W45809  37.425  33.827   0.466
74084W        W45810   7.999  14.230   3.789
74085W        W45811   8.398  11.934   3.827
74086W        W45812  25.723   2.699   1.417
74087W        W45813  22.575  21.173  11.136
74088W        W45814   3.484  16.789   3.739
74089W        W45815  36.414  29.057  14.054
74090W        W45816  29.698  40.945  10.628
74091W        W45817   5.860  15.542  14.966
74092W        W45818   5.779  16.213   3.978
74093W        W45819  40.881  36.341   4.226
74094W        W45820  30.944  10.411   2.856
74095W        W45821  10.678  29.999   3.601
74096W        W45822   6.607  22.485   0.465
74097W        W45823  37.522  16.771  14.902
74098W        W45824  35.946   7.871  14.046
74099W        W45825   6.720   5.256   4.683
74100W        W45826  30.069  20.258  10.747
74101W        W45827  26.661   6.657  11.190
74102W        W45828   9.904   7.185  14.151
74103W        W45829  22.448  25.849   4.096
74104W        W45830   3.488  36.577   4.471
74105W        W45831  13.409  24.016   3.593
74106W        W45832  36.756  38.539  12.968
74107W        W45833   0.925  30.380   2.711
74108W        W45834  15.770   3.835   4.667
74109W        W45835  24.992  13.241  12.093
74110W        W45836  20.708  41.512   3.359
74111W        W45837   4.844  30.354   1.697
74112W        W45838  18.162  24.433   3.789
74113W        W45839  37.909   1.804   2.148
74114W        W45840  34.108  28.548  12.185
74115W        W45841  13.286  24.561  11.624
74116W        W45842  30.638   2.942   3.997
74117W        W45843  16.531  11.375   4.594
74118W        W45844  42.552  26.640  11.872
74119W        W45845   3.862  25.486  12.861
74120W        W45846  23.008  25.199  11.641
74121W        W45847  38.744  28.323  13.009
74122W        W45848  42.545  17.120   2.306
74123W        W45849  41.397  11.367   0.223
74124W        W45850  27.084  44.349  12.652
74125W        W45851  41.141  18.339   0.958
74126W        W45852  12.660   5.451  12.489
74127W        W45853   7.877   3.689   3.405
74128W        W45854  36.544  34.898  14.352
74129W        W45855  39.184   2.424  11.798
74130W        W45856   9.813  22.193   9.788
74131W        W45857   3.946   0.621   3.081
74132W        W45858  27.045  23.074  12.615
74133W        W45859  15.603   1.189   4.472
74134W        W45860  24.960  28.982  13.906
74135W        W45861  43.841   0.413  12.439
74136W        W45862  28.515  29.698  13.345
74137W        W45863  22.550  34.095  14.986
74138W        W45864   7.386  24.552  10.585
74139W        W45865  32.968   4.992   3.885
74140W        W45866   4.663  16.229   3.728
74141W        W45867  43.757  30.973  12.352
74142W        W45868  30.580  29.483  14.509
74143W        W45869  33.874  42.351   2.924
74144W        W45870  27.885  37.294  10.526
74145W        W45871  35.135   0.573  11.449
74146W        W45872  27.861  23.369  14.745
74147W        W45873   4.780  23.858   4.210
74148W        W45874  41.386  26.971   0.976
74149W        W45875  12.317  18.215   0.441
74150W        W45876  16.546  12.618  14.374
74151W        W45877  37.319  31.714   2.932
74152W        W45878  23.939   4.525  14.962
74153W        W45879  37.498  13.922  12.456
74154W        W45880   0.825  22.015  13.476
74155W        W45881   5.280   3.354  10.669
74156W        W45882   1.413  23.965  13.954
74157W        W45883  16.793  24.074   2.712
74158W        W45884   3.800  40.058  11.583
74159W        W45885  23.518   7.974  11.679
74160W        W45886  41.608   8.836  10.676
74161W        W45887   1.245  14.581  13.152
74162W        W45888  31.401   6.584   4.280
74163W        W45889  15.063   8.499   0.357
74164W        W45890  43.224  20.094  12.794
74165W        W45891  44.040  44.333   3.613
74166W        W45892   9.705  14.240   1.324
74167W        W45893  32.187  17.683   0.321
74168W        W45894   9.673  10.420  11.981
74169W        W45895  36.631  33.712  13.853
74170W        W45896  14.579   8.974  14.773
74171W        W45897  11.058  22.589  14.288
74172W        W45898  41.395   8.402   1.418
74173W        W45899  33.850  13.132   4.365
74174W        W45900  28.045  17.137   3.187
74175W        W45901  28.648  32.974  12.963
74176W        W45902  10.189  37.396  14.075
74177W        W45903   6.037  26.536   0.264
74178W        W45904  26.797  22.612   3.086
74179W        W45905  37.601  43.284   4.190
74180W        W45906  22.892  38.484   0.806
74181W        W45907  15.757  17.839  10.146
74182W        W45908  30.269  26.650   5.116
74183W        W45909  31.080  39.345   1.922
74184W        W45910  14.302  18.647   4.727
74185W        W45911  43.934  30.035   1.710
74186W        W45912   3.323  16.531  11.238
74187W        W45913  39.933  18.615  13.935
74188W        W45914  34.785  38.078  11.033
74189W        W45915  28.849  13.792  10.597
74190W        W45916  10.896  24.856  12.809
74191W        W45917   2.895   7.278  12.544
74192W        W45918  42.549  14.061   1.298
74193W        W45919   8.203  42.090   2.563
74194W        W45920  27.806  27.514  11.266
74195W        W45921   7.894  36.313   4.253
74196W        W45922  20.317  11.865  10.981
74197W        W45923   2.407  35.654   0.728
74198W        W45924  23.127  15.353   9.770
74199W        W45925   7.725  25.100  10.676
74200W        W45926  43.861  16.331  11.951
74201W        W45927   3.543   9.454  11.921
74202W        W45928  26.420   1.419   4.998
74203W        W45929   9.356   7.934  11.442
74204W        W45930  18.118   3.752   1.718
74205W        W45931   2.120  18.593   4.157
74206W        W45932  31.623  39.607  10.562
74207W        W45933  17.734   0.309  14.509
74208W        W45934   0.485  40.081  14.409
74209W        W45935   0.430  26.656  12.034
74210W        W45936  15.807   3.043  14.496
74211W        W45937  25.534  26.511  14.840
74212W        W45938  16.794  41.332  10.661
74213W        W45939  39.743  13.141  14.946
74214W        W45940  16.997  32.158   3.798
74215W        W45941  40.783  37.610   4.135
74216W        W45942   7.013  41.865  11.693
74217W        W45943  27.093   2.365  10.400
74218W        W45944  22.970  30.646   4.968
74219W        W45945  19.301  14.048   3.376
74220W        W45946  41.918  42.920   0.928
74221W        W45947  14.602  23.350  11.376
74222W        W45948  21.435  20.566  14.836
74223W        W45949   3.236  32.347  13.723
74224W        W45950  43.474   8.603   0.239
74225W        W45951   5.317  26.447   2.262
74226W        W45952  18.540   4.015   1.442
74227W        W45953  26.721  31.598   1.931
74228W        W45954  30.407  21.087  10.408
74229W        W45955  25.528  18.790  14.535
74230W        W45956  29.828  38.405   1.159
74231W        W45957   4.705  14.735   3.618
74232W        W45958  36.006  19.339   4.538
74233W        W45959  27.574  22.754   0.794
74234W        W45960  32.875  42.065   5.380
74235W        W45961   7.707   7.122  11.216
74236W        W45962   5.090  36.231   1.293
74237W        W45963   7.264  25.022   1.379
74238W        W45964  10.277   2.895   3.753
74239W        W45965  24.993  15.621  14.538
74240W        W45966  25.409   5.830  12.038
74241W        W45967   4.623  32.939  11.415
74242W        W45968  41.940  32.664   3.881
74243W        W45969  44.426  33.650   1.310
74244W        W45970  25.700  20.161   0.311
74245W        W45971   1.332   5.683  13.515
74246W        W45972  39.613   6.453  13.905
74247W        W45973  21.659   4.508   1.399
74248W        W45974  23.127  17.525   3.155
74249W        W45975   2.172  36.440   3.666
74250W        W45976  18.237  42.515  14.442
74251W        W45977  37.574  32.860  10.963
74252W        W45978  31.052  15.553   3.701
74253W        W45979   2.869  16.218   4.186
74254W        W45980  19.586  14.476   3.866
74255W        W45981  25.043  31.065   1.980
74256W        W45982  27.231   6.135  12.554
74257W        W45983  36.799  29.226  11.964
74258W        W45984  17.001  17.272   3.296
74259W        W45985   3.383  31.003   2.239
74260W        W45986  29.425  44.215   2.084
74261W        W45987  11.102  25.782  10.864
74262W        W45988  40.006  11.725   1.876
74263W        W45989  42.518  41.386   4.916
74264W        W45990  15.727   0.959   2.574
74265W        W45991  34.995  32.523  11.600
74266W        W45992  25.188  13.515  13.858
74267W        W45993  39.837  25.055  11.451
74268W        W45994   1.267   3.647   4.266
74269W        W45995  37.584  43.342  13.182
74270W        W45996  21.527  30.389  13.365
74271W        W45997   9.740  14.978  13.788
74272W        W45998  42.854  11.824  10.587
74273W        W45999  28.396  25.499   2.862
74274W        W46000   0.800  31.902  12.520
74275W        W46001   8.360  20.362   4.562
74276W        W46002  20.216  42.387  12.839
74277W        W46003   0.230  30.086   2.251
74278W        W46004  41.254  16.776   3.957
74279W        W46005   0.840  33.525  13.315
74280W        W46006  44.514   8.830  11.692
74281W        W46007   1.193   7.968  11.170
74282W        W46008  44.116   0.083   0.434
74283W        W46009  16.489  28.821  13.905
74284W        W46010  16.367  20.899   1.379
74285W        W46011  12.658  30.699   2.222
74286W        W46012  32.365  23.712  13.095
74287W        W46013  12.421  37.885   1.056
74288W        W46014  15.764  28.776   1.247
74289W        W46015  38.607  18.587  11.607
74290W        W46016   1.284  39.325  11.944
74291W        W46017  17.243  14.774   0.040
74292W        W46018  41.621  12.302  14.849
74293W        W46019  22.246  24.985  12.899
74294W        W46020   1.469   7.111   1.476
74295W        W46021  42.795   6.400   4.075
74296W        W46022  23.939  28.499   2.715
74297W        W46023  24.031   3.549   2.916
74298W        W46024  23.778   0.990   3.068
74299W        W46025  44.700   0.800   3.126
74300W        W46026  32.422  17.756  14.850
74301W        W46027  28.772  42.321  11.087
74302W        W46028  25.051  19.996  12.110
74303W        W46029  17.040  29.390   4.322
74304W        W46030  19.522  13.832  12.933
74305W        W46031  13.404   7.730  14.308
74306W        W46032  43.924  12.521   3.630
74307W        W46033  17.150  28.553  14.950
74308W        W46034   0.518   0.747  11.913
74309W        W46035  13.750  14.695   4.173
74310W        W46036  21.979  19.688   4.505
74311W        W46037   1.847  39.546  14.238
74312W        W46038  17.106  24.997  13.370
74313W        W46039  21.348  18.631  14.218
74314W        W46040   8.645  30.998   1.699
74315W        W46041  18.142  16.425  10.766
74316W        W46042  26.692  19.585   4.834
74317W        W46043  39.398  35.400  10.467
74318W        W46044   1.702   6.290   4.374
74319W        W46045  35.234   2.715   2.068
74320W        W46046  11.355  40.845   1.946
74321W        W46047   0.950  20.748  12.685
74322W        W46048  35.657  40.857  14.365
74323W        W46049  13.011   3.808  13.595
74324W        W46050   9.883   5.340   2.434
74325W        W46051   7.658  41.985   1.796
74326W        W46052  37.087  21.654  11.456
74327W        W46053  21.582  14.542   9.840
74328W        W46054  25.470  24.164  12.124
74329W        W46055  12.232  23.033  10.700
74330W        W46056  21.692  42.037  14.222
74331W        W46057   6.219  11.580   0.873
74332W        W46058  22.964  22.261   0.238
74333W        W46059  37.953  36.586   4.730
74334W        W46060  40.179  43.922  11.487
74335W        W46061   3.233  35.020   4.491
74336W        W46062  23.136  18.766   0.311
74337W        W46063  23.131  40.882  10.816
74338W        W46064  31.413  38.694   4.622
74339W        W46065  33.578  38.809   1.632
74340W        W46066  10.659  27.558  14.071
74341W        W46067  42.362  11.096   0.471
74342W        W46068  15.212  14.907   3.768
74343W        W46069  12.318  31.194   2.675
74344W        W46070  38.812  37.549   2.791
74345W        W46071  35.815  38.893  13.803
74346W        W46072  32.959  43.191   0.890
74347W        W46073  42.807   0.878  12.940
74348W        W46074   3.265   9.358   0.770
74349W        W46075  17.222   9.904   0.006
74350W        W46076  40.091  29.577  11.567
74351W        W46077   0.779  12.365  11.698
74352W        W46078  41.983   2.777  12.959
74353W        W46079  38.925  24.629   3.257
74354W        W46080   1.226  38.504  11.563
74355W        W46081  33.154   5.830  10.697
74356W        W46082  37.426   9.567  13.090
74357W        W46083  25.179  31.475   1.659
74358W        W46084  16.679  32.874   1.348
74359W        W46085  14.342  42.969  13.491
74360W        W46086   3.261  14.933  13.938
74361W        W46087  17.628   5.094  11.125
74362W        W46088   4.229  31.750  12.443
74363W        W46089  35.485  22.238  12.529
74364W        W46090   2.794  31.201  14.018
74365W        W46091  40.490  14.850  13.294
74366W        W46092  40.444  34.544  11.223
74367W        W46093   4.310   3.763   4.889
74368W        W46094  37.998  41.044   3.309
74369W        W46095  29.016  37.417   2.855
74370W        W46096  39.231  10.309   3.628
74371W        W46097  32.560   8.318   1.732
74372W        W46098  33.574  32.568  10.668
74373W        W46099  44.823  15.727   4.853
74374W        W46100   5.764  38.488   2.690
74375W        W46101  13.829  44.398  12.550
74376W        W46102  17.903  11.506   2.829
74377W        W46103  20.493   1.797  13.016
74378W        W46104  26.664   0.372  14.756
74379W        W46105  12.309  36.312   1.861
74380W        W46106   2.818  31.320  11.426
74381W        W46107  28.629   0.233   1.846
74382W        W46108  15.687  14.859  10.659
74383W        W46109   4.660  28.500   0.098
74384W        W46110  40.832   4.270   0.378
74385W        W46111  15.584  42.155   5.036
74386W        W46112  41.382  20.118   1.750
74387W        W46113  22.638  32.416   3.670
74388W        W46114   2.179   0.888   1.779
74389W        W46115  11.321  44.729   2.320
74390W        W46116  44.958  40.233  11.079
74391W        W46117  13.796  10.766   2.602
74392W        W46118  15.478  14.286  11.906
74393W        W46119  20.073  43.712   3.737
74394W        W46120  28.938  20.744   1.405
74395W        W46121  32.326  35.362   0.875
74396W        W46122   4.390   4.185   2.294
74397W        W46123   6.549  13.326   1.457
74398W        W46124  38.562  27.744   1.233
74399W        W46125  19.035  31.851   2.251
74400W        W46126  28.603  15.640  14.137
74401W        W46127  26.900  32.145  11.025
74402W        W46128  26.141  38.553  11.701
74403W        W46129  25.574  33.964   2.242
74404W        W46130   0.854   0.531  13.586
74405W        W46131  39.618  39.036   4.393
74406W        W46132  17.983  20.750   4.635
74407W        W46133  36.517  30.364   2.173
74408W        W46134  17.686   4.942  10.240
74409W        W46135  42.234  18.539   2.734
74410W        W46136  22.616  34.668   4.593
74411W        W46137  16.697  14.736  13.560
74412W        W46138   5.721  11.808   4.132
74413W        W46139  11.242  28.646  11.020
74414W        W46140   6.450  22.212   1.156
74415W        W46141   6.702  20.664   3.660
74416W        W46142  43.012  18.101  13.781
74417W        W46143  35.949  21.513   0.261
74418W        W46144   6.641  30.313   0.769
74419W        W46145  11.164  21.169  14.395
74420W        W46146  30.699  25.074  11.602
74421W        W46147  17.799  20.337  12.426
74422W        W46148  32.246  43.870  11.540
74423W        W46149  39.833  28.888   2.385
74424W        W46150  41.373  35.966  11.194
74425W        W46151  35.747  21.665  11.544
74426W        W46152  30.483  16.594  14.870
74427W        W46153  10.139   8.094  11.995
74428W        W46154  27.521  25.171  14.265
74429W        W46155  18.137  18.328  10.990
74430W        W46156  42.325  35.838   3.303
74431W        W46157  40.298  37.270  12.345
74432W        W46158  31.638  44.027  12.830
74433W        W46159   2.782  13.284  12.446
74434W        W46160  31.224  16.721  14.915
74435W        W46161  36.418  20.622  12.021
74436W        W46162  23.234  28.429   1.817
74437W        W46163  30.102   6.786  13.015
74438W        W46164  32.984   6.203   2.360
74439W        W46165  41.659   2.630   0.160
74440W        W46166  37.845  17.114  12.139
74441W        W46167  33.431  30.511  10.336
74442W        W46168  33.358  16.449   0.024
74443W        W46169  28.879   5.748   2.694
74444W        W46170  29.577   6.842   0.948
74445W        W46171  37.003  21.673   0.318
74446W        W46172   7.245  27.613  12.095
74447W        W46173  34.332   3.038  12.251
74448W        W46174  35.070  33.038  10.717
74449W        W46175  30.566   0.904  14.323
74450W        W46176  14.066  26.009   4.546
74451W        W46177   8.970  24.638  10.593
74452W        W46178  26.585  29.639  10.768
74453W        W46179  16.142  30.096  11.961
74454W        W46180  33.968  16.149  12.436
74455W        W46181  13.028  44.408  11.050
74456W        W46182  10.752  26.664   1.076
74457W        W46183  24.584   2.697   2.210
74458W        W46184  19.697   9.407   1.803
74459W        W46185  15.032  34.969  12.368
74460W        W46186  10.861  17.005   3.312
74461W        W46187  10.012  17.807   3.505
74462W        W46188  19.984  24.636   3.618
74463W        W46189   4.862  36.941  13.989
74464W        W46190   3.456  23.689  14.466
74465W        W46191  34.302  15.221  10.784
74466W        W46192  18.539  36.911   0.850
74467W        W46193   0.032   8.295   1.652
74468W        W46194  14.240   9.368  14.015
74469W        W46195   1.708   6.911  11.647
74470W        W46196  14.415  31.679  11.058
74471W        W46197  15.646  33.816   1.756
74472W        W46198   0.527  34.354  14.366
74473W        W46199   4.233  22.966  14.950
74474W        W46200   8.808  10.223  13.708
74475W        W46201  10.920  39.474  12.854
74476W        W46202  23.526   6.310  14.403
74477W        W46203  15.753  40.067   2.793
74478W        W46204  34.851  24.973   0.267
74479W        W46205  16.814  10.251  11.126
74480W        W46206  36.944   1.832   4.204
74481W        W46207  37.345  41.860  14.518
74482W        W46208  35.535   3.559  11.955
74483W        W46209  15.839  25.321  11.547
74484W        W46210  19.275  13.197  10.390
74485W        W46211   5.479   6.313   0.459
74486W        W46212  34.567  29.665  14.860
74487W        W46213  18.828   1.499   1.900
74488W        W46214   7.899  18.766  13.359
74489W        W46215   7.385   7.999   2.253
74490W        W46216   8.868  21.610   1.028
74491W        W46217  31.995  37.278   5.069
74492W        W46218   4.922  36.905   4.680
74493W        W46219  33.089   4.281  14.427
74494W        W46220  15.362  19.027   2.961
74495W        W46221   1.910  42.904   5.107
74496W        W46222   9.178  10.275  10.022
74497W        W46223   5.800  14.727   4.311
74498W        W46224  42.954  33.420   1.173
74499W        W46225  16.158  13.146   3.642
74500W        W46226  23.190  10.431   2.398
74501W        W46227  30.439  41.994   4.322
74502W        W46228   9.892  43.856  13.545
74503W        W46229  36.125  25.453   2.651
74504W        W46230  16.486  11.223   3.191
74505W        W46231  44.608   0.523  12.847
74506W        W46232  37.867  20.816  11.130
74507W        W46233  21.174  28.708  11.184
74508W        W46234  25.604  23.162  10.689
74509W        W46235  38.430  35.840  12.906
74510W        W46236  35.485  36.404  13.400
74511W        W46237  42.584  16.713  11.143
74512W        W46238  35.423  39.234  11.943
74513W        W46239  28.051  31.311   4.743
74514W        W46240  35.670  23.899  13.552
74515W        W46241  26.630  11.323  14.830
74516W        W46242  27.486  22.260  12.218
74517W        W46243  30.494  27.079   2.209
74518W        W46244  23.284  25.487  11.317
74519W        W46245  36.953  34.394   3.097
74520W        W46246  13.299  23.526   3.421
74521W        W46247  34.642   7.051  14.060
74522W        W46248   4.843  17.710   0.978
74523W        W46249  13.147  11.296   0.763
74524W        W46250   9.452  14.521  11.906
74525W        W46251  43.836  31.644   4.180
74526W        W46252  17.815  35.574  13.564
74527W        W46253   2.586  22.731   4.229
74528W        W46254  44.386  40.890  14.418
74529W        W46255  28.668  12.205   4.986
74530W        W46256  16.860  37.415  12.545
74531W        W46257  10.315   7.283  14.961
74532W        W46258  43.634  27.530   3.698
74533W        W46259  32.407   3.658   3.801
74534W        W46260   3.048  30.049   4.972
74535W        W46261   4.913  16.230   9.730
74536W        W46262  32.144   5.109   2.155
74537W        W46263  32.055   2.613   5.135
74538W        W46264   2.593  37.014   4.210
74539W        W46265   4.810  43.585  11.357
74540W        W46266  18.204  39.355  12.970
74541W        W46267   7.971   9.215   0.856
74542W        W46268  18.865  21.916  12.770
74543W        W46269  24.010  38.582   1.313
74544W        W46270  11.886  35.993  11.752
74545W        W46271  19.538  32.640   2.836
74546W        W46272  12.717  43.467  11.586
74547W        W46273  17.772  26.654  10.664
74548W        W46274  39.686  37.555  10.033
74549W        W46275  11.674  29.000   0.365
74550W        W46276  41.836   8.933   3.713
74551W        W46277  20.793  25.106  14.307
74552W        W46278  16.849  40.371  10.679
74553W        W46279  24.106  10.920  14.316
74554W        W46280  42.373  37.418  12.000
74555W        W46281  15.598  14.501  11.042
74556W        W46282   9.372  25.911  12.436
74557W        W46283   3.818   2.527  12.888
74558W        W46284  23.428  27.622  14.816
74559W        W46285  43.351  14.775  12.400
74560W        W46286  23.490  19.779   1.785
74561W        W46287  35.470  32.292  13.898
74562W        W46288  13.045   7.208   2.369
74563W        W46289  16.270  15.370   3.229
74564W        W46290  34.173   8.630  11.070
74565W        W46291   1.689  22.742   1.818
74566W        W46292   1.378   1.220   2.167
74567W        W46293  31.444   3.400  10.714
74568W        W46294  41.874  16.007   3.919
74569W        W46295  30.549  12.123   0.221
74570W        W46296  13.115  43.475   2.785
74571W        W46297  33.215  17.747   3.847
74572W        W46298  44.971  36.084   0.323
74573W        W46299   2.790   0.126  14.003
74574W        W46300  32.541  36.596  10.722
74575W        W46301   3.679  21.041   2.364
74576W        W46302  40.232  19.854   1.001
74577W        W46303  10.285  23.989  13.368
74578W        W46304  42.511   3.422  10.605
74579W        W46305  39.531  43.515  13.217
74580W        W46306  11.530  44.538   3.240
74581W        W46307  22.482  33.444  10.479
74582W        W46308  34.902   8.190   4.754
74583W        W46309  40.207  44.969  12.968
74584W        W46310  25.060  41.111   0.284
74585W        W46311  16.064  25.114   5.042
74586W        W46312   2.489  26.800   4.679
74587W        W46313  17.997  19.726  12.881
74588W        W46314  29.821  20.005  11.166
74589W        W46315   2.932  38.378   3.446
74590W        W46316  37.901  11.709  11.608
74591W        W46317  30.132  25.959  11.969
74592W        W46318  28.898  33.943  12.852
74593W        W46319  31.632  33.288  14.187
74594W        W46320  17.259  21.529  13.536
74595W        W46321   6.891  30.879   2.354
74596W        W46322  30.075  14.995   4.394
74597W        W46323  36.499  12.774   1.480
74598W        W46324  14.761  24.585  13.275
74599W        W46325  38.419   0.279  11.126
74600W        W46326  32.103   5.780  13.055
74601W        W46327  30.728  29.561   1.548
74602W        W46328   0.071  40.278   3.625
74603W        W46329   2.942  33.883  14.249
74604W        W46330  11.812  29.642   2.869
74605W        W46331  33.982  30.345   1.151
74606W        W46332   3.413  38.157  10.294
74607W        W46333   1.466  44.387   1.085
74608W        W46334   4.727  31.972  12.524
74609W        W46335   1.734  15.202   4.086
74610W        W46336  23.179  31.428  10.991
74611W        W46337   0.569  18.531   1.105
74612W        W46338   4.251  21.195   0.020
74613W        W46339  21.767  44.812   4.513
74614W        W46340  28.751  17.402   3.789
74615W        W46341  42.877  38.000   3.650
74616W        W46342  18.253  31.914  12.495
74617W        W46343  23.188  34.816   2.957
74618W        W46344  26.603  20.066  14.577
74619W        W46345   3.713  39.193   3.297
74620W        W46346  18.659  18.323  11.134
74621W        W46347  43.342  35.464   3.361
74622W        W46348  17.889   4.305   1.285
74623W        W46349  26.012  42.334   0.791
74624W        W46350   2.833  23.607   2.329
74625W        W46351  14.127  43.477  11.648
74626W        W46352  29.199  27.573   2.244
74627W        W46353   7.893  16.683   1.948
74628W        W46354  17.231  34.933   4.545
74629W        W46355  31.371  19.677   2.019
74630W        W46356  29.391  16.029   0.508
74631W        W46357  43.550  36.883   3.157
74632W        W46358  39.405  27.882   1.228
74633W        W46359  33.593  12.341   0.676
74634W        W46360  22.999  29.208  11.643
74635W        W46361  13.126   7.860  11.256
74636W        W46362   0.022  10.168  13.006
74637W        W46363  42.970  44.719   0.825
74638W        W46364   6.541  18.590  11.915
74639W        W46365   9.616  36.054   4.946
74640W        W46366  26.885  22.668  10.498
74641W        W46367  23.506  19.755   4.661
74642W        W46368  24.352   6.711   3.873
74643W        W46369   7.607  22.990   3.226
74644W        W46370  16.021  32.457  10.946
74645W        W46371  41.798  27.663   1.984
74646W        W46372  34.941  24.507  13.530
74647W        W46373  38.974  41.447  10.621
74648W        W46374  19.705  26.767  12.109
74649W        W46375  23.630  22.500   4.694
74650W        W46376  12.389  29.536  11.504
74651W        W46377   4.223  24.192   3.832
74652W        W46378   1.709  30.441  14.381
74653W        W46379  32.529   0.600  14.928
74654W        W46380  10.868  25.843  11.435
74655W        W46381  17.143  40.932   0.352
74656W        W46382  13.108  22.249  11.028
74657W        W46383  16.326  18.735  12.610
74658W        W46384   4.415   1.769   0.810
74659W        W46385  27.037   9.051   1.911
74660W        W46386  13.577  43.528   1.338
74661W        W46387   6.193  33.624  14.540
74662W        W46388  41.018  37.511   3.686
74663W        W46389  37.021  23.015  13.981
74664W        W46390   8.387   8.153  14.910
74665W        W46391  30.580  31.145   1.091
74666W        W46392  24.196  25.436   3.218
74667W        W46393  35.388  30.174  12.892
74668W        W46394  14.166  37.501  14.985
74669W        W46395  26.530  21.300  11.662
74670W        W46396  14.066  36.949   3.698
74671W        W46397  13.820   8.845   1.228
74672W        W46398  35.157  11.747   5.152
74673W        W46399  21.574  22.793  14.959
74674W        W46400  29.990  18.073   1.323
74675W        W46401  11.790   3.665  14.989
74676W        W46402  16.241  27.911  14.864
74677W        W46403  24.617   7.290   5.026
74678W        W46404   2.186  30.464   2.008
74679W        W46405  37.057   1.470   2.876
74680W        W46406  17.550  22.529  13.023
74681W        W46407   2.797  22.123  14.803
74682W        W46408  28.494   0.451   1.204
74683W        W46409  30.541  34.210  12.936
74684W        W46410   5.882  43.548  13.052
74685W        W46411  40.956   8.975   1.722
74686W        W46412   0.772  42.474  13.022
74687W        W46413  28.463  29.555   4.763
74688W        W46414  28.117  20.207   1.694
74689W        W46415   6.954  27.454  14.278
74690W        W46416   0.809  35.644   2.297
74691W        W46417  24.305   9.502   4.223
74692W        W46418  19.805  36.510   1.074
74693W        W46419  20.237  31.475  10.958
74694W        W46420  33.051  35.121  12.886
74695W        W46421   4.859  34.307   0.349
74696W        W46422  42.705  13.960  11.769
74697W        W46423   2.386  31.580  11.514
74698W        W46424  15.128  41.531   2.376
74699W        W46425  18.239   1.730  12.657
74700W        W46426  23.618  30.101  11.905
74701W        W46427  21.729   1.876   2.752
74702W        W46428   9.421  11.852  14.937
74703W        W46429  16.884   6.611  13.905
74704W        W46430  20.548  21.651   1.754
74705W        W46431  34.638  44.676   4.079
74706W        W46432  35.009  17.507  13.195
74707W        W46433   5.271  15.855  11.526
74708W        W46434  30.151   7.499   1.107
74709W        W46435  21.299   3.352   4.847
74710W        W46436  32.483  42.704  12.794
74711W        W46437   7.356  14.810   1.720
74712W        W46438  43.687  43.516  11.926
74713W        W46439   9.776  27.171  12.502
74714W        W46440  32.926  39.504   3.682
74715W        W46441   0.835  42.958   3.235
74716W        W46442  39.361  33.779  11.449
74717W        W46443  30.468  18.428   2.539
74718W        W46444  32.311  21.234   0.408
74719W        W46445  28.017   8.820   0.270
74720W        W46446  34.452  25.710   4.136
74721W        W46447  36.013  29.107   4.434
74722W        W46448  32.015  25.041   3.799
74723W        W46449  13.537   7.655   0.978
74724W        W46450  32.403  26.991   3.381
74725W        W46451  31.034  26.848  12.404
74726W        W46452  19.586  26.937   3.292
74727W        W46453  16.730  36.107   2.277
74728W        W46454   5.971   7.604  12.302
74729W        W46455  39.075  44.220   1.345
74730W        W46456  34.871  10.651   3.655
74731W        W46457  21.159   6.860   2.674
74732W        W46458  41.249  20.657  13.503
74733W        W46459  34.359   8.235   2.546
74734W        W46460  29.086  33.373   3.135
74735W        W46461  41.103   2.279   0.169
74736W        W46462  38.063  28.970  14.293
74737W        W46463  10.240  44.312   0.782
74738W        W46464  15.333  43.857   3.877
74739W        W46465  34.883  11.099  11.644
74740W        W46466  25.131   1.790   2.321
74741W        W46467  20.682  39.299  14.896
74742W        W46468  30.474  23.920   1.769
74743W        W46469  35.986   0.511   1.322
74744W        W46470  40.340  15.637   2.274
74745W        W46471  34.403  42.961  14.733
74746W        W46472   2.910  44.174  10.699
74747W        W46473   5.948  28.621  11.013
74748W        W46474  32.906  43.698   0.773
74749W        W46475  19.340  20.336   0.831
74750W        W46476   1.387  28.375  13.960
74751W        W46477  10.358   4.203   1.390
74752W        W46478   9.548  33.500   2.474
74753W        W46479  37.991   3.263   2.782
74754W        W46480   7.340  10.254   0.527
74755W        W46481  13.124  26.248  11.109
74756W        W46482  27.954  12.402   1.176
74757W        W46483  43.509  19.493   3.337
74758W        W46484  27.184  41.300   1.822
74759W        W46485  43.068  22.806  14.941
74760W        W46486   3.876   7.640  12.413
74761W        W46487  30.590  39.345   0.809
74762W        W46488   2.744  29.380   2.216
74763W        W46489   0.388  27.529  13.844
74764W        W46490  37.969  17.298   2.869
74765W        W46491  21.568   1.734   0.954
74766W        W46492  10.446  33.443   0.295
74767W        W46493  39.800  30.373  10.731
74768W        W46494  21.529  31.580   0.884
74769W        W46495  26.953  35.102  13.852
74770W        W46496  11.720  21.526  14.025
74771W        W46497  32.536   0.855  12.120
74772W        W46498  35.537  35.139   3.478
74773W        W46499  13.594  19.564  14.414
74774W        W46500  31.537  35.120   1.274
74775W        W46501  14.069  43.289   1.316
74776W        W46502   5.185   7.156  13.401
74777W        W46503  29.348  34.194   1.488
74778W        W46504  12.581  18.239  11.090
74779W        W46505  11.559  20.288  12.138
74780W        W46506  29.063  14.872   2.445
74781W        W46507  23.238  22.632  14.959
74782W        W46508  24.036  30.911   1.717
74783W        W46509  27.560   9.008  11.410
74784W        W46510   7.264  10.127  10.067
74785W        W46511  23.500  43.426  14.401
74786W        W46512  12.187  13.612  10.741
74787W        W46513  34.868   6.852   1.448
74788W        W46514  36.425  42.227   3.787
74789W        W46515   6.162  12.288  11.133
74790W        W46516  22.971  37.062   2.476
74791W        W46517  33.570  43.554   1.336
74792W        W46518  40.105  42.332  12.069
74793W        W46519  21.288   8.470   0.440
74794W        W46520  35.314  42.499   0.028
74795W        W46521  34.371  35.906   0.551
74796W        W46522  35.156  31.413   3.362
74797W        W46523  10.854  28.565  14.063
74798W        W46524  21.985  44.351  11.024
74799W        W46525  30.208   9.383   4.558
74800W        W46526  24.463  30.534  11.466
74801W        W46527   4.649   8.347  13.823
74802W        W46528  16.129  33.826   1.277
74803W        W46529  20.891   1.638   1.566
74804W        W46530  30.912  25.279   0.991
74805W        W46531  36.180  25.511   0.924
74806W        W46532  10.718   3.414   0.319
74807W        W46533  29.759  37.708   0.960
74808W        W46534  24.080  16.169  10.721
74809W        W46535  29.462  31.885  10.694
74810W        W46536  33.479  34.992  12.614
74811W        W46537  27.969  27.144  13.499
74812W        W46538   6.638  26.093   2.222
74813W        W46539  27.275  25.602  14.415
74814W        W46540  38.387   7.593  11.120
74815W        W46541   9.148   4.943   4.009
74816W        W46542   0.440  41.836  14.557
74817W        W46543  27.503  18.478  10.658
74818W        W46544  33.494  19.525   0.312
74819W        W46545   1.884  11.742   0.414
74820W        W46546  30.020  19.505   0.875
74821W        W46547   6.381  38.982   1.488
74822W        W46548  38.699  30.557  11.236
74823W        W46549   5.846   0.892   0.639
74824W        W46550  44.824  25.181   0.448
74825W        W46551   9.762  24.349   0.054
74826W        W46552  24.338  41.498   5.375
74827W        W46553  17.532  23.720   2.235
74828W        W46554  15.241  31.474  13.467
74829W        W46555   7.625   3.920   1.903
74830W        W46556  10.765  18.306   1.965
74831W        W46557  44.980   1.657  12.968
74832W        W46558  17.798  10.295   3.307
74833W        W46559  43.915  17.073   4.138
74834W        W46560   6.745  15.071   0.704
74835W        W46561  22.941  11.039  11.613
74836W        W46562  16.650  24.973  11.555
74837W        W46563   6.361  26.478   2.421
74838W        W46564  32.027   1.887   2.600
74839W        W46565  22.201   2.213  11.987
74840W        W46566  13.794  30.014  10.678
74841W        W46567  10.832  37.421   4.101
74842W        W46568  13.893  43.861   0.293
74843W        W46569  42.298  20.967   3.290
74844W        W46570  26.734   3.070  13.633
74845W        W46571   5.896  33.170  14.510
74846W        W46572  44.012   4.892   1.453
74847W        W46573  30.699  44.257  11.916
74848W        W46574  19.718  44.064  12.896
74849W        W46575  31.941   9.619  14.584
74850W        W46576  28.016  43.848  14.305
74851W        W46577  27.611  10.152   2.377
74852W        W46578  28.915  22.826   3.674
74853W        W46579  33.553  32.092   4.541
74854W        W46580  32.083  40.852   0.808
74855W        W46581   1.023   3.418  10.317
74856W        W46582  14.387  11.201   4.093
74857W        W46583  16.192   9.826   0.533
74858W        W46584   2.834  40.992   1.845
74859W        W46585  28.170  31.284   0.949
74860W        W46586   3.999  24.090  11.336
74861W        W46587  33.102  29.931  14.852
74862W        W46588  26.035  39.902  12.263
74863W        W46589  17.494  16.092   4.566
74864W        W46590  20.270  12.873   2.521
74865W        W46591  27.960  21.687  12.817
74866W        W46592   7.347  21.713  12.386
74867W        W46593  20.959   9.827   0.335
74868W        W46594  39.288  37.098   2.718
74869W        W46595  34.377   6.699   3.341
74870W        W46596  28.232  17.263  14.041
74871W        W46597  25.216  21.392  12.008
74872W        W46598  10.682   0.725  13.827
74873W        W46599  39.976  42.881  13.913
74874W        W46600  39.312  10.929  13.535
74875W        W46601   3.494  25.048   1.093
74876W        W46602  30.945  32.366  10.585
74877W        W46603   4.610  38.826  10.722
74878W        W46604  26.414  29.921  13.189
74879W        W46605  10.681  38.778   4.548
74880W        W46606  34.205  18.175   0.775
74881W        W46607   0.768  29.025  13.967
74882W        W46608  34.030   7.193   1.910
74883W        W46609   5.138  22.957  13.902
74884W        W46610  20.532  15.793  12.599
74885W        W46611  12.935  40.337   5.000
74886W        W46612  41.424  39.330   4.178
74887W        W46613  36.618  20.545  11.129
74888W        W46614  42.807  10.243   3.723
74889W        W46615   6.712  17.101  14.020
74890W        W46616  16.416  30.258   4.165
74891W        W46617  19.301  32.913  12.996
74892W        W46618   3.402   3.916  13.839
74893W        W46619   0.409  44.265   4.021
74894W        W46620   3.228   7.777  14.841
74895W        W46621  30.955  36.093  11.131
74896W        W46622  16.239  33.410   3.246
74897W        W46623   0.524  29.729  11.904
74898W        W46624  19.742   3.701  10.378
74899W        W46625  43.022   9.327   2.735
74900W        W46626   5.237  23.114   2.172
74901W        W46627   4.871   8.920   3.297
74902W        W46628  41.596  35.494   1.187
74903W        W46629  14.303   1.758   0.393
74904W        W46630  37.032  30.466  12.644
74905W        W46631  36.279  42.902   1.329
74906W        W46632  15.099  25.397   1.569
74907W        W46633  23.088   3.763   4.027
74908W        W46634  13.915  24.070  12.284
74909W        W46635   4.196  16.632   1.405
74910W        W46636  28.426  30.003  14.860
74911W        W46637   9.635   2.323   1.263
74912W        W46638  18.559  43.522   0.503
74913W        W46639   3.673  37.898   3.315
74914W        W46640  22.143   5.262  10.607
74915W        W46641  43.993   6.290  11.999
74916W        W46642  26.347   7.697  14.540
74917W        W46643   3.227  44.915   3.928
74918W        W46644  17.597  10.216  12.415
74919W        W46645  37.774  35.772  13.494
74920W        W46646  28.671  12.887  12.458
74921W        W46647  35.833  18.760  11.162
74922W        W46648  26.304  26.556   0.377
74923W        W46649  11.780  12.958   2.222
74924W        W46650  17.518  37.628  13.280
74925W        W46651  39.457   3.722   3.674
74926W        W46652  27.999  44.707  12.524
74927W        W46653  18.167  34.538  12.201
74928W        W46654  28.968   0.994  10.606
74929W        W46655  35.932  43.426  12.984
74930W        W46656  37.541  36.495   1.799
74931W        W46657  22.709   3.128   0.348
74932W        W46658  20.776  43.790   1.540
74933W        W46659  31.500   2.052   3.725
74934W        W46660  41.442  30.380   1.233
74935W        W46661  39.428   2.843   3.618
74936W        W46662  25.486  29.908  12.390
74937W        W46663  26.046  16.287   0.342
74938W        W46664  15.855   1.546  13.563
74939W        W46665  24.584  14.636  10.692
74940W        W46666  40.536   5.886   4.536
74941W        W46667   9.905   8.256   4.799
74942W        W46668  11.747  39.371  10.686
74943W        W46669  38.903  41.325   3.689
74944W        W46670  14.186  37.176   2.027
74945W        W46671   2.325  38.280  10.557
74946W        W46672  32.925  29.426   1.294
74947W        W46673  21.609  27.026   0.269
74948W        W46674  19.221  11.664  14.753
74949W        W46675  11.426  36.141  14.338
74950W        W46676  12.845  39.920  14.500
74951W        W46677  36.112   9.801  14.355
74952W        W46678   9.417  28.643   4.144
74953W        W46679   7.732  35.621   5.030
74954W        W46680  31.535   2.790   4.767
74955W        W46681  33.927  17.104   3.707
74956W        W46682   9.220  32.057   2.354
74957W        W46683  19.042  34.675  14.719
74958W        W46684  19.736  32.831   0.925
74959W        W46685  25.749  14.574   2.245
74960W        W46686  20.588   9.398  14.415
74961W        W46687  38.582   9.844   2.153
74962W        W46688  13.021  30.623  10.192
74963W        W46689  41.527  30.588  12.619
74964W        W46690  28.959  34.309  10.756
74965W        W46691  38.361  43.353   2.304
74966W        W46692  39.089  22.883  11.782
74967W        W46693  23.019  33.196  11.082
74968W        W46694  16.700  24.188   1.084
74969W        W46695  22.529  36.946   2.706
74970W        W46696  26.764  39.006  12.130
74971W        W46697  22.044  44.756   2.451
74972W        W46698  21.923  25.268   0.237
74973W        W46699  14.160  43.898  10.918
74974W        W46700  14.798  44.297  11.632
74975W        W46701  24.440  13.900  11.047
74976W        W46702   3.997  14.244   9.745
74977W        W46703  44.535  27.190   1.338
74978W        W46704  37.340   5.989  14.663
74979W        W46705   1.848  15.183   2.131
74980W        W46706  31.729  16.418   2.435
74981W        W46707   1.957  42.105  11.162
74982W        W46708  38.937  31.611   1.364
74983W        W46709   7.331   4.563  11.387
74984W        W46710  41.109   1.374  11.020
74985W        W46711   9.432   3.380  14.570
74986W        W46712  19.280  32.846   3.303
74987W        W46713  40.108  19.285  10.784
74988W        W46714  11.624   3.234  12.448
74989W        W46715  29.193  42.674  14.858
74990W        W46716  39.919  23.166   1.831
74991W        W46717  17.215   8.226  13.131
74992W        W46718  11.161  10.390   0.830
74993W        W46719  13.988  33.836   2.341
74994W        W46720   0.540   1.930  11.605
74995W        W46721  42.380   3.255  12.159
74996W        W46722  34.009   9.777  13.310
74997W        W46723  12.518  11.791  12.083
74998W        W46724  15.343  41.819   4.671
74999W        W46725  12.174  25.684  11.150
75000W        W46726  43.807  41.262  14.934
75001W        W46727   0.610  31.819   3.618
75002W        W46728  30.068  44.278   0.897
75003W        W46729  17.049   3.294  10.294
75004W        W46730  15.590  37.722   9.782
75005W        W46731  38.841   4.130   4.658
75006W        W46732   2.383  37.893   0.945
75007W        W46733   7.778  23.046  10.713
75008W        W46734  29.671  43.268   0.802
75009W        W46735   8.810   1.401  11.417
75010W        W46736   1.888  34.376  13.549
75011W        W46737  26.397  25.148  10.758
75012W        W46738  38.342  31.667  12.106
75013W        W46739  15.841  41.278   2.242
75014W        W46740   3.510  11.510   1.364
75015W        W46741   1.902  41.158  12.808
75016W        W46742  22.966  34.311   2.804
75017W        W46743  44.006  38.556   4.478
75018W        W46744   4.758  42.843  12.496
75019W        W46745   8.728   1.706  14.075
75020W        W46746   4.475  43.995  13.279
75021W        W46747   1.695  27.627   4.098
75022W        W46748  29.108  23.573  12.042
75023W        W46749   3.926  24.260  12.301
75024W        W46750  16.175  11.851   4.151
75025W        W46751   8.703  23.958   2.873
75026W        W46752  27.588  18.072   1.809
75027W        W46753  31.822  39.264   3.309
75028W        W46754  26.099  33.530   3.202
75029W        W46755  10.888   7.366   1.625
75030W        W46756  44.455  33.407   2.300
75031W        W46757  13.099  39.026  11.090
75032W        W46758  22.649  11.535   5.061
75033W        W46759  32.645  18.519   1.352
75034W        W46760   8.645  21.864  12.790
75035W        W46761  16.883  40.084  14.371
75036W        W46762   5.439  10.097   1.957
75037W        W46763   0.269  18.101  13.754
75038W        W46764  44.972  35.442  13.818
75039W        W46765  29.342  22.444   3.720
75040W        W46766  35.114  39.687  11.187
75041W        W46767  16.714   1.701  14.003
75042W        W46768  39.428  11.197   2.718
75043W        W46769  29.840  38.805   5.277
75044W        W46770  39.571   8.953  13.396
75045W        W46771  23.600   4.101  14.701
75046W        W46772   3.029  38.579  12.178
75047W        W46773  12.192  21.720  11.912
75048W        W46774  31.485  39.077   0.768
75049W        W46775   8.890  29.082  13.003
75050W        W46776  25.626  40.525   1.173
75051W        W46777  42.774  10.730   2.778
75052W        W46778  16.053  11.594   4.614
75053W        W46779   0.844   6.725   1.902
75054W        W46780   2.935  10.918   3.380
75055W        W46781  10.863  29.662  14.956
75056W        W46782  14.154  24.032   4.285
75057W        W46783  23.173  41.801   4.471
75058W        W46784  10.923  13.762  12.024
75059W        W46785   8.343  42.921   5.051
75060W        W46786   5.879  16.825  10.523
75061W        W46787  37.524  29.499  10.700
75062W        W46788  38.605  39.523   1.422
75063W        W46789  24.981  30.544   1.936
75064W        W46790  40.834  32.711   1.291
75065W        W46791  30.163   7.172   4.164
75066W        W46792  16.628  13.692   1.948
75067W        W46793  15.658   8.910  10.144
75068W        W46794  32.000  23.134  11.547
75069W        W46795   9.525  23.485   3.077
75070W        W46796   9.090  14.167  14.814
75071W        W46797   3.020   4.777   0.015
75072W        W46798  13.486  16.273   0.837
75073W        W46799  21.151  41.595  11.377
75074W        W46800  39.852  32.096   2.168
75075W        W46801  35.987  44.179   3.671
75076W        W46802  43.020   3.966   0.340
75077W        W46803   3.368  13.576   4.019
75078W        W46804   1.905  20.114   3.892
75079W        W46805  28.344  38.946   1.631
75080W        W46806  13.072  16.778  11.129
75081W        W46807   3.371  26.173  13.396
75082W        W46808  27.095  20.296  12.910
75083W        W46809  27.689  21.695  14.534
75084W        W46810  29.928  21.183  14.501
75085W        W46811  33.311   9.217   0.069
75086W        W46812   0.412  15.438   3.637
75087W        W46813  20.906  16.717  12.402
75088W        W46814  10.365  42.543   4.185
75089W        W46815   2.819  35.589  12.424
75090W        W46816  10.723  15.345   2.928
75091W        W46817  33.327   0.816   3.621
75092W        W46818   0.191  42.170   3.355
75093W        W46819   1.593  30.619  11.417
75094W        W46820  15.603   2.836   2.190
75095W        W46821  39.872  38.161  14.052
75096W        W46822  12.194  44.197  13.526
75097W        W46823   2.234   2.313   4.493
75098W        W46824   6.704  37.966  11.430
75099W        W46825  32.411   8.827   4.289
75100W        W46826  33.092  38.808   1.808
75101W        W46827  11.804  22.778   1.307
75102W        W46828   0.916  24.483   4.837
75103W        W46829   6.350  26.050   2.854
75104W        W46830  34.011  22.583   1.835
75105W        W46831  10.799  30.018   1.867
75106W        W46832  23.996   3.145   0.386
75107W        W46833  15.840  41.442   0.287
75108W        W46834  30.361  37.431  11.471
75109W        W46835  16.343  22.171   1.705
75110W        W46836  40.381  28.915   2.235
75111W        W46837  41.691   4.430   0.435
75112W        W46838   4.966  19.729  14.150
75113W        W46839  39.529  36.902  14.975
75114W        W46840  11.886  29.598  12.806
75115W        W46841  24.079   0.784   2.422
75116W        W46842  18.628  12.201  14.557
75117W        W46843   8.314   2.223   3.754
75118W        W46844  40.370  29.782  11.187
75119W        W46845  42.903   1.441   0.699
75120W        W46846  23.588  41.428   2.272
75121W        W46847   9.677  27.112  10.994
75122W        W46848   7.138  34.117  13.461
75123W        W46849  24.220  17.220   2.346
75124W        W46850  26.699  16.843   0.851
75125W        W46851  11.242  36.104  14.855
75126W        W46852  18.665  25.160   0.455
75127W        W46853  38.672  41.228   4.590
75128W        W46854  38.580   5.503   2.069
75129W        W46855  36.606   7.184  10.661
75130W        W46856  25.029  20.247   3.819
75131W        W46857  18.693   1.743  10.445
75132W        W46858  38.985  32.163   3.654
75133W        W46859  14.880  24.230  12.614
75134W        W46860  30.533   1.419   4.123
75135W        W46861  29.820  22.635   3.619
75136W        W46862  22.410   2.707   0.300
75137W        W46863  32.948  36.082   1.481
75138W        W46864  21.759   8.477   0.221
75139W        W46865  42.545  24.646   4.705
75140W        W46866  30.396   5.074   2.360
75141W        W46867  19.813  36.566  11.118
75142W        W46868   3.904  43.758   4.033
75143W        W46869   9.905  33.326   2.797
75144W        W46870  29.942  23.082   0.816
75145W        W46871  30.648   0.310   1.890
75146W        W46872  35.072  31.380   2.269
75147W        W46873  40.139  35.623   2.632
75148W        W46874   0.008  14.832   4.131
75149W        W46875  35.170  19.420   5.037
75150W        W46876   6.294  28.068  14.380
75151W        W46877  39.382  10.777   3.838
75152W        W46878   8.797  34.032   5.331
75153W        W46879   2.013  42.796  11.555
75154W        W46880  37.598  11.364   2.697
75155W        W46881  31.474   3.863   1.795
75156W        W46882  13.180  18.156   0.843
75157W        W46883  44.246  37.819   0.841
75158W        W46884  25.001  31.512   2.833
75159W        W46885  23.653  43.262   2.508
75160W        W46886  41.332   7.375   3.814
75161W        W46887  17.531  36.541  14.510
75162W        W46888  20.591  10.222   2.578
75163W        W46889  18.509  32.049   4.587
75164W        W46890  28.979  38.276  12.947
75165W        W46891  44.284   5.750   1.205
75166W        W46892  24.915   7.338   2.878
75167W        W46893   1.569  15.757   3.335
75168W        W46894  20.320   5.212  13.439
75169W        W46895  41.907  24.927   1.676
75170W        W46896   2.064   3.025  14.675
75171W        W46897  38.461  10.812  12.320
75172W        W46898   5.879  22.235   3.558
75173W        W46899  31.050  15.298  14.945
75174W        W46900  24.780  11.699   0.797
75175W        W46901  10.896   0.315   3.742
75176W        W46902   5.935   4.863   0.334
75177W        W46903  18.265  33.720  11.477
75178W        W46904  16.102  39.091  10.553
75179W        W46905   5.916  32.134  11.161
75180W        W46906  11.162  24.192   1.061
75181W        W46907  10.341  22.012   2.248
75182W        W46908   9.448   9.843  13.164
75183W        W46909  40.612  33.572   2.862
75184W        W46910  40.313  41.938   1.039
75185W        W46911  20.351  21.140   1.707
75186W        W46912  25.229  22.187  10.690
75187W        W46913  22.767  43.151   0.887
75188W        W46914  28.000  23.177   4.565
75189W        W46915  32.553  28.824   0.442
75190W        W46916  42.422  26.876  12.724
75191W        W46917   1.267  16.991  10.691
75192W        W46918  38.581  10.154   3.398
75193W        W46919  43.409   0.485   2.773
75194W        W46920  29.062   4.277  13.422
75195W        W46921  33.912  40.169  11.171
75196W        W46922   6.205  38.044  14.899
75197W        W46923  14.392  41.018   3.967
75198W        W46924  43.064  15.971  12.918
75199W        W46925  11.657  27.981  11.927
75200W        W46926  15.842  11.199  10.184
75201W        W46927   0.928  37.316  13.509
75202W        W46928  44.499  34.590  14.808
75203W        W46929  33.950  22.046  12.463
75204W        W46930  20.898  27.977  12.081
75205W        W46931   0.966  29.659   1.811
75206W        W46932  20.478  29.967  11.140
75207W        W46933  29.744  40.744  12.300
75208W        W46934  40.948  14.964  11.639
75209W        W46935   9.762  39.622   2.206
75210W        W46936  21.781   9.943  12.851
75211W        W46937  22.994   0.885   3.593
75212W        W46938  11.075   9.747   4.544
75213W        W46939  24.460  43.475   4.574
75214W        W46940  20.454  14.250  11.799
75215W        W46941  33.645  29.650  11.414
75216W        W46942  29.372  37.011   3.531
75217W        W46943   7.350  41.344  12.947
75218W        W46944  15.886  34.466   1.159
75219W        W46945  30.510   7.467  13.139
75220W        W46946   8.349  14.323  12.422
75221W        W46947  39.657   0.494   0.781
75222W        W46948  19.294  14.183  12.601
75223W        W46949  28.493  28.863  12.370
75224W        W46950  24.450   4.253  10.997
75225W        W46951  19.705  16.756  14.908
75226W        W46952  14.754  29.558   0.982
75227W        W46953  13.165   4.853   0.628
75228W        W46954  10.836   2.966   1.476
75229W        W46955   9.631   2.109   0.751
75230W        W46956   7.834  25.221   2.365
75231W        W46957  14.164  36.404   0.995
75232W        W46958  13.199  24.031  11.793
75233W        W46959  24.652  14.779   3.082
75234W        W46960  41.759  18.408   0.850
75235W        W46961  33.128  10.910  12.447
75236W        W46962  14.378  23.996  10.721
75237W        W46963  19.269  33.128  12.205
75238W        W46964   3.102  40.197   5.283
75239W        W46965   4.259  12.336   2.748
75240W        W46966   3.204   9.481   1.716
75241W        W46967   2.772  37.122  11.569
75242W        W46968  14.040  27.904  10.757
75243W        W46969  19.511  12.767  12.067
75244W        W46970   9.840  26.100   3.913
75245W        W46971   4.400  37.107  10.327
75246W        W46972  13.144  33.894  11.536
75247W        W46973  38.012  27.928  11.058
75248W        W46974  33.413  25.104  14.524
75249W        W46975  17.341  14.353   4.207
75250W        W46976  12.273  33.928   1.753
75251W        W46977  22.220  35.977   0.296
75252W        W46978  11.898  24.160  13.449
75253W        W46979   6.663  33.892  13.439
75254W        W46980  34.352   3.533   0.613
75255W        W46981   4.164  21.727   4.241
75256W        W46982  38.499  18.660   4.640
75257W        W46983  39.050  33.814   1.772
75258W        W46984   5.324  35.616  11.038
75259W        W46985  18.510  18.755  12.018
75260W        W46986   2.796   8.266   3.098
75261W        W46987  23.244  43.288   0.724
75262W        W46988  10.651  29.665  13.002
75263W        W46989  41.556  15.332  11.529
75264W        W46990  11.703  11.266   3.557
75265W        W46991  23.678  26.572   3.759
75266W        W46992  22.954  10.407  12.285
75267W        W46993  25.226   1.004   5.471
75268W        W46994   4.377  21.102  11.007
75269W        W46995  26.981  15.656   4.583
75270W        W46996  23.116  34.171   2.276
75271W        W46997  20.753  36.871   0.720
75272W        W46998   5.439   5.533  14.470
75273W        W46999   1.348  11.650   2.666
75274W        W47000   1.737  13.203  14.228
75275W        W47001  32.877  43.292   1.441
75276W        W47002  32.171   2.163   3.834
75277W        W47003  29.641  22.596  14.352
75278W        W47004  34.467  10.950   3.787
75279W        W47005  22.684  16.145  14.960
75280W        W47006   2.468   4.788   3.314
75281W        W47007   4.170  12.686   2.047
75282W        W47008  15.647   2.832   3.654
75283W        W47009   7.438  32.667  13.993
75284W        W47010  42.644  15.244   0.040
75285W        W47011  34.284  12.372  10.691
75286W        W47012  22.018   5.765  11.631
75287W        W47013   0.790  43.379  12.880
75288W        W47014  30.643  41.963   0.182
75289W        W47015   6.939   5.191  12.329
75290W        W47016  18.238   7.753   3.854
75291W        W47017  33.551  28.474   0.858
75292W        W47018  34.460  17.686  13.855
75293W        W47019  15.754  11.396  12.945
75294W        W47020  40.175   5.979  14.100
75295W        W47021   6.308  37.744  13.976
75296W        W47022   6.788  11.584  11.040
75297W        W47023   8.323   6.487   5.030
75298W        W47024  12.116  41.443   0.035
75299W        W47025  21.788  14.871   1.241
75300W        W47026  16.269   7.343   0.353
75301W        W47027  16.643   9.215   3.941
75302W        W47028  32.559  12.078  13.149
75303W        W47029  37.330  40.401  12.921
75304W        W47030  43.777  34.854  14.827
75305W        W47031  38.429  25.354   0.965
75306W        W47032  42.969   0.110  14.441
75307W        W47033  10.677  17.204   1.498
75308W        W47034   5.552   3.760  12.102
75309W        W47035  19.087  11.320   4.076
75310W        W47036  33.449  40.798   0.018
75311W        W47037  18.686  27.661   1.966
75312W        W47038  33.912  16.624  10.477
75313W        W47039  23.880  26.445   3.293
75314W        W47040  44.854  22.502  13.376
75315W        W47041  17.791  20.419  14.009
75316W        W47042  12.140  25.990  13.527
75317W        W47043   7.924  17.633   3.761
75318W        W47044  21.127   4.166   2.506
75319W        W47045  37.783  36.847   2.620
75320W        W47046  24.293  44.510  14.005
75321W        W47047  11.797  42.377   3.258
75322W        W47048  43.118   4.552   1.479
75323W        W47049  40.803  37.169   4.917
75324W        W47050   2.779  11.293   1.821
75325W        W47051   8.396  16.212  13.332
75326W        W47052  34.833  23.711   4.554
75327W        W47053  43.258  38.712   4.192
75328W        W47054  44.269  38.842  13.972
75329W        W47055   5.347  20.204   0.459
75330W        W47056  32.081  13.188   3.810
75331W        W47057  36.996   5.692   0.898
75332W        W47058   5.794  40.287   2.776
75333W        W47059  34.852  22.762  11.693
75334W        W47060  22.741  32.624   2.809
75335W        W47061  32.867  25.945   1.246
75336W        W47062  10.195  24.430   1.955
75337W        W47063  11.090  18.361  10.942
75338W        W47064  12.310   1.857   1.329
75339W        W47065   0.351  41.569  12.801
75340W        W47066  24.506  28.030   3.860
75341W        W47067   8.914   3.715   2.823
75342W        W47068  28.002   6.181   2.135
75343W        W47069   5.684  41.376  10.913
75344W        W47070  39.318  19.120   0.811
75345W        W47071  25.212  18.664   2.722
75346W        W47072  33.957   8.301   3.659
75347W        W47073  43.445   3.373   1.425
75348W        W47074   8.237  10.301  13.010
75349W        W47075  20.105  43.086  12.093
75350W        W47076  18.221   4.918  12.194
75351W        W47077  35.399  32.598  13.461
75352W        W47078   8.864  33.592   0.296
75353W        W47079  35.238  13.207   1.898
75354W        W47080  32.777  12.245   3.521
75355W        W47081   5.772  43.083   3.240
75356W        W47082  42.885  19.858   1.646
75357W        W47083  15.886  39.906  12.109
75358W        W47084  25.052  32.377  12.985
75359W        W47085   2.001  21.494  12.903
75360W        W47086   8.728   3.996   2.413
75361W        W47087  30.166  35.356  14.349
75362W        W47088  30.969   3.250  13.717
75363W        W47089  14.244  18.161   4.532
75364W        W47090   6.754  26.846   1.360
75365W        W47091  26.967  35.894  14.535
75366W        W47092  14.230  37.045  14.746
75367W        W47093  40.450  44.040  14.638
75368W        W47094  37.435   4.745  13.939
75369W        W47095  32.843   9.488   2.873
75370W        W47096   7.427   1.159  12.372
75371W        W47097  29.868  14.068  13.313
75372W        W47098  23.674  35.327  14.975
75373W        W47099  42.753  24.694  12.127
75374W        W47100   2.535  32.558  12.974
75375W        W47101  21.431  38.915   0.405
75376W        W47102   5.792  31.073  14.861
75377W        W47103   4.718  40.462   0.354
75378W        W47104   2.393  31.970   9.870
75379W        W47105  30.179  14.886  13.545
75380W        W47106  30.962   0.430  11.496
75381W        W47107   2.617  44.943  14.451
75382W        W47108  14.216  41.262  10.545
75383W        W47109   5.338  43.014  10.695
75384W        W47110  32.962  37.860   3.881
75385W        W47111  27.405  29.124   0.747
75386W        W47112   0.684  27.481  12.940
75387W        W47113  39.884  25.794  12.005
75388W        W47114  18.154  31.349   3.179
75389W        W47115  14.605  27.175   4.208
75390W        W47116  40.956   5.364  12.156
75391W        W47117  25.465   9.512  14.447
75392W        W47118   5.409  38.005  11.448
75393W        W47119  43.152  30.498   0.719
75394W        W47120  35.811  16.171  11.927
75395W        W47121   3.924  30.839  11.127
75396W        W47122  25.628  28.539   0.016
75397W        W47123   2.218  36.501   2.225
75398W        W47124  42.399  25.110   1.709
75399W        W47125   7.861  28.129  12.876
75400W        W47126   4.172  37.958   3.170
75401W        W47127   8.327  14.374  13.096
75402W        W47128  17.389   5.308   2.153
75403W        W47129  12.294   7.870   4.462
75404W        W47130  41.468  14.564  14.242
75405W        W47131   9.933  11.896  14.948
75406W        W47132   1.253  11.706   1.275
75407W        W47133  14.859   2.479  14.393
75408W        W47134  27.460  23.311  11.034
75409W        W47135   3.006   8.280  14.682
75410W        W47136   8.631   5.262   4.576
75411W        W47137  30.694  38.271  12.431
75412W        W47138  21.685  21.165  10.633
75413W        W47139   1.719  13.808  11.197
75414W        W47140   5.064  27.872  11.946
75415W        W47141   5.513  25.928  11.670
75416W        W47142   6.146  30.279   1.294
75417W        W47143   1.002  20.144  11.503
75418W        W47144  33.132  38.522  14.405
75419W        W47145  19.788  35.619   3.150
75420W        W47146   9.712  11.229   2.406
75421W        W47147  39.907  42.269   3.738
75422W        W47148  27.587  17.960  10.635
75423W        W47149  15.810   3.792   3.183
75424W        W47150  12.797  24.759  13.404
75425W        W47151  28.918  34.537   4.642
75426W        W47152  29.426  15.177  12.225
75427W        W47153  32.864  10.866   2.861
75428W        W47154  43.774  32.218   4.041
75429W        W47155   2.886  23.468  13.374
75430W        W47156  14.875   7.929   4.520
75431W        W47157  36.035  22.158  10.694
75432W        W47158  22.757  42.327  14.353
75433W        W47159  25.612   4.566   3.838
75434W        W47160  14.705  37.878   9.805
75435W        W47161  34.374  25.940   2.774
75436W        W47162  10.249  16.421   1.186
75437W        W47163  42.506   5.220   3.325
75438W        W47164  10.743  17.574  13.298
75439W        W47165  11.934  14.723  14.657
75440W        W47166   3.486  20.470  13.994
75441W        W47167   8.840   8.819   2.364
75442W        W47168  22.459  41.559   3.298
75443W        W47169   9.561  41.722  11.896
75444W        W47170   2.775   9.117  11.049
75445W        W47171  13.080  43.186  10.459
75446W        W47172   2.220  26.285  14.407
75447W        W47173  22.972  29.589   4.912
75448W        W47174  26.130  13.860   0.492
75449W        W47175  33.068   0.900   0.342
75450W        W47176   0.999  37.061  10.618
75451W        W47177   9.131  38.630   1.212
75452W        W47178  44.755  29.399  11.647
75453W        W47179  39.551   2.746  10.691
75454W        W47180   2.361  27.768  13.611
75455W        W47181  20.737  15.231   4.644
75456W        W47182  29.982  14.564  13.198
75457W        W47183  25.284  10.158   3.961
75458W        W47184  29.318  28.464  13.390
75459W        W47185  39.288  27.681   3.824
75460W        W47186  40.310   6.040  14.891
75461W        W47187   3.420  18.222   1.755
75462W        W47188  40.118   3.740   4.256
75463W        W47189   8.748   2.017   2.130
75464W        W47190  10.003  23.200  11.137
75465W        W47191  41.989   0.050   3.279
75466W        W47192  39.612  23.474  12.989
75467W        W47193  29.586  31.637  14.471
75468W        W47194  31.218  40.850  14.018
75469W        W47195  32.447  33.485  13.477
75470W        W47196  31.029  37.933  10.607
75471W        W47197   6.705  38.973  14.897
75472W        W47198  17.061  41.317  11.110
75473W        W47199  14.276  13.519  12.710
75474W        W47200   4.666  31.422   0.480
75475W        W47201  32.089  25.535   2.843
75476W        W47202   9.340   4.474   4.787
75477W        W47203   7.414  33.805  10.859
75478W        W47204  42.786  31.974  14.367
75479W        W47205  13.049  38.646  14.527
75480W        W47206  26.021  20.046   3.732
75481W        W47207  35.542   1.729  13.775
75482W        W47208   3.139   8.074  12.006
75483W        W47209  12.296  43.030   0.204
75484W        W47210  26.611  21.682   0.129
75485W        W47211   7.063  10.637   3.010
75486W        W47212  30.266  11.766  11.546
75487W        W47213  12.694   3.930  14.497
75488W        W47214  11.563  25.637  14.824
75489W        W47215  27.260  35.170  12.959
75490W        W47216   5.400  39.858  14.428
75491W        W47217   7.813  14.853   3.898
75492W        W47218  42.719  38.443   3.903
75493W        W47219  25.454  38.507  14.322
75494W        W47220  16.580   1.500  11.225
75495W        W47221  14.075   8.454   3.707
75496W        W47222  38.381  13.317   0.915
75497W        W47223  38.077  14.315   3.384
75498W        W47224  43.226   2.512   1.915
75499W        W47225  26.472  34.610   0.832
75500W        W47226  22.812  16.638  14.864
75501W        W47227  33.547   7.317   2.136
75502W        W47228  13.852  22.049  10.472
75503W        W47229  15.751  20.310  11.160
75504W        W47230   9.973   2.399  12.330
75505W        W47231  25.478   1.971   0.643
75506W        W47232  20.637  18.783   2.726
75507W        W47233  42.048  31.694  14.964
75508W        W47234  16.724   5.716  12.582
75509W        W47235  24.725   5.121   2.295
75510W        W47236   9.315   9.748  10.746
75511W        W47237  19.271  17.113   1.195
75512W        W47238   0.394  25.674   1.864
75513W        W47239  10.872  24.189   0.660
75514W        W47240  31.188  24.726   3.160
75515W        W47241   7.114  18.150   1.773
75516W        W47242  43.738  24.707  13.357
75517W        W47243  14.358  41.979  13.419
75518W        W47244  30.581  13.773  10.708
75519W        W47245   4.002   9.837   4.938
75520W        W47246  31.433   7.558   1.884
75521W        W47247  30.617  37.033   0.014
75522W        W47248  23.637  40.598  14.382
75523W        W47249   3.155  44.363  13.518
75524W        W47250  12.387  34.071  10.849
75525W        W47251   3.817  35.118   1.686
75526W        W47252   3.231   4.886   2.790
75527W        W47253   4.181   7.251   3.259
75528W        W47254   7.414   9.660   4.573
75529W        W47255  43.456  20.595  14.049
75530W        W47256  39.606   9.794   2.428
75531W        W47257   5.150   7.606   0.938
75532W        W47258  32.376  44.246   0.769
75533W        W47259  31.408  19.872  11.099
75534W        W47260  11.286  40.529   3.344
75535W        W47261  22.507  20.680  11.230
75536W        W47262  27.812  33.392   0.277
75537W        W47263   8.689   2.492   3.368
75538W        W47264  38.590  26.028  12.014
75539W        W47265  13.686  41.007  13.282
75540W        W47266  39.359  31.101  14.781
75541W        W47267  12.096  43.507   0.191
75542W        W47268  38.373  18.056  10.897
75543W        W47269  44.334   4.181   1.932
75544W        W47270  15.806  23.209   1.798
75545W        W47271   0.037  41.466  10.734
75546W        W47272  26.224  14.126  14.283
75547W        W47273   9.765  16.572   1.420
75548W        W47274  27.999  30.051   1.627
75549W        W47275  26.588  44.953   2.666
75550W        W47276  41.014  14.249  10.701
75551W        W47277   4.928   0.684  14.905
75552W        W47278  12.172  44.480  12.376
75553W        W47279  32.495  26.236   5.052
75554W        W47280  13.435  18.065  11.572
75555W        W47281   8.501   0.740  14.982
75556W        W47282  15.809  26.752  10.265
75557W        W47283  16.887  14.815  14.061
75558W        W47284  33.436   1.317  14.590
75559W        W47285   3.868  16.240   3.088
75560W        W47286  19.535  31.247   4.047
75561W        W47287  21.105   9.440  14.513
75562W        W47288  33.051  14.135  14.038
75563W        W47289  23.045  13.545   3.866
75564W        W47290  35.603  39.411   3.818
75565W        W47291  27.053  28.000   4.894
75566W        W47292  28.110  23.953   0.870
75567W        W47293  32.061  34.804   2.433
75568W        W47294  18.078  41.572   4.283
75569W        W47295   9.101  16.553  12.003
75570W        W47296  39.780  23.213   4.534
75571W        W47297  34.145  32.373   1.288
75572W        W47298  23.764  31.938  12.831
75573W        W47299  14.341  32.634  12.699
75574W        W47300  14.383   5.402  12.943
75575W        W47301  29.851  24.194   2.844
75576W        W47302  15.274  13.587   1.819
75577W        W47303   5.812  25.651   3.362
75578W        W47304  19.881  16.752   0.386
75579W        W47305  29.906  28.716   2.444
75580W        W47306   6.990  21.122  11.496
75581W        W47307   4.961  20.483  11.988
75582W        W47308  43.466   6.712  13.574
75583W        W47309  22.599   3.435  13.527
75584W        W47310  10.598  33.694  12.418
75585W        W47311   5.611  42.625   1.345
75586W        W47312  36.872  23.586  14.811
75587W        W47313   5.093  20.746  14.844
75588W        W47314  26.637  40.464  14.922
75589W        W47315   5.675  32.857  14.870
75590W        W47316   7.890   5.301   1.416
75591W        W47317  31.447  16.116   3.695
75592W        W47318   7.682  22.890   4.093
75593W        W47319   5.425  19.125  10.606
75594W        W47320  26.265  29.056  13.010
75595W        W47321  37.348   6.639  11.144
75596W        W47322   9.937  18.247   3.149
75597W        W47323  34.006  43.318  12.596
75598W        W47324  30.962  28.110  14.701
75599W        W47325  18.033  32.179   4.982
75600W        W47326  36.505  19.866  11.518
75601W        W47327  23.931  36.063  10.609
75602W        W47328  40.900  25.303   2.283
75603W        W47329  13.703   4.345  13.466
75604W        W47330   7.923  30.406   1.363
75605W        W47331  22.907   1.315   0.334
75606W        W47332  30.898  13.727   3.289
75607W        W47333  23.470   2.443  11.150
75608W        W47334  43.361   9.586   1.301
75609W        W47335  38.562  30.912  11.619
75610W        W47336  43.526  42.367  14.836
75611W        W47337  39.924   3.717   2.366
75612W        W47338  44.846  31.669  12.137
75613W        W47339  28.056  29.200   3.686
75614W        W47340   2.969  43.955   0.494
75615W        W47341  13.299  41.434  12.133
75616W        W47342  26.499  25.620  12.842
75617W        W47343  27.343  21.308  14.420
75618W        W47344  21.802  12.752  12.455
75619W        W47345  21.500  41.943   2.902
75620W        W47346  22.155  19.986   3.670
75621W        W47347  13.266  24.760  13.629
75622W        W47348  35.847  30.058   0.176
75623W        W47349  15.168  41.211   4.566
75624W        W47350   2.157  25.730  14.882
75625W        W47351  30.488  32.935   1.037
75626W        W47352  13.538  25.007   1.819
75627W        W47353   8.730  14.644  12.544
75628W        W47354  10.319  35.913   3.329
75629W        W47355   9.310   8.852   9.947
75630W        W47356  10.758  26.122   0.782
75631W        W47357   2.033  34.864  13.721
75632W        W47358  20.544   7.732  13.023
75633W        W47359  44.015  44.564   0.373
75634W        W47360   6.230  19.924  11.825
75635W        W47361  33.358  19.282   1.360
75636W        W47362   5.267  30.081  11.560
75637W        W47363  17.301   7.462  12.687
75638W        W47364  44.335   2.720  14.399
75639W        W47365   0.386  15.242  12.409
75640W        W47366  21.666  20.084   4.483
75641W        W47367  22.847  17.151  13.054
75642W        W47368   5.831  21.136   0.897
75643W        W47369   8.909   8.741  12.501
75644W        W47370  42.610  33.643  13.806
75645W        W47371  20.612  19.041  12.430
75646W        W47372  11.818  34.135  14.944
75647W        W47373  27.134  28.840  10.770
75648W        W47374  19.843  18.145   4.111
75649W        W47375  44.807  42.226   3.797
75650W        W47376  13.041   7.696  12.528
75651W        W47377  38.529  17.984   0.865
75652W        W47378  38.306  42.841  12.988
75653W        W47379  32.877  40.927   1.231
75654W        W47380  11.675  43.507   2.680
75655W        W47381  29.661  31.347  14.879
75656W        W47382  27.094  39.520   0.190
75657W        W47383  16.268   7.289  12.545
75658W        W47384  10.025  29.752   5.022
75659W        W47385   9.798  19.597  10.755
75660W        W47386  40.350  10.330   2.947
75661W        W47387  43.008  26.644   0.665
75662W        W47388  13.286   2.254   0.502
75663W        W47389   3.638   4.873  12.422
75664W        W47390  42.434  38.545  13.419
75665W        W47391  28.708  29.566  11.120
75666W        W47392   9.038  44.206   9.878
75667W        W47393   0.772  29.708  13.283
75668W        W47394  33.728  16.075   0.210
75669W        W47395   8.021   7.757  11.086
75670W        W47396  30.972  29.468   3.184
75671W        W47397  11.617  27.910  10.954
75672W        W47398   4.196  17.804  11.700
75673W        W47399  26.492  23.689   1.456
75674W        W47400  10.867   7.645  14.842
75675W        W47401  43.556  19.543   1.396
75676W        W47402   8.191  44.772  13.452
75677W        W47403  44.925  27.446  14.418
75678W        W47404  27.225  32.173  12.142
75679W        W47405  14.341  14.375  12.862
75680W        W47406  41.801   8.295  13.916
75681W        W47407  18.274   8.602   4.462
75682W        W47408  42.819  37.375   0.796
75683W        W47409  19.339   1.463  12.593
75684W        W47410  33.587  35.517   0.891
75685W        W47411   1.977  29.529   2.853
75686W        W47412  31.034   9.966  10.665
75687W        W47413  13.562  44.585  10.718
75688W        W47414  25.637  27.228   2.303
75689W        W47415  29.939   8.692   2.626
75690W        W47416  29.748  29.864  11.584
75691W        W47417  34.534  11.237  14.882
75692W        W47418   8.341  21.018   0.251
75693W        W47419  32.649   1.863  13.903
75694W        W47420  37.578  15.593   2.805
75695W        W47421  28.429   8.268   0.232
75696W        W47422   9.260  19.791  10.669
75697W        W47423  37.221  39.483   2.889
75698W        W47424  14.247  34.969   0.889
75699W        W47425  26.560   2.561  13.616
75700W        W47426  12.144  42.471   0.888
75701W        W47427  44.923  21.060  10.583
75702W        W47428  15.117  12.673  14.406
75703W        W47429  11.347  43.958   0.748
75704W        W47430  25.280  34.877   2.655
75705W        W47431  38.489  27.025  11.884
75706W        W47432  35.384  20.116  11.479
75707W        W47433  44.202  15.238   1.364
75708W        W47434  40.715  30.996  11.737
75709W        W47435  41.997  28.385   0.701
75710W        W47436  15.039   6.166   0.920
75711W        W47437   3.017   2.690   2.758
75712W        W47438   3.018  10.798  11.609
75713W        W47439  28.683  42.843  13.038
75714W        W47440  14.449  16.569  12.995
75715W        W47441   8.837   3.729   1.451
75716W        W47442  13.163  15.450  14.129
75717W        W47443  12.256  25.541   1.177
75718W        W47444  26.968   5.145  12.469
75719W        W47445  28.512  41.036  14.339
75720W        W47446   4.774  14.240  12.627
75721W        W47447  16.204  33.091  13.435
75722W        W47448  30.343   8.222   3.894
75723W        W47449  11.714  41.379  11.737
75724W        W47450  17.569  23.378   0.309
75725W        W47451  21.602  37.974   0.242
75726W        W47452  42.007   2.766   0.509
75727W        W47453  22.573  44.888   0.354
75728W        W47454  10.669  23.117  10.302
75729W        W47455   8.762  15.563  12.056
75730W        W47456  19.629  23.209   3.362
75731W        W47457  10.657  40.777   0.785
75732W        W47458  17.451  12.562  14.311
75733W        W47459   6.344  28.301  13.696
75734W        W47460  37.960  23.614  14.377
75735W        W47461  36.980   4.560   9.972
75736W        W47462  27.391  26.556   4.114
75737W        W47463  20.785   4.629  12.318
75738W        W47464  25.266   0.937   2.053
75739W        W47465  13.680  43.292   4.913
75740W        W47466  44.293   8.398  11.164
75741W        W47467  19.450  33.338  12.662
75742W        W47468  40.268  41.156  11.253
75743W        W47469  44.779  31.864  12.617
75744W        W47470   9.788  25.084   2.848
75745W        W47471  40.582  10.520   5.260
75746W        W47472  33.840  28.031   4.446
75747W        W47473  31.485  29.507   1.002
75748W        W47474   1.499  31.470   4.815
75749W        W47475  11.597  44.004   2.827
75750W        W47476   5.416  21.979  11.156
75751W        W47477  30.836   1.600  11.211
75752W        W47478   9.666  35.922  14.724
75753W        W47479   6.472  42.831   2.189
75754W        W47480  15.530   9.357   0.380
75755W        W47481  43.800  12.202  12.259
75756W        W47482  32.111  34.479  12.731
75757W        W47483   1.845  15.220   2.663
75758W        W47484  33.417   2.255  14.345
75759W        W47485  20.953  27.613   0.844
75760W        W47486  23.820  18.171  11.059
75761W        W47487  14.569  21.134  14.453
75762W        W47488  40.429  36.032   2.757
75763W        W47489  13.085  22.639   2.323
75764W        W47490  15.591  29.527   4.322
75765W        W47491  44.031  12.822   1.378
75766W        W47492  26.223  20.364  14.375
75767W        W47493  38.702   0.006   1.743
75768W        W47494   4.993  11.277  11.157
75769W        W47495  25.468  30.089  10.655
75770W        W47496  29.910  42.344   0.861
75771W        W47497  37.009  17.996  11.614
75772W        W47498  23.091   4.649  14.267
75773W        W47499  44.235  26.624   3.749
75774W        W47500  22.307  16.606  14.898
75775W        W47501  25.708  18.032   3.188
75776W        W47502  23.432  40.389  11.567
75777W        W47503   6.703  43.845  12.912
75778W        W47504  26.278  28.128  11.156
75779W        W47505  17.316  19.237   4.189
75780W        W47506  32.350   9.759   1.130
75781W        W47507  29.429  31.192   4.091
75782W        W47508  42.067   2.879  13.475
75783W        W47509   4.761  22.413  13.377
75784W        W47510   1.342  33.762   4.819
75785W        W47511  11.256  35.582  10.247
75786W        W47512  29.422  13.876   0.359
75787W        W47513  44.751  15.274   4.157
75788W        W47514  17.742  36.529  11.240
75789W        W47515  19.206  36.327   1.460
75790W        W47516   9.267  34.485  14.452
75791W        W47517  18.256  32.582   1.838
75792W        W47518  34.593  12.677  12.596
75793W        W47519   7.403  16.256   3.519
75794W        W47520  27.969  32.103  14.057
75795W        W47521  12.208  10.525  10.219
75796W        W47522   8.643  21.628  13.545
75797W        W47523   7.316  37.146  13.386
75798W        W47524  27.997  26.626  13.335
75799W        W47525  37.308  15.595   3.228
75800W        W47526   2.449  36.840  14.822
75801W        W47527  24.902  31.040  11.547
75802W        W47528  35.629   6.278   4.152
75803W        W47529  22.268  24.091  12.044
75804W        W47530   5.238  31.037   1.009
75805W        W47531  40.068  13.760   3.689
75806W        W47532  25.422   6.009   0.888
75807W        W47533  40.208   4.135   2.282
75808W        W47534  23.236  35.081   0.896
75809W        W47535  18.900   0.733   1.326
75810W        W47536  44.547   6.215   0.949
75811W        W47537   4.133  44.535  13.454
75812W        W47538   8.680  24.628   1.624
75813W        W47539  41.971  21.060   2.897
75814W        W47540   4.752  10.433  10.675
75815W        W47541  11.749  39.967   2.267
75816W        W47542  36.776  23.472  13.943
75817W        W47543  39.060  29.196  14.390
75818W        W47544  19.093  29.391   1.635
75819W        W47545  37.814  24.634  12.984
75820W        W47546  17.999  24.172   3.349
75821W        W47547  36.770  10.539   2.342
75822W        W47548  40.020   2.356   0.906
75823W        W47549  17.714  13.298  13.937
75824W        W47550  11.326   2.336  13.442
75825W        W47551   2.413  15.889  12.425
75826W        W47552  38.864  35.549   1.239
75827W        W47553  38.998  39.990   3.089
75828W        W47554   3.272   5.242  14.245
75829W        W47555  20.740  43.495  14.009
75830W        W47556  11.345  22.540   1.375
75831W        W47557  12.555  42.255  13.451
75832W        W47558   8.056   0.334  11.783
75833W        W47559   7.963  24.435   2.865
75834W        W47560  21.792  40.043   4.007
75835W        W47561  10.375  13.762  14.930
75836W        W47562  29.911   7.640   4.179
75837W        W47563  22.528  10.387   3.157
75838W        W47564   7.175  14.768   0.732
75839W        W47565   2.237   1.378  10.548
75840W        W47566  18.784   0.342  10.604
75841W        W47567   9.701  12.823  11.660
75842W        W47568   0.550  19.765  13.476
75843W        W47569   4.935  33.918  11.177
75844W        W47570  13.624  16.879   0.653
75845W        W47571  24.713  27.531  10.616
75846W        W47572   3.471  30.489   2.700
75847W        W47573  34.681  40.357   2.180
75848W        W47574  36.880  37.670   2.792
75849W        W47575  14.887   3.001  11.513
75850W        W47576  29.871  26.817  12.075
75851W        W47577  33.584  17.080   1.623
75852W        W47578  40.867  43.452  14.993
75853W        W47579  24.017  42.296  13.569
75854W        W47580  23.163  12.373   3.294
75855W        W47581  44.232  21.130  11.856
75856W        W47582  40.470  28.675  13.863
75857W        W47583   2.452  17.499   4.914
75858W        W47584   0.181  38.876   0.953
75859W        W47585  23.441  39.379  13.885
75860W        W47586   7.494  27.927  11.518
75861W        W47587  24.259  40.829   3.229
75862W        W47588  21.804  37.631  14.379
75863W        W47589  26.476  17.713   2.334
75864W        W47590   7.453  19.058  11.707
75865W        W47591  41.011  28.886   1.345
75866W        W47592   0.803  14.451  11.119
75867W        W47593   6.079  34.374   2.872
75868W        W47594  19.473  23.735  12.991
75869W        W47595  17.973  31.355   0.471
75870W        W47596  20.091  26.185   2.812
75871W        W47597  15.730  24.833  11.617
75872W        W47598  16.304  41.084  12.946
75873W        W47599   6.466  14.603  10.213
75874W        W47600  42.077  29.426   2.505
75875W        W47601   3.199  35.775   4.154
75876W        W47602  43.493   3.351   4.569
75877W        W47603  18.640  40.112  12.911
75878W        W47604  44.135  33.406   3.188
75879W        W47605  22.467  28.395   3.282
75880W        W47606   5.824  42.426  13.770
75881W        W47607  29.535   9.220  14.409
75882W        W47608  34.355  41.091  13.207
75883W        W47609  26.210   4.309   1.251
75884W        W47610  43.448   2.185  10.439
75885W        W47611   1.264  38.821  13.771
75886W        W47612  23.947  24.625  13.081
75887W        W47613  19.978  37.732  14.257
75888W        W47614  28.655  41.946  14.101
75889W        W47615  38.928  40.000  11.994
75890W        W47616  14.579  41.832  12.955
75891W        W47617  17.674  19.545   2.443
75892W        W47618  28.718  14.703  13.037
75893W        W47619  31.576  25.004   0.251
75894W        W47620  15.291  44.393  11.492
75895W        W47621  26.988  12.842   0.419
75896W        W47622   6.756  12.525   1.003
75897W        W47623  33.477  44.643   4.963
75898W        W47624  13.300  27.580   3.346
75899W        W47625  15.579  28.614   3.922
75900W        W47626  18.996  13.391   1.315
75901W        W47627  14.598  42.432  12.547
75902W        W47628  14.147  26.461  11.004
75903W        W47629   3.748  17.717   0.119
75904W        W47630  34.683  32.742   3.665
75905W        W47631  28.234  13.330   0.866
75906W        W47632   5.664  26.565  10.561
75907W        W47633  36.773  44.836   2.252
75908W        W47634  11.561   7.210   0.795
75909W        W47635   2.135  33.039   0.862
75910W        W47636   8.843  33.822  13.373
75911W        W47637  34.072  23.407  13.525
75912W        W47638  22.255  31.490   4.405
75913W        W47639   4.802  17.214   4.045
75914W        W47640  42.974   5.856  12.520
75915W        W47641  31.635  23.152   4.150
75916W        W47642  38.517   8.243  13.528
75917W        W47643  27.662  34.946  12.712
75918W        W47644  21.205   4.236  14.853
75919W        W47645  33.155  23.711   5.047
75920W        W47646  11.436  12.691   3.835
75921W        W47647   0.727  24.547  12.099
75922W        W47648  33.860   8.695  10.638
75923W        W47649  32.076   2.212  11.086
75924W        W47650  26.530  31.051   1.691
75925W        W47651   6.783  18.120   1.363
75926W        W47652  37.233  44.035  14.881
75927W        W47653  11.694  35.181   1.688
75928W        W47654  26.802  17.853   3.666
75929W        W47655  40.848  43.304   2.435
75930W        W47656   8.228  37.436  12.047
75931W        W47657  39.025   9.896  12.326
75932W        W47658  38.020  41.349  13.406
75933W        W47659  26.974  31.156  12.960
75934W        W47660  30.904  41.800  11.761
75935W        W47661  40.270  15.785  13.502
75936W        W47662  15.087  32.211   3.968
75937W        W47663  30.067   0.743  11.864
75938W        W47664  16.525  29.845  12.173
75939W        W47665  29.524   2.909   0.254
75940W        W47666  23.065  41.313  10.528
75941W        W47667   0.742  29.893  10.709
75942W        W47668  36.471  39.768   2.245
75943W        W47669  16.734  32.698   1.831
75944W        W47670  23.117  30.617  14.811
75945W        W47671  41.312  17.224   1.385
75946W        W47672  41.903   5.703   3.272
75947W        W47673   3.329  11.973   1.304
75948W        W47674  24.716  12.302  14.614
75949W        W47675   4.240   3.824   1.266
75950W        W47676  33.203  43.824   3.997
75951W        W47677  43.914  27.510  14.364
75952W        W47678  35.648  17.284   0.715
75953W        W47679  33.887  43.353   2.869
75954W        W47680  15.546   6.488  14.288
75955W        W47681  34.658  28.227   1.454
75956W        W47682  23.258   0.269   2.274
75957W        W47683  40.773  32.693  11.159
75958W        W47684  16.791  19.830   4.017
75959W        W47685  17.106  34.598   2.300
75960W        W47686   2.658  22.578   1.705
75961W        W47687  28.387   8.383  14.333
75962W        W47688  19.028  25.083  12.778
75963W        W47689  29.732  40.102   1.116
75964W        W47690  38.436   6.641  11.073
75965W        W47691  40.697  42.043   4.992
75966W        W47692  18.303   9.428   0.741
75967W        W47693  23.052  32.938  14.042
75968W        W47694  36.647  13.301   4.148
75969W        W47695  40.989  18.330   0.469
75970W        W47696  35.381  11.772  11.127
75971W        W47697   5.327  12.995  10.137
75972W        W47698   4.388  22.665  10.904
75973W        W47699  12.297  42.336  10.632
75974W        W47700  11.448  25.121  13.529
75975W        W47701  24.044   5.236   1.873
75976W        W47702  33.608   5.202   1.951
75977W        W47703  30.493   6.302  14.422
75978W        W47704  16.152   5.512   4.076
75979W        W47705  22.758  22.293   5.179
75980W        W47706  21.051  30.885  12.377
75981W        W47707  43.431  38.014   0.367
75982W        W47708  30.994   8.335   4.148
75983W        W47709  13.734  30.691  12.872
75984W        W47710  12.314   2.694  13.466
75985W        W47711  41.287  37.930  13.837
75986W        W47712  24.735   9.805  14.002
75987W        W47713  16.201  34.624   1.888
75988W        W47714   6.698  19.566   3.847
75989W        W47715  15.041  24.071  14.448
75990W        W47716  21.229  42.331   3.352
75991W        W47717  14.634  13.187  13.925
75992W        W47718  23.078  43.769   4.208
75993W        W47719  20.605  40.971   3.947
75994W        W47720  16.773  43.204  11.006
75995W        W47721   2.902   9.658  14.068
75996W        W47722  11.589  33.476  13.599
75997W        W47723  38.537  42.362  14.687
75998W        W47724   8.723  24.738  11.510
75999W        W47725  29.309  37.248   5.031
76000W        W47726   3.223   1.763   3.666
76001W        W47727  37.674  14.314  14.205
76002W        W47728  15.703  38.567  10.169
76003W        W47729  34.049  38.489  10.744
76004W        W47730   0.418   6.639   2.688
76005W        W47731  34.353  38.135   4.570
76006W        W47732  32.373  34.186  10.610
76007W        W47733   3.371  42.195   1.564
76008W        W47734   2.928  29.110  13.907
76009W        W47735  29.416  24.376  13.022
76010W        W47736  29.982  39.758  12.958
76011W        W47737  29.548  38.009   1.358
76012W        W47738  30.393   8.787   0.891
76013W        W47739  31.001  41.470   3.838
76014W        W47740  15.105  28.044  10.646
76015W        W47741  19.717  19.033  12.338
76016W        W47742   0.315  21.800   3.762
76017W        W47743  33.480  22.074  10.628
76018W        W47744  13.734   8.128  11.657
76019W        W47745  35.978  15.778   2.285
76020W        W47746   3.523   0.766  13.070
76021W        W47747   0.498   3.866   3.882
76022W        W47748  32.036  19.229  14.430
76023W        W47749  42.256  40.393   0.009
76024W        W47750  12.259  28.035   2.398
76025W        W47751  16.041  41.930  10.636
76026W        W47752   6.173  38.016  13.038
76027W        W47753  11.188   1.985   3.756
76028W        W47754   4.266   2.033   1.225
76029W        W47755  43.253  42.609  10.547
76030W        W47756  35.552  11.761   0.843
76031W        W47757  16.070  22.539  10.649
76032W        W47758  26.147   0.894  10.722
76033W        W47759  43.513  17.351  12.593
76034W        W47760  28.159  19.654  10.606
76035W        W47761  33.947   3.383   0.286
76036W        W47762  33.192  44.878  12.151
76037W        W47763   5.023  36.381  11.982
76038W        W47764  23.206  33.190   2.411
76039W        W47765  27.901  20.405   3.659
76040W        W47766  32.285  42.571  10.648
76041W        W47767   6.401  27.629  12.519
76042W        W47768  10.795  17.009  11.990
76043W        W47769  32.096  18.651  14.712
76044W        W47770   3.714   7.379  14.984
76045W        W47771   2.819  29.109   0.718
76046W        W47772  15.177   1.655  12.997
76047W        W47773  22.049  32.523  11.728
76048W        W47774   9.374  17.300   3.957
76049W        W47775   1.067  24.621  14.805
76050W        W47776  18.992   7.175   0.663
76051W        W47777  18.202   3.912   4.121
76052W        W47778  41.963  43.656   3.074
76053W        W47779  34.698   7.393  13.530
76054W        W47780  19.680  23.080  14.504
76055W        W47781   7.782  39.038   1.300
76056W        W47782  36.580  15.628   1.456
76057W        W47783  19.265  15.731   4.743
76058W        W47784  34.053   2.815   4.816
76059W        W47785  32.614   4.584   1.934
76060W        W47786  21.784  31.683   3.690
76061W        W47787  20.362   5.157  10.583
76062W        W47788  21.653  13.555   2.277
76063W        W47789   0.182  12.088   0.982
76064W        W47790  10.215  34.184  14.453
76065W        W47791  42.766  27.860  11.020
76066W        W47792  25.058   7.215   2.390
76067W        W47793  13.083  17.298   0.436
76068W        W47794   2.693  21.570  13.438
76069W        W47795  17.819   7.743   1.875
76070W        W47796  27.215  31.124  11.399
76071W        W47797  12.947   3.908   3.198
76072W        W47798  44.006  26.515  10.188
76073W        W47799  23.709   5.206  11.943
76074W        W47800  26.267  36.798   4.530
76075W        W47801  44.818  34.517   0.301
76076W        W47802  19.252  40.408   2.714
76077W        W47803  44.761  17.266  10.493
76078W        W47804  26.032  25.452  12.878
76079W        W47805  28.472  25.671  14.070
76080W        W47806  16.772   2.450  14.500
76081W        W47807  13.934   5.078  13.148
76082W        W47808   3.475  31.961   3.649
76083W        W47809  17.583   3.998   3.712
76084W        W47810  36.397  16.584   4.634
76085W        W47811  10.642  42.691  11.099
76086W        W47812  37.388  38.901   2.373
76087W        W47813  30.482  27.467  13.518
76088W        W47814  42.133  44.940  11.067
76089W        W47815   3.940  24.048  13.299
76090W        W47816  17.572  31.011   3.819
76091W        W47817  24.585  23.045   4.607
76092W        W47818  10.638  14.917   1.612
76093W        W47819   4.847  21.556  12.333
76094W        W47820   5.125  30.323   4.218
76095W        W47821  37.380  37.351  12.527
76096W        W47822  25.152   2.786  12.850
76097W        W47823  13.205  42.807  10.854
76098W        W47824  38.881   8.235  11.203
76099W        W47825  18.093  15.358   1.798
76100W        W47826  24.707  37.473   4.126
76101W        W47827  37.726  14.383   1.915
76102W        W47828  11.849   7.657   0.883
76103W        W47829  18.719   8.697  10.282
76104W        W47830  30.023   9.101  10.531
76105W        W47831  10.677  27.494   2.230
76106W        W47832  16.512   0.759  14.262
76107W        W47833  20.760  14.633  10.268
76108W        W47834  32.986  25.448  12.028
76109W        W47835  37.055  19.006  11.394
76110W        W47836  40.064  19.633   1.823
76111W        W47837  10.167  30.634   0.764
76112W        W47838   3.052  28.667   0.847
76113W        W47839  37.341  39.494   3.908
76114W        W47840   8.145   7.101  11.502
76115W        W47841   8.790  37.165   4.248
76116W        W47842  33.039   3.168   2.171
76117W        W47843   5.036  39.007   3.821
76118W        W47844   9.045  37.596   5.028
76119W        W47845   0.309  29.481  10.638
76120W        W47846  37.037  34.456   3.607
76121W        W47847  12.665  21.266  10.234
76122W        W47848   1.408  44.103  12.941
76123W        W47849  39.445  36.400  10.652
76124W        W47850   1.435  19.317  11.984
76125W        W47851  27.394  19.318   0.409
76126W        W47852   2.735   8.880   0.384
76127W        W47853  27.521  27.090  10.690
76128W        W47854  10.293  37.299   2.766
76129W        W47855   2.499  22.764  11.089
76130W        W47856   8.706  28.130  10.744
76131W        W47857  20.503  23.009   4.254
76132W        W47858   2.722  38.561   1.005
76133W        W47859  19.720  37.873   0.309
76134W        W47860  37.242  24.180  10.991
76135W        W47861  41.865  30.539   0.533
76136W        W47862  18.838   9.155   3.171
76137W        W47863  17.686  33.519   2.679
76138W        W47864  16.676  36.442   0.799
76139W        W47865   8.658  38.820   4.601
76140W        W47866   3.533  23.433   0.500
76141W        W47867   4.541  39.698  10.447
76142W        W47868  24.952  22.282   2.156
76143W        W47869  33.891  33.550   4.623
76144W        W47870  11.534  12.550   4.324
76145W        W47871  16.814  17.230   0.268
76146W        W47872  29.085  17.676  11.117
76147W        W47873  18.335   1.363  10.501
76148W        W47874  33.001  38.821  10.929
76149W        W47875  44.787   7.768  12.220
76150W        W47876  18.417  18.632   1.767
76151W        W47877  35.953   6.733  14.003
76152W        W47878  39.005  38.443   2.135
76153W        W47879  23.776   3.709   4.652
76154W        W47880  37.149  28.918   0.836
76155W        W47881  19.802  35.870  14.397
76156W        W47882  33.828  18.240  14.854
76157W        W47883  19.616   8.649  14.945
76158W        W47884   5.510  34.129   3.695
76159W        W47885  17.397  21.127   1.451
76160W        W47886  12.146  15.668  14.221
76161W        W47887  25.643  24.454   4.536
76162W        W47888  32.753  37.414  11.497
76163W        W47889  37.069   0.558  12.517
76164W        W47890  21.421  15.568   2.676
76165W        W47891   0.556  25.357   2.698
76166W        W47892  39.422  19.082   2.055
76167W        W47893   7.610  18.149   4.496
76168W        W47894  39.693   8.789   2.798
76169W        W47895  39.950  12.793   3.673
76170W        W47896  14.756  27.756  12.803
76171W        W47897  17.675  18.089  12.956
76172W        W47898  36.397  41.792  14.560
76173W        W47899  14.985  26.248   1.251
76174W        W47900  23.037  13.394   4.759
76175W        W47901  12.628   3.850  13.966
76176W        W47902  36.131  44.304   1.953
76177W        W47903  32.083  17.673  11.073
76178W        W47904  42.609  29.231   3.661
76179W        W47905   0.957  11.829  10.408
76180W        W47906   5.619   9.892   1.303
76181W        W47907  35.096   6.927   3.781
76182W        W47908   0.741   8.281  13.121
76183W        W47909   1.871   2.831  10.897
76184W        W47910  18.691  33.593   0.294
76185W        W47911  42.953  14.735   4.620
76186W        W47912   1.674   7.348   2.735
76187W        W47913  29.396   3.650  12.894
76188W        W47914  31.009  37.124  12.820
76189W        W47915  38.287   6.284  10.618
76190W        W47916  20.664  37.153   3.138
76191W        W47917   0.372  20.473   0.454
76192W        W47918  15.513  29.101  11.963
76193W        W47919   3.571  36.286  14.948
76194W        W47920   8.702   8.869   4.834
76195W        W47921  44.869  43.772   0.998
76196W        W47922  32.413  33.589   1.915
76197W        W47923   1.683  36.781   4.498
76198W        W47924  33.955  30.475   4.690
76199W        W47925  25.689  33.032   2.458
76200W        W47926  30.185  32.514   0.978
76201W        W47927  25.016   8.866   1.057
76202W        W47928   9.474  10.106   1.252
76203W        W47929  19.577   4.802   0.837
76204W        W47930  40.472  37.033   3.817
76205W        W47931  20.242   3.230   0.391
76206W        W47932  16.706  19.641  12.416
76207W        W47933  33.739  28.590   3.321
76208W        W47934  37.839  32.633   0.361
76209W        W47935  44.610  37.082  12.032
76210W        W47936  35.585  22.250  13.556
76211W        W47937   7.366  34.158   2.471
76212W        W47938  33.065  11.364  10.610
76213W        W47939  38.087  12.417  14.871
76214W        W47940  34.682  35.889   1.900
76215W        W47941  17.549  22.103  11.464
76216W        W47942  35.106  19.221  11.624
76217W        W47943  42.552  27.935  13.536
76218W        W47944  12.725  22.563  10.760
76219W        W47945  20.526  20.587   4.587
76220W        W47946  10.824  35.999   4.027
76221W        W47947  27.441   6.346   4.588
76222W        W47948  34.300  28.187  14.881
76223W        W47949  35.077  14.233   4.625
76224W        W47950  14.736  10.388   1.322
76225W        W47951  40.246  14.978  14.685
76226W        W47952  39.606   2.335  14.802
76227W        W47953  17.647  28.210  11.527
76228W        W47954  15.278  19.928  14.979
76229W        W47955  24.163  31.059   2.210
76230W        W47956  17.079  22.131  11.688
76231W        W47957  12.181  21.062   1.729
76232W        W47958  30.637  25.738  12.068
76233W        W47959  10.872  33.333   3.265
76234W        W47960  21.025  41.249   4.202
76235W        W47961  31.524  34.283   0.849
76236W        W47962  17.007  24.694  12.891
76237W        W47963   8.647   5.850   3.250
76238W        W47964   9.660   3.895   2.077
76239W        W47965  30.726  24.580  13.708
76240W        W47966   3.340   9.700  14.390
76241W        W47967   6.656   1.488   0.816
76242W        W47968   6.402  31.399  10.970
76243W        W47969   8.707  24.972   2.027
76244W        W47970  15.062  30.315   3.814
76245W        W47971  32.605   4.944   2.296
76246W        W47972  20.782  25.009   4.288
76247W        W47973  25.249  37.349  13.117
76248W        W47974  27.667  26.578  10.556
76249W        W47975   0.238   4.253   3.649
76250W        W47976  14.621   6.525  14.150
76251W        W47977  12.827  39.520   0.416
76252W        W47978  41.853   1.968  13.917
76253W        W47979  11.728   7.334   4.586
76254W        W47980  21.311   5.296  10.820
76255W        W47981  25.428  32.735   4.535
76256W        W47982   3.408  38.962  12.322
76257W        W47983  10.720  26.483  11.936
76258W        W47984  39.786  10.764  12.978
76259W        W47985  39.503  35.134   3.688
76260W        W47986   5.305  17.722  14.225
76261W        W47987  16.234  33.957  11.023
76262W        W47988   1.840  27.542  14.907
76263W        W47989  16.295   2.775  14.501
76264W        W47990  31.282  19.075  11.292
76265W        W47991  42.438  23.747   4.405
76266W        W47992   3.423  21.465   2.220
76267W        W47993   3.700  36.379  11.702
76268W        W47994  25.557   7.374  14.488
76269W        W47995   0.443  31.426  11.502
76270W        W47996  40.042  38.147  12.153
76271W        W47997   0.887  19.125  10.531
76272W        W47998   1.972  34.955   0.969
76273W        W47999  17.353  11.747   4.623
76274W        W48000  37.052  10.685   2.808
76275W        W48001  18.061  26.259   0.337
76276W        W48002  20.621  23.587   1.719
76277W        W48003  19.784  42.054   1.919
76278W        W48004   7.778  21.566  10.513
76279W        W48005   7.209  34.807   3.842
76280W        W48006   2.967  27.513  12.548
76281W        W48007  44.005  14.398  14.047
76282W        W48008  42.241   4.926  12.979
76283W        W48009  26.640  26.706   0.777
76284W        W48010  24.606   1.442   2.700
76285W        W48011  27.524  27.592  10.848
76286W        W48012   5.848  42.864   0.047
76287W        W48013  10.294   6.424   4.643
76288W        W48014  43.888  39.568   4.012
76289W        W48015   8.975  42.037   3.178
76290W        W48016   1.387  44.252   4.170
76291W        W48017  44.347  18.158   0.908
76292W        W48018   1.425   6.318  12.575
76293W        W48019   7.920   0.933   1.446
76294W        W48020  44.073   3.600   2.851
76295W        W48021   7.170  40.017  13.172
76296W        W48022  17.612   1.794   1.255
76297W        W48023   2.346  22.948   0.016
76298W        W48024  37.045  32.928   1.384
76299W        W48025  17.690  37.050   2.141
76300W        W48026  12.237  13.622  13.501
76301W        W48027  41.736   3.018   4.159
76302W        W48028  24.122  10.743  11.602
76303W        W48029   0.841   9.237  12.189
76304W        W48030  11.174  12.714   4.685
76305W        W48031  32.477  23.562   2.276
76306W        W48032  23.815   0.435  13.570
76307W        W48033  27.005  16.799   0.432
76308W        W48034  36.926  40.280   4.059
76309W        W48035  22.689  43.963  12.856
76310W        W48036   2.343  42.522  14.537
76311W        W48037  43.003   3.114   1.483
76312W        W48038  30.723  21.023   4.807
76313W        W48039  44.560   6.896   2.863
76314W        W48040   4.300   6.324  11.980
76315W        W48041  30.928  14.573   4.667
76316W        W48042   2.417   8.008   1.802
76317W        W48043  39.117  36.387  11.478
76318W        W48044  40.036  34.846  12.425
76319W        W48045  40.430  33.644   1.978
76320W        W48046  18.608   1.576   4.045
76321W        W48047  11.666  23.826   5.124
76322W        W48048  14.389  39.772  11.442
76323W        W48049  11.952  16.075   2.349
76324W        W48050  12.313  21.503   4.113
76325W        W48051  41.431  36.351  12.936
76326W        W48052  33.348   0.310  12.405
76327W        W48053   2.944  29.939  14.400
76328W        W48054  21.077  11.167   2.376
76329W        W48055   9.818  22.488   4.558
76330W        W48056  39.800  35.598   2.220
76331W        W48057   2.794  15.067   2.673
76332W        W48058  19.114  43.514   1.793
76333W        W48059  11.239   1.231   2.932
76334W        W48060  12.852  22.103  11.525
76335W        W48061  22.273   2.358   3.460
76336W        W48062  10.568   0.380  11.170
76337W        W48063  21.702  33.373  10.043
76338W        W48064  23.631  32.386   1.686
76339W        W48065   5.394  24.620  10.469
76340W        W48066  25.601  15.535   1.272
76341W        W48067  27.691  20.297   1.391
76342W        W48068  30.562   0.710  12.390
76343W        W48069  34.632  27.565  12.901
76344W        W48070  41.646  10.682   1.781
76345W        W48071  17.690  22.190  13.461
76346W        W48072  39.228  36.955  12.996
76347W        W48073  31.534  24.606  10.202
76348W        W48074  27.174   5.702  11.617
76349W        W48075  44.545   6.847  14.752
76350W        W48076  32.010  14.327   4.561
76351W        W48077  17.093  10.358  12.456
76352W        W48078   0.342  39.546  13.093
76353W        W48079  14.489  33.983   2.344
76354W        W48080  25.187  28.584   0.288
76355W        W48081   3.577   0.960   3.259
76356W        W48082  14.355  37.556   2.305
76357W        W48083  33.869   6.853  11.172
76358W        W48084  24.845  16.160   3.299
76359W        W48085   1.241  18.586  14.389
76360W        W48086  14.443   6.099  11.264
76361W        W48087  31.885  32.616   1.750
76362W        W48088  33.534  30.495   3.216
76363W        W48089  44.449  15.171  13.866
76364W        W48090  10.471   1.870  14.413
76365W        W48091  13.898  31.877  11.869
76366W        W48092   0.923  16.814  14.905
76367W        W48093   5.552   2.753  14.440
76368W        W48094  19.295  12.820   0.415
76369W        W48095   1.818  33.960  10.641
76370W        W48096  40.261   3.215  12.257
76371W        W48097  26.718  36.586  11.545
76372W        W48098  22.951   9.444  13.335
76373W        W48099  41.438  43.701   2.991
76374W        W48100  38.616  24.916   1.118
76375W        W48101  16.856   8.062   0.240
76376W        W48102  27.088   3.120  10.585
76377W        W48103   8.673  27.716   0.482
76378W        W48104  15.914   8.837  14.000
76379W        W48105  27.263   8.421   3.630
76380W        W48106  29.137  39.180   0.300
76381W        W48107  13.701  10.065   0.918
76382W        W48108  26.976  17.570   2.263
76383W        W48109  27.874   4.666   4.621
76384W        W48110  26.351  11.729  12.084
76385W        W48111  20.823   8.095  10.913
76386W        W48112  42.717  15.824   2.660
76387W        W48113  21.978  25.081   3.094
76388W        W48114   5.616  22.530  11.637
76389W        W48115  32.084  18.544  14.224
76390W        W48116  35.502  11.279   1.057
76391W        W48117   9.146   3.387  13.553
76392W        W48118  27.473  19.576   0.863
76393W        W48119  10.403  16.747  14.865
76394W        W48120   2.672  23.019   1.439
76395W        W48121  37.783   2.450  14.602
76396W        W48122  31.637   5.085  13.447
76397W        W48123  10.940  30.232   2.315
76398W        W48124  30.056   2.475  14.884
76399W        W48125  30.699  12.562  14.905
76400W        W48126  12.252  26.713  14.883
76401W        W48127  24.498   6.806   0.341
76402W        W48128  18.348  42.030   0.215
76403W        W48129   2.962  11.669  14.288
76404W        W48130  31.193  43.274  14.602
76405W        W48131  25.788  42.354   3.537
76406W        W48132  25.175  20.602  12.675
76407W        W48133   3.339  40.444   4.887
76408W        W48134  19.777  44.556  13.065
76409W        W48135  43.189  31.163   4.102
76410W        W48136  17.762  16.763  11.642
76411W        W48137  33.779   8.948  13.466
76412W        W48138  27.460   0.973  12.036
76413W        W48139  33.851   2.476   4.470
76414W        W48140  29.909  23.269  11.594
76415W        W48141   0.518  36.202  10.629
76416W        W48142  43.038  33.582  11.527
76417W        W48143  31.569  22.625   3.895
76418W        W48144  43.990  40.389   4.834
76419W        W48145   5.633   4.004  13.503
76420W        W48146  25.997   8.377   0.891
76421W        W48147  13.787  17.509  14.432
76422W        W48148  21.067  15.279  11.131
76423W        W48149  12.915  44.865   0.513
76424W        W48150  39.397  42.527  11.615
76425W        W48151  11.785  40.022   0.774
76426W        W48152  32.017  15.312   1.030
76427W        W48153   2.806  28.390   3.828
76428W        W48154   1.747  14.613   3.648
76429W        W48155   0.926  20.353   3.625
76430W        W48156   8.403  23.245  12.062
76431W        W48157  30.732   6.241   2.749
76432W        W48158  33.916  16.718   2.800
76433W        W48159   7.315  17.582   0.039
76434W        W48160  17.666  20.175  14.692
76435W        W48161  37.445   4.910  11.211
76436W        W48162  17.702  24.639  13.532
76437W        W48163  38.679  11.458   0.701
76438W        W48164  43.214   8.823   2.015
76439W        W48165  22.207   9.825   4.250
76440W        W48166  18.772   8.255   1.270
76441W        W48167   5.340  21.827   3.759
76442W        W48168  32.329   5.790   4.871
76443W        W48169  30.723   0.897  14.842
76444W        W48170  11.333  32.573  11.937
76445W        W48171  15.841   1.919  12.467
76446W        W48172  41.872  26.111   3.766
76447W        W48173  42.170  19.561  10.466
76448W        W48174  26.598   9.158  13.851
76449W        W48175  35.586  20.085   2.408
76450W        W48176   2.864   4.347   4.183
76451W        W48177  31.102  21.250  11.164
76452W        W48178  17.857  39.111   0.732
76453W        W48179  22.100  28.198  10.559
76454W        W48180  14.377   4.845  14.720
76455W        W48181  22.146   0.123   3.354
76456W        W48182   9.935  35.420  12.039
76457W        W48183  42.837  25.257  10.982
76458W        W48184  22.806  34.514   0.217
76459W        W48185  36.792  25.048   3.894
76460W        W48186  22.202  31.550  13.518
76461W        W48187  29.133  37.506  14.319
76462W        W48188  37.394  11.289  10.032
76463W        W48189  30.586  10.273  11.527
76464W        W48190  30.719  28.268  13.398
76465W        W48191  43.376  43.764  12.817
76466W        W48192   9.822  38.585   4.436
76467W        W48193  24.016  33.947  10.664
76468W        W48194  12.659  13.620  12.577
76469W        W48195  11.766  22.221   1.372
76470W        W48196  30.238  31.077  13.357
76471W        W48197  17.060  19.998   1.005
76472W        W48198  29.576  10.045   0.956
76473W        W48199  11.358   5.196  10.811
76474W        W48200   9.578  30.908   3.114
76475W        W48201  32.094  12.740  12.488
76476W        W48202  43.445   6.936  12.559
76477W        W48203  16.360  36.083  12.190
76478W        W48204   8.133  36.814   2.641
76479W        W48205  37.356   7.557  10.181
76480W        W48206  43.879  35.167  13.131
76481W        W48207  33.565  40.309   5.030
76482W        W48208  35.469   3.943   1.403
76483W        W48209  21.498  20.152  12.681
76484W        W48210   2.924  30.553   1.350
76485W        W48211  33.593  20.041   4.413
76486W        W48212  44.281  18.251  12.316
76487W        W48213  25.549  12.845  14.828
76488W        W48214  40.446  33.323   3.705
76489W        W48215  26.160  27.409   4.316
76490W        W48216  19.047   4.300  10.688
76491W        W48217  27.647   4.408   1.315
76492W        W48218  20.780  11.541  13.869
76493W        W48219  34.015   9.634   2.810
76494W        W48220   7.847  34.554   5.111
76495W        W48221  14.027   1.396   0.673
76496W        W48222   3.448  44.867   4.929
76497W        W48223   2.157  32.140   4.170
76498W        W48224  37.586  28.151   0.406
76499W        W48225  16.289   1.730  14.381
76500W        W48226  16.683  22.277   3.820
76501W        W48227  44.854  13.882  13.783
76502W        W48228  10.807   6.907   4.848
76503W        W48229  17.522  43.409  12.875
76504W        W48230  27.598  16.729   4.565
76505W        W48231   1.707  41.497  12.462
76506W        W48232  15.508  31.530   1.346
76507W        W48233  23.483  24.620  14.888
76508W        W48234   3.151   1.271   3.210
76509W        W48235   0.366  44.493   0.503
76510W        W48236  29.997  23.503  12.038
76511W        W48237  10.361   9.860   3.223
76512W        W48238  18.762  17.510  10.921
76513W        W48239  15.627  43.793  10.869
76514W        W48240  10.921  21.766  12.508
76515W        W48241  17.668  17.283   1.423
76516W        W48242  41.075  22.051  13.574
76517W        W48243  19.264  42.464   4.567
76518W        W48244  24.380  36.143  13.942
76519W        W48245  19.597   3.778  12.295
76520W        W48246  33.651   6.278  13.886
76521W        W48247  28.237  28.428  11.423
76522W        W48248   3.432  16.194   1.234
76523W        W48249  34.024  28.382   0.669
76524W        W48250  12.949  26.779  13.227
76525W        W48251  19.282   0.194  13.442
76526W        W48252   9.921  39.867  13.322
76527W        W48253  31.912  18.641   4.120
76528W        W48254  36.883  17.788  10.719
76529W        W48255   8.776  11.334   2.961
76530W        W48256   4.440  12.629   0.294
76531W        W48257  20.412  27.049  11.226
76532W        W48258  24.497  14.910  11.121
76533W        W48259   9.870   0.474  12.511
76534W        W48260  21.588  14.023  10.038
76535W        W48261   7.942   8.420   2.845
76536W        W48262  44.310  42.288  11.582
76537W        W48263   8.244  15.770   4.747
76538W        W48264  15.367  38.907  11.758
76539W        W48265  27.906  34.674  14.926
76540W        W48266  15.210  32.494   1.879
76541W        W48267  25.492  13.366  13.456
76542W        W48268  31.555  36.860  11.666
76543W        W48269   6.425   8.789  14.271
76544W        W48270   2.008  31.338   1.356
76545W        W48271  41.870  32.426   4.923
76546W        W48272  33.440   8.407   3.697
76547W        W48273  12.735  34.701   2.261
76548W        W48274   1.835  39.466  11.712
76549W        W48275  32.442  29.075   0.945
76550W        W48276  13.127  20.127   2.640
76551W        W48277  36.371  11.635   4.087
76552W        W48278  32.930  23.037   1.686
76553W        W48279  12.786  16.559   0.498
76554W        W48280  16.124   3.867   2.451
76555W        W48281   9.135  22.578  10.981
76556W        W48282   5.443  41.099  12.067
76557W        W48283   0.741  38.300  11.671
76558W        W48284  38.905   5.359  14.526
76559W        W48285  12.970   0.141  11.154
76560W        W48286  32.494   8.249   0.318
76561W        W48287  42.474  15.303  10.638
76562W        W48288  24.579   5.700  13.571
76563W        W48289  44.385   4.550   4.732
76564W        W48290  28.357   0.789   3.814
76565W        W48291  28.154  22.586   4.668
76566W        W48292  34.275  18.214   4.752
76567W        W48293   6.080  35.189  13.045
76568W        W48294  19.597  22.460  11.214
76569W        W48295   2.022  10.465   3.340
76570W        W48296   8.072   2.317  11.162
76571W        W48297   0.830  22.216   0.761
76572W        W48298  11.369  35.921  12.766
76573W        W48299  14.865  43.909   0.400
76574W        W48300  38.995  37.539  13.557
76575W        W48301  16.119  11.763  14.428
76576W        W48302  27.162   7.190  11.612
76577W        W48303  11.419  37.620  13.035
76578W        W48304  34.351  23.599  13.104
76579W        W48305  12.383  25.531   3.547
76580W        W48306  13.357   7.178   9.585
76581W        W48307  13.201  29.270  11.775
76582W        W48308  25.860  37.792   0.743
76583W        W48309  33.859  36.338  11.074
76584W        W48310  19.859  34.565   0.720
76585W        W48311  26.505  32.444  11.698
76586W        W48312  21.966  23.015  12.897
76587W        W48313  29.574  39.385  14.468
76588W        W48314  34.823  16.113  10.598
76589W        W48315  38.689  42.501  11.931
76590W        W48316   0.941   4.945  11.133
76591W        W48317  13.895  44.540   2.845
76592W        W48318  26.681  35.464   2.448
76593W        W48319   0.209  44.111   0.806
76594W        W48320  10.075  31.974  12.641
76595W        W48321   0.678  39.907  11.108
76596W        W48322  12.021  23.041   1.691
76597W        W48323  31.714  15.786   2.231
76598W        W48324  11.385   9.640   3.252
76599W        W48325  33.652  17.386  13.276
76600W        W48326   7.825   8.410  12.545
76601W        W48327   1.925  19.619   1.229
76602W        W48328  20.659  43.364  11.175
76603W        W48329  12.771  35.104  12.466
76604W        W48330  33.950  36.086  12.857
76605W        W48331  38.669  40.103  12.914
76606W        W48332  14.570  44.450  14.441
76607W        W48333  34.136  24.217   3.397
76608W        W48334  23.119  27.304  12.607
76609W        W48335  25.180  12.370   3.441
76610W        W48336  42.399  18.297  11.786
76611W        W48337  36.324  39.836   0.918
76612W        W48338  21.049   7.324  10.300
76613W        W48339  32.981  27.241  13.926
76614W        W48340  33.520  24.977   0.422
76615W        W48341  41.988  31.949   1.859
76616W        W48342  43.666   5.300  12.427
76617W        W48343   2.675  16.679   4.140
76618W        W48344  11.995  25.570   2.705
76619W        W48345  28.807  25.166  12.049
76620W        W48346  16.280  16.566  13.547
76621W        W48347  32.904   8.317  11.444
76622W        W48348  26.039  10.869   2.669
76623W        W48349  14.564  39.931  10.686
76624W        W48350  19.089  23.426  14.570
76625W        W48351  17.680   0.799   4.616
76626W        W48352   1.670  22.105   1.197
76627W        W48353   6.418  13.603  12.929
76628W        W48354  23.240  24.116  14.075
76629W        W48355  15.776   2.060  13.540
76630W        W48356  15.639  27.014   2.059
76631W        W48357  26.796  32.852   4.647
76632W        W48358  34.853  41.300   0.309
76633W        W48359  12.835  12.842  10.994
76634W        W48360  10.528  43.744  14.402
76635W        W48361  34.794  26.029   1.478
76636W        W48362  20.565  12.730   4.618
76637W        W48363  28.040  20.811  12.080
76638W        W48364  10.089  13.104  11.996
76639W        W48365  44.446  38.671   1.928
76640W        W48366  17.513  31.999   0.256
76641W        W48367   2.833  13.884   3.303
76642W        W48368   8.079  23.665   5.026
76643W        W48369  24.539   2.995   4.442
76644W        W48370  43.898  18.304   3.996
76645W        W48371  27.078  19.697   1.452
76646W        W48372   0.768  36.335  12.223
76647W        W48373   4.741   8.337   2.724
76648W        W48374  22.480  39.499   1.479
76649W        W48375   8.756  31.558  12.480
76650W        W48376  22.118  25.488   2.720
76651W        W48377  37.879  22.694  10.637
76652W        W48378  26.936  25.915   0.439
76653W        W48379  42.899  24.540  12.629
76654W        W48380  23.570  29.567  14.589
76655W        W48381  35.520  22.067  10.699
76656W        W48382  18.341  22.607   0.988
76657W        W48383  42.777   2.300   1.867
76658W        W48384  26.665  27.218  10.472
76659W        W48385  33.467  28.475  13.418
76660W        W48386  41.024  34.290  14.389
76661W        W48387  29.889  20.684  14.547
76662W        W48388  42.156  42.992   0.175
76663W        W48389  34.880   6.168  12.778
76664W        W48390  42.012   1.435  12.426
76665W        W48391  18.546  42.410   1.887
76666W        W48392  44.163  25.692  12.974
76667W        W48393  16.243  15.882   3.187
76668W        W48394  25.628   9.644   3.100
76669W        W48395   6.338  31.191   0.473
76670W        W48396  31.462  10.856   1.823
76671W        W48397  41.388  32.322   0.956
76672W        W48398  17.512  28.920  12.039
76673W        W48399   6.814   3.816  12.732
76674W        W48400   7.029  38.420  13.816
76675W        W48401  13.356  16.729  11.548
76676W        W48402   7.262  10.394  11.155
76677W        W48403  19.320  13.782   1.248
76678W        W48404   4.380   5.743  10.716
76679W        W48405  26.003  22.249   1.262
76680W        W48406  31.842  44.054   9.843
76681W        W48407  42.670  19.592   3.628
76682W        W48408  22.980  40.023   1.399
76683W        W48409  22.771  19.366  12.483
76684W        W48410   1.847  31.703   3.603
76685W        W48411  15.263   6.240   4.488
76686W        W48412  38.435  41.201   3.117
76687W        W48413  40.679  22.630  14.946
76688W        W48414  13.825  29.634   3.274
76689W        W48415  21.753  36.304   4.714
76690W        W48416   0.484  33.383   1.546
76691W        W48417   6.176   0.928  11.589
76692W        W48418  13.788  38.884   1.098
76693W        W48419   8.286  16.085  11.512
76694W        W48420  17.228  40.638  12.538
76695W        W48421   6.188  33.865  10.707
76696W        W48422  25.386  11.199  10.746
76697W        W48423  40.652   1.935  14.393
76698W        W48424   8.038  32.779   3.734
76699W        W48425  34.122  34.158   1.511
76700W        W48426  35.827  36.777  11.705
76701W        W48427  41.305  42.943  14.215
76702W        W48428   6.732   6.867   5.032
76703W        W48429  12.480  36.989   1.208
76704W        W48430  25.157  28.689   1.658
76705W        W48431  24.631  25.687  11.878
76706W        W48432   2.191  13.540   1.475
76707W        W48433  30.690   2.275   3.648
76708W        W48434  25.992  21.794   4.176
76709W        W48435  41.971   1.692   4.648
76710W        W48436  38.504  24.567  12.382
76711W        W48437  44.841  28.570   0.816
76712W        W48438  30.491  15.345   4.582
76713W        W48439  19.040  28.577   2.079
76714W        W48440   1.220  32.610  11.109
76715W        W48441  14.028  29.295   5.103
76716W        W48442   8.459  21.059   1.696
76717W        W48443  29.287   5.158  14.955
76718W        W48444  26.390  32.053   0.376
76719W        W48445   1.282  36.238   3.786
76720W        W48446  28.240  27.994  13.022
76721W        W48447  41.080  16.548  12.891
76722W        W48448  34.714  44.290  11.232
76723W        W48449  36.938  39.025  11.574
76724W        W48450  40.727  15.158   0.240
76725W        W48451  17.495  40.189   5.064
76726W        W48452  43.237  11.980   1.013
76727W        W48453   4.006  29.268   1.824
76728W        W48454   2.989  17.099   4.119
76729W        W48455  44.019  28.638   1.159
76730W        W48456  31.118  26.499   3.793
76731W        W48457  37.623  18.344   0.844
76732W        W48458  22.134  15.607  10.495
76733W        W48459  16.762  34.418   3.794
76734W        W48460  28.848  24.068  10.873
76735W        W48461  38.092  42.947  14.009
76736W        W48462   0.776   3.804   2.148
76737W        W48463  32.567  32.806   0.909
76738W        W48464  33.030  16.538   4.058
76739W        W48465  24.621  13.553   1.289
76740W        W48466  16.803  19.110  12.112
76741W        W48467  36.501  32.577   1.829
76742W        W48468  12.396  15.046   4.344
76743W        W48469  42.737   9.632  12.885
76744W        W48470  19.649  25.074   1.888
76745W        W48471  44.973  26.047  13.036
76746W        W48472   2.100   3.435  14.345
76747W        W48473   6.815  13.512  11.075
76748W        W48474  43.650  14.903  11.164
76749W        W48475  29.403  39.538  13.119
76750W        W48476  12.491   6.127  14.009
76751W        W48477  10.708  14.564   4.292
76752W        W48478  37.613  37.826  12.468
76753W        W48479  14.250   3.031  14.895
76754W        W48480  34.202  37.886  14.800
76755W        W48481  22.293   0.318   0.399
76756W        W48482   7.130  18.980  14.663
76757W        W48483  15.598  13.845  12.501
76758W        W48484  10.479   5.433  13.913
76759W        W48485  41.907  11.880  14.737
76760W        W48486  18.628  39.379   4.666
76761W        W48487  37.931   2.199   1.760
76762W        W48488  41.280   2.266   4.176
76763W        W48489  15.362   1.147  10.718
76764W        W48490   4.274  12.213  12.557
76765W        W48491  16.636  42.542   3.084
76766W        W48492   2.161   5.016  12.359
76767W        W48493  14.587   6.780   0.682
76768W        W48494  13.701  39.866  12.584
76769W        W48495  22.279  34.416   0.305
76770W        W48496   7.321   6.008   2.181
76771W        W48497   3.716  10.433   0.949
76772W        W48498  19.248   4.293   3.615
76773W        W48499  20.989  32.649  13.532
76774W        W48500  41.435  36.866  11.141
76775W        W48501  12.794   3.696  14.955
76776W        W48502   5.695   7.862   5.201
76777W        W48503  15.069  32.729   0.779
76778W        W48504  30.398   3.186   1.748
76779W        W48505  31.683   8.279   4.622
76780W        W48506  39.973   6.678   4.595
76781W        W48507  38.565  18.220  14.338
76782W        W48508  16.986  27.065   0.506
76783W        W48509  24.942   3.450   2.820
76784W        W48510  21.164  26.264   9.905
76785W        W48511  43.585  15.920   0.102
76786W        W48512  39.475  39.600   1.507
76787W        W48513  38.143  12.173   4.257
76788W        W48514  40.336  22.055   3.740
76789W        W48515  38.881  12.207   0.287
76790W        W48516  25.009  44.914   2.861
76791W        W48517  16.176  44.421   1.284
76792W        W48518  32.939  36.527   1.867
76793W        W48519  15.946  43.342   1.795
76794W        W48520   0.762   0.652  14.939
76795W        W48521  41.962  28.806  12.393
76796W        W48522   6.979  25.470   0.317
76797W        W48523  27.920  10.826   3.200
76798W        W48524  22.165  44.612   3.453
76799W        W48525  44.682  31.902  11.706
76800W        W48526  35.914  27.443  11.463
76801W        W48527  18.693  39.049  14.397
76802W        W48528  37.678   1.398   3.293
76803W        W48529  32.159  28.697   3.526
76804W        W48530   1.361  32.145  12.306
76805W        W48531  29.966  12.847  12.951
76806W        W48532  23.813  15.556   4.525
76807W        W48533  40.397  20.210  12.719
76808W        W48534  33.774   9.256  11.856
76809W        W48535  20.186  12.632   0.747
76810W        W48536   6.634   0.628  14.505
76811W        W48537  35.335  20.749   4.655
76812W        W48538  11.609   9.468   0.241
76813W        W48539  27.439  37.047  10.677
76814W        W48540  39.443   9.777  11.943
76815W        W48541   6.275  17.696  10.897
76816W        W48542   4.860  38.559  13.522
76817W        W48543  26.875  32.115  12.515
76818W        W48544  11.842  33.122   2.782
76819W        W48545  38.068  38.828   4.500
76820W        W48546  16.551   5.201  13.975
76821W        W48547  33.451  41.690  14.517
76822W        W48548   3.542  17.735   3.743
76823W        W48549  16.084  27.446  11.927
76824W        W48550  27.465  44.395  14.712
76825W        W48551  18.733  32.293  10.246
76826W        W48552  18.568  42.821   0.844
76827W        W48553  21.817  30.571  12.916
76828W        W48554   1.974  13.682   0.205
76829W        W48555   2.272   9.662  11.519
76830W        W48556  29.730  12.236  12.152
76831W        W48557   8.144   8.380  11.709
76832W        W48558  22.491   2.448  11.032
76833W        W48559  42.450   6.098  11.555
76834W        W48560  29.648  15.024   2.748
76835W        W48561  41.226  43.101  13.733
76836W        W48562  27.002  40.437   1.985
76837W        W48563   1.906  40.992   3.448
76838W        W48564   5.350  40.430   2.556
76839W        W48565  11.033  44.858   4.099
76840W        W48566   5.616   0.504  14.215
76841W        W48567  40.031  31.981  10.510
76842W        W48568   8.113  33.948   1.406
76843W        W48569  26.989  37.265   2.274
76844W        W48570   6.406  23.755  14.313
76845W        W48571  21.493  32.892  14.445
76846W        W48572  11.202  11.309   3.683
76847W        W48573   8.217  28.503  13.369
76848W        W48574  34.155  17.299  13.072
76849W        W48575  20.793  35.462   1.143
76850W        W48576  44.896  23.037  13.338
76851W        W48577  43.758  32.924   4.498
76852W        W48578   7.855  35.548  10.199
76853W        W48579  40.603  38.267  14.023
76854W        W48580   1.455   1.858  11.660
76855W        W48581  32.056  42.064   2.363
76856W        W48582  42.490   7.288   1.880
76857W        W48583   0.387  13.478   3.296
76858W        W48584  24.257  21.917  12.850
76859W        W48585   5.834  39.569   4.557
76860W        W48586  10.913  15.833   0.697
76861W        W48587   8.156  34.135   0.899
76862W        W48588  23.346  14.255  13.135
76863W        W48589   3.552  11.022   1.470
76864W        W48590  29.191  37.510  14.910
76865W        W48591  40.287  25.662  14.946
76866W        W48592  31.911  17.620   3.328
76867W        W48593  24.422  21.947  14.894
76868W        W48594   9.317  43.537   4.139
76869W        W48595  13.279  44.393  12.471
76870W        W48596  12.430   3.249  14.317
76871W        W48597  17.058  10.158  14.240
76872W        W48598  15.684  42.219   2.344
76873W        W48599  23.827  14.518   5.059
76874W        W48600  26.196  23.971  12.022
76875W        W48601  30.619  36.164  10.757
76876W        W48602  32.613  19.339   4.139
76877W        W48603   1.724   0.845  13.733
76878W        W48604   5.208  16.785  13.003
76879W        W48605   2.053  21.584  14.810
76880W        W48606  41.139  17.613   2.708
76881W        W48607  32.417  41.576  13.184
76882W        W48608  13.142  21.202  11.934
76883W        W48609  32.156   5.270   4.798
76884W        W48610  19.323  41.928   3.273
76885W        W48611  35.141   9.806  12.811
76886W        W48612  13.255   8.909  14.017
76887W        W48613  34.366  24.729  12.725
76888W        W48614  15.644  34.654   4.337
76889W        W48615  14.730   3.289  13.883
76890W        W48616  28.551   4.821   1.754
76891W        W48617  29.117  44.948  14.029
76892W        W48618  38.967  15.666   1.784
76893W        W48619  29.558  24.769   2.861
76894W        W48620  22.391  41.968  11.098
76895W        W48621   9.614   3.364  11.425
76896W        W48622   2.448  28.091   1.183
76897W        W48623  28.569  12.179  10.999
76898W        W48624  23.608  25.990  12.470
76899W        W48625   1.186   9.740  14.860
76900W        W48626  14.415  12.986  11.402
76901W        W48627   9.632  19.496  11.603
76902W        W48628   0.336   9.688   4.388
76903W        W48629  40.587  11.666  14.418
76904W        W48630  13.016   7.407  11.983
76905W        W48631  28.101   6.223  12.001
76906W        W48632  36.082  22.127   1.442
76907W        W48633  39.553  43.043   0.439
76908W        W48634  29.184  28.710  13.815
76909W        W48635   2.533  40.847  13.962
76910W        W48636  42.113  14.385   4.445
76911W        W48637   9.197  40.383   1.732
76912W        W48638  37.361  27.481   2.710
76913W        W48639  39.492  43.065   0.967
76914W        W48640  40.531  15.996   1.674
76915W        W48641   2.744  15.136  10.656
76916W        W48642  29.863  11.407  12.307
76917W        W48643  43.283  12.755   2.834
76918W        W48644  32.663  37.006  14.823
76919W        W48645   2.988  37.540   2.233
76920W        W48646  11.153  15.776   0.244
76921W        W48647  44.361  19.627  12.076
76922W        W48648  44.999   1.336   4.282
76923W        W48649  12.869  15.594   1.359
76924W        W48650  28.330  30.106   1.215
76925W        W48651  42.334  14.377   3.365
76926W        W48652   3.883  33.480  10.659
76927W        W48653  17.453  33.548   5.220
76928W        W48654  43.047  43.035   1.867
76929W        W48655  35.325  11.408   1.558
76930W        W48656   5.413  24.625   0.434
76931W        W48657  10.273  24.671  13.888
76932W        W48658   8.594   3.982  12.787
76933W        W48659  28.922   1.517   1.843
76934W        W48660  38.283  33.078   4.073
76935W        W48661   0.658  22.993  10.768
76936W        W48662  16.148  16.968  10.978
76937W        W48663  34.452  26.177  11.554
76938W        W48664  17.119  27.920   2.322
76939W        W48665  11.411  38.256   3.163
76940W        W48666  41.040  30.159   0.960
76941W        W48667  36.404   2.999  11.935
76942W        W48668  37.000  21.234  13.562
76943W        W48669  34.975  12.363  12.423
76944W        W48670  30.738  36.037   2.251
76945W        W48671  30.327  30.667  12.011
76946W        W48672  22.957  21.207  10.767
76947W        W48673   9.861  27.913   3.842
76948W        W48674  18.278  36.856   3.371
76949W        W48675  33.459  11.723   2.341
76950W        W48676  13.584  15.552  14.853
76951W        W48677  11.093  22.510  11.970
76952W        W48678  33.864  36.512   1.841
76953W        W48679  24.482  18.328  12.105
76954W        W48680  28.883  37.917   2.697
76955W        W48681  26.624  29.576  13.801
76956W        W48682  29.486  17.097   5.009
76957W        W48683  31.023   7.317  12.987
76958W        W48684   4.086  17.060  10.693
76959W        W48685  18.532  17.596   0.905
76960W        W48686  32.422  15.753   0.386
76961W        W48687  23.526  34.349  12.080
76962W        W48688  37.360  21.613   1.326
76963W        W48689  24.103  38.057   2.353
76964W        W48690  41.916   5.976  12.433
76965W        W48691  41.935  43.906  11.106
76966W        W48692  15.562  18.232  13.806
76967W        W48693  40.097  43.881  14.304
76968W        W48694  10.062  21.311   3.738
76969W        W48695   7.277   2.767   0.050
76970W        W48696  16.612  35.831  12.919
76971W        W48697  21.770  28.212   3.632
76972W        W48698  26.206  35.486   4.169
76973W        W48699  25.848  25.213   4.158
76974W        W48700  37.508  33.635  14.512
76975W        W48701   9.666   8.945  13.524
76976W        W48702  37.115  22.734   3.675
76977W        W48703  43.780  19.780   2.135
76978W        W48704  35.855   3.043   4.144
76979W        W48705  34.395  39.389  11.042
76980W        W48706  13.051  11.607   2.164
76981W        W48707   7.745  12.662   0.480
76982W        W48708  21.858  21.443  14.870
76983W        W48709  36.165   2.181  13.383
76984W        W48710  23.261  27.113  10.773
76985W        W48711  16.305  40.455   4.569
76986W        W48712  24.056   1.032  11.537
76987W        W48713  20.778  10.312   0.302
76988W        W48714  34.161  35.083   4.984
76989W        W48715  40.690   3.251   2.822
76990W        W48716  18.666  44.778   1.830
76991W        W48717  23.021  18.656   3.889
76992W        W48718  21.344   7.228  13.888
76993W        W48719  26.316  25.031   3.980
76994W        W48720  41.317  36.219   2.604
76995W        W48721  21.039  17.236  12.403
76996W        W48722  28.184  11.392   2.344
76997W        W48723  12.831  31.859   0.348
76998W        W48724  26.536  28.507   4.264
76999W        W48725  29.730   1.881   0.723
77000W        W48726  42.467  19.142  10.448
77001W        W48727  21.006  27.155  12.503
77002W        W48728   4.375  30.120   0.055
77003W        W48729  31.882  37.372   3.325
77004W        W48730  38.487  20.020   4.943
77005W        W48731  37.464   8.684  11.450
77006W        W48732  39.977  10.734  10.587
77007W        W48733   2.398  19.285  13.746
77008W        W48734  42.434  11.297  14.997
77009W        W48735  38.484  31.728  12.983
77010W        W48736  20.274  32.399  14.008
77011W        W48737  39.375  35.102   4.180
77012W        W48738   4.137  21.469  11.883
77013W        W48739  13.027   1.961  13.294
77014W        W48740  26.671  22.537   0.885
77015W        W48741  22.467   5.904   3.397
77016W        W48742   5.620  20.910   1.500
77017W        W48743  40.547  36.356  11.314
77018W        W48744  20.170  27.224   4.838
77019W        W48745  19.849   8.676  13.116
77020W        W48746  28.399  18.254   1.381
77021W        W48747  18.521  23.780   2.197
77022W        W48748  29.199  28.948  12.913
77023W        W48749  13.402   7.218   2.737
77024W        W48750  31.031  25.975  11.830
77025W        W48751  14.610   8.823   0.268
77026W        W48752   6.008  10.717  13.542
77027W        W48753  15.873  10.679   2.817
77028W        W48754  32.960  25.578   0.014
77029W        W48755   2.419  42.276  11.076
77030W        W48756  17.654   3.347  11.552
77031W        W48757  32.109   3.870   3.149
77032W        W48758   3.021   2.168  14.935
77033W        W48759   9.279  37.139  13.558
77034W        W48760   8.742  18.536   4.404
77035W        W48761  42.836  12.227   4.569
77036W        W48762   5.437  19.729  14.907
77037W        W48763  17.557  29.604   0.279
77038W        W48764  17.089  15.196   0.425
77039W        W48765  36.200   2.918  10.607
77040W        W48766  29.645  27.405   1.814
77041W        W48767  31.892  40.488   0.390
77042W        W48768  44.472  20.708   3.187
77043W        W48769  31.094  35.590   1.611
77044W        W48770  27.111  31.701  11.242
77045W        W48771  43.652  31.102  10.579
77046W        W48772  17.800  25.318   3.402
77047W        W48773  27.638  14.161  11.874
77048W        W48774  19.281   5.949   4.119
77049W        W48775  19.806   5.297  13.406
77050W        W48776  38.098  12.706  11.981
77051W        W48777  39.052  35.357   4.539
77052W        W48778  24.255  29.758   4.650
77053W        W48779  15.520   3.881   1.233
77054W        W48780  32.389  23.437  11.681
77055W        W48781  20.100  34.393   1.919
77056W        W48782  39.806  27.365   2.461
77057W        W48783  27.548  13.974  14.525
77058W        W48784  18.859  27.389  13.014
77059W        W48785  13.828  15.598   4.625
77060W        W48786  43.058  44.755  11.124
77061W        W48787   8.180   7.613  14.067
77062W        W48788   0.939  21.070  13.401
77063W        W48789  43.328  15.228  12.073
77064W        W48790  44.805  31.979  11.187
77065W        W48791   9.774  16.500   3.277
77066W        W48792   4.434  10.641  14.383
77067W        W48793  26.983   2.744  13.967
77068W        W48794   4.298  33.173   4.807
77069W        W48795  12.299  22.338   3.804
77070W        W48796  25.685  30.101   1.526
77071W        W48797   7.717  25.004   9.744
77072W        W48798  11.317  10.191   3.724
77073W        W48799   0.434  21.505   0.007
77074W        W48800   5.931   0.702  10.400
77075W        W48801  16.057   9.720  13.007
77076W        W48802  33.676   3.961   3.291
77077W        W48803  44.026  31.924   3.709
77078W        W48804  43.881   0.251   2.679
77079W        W48805  31.001  27.984   0.716
77080W        W48806  35.087  35.044   2.698
77081W        W48807  30.545  13.994   3.550
77082W        W48808  18.637   8.880   3.681
77083W        W48809  11.862  10.407   0.342
77084W        W48810   2.747   8.477  14.238
77085W        W48811  12.490  28.584  14.858
77086W        W48812  36.507   5.548  12.285
77087W        W48813  30.246  36.003  11.610
77088W        W48814  24.573  14.262  14.816
77089W        W48815  36.477   7.136   5.030
77090W        W48816  15.292  24.430   0.308
77091W        W48817   1.214  37.076  14.405
77092W        W48818  39.890   9.755   4.063
77093W        W48819   3.854  43.965  14.218
77094W        W48820  10.326  23.906   1.255
77095W        W48821  37.189  43.298   1.784
77096W        W48822  38.773  44.965   4.868
77097W        W48823  29.953  27.157   2.841
77098W        W48824  24.084  30.383  11.116
77099W        W48825  37.666  43.762  12.849
77100W        W48826  10.339  27.614   3.764
77101W        W48827   6.732  40.826  13.371
77102W        W48828  29.254  34.560   5.067
77103W        W48829  21.320   9.353  10.810
77104W        W48830  26.966  39.969  13.332
77105W        W48831  33.897  28.676  13.142
77106W        W48832  27.514  12.625   1.944
77107W        W48833  14.137  19.430   2.375
77108W        W48834  18.274  22.133   3.288
77109W        W48835  16.097  44.974  11.555
77110W        W48836  10.212   6.212   3.208
77111W        W48837   7.907   7.027  11.944
77112W        W48838   0.090  29.925  13.953
77113W        W48839  26.922  36.032  13.989
77114W        W48840  18.814  15.189  13.883
77115W        W48841  38.611  39.136   2.814
77116W        W48842  17.084  27.300  11.621
77117W        W48843  40.857   6.617   0.437
77118W        W48844   3.991  13.569   3.163
77119W        W48845  24.504  26.539  12.414
77120W        W48846   6.401  26.115  11.208
77121W        W48847  14.357  33.397  10.158
77122W        W48848  12.614  18.595  13.341
77123W        W48849  24.404   9.153  12.503
77124W        W48850   5.086  15.730   9.720
77125W        W48851   5.842  29.162  13.818
77126W        W48852   4.730  44.954   0.975
77127W        W48853  20.067  22.011   3.319
77128W        W48854  29.449  16.923   1.285
77129W        W48855  41.990  29.782  12.189
77130W        W48856  42.853  17.855   3.188
77131W        W48857  38.381  20.514   1.769
77132W        W48858  28.952  10.217  14.049
77133W        W48859   9.884  26.032  12.892
77134W        W48860  31.466  11.210   0.050
77135W        W48861   7.895   9.058  12.798
77136W        W48862  31.730  30.073  14.272
77137W        W48863  37.789  37.341   1.012
77138W        W48864  36.064   6.203  11.878
77139W        W48865  37.071   9.566   2.192
77140W        W48866  11.906   0.707  14.643
77141W        W48867  32.655  43.926   0.368
77142W        W48868   5.803  41.229  10.421
77143W        W48869   1.609  13.644  13.923
77144W        W48870   4.150  37.383  14.266
77145W        W48871  44.189  16.548   4.193
77146W        W48872  17.712  39.490  11.039
77147W        W48873  30.043  35.510   1.880
77148W        W48874  23.321  17.256  11.010
77149W        W48875   9.310   0.854  10.712
77150W        W48876  10.612  34.371  10.576
77151W        W48877   2.707  19.998  14.008
77152W        W48878  32.694   8.687   3.190
77153W        W48879  22.996   2.336   0.964
77154W        W48880  27.057  13.197  10.731
77155W        W48881  19.755   6.369  12.897
77156W        W48882  31.113   9.297   0.376
77157W        W48883   9.364  13.502  14.512
77158W        W48884   1.436  30.360  13.943
77159W        W48885  44.619  37.481  11.659
77160W        W48886  29.084  12.326   2.439
77161W        W48887  33.963  17.009   2.338
77162W        W48888  42.794  17.344  10.560
77163W        W48889  36.121  19.202  11.021
77164W        W48890   3.670   0.278   3.859
77165W        W48891  26.417  23.869   2.420
77166W        W48892  42.904  26.555  10.397
77167W        W48893  26.127  16.114  10.260
77168W        W48894  19.666  26.506   5.051
77169W        W48895  41.402  41.921   2.382
77170W        W48896  19.474  37.286   3.594
77171W        W48897   3.894  18.688   1.249
77172W        W48898  27.480  12.707  13.925
77173W        W48899   3.227  37.050   2.916
77174W        W48900  28.945  42.375  12.020
77175W        W48901  16.332   9.444  10.446
77176W        W48902  37.519  22.956  13.817
77177W        W48903  22.611  27.489   5.267
77178W        W48904  41.454  13.603   4.707
77179W        W48905  15.912   6.095  11.144
77180W        W48906  16.005   8.410   1.851
77181W        W48907   4.127  29.656   0.881
77182W        W48908  37.828  15.610  14.429
77183W        W48909  31.936  21.140  14.332
77184W        W48910  31.848  35.410  11.525
77185W        W48911  24.159  27.083   5.137
77186W        W48912  16.923  36.480  12.552
77187W        W48913  39.414  27.949  14.786
77188W        W48914  10.417   1.005  14.749
77189W        W48915  20.337  13.313  14.862
77190W        W48916  42.947  11.398  14.126
77191W        W48917  39.329  40.721   3.093
77192W        W48918   8.101  37.036   4.142
77193W        W48919  17.129  32.533   1.443
77194W        W48920  32.430  11.261  13.043
77195W        W48921  13.206  19.123   1.941
77196W        W48922  21.221  24.153  14.416
77197W        W48923  10.662  15.003  14.316
77198W        W48924  24.435  16.413  12.133
77199W        W48925  13.207   8.632  14.494
77200W        W48926  37.654  37.904  13.819
77201W        W48927  26.655  42.745   3.730
77202W        W48928  26.121   9.163  12.551
77203W        W48929   9.105  44.109   4.954
77204W        W48930  27.727  27.097  13.024
77205W        W48931  29.658  33.986   0.855
77206W        W48932  30.560  21.775  13.218
77207W        W48933  43.404   6.427  12.796
77208W        W48934  21.749   3.231   0.865
77209W        W48935  20.510   2.963   2.341
77210W        W48936   2.449  23.703  11.913
77211W        W48937  14.812  37.531  12.585
77212W        W48938  36.081  15.365   1.919
77213W        W48939   9.779  32.875  14.853
77214W        W48940  23.690   8.120  14.834
77215W        W48941  36.412  25.617  12.479
77216W        W48942  33.025  10.354  10.714
77217W        W48943  24.208  44.008  11.324
77218W        W48944  28.631  13.680   2.144
77219W        W48945  28.437  24.130   1.661
77220W        W48946   5.263  38.050   0.355
77221W        W48947  13.995   1.924   3.729
77222W        W48948   0.022  43.786   2.466
77223W        W48949  38.615  38.021  11.926
77224W        W48950  26.578  20.402  12.785
77225W        W48951  44.853  10.261   0.481
77226W        W48952   8.388  32.919  12.788
77227W        W48953  26.560  25.460   4.135
77228W        W48954  26.617  44.257  12.820
77229W        W48955   2.580   4.948  14.790
77230W        W48956  25.167  15.200  12.528
77231W        W48957   7.483   2.414   2.652
77232W        W48958  32.915   9.061  14.485
77233W        W48959  11.719  44.407  12.106
77234W        W48960  42.367  31.541   1.440
77235W        W48961  29.960  24.302   1.238
77236W        W48962  17.491   0.335   1.406
77237W        W48963  25.149  23.530  14.886
77238W        W48964  38.468  34.669   4.182
77239W        W48965   5.235  11.211  10.677
77240W        W48966  36.013  11.344  10.742
77241W        W48967   4.435  37.723   4.764
77242W        W48968  32.513   3.668   2.837
77243W        W48969  14.386   7.872  14.366
77244W        W48970  15.777  43.710   2.242
77245W        W48971  10.329  27.932   0.401
77246W        W48972  18.513  27.907   0.881
77247W        W48973  34.445  31.407   2.796
77248W        W48974  20.687  11.355  14.346
77249W        W48975   5.492  21.098   3.244
77250W        W48976  37.162  10.232  13.616
77251W        W48977  42.576  20.453  11.179
77252W        W48978  44.949   7.421   1.327
77253W        W48979  32.862  16.231  11.586
77254W        W48980   0.023  17.136   0.137
77255W        W48981   7.947  41.962  14.345
77256W        W48982  19.636  25.533  14.287
77257W        W48983  41.408  15.122   4.703
77258W        W48984  36.682   1.151   2.704
77259W        W48985   1.805  11.448  12.104
77260W        W48986  14.569  27.931  10.687
77261W        W48987   7.275  12.840   0.271
77262W        W48988  39.530  20.115   0.434
77263W        W48989  12.757  29.811   0.969
77264W        W48990  44.616   2.271   1.388
77265W        W48991   2.745  34.564   0.404
77266W        W48992  17.100  29.454   1.206
77267W        W48993  16.837   7.724   0.751
77268W        W48994  36.034  34.532  13.976
77269W        W48995   0.295  34.117   0.048
77270W        W48996  38.937  27.446  10.620
77271W        W48997  34.449  17.773   3.345
77272W        W48998  16.368  21.649   0.826
77273W        W48999   7.210  30.096   1.245
77274W        W49000  26.120  31.580  13.459
77275W        W49001   6.114   6.845  10.536
77276W        W49002  28.609  18.260   0.410
77277W        W49003   5.824  44.935   2.734
77278W        W49004  42.510  16.669  12.949
77279W        W49005  24.895  41.222  11.543
77280W        W49006   3.637  13.746  10.859
77281W        W49007  16.534  16.479   0.899
77282W        W49008  43.878  15.289  11.985
77283W        W49009  32.051  31.665  10.927
77284W        W49010  35.313  26.384   4.597
77285W        W49011   9.632  32.545   2.389
77286W        W49012   8.265   0.476   4.583
77287W        W49013  44.394  15.869  14.456
77288W        W49014   9.735  20.460   0.945
77289W        W49015  25.502  43.380   2.737
77290W        W49016  32.425  36.073   1.366
77291W        W49017  42.765  26.708   2.412
77292W        W49018   2.239  11.586   1.349
77293W        W49019   1.386  22.679   3.105
77294W        W49020  26.697   9.310  10.957
77295W        W49021  40.635  26.056   4.271
77296W        W49022   6.404  19.169   4.736
77297W        W49023  28.471  33.835  14.767
77298W        W49024  41.472  42.298   2.751
77299W        W49025  32.289  44.873   3.680
77300W        W49026  41.441  18.674   3.650
77301W        W49027   3.521  15.227  12.020
77302W        W49028  38.794  23.899  14.595
77303W        W49029  25.207  11.913   3.148
77304W        W49030  17.085  38.561   4.699
77305W        W49031  41.815  22.308  12.606
77306W        W49032  44.260  25.788   3.156
77307W        W49033   6.990   9.732  12.447
77308W        W49034  33.064  25.241   3.181
77309W        W49035  17.709  16.270  11.998
77310W        W49036  20.119  11.754  10.511
77311W        W49037  14.281  35.435   2.621
77312W        W49038  17.102  14.366  14.271
77313W        W49039  17.595  24.181  13.320
77314W        W49040  26.543  33.392   3.438
77315W        W49041  11.945  18.672   0.852
77316W        W49042  16.400  31.125  12.040
77317W        W49043  36.987  18.582   4.635
77318W        W49044  28.992  29.034   0.242
77319W        W49045  24.623  28.447   3.062
77320W        W49046  20.087  15.868   0.285
77321W        W49047  28.982  30.583   3.362
77322W        W49048  26.801  43.938  10.368
77323W        W49049  39.066  43.857  13.091
77324W        W49050  36.968  25.490   2.611
77325W        W49051  33.475  20.981   0.897
77326W        W49052  27.105  39.941   3.199
77327W        W49053  24.663  15.500  13.505
77328W        W49054  38.362  12.603  10.687
77329W        W49055  20.272  27.962   4.277
77330W        W49056  12.780  42.426  13.873
77331W        W49057  39.015  24.568   0.154
77332W        W49058  40.397  44.546  14.754
77333W        W49059  17.170  32.082  13.142
77334W        W49060  21.422  24.620  12.828
77335W        W49061  41.362   8.421  14.319
77336W        W49062  20.239  34.058  10.975
77337W        W49063   4.913  22.236   2.867
77338W        W49064  21.765  22.317  14.399
77339W        W49065  24.965  43.408   4.608
77340W        W49066  43.737  36.185   1.893
77341W        W49067  24.676  10.266   2.308
77342W        W49068  34.813  42.377   2.937
77343W        W49069  16.124  11.255  10.630
77344W        W49070   7.787  28.704   3.770
77345W        W49071  16.100  28.607   4.476
77346W        W49072  33.849  39.983   4.585
77347W        W49073  40.795  11.224  14.247
77348W        W49074  42.632  29.526   1.787
77349W        W49075   0.280  14.852   2.701
77350W        W49076  27.191  26.065   4.122
77351W        W49077   5.357   7.040   4.656
77352W        W49078  17.868   1.533   1.790
77353W        W49079  33.484  37.086   4.890
77354W        W49080  24.784  40.933   2.309
77355W        W49081  15.102   2.772   1.283
77356W        W49082  12.080  20.095   0.494
77357W        W49083   3.848  39.134  13.062
77358W        W49084  28.617   9.659  13.360
77359W        W49085   3.359  33.313   3.742
77360W        W49086  40.402  23.087  11.453
77361W        W49087  40.279  40.374   0.456
77362W        W49088  33.639   2.964   0.081
77363W        W49089  23.239  12.723  10.997
77364W        W49090  42.950   5.937  11.581
77365W        W49091  14.636  12.771   4.616
77366W        W49092   5.351  28.658  12.668
77367W        W49093   7.368  33.826  12.179
77368W        W49094  27.609  37.797   0.921
77369W        W49095  35.810  33.979  11.135
77370W        W49096  43.334  12.834  11.232
77371W        W49097  38.450  19.920   4.341
77372W        W49098   1.159  22.166   1.183
77373W        W49099  35.061  34.577   3.599
77374W        W49100  37.805   7.694   0.772
77375W        W49101   8.870  24.733   0.333
77376W        W49102   0.847  18.634   2.172
77377W        W49103  43.515   5.190   4.203
77378W        W49104   4.430  24.448  12.067
77379W        W49105  26.074  16.823  10.607
77380W        W49106  13.802  28.491  10.737
77381W        W49107  27.227  43.956   2.232
77382W        W49108  22.171  19.702   2.773
77383W        W49109  36.295  39.011   1.413
77384W        W49110  25.177  33.675  14.477
77385W        W49111  10.995  44.838  14.223
77386W        W49112  22.875  20.045   0.791
77387W        W49113   4.941  14.647  12.881
77388W        W49114   6.376  41.222   3.432
77389W        W49115  44.306  29.529  10.834
77390W        W49116  35.544  30.061   4.670
77391W        W49117  11.316  34.195   0.374
77392W        W49118   6.271  39.912  13.168
77393W        W49119   1.949  10.881  12.960
77394W        W49120  21.221  43.400   3.985
77395W        W49121  18.627  31.212  14.393
77396W        W49122   8.905  36.969  13.862
77397W        W49123  36.896   1.266   4.633
77398W        W49124  35.460  29.468   2.273
77399W        W49125  43.262  36.449  11.139
77400W        W49126  30.617   8.273  12.924
77401W        W49127   2.781   6.800  11.468
77402W        W49128  22.090  12.810  14.871
77403W        W49129  26.427   2.563   4.285
77404W        W49130  17.130  12.080  12.867
77405W        W49131  44.861  36.964  11.565
77406W        W49132  29.269  42.434  11.151
77407W        W49133  33.318  18.288  14.863
77408W        W49134   4.573   2.200  11.871
77409W        W49135   3.045  14.128  13.450
77410W        W49136  29.170  25.388  14.502
77411W        W49137  15.486  13.039   1.422
77412W        W49138  43.698  27.640   4.486
77413W        W49139   0.383  23.195  13.123
77414W        W49140   3.780  28.212  10.857
77415W        W49141  21.637  10.260   2.566
77416W        W49142  24.552   5.309  11.696
77417W        W49143  38.046  38.116  14.924
77418W        W49144  19.177  24.805  10.481
77419W        W49145  36.689  25.496   1.469
77420W        W49146  15.516  33.570  11.436
77421W        W49147   6.927  34.242  11.610
77422W        W49148  24.695  38.379  11.539
77423W        W49149  32.959  23.515  12.985
77424W        W49150  40.884  23.738   3.214
77425W        W49151  41.450   3.203   0.780
77426W        W49152  33.538  32.107   0.654
77427W        W49153  22.578  28.666   9.735
77428W        W49154  38.232   9.319   1.851
77429W        W49155  23.235  30.737  14.323
77430W        W49156  40.294  18.547  14.331
77431W        W49157  32.614  33.367   0.412
77432W        W49158  16.487   8.744  12.875
77433W        W49159   3.465  43.962  13.388
77434W        W49160  12.845   9.096  14.253
77435W        W49161  41.765  34.977   2.663
77436W        W49162  14.991  11.543  12.036
77437W        W49163  35.089  44.824   2.756
77438W        W49164   6.362  12.213   1.388
77439W        W49165  43.902   8.478   4.777
77440W        W49166  23.935   4.477   2.900
77441W        W49167  12.613  31.390   4.662
77442W        W49168  33.055  14.626  13.855
77443W        W49169  20.581  37.654  14.022
77444W        W49170  26.496  35.116   2.115
77445W        W49171  26.618  27.729  12.072
77446W        W49172   1.906  40.433  14.320
77447W        W49173  32.872   8.973   4.056
77448W        W49174  43.053  19.072   4.448
77449W        W49175  39.027   8.747  14.655
77450W        W49176   7.321  24.721  12.351
77451W        W49177  44.922  26.606  11.907
77452W        W49178  13.282  10.273   4.451
77453W        W49179  14.426  44.439   4.125
77454W        W49180  40.033  34.477  14.539
77455W        W49181  36.528   4.864   2.662
77456W        W49182   9.246   7.981   0.776
77457W        W49183  26.878  40.494   3.904
77458W        W49184   8.438   5.574   2.833
77459W        W49185   6.533   7.524   4.212
77460W        W49186  42.398  43.948  12.438
77461W        W49187  42.461   9.449   1.409
77462W        W49188   9.778  29.185  11.926
77463W        W49189  23.041   2.450  12.097
77464W        W49190  12.169   2.861   3.573
77465W        W49191  27.737  42.855  11.553
77466W        W49192  13.823  32.877  11.914
77467W        W49193   6.373   3.977  13.988
77468W        W49194  33.904   3.419  10.737
77469W        W49195  24.490  36.351  11.836
77470W        W49196  29.006  14.086   1.847
77471W        W49197   8.024  20.802  12.156
77472W        W49198   0.866  26.092  13.009
77473W        W49199  11.265  32.397  12.888
77474W        W49200  28.101  10.086   3.657
77475W        W49201  24.799  24.710  11.129
77476W        W49202  34.810  19.511   2.364
77477W        W49203  43.638  12.879  12.988
77478W        W49204  15.024  41.059   2.622
77479W        W49205  26.567  37.062  14.033
77480W        W49206  43.447  40.359   0.236
77481W        W49207  41.830  11.051  10.209
77482W        W49208  23.844  41.307   0.434
77483W        W49209  24.080  44.576   4.071
77484W        W49210  37.880  22.637  11.535
77485W        W49211  33.987  42.921  11.453
77486W        W49212   1.193  26.315   3.315
77487W        W49213  37.728  41.074  10.986
77488W        W49214   8.624  24.486   3.692
77489W        W49215  43.803   1.951   0.235
77490W        W49216   3.944   6.117   0.158
77491W        W49217   6.437  13.828   1.606
77492W        W49218  32.397  14.974   0.709
77493W        W49219  12.243  21.142   0.436
77494W        W49220   5.338  35.690   3.758
77495W        W49221  27.232  12.255  13.965
77496W        W49222  27.409   2.919   4.788
77497W        W49223   1.044  17.530   0.931
77498W        W49224  27.686  29.951   0.451
77499W        W49225  16.916  35.049   1.171
77500W        W49226   4.483  26.980   3.304
77501W        W49227   2.147  17.531   1.944
77502W        W49228  22.195   5.275  13.791
77503W        W49229  44.332  42.757   1.328
77504W        W49230  24.999  27.561  12.832
77505W        W49231  38.263   3.569  12.940
77506W        W49232  24.166  38.937  12.949
77507W        W49233  42.688   0.299   1.432
77508W        W49234  18.666  44.389  11.873
77509W        W49235  31.016   8.320  10.625
77510W        W49236  11.383  31.372  14.532
77511W        W49237  39.987  24.042  11.655
77512W        W49238  28.048  27.939  11.429
77513W        W49239  20.820  41.965  13.098
77514W        W49240   5.766  14.352  10.950
77515W        W49241  26.525  19.933   2.191
77516W        W49242  10.155   7.279  10.603
77517W        W49243  18.985   8.145   0.829
77518W        W49244  11.135   2.789  14.594
77519W        W49245   2.778  11.735   3.615
77520W        W49246  17.834  19.701   4.104
77521W        W49247  11.128   5.676   0.508
77522W        W49248  29.243  11.234   3.156
77523W        W49249  30.083   5.336  14.767
77524W        W49250  32.072  27.208   4.679
77525W        W49251  18.269  26.439  13.514
77526W        W49252  15.793  18.402   0.816
77527W        W49253  26.189   2.702  10.670
77528W        W49254   4.366  25.972  13.949
77529W        W49255  33.968   8.275  11.966
77530W        W49256  32.653  25.102   1.237
77531W        W49257  22.032  26.296  14.914
77532W        W49258  27.688  32.677  11.473
77533W        W49259   8.597  32.975   0.861
77534W        W49260   8.923  26.542   4.549
77535W        W49261  16.850  20.622   0.451
77536W        W49262  30.887  33.009   2.294
77537W        W49263  30.905   6.884   0.345
77538W        W49264  44.422  43.665  11.189
77539W        W49265  12.574  41.297  12.269
77540W        W49266  11.306   5.192  11.336
77541W        W49267  24.306  30.165  14.989
77542W        W49268   6.309   0.990   0.313
77543W        W49269  16.357  30.133  14.320
77544W        W49270   4.837   0.463   3.229
77545W        W49271  10.514  31.698   5.083
77546W        W49272  44.874  13.851  14.814
77547W        W49273  35.026  35.924  14.342
77548W        W49274  35.812  39.479   2.011
77549W        W49275  12.737  42.376   3.409
77550W        W49276  30.521   8.758  13.118
77551W        W49277  11.774  27.143  12.483
77552W        W49278  12.106  14.362   1.143
77553W        W49279  30.607   9.583  14.776
77554W        W49280  34.016  17.320   1.366
77555W        W49281   4.885  24.548   3.650
77556W        W49282   9.559   6.220   1.471
77557W        W49283  14.798   2.257   3.654
77558W        W49284  15.613  23.758  13.836
77559W        W49285   1.552  40.101   1.781
77560W        W49286  31.903  22.620  11.642
77561W        W49287  18.075  22.541  11.944
77562W        W49288   6.194  40.443  10.658
77563W        W49289  29.282  39.029  10.763
77564W        W49290  24.833  37.857   1.894
77565W        W49291   7.924  39.433   1.925
77566W        W49292  39.329   6.431  12.490
77567W        W49293  19.812  41.362   3.334
77568W        W49294  28.093  22.985   1.967
77569W        W49295   9.319  34.025   5.509
77570W        W49296  39.401  17.025   0.896
77571W        W49297  14.992  24.146  13.556
77572W        W49298  29.146  19.529  14.498
77573W        W49299  31.534   8.984   0.273
77574W        W49300  21.749   5.706   1.205
77575W        W49301  15.878   5.718   3.265
77576W        W49302  33.089  44.973   4.880
77577W        W49303  19.383  40.312  12.402
77578W        W49304  31.546   5.528  10.727
77579W        W49305  11.687  12.601   2.852
77580W        W49306  12.304  24.553  12.720
77581W        W49307  13.159  28.022  13.965
77582W        W49308  20.785  23.227   0.297
77583W        W49309  40.866  25.028  12.543
77584W        W49310  18.683  30.157   4.263
77585W        W49311  24.094   2.065   2.418
77586W        W49312   7.278  26.679   5.073
77587W        W49313   7.755   3.996   2.422
77588W        W49314  37.305  23.279   2.627
77589W        W49315  36.457  38.318  12.530
77590W        W49316  16.477   7.860  10.725
77591W        W49317  15.653   8.343  13.926
77592W        W49318  31.091   0.692   1.243
77593W        W49319   5.419  38.246  14.297
77594W        W49320  13.763  34.172   2.671
77595W        W49321  10.710  21.624   0.934
77596W        W49322  27.495  22.794   1.833
77597W        W49323  44.359   9.881  11.538
77598W        W49324  24.544  30.985   4.420
77599W        W49325  25.414  31.974   1.352
77600W        W49326  41.431  38.916  14.020
77601W        W49327  25.532  36.461   4.374
77602W        W49328   3.082   0.361   2.291
77603W        W49329  34.562  24.602   2.139
77604W        W49330  38.235   6.722   1.915
77605W        W49331  19.174   9.163  14.107
77606W        W49332  31.519  28.209   0.361
77607W        W49333  40.605  10.264  12.617
77608W        W49334  25.613  11.943   2.801
77609W        W49335  44.117  11.608  13.411
77610W        W49336  13.847  15.408  11.071
77611W        W49337  19.557  39.926  10.660
77612W        W49338  18.077  22.329  12.438
77613W        W49339  44.360  33.629   5.088
77614W        W49340  27.668  11.212  11.144
77615W        W49341  44.691  44.687  11.923
77616W        W49342  38.933  25.427  13.039
77617W        W49343  40.990  38.874   1.361
77618W        W49344   5.789   7.400   1.098
77619W        W49345  38.105  26.968   3.393
77620W        W49346  26.977  34.508  13.103
77621W        W49347  36.813  15.335   3.269
77622W        W49348  18.802  27.729  13.430
77623W        W49349   2.879  34.613  10.449
77624W        W49350   3.199  32.612  14.153
77625W        W49351  25.266  33.888   4.364
77626W        W49352   6.903  36.957   3.229
77627W        W49353  16.266  30.654  14.323
77628W        W49354  19.345  24.609   1.228
77629W        W49355  13.710  12.265   1.732
77630W        W49356  39.849  18.388   1.222
77631W        W49357  16.717   3.453   1.446
77632W        W49358   0.724  16.277   1.220
77633W        W49359  44.240   5.637  13.370
77634W        W49360  19.282   5.991   1.419
77635W        W49361   2.347  25.462  13.781
77636W        W49362  40.415  24.518  14.269
77637W        W49363   4.753  39.828  14.817
77638W        W49364  44.866  27.691   3.202
77639W        W49365  23.426  41.373   3.242
77640W        W49366  34.401  25.270   4.960
77641W        W49367  33.120  10.161   0.845
77642W        W49368  19.127  43.818  13.259
77643W        W49369   3.256   8.195   3.404
77644W        W49370  10.692  14.375   3.814
77645W        W49371  23.198   7.718   4.410
77646W        W49372   5.544  23.656   4.549
77647W        W49373  11.422  10.535   3.378
77648W        W49374  30.236  32.575  11.441
77649W        W49375  20.020  29.606  12.301
77650W        W49376  10.203   9.312  11.113
77651W        W49377  20.690  42.061  12.548
77652W        W49378  20.224  11.083   4.901
77653W        W49379  24.495  44.094   2.329
77654W        W49380  39.474  18.213  13.319
77655W        W49381  27.999  41.855   3.543
77656W        W49382  15.776   7.859   3.389
77657W        W49383  28.173   8.545  14.852
77658W        W49384  44.830  35.858  12.501
77659W        W49385   1.819  10.952   2.654
77660W        W49386  16.115   2.041   3.609
77661W        W49387  38.416  15.300  13.533
77662W        W49388  26.286  20.046   4.170
77663W        W49389  22.665  43.308  10.563
77664W        W49390  22.302  43.340   0.870
77665W        W49391  41.140  43.985   3.719
77666W        W49392   2.780  24.173   0.508
77667W        W49393  38.747  28.447  10.308
77668W        W49394   0.883  41.724  14.964
77669W        W49395  33.960  44.973   2.301
77670W        W49396  10.170  30.009   2.705
77671W        W49397  19.574  39.641   4.611
77672W        W49398  40.827   6.950  12.320
77673W        W49399   1.720  12.826  11.242
77674W        W49400   9.578   8.099  14.336
77675W        W49401  11.139  16.599  11.110
77676W        W49402  40.509   3.142  12.695
77677W        W49403  24.368  36.971   1.471
77678W        W49404  22.186  31.370   2.814
77679W        W49405   8.214  23.403  11.582
77680W        W49406  27.932  24.757   2.726
77681W        W49407  41.817  33.749  12.057
77682W        W49408   0.663  38.128  12.143
77683W        W49409  16.647  35.588  14.852
77684W        W49410   8.550  35.396   1.843
77685W        W49411  24.229  21.266   2.779
77686W        W49412  33.476   8.783   4.815
77687W        W49413   0.869   0.204  12.651
77688W        W49414  20.819  20.792   4.201
77689W        W49415   7.605  18.094  11.138
77690W        W49416  27.527  17.265   4.864
77691W        W49417  24.495   2.222  11.067
77692W        W49418  30.212  29.362   1.445
77693W        W49419  20.474  28.174   3.231
77694W        W49420   7.684  24.408   3.727
77695W        W49421  43.401  34.174   3.311
77696W        W49422   3.781   7.668  13.457
77697W        W49423  23.681  16.275  13.962
77698W        W49424  43.447  44.916  14.358
77699W        W49425  12.986  18.679   2.105
77700W        W49426  22.202  32.674   3.709
77701W        W49427  26.693  11.164  13.876
77702W        W49428  39.955  17.117  13.195
77703W        W49429   9.866  39.956   4.699
77704W        W49430  21.126  39.569  14.931
77705W        W49431  39.951   0.952   0.662
77706W        W49432  43.748  32.477  13.965
77707W        W49433  44.830  25.558   2.948
77708W        W49434  13.882  40.453   2.871
77709W        W49435  43.540  14.117   0.900
77710W        W49436  19.806  23.559  10.455
77711W        W49437  43.419   4.055   3.239
77712W        W49438  13.074  26.361  10.338
77713W        W49439  18.321   7.848   2.000
77714W        W49440  44.348  39.366  14.058
77715W        W49441  37.865  13.650   4.948
77716W        W49442  22.205  36.331  12.213
77717W        W49443   1.776  18.018  14.048
77718W        W49444  14.752   4.370   4.661
77719W        W49445  28.583  20.281   2.413
77720W        W49446  22.516   9.762  13.373
77721W        W49447  30.660  19.620  10.784
77722W        W49448  36.065   3.695   2.338
77723W        W49449  32.304  35.769   0.541
77724W        W49450  36.809  17.609  12.497
77725W        W49451  31.664   5.259  14.892
77726W        W49452  12.559  41.459   0.319
77727W        W49453   4.652  24.686  11.558
77728W        W49454  34.155  41.548  13.067
77729W        W49455  29.518  26.165  11.463
77730W        W49456  28.466  20.547   1.482
77731W        W49457  28.733   1.270   0.966
77732W        W49458  35.566   0.815  10.788
77733W        W49459   9.126  35.970   2.336
77734W        W49460  37.315  17.583  11.604
77735W        W49461   1.085   9.372  14.472
77736W        W49462   5.418  43.163  12.288
77737W        W49463  30.250  14.890  12.258
77738W        W49464  21.393   5.784  11.198
77739W        W49465  18.194  26.594  14.000
77740W        W49466  24.632  44.488  14.401
77741W        W49467  19.946   3.834   1.550
77742W        W49468   0.216   9.586  13.296
77743W        W49469  11.331  35.479  14.921
77744W        W49470   2.462  14.650   1.799
77745W        W49471  35.439  12.770  13.534
77746W        W49472  37.314  42.256   4.607
77747W        W49473  35.750  38.834  11.956
77748W        W49474   2.297  11.856   4.417
77749W        W49475  20.778  34.756   0.135
77750W        W49476  30.329  44.411  14.516
77751W        W49477  24.215  43.350   2.947
77752W        W49478  33.001   1.412   2.428
77753W        W49479  37.371   4.450  14.935
77754W        W49480  42.019  30.154  14.769
77755W        W49481  17.538   7.732   3.626
77756W        W49482  32.082  41.277   4.175
77757W        W49483   1.893  38.088   0.980
77758W        W49484  34.685  30.916   3.649
77759W        W49485   9.756  40.274  13.954
77760W        W49486  34.057  32.088   0.694
77761W        W49487  36.583  10.029  12.029
77762W        W49488  37.720  18.695   1.237
77763W        W49489  25.846  32.217  14.057
77764W        W49490  10.114  18.683   0.950
77765W        W49491  37.461  35.505   1.716
77766W        W49492  36.790  28.688  11.139
77767W        W49493  10.193  12.889  12.941
77768W        W49494   8.731  23.598  11.236
77769W        W49495   7.430  20.168  14.272
77770W        W49496  19.347  20.760  11.152
77771W        W49497   6.965  26.526   0.291
77772W        W49498  34.741  37.054   0.628
77773W        W49499   7.439   3.406   0.634
77774W        W49500  20.979  44.474  13.116
77775W        W49501  29.266  12.131   3.343
77776W        W49502  12.787  32.676   2.808
77777W        W49503   4.779  11.657   1.207
77778W        W49504   2.083  42.538  12.013
77779W        W49505  17.486  28.503  13.114
77780W        W49506  11.164  27.716   1.044
77781W        W49507  41.034  18.077  14.001
77782W        W49508  17.052  11.424  10.572
77783W        W49509  20.767  12.225  12.911
77784W        W49510  15.131  14.318  11.120
77785W        W49511  32.864  37.447  12.458
77786W        W49512  20.883  20.466  13.752
77787W        W49513  17.520   1.884  12.864
77788W        W49514  37.816  36.968  14.964
77789W        W49515  33.476  11.658   1.375
77790W        W49516   3.494  20.277  13.410
77791W        W49517  10.610  29.601   1.632
77792W        W49518   5.162  22.425  10.258
77793W        W49519  35.476  35.199   1.167
77794W        W49520  29.035  37.436   3.381
77795W        W49521  20.077  10.361   3.300
77796W        W49522   8.817  43.542  12.013
77797W        W49523   3.710  13.622  14.747
77798W        W49524  14.911   2.382   1.885
77799W        W49525  11.817  11.231   4.858
77800W        W49526   6.141   1.736  14.028
77801W        W49527  17.317  21.159  10.710
77802W        W49528  10.020  33.190   1.747
77803W        W49529  41.813  29.595  10.763
77804W        W49530  32.122  40.461  12.490
77805W        W49531  14.276  27.910  11.692
77806W        W49532  36.711   5.753   3.860
77807W        W49533  25.408  33.394  10.699
77808W        W49534  14.803  41.316   0.261
77809W        W49535  32.628   7.160   4.513
77810W        W49536  28.181  35.576   0.857
77811W        W49537   4.510  40.001   2.453
77812W        W49538   7.306  11.580   3.254
77813W        W49539   4.873  41.206  10.653
77814W        W49540  39.351  18.344   1.370
77815W        W49541  30.173  29.679  13.494
77816W        W49542  32.370  26.378   0.331
77817W        W49543  43.832  10.367   2.251
77818W        W49544  17.774  23.183  13.517
77819W        W49545   7.478  27.035  10.752
77820W        W49546   4.834  24.352   2.687
77821W        W49547  44.312  13.545  11.563
77822W        W49548  34.322  11.647   2.389
77823W        W49549  34.010   3.333  13.476
77824W        W49550  42.812  39.348   3.841
77825W        W49551  43.022  29.709  14.028
77826W        W49552  26.743  23.006   2.623
77827W        W49553   4.480   0.861  11.858
77828W        W49554  44.968  23.001   3.388
77829W        W49555  30.120  30.371   1.287
77830W        W49556  38.419  13.569   3.134
77831W        W49557  34.982  40.413  11.536
77832W        W49558  19.354  33.221   1.969
77833W        W49559  10.265   8.377   1.256
77834W        W49560  11.440   5.138  13.768
77835W        W49561  37.079  34.961   0.183
77836W        W49562  20.776  22.631  14.679
77837W        W49563  36.629  42.988   4.624
77838W        W49564  30.861  41.855  13.641
77839W        W49565  40.338  37.168  11.834
77840W        W49566  15.079  14.828  13.496
77841W        W49567  30.585  42.958  14.838
77842W        W49568  15.012  13.499   2.284
77843W        W49569  32.526  30.448  14.139
77844W        W49570  44.830   9.137   2.775
77845W        W49571  27.980   7.892  12.493
77846W        W49572  27.259  28.073  12.893
77847W        W49573  28.484   4.329  12.141
77848W        W49574  25.209  31.460   4.824
77849W        W49575  41.264   4.110  13.871
77850W        W49576   5.862  36.628   3.723
77851W        W49577   5.087  22.644  11.577
77852W        W49578  22.064  31.177   2.295
77853W        W49579  32.872  35.334  11.556
77854W        W49580  15.800  23.632  14.802
77855W        W49581  33.522  14.799   4.490
77856W        W49582   5.006  38.977   1.439
77857W        W49583   6.697  28.621  11.494
77858W        W49584  22.746  20.942  11.622
77859W        W49585  29.726   5.004  13.581
77860W        W49586  35.482  23.191  14.957
77861W        W49587  43.434  28.717  11.154
77862W        W49588  19.767  44.206   2.340
77863W        W49589  10.614  11.641   4.175
77864W        W49590   7.373  24.272  12.650
77865W        W49591  32.880  15.731   4.142
77866W        W49592   8.843  19.600  11.949
77867W        W49593   5.785   5.811   0.427
77868W        W49594  17.451  15.184   3.679
77869W        W49595  36.893  14.775  12.860
77870W        W49596  36.573  39.047  11.982
77871W        W49597  38.544  11.589   4.520
77872W        W49598  40.804  17.823  10.712
77873W        W49599  20.140   2.383  11.051
77874W        W49600  40.030  11.841  13.535
77875W        W49601  38.552  12.504   4.170
77876W        W49602  33.535  25.100   3.324
77877W        W49603  44.914  25.437  11.004
77878W        W49604  22.166  15.494   0.519
77879W        W49605  11.186  23.094   0.065
77880W        W49606   0.592  16.020   4.356
77881W        W49607  44.853   2.333   4.387
77882W        W49608  31.556   9.236  13.523
77883W        W49609  16.948   8.022  11.601
77884W        W49610   0.926   4.298  14.749
77885W        W49611  34.519  35.164  11.188
77886W        W49612  25.602  19.736  12.639
77887W        W49613  28.024   4.722  14.554
77888W        W49614  42.908   0.406   0.542
77889W        W49615   2.977   6.451   4.405
77890W        W49616   1.023  38.087   3.676
77891W        W49617  28.128  42.892   2.491
77892W        W49618  38.888  23.475  11.982
77893W        W49619   1.229   9.812   4.232
77894W        W49620  18.810  11.910  11.164
77895W        W49621  43.366  12.243   4.275
77896W        W49622  30.399  26.254  12.881
77897W        W49623  44.016  24.521   1.279
77898W        W49624  33.160   5.013  12.474
77899W        W49625   2.522  21.775   1.884
77900W        W49626  23.444  12.236  11.066
77901W        W49627   1.942  16.907   3.443
77902W        W49628  23.547  18.096   3.192
77903W        W49629  39.531  42.833   1.506
77904W        W49630  17.055  22.387   1.059
77905W        W49631  17.833  37.440   2.445
77906W        W49632  15.386  20.722   0.346
77907W        W49633   3.638  28.652   2.863
77908W        W49634  14.531  41.192   1.778
77909W        W49635  37.949  14.370  13.762
77910W        W49636   3.144  37.876   4.787
77911W        W49637  30.145  28.051   4.935
77912W        W49638  40.949  16.234   1.521
77913W        W49639   6.822  39.013  10.576
77914W        W49640  13.181  18.789   0.292
77915W        W49641  38.892  36.662  13.309
77916W        W49642  30.082   3.671  13.798
77917W        W49643  14.074  32.641  14.404
77918W        W49644  24.770  16.444   4.190
77919W        W49645  23.453  11.597   4.146
77920W        W49646  41.958  44.545   2.648
77921W        W49647  16.524  32.808  10.722
77922W        W49648  25.569   0.690   2.882
77923W        W49649   0.333  14.089   0.023
77924W        W49650  31.126  32.304  12.828
77925W        W49651  43.229  29.447  10.869
77926W        W49652   3.944  14.434   2.850
77927W        W49653  14.732   8.619   0.749
77928W        W49654  20.052   4.574   0.871
77929W        W49655  20.422  12.619  11.141
77930W        W49656   4.015  43.691   3.174
77931W        W49657   3.370  44.879   4.409
77932W        W49658   3.878  29.948  13.801
77933W        W49659  15.275  10.889  11.340
77934W        W49660  17.837   1.492  10.494
77935W        W49661  12.111  34.941   1.512
77936W        W49662   6.911  42.044  13.455
77937W        W49663  23.854  19.698   5.050
77938W        W49664  36.363  39.338  12.837
77939W        W49665  22.606  33.886  10.728
77940W        W49666   7.177  32.885   4.142
77941W        W49667  10.412  29.570   0.911
77942W        W49668  13.756  41.549   4.718
77943W        W49669  32.181  13.808  12.183
77944W        W49670  22.492  44.347   3.137
77945W        W49671  44.478  27.693   2.298
77946W        W49672  39.856  33.008  12.664
77947W        W49673  37.507   4.907   4.501
77948W        W49674  44.282   6.640   5.007
77949W        W49675   8.360  33.924  13.144
77950W        W49676  13.818  19.535   1.388
77951W        W49677  20.125  19.783  12.562
77952W        W49678  37.997  18.706   1.691
77953W        W49679   1.878  22.627  10.732
77954W        W49680  33.514  20.950  11.099
77955W        W49681  28.491  18.490  13.889
77956W        W49682  17.697  11.124  11.722
77957W        W49683  41.147  16.138   2.331
77958W        W49684  25.778  38.264  12.024
77959W        W49685   8.694  18.348   0.929
77960W        W49686  43.162  26.652   1.149
77961W        W49687  27.477   9.059  13.087
77962W        W49688   3.919  18.784   2.878
77963W        W49689  24.184  21.616   4.852
77964W        W49690  38.313   3.416  10.746
77965W        W49691  24.583  35.011  12.953
77966W        W49692  17.615  23.575   4.618
77967W        W49693  43.676  19.821  12.692
77968W        W49694  44.917  17.573   1.864
77969W        W49695  28.898  34.470  12.943
77970W        W49696  28.140  28.474  14.327
77971W        W49697  12.686  42.015   1.572
77972W        W49698  20.738  42.946  13.299
77973W        W49699   2.393  13.716  12.779
77974W        W49700  11.347  18.648  13.636
77975W        W49701  23.736   9.903  14.287
77976W        W49702   8.448  32.387   0.362
77977W        W49703  39.799  24.940   2.768
77978W        W49704  21.564  32.394  10.646
77979W        W49705  40.909  15.714   1.403
77980W        W49706  25.056   5.727   4.221
77981W        W49707   7.489   9.791   0.374
77982W        W49708  15.839  27.488  10.887
77983W        W49709  43.857   9.907  11.387
77984W        W49710  15.806  33.279  10.559
77985W        W49711  34.481  33.140  12.551
77986W        W49712   7.863  26.381   0.349
77987W        W49713  32.577  18.999   0.306
77988W        W49714  41.940  41.018  11.540
77989W        W49715  28.596  44.270   3.893
77990W        W49716  16.671   5.110   2.839
77991W        W49717  25.979  25.899   3.612
77992W        W49718  42.084  16.758   1.790
77993W        W49719  19.580  36.572  10.662
77994W        W49720  13.851  19.581  12.865
77995W        W49721  28.049  34.780  12.371
77996W        W49722  41.897  23.662  12.884
77997W        W49723  16.257  33.374   2.315
77998W        W49724  22.908  20.770   0.259
77999W        W49725  19.178  15.478  14.987
78000W        W49726  10.585   5.228  12.487
78001W        W49727  33.652  21.614   0.476
78002W        W49728  10.089  12.328  14.064
78003W        W49729  43.242  38.427  10.600
78004W        W49730   0.970  33.295   3.717
78005W        W49731   1.806  12.629   1.015
78006W        W49732  17.659  32.436   4.654
78007W        W49733  12.589  32.324  11.227
78008W        W49734   9.750  35.090   3.256
78009W        W49735  13.777  31.086  10.755
78010W        W49736   0.327  15.363   0.436
78011W        W49737   9.883  28.211   2.971
78012W        W49738  33.451  22.514  11.221
78013W        W49739   8.073   0.219  11.244
78014W        W49740  13.784  32.368  11.888
78015W        W49741   8.858   6.772   2.229
78016W        W49742   5.398  10.286  11.034
78017W        W49743  27.129  16.555   0.929
78018W        W49744  12.230  16.562   3.258
78019W        W49745  14.657  42.003   3.375
78020W        W49746   3.189  38.831   3.234
78021W        W49747  18.131   9.746   4.630
78022W        W49748  11.665   1.559   2.849
78023W        W49749   4.838  21.322  10.970
78024W        W49750   4.743  19.035   2.813
78025W        W49751  28.980  20.550  13.149
78026W        W49752  14.123   6.152  12.528
78027W        W49753  24.992  25.439   1.939
78028W        W49754  11.577  11.688  11.101
78029W        W49755  42.910  44.404  13.906
78030W        W49756  20.201  27.206  12.979
78031W        W49757   6.853  23.136   3.620
78032W        W49758  28.414  31.063   4.103
78033W        W49759  39.100  28.446   1.855
78034W        W49760  28.511   1.203  11.987
78035W        W49761  36.579  41.459  12.401
78036W        W49762  21.954   3.292  14.082
78037W        W49763  34.429   9.910   1.690
78038W        W49764   8.224  32.592   4.311
78039W        W49765  28.517  22.239   3.942
78040W        W49766  14.544   3.471  10.673
78041W        W49767   9.412  32.778   3.212
78042W        W49768  16.654  11.891  12.991
78043W        W49769  23.753  17.767  12.447
78044W        W49770  38.627  44.810  10.867
78045W        W49771   1.820  32.858   2.279
78046W        W49772  17.402   5.871   0.895
78047W        W49773   1.469   4.337  10.663
78048W        W49774  28.495   5.375  10.972
78049W        W49775  12.321  33.617  10.598
78050W        W49776  23.715  22.026   0.447
78051W        W49777  33.933  21.630   2.269
78052W        W49778  29.886  32.061  10.159
78053W        W49779  15.286   0.849   3.888
78054W        W49780  43.344  10.599   2.247
78055W        W49781  23.233  28.974   1.686
78056W        W49782  22.585  27.620   9.926
78057W        W49783  31.889  42.363   0.491
78058W        W49784   7.832  14.378  11.559
78059W        W49785  30.678  27.186   3.583
78060W        W49786  33.349  11.342   2.741
78061W        W49787  31.403   1.560   3.663
78062W        W49788  23.086  11.978   4.174
78063W        W49789  40.253   1.407  14.561
78064W        W49790  10.370  38.491   2.182
78065W        W49791  27.545  40.808   1.139
78066W        W49792   6.336  39.430   1.765
78067W        W49793  34.933  24.563   1.760
78068W        W49794  13.324  15.714   3.705
78069W        W49795  39.414   8.373  13.726
78070W        W49796  39.862  11.206   1.972
78071W        W49797  22.963   2.489  11.205
78072W        W49798   9.727   7.180   3.258
78073W        W49799  37.291  28.223   5.094
78074W        W49800  29.634  38.019  13.062
78075W        W49801  24.452  20.796   2.783
78076W        W49802  19.014  39.867  12.571
78077W        W49803  11.943   4.433  13.794
78078W        W49804   1.263  40.627   0.419
78079W        W49805  27.463  30.235  10.729
78080W        W49806  44.575  24.616   3.665
78081W        W49807   6.548  40.043  10.654
78082W        W49808  20.087  38.494   3.183
78083W        W49809  41.838  20.537   3.693
78084W        W49810  39.314  19.715   1.141
78085W        W49811  20.733  14.426   5.487
78086W        W49812  29.031  35.503   4.609
78087W        W49813  41.617  17.719  11.487
78088W        W49814  26.501   4.444   5.100
78089W        W49815  32.369  36.936  13.019
78090W        W49816  41.776  32.761  13.888
78091W        W49817  12.552   8.290  12.109
78092W        W49818  28.151   7.828   4.484
78093W        W49819  22.159  30.001   4.676
78094W        W49820  43.556  16.103   4.326
78095W        W49821   7.949  13.701   3.782
78096W        W49822  43.720  19.759   2.648
78097W        W49823  27.409   6.229   2.754
78098W        W49824  35.012  32.013  11.578
78099W        W49825  25.045  22.220   2.658
78100W        W49826  43.577  39.031   4.446
78101W        W49827  26.024  33.139  13.545
78102W        W49828  29.198   8.427  12.553
78103W        W49829  42.672  32.567  14.932
78104W        W49830  27.138   5.660   2.274
78105W        W49831   5.811  41.831   2.790
78106W        W49832  44.807  27.420  11.235
78107W        W49833  15.840  39.087   2.744
78108W        W49834  44.266   0.474  10.928
78109W        W49835   6.305  32.670  14.383
78110W        W49836  33.791  39.390   1.898
78111W        W49837  25.372  36.496  13.570
78112W        W49838   9.198  42.719   3.484
78113W        W49839  21.239   6.983  12.954
78114W        W49840  28.873  42.349   3.186
78115W        W49841  14.224  12.903  14.045
78116W        W49842   6.175   0.227  11.079
78117W        W49843  17.134  33.805   2.903
78118W        W49844   4.180  33.406  12.873
78119W        W49845  31.041  38.008  13.804
78120W        W49846   1.052  19.093   0.129
78121W        W49847  28.568  22.281  14.471
78122W        W49848   9.721   9.210  11.620
78123W        W49849  42.503  22.786  11.937
78124W        W49850   9.487  19.993  11.502
78125W        W49851  25.152  36.361  14.028
78126W        W49852   3.236  13.983  11.739
78127W        W49853  32.506  28.029   4.677
78128W        W49854  37.985  11.331   4.877
78129W        W49855  16.494  37.077   2.929
78130W        W49856  43.273  34.346  12.505
78131W        W49857  21.607  20.130   0.509
78132W        W49858  23.919   3.034  12.526
78133W        W49859  20.675   8.872   2.366
78134W        W49860  18.558  22.984  11.042
78135W        W49861  44.424  14.546   0.896
78136W        W49862  18.226   1.783  11.544
78137W        W49863  15.982   7.126  11.135
78138W        W49864  25.023  24.566  14.336
78139W        W49865  18.727  34.502   4.542
78140W        W49866   8.192  26.702   4.753
78141W        W49867  29.662  44.752  11.428
78142W        W49868  37.879  18.275  12.093
78143W        W49869  16.614  25.465   2.805
78144W        W49870  24.769   0.920  13.875
78145W        W49871  33.973  29.449   1.746
78146W        W49872  24.616  40.386  11.452
78147W        W49873  19.719  28.175  14.334
78148W        W49874  12.255   1.021  14.870
78149W        W49875  28.391  12.447  12.475
78150W        W49876   9.617   7.668   3.408
78151W        W49877  41.372  28.934  10.645
78152W        W49878  15.650   4.691  13.476
78153W        W49879  11.841  21.504   2.909
78154W        W49880   9.245  41.304  14.884
78155W        W49881  16.874  18.497   3.870
78156W        W49882  20.596  43.448   4.587
78157W        W49883  12.041  44.282   4.704
78158W        W49884   1.320  41.257   4.546
78159W        W49885  33.611   2.759  11.532
78160W        W49886   1.844  33.087   3.869
78161W        W49887  41.502  28.187  13.532
78162W        W49888  33.433  31.499  10.678
78163W        W49889  38.697  28.925   1.800
78164W        W49890  36.764  42.316   4.484
78165W        W49891  33.100  38.849  10.410
78166W        W49892  15.803   2.350   2.215
78167W        W49893  27.191   8.410  11.986
78168W        W49894  12.948  23.016  12.368
78169W        W49895  37.088   7.075  11.404
78170W        W49896  37.552   5.816   4.924
78171W        W49897  17.058   0.525  10.795
78172W        W49898  24.165  42.334   0.399
78173W        W49899  33.247  23.801  13.397
78174W        W49900   4.523  38.535  11.339
78175W        W49901  20.159  36.332   0.408
78176W        W49902  28.145  13.377   2.938
78177W        W49903  11.330   0.478  14.935
78178W        W49904  27.245  14.538  13.838
78179W        W49905  22.543  15.803   0.323
78180W        W49906  36.563  30.287  12.496
78181W        W49907  36.975   4.856   1.786
78182W        W49908  22.159  41.771   2.200
78183W        W49909  24.410  26.508   3.189
78184W        W49910  43.722  20.285   0.003
78185W        W49911   4.461  24.740   2.576
78186W        W49912   7.319  43.494  14.974
78187W        W49913   7.762  41.845   3.267
78188W        W49914  35.342   9.131   3.275
78189W        W49915  27.214  29.871  12.871
78190W        W49916  26.430   5.445  13.278
78191W        W49917  41.413  26.634  12.069
78192W        W49918  27.134  25.023  13.359
78193W        W49919  27.722  17.240  14.128
78194W        W49920  31.237  14.760   5.043
78195W        W49921  22.262   2.064  13.338
78196W        W49922  33.411  26.407  10.156
78197W        W49923  44.693  25.476   3.937
78198W        W49924  28.026  26.099  13.477
78199W        W49925   3.786   0.950  14.416
78200W        W49926  31.564  42.830  12.452
78201W        W49927  27.544  35.553  11.517
78202W        W49928  36.256   0.472   3.687
78203W        W49929  11.836  25.712   4.153
78204W        W49930   2.592  24.297   3.293
78205W        W49931  18.444  15.297   1.359
78206W        W49932  41.744  29.635   2.856
78207W        W49933  21.542  18.224  14.907
78208W        W49934  27.400  32.413   4.240
78209W        W49935  30.566   6.877   3.370
78210W        W49936  44.490  11.664   0.846
78211W        W49937  36.405  12.335   1.170
78212W        W49938  12.790  29.683   3.315
78213W        W49939  28.490  27.034  11.179
78214W        W49940  36.420   4.805  11.221
78215W        W49941  28.318  44.776   0.470
78216W        W49942  10.765  43.799   0.694
78217W        W49943  25.080  18.970   3.420
78218W        W49944  27.125  11.243   2.423
78219W        W49945  24.787  13.432   2.933
78220W        W49946  19.489  25.270   5.065
78221W        W49947  15.643  43.316  11.625
78222W        W49948  15.146   8.565   2.444
78223W        W49949  39.939  33.620   1.367
78224W        W49950  33.316   7.814   1.847
78225W        W49951  36.120  15.255   1.396
78226W        W49952  36.610   3.745  13.121
78227W        W49953   8.167  36.936  11.859
78228W        W49954   5.043  25.266   0.797
78229W        W49955  34.956  33.347  10.308
78230W        W49956   7.205  34.135  12.559
78231W        W49957  11.365  26.614   1.459
78232W        W49958   4.810  24.128  12.312
78233W        W49959  17.283  10.877   1.945
78234W        W49960  14.295   3.705   4.247
78235W        W49961  37.890  38.937   1.479
78236W        W49962  21.791  21.289   2.832
78237W        W49963   4.990   5.466   3.627
78238W        W49964   0.016  44.351  11.635
78239W        W49965  41.285  18.712  12.924
78240W        W49966   4.175  16.307   0.805
78241W        W49967  17.215  33.536  14.950
78242W        W49968  36.365   7.405   2.897
78243W        W49969  31.183  14.689   0.528
78244W        W49970   1.907  17.578   2.450
78245W        W49971  29.733   6.771  13.954
78246W        W49972  34.500  36.100  12.107
78247W        W49973  36.096  16.352  11.471
78248W        W49974  14.776  37.286   1.289
78249W        W49975  26.784  11.759   2.062
78250W        W49976  35.079  36.744   2.849
78251W        W49977  28.984  43.456   2.340
78252W        W49978  11.640  32.495  13.224
78253W        W49979   2.291  28.226  11.042
78254W        W49980   2.056   7.111  12.049
78255W        W49981  36.586  10.792  11.636
78256W        W49982  15.198  41.557   1.434
78257W        W49983  38.015   5.857   3.456
78258W        W49984  16.807  16.738  14.929
78259W        W49985   3.842  31.719  12.828
78260W        W49986  24.493  13.765   1.755
78261W        W49987  34.997  44.491   0.873
78262W        W49988  33.839   6.857  12.568
78263W        W49989   5.647  18.026  13.499
78264W        W49990  30.170  14.154  11.593
78265W        W49991  24.527  31.188  14.870
78266W        W49992  18.616  37.528   4.943
78267W        W49993  28.379   2.992  11.441
78268W        W49994  43.967   3.286  11.450
78269W        W49995  29.740  12.971   5.089
78270W        W49996  42.800  13.565   3.141
78271W        W49997  28.690  42.347   3.657
78272W        W49998  14.249  31.230   4.080
78273W        W49999   9.823  34.518  11.065
78274W        W50000   9.893   1.764  12.132
78275W        W50001  16.684  17.571  12.159
78276W        W50002  17.746  40.748  10.555
78277W        W50003   3.119  15.530  12.010
78278W        W50004  44.922   1.732  14.737
78279W        W50005  35.850  38.006  12.223
78280W        W50006  13.761  17.104  14.132
78281W        W50007  34.578   0.463   3.613
78282W        W50008  17.077  12.239   0.752
78283W        W50009  35.615   6.918  13.674
78284W        W50010  35.562  17.172  12.449
78285W        W50011  37.326  28.549  13.910
78286W        W50012  17.576  24.234   1.344
78287W        W50013   0.757  10.374  10.752
78288W        W50014   3.243  18.816  10.665
78289W        W50015  41.709  16.989   3.778
78290W        W50016  26.194  25.521   3.219
78291W        W50017   0.138  29.083  14.960
78292W        W50018  28.480  43.710   1.739
78293W        W50019  19.002   6.790   2.303
78294W        W50020  41.427   7.626   5.308
78295W        W50021   3.587  14.354   3.217
78296W        W50022  32.540  28.978  14.049
78297W        W50023  12.649  30.440   1.756
78298W        W50024  37.886  32.552   1.630
78299W        W50025  44.875  27.365   2.268
78300W        W50026  33.419  31.591   1.852
78301W        W50027  16.545  15.493   4.988
78302W        W50028  24.710  42.491  11.641
78303W        W50029  39.565  17.723   4.549
78304W        W50030   4.288  38.447  10.888
78305W        W50031  17.818  38.417   9.654
78306W        W50032  24.932   6.785   2.142
78307W        W50033  23.186   6.174  13.435
78308W        W50034  27.525  12.862  11.675
78309W        W50035  30.685  41.889   2.693
78310W        W50036  40.876  39.400   4.248
78311W        W50037  22.909  22.721   0.437
78312W        W50038  27.562  13.695   4.877
78313W        W50039  30.931  31.789  12.368
78314W        W50040   3.557  32.989  10.680
78315W        W50041   9.625   7.822   1.437
78316W        W50042  25.536  28.699   0.727
78317W        W50043  16.281  32.483  14.899
78318W        W50044  30.625  34.847  12.110
78319W        W50045   2.895   5.296   0.812
78320W        W50046  38.086  28.467  11.929
78321W        W50047  17.533   5.168   1.324
78322W        W50048  22.618  31.365  13.821
78323W        W50049  38.905  20.561  11.552
78324W        W50050   1.898  18.319  12.914
78325W        W50051  13.959  14.557  12.540
78326W        W50052  43.064   5.813   0.247
78327W        W50053  38.292  27.970  11.923
78328W        W50054  40.996  34.248  12.956
78329W        W50055  13.162  29.235   2.709
78330W        W50056   5.250  38.241  13.376
78331W        W50057   7.895  35.232   9.656
78332W        W50058  15.564  44.042  13.710
78333W        W50059  12.667  33.651  11.611
78334W        W50060  16.328  36.926  14.276
78335W        W50061  21.494   3.994   2.171
78336W        W50062  15.846  10.371  12.083
78337W        W50063  36.199   2.835  13.918
78338W        W50064   1.065  24.236  13.496
78339W        W50065   8.841  11.260  14.298
78340W        W50066  28.403  22.617  13.814
78341W        W50067  11.329  33.905  11.583
78342W        W50068   2.517   8.518   1.761
78343W        W50069  24.748  17.827   0.380
78344W        W50070  10.288  44.385   2.624
78345W        W50071  36.554  44.922  11.246
78346W        W50072  32.253  40.871  10.658
78347W        W50073  17.278  37.521  11.497
78348W        W50074  22.580  27.043   3.306
78349W        W50075   8.314   2.273   0.972
78350W        W50076  40.454  30.824  14.747
78351W        W50077   5.791  24.298  11.271
78352W        W50078  17.182   4.636  14.887
78353W        W50079  18.293  29.121  12.946
78354W        W50080  34.866  25.446   4.334
78355W        W50081  40.332  31.141  11.438
78356W        W50082  14.794  30.840   1.162
78357W        W50083  12.311  22.734  14.814
78358W        W50084  32.012  18.097  12.824
78359W        W50085   3.173  27.102  13.389
78360W        W50086  22.739  19.465   4.252
78361W        W50087   2.505  38.192   2.595
78362W        W50088   5.912  37.315  11.528
78363W        W50089  11.251   2.442  14.145
78364W        W50090   6.903  34.824   1.110
78365W        W50091  34.009   8.714  14.896
78366W        W50092   2.265  30.299   4.404
78367W        W50093  36.804   2.311   0.347
78368W        W50094  35.917   1.362   3.637
78369W        W50095  39.503  15.067  11.144
78370W        W50096  37.880  14.375   2.916
78371W        W50097  33.458   4.260  12.417
78372W        W50098  44.576  32.632  10.019
78373W        W50099   7.331  35.340  10.937
78374W        W50100  16.604  12.159   1.930
78375W        W50101  22.718  22.953   1.233
78376W        W50102  37.381  41.718   1.067
78377W        W50103   2.421  16.773  13.989
78378W        W50104  43.583  35.382   2.692
78379W        W50105  35.403  12.988  13.062
78380W        W50106   2.189  31.719  11.065
78381W        W50107  22.834  36.369  11.413
78382W        W50108   2.874  31.384  10.814
78383W        W50109  11.930  13.688  13.927
78384W        W50110   4.697  24.064   3.706
78385W        W50111  27.913  27.859  14.891
78386W        W50112  24.935  36.696  14.351
78387W        W50113   4.790  32.851   2.846
78388W        W50114  38.916  16.542   0.271
78389W        W50115  20.102  42.863   2.945
78390W        W50116  12.371  16.525   4.156
78391W        W50117   1.849   6.780  13.432
78392W        W50118  41.660   3.602  11.147
78393W        W50119   6.370  15.343   5.088
78394W        W50120  14.371   6.911  12.971
78395W        W50121   4.361  29.628  10.722
78396W        W50122  15.608  11.320   4.604
78397W        W50123   2.801   9.368   0.519
78398W        W50124  27.081  12.030   4.853
78399W        W50125  27.245  10.114  13.431
78400W        W50126  44.417  37.560   1.247
78401W        W50127  23.263  22.260   3.259
78402W        W50128  40.557  15.704   4.512
78403W        W50129   4.001   2.253  13.276
78404W        W50130   7.237  11.336   0.452
78405W        W50131   0.750   1.005   3.171
78406W        W50132  13.320   9.271  12.744
78407W        W50133  34.368  34.340  12.837
78408W        W50134   2.725  12.588   4.218
78409W        W50135  33.057  28.496   0.710
78410W        W50136   5.828  36.834   4.568
78411W        W50137  16.627  35.053  10.644
78412W        W50138  13.312  23.559   4.448
78413W        W50139  10.027  39.930   9.915
78414W        W50140  11.245   2.962  14.133
78415W        W50141  21.127  27.178  11.974
78416W        W50142  33.451  27.195   0.217
78417W        W50143  25.504   9.213   2.795
78418W        W50144  23.557  15.738   2.667
78419W        W50145   0.345  13.586   1.713
78420W        W50146  42.506  32.500   1.407
78421W        W50147   3.445   5.460   1.748
78422W        W50148  24.767  30.471  12.633
78423W        W50149  10.922   0.331   1.747
78424W        W50150  34.878  31.490  14.206
78425W        W50151  41.540   4.236   4.650
78426W        W50152  26.876   4.208  14.311
78427W        W50153   7.219  44.406   1.380
78428W        W50154  10.586  23.161   3.752
78429W        W50155  30.148  23.778   2.821
78430W        W50156  30.379   3.346   2.245
78431W        W50157  36.124  20.198   1.345
78432W        W50158  31.869  25.639   2.203
78433W        W50159  29.640  13.719  12.852
78434W        W50160  32.537  17.904   2.979
78435W        W50161  36.539  30.561   3.071
78436W        W50162   7.721  38.819  14.699
78437W        W50163   5.669  13.309  14.444
78438W        W50164  28.680   3.332  13.552
78439W        W50165  37.405   7.636  11.050
78440W        W50166  16.547  41.926  14.379
78441W        W50167  12.707  44.447   0.224
78442W        W50168  43.714  33.819   3.658
78443W        W50169  29.302  14.319   5.094
78444W        W50170  19.727  16.598   2.460
78445W        W50171  12.724   6.978   0.284
78446W        W50172   6.158  22.561   0.716
78447W        W50173   4.808  22.978   1.330
78448W        W50174   5.224   7.169   3.343
78449W        W50175  28.897  33.376  13.399
78450W        W50176  38.563  28.816   4.614
78451W        W50177  10.405  24.669  12.026
78452W        W50178  28.768  18.604   1.364
78453W        W50179  33.682   5.873  12.626
78454W        W50180  29.185  10.300   3.352
78455W        W50181  22.997  33.932   3.546
78456W        W50182  24.188  40.336  11.140
78457W        W50183  36.315  30.122  10.527
78458W        W50184  11.328  30.052   1.972
78459W        W50185   3.042  37.359   4.627
78460W        W50186  29.392   8.869  13.815
78461W        W50187   6.720  14.969  14.839
78462W        W50188   1.728  10.116   1.406
78463W        W50189  44.949  44.274  12.652
78464W        W50190  11.545  37.328   2.842
78465W        W50191   6.332  42.612  11.509
78466W        W50192  23.082  18.754   4.392
78467W        W50193   6.745  18.751  13.813
78468W        W50194  30.556  33.508   0.366
78469W        W50195  25.242   0.299   0.499
78470W        W50196  16.184  23.576  10.437
78471W        W50197   8.247  14.200  13.583
78472W        W50198  44.356  30.194  10.010
78473W        W50199  29.530  31.924   4.567
78474W        W50200  15.451  30.047   0.400
78475W        W50201  16.540   3.361  10.484
78476W        W50202  10.097  25.670  13.910
78477W        W50203  26.058   5.506   1.056
78478W        W50204   6.293  21.441   2.624
78479W        W50205  18.013  28.542  12.177
78480W        W50206  25.976  26.455   2.279
78481W        W50207  30.417   2.921  11.547
78482W        W50208   2.468  13.706   2.811
78483W        W50209  17.675  18.065  10.955
78484W        W50210  33.020   4.007  12.563
78485W        W50211  10.629  12.161   4.153
78486W        W50212  40.606  35.853  13.290
78487W        W50213  43.846  13.289   0.763
78488W        W50214  29.529  17.500  13.515
78489W        W50215  17.691   4.292  14.271
78490W        W50216  44.115  30.739   3.073
78491W        W50217  37.764   9.038   0.877
78492W        W50218  32.365   4.762   4.858
78493W        W50219  34.584  40.433   0.762
78494W        W50220   3.164  32.941  13.755
78495W        W50221  18.571   0.846  13.145
78496W        W50222  36.629   2.362   1.487
78497W        W50223  20.316  20.231   2.179
78498W        W50224  34.923   0.020   4.674
78499W        W50225  37.904  15.603   3.797
78500W        W50226  35.910  15.484   0.744
78501W        W50227  11.797   9.245   4.847
78502W        W50228  15.748  12.746  11.874
78503W        W50229  22.015  10.076   1.721
78504W        W50230   3.300  29.489   2.134
78505W        W50231  18.820  39.479   2.345
78506W        W50232  23.639  31.273   1.910
78507W        W50233  23.707  38.321  12.408
78508W        W50234  41.579  31.940  10.204
78509W        W50235   1.474   1.686   0.716
78510W        W50236  24.214  41.649  12.802
78511W        W50237  25.204  19.326  12.460
78512W        W50238  38.476  25.229   1.516
78513W        W50239  43.385  11.922   1.936
78514W        W50240  39.562  36.064   4.388
78515W        W50241  44.553  12.526  13.062
78516W        W50242  27.933   6.678   1.929
78517W        W50243  30.600  24.664   0.050
78518W        W50244  43.531   7.654  11.474
78519W        W50245   7.945   6.738   1.415
78520W        W50246  16.328  18.250  10.642
78521W        W50247  23.284  23.080   1.839
78522W        W50248  26.479  37.693  12.319
78523W        W50249  26.934  32.070   0.364
78524W        W50250   3.643  29.887  12.420
78525W        W50251   7.354   9.359   1.776
78526W        W50252   7.732  35.021  11.003
78527W        W50253  18.516  34.878  10.611
78528W        W50254  39.339  33.852   2.280
78529W        W50255  11.627  28.374  11.218
78530W        W50256   5.762  18.286  11.436
78531W        W50257  41.172  16.179  13.446
78532W        W50258  19.283  26.316  13.271
78533W        W50259  15.663  44.831  13.861
78534W        W50260  18.019  31.566  13.040
78535W        W50261  19.800  43.782   4.582
78536W        W50262  33.003  33.411  10.721
78537W        W50263  31.445   1.735  13.537
78538W        W50264  40.285   5.948   1.843
78539W        W50265   8.366   1.109   1.243
78540W        W50266   7.439   8.675   4.785
78541W        W50267  30.788  31.217  12.812
78542W        W50268  42.425  36.323  10.780
78543W        W50269   1.684   1.803   1.670
78544W        W50270   0.463  41.082  13.848
78545W        W50271  35.949  11.256  14.801
78546W        W50272   7.619  36.098   2.329
78547W        W50273  25.058   9.753   4.766
78548W        W50274  31.436  16.299  11.716
78549W        W50275  18.998  36.417   4.452
78550W        W50276  35.461  25.528   3.297
78551W        W50277  13.739  34.867   4.122
78552W        W50278  15.832  30.718   4.818
78553W        W50279  35.259  13.298  14.947
78554W        W50280   6.222  42.693   3.851
78555W        W50281  12.718  42.070  10.549
78556W        W50282  18.811  12.150   3.620
78557W        W50283   4.880  23.429  13.456
78558W        W50284   3.725  43.380   4.818
78559W        W50285  11.153  32.952   0.764
78560W        W50286  10.859  23.871   1.319
78561W        W50287   5.795  31.003   3.201
78562W        W50288  21.600  25.682   0.518
78563W        W50289  26.721   6.932   2.703
78564W        W50290  22.657  10.213   0.469
78565W        W50291  26.517  41.275   2.432
78566W        W50292  34.912  35.890  11.872
78567W        W50293  36.436  44.908  14.703
78568W        W50294  13.561  30.495  13.915
78569W        W50295  44.891  17.193   2.844
78570W        W50296   6.366  37.096   1.816
78571W        W50297  40.413  15.563  12.504
78572W        W50298  38.196   3.473   4.340
78573W        W50299   3.187  43.431   3.588
78574W        W50300  25.511  16.558  14.476
78575W        W50301  34.932  10.613   3.114
78576W        W50302  18.613  35.487   4.209
78577W        W50303   8.258   8.127  14.010
78578W        W50304  17.616  29.895  12.848
78579W        W50305   1.697  12.201  12.491
78580W        W50306  40.791   7.709  14.802
78581W        W50307  27.102  11.272   1.369
78582W        W50308  32.501  43.707  11.121
78583W        W50309   0.941  38.293  13.391
78584W        W50310  41.789  38.090  13.946
78585W        W50311  18.219  40.616   1.895
78586W        W50312  42.223  23.122  11.617
78587W        W50313  33.166  40.027   2.255
78588W        W50314  21.537  39.939   0.223
78589W        W50315   4.782   4.656  13.096
78590W        W50316  40.337  12.275   0.354
78591W        W50317  39.977  20.123   2.318
78592W        W50318   2.755  22.548   3.752
78593W        W50319  16.564  39.546   0.880
78594W        W50320  32.457  18.273  14.002
78595W        W50321  30.405  24.224  12.820
78596W        W50322   3.517  35.940  11.967
78597W        W50323  37.952   5.040  11.097
78598W        W50324  43.169  17.224   3.659
78599W        W50325  35.821  28.665   1.681
78600W        W50326  11.734  36.845  12.571
78601W        W50327  14.364  22.093   2.172
78602W        W50328   9.764   8.887  14.794
78603W        W50329  13.595  14.197   4.990
78604W        W50330  19.676  20.721  13.096
78605W        W50331  17.628   4.866  11.603
78606W        W50332  44.638  36.087  13.029
78607W        W50333  43.909  31.352   2.114
78608W        W50334  43.934  17.093  14.271
78609W        W50335  24.098   9.878  11.148
78610W        W50336  16.678   6.360  10.750
78611W        W50337   0.393  22.304   3.874
78612W        W50338  14.151  39.046  13.764
78613W        W50339  29.535  40.632  12.756
78614W        W50340  22.482  40.346  13.338
78615W        W50341  38.403   8.177   0.880
78616W        W50342  36.237  10.574   3.682
78617W        W50343   0.301   2.638   3.690
78618W        W50344   8.818  32.155  13.127
78619W        W50345  23.525  14.605   2.019
78620W        W50346   6.308  28.045   1.299
78621W        W50347   9.477  19.262   0.390
78622W        W50348  14.863  37.500   2.149
78623W        W50349  14.841  18.241   2.307
78624W        W50350   4.176  19.075  11.135
78625W        W50351   9.237  23.947  13.334
78626W        W50352  40.533  13.258  12.525
78627W        W50353  36.842  10.778   0.435
78628W        W50354  18.868   5.009   3.205
78629W        W50355   0.124  38.686  13.906
78630W        W50356  31.011   5.639  14.036
78631W        W50357  13.740  44.023  13.097
78632W        W50358  19.312   8.198   1.232
78633W        W50359  39.139   6.719  12.954
78634W        W50360  28.717  35.839  12.005
78635W        W50361  33.750  17.533  12.798
78636W        W50362  12.161  26.569   2.886
78637W        W50363   5.702  35.873   2.981
78638W        W50364   9.106   7.714   4.688
78639W        W50365  37.817  16.648  10.932
78640W        W50366  13.404  39.493   3.576
78641W        W50367   5.057  14.245   2.192
78642W        W50368  43.338  23.998  12.158
78643W        W50369  21.556   3.964   3.592
78644W        W50370  24.544  32.408  10.716
78645W        W50371  30.942  24.100   2.321
78646W        W50372  29.496  28.078  14.558
78647W        W50373   3.373  15.603   1.499
78648W        W50374   5.745  22.766   0.475
78649W        W50375  11.608  10.155  10.587
78650W        W50376  19.758  13.804   3.281
78651W        W50377   8.620  26.450  11.885
78652W        W50378  12.079  22.554   4.214
78653W        W50379  12.055  33.094  13.373
78654W        W50380  20.504  17.568   4.397
78655W        W50381  38.537  27.615  14.273
78656W        W50382  28.041  33.356   1.727
78657W        W50383  27.354  16.128   4.595
78658W        W50384   6.244   1.028  10.691
78659W        W50385  19.996  24.764   2.667
78660W        W50386   2.183  21.256  12.046
78661W        W50387  12.583   4.180   0.826
78662W        W50388  16.692  14.828  10.646
78663W        W50389   8.459  24.064   2.374
78664W        W50390  11.057  26.703  13.939
78665W        W50391  29.630   1.276  13.275
78666W        W50392  30.905   0.838  12.839
78667W        W50393  32.815  12.718  11.352
78668W        W50394  10.433  14.779  12.065
78669W        W50395  37.978  17.322   3.777
78670W        W50396   5.944  12.880   5.521
78671W        W50397  16.670  12.627   3.319
78672W        W50398  12.302  44.696   4.889
78673W        W50399  12.886  17.815  12.899
78674W        W50400  10.632  17.592   0.333
78675W        W50401  38.888  39.604  10.728
78676W        W50402  22.007  24.276   0.840
78677W        W50403  10.424  40.860   0.332
78678W        W50404  21.053  18.144   2.360
78679W        W50405   5.960  21.349   3.300
78680W        W50406  16.043  25.658  13.083
78681W        W50407   5.589  22.712   2.375
78682W        W50408  29.882  18.145  11.210
78683W        W50409  22.452  30.842  13.911
78684W        W50410  37.085  42.073   0.725
78685W        W50411  11.787   1.143   1.141
78686W        W50412  34.148   3.937   3.953
78687W        W50413  15.656  24.834   4.724
78688W        W50414   7.387  13.682   4.681
78689W        W50415  20.025   9.823  13.440
78690W        W50416  41.987  28.610   3.139
78691W        W50417  31.519   8.898  10.752
78692W        W50418  10.645  28.393   0.893
78693W        W50419  41.718  18.737  12.075
78694W        W50420  21.842   4.789   0.016
78695W        W50421  42.246  37.876   4.662
78696W        W50422  22.690  35.873   2.027
78697W        W50423  17.302  43.326  12.298
78698W        W50424  18.262  44.937  14.891
78699W        W50425   4.352   4.488  12.872
78700W        W50426  11.728  21.502   1.903
78701W        W50427  41.104  13.124   2.729
78702W        W50428  37.985  22.446  11.070
78703W        W50429  21.440  24.704   1.793
78704W        W50430  16.631  26.871  12.415
78705W        W50431  37.381  22.272   3.731
78706W        W50432  35.685  11.349   0.563
78707W        W50433  42.276  42.838  14.430
78708W        W50434  13.368   1.802  10.762
78709W        W50435  16.835  35.302  14.464
78710W        W50436  15.191  29.559   2.613
78711W        W50437   8.181  37.839   2.147
78712W        W50438  16.302  29.979  10.666
78713W        W50439  23.669  30.622  14.576
78714W        W50440  30.179  19.083  14.049
78715W        W50441  42.559  36.580   0.243
78716W        W50442   8.295  30.960  14.852
78717W        W50443  26.089  23.170  13.505
78718W        W50444  11.823  36.571   3.671
78719W        W50445  24.808  13.514   0.790
78720W        W50446   7.801   9.647   1.768
78721W        W50447  44.110  26.891   1.416
78722W        W50448  24.594  21.005  14.741
78723W        W50449  31.264   4.919   2.292
78724W        W50450  22.095  31.673  11.697
78725W        W50451  16.238  29.483  14.749
78726W        W50452   9.943  19.062  14.745
78727W        W50453  33.862  41.667  13.531
78728W        W50454  13.132  34.164   0.452
78729W        W50455  40.385   4.071  12.550
78730W        W50456  36.482   6.869   1.853
78731W        W50457  31.926  40.886  11.575
78732W        W50458  19.990  17.347   3.685
78733W        W50459   3.279  44.056  11.022
78734W        W50460  28.141  43.992  10.947
78735W        W50461  18.327  29.066   0.804
78736W        W50462  16.960  29.433  14.424
78737W        W50463   1.414  27.302   3.128
78738W        W50464   8.232  27.754  12.083
78739W        W50465  13.758   9.091   0.766
78740W        W50466  41.025   1.921   3.829
78741W        W50467  22.356  33.546   5.176
78742W        W50468  37.990  27.652  10.640
78743W        W50469   0.725  11.877  11.635
78744W        W50470   8.440  40.114   1.926
78745W        W50471  10.626   5.862   3.376
78746W        W50472  44.549  16.954   9.868
78747W        W50473  22.010  33.988   4.434
78748W        W50474  28.920  28.151   3.585
78749W        W50475  32.543  38.710   0.250
78750W        W50476  29.576   2.666  14.808
78751W        W50477  23.709   0.888  11.896
78752W        W50478  17.097  19.565   1.870
78753W        W50479  11.333  26.054  13.970
78754W        W50480   9.393  13.311   3.358
78755W        W50481  30.017  12.360  13.094
78756W        W50482  30.096  18.621  11.207
78757W        W50483  13.666  32.876   4.447
78758W        W50484  20.692  25.632   0.009
78759W        W50485   5.437  13.036   4.629
78760W        W50486   4.683  32.997   3.908
78761W        W50487  16.268  33.478  12.507
78762W        W50488   3.480  27.106   2.246
78763W        W50489   2.805  33.665   3.088
78764W        W50490  39.341  41.410   3.950
78765W        W50491   5.300  25.725  10.744
78766W        W50492  10.003  28.915  10.569
78767W        W50493  30.604  40.990   1.304
78768W        W50494  38.584  37.574  14.419
78769W        W50495  29.819  22.187   2.291
78770W        W50496  11.785  43.060   0.012
78771W        W50497  28.608  39.025   1.186
78772W        W50498   5.119  33.073  11.511
78773W        W50499   2.685  44.521   0.232
78774W        W50500  10.717  42.276  12.255
78775W        W50501  37.254  25.760  11.062
78776W        W50502  23.208   7.806  12.053
78777W        W50503  16.722  38.804  14.362
78778W        W50504  17.982  36.044  11.175
78779W        W50505  24.076   0.674   1.463
78780W        W50506  16.784  21.259  11.590
78781W        W50507  14.574  35.987  14.394
78782W        W50508  12.658   7.506   4.335
78783W        W50509   8.785  40.463   2.044
78784W        W50510   7.204  37.132   1.277
78785W        W50511  36.436  38.097  10.808
78786W        W50512   3.776  27.719  12.940
78787W        W50513  18.078  35.859  14.925
78788W        W50514   9.339  31.037  11.591
78789W        W50515  17.740  20.065   2.417
78790W        W50516  34.342  16.718  11.587
78791W        W50517  39.103  28.202  11.669
78792W        W50518   3.370  28.098  11.896
78793W        W50519   7.531  41.480   4.139
78794W        W50520  35.637  11.333   1.958
78795W        W50521  31.350  21.459   1.740
78796W        W50522  17.880  29.430  12.865
78797W        W50523  20.649   6.330   1.506
78798W        W50524   6.670  35.416   1.057
78799W        W50525  11.632   8.933   3.988
78800W        W50526  38.976   7.192  13.083
78801W        W50527  39.486  41.464   0.043
78802W        W50528  31.562  23.706  14.072
78803W        W50529  24.076  26.250   2.853
78804W        W50530  44.270   9.336  14.024
78805W        W50531  37.464  18.397   2.246
78806W        W50532  13.814  16.802   4.194
78807W        W50533  35.036  34.442   1.351
78808W        W50534  43.453   2.311  10.936
78809W        W50535  11.141  14.315   4.537
78810W        W50536  35.947  40.801   3.894
78811W        W50537  27.216  13.696   4.458
78812W        W50538  15.336  39.037   4.622
78813W        W50539  24.937  20.141   1.014
78814W        W50540  23.180  12.121   9.628
78815W        W50541  17.742  35.042  13.496
78816W        W50542  36.493  11.535  11.058
78817W        W50543  33.983  25.577   4.857
78818W        W50544   2.938  19.669  12.452
78819W        W50545  44.318  27.638   0.695
78820W        W50546  28.080  36.945   3.152
78821W        W50547  36.318   4.905   1.712
78822W        W50548   1.948  37.936  10.707
78823W        W50549  30.471  17.301  10.740
78824W        W50550  22.784  32.930   2.122
78825W        W50551   3.686  38.477   1.246
78826W        W50552   0.568  16.865  12.875
78827W        W50553  12.891  22.158  14.104
78828W        W50554  14.744  39.864   0.343
78829W        W50555  33.161  24.453  13.984
78830W        W50556   2.072   6.080   4.058
78831W        W50557   5.887  19.659  13.140
78832W        W50558   9.685  20.427  11.690
78833W        W50559   7.622  23.572  14.379
78834W        W50560  19.583  13.791  12.408
78835W        W50561  41.438  28.391  10.680
78836W        W50562  35.397  32.323   0.792
78837W        W50563  23.455  14.599  11.914
78838W        W50564  23.721  38.582   2.303
78839W        W50565  29.953   3.703   4.208
78840W        W50566  20.906  22.177  11.215
78841W        W50567   0.685  34.021  13.328
78842W        W50568  12.212  36.722  13.466
78843W        W50569  10.772  32.412   2.660
78844W        W50570  44.798  14.187  10.965
78845W        W50571   1.791  19.075  10.708
78846W        W50572  41.755   3.733   3.253
78847W        W50573   1.983   7.799   0.548
78848W        W50574  15.781  30.127  12.732
78849W        W50575  29.500  24.068  11.417
78850W        W50576  36.558  15.795  12.199
78851W        W50577   4.304   4.738  14.242
78852W        W50578  16.643  17.228  12.544
78853W        W50579   1.790  16.803   3.902
78854W        W50580  29.587  36.985  11.232
78855W        W50581  37.043  29.419   0.758
78856W        W50582   1.001   6.473  14.709
78857W        W50583  10.826  41.846  14.531
78858W        W50584  28.005  21.725  10.600
78859W        W50585  35.156   3.765   4.822
78860W        W50586  16.548  29.481  10.897
78861W        W50587   7.894  29.955   4.273
78862W        W50588  25.040  42.424  13.361
78863W        W50589  41.060  25.952   4.021
78864W        W50590  12.157  38.338  10.757
78865W        W50591  23.741  37.220  14.761
78866W        W50592  40.156  44.518   0.945
78867W        W50593  17.716  24.006   3.737
78868W        W50594  12.597  40.495  11.902
78869W        W50595  17.477  35.304  12.187
78870W        W50596  43.066   2.494  12.150
78871W        W50597  39.034  37.829  14.948
78872W        W50598  37.098   8.286   1.811
78873W        W50599  37.431  15.320   4.520
78874W        W50600  28.667   3.846   0.842
78875W        W50601  18.635  27.878   3.237
78876W        W50602  12.097  28.992  13.494
78877W        W50603  20.184  39.559   0.762
78878W        W50604   0.695  26.902  12.422
78879W        W50605  15.712   4.898   3.661
78880W        W50606  29.733  28.982  11.678
78881W        W50607  30.219  20.071   3.838
78882W        W50608   3.891  27.777   1.789
78883W        W50609  15.882  24.459  10.577
78884W        W50610   7.321  37.312   0.271
78885W        W50611  37.355  19.960   4.767
78886W        W50612  43.386  13.822  13.378
78887W        W50613   3.112  44.906  12.398
78888W        W50614  22.637  29.949  13.003
78889W        W50615  29.968  13.243   2.962
78890W        W50616  28.010  34.641  10.065
78891W        W50617  41.271  40.735   1.921
78892W        W50618  37.125  25.850  14.370
78893W        W50619  33.458   0.442   1.415
78894W        W50620   9.585  13.279  14.950
78895W        W50621  15.562   0.421   3.820
78896W        W50622   3.307  29.149  11.381
78897W        W50623   6.381  35.163  13.445
78898W        W50624  25.475  28.689  11.957
78899W        W50625   5.410  26.283   2.851
78900W        W50626  25.534   3.166   9.916
78901W        W50627  13.212  24.301   0.727
78902W        W50628  42.099  18.779   4.256
78903W        W50629   3.137   3.695   0.589
78904W        W50630  20.944  15.232  10.223
78905W        W50631  40.558   4.925   1.886
78906W        W50632  39.528  14.091   1.760
78907W        W50633  20.607  42.909   1.595
78908W        W50634  18.419  31.157  10.666
78909W        W50635   4.224   4.796  11.659
78910W        W50636  37.058  10.118  10.661
78911W        W50637  37.537  29.599   3.667
78912W        W50638  25.792  26.623   0.395
78913W        W50639  29.468  22.212  11.161
78914W        W50640  15.051   8.211   2.859
78915W        W50641  18.044  15.270  14.268
78916W        W50642  43.844  43.257   0.022
78917W        W50643  35.568  29.693  13.983
78918W        W50644  21.084  13.681  12.203
78919W        W50645  13.554  44.431  14.295
78920W        W50646  42.527  20.798  12.967
78921W        W50647  15.869  14.647   0.179
78922W        W50648   2.390  28.497  13.287
78923W        W50649   9.723  42.733   4.056
78924W        W50650  24.051  28.702  14.296
78925W        W50651  40.065  39.782  11.909
78926W        W50652  21.273  18.128  14.411
78927W        W50653   7.595  32.052  10.400
78928W        W50654  41.506   5.527   4.535
78929W        W50655  18.083  20.672   0.874
78930W        W50656  15.582  30.428   3.861
78931W        W50657  31.954  33.516  10.927
78932W        W50658  29.344  44.910   2.626
78933W        W50659   0.576  41.355  14.744
78934W        W50660  40.404  36.974   0.509
78935W        W50661  39.964   3.459   4.693
78936W        W50662  24.207  37.375   4.138
78937W        W50663  22.666  30.369  14.760
78938W        W50664  24.256  29.882   1.645
78939W        W50665  15.234  19.765  11.613
78940W        W50666  41.996  31.191  14.770
78941W        W50667  24.500  43.541  12.294
78942W        W50668  15.565   7.404  11.177
78943W        W50669  31.613  11.268   1.016
78944W        W50670  29.276   9.592   1.828
78945W        W50671   0.498   8.719   3.284
78946W        W50672   0.777   8.682   1.979
78947W        W50673  34.572  28.141   0.327
78948W        W50674  39.102  11.809  13.338
78949W        W50675  14.895   4.199   3.840
78950W        W50676  33.388  26.943  12.476
78951W        W50677  37.580  26.223  14.545
78952W        W50678  24.144   7.455  10.767
78953W        W50679   3.715  29.114   2.266
78954W        W50680  15.698  14.738  11.982
78955W        W50681  22.605   0.038  12.112
78956W        W50682   2.407  43.532  11.238
78957W        W50683  29.043  17.106  11.971
78958W        W50684  38.033  41.876  13.424
78959W        W50685  10.925  28.689  14.555
78960W        W50686  11.771  22.813  13.653
78961W        W50687  12.061  31.045   1.689
78962W        W50688  15.656  11.337   2.899
78963W        W50689   2.172  27.331  12.643
78964W        W50690  26.565  12.584   0.283
78965W        W50691  44.355  33.598  14.487
78966W        W50692  43.470  10.337   2.732
78967W        W50693  39.046  13.671   0.000
78968W        W50694   0.889  38.917   0.984
78969W        W50695  24.276  28.934  12.066
78970W        W50696  27.728   4.166   4.650
78971W        W50697  11.579   0.498  11.085
78972W        W50698  43.397  17.222   2.736
78973W        W50699  14.309  28.379   2.804
78974W        W50700   6.179  17.263   2.923
78975W        W50701  22.449  25.594  13.985
78976W        W50702  42.791  19.851   1.131
78977W        W50703  41.937   0.971  14.810
78978W        W50704  13.101  43.424  13.530
78979W        W50705  36.365  11.772   5.086
78980W        W50706  34.826  36.936   3.271
78981W        W50707   1.131  22.031   2.798
78982W        W50708  10.582  23.743  14.985
78983W        W50709  42.787  20.355  12.943
78984W        W50710  43.806  23.986   1.406
78985W        W50711  36.874  39.353   4.148
78986W        W50712  34.652  24.026   1.340
78987W        W50713   4.903  19.789   1.891
78988W        W50714   1.640  24.580   1.770
78989W        W50715   6.883  12.168   1.382
78990W        W50716   8.690  36.793  13.412
78991W        W50717  39.104  38.493  14.312
78992W        W50718   8.138   9.496  14.515
78993W        W50719  33.215  32.467   4.621
78994W        W50720   3.672  26.086   0.274
78995W        W50721  17.482  14.867   4.562
78996W        W50722  33.897  28.045  14.410
78997W        W50723   6.399  34.552  12.375
78998W        W50724  40.568   4.171  14.947
78999W        W50725   1.093   5.871   4.183
79000W        W50726  18.882  43.382  14.959
79001W        W50727  31.928  23.497  14.414
79002W        W50728  29.951  32.016  12.429
79003W        W50729  19.483  29.470   1.974
79004W        W50730  29.805   7.820  10.729
79005W        W50731  32.967   5.360  10.591
79006W        W50732  18.045  20.715  12.188
79007W        W50733  20.073  40.885   3.277
79008W        W50734  23.154  25.644   5.178
79009W        W50735  31.365  43.766   4.631
79010W        W50736  11.103  36.634   2.328
79011W        W50737  11.191  28.332  10.442
79012W        W50738  39.946   8.633   0.340
79013W        W50739   2.019  28.213   2.304
79014W        W50740   2.291  41.339   3.428
79015W        W50741   8.898  38.382   4.712
79016W        W50742   5.438  38.901   2.585
79017W        W50743  29.622  29.110  11.199
79018W        W50744  27.609  14.655   3.780
79019W        W50745  24.089   8.089   3.577
79020W        W50746  19.134  15.338  12.418
79021W        W50747  24.923  20.933   3.287
79022W        W50748  21.692   0.269  14.890
79023W        W50749  24.170   9.940  14.533
79024W        W50750  41.832  44.735   3.680
79025W        W50751   7.293  42.332   2.223
79026W        W50752  14.414  20.791   2.281
79027W        W50753  29.027  40.504  12.574
79028W        W50754   9.474  20.286   3.660
79029W        W50755   4.400  32.896   1.558
79030W        W50756  12.277  39.276  12.445
79031W        W50757  28.897   9.385   0.701
79032W        W50758  26.165   9.939  11.992
79033W        W50759  33.891   4.224   1.460
79034W        W50760   1.325  34.049  14.336
79035W        W50761  40.276  31.222  11.936
79036W        W50762  32.644   7.115  10.225
79037W        W50763  28.697  18.023  13.856
79038W        W50764  10.571  40.812   2.402
79039W        W50765   5.262   8.356   2.691
79040W        W50766  34.873  11.729  11.163
79041W        W50767  18.061  37.835   0.957
79042W        W50768   7.843   3.014   2.347
79043W        W50769  40.812  25.559   1.275
79044W        W50770  37.098  10.608  12.531
79045W        W50771  19.741  29.773   2.836
79046W        W50772  18.881  26.527   4.612
79047W        W50773   0.923  28.732   4.134
79048W        W50774   5.397  32.451  12.878
79049W        W50775  16.647  20.156  14.325
79050W        W50776  35.841   0.171   3.571
79051W        W50777  19.552  12.164  10.963
79052W        W50778  28.090  32.535   0.446
79053W        W50779  35.938  16.001   0.825
79054W        W50780  38.750  16.194   3.546
79055W        W50781  41.024  11.704   3.640
79056W        W50782  32.676  40.741   4.657
79057W        W50783  26.449   8.484   1.577
79058W        W50784  44.584  22.649  11.159
79059W        W50785  12.096   1.666   1.754
79060W        W50786  31.997   2.860   2.765
79061W        W50787  21.715  41.338   4.174
79062W        W50788  21.142  11.943  11.445
79063W        W50789  24.693   0.937   3.141
79064W        W50790  19.212   7.725  11.187
79065W        W50791  39.085  28.984   2.736
79066W        W50792  16.262  13.605   4.731
79067W        W50793  29.561  13.570  11.858
79068W        W50794   8.922   2.912   3.559
79069W        W50795  11.664  44.798  11.311
79070W        W50796   3.872  31.481  10.597
79071W        W50797  26.876  11.149  13.043
79072W        W50798   7.758  13.996  14.363
79073W        W50799  16.235   3.295   1.280
79074W        W50800  17.473  16.401   0.501
79075W        W50801  30.099   4.739  11.561
79076W        W50802  43.710  38.189  13.877
79077W        W50803  43.428   8.834  13.702
79078W        W50804  19.986  11.272  12.112
79079W        W50805  24.904  10.447   1.809
79080W        W50806  19.361  17.397  10.585
79081W        W50807  44.938   4.049  10.957
79082W        W50808  27.613  12.717  14.933
79083W        W50809   5.797  31.712   1.354
79084W        W50810  27.011  10.409   1.603
79085W        W50811  26.703   7.829  13.246
79086W        W50812  33.002   3.157   4.014
79087W        W50813  39.366  32.491   1.551
79088W        W50814  42.277  42.081   2.140
79089W        W50815   7.437   3.682  11.093
79090W        W50816  44.766   5.487   2.782
79091W        W50817  36.496   3.293  14.847
79092W        W50818  31.120  19.618  14.691
79093W        W50819  19.165  25.878   1.235
79094W        W50820   7.674  12.893  14.686
79095W        W50821  18.193  23.350   2.691
79096W        W50822  25.240  34.324  11.593
79097W        W50823  41.688  18.041  13.357
79098W        W50824  43.625  36.195   2.890
79099W        W50825   2.291   4.056   1.886
79100W        W50826  10.193  10.740  11.400
79101W        W50827  14.386  12.283   4.435
79102W        W50828  33.579  13.936  11.651
79103W        W50829  29.129  16.510  13.346
79104W        W50830  29.995  10.363  12.481
79105W        W50831  44.840   6.359   1.401
79106W        W50832   1.010  34.274  11.688
79107W        W50833  28.469  20.121   0.290
79108W        W50834  20.084  42.617  12.343
79109W        W50835  42.727  29.206  11.807
79110W        W50836  41.458   5.153  12.866
79111W        W50837  21.900   5.792  13.239
79112W        W50838  39.942  44.340   0.031
79113W        W50839  33.037  36.746  13.923
79114W        W50840   4.180   0.808  10.699
79115W        W50841   7.901  17.574   0.822
79116W        W50842  44.985  39.017   4.515
79117W        W50843  41.974  18.048   2.691
79118W        W50844   0.956  35.027   3.051
79119W        W50845  32.826   6.349  12.917
79120W        W50846  22.649   1.696   0.043
79121W        W50847  15.566   9.254   0.887
79122W        W50848  22.597  26.133  10.843
79123W        W50849  30.241  30.775  12.880
79124W        W50850  18.281   0.205   1.138
79125W        W50851   5.894  44.389   2.205
79126W        W50852   6.181  18.944  11.951
79127W        W50853  22.678   9.329  10.650
79128W        W50854  44.585   5.503   5.097
79129W        W50855  42.038  15.826   4.378
79130W        W50856  31.703  31.890   1.299
79131W        W50857  21.979  23.130  14.854
79132W        W50858  21.260  26.672   0.691
79133W        W50859  40.853  34.541  12.407
79134W        W50860  18.655   2.085   4.064
79135W        W50861  12.091  33.432  12.407
79136W        W50862  37.871  34.050   0.286
79137W        W50863  28.404   7.833  12.195
79138W        W50864  36.126  10.963  12.453
79139W        W50865  37.588  44.829  10.377
79140W        W50866  44.016  38.987   4.156
79141W        W50867  34.736  11.064   2.975
79142W        W50868  25.485  18.300   3.570
79143W        W50869  14.626  14.179  11.185
79144W        W50870  24.009  30.062  13.569
79145W        W50871  19.575  18.946  14.304
79146W        W50872  14.373  13.396  14.309
79147W        W50873   6.166  13.189   2.851
79148W        W50874  31.892  36.044   4.634
79149W        W50875   4.838  19.633  13.177
79150W        W50876  43.773  31.510   0.593
79151W        W50877   8.152  25.924  13.467
79152W        W50878  43.944   3.130  14.937
79153W        W50879  38.012  25.267  11.487
79154W        W50880  14.893   0.912  10.742
79155W        W50881   2.198   0.233   2.071
79156W        W50882   2.878  19.155  14.482
79157W        W50883  29.738  17.118  10.095
79158W        W50884  43.108  20.500   2.879
79159W        W50885  41.728  13.176   4.500
79160W        W50886  40.568   4.306   4.949
79161W        W50887  35.403  12.476  13.086
79162W        W50888  24.438  10.059  10.354
79163W        W50889  32.103  31.448  12.591
79164W        W50890  30.094   9.650  11.712
79165W        W50891  21.363  27.928  13.096
79166W        W50892  28.268  34.317   3.232
79167W        W50893  27.556  21.259  11.290
79168W        W50894  27.886   9.929   3.225
79169W        W50895   4.182   6.094   1.629
79170W        W50896  42.302  16.709   0.287
79171W        W50897  22.121  40.390   1.389
79172W        W50898  24.142  38.461  12.630
79173W        W50899  23.028  19.739  10.800
79174W        W50900  12.276   8.145  11.176
79175W        W50901  24.095  41.970  11.042
79176W        W50902   5.320   0.444  12.770
79177W        W50903   6.370  24.680  11.744
79178W        W50904  44.407  23.209  13.562
79179W        W50905  41.862  16.252  10.500
79180W        W50906  22.947  28.280   3.152
79181W        W50907  43.685  40.562   3.648
79182W        W50908   0.929  10.103  11.207
79183W        W50909   9.813  31.564  10.816
79184W        W50910  23.807  39.280   0.556
79185W        W50911   3.905  25.646  11.095
79186W        W50912  33.825  22.997   2.907
79187W        W50913  13.147  42.618   0.591
79188W        W50914  36.919  13.682   0.183
79189W        W50915   1.398  31.601   4.284
79190W        W50916  17.592  20.483   0.908
79191W        W50917  32.488   1.009  10.806
79192W        W50918  26.656  17.523  14.487
79193W        W50919  22.780  10.848   3.128
79194W        W50920  42.633  23.777  10.158
79195W        W50921  18.261  42.615  11.853
79196W        W50922  28.224  23.335   4.132
79197W        W50923  25.671  19.372   0.817
79198W        W50924  27.559   7.674   1.827
79199W        W50925  39.278  35.263   1.405
79200W        W50926  43.777  10.897   2.261
79201W        W50927  34.271  44.312  11.934
79202W        W50928  14.205   3.100  13.249
79203W        W50929  28.456   2.989   2.133
79204W        W50930  23.639  37.441   1.925
79205W        W50931   4.644  43.965  11.957
79206W        W50932  22.281  22.554  12.091
79207W        W50933  44.198  44.729  12.079
79208W        W50934   3.431  36.931   1.875
79209W        W50935  37.110  38.745   3.665
79210W        W50936  23.659  40.509   4.135
79211W        W50937   1.251  27.959  14.309
79212W        W50938   2.837  37.311   2.660
79213W        W50939  11.767   5.451  10.641
79214W        W50940  39.301  19.066  14.756
79215W        W50941  10.882   1.631  12.020
79216W        W50942  33.953  36.355  13.306
79217W        W50943   3.441  37.998  12.718
79218W        W50944  21.850  18.272  12.577
79219W        W50945  11.885  24.939  13.306
79220W        W50946  25.004   5.571  13.321
79221W        W50947  12.898  20.233  11.131
79222W        W50948  30.049  14.559   4.647
79223W        W50949  14.791  33.976  10.962
79224W        W50950   2.475  35.008   2.585
79225W        W50951  13.598  39.909   1.056
79226W        W50952  26.941   5.521   3.896
79227W        W50953  28.504   4.246  13.434
79228W        W50954  15.384  42.733   0.190
79229W        W50955  27.003   2.335  14.314
79230W        W50956  17.141  11.608   1.324
79231W        W50957  22.168  37.941   3.644
79232W        W50958  43.483  17.397   4.056
79233W        W50959  41.798  35.610  11.961
79234W        W50960  28.718   0.980   2.186
79235W        W50961  14.781  32.126   1.302
79236W        W50962  21.016  34.849  14.276
79237W        W50963  26.364   5.009   1.748
79238W        W50964  18.933   3.176  11.133
79239W        W50965  27.831  31.672   3.298
79240W        W50966  35.866  16.221  10.599
79241W        W50967  13.548   3.862  12.594
79242W        W50968  14.372  19.090   4.449
79243W        W50969  40.564   3.600  12.497
79244W        W50970  41.406  15.221  12.982
79245W        W50971  40.463  23.218   1.779
79246W        W50972   3.922  43.181   2.344
79247W        W50973  18.050  38.675   2.481
79248W        W50974  41.984  25.596   3.769
79249W        W50975   9.783  24.705   2.322
79250W        W50976   1.275  12.106  14.301
79251W        W50977  43.758  30.554   1.995
79252W        W50978  24.967  35.893   0.764
79253W        W50979  10.820  23.698  10.119
79254W        W50980  12.325  27.939   0.818
79255W        W50981  13.813  44.830   0.707
79256W        W50982  31.006  43.668  14.299
79257W        W50983  15.770  13.333  10.625
79258W        W50984  43.332  36.496   2.233
79259W        W50985   6.831  10.832   1.207
79260W        W50986  30.025  20.844  14.069
79261W        W50987  30.615  23.626  10.605
79262W        W50988  29.222  24.709   2.456
79263W        W50989  40.605   6.249   1.447
79264W        W50990  41.014   3.390   0.994
79265W        W50991  11.923  40.453  11.130
79266W        W50992   4.132  10.155  11.533
79267W        W50993  11.361  32.334   2.646
79268W        W50994   0.349  43.493   0.786
79269W        W50995  43.500  20.192   1.946
79270W        W50996  20.536  40.932  14.003
79271W        W50997  34.255  33.465  14.815
79272W        W50998  19.480  14.234  12.125
79273W        W50999  17.394  25.131  11.584
79274W        W51000  33.560  14.351  10.354
79275W        W51001  28.077  34.899   3.702
79276W        W51002  25.344  27.064  10.438
79277W        W51003  26.454  33.689  13.853
79278W        W51004  41.795  24.079   1.243
79279W        W51005  40.348  31.583  10.647
79280W        W51006   7.135  44.749   0.651
79281W        W51007  19.301  17.178  12.859
79282W        W51008  27.635  14.272   0.971
79283W        W51009  28.130  28.447   1.153
79284W        W51010  30.160  38.364   1.624
79285W        W51011   9.367  39.880   4.897
79286W        W51012   0.909  33.997   0.252
79287W        W51013   1.348  21.646   3.734
79288W        W51014   0.875   3.723  13.910
79289W        W51015  36.570  43.461   0.956
79290W        W51016  35.630  23.078   4.543
79291W        W51017  12.630  28.010  14.396
79292W        W51018  23.923  27.336   5.533
79293W        W51019  20.675  26.099  14.808
79294W        W51020   0.331  25.143  13.135
79295W        W51021  25.302  32.529   0.876
79296W        W51022  16.680  27.544  13.627
79297W        W51023  30.923  43.938  14.748
79298W        W51024   2.832  16.790  13.168
79299W        W51025  28.923  32.913   2.992
79300W        W51026  24.418  24.526  13.700
79301W        W51027   8.817   0.098  10.862
79302W        W51028  38.511  26.750   2.210
79303W        W51029  32.711  33.043  13.695
79304W        W51030   9.667  40.778   0.810
79305W        W51031   4.782   3.583   3.345
79306W        W51032  28.456  31.941   2.352
79307W        W51033  41.410   6.213   0.858
79308W        W51034  22.239  13.020   4.879
79309W        W51035  23.015  10.449   4.814
79310W        W51036   9.804  36.628  10.619
79311W        W51037   9.840  21.991   3.080
79312W        W51038   2.782  44.423  14.294
79313W        W51039  36.023  13.276  10.784
79314W        W51040  13.837  26.369   0.410
79315W        W51041  32.141  23.405   5.513
79316W        W51042  23.366  12.572  14.456
79317W        W51043  28.552   6.294  12.647
79318W        W51044   5.942  19.658  12.633
79319W        W51045  25.147  22.608   1.208
79320W        W51046  10.290  38.432   4.614
79321W        W51047  15.220   6.770  14.569
79322W        W51048   0.460  13.112  14.524
79323W        W51049  24.803  35.444   1.943
79324W        W51050  40.474   6.164  13.068
79325W        W51051  19.798  30.443  11.594
79326W        W51052  36.847  41.484   1.867
79327W        W51053  27.182  29.654   4.054
79328W        W51054  44.704  12.290   2.653
79329W        W51055  29.162   2.378  14.695
79330W        W51056  25.621  30.615   0.219
79331W        W51057  18.652  21.709  14.054
79332W        W51058  27.139  19.637  13.202
79333W        W51059  27.747   2.261   4.259
79334W        W51060  25.970  37.370   3.735
79335W        W51061   2.017   1.937   3.743
79336W        W51062   3.735  38.096  14.112
79337W        W51063  16.713  18.118  12.133
79338W        W51064  24.587   1.943   0.411
79339W        W51065  33.083  21.818   1.317
79340W        W51066   9.304   4.855  13.508
79341W        W51067  43.507  15.413   0.175
79342W        W51068  11.834   8.616  13.468
79343W        W51069  40.000  14.807  12.020
79344W        W51070  12.844  10.364  14.941
79345W        W51071  14.795  40.768   3.343
79346W        W51072  42.427   2.513  13.345
79347W        W51073  26.000   9.909   1.835
79348W        W51074  31.593  37.917   2.383
79349W        W51075  21.150  34.465  11.258
79350W        W51076  15.695  41.176  12.127
79351W        W51077  20.808  23.167  11.947
79352W        W51078  14.105  39.870   0.971
79353W        W51079  23.533   2.787   4.290
79354W        W51080  27.486  11.737   3.193
79355W        W51081  18.115  30.782   3.056
79356W        W51082   1.846  10.226  13.569
79357W        W51083  27.448  25.993   0.292
79358W        W51084  13.185  42.209  14.742
79359W        W51085  43.763  13.085  11.145
79360W        W51086  17.221   6.331   4.642
79361W        W51087  11.233  27.885   1.601
79362W        W51088  31.484  18.231  10.504
79363W        W51089  14.723  17.972  14.256
79364W        W51090  29.309  38.423  14.921
79365W        W51091  37.384  36.653   0.828
79366W        W51092   0.079  29.500  12.073
79367W        W51093  20.584  40.070   3.135
79368W        W51094  15.273  40.640   2.461
79369W        W51095   5.707  33.908  11.619
79370W        W51096  20.771  30.549   1.651
79371W        W51097  18.236  10.903  12.135
79372W        W51098  16.536  15.217  13.419
79373W        W51099   1.793  25.327  13.173
79374W        W51100  11.741   7.287   1.263
79375W        W51101  17.693  44.709  11.555
79376W        W51102  24.493   4.905   1.881
79377W        W51103  23.841  39.985   2.401
79378W        W51104  18.266  43.507  10.621
79379W        W51105   9.251  43.512   2.879
79380W        W51106   6.851  25.064  11.579
79381W        W51107  26.235  44.380   2.221
79382W        W51108  37.951  36.116   4.485
79383W        W51109  15.330  20.268   4.829
79384W        W51110   8.727  26.008   0.560
79385W        W51111  43.846   0.335  13.341
79386W        W51112  29.988  35.382  11.728
79387W        W51113  20.297   8.192  11.561
79388W        W51114  23.792   0.825  10.957
79389W        W51115  38.777  35.110   1.496
79390W        W51116  10.890  30.535  14.416
79391W        W51117  40.470   3.372   4.511
79392W        W51118  20.482  24.555  13.706
79393W        W51119  31.732   1.911  12.186
79394W        W51120  19.741  26.000  12.499
79395W        W51121  37.592   5.352   2.233
79396W        W51122  16.772  31.587  11.266
79397W        W51123  38.084  31.971   3.832
79398W        W51124  21.618  43.070  13.240
79399W        W51125  38.030  20.835   4.214
79400W        W51126   7.166  31.047  12.829
79401W        W51127  23.308  39.408   0.461
79402W        W51128  20.808   6.977  14.348
79403W        W51129   4.371  42.290   4.936
79404W        W51130  36.877  31.442   3.646
79405W        W51131  16.232  15.579  12.555
79406W        W51132  15.788  27.663  13.050
79407W        W51133   2.404  33.888  12.087
79408W        W51134   9.404  24.274  13.850
79409W        W51135  17.782  41.382   2.899
79410W        W51136   9.152  24.465   3.755
79411W        W51137  33.925   3.624   3.610
79412W        W51138  10.673  32.719   3.089
79413W        W51139  43.979   9.880   3.412
79414W        W51140  11.339  35.558   9.320
79415W        W51141   6.386  42.191  13.492
79416W        W51142   5.112   3.355  12.952
79417W        W51143  35.795  37.349   3.688
79418W        W51144  13.683  10.667  13.465
79419W        W51145  44.256   1.937   3.164
79420W        W51146  36.409   1.794   5.095
79421W        W51147  32.668   5.165   4.625
79422W        W51148  28.251  14.474   5.052
79423W        W51149  23.990   4.033  14.246
79424W        W51150  39.363  27.525   4.939
79425W        W51151  35.465  18.709   2.403
79426W        W51152  21.423  24.262   4.523
79427W        W51153  42.676   1.484   4.839
79428W        W51154  19.841  37.417   2.667
79429W        W51155  24.989  37.554   4.575
79430W        W51156  12.036  11.575  13.881
79431W        W51157  37.321  24.203   2.725
79432W        W51158   2.938   7.383   2.929
79433W        W51159   7.233  42.378  13.218
79434W        W51160  30.053  23.188  13.505
79435W        W51161  36.458  16.436   2.703
79436W        W51162  25.015  34.549   3.604
79437W        W51163  41.025  43.877  12.423
79438W        W51164  22.742  32.908  11.568
79439W        W51165  44.850  37.337  13.489
79440W        W51166  24.580  18.098   4.579
79441W        W51167  32.901  27.487   2.318
79442W        W51168  34.454  30.139   4.096
79443W        W51169  29.356  28.221  11.217
79444W        W51170  42.782  24.483   3.952
79445W        W51171   4.127  30.555  14.921
79446W        W51172   5.748  30.478   3.123
79447W        W51173  24.587  26.716   4.139
79448W        W51174  44.246   1.040   1.704
79449W        W51175   3.132  39.849  10.932
79450W        W51176  33.041   5.463   3.699
79451W        W51177  18.591   4.364   2.780
79452W        W51178  13.820   6.186  12.079
79453W        W51179  24.403  19.612   3.312
79454W        W51180  35.710  11.803  10.751
79455W        W51181   9.600  14.656   3.140
79456W        W51182   5.729   5.239   3.243
79457W        W51183  38.393   4.388   3.373
79458W        W51184  29.298  16.656  12.032
79459W        W51185  33.567   0.968  14.952
79460W        W51186  11.601  38.909  11.786
79461W        W51187  26.690  29.493   4.077
79462W        W51188  41.432  30.831   0.863
79463W        W51189  40.664  38.824   3.259
79464W        W51190  42.695   2.912   4.554
79465W        W51191  25.758  43.882   1.213
79466W        W51192  29.496  43.976   4.602
79467W        W51193   7.729  27.053   4.816
79468W        W51194   9.975  25.392   0.158
79469W        W51195   1.802  29.700  14.880
79470W        W51196  10.274  29.076  11.943
79471W        W51197  44.872   8.682   4.584
79472W        W51198   2.998  44.312  14.741
79473W        W51199  11.891  29.444   1.208
79474W        W51200  39.235  14.252   3.654
79475W        W51201  29.554   0.931  12.002
79476W        W51202  18.290  22.087  11.969
79477W        W51203   8.318  43.295   4.241
79478W        W51204  34.488  41.801   0.749
79479W        W51205  37.405  33.612   0.948
79480W        W51206  43.737  11.416   2.234
79481W        W51207  28.455  40.504  12.539
79482W        W51208  30.391  32.639  14.547
79483W        W51209  41.258  33.398  12.633
79484W        W51210  13.901  27.117   4.674
79485W        W51211  11.603   9.287  12.891
79486W        W51212   5.446   1.911  11.281
79487W        W51213  11.334  27.921   4.064
79488W        W51214   8.693  27.405   2.530
79489W        W51215   7.149  26.929  14.935
79490W        W51216  27.588   1.780   2.420
79491W        W51217  16.513  21.570  13.037
79492W        W51218  35.154  40.478   4.664
79493W        W51219  36.112  26.160  11.835
79494W        W51220  30.065   3.716   0.160
79495W        W51221   7.475  35.950  11.505
79496W        W51222  44.924   2.279  12.065
79497W        W51223  29.496  41.098  13.526
79498W        W51224   2.069  43.450   1.741
79499W        W51225  37.818  33.042  13.635
79500W        W51226  23.660  12.114  14.536
79501W        W51227  17.628   8.386  11.172
79502W        W51228  37.616  27.956  11.373
79503W        W51229  26.890  19.196   1.457
79504W        W51230   8.260  13.842   0.227
79505W        W51231   9.251  23.071   5.524
79506W        W51232   2.857  39.225   4.532
79507W        W51233  25.662  15.006   1.198
79508W        W51234   5.850  36.880  14.011
79509W        W51235  20.253  26.202  11.465
79510W        W51236  42.247  18.712  12.946
79511W        W51237   3.249   6.354   0.230
79512W        W51238   8.627  26.405   2.283
79513W        W51239  42.412  31.675  10.670
79514W        W51240  25.004  23.042  14.832
79515W        W51241  37.458  11.839  13.038
79516W        W51242   4.185   7.259   2.430
79517W        W51243  26.624  34.680  11.010
79518W        W51244   4.672  27.705  12.953
79519W        W51245  17.281  15.796  13.286
79520W        W51246  31.512  16.229   4.538
79521W        W51247  41.727  34.067   1.668
79522W        W51248  42.835   7.285  14.504
79523W        W51249  26.932  28.050   2.432
79524W        W51250  40.432  36.821  10.974
79525W        W51251  30.620   3.170   0.802
79526W        W51252  13.153  26.783  11.142
79527W        W51253  13.084   6.982  11.106
79528W        W51254  40.496  14.177  12.528
79529W        W51255  36.117  40.438  14.790
79530W        W51256   8.726  19.135  12.129
79531W        W51257  19.051  38.693  13.576
79532W        W51258  39.128  18.688   2.289
79533W        W51259   4.887  12.401  11.535
79534W        W51260  33.016  37.400   0.934
79535W        W51261  30.868   5.061  11.924
79536W        W51262  26.419  39.836  10.335
79537W        W51263  30.042  26.589  10.096
79538W        W51264  35.369   6.713   4.165
79539W        W51265  25.648  10.180   2.159
79540W        W51266  24.795  30.130  10.813
79541W        W51267  18.691   9.346  14.218
79542W        W51268  44.301  42.572  12.480
79543W        W51269  33.598   0.086   1.757
79544W        W51270  10.841   7.923   0.325
79545W        W51271  30.858  22.071  14.415
79546W        W51272  39.590  41.351   2.015
79547W        W51273  13.182  43.694   1.707
79548W        W51274  19.185  33.774  11.009
79549W        W51275   2.862  12.013   1.453
79550W        W51276   8.356  33.359  11.008
79551W        W51277  44.319   2.468   0.023
79552W        W51278  21.746  15.704  10.152
79553W        W51279  44.742  28.927  13.833
79554W        W51280  24.147  28.071   2.456
79555W        W51281  20.444  30.548  10.530
79556W        W51282  26.058  18.115   4.118
79557W        W51283  14.047  19.813  14.500
79558W        W51284  36.982  11.353  14.771
79559W        W51285  31.053   6.621   0.809
79560W        W51286   2.457  38.100  14.219
79561W        W51287  40.376   5.358  10.413
79562W        W51288   3.229   8.868   4.533
79563W        W51289  18.493  15.683  10.371
79564W        W51290  34.581  22.480  12.039
79565W        W51291  13.117  13.328   5.053
79566W        W51292  30.948  33.729  12.297
79567W        W51293   5.698  14.614  14.934
79568W        W51294  33.330  16.356  10.749
79569W        W51295  32.257  42.296  11.086
79570W        W51296  33.047  42.010  12.093
79571W        W51297  10.900  17.840   4.656
79572W        W51298  14.972  42.062  14.459
79573W        W51299  37.916  10.605  14.066
79574W        W51300  26.026  43.704   5.099
79575W        W51301  40.105   9.090   2.692
79576W        W51302  28.088  19.151  14.324
79577W        W51303  29.042  16.813   5.000
79578W        W51304   3.431  24.683  14.455
79579W        W51305   6.388  40.853  11.014
79580W        W51306   6.287   6.313   3.615
79581W        W51307  13.611   9.956  11.906
79582W        W51308   8.258  31.976   5.112
79583W        W51309  20.832  30.036  14.010
79584W        W51310  23.197   2.194  13.401
79585W        W51311  13.128  16.860  12.076
79586W        W51312  26.002  11.297   4.526
79587W        W51313  23.827  26.928  11.597
79588W        W51314  15.760  40.309   3.699
79589W        W51315   8.753   9.223   1.736
79590W        W51316  24.606   5.950   4.321
79591W        W51317  22.591   8.559  10.542
79592W        W51318   4.150  18.323  13.471
79593W        W51319  24.098  16.098   2.152
79594W        W51320  18.671  43.298   2.471
79595W        W51321  29.755   3.083   0.677
79596W        W51322  16.823   1.564  10.757
79597W        W51323   0.411  21.396   5.068
79598W        W51324  31.218  32.260  11.482
79599W        W51325  19.308  27.176  12.092
79600W        W51326  40.566  12.296   4.782
79601W        W51327  17.156  22.159  14.228
79602W        W51328  34.923  32.570   0.776
79603W        W51329  20.721   1.651  13.447
79604W        W51330   6.782  36.618  14.580
79605W        W51331  11.902   1.400  12.077
79606W        W51332   5.405   0.716  13.791
79607W        W51333  34.793  18.220  10.793
79608W        W51334  12.239  28.072   2.919
79609W        W51335  21.474  40.937   3.960
79610W        W51336  41.751  28.114  11.737
79611W        W51337  29.412  22.233   0.358
79612W        W51338  17.196  36.806  14.813
79613W        W51339  44.374  29.617   1.339
79614W        W51340  33.969   7.392   0.898
79615W        W51341  24.481   6.516  12.022
79616W        W51342  22.988  30.281  14.357
79617W        W51343  19.232   3.970   4.142
79618W        W51344   7.342   6.655  10.462
79619W        W51345  16.202   8.808  12.448
79620W        W51346   1.770  34.048   0.532
79621W        W51347  17.287  36.619  11.006
79622W        W51348   5.332  24.032  11.119
79623W        W51349   4.513  13.831   3.254
79624W        W51350  41.506   5.230   1.096
79625W        W51351  27.375  16.631  14.451
79626W        W51352  33.906   4.743  14.500
79627W        W51353  38.576  35.526  14.017
79628W        W51354  40.020  17.122   3.484
79629W        W51355   6.654   6.793   1.218
79630W        W51356  34.323   0.845   3.885
79631W        W51357  17.620  11.362   0.421
79632W        W51358  42.923  14.667   0.851
79633W        W51359  31.578  25.698  14.442
79634W        W51360  30.838  18.744  14.824
79635W        W51361   6.322  36.327  14.538
79636W        W51362  15.880  42.000  12.324
79637W        W51363  41.608  42.622   4.366
79638W        W51364  15.874  43.383   3.671
79639W        W51365  31.061  25.155   4.157
79640W        W51366  16.533  18.780  10.800
79641W        W51367  37.950  10.826  13.060
79642W        W51368  30.291  29.046  10.422
79643W        W51369  31.764  31.038   5.382
79644W        W51370  10.294  11.359   1.702
79645W        W51371  14.920  12.245   1.399
79646W        W51372  29.746  21.331   1.290
79647W        W51373  33.879  21.119  12.808
79648W        W51374  11.578   1.258  14.298
79649W        W51375   1.912  17.316  12.997
79650W        W51376  10.368  26.089  10.006
79651W        W51377  22.969  30.126  13.598
79652W        W51378  30.023  15.166   1.481
79653W        W51379  21.578   6.281  12.023
79654W        W51380  33.961  13.179  11.585
79655W        W51381  12.234  24.171   4.592
79656W        W51382  22.633  22.100  10.511
79657W        W51383  14.249  35.558  14.390
79658W        W51384  25.237   4.007   4.797
79659W        W51385   4.891  14.925   0.807
79660W        W51386  32.428  25.074   4.236
79661W        W51387  43.927  38.766   1.425
79662W        W51388  28.146  21.477   1.659
79663W        W51389  11.228  27.681  11.859
79664W        W51390  42.787   8.750  12.000
79665W        W51391  29.715   5.956  12.573
79666W        W51392  33.484  20.639  14.010
79667W        W51393   8.836  40.266  10.676
79668W        W51394  27.731   5.768   0.750
79669W        W51395   9.753  26.992   3.885
79670W        W51396   1.096  43.428   2.453
79671W        W51397  16.328  35.517  10.621
79672W        W51398   1.703   5.286  13.499
79673W        W51399  19.519   1.361   4.578
79674W        W51400  42.022   1.349   2.647
79675W        W51401  25.774   2.888  13.363
79676W        W51402  39.339   0.436   3.332
79677W        W51403  27.597  34.111  11.625
79678W        W51404   3.474  14.413   5.180
79679W        W51405  24.292  12.287   0.312
79680W        W51406  25.393   2.297  14.451
79681W        W51407  36.226  35.660  11.928
79682W        W51408  40.329  30.882   0.726
79683W        W51409  38.861  13.015  10.672
79684W        W51410  24.287  24.181   2.778
79685W        W51411  38.978  30.984   4.185
79686W        W51412  17.358  15.667  14.696
79687W        W51413  31.008  44.715   3.086
79688W        W51414   7.425  35.588   3.473
79689W        W51415   7.334  43.394  13.995
79690W        W51416   0.209   8.774  11.124
79691W        W51417  36.135  26.711  14.547
79692W        W51418  16.038   8.247   4.654
79693W        W51419  30.535   9.396  11.953
79694W        W51420  14.111  35.273  11.072
79695W        W51421   1.477  37.847  13.938
79696W        W51422  22.086  15.308  10.087
79697W        W51423   1.951  21.138   2.777
79698W        W51424  43.007  22.666   3.643
79699W        W51425   9.810   8.700  11.582
79700W        W51426  24.734  42.821   0.792
79701W        W51427  17.483   1.140  10.622
79702W        W51428   8.661  14.346  10.628
79703W        W51429   5.457  25.018   4.182
79704W        W51430  22.024  16.529  14.465
79705W        W51431  36.596   1.324  11.606
79706W        W51432  42.286  43.404   4.109
79707W        W51433  28.889  14.267   0.893
79708W        W51434  36.498  16.074   4.604
79709W        W51435  28.931  28.915  10.689
79710W        W51436  38.283  39.836   1.737
79711W        W51437  14.432   1.772  11.619
79712W        W51438  36.301  27.964  12.229
79713W        W51439  37.533  39.908  14.358
79714W        W51440  22.105  15.638   0.031
79715W        W51441  29.186   5.228   2.637
79716W        W51442   2.278   2.449  12.458
79717W        W51443  14.514  19.194  13.488
79718W        W51444  22.698  38.497  12.292
79719W        W51445  24.042  17.623  14.240
79720W        W51446   4.293  18.370   1.289
79721W        W51447   7.590   3.844  13.993
79722W        W51448  44.306  23.242  12.137
79723W        W51449   4.468  25.543   3.606
79724W        W51450   8.641  41.904   0.849
79725W        W51451  18.987  10.851   0.412
79726W        W51452   1.976  12.796  14.980
79727W        W51453  31.509  37.437  13.056
79728W        W51454  21.778  39.108   4.486
79729W        W51455  33.867  16.816   4.588
79730W        W51456  43.849   9.294   1.401
79731W        W51457   9.697   0.838   4.133
79732W        W51458  29.618  14.851   0.220
79733W        W51459   5.340  39.452   1.340
79734W        W51460   8.604  36.013   2.299
79735W        W51461  34.497  29.647   0.868
79736W        W51462  35.841  43.725  11.153
79737W        W51463   2.959  12.629   3.727
79738W        W51464  30.095  16.448  14.307
79739W        W51465  14.639   1.347  13.865
79740W        W51466  22.823  12.426   5.031
79741W        W51467  31.666  27.165  14.426
79742W        W51468  20.178  38.138  12.967
79743W        W51469  18.737  22.147  13.269
79744W        W51470  13.952  39.507   2.797
79745W        W51471  39.454   7.616  11.524
79746W        W51472   0.765  37.673   3.841
79747W        W51473  35.335  14.528  12.911
79748W        W51474   4.660  23.792  13.949
79749W        W51475   6.355  31.085  13.599
79750W        W51476  16.771  29.408  12.409
79751W        W51477  31.594  20.810   4.313
79752W        W51478   9.365   3.740  10.336
79753W        W51479  11.066  37.420  14.444
79754W        W51480  25.554   8.936  11.419
79755W        W51481  19.140  18.296   0.977
79756W        W51482  11.225  28.532   1.348
79757W        W51483  42.872   1.742   3.123
79758W        W51484  29.147  18.146  14.061
79759W        W51485  43.011   5.635   1.636
79760W        W51486  30.907  43.602   5.404
79761W        W51487  39.468  10.243   4.646
79762W        W51488  44.389   5.218   3.572
79763W        W51489  44.082  42.479   3.008
79764W        W51490  30.074  31.825  11.009
79765W        W51491  38.217  14.573   1.715
79766W        W51492   9.393  38.392   0.350
79767W        W51493  17.213  40.471   1.589
79768W        W51494  38.914   1.957  12.380
79769W        W51495   0.262  22.149   3.354
79770W        W51496   7.298  36.015   2.760
79771W        W51497  16.867  34.783  11.015
79772W        W51498  11.607  30.094   3.700
79773W        W51499  20.061  44.913  13.819
79774W        W51500   3.483  22.243  12.105
79775W        W51501  14.787  38.054  12.562
79776W        W51502   9.821  14.040   0.358
79777W        W51503  26.020  42.937  13.908
79778W        W51504  24.113   4.650  12.904
79779W        W51505  29.075  21.276   3.749
79780W        W51506  40.949  23.668   0.105
79781W        W51507  28.629  13.787  12.677
79782W        W51508   7.410   7.169  10.599
79783W        W51509   3.844  38.617  12.939
79784W        W51510  29.069  40.463   0.774
79785W        W51511   7.228  30.431  11.251
79786W        W51512  40.619  24.086   4.986
79787W        W51513   2.656   1.419   4.732
79788W        W51514  16.182  37.550   0.491
79789W        W51515  29.031   7.865   4.102
79790W        W51516  32.429  41.689   4.741
79791W        W51517  23.163   7.696   3.914
79792W        W51518  27.097  31.043   4.625
79793W        W51519  39.002  28.921  11.138
79794W        W51520  33.892  20.636   4.897
79795W        W51521   0.747  39.326   3.165
79796W        W51522  17.711   4.231  10.799
79797W        W51523  24.236  34.939  14.437
79798W        W51524   6.498   9.102  13.835
79799W        W51525   7.565  39.841  11.358
79800W        W51526  44.726   3.312   1.154
79801W        W51527  34.876  16.318  11.876
79802W        W51528  23.979   4.952  11.557
79803W        W51529  19.213  31.119  13.550
79804W        W51530  18.858  40.060   4.560
79805W        W51531  42.767  23.133  11.597
79806W        W51532  12.826  36.983   1.620
79807W        W51533  40.988  13.325   1.010
79808W        W51534  31.545  20.095   4.775
79809W        W51535  38.875  37.943   0.920
79810W        W51536  20.616  38.460   4.365
79811W        W51537   2.920  32.675   3.303
79812W        W51538  42.016   8.403   4.673
79813W        W51539  35.487  42.407   4.757
79814W        W51540   3.201  43.921   0.961
79815W        W51541  44.531   6.732  11.210
79816W        W51542   9.358  25.293  11.058
79817W        W51543  10.991  17.463   2.402
79818W        W51544   6.283   2.483  10.689
79819W        W51545   9.223  13.865  12.582
79820W        W51546   5.348  19.534   1.794
79821W        W51547  40.840  24.799   0.925
79822W        W51548  18.134  43.315  13.729
79823W        W51549  23.239   5.921  13.878
79824W        W51550  14.732  36.296   2.115
79825W        W51551  44.540  24.697  14.736
79826W        W51552  31.364   7.710  12.832
79827W        W51553  23.516  38.567   4.114
79828W        W51554  34.079  30.397   0.643
79829W        W51555  38.808  35.885  13.465
79830W        W51556  17.636   9.297   2.724
79831W        W51557  30.188   2.062  13.630
79832W        W51558  14.817  26.242   4.198
79833W        W51559  18.299  27.910   2.838
79834W        W51560  10.091  37.909  14.951
79835W        W51561  27.113  22.129  13.372
79836W        W51562  25.455  11.725  14.932
79837W        W51563  16.401  43.574  12.726
79838W        W51564  15.627  20.263   0.462
79839W        W51565  27.065  43.558  10.637
79840W        W51566   8.462   1.660   4.949
79841W        W51567  26.441  24.605  12.875
79842W        W51568  38.502  42.432   2.203
79843W        W51569  39.783  34.474  11.994
79844W        W51570  38.854  29.140   1.363
79845W        W51571  16.616  29.445  13.367
79846W        W51572  37.076  26.171  12.109
79847W        W51573  29.104  36.915   0.705
79848W        W51574  26.788  14.232   3.712
79849W        W51575  12.056  31.531  13.863
79850W        W51576  14.255  39.321  12.362
79851W        W51577  18.712  12.616  11.634
79852W        W51578  14.811  33.857  10.459
79853W        W51579  17.566  26.193   1.624
79854W        W51580  39.606  32.058   1.707
79855W        W51581   7.403  24.630   4.836
79856W        W51582  28.602  11.917   1.651
79857W        W51583  20.093   7.169  13.432
79858W        W51584  27.484  30.395  13.400
79859W        W51585  32.477  17.195  10.061
79860W        W51586  44.510  29.369  13.464
79861W        W51587  26.652  34.650  11.924
79862W        W51588   2.836  24.152   4.450
79863W        W51589  28.494   5.459  12.011
79864W        W51590  24.522  36.356   1.924
79865W        W51591   8.403  14.740   4.677
79866W        W51592  20.553  30.421  14.219
79867W        W51593  39.109  21.540   0.292
79868W        W51594   8.279   3.662   3.722
79869W        W51595  25.699  34.440  14.353
79870W        W51596  39.901   5.901   4.143
79871W        W51597  16.861   3.457  12.915
79872W        W51598  30.846   8.819  14.315
79873W        W51599  35.959   3.355  11.526
79874W        W51600  24.374  42.917   2.724
79875W        W51601  31.876   7.290   1.829
79876W        W51602  25.506  42.065  11.135
79877W        W51603  28.968   3.651   4.542
79878W        W51604   4.425   4.651   0.562
79879W        W51605  24.791  38.806   2.800
79880W        W51606  14.244  37.447   3.751
79881W        W51607   6.914  27.379   0.281
79882W        W51608  20.763  39.742   4.108
79883W        W51609  36.401  44.982   0.894
79884W        W51610  31.136  32.278  12.324
79885W        W51611  41.263  12.599   1.627
79886W        W51612  34.433   3.444   3.727
79887W        W51613   7.142  20.228   4.530
79888W        W51614  42.869   6.337   0.702
79889W        W51615  38.860  27.018   4.699
79890W        W51616  16.414  14.587  13.975
79891W        W51617  13.976   1.889   0.870
79892W        W51618   3.325  40.725  13.396
79893W        W51619  33.658  37.801   2.248
79894W        W51620   2.298  40.126  11.588
79895W        W51621   5.184  39.311  11.460
79896W        W51622  29.872  15.879   4.375
79897W        W51623  17.594  32.542   0.384
79898W        W51624  38.909  32.638  11.356
79899W        W51625  39.009   0.852   3.174
79900W        W51626  32.159  31.555   2.613
79901W        W51627  28.669  37.125  13.453
79902W        W51628   8.421  42.464  14.915
79903W        W51629   4.430  11.860   1.533
79904W        W51630  23.734   9.861   3.690
79905W        W51631  12.920  25.631  10.651
79906W        W51632  29.392  30.627  12.963
79907W        W51633  42.838  10.862  14.241
79908W        W51634  21.065  27.843  10.713
79909W        W51635  18.472  38.649  13.065
79910W        W51636  11.080   6.732   0.014
79911W        W51637  17.811  44.457  11.120
79912W        W51638  24.528  10.340  13.009
79913W        W51639  14.244   2.435   4.812
79914W        W51640  22.068  41.297   3.089
79915W        W51641   2.923  41.277  14.450
79916W        W51642  35.587  35.482   0.728
79917W        W51643   5.179  23.281   3.703
79918W        W51644  25.529  29.592  11.960
79919W        W51645   9.268  27.039  11.483
79920W        W51646  37.122  30.758   4.070
79921W        W51647  22.653   1.245  11.542
79922W        W51648  20.023   8.827  12.365
79923W        W51649   3.903  38.265   2.247
79924W        W51650  20.749  25.099  10.924
79925W        W51651  21.613  42.518  14.027
79926W        W51652  27.915  33.571  10.194
79927W        W51653  36.096  21.963   0.119
79928W        W51654   1.489   6.999   3.133
79929W        W51655  29.183  32.203  11.964
79930W        W51656  10.231  28.616  11.446
79931W        W51657   3.779  15.553   9.971
79932W        W51658  17.818  15.827  11.352
79933W        W51659   1.777  24.116   1.956
79934W        W51660  40.623   5.513   3.706
79935W        W51661   8.378  44.872  11.017
79936W        W51662  29.068  16.915  12.476
79937W        W51663  38.358  27.145   4.719
79938W        W51664  26.393  34.551   1.417
79939W        W51665  37.524  16.289  14.688
79940W        W51666  34.385  43.680  13.435
79941W        W51667  31.842  24.670   1.464
79942W        W51668  20.313   5.335   2.845
79943W        W51669   2.227  30.905   1.181
79944W        W51670   2.306  34.595  12.621
79945W        W51671  27.596  34.964   3.195
79946W        W51672  35.621  12.571   3.777
79947W        W51673   3.712  34.135   2.577
79948W        W51674  18.525  12.598   3.588
79949W        W51675   5.321  37.343  12.147
79950W        W51676   7.191  15.941   2.716
79951W        W51677  22.220  21.022   1.733
79952W        W51678   6.934   3.727   3.147
79953W        W51679  21.947  34.474   0.747
79954W        W51680  30.186  23.464   5.567
79955W        W51681  39.113   9.228   0.483
79956W        W51682  26.976  43.303  12.441
79957W        W51683  21.413  39.610  14.291
79958W        W51684  28.926   4.748   0.568
79959W        W51685  34.706  37.994   0.750
79960W        W51686   5.386  10.718  14.345
79961W        W51687  17.254  15.714   4.193
79962W        W51688  31.252  36.403  12.334
79963W        W51689  27.573  32.160  14.431
79964W        W51690   8.021  40.841  13.897
79965W        W51691   1.568  15.700   4.149
79966W        W51692  43.369   4.496  12.773
79967W        W51693  18.672   7.157  12.621
79968W        W51694  19.642   8.498   3.208
79969W        W51695  16.687  42.906   0.853
79970W        W51696  33.573   4.449  13.095
79971W        W51697  43.712  23.128   0.905
79972W        W51698  32.591  23.502   4.211
79973W        W51699  28.933  30.342   4.703
79974W        W51700   4.396  24.117  13.080
79975W        W51701   6.683  13.145  12.509
79976W        W51702   3.833   0.772  12.627
79977W        W51703  30.562  16.217   1.476
79978W        W51704  20.087  15.642  11.154
79979W        W51705  37.476   9.272  13.833
79980W        W51706  12.168  22.827  12.463
79981W        W51707  35.546  23.960   1.370
79982W        W51708   2.383  39.428   4.545
79983W        W51709  35.158  37.398  12.968
79984W        W51710  36.105  43.645   3.595
79985W        W51711   8.745  42.095   3.644
79986W        W51712  33.895   3.210  11.585
79987W        W51713  42.552  35.527  11.499
79988W        W51714  36.940  37.918  14.422
79989W        W51715  44.801   7.926   1.316
79990W        W51716  41.441   5.219  10.862
79991W        W51717  39.747  21.576   4.927
79992W        W51718   6.787   6.261   3.764
79993W        W51719  32.986  16.941  12.618
79994W        W51720  13.373  38.840   3.249
79995W        W51721  13.139  15.512  12.381
79996W        W51722   7.729  39.780  14.778
79997W        W51723  26.913  42.015  12.112
79998W        W51724  38.434  41.475  10.596
79999W        W51725  44.920  29.654  13.333
80000W        W51726  30.176  20.914   3.685
80001W        W51727  37.534  25.683   0.771
80002W        W51728  33.661  44.857  12.387
80003W        W51729  22.170   3.719   2.754
80004W        W51730   8.874  10.666   1.496
80005W        W51731  36.673  25.964   3.496
80006W        W51732   4.934  36.894   3.783
80007W        W51733  21.637   5.816   4.484
80008W        W51734  27.899  23.439   3.737
80009W        W51735  16.241   3.829  13.355
80010W        W51736  33.196   5.441   2.819
80011W        W51737  13.668  44.507  14.785
80012W        W51738  18.498  26.103  13.867
80013W        W51739  41.782  33.126   0.803
80014W        W51740   3.659  27.674   0.801
80015W        W51741  10.681  33.850  13.316
80016W        W51742  31.450  18.744  11.890
80017W        W51743  16.363  14.267  13.005
80018W        W51744  31.335  10.218  11.932
80019W        W51745  33.181  21.756  14.340
80020W        W51746  41.980  39.278  11.212
80021W        W51747   4.837   5.773  11.736
80022W        W51748  26.010  34.333  13.069
80023W        W51749  30.640  38.476  12.903
80024W        W51750  43.983  17.232  10.944
80025W        W51751  17.568  20.689  13.593
80026W        W51752  14.728  10.743   4.583
80027W        W51753   4.092  31.926   4.488
80028W        W51754  37.464   5.726   0.676
80029W        W51755  30.451  23.752  11.939
80030W        W51756  21.718   4.210   3.173
80031W        W51757  25.930  22.626   4.545
80032W        W51758  21.852  11.833   0.303
80033W        W51759  17.852  39.325   3.118
80034W        W51760  44.759  17.602   1.338
80035W        W51761  40.456  10.826   0.942
80036W        W51762  11.623   3.889  13.617
80037W        W51763   1.289   3.920   2.016
80038W        W51764   9.126  39.916  10.950
80039W        W51765  40.948  11.097   0.410
80040W        W51766  39.058   7.368  10.175
80041W        W51767  11.023  26.945  14.873
80042W        W51768  34.978  21.720   2.869
80043W        W51769   1.698  41.079  11.058
80044W        W51770  32.986   2.890   1.734
80045W        W51771  31.172   1.814   1.849
80046W        W51772  31.895   0.963   0.818
80047W        W51773  36.968  36.321   0.959
80048W        W51774  17.668  35.772  12.097
80049W        W51775  11.669  38.975   0.756
80050W        W51776  33.170  15.275  11.219
80051W        W51777   2.669  27.531   3.265
80052W        W51778  15.587  39.932  14.965
80053W        W51779  40.560  18.510   2.163
80054W        W51780  11.079  31.587   2.417
80055W        W51781  28.156  22.471   1.901
80056W        W51782  34.822  36.874  11.530
80057W        W51783  16.703  10.827   1.264
80058W        W51784   9.945   4.238  11.160
80059W        W51785  25.457  30.435   4.201
80060W        W51786  26.237  42.558   1.850
80061W        W51787  19.525   1.422   0.444
80062W        W51788   4.415  11.886   3.752
80063W        W51789   2.148  38.633  10.133
80064W        W51790   5.580  22.719   4.340
80065W        W51791  21.017   0.477   2.231
80066W        W51792  28.503   0.446   4.152
80067W        W51793  13.308  22.990  13.829
80068W        W51794  38.757  41.072   0.935
80069W        W51795  10.783  20.371  14.773
80070W        W51796  39.891   3.792  10.707
80071W        W51797   8.742  39.271   1.655
80072W        W51798  26.187  14.333  12.091
80073W        W51799   4.751  38.051  13.527
80074W        W51800  20.046  24.695   1.787
80075W        W51801  28.551  25.428   2.368
80076W        W51802  38.321  12.215   3.776
80077W        W51803  17.461  15.751   2.917
80078W        W51804  29.512   6.367   4.091
80079W        W51805  23.440  17.976   1.475
80080W        W51806  12.158   3.074   2.494
80081W        W51807   2.373   8.615   3.538
80082W        W51808  10.659  37.423  13.462
80083W        W51809  12.372   8.990   0.878
80084W        W51810  41.287  29.903  14.364
80085W        W51811   2.419  37.238   2.951
80086W        W51812  19.226  42.537  11.100
80087W        W51813  43.755  38.517  10.660
80088W        W51814  10.881   4.745   0.904
80089W        W51815  32.635  40.310  12.532
80090W        W51816  38.714  41.891  10.763
80091W        W51817  14.610   4.669  11.663
80092W        W51818   1.287  13.320   0.743
80093W        W51819  10.901  30.991   4.868
80094W        W51820   2.737   9.259  12.454
80095W        W51821   2.453  12.499  14.033
80096W        W51822  42.239   3.123   1.857
80097W        W51823  36.380  26.550   4.632
80098W        W51824  38.468  27.240   1.251
80099W        W51825  13.258   5.867   4.170
80100W        W51826   8.128  23.510  12.469
80101W        W51827  40.819  28.947  12.088
80102W        W51828  15.101  28.657  14.547
80103W        W51829  44.532  44.403  11.504
80104W        W51830  42.988  15.228  10.732
80105W        W51831  24.470  13.113   0.696
80106W        W51832  13.366  39.355  12.850
80107W        W51833  34.494  39.030  11.386
80108W        W51834   2.242  17.007   1.438
80109W        W51835  19.021  27.122  11.649
80110W        W51836   8.391  24.996   4.141
80111W        W51837  24.185  26.440  12.034
80112W        W51838  10.873  30.092  13.826
80113W        W51839  42.780  22.820  11.021
80114W        W51840  40.260  20.093   2.764
80115W        W51841   7.421   5.651   3.671
80116W        W51842  42.005  17.414  13.130
80117W        W51843  41.855  37.286   0.795
80118W        W51844   6.808  14.921  12.074
80119W        W51845  35.994   2.153  14.362
80120W        W51846  44.767  14.271  10.450
80121W        W51847   0.257  28.064  11.528
80122W        W51848  34.468  29.182   0.650
80123W        W51849  29.073  21.088   0.534
80124W        W51850   0.216   7.282   2.842
80125W        W51851  35.833  38.663   3.532
80126W        W51852  10.700   7.442   0.305
80127W        W51853   6.823   7.818   3.394
80128W        W51854  36.892  14.189  14.911
80129W        W51855   0.858  29.859  14.471
80130W        W51856  22.914  33.890  13.813
80131W        W51857  34.322  36.852  11.521
80132W        W51858  32.981  14.622  10.460
80133W        W51859  33.482   5.730  11.677
80134W        W51860  15.132  31.973   1.800
80135W        W51861  20.517   6.909  10.927
80136W        W51862  44.224  41.778   3.661
80137W        W51863  15.251  36.349  14.429
80138W        W51864  29.346  15.298  14.482
80139W        W51865  39.371  23.216  14.881
80140W        W51866   1.278   7.227   3.774
80141W        W51867  28.526  29.135   1.173
80142W        W51868  44.589  28.329  13.652
80143W        W51869  29.235   9.801  14.275
80144W        W51870  21.209  12.730   2.451
80145W        W51871  22.953  25.304  13.323
80146W        W51872  21.225   6.128  14.890
80147W        W51873  30.964  15.238  10.901
80148W        W51874  25.209  16.350   1.533
80149W        W51875  21.071  29.411   0.926
80150W        W51876  13.068  27.072  14.988
80151W        W51877  39.544  18.707  13.534
80152W        W51878  39.104  11.916   3.865
80153W        W51879  21.341   1.564   2.941
80154W        W51880   5.179  21.061   2.830
80155W        W51881  26.263  20.638  14.809
80156W        W51882  31.706  10.771   4.247
80157W        W51883   6.961  26.159   4.915
80158W        W51884  43.494  39.028   0.016
80159W        W51885  30.089  37.429   1.306
80160W        W51886  37.826  18.078  13.885
80161W        W51887  41.514   8.170   3.857
80162W        W51888   8.211  44.574   1.232
80163W        W51889  15.782  43.183   5.063
80164W        W51890  33.832  13.204   3.841
80165W        W51891  43.789  25.726   4.690
80166W        W51892  10.358   6.823  13.551
80167W        W51893   1.049  18.339  11.177
80168W        W51894  26.480   0.743   1.315
80169W        W51895   7.449  23.954   1.427
80170W        W51896   4.834  43.942   3.525
80171W        W51897  43.258   9.215  14.007
80172W        W51898  18.933  17.660  10.458
80173W        W51899  25.443  40.267  14.201
80174W        W51900   0.040   4.234   4.635
80175W        W51901  23.127  26.642   3.766
80176W        W51902  26.957  39.063  14.945
80177W        W51903  35.141  27.366   2.253
80178W        W51904  19.569   4.736   3.754
80179W        W51905  24.721  26.242  14.994
80180W        W51906  24.582  31.197   0.409
80181W        W51907  35.672  20.029   1.530
80182W        W51908  17.048  35.845   0.084
80183W        W51909  10.728  44.547   3.249
80184W        W51910  25.754  30.415  14.759
80185W        W51911  32.652  43.538  11.610
80186W        W51912   5.294  44.702   3.517
80187W        W51913  28.004  25.751  13.842
80188W        W51914  10.099  32.180  10.779
80189W        W51915  33.553  22.671  14.650
80190W        W51916  24.043  43.329   0.342
80191W        W51917  28.858   9.438   2.081
80192W        W51918  27.196   6.000  13.374
80193W        W51919  13.821  18.275  10.442
80194W        W51920  14.902  16.713   4.159
80195W        W51921  34.382  37.135   4.160
80196W        W51922  43.444  26.126  13.347
80197W        W51923  43.409   9.078   1.223
80198W        W51924  22.006  34.010  14.142
80199W        W51925  10.150  38.957   2.278
80200W        W51926  14.718  33.836  11.983
80201W        W51927  22.131  12.683  14.347
80202W        W51928  40.892  34.683   3.928
80203W        W51929   3.918  28.142   3.235
80204W        W51930  33.621  17.268   0.610
80205W        W51931  35.319  36.179   0.933
80206W        W51932   3.327  26.740   5.020
80207W        W51933  39.262   0.453  12.882
80208W        W51934  21.081  41.692   1.430
80209W        W51935  44.996  19.155   3.640
80210W        W51936  41.997  29.401   9.866
80211W        W51937  32.744  44.385  13.578
80212W        W51938   9.771  21.016  11.964
80213W        W51939  10.860  31.944   0.847
80214W        W51940  12.896  41.114   2.919
80215W        W51941  22.739  40.457   3.821
80216W        W51942  32.368  12.755  14.257
80217W        W51943  14.761   8.779   2.170
80218W        W51944  18.600   9.321  12.125
80219W        W51945  43.639  38.024  11.995
80220W        W51946  23.574  36.267  14.572
80221W        W51947   3.756  19.270   2.687
80222W        W51948  31.199   6.903  14.313
80223W        W51949  19.628  33.626   4.198
80224W        W51950  14.338  15.818   1.385
80225W        W51951  36.729  14.857  14.428
80226W        W51952  37.540   1.899  11.668
80227W        W51953  36.619   7.632  10.909
80228W        W51954  32.350  13.861  13.502
80229W        W51955   4.449  22.689  10.376
80230W        W51956  33.693  34.647  14.439
80231W        W51957   9.948   4.323   2.240
80232W        W51958   1.023  19.571  10.778
80233W        W51959   3.712  44.840   0.953
80234W        W51960  39.356  20.696  13.254
80235W        W51961  33.783   9.742   2.304
80236W        W51962   3.228  21.125   0.880
80237W        W51963  38.832  30.094   0.718
80238W        W51964  19.372   8.261   4.439
80239W        W51965   1.176  17.627  11.351
80240W        W51966   3.932  20.280  10.756
80241W        W51967  35.467  34.119   0.247
80242W        W51968  39.548  23.685   4.531
80243W        W51969  33.398  43.269   4.238
80244W        W51970  18.606   3.724  13.529
80245W        W51971  41.453  20.630  11.583
80246W        W51972   1.654   5.336   1.440
80247W        W51973  37.917  17.601   3.341
80248W        W51974  29.749  18.477  11.573
80249W        W51975  34.980  36.530  10.748
80250W        W51976  44.060  10.289   0.953
80251W        W51977  29.009  40.897   3.232
80252W        W51978  17.855   9.634  11.564
80253W        W51979  29.450   5.362   2.170
80254W        W51980   0.343  12.274  13.948
80255W        W51981  11.294  35.854   1.212
80256W        W51982   5.820   6.609   0.743
80257W        W51983  25.653  17.152   0.237
80258W        W51984  13.509  18.601  10.693
80259W        W51985  11.237  40.759  11.754
80260W        W51986   1.873  37.170  11.504
80261W        W51987   9.792  26.105   4.875
80262W        W51988  10.215  33.218  10.650
80263W        W51989  32.589  16.656  10.848
80264W        W51990  28.167  24.640  11.008
80265W        W51991  29.148  10.799   2.217
80266W        W51992  15.601  40.252   2.285
80267W        W51993  39.778  16.732  14.195
80268W        W51994   3.070  31.990   2.852
80269W        W51995  38.908  13.356   0.907
80270W        W51996  30.680  40.968   2.609
80271W        W51997  17.598   6.085   2.774
80272W        W51998  24.439  26.107   3.511
80273W        W51999  15.159  28.688  13.370
80274W        W52000   4.168  20.564  12.849
80275W        W52001  39.068  22.266  13.611
80276W        W52002  20.533  17.083  12.468
80277W        W52003  32.817  23.090  13.792
80278W        W52004  44.216   7.257  13.961
80279W        W52005  17.115  21.526   1.681
80280W        W52006  17.406  44.790  13.025
80281W        W52007  13.769  42.831  11.067
80282W        W52008  25.506  21.543   3.342
80283W        W52009   1.262  15.283  12.030
80284W        W52010  44.913  43.744  12.854
80285W        W52011   3.930  42.386   4.667
80286W        W52012  32.836  42.282   0.865
80287W        W52013   1.296  11.646  10.764
80288W        W52014  13.136  38.502  13.988
80289W        W52015  18.249  34.382   2.877
80290W        W52016  15.623  21.294  11.117
80291W        W52017  30.169   7.699   3.250
80292W        W52018  44.438   7.732   2.593
80293W        W52019  27.882  19.657  11.834
80294W        W52020   9.429  41.317   3.464
80295W        W52021  39.414  29.143  12.973
80296W        W52022   2.964  12.230   2.901
80297W        W52023  28.106  20.210  14.211
80298W        W52024  30.656  21.792   2.167
80299W        W52025   8.255  32.331  12.001
80300W        W52026  32.947  30.501   0.532
80301W        W52027  27.014  15.179   1.297
80302W        W52028  42.319   2.887   0.921
80303W        W52029  16.023   1.429   1.391
80304W        W52030  43.829  25.699  13.819
80305W        W52031  24.131  12.674   4.224
80306W        W52032  31.094  27.338  11.478
80307W        W52033  43.417  11.240  12.075
80308W        W52034  25.203  18.419   0.006
80309W        W52035  41.010  13.882   1.689
80310W        W52036   7.847  44.690   3.248
80311W        W52037  27.717  15.820  13.227
80312W        W52038  42.702  41.566  14.484
80313W        W52039  33.643  42.860   0.786
80314W        W52040  32.026   6.038  12.444
80315W        W52041  16.660   4.905   1.999
80316W        W52042  17.243  41.812  11.092
80317W        W52043  15.772  13.200  14.663
80318W        W52044   9.797  27.477   4.582
80319W        W52045  21.287  37.195  11.102
80320W        W52046  39.280   4.171   3.383
80321W        W52047  40.844  26.110   1.259
80322W        W52048   8.678   1.639  14.769
80323W        W52049  31.452   1.375   1.769
80324W        W52050  27.071  29.098  12.292
80325W        W52051   6.294  36.575  11.490
80326W        W52052  16.222  26.494   0.915
80327W        W52053  42.256  34.399   0.011
80328W        W52054   6.643  38.917  13.002
80329W        W52055  23.918  19.814   3.327
80330W        W52056   8.856  26.527   1.824
80331W        W52057  31.660  22.481  13.595
80332W        W52058  14.076  32.894  14.855
80333W        W52059   9.827   9.647   1.844
80334W        W52060  18.553  33.599  12.569
80335W        W52061  19.481  29.100  14.430
80336W        W52062  32.931  17.070   2.238
80337W        W52063  44.071  24.304  10.427
80338W        W52064  39.852   3.846   1.850
80339W        W52065  37.144  16.633  12.941
80340W        W52066  28.642   1.335   3.232
80341W        W52067  28.431  19.210   1.148
80342W        W52068  44.509  29.902  14.861
80343W        W52069  37.322  33.489  10.410
80344W        W52070  18.642  23.214  13.114
80345W        W52071  29.450   4.870   2.368
80346W        W52072  20.705   5.952   3.115
80347W        W52073   7.841  11.187  13.558
80348W        W52074  12.475   0.244   1.706
80349W        W52075  17.263  29.952   2.458
80350W        W52076  20.511   7.977  12.537
80351W        W52077  16.315   0.022   3.574
80352W        W52078   8.365  24.580  13.090
80353W        W52079  28.053  15.088  10.167
80354W        W52080  40.234  32.892   3.887
80355W        W52081  40.275   8.836  10.787
80356W        W52082  29.027  37.336   1.847
80357W        W52083  21.777  17.788  12.826
80358W        W52084  15.604  11.291   0.458
80359W        W52085  29.157  35.569  12.072
80360W        W52086  35.105  44.464  14.098
80361W        W52087  25.110  25.210   4.764
80362W        W52088  16.183  23.964   1.928
80363W        W52089   9.022  40.763  14.314
80364W        W52090  16.679  12.186  13.503
80365W        W52091  11.140  41.369   4.051
80366W        W52092   5.278  11.401   2.643
80367W        W52093  37.518  15.197  14.273
80368W        W52094   3.947  30.516  11.542
80369W        W52095  26.482  29.180   4.590
80370W        W52096  31.615  31.422  13.774
80371W        W52097  42.017  10.298   4.175
80372W        W52098  15.277   6.017   2.258
80373W        W52099  21.720  26.369  11.094
80374W        W52100  28.473   5.440   0.249
80375W        W52101  32.620  43.532   3.766
80376W        W52102  44.381  36.861  14.976
80377W        W52103  12.270  43.772   3.820
80378W        W52104  29.012  30.062   3.246
80379W        W52105  37.877  17.026   0.183
80380W        W52106  13.219  34.838   2.320
80381W        W52107   1.677  38.666  14.996
80382W        W52108   7.150  17.610   3.126
80383W        W52109  35.989  41.968  11.957
80384W        W52110  29.277   3.121   4.428
80385W        W52111  14.208   1.542   4.579
80386W        W52112  29.632  24.747   9.806
80387W        W52113  42.019  26.575   3.586
80388W        W52114  37.869  20.554  11.568
80389W        W52115  44.900  31.099   0.755
80390W        W52116   1.129  32.567   4.640
80391W        W52117   5.768   1.763   2.796
80392W        W52118   7.205   0.399  11.185
80393W        W52119  15.763  15.531  13.972
80394W        W52120  33.444   3.971  11.958
80395W        W52121  18.004  30.656  13.093
80396W        W52122   7.864  44.362  11.635
80397W        W52123  31.556   2.887   4.255
80398W        W52124  14.716  44.309  13.039
80399W        W52125   2.904  23.097   0.983
80400W        W52126  43.074  28.525   1.495
80401W        W52127  11.852  13.973   3.828
80402W        W52128   3.629  26.143  14.313
80403W        W52129  13.803  42.301  11.141
80404W        W52130  41.322  21.953   2.448
80405W        W52131  36.970  32.995  14.483
80406W        W52132  20.644  12.891  14.483
80407W        W52133  38.884  18.407   9.915
80408W        W52134   1.017   4.754  14.520
80409W        W52135  26.610   2.946   0.904
80410W        W52136   4.425  28.999  13.883
80411W        W52137  19.888  22.811  12.819
80412W        W52138   6.968  16.133   3.272
80413W        W52139  23.600  19.033  14.001
80414W        W52140  34.366  43.584   2.762
80415W        W52141   9.657  33.816   4.483
80416W        W52142   1.039  39.234  14.420
80417W        W52143  16.327   0.196   1.746
80418W        W52144   6.807   5.401  14.816
80419W        W52145  32.344  24.265   9.797
80420W        W52146   5.200  26.673  10.337
80421W        W52147   2.398  19.006   4.675
80422W        W52148   6.360  33.961  14.041
80423W        W52149   9.619  15.293  11.133
80424W        W52150  27.936  19.556  13.605
80425W        W52151  34.440   4.850   3.294
80426W        W52152  13.337  39.940  11.979
80427W        W52153  26.677   8.811  13.286
80428W        W52154  13.003  11.239  13.974
80429W        W52155  28.652  12.926  13.759
80430W        W52156   6.131   3.807  14.420
80431W        W52157  37.482  18.563   1.713
80432W        W52158  24.002  25.977   2.331
80433W        W52159  19.685  27.948  13.017
80434W        W52160  19.773  40.365   2.695
80435W        W52161   6.538  27.615   2.856
80436W        W52162   1.858  27.545   4.627
80437W        W52163  37.901  14.387  10.945
80438W        W52164  13.168  13.782   0.395
80439W        W52165  16.140  31.151  11.100
80440W        W52166  32.383  26.176  14.790
80441W        W52167   4.527  31.613  14.392
80442W        W52168  15.048  20.712   4.770
80443W        W52169  21.073   9.357   2.597
80444W        W52170   2.009  44.596  12.053
80445W        W52171  33.960  12.305   4.633
80446W        W52172  12.892  19.751  12.528
80447W        W52173  37.531   5.710   3.268
80448W        W52174  29.121   6.870   1.261
80449W        W52175  27.855   4.957  10.241
80450W        W52176   7.970   6.126  10.192
80451W        W52177  38.329  19.788  10.657
80452W        W52178  42.540  22.843  14.847
80453W        W52179  29.885  14.172   2.695
80454W        W52180  27.688   2.900   0.882
80455W        W52181  40.493  24.992   2.256
80456W        W52182  10.468  18.792   3.152
80457W        W52183  15.185  30.649   0.454
80458W        W52184  15.809   5.956   1.819
80459W        W52185  11.702  24.582  13.994
80460W        W52186  34.489  29.019   2.163
80461W        W52187  18.989  35.810  13.864
80462W        W52188  36.738  35.929  11.087
80463W        W52189   0.714  31.544   0.815
80464W        W52190  43.528  14.213  11.641
80465W        W52191  26.777  13.369   3.413
80466W        W52192  34.928  44.603  13.125
80467W        W52193   7.987   3.748   4.336
80468W        W52194  28.433  38.576   2.826
80469W        W52195   1.711  35.989   1.930
80470W        W52196  42.694  25.070  11.462
80471W        W52197  17.627  23.213   2.070
80472W        W52198  15.105  25.759   1.181
80473W        W52199  17.240   8.085   1.392
80474W        W52200  19.760  26.526   1.674
80475W        W52201  43.786   0.788   3.690
80476W        W52202  22.577   7.719  12.604
80477W        W52203  28.037   7.127   0.178
80478W        W52204  12.747   1.570  11.944
80479W        W52205  17.743   3.417   0.784
80480W        W52206  42.970  14.160   0.978
80481W        W52207  18.679  13.767  14.438
80482W        W52208  11.268   1.790   4.256
80483W        W52209  38.435   5.819  13.867
80484W        W52210  22.701   9.633  12.891
80485W        W52211  14.569  13.404  11.685
80486W        W52212  34.536  24.611  14.786
80487W        W52213  33.423  42.562   3.089
80488W        W52214  10.651  15.389  13.330
80489W        W52215  27.093  15.590  13.934
80490W        W52216  43.185   8.356   1.763
80491W        W52217   6.900  44.251   2.335
80492W        W52218   5.292  35.399  14.918
80493W        W52219   9.772  43.900  11.564
80494W        W52220  15.170   7.470  10.461
80495W        W52221   0.737  31.291   3.643
80496W        W52222  26.953   8.823  11.038
80497W        W52223  21.079   9.354  11.685
80498W        W52224  37.781  38.905  11.477
80499W        W52225   4.271  33.789   3.786
80500W        W52226  44.232  41.594   0.898
80501W        W52227  27.698  40.360   0.289
80502W        W52228   1.293   2.480  12.430
80503W        W52229  21.226  21.421  13.867
80504W        W52230  40.293  22.572   4.092
80505W        W52231  41.800   4.228   3.804
80506W        W52232  11.655   4.614   2.211
80507W        W52233  14.581  17.662  10.932
80508W        W52234  21.428  20.058  13.187
80509W        W52235   9.657  18.599   2.840
80510W        W52236   2.215  20.613   3.925
80511W        W52237  44.766  43.955  11.446
80512W        W52238  35.876  11.749   0.290
80513W        W52239  35.538  12.711  14.031
80514W        W52240  43.438  11.527  13.990
80515W        W52241  23.959  27.373   3.149
80516W        W52242  40.599  10.326  10.240
80517W        W52243  31.281  15.320  12.368
80518W        W52244   9.272  17.644   1.422
80519W        W52245  24.503  21.521  12.621
80520W        W52246  18.512  27.866   2.390
80521W        W52247  36.753   1.677  10.642
80522W        W52248   8.846  25.266  11.018
80523W        W52249  44.260  26.612  12.658
80524W        W52250   8.837  41.862   0.376
80525W        W52251  23.954  11.684   1.953
80526W        W52252  36.415  14.549  13.974
80527W        W52253   3.895   8.601  12.016
80528W        W52254  21.744  33.417   2.219
80529W        W52255  13.694   2.785   1.912
80530W        W52256  13.352   1.138  13.167
80531W        W52257   2.802  28.553  14.059
80532W        W52258   7.735   5.026  14.390
80533W        W52259  26.167  20.077   1.387
80534W        W52260  16.208  44.474  10.992
80535W        W52261  19.594   9.891   3.947
80536W        W52262   5.278  23.560  12.568
80537W        W52263  37.402  34.979   1.959
80538W        W52264  27.576  28.556  12.939
80539W        W52265  25.010  36.372  12.097
80540W        W52266  11.301   8.777  10.688
80541W        W52267  10.200  35.416   4.477
80542W        W52268   7.351  39.835   3.257
80543W        W52269  27.829   6.718   3.633
80544W        W52270  22.317  37.035   4.289
80545W        W52271   8.309  15.907  11.042
80546W        W52272  35.640  22.766  12.854
80547W        W52273  41.869  42.730   4.812
80548W        W52274   1.636  44.766  10.873
80549W        W52275  30.733  37.386   4.607
80550W        W52276  20.588  31.983   1.849
80551W        W52277   7.642  12.209  12.649
80552W        W52278   9.403  41.721   2.184
80553W        W52279  35.637   3.643   1.801
80554W        W52280  42.427   7.428   3.611
80555W        W52281   7.674   2.370   3.142
80556W        W52282  31.855  18.080  12.330
80557W        W52283  10.307  37.912  14.285
80558W        W52284  13.569  39.055   1.518
80559W        W52285  12.903  21.609  13.859
80560W        W52286  31.517  34.830  13.459
80561W        W52287   8.230  15.174   0.780
80562W        W52288  32.507  17.648  12.364
80563W        W52289  37.392  25.158   4.423
80564W        W52290   9.698   5.897  13.829
80565W        W52291  10.284  44.702  10.654
80566W        W52292   4.363  11.098  13.115
80567W        W52293  37.490   0.702   2.443
80568W        W52294   9.604   3.307  10.911
80569W        W52295  32.358  26.595   2.274
80570W        W52296   6.104  44.770  12.539
80571W        W52297  26.531  16.847  11.524
80572W        W52298  12.908  32.185   1.896
80573W        W52299  13.996   3.641  13.883
80574W        W52300  25.272  11.349   0.228
80575W        W52301   6.474   4.251  14.917
80576W        W52302   4.259  28.485  11.359
80577W        W52303  22.628  36.778   2.176
80578W        W52304  37.339  41.298   0.270
80579W        W52305  37.593  14.754  11.182
80580W        W52306   4.930  27.585  14.428
80581W        W52307  34.579   7.860   0.038
80582W        W52308  37.475  36.984   3.036
80583W        W52309  20.662  37.528   2.253
80584W        W52310  40.364  43.211  13.839
80585W        W52311  14.013  28.532  13.781
80586W        W52312  36.868  11.716  10.770
80587W        W52313  44.024   8.426   3.477
80588W        W52314  13.576   5.833   1.378
80589W        W52315  12.599  17.821   1.220
80590W        W52316   7.363  15.109  10.109
80591W        W52317  23.905  32.056   3.234
80592W        W52318   3.378  24.159   3.652
80593W        W52319  22.990  38.928   0.519
80594W        W52320   4.760  42.868   1.456
80595W        W52321  19.629  23.965  10.968
80596W        W52322  36.421   5.419   4.774
80597W        W52323  23.849  37.129   1.486
80598W        W52324  43.944   4.243   2.309
80599W        W52325  23.883  20.222   3.632
80600W        W52326   6.889   8.760  14.029
80601W        W52327  15.252  20.305   3.841
80602W        W52328  26.119   9.398  11.445
80603W        W52329  12.886  41.350  12.858
80604W        W52330  29.031  32.454   3.774
80605W        W52331  28.231   5.424  12.915
80606W        W52332   1.303   3.946  10.951
80607W        W52333   9.745  26.061  10.140
80608W        W52334  24.915  30.510  11.705
80609W        W52335  34.662  11.215  13.559
80610W        W52336  12.369   8.866  14.269
80611W        W52337  40.894   0.490  13.828
80612W        W52338   7.242  24.692   1.787
80613W        W52339  23.207  25.681  12.362
80614W        W52340  27.971  35.681   2.273
80615W        W52341  28.573  22.452   2.670
80616W        W52342  35.683  21.819  12.953
80617W        W52343   6.438   9.875  12.469
80618W        W52344  13.337  14.794   1.228
80619W        W52345  40.246  19.626   3.721
80620W        W52346  40.588  37.555   1.899
80621W        W52347  44.857  28.400  14.919
80622W        W52348  28.610  11.791   4.575
80623W        W52349  34.575  30.645  12.389
80624W        W52350  30.601  25.566   5.038
80625W        W52351  41.241  31.431  13.084
80626W        W52352   2.338  36.383  10.734
80627W        W52353   5.317  27.278  14.734
80628W        W52354  18.696   3.031   1.159
80629W        W52355  15.443   8.065  11.548
80630W        W52356  15.014   2.548   2.730
80631W        W52357  36.201  26.891   3.672
80632W        W52358   9.866  44.206  12.040
80633W        W52359  34.198   6.674   2.825
80634W        W52360  25.525  39.057  13.455
80635W        W52361  28.479   8.073   4.133
80636W        W52362  27.121  36.440  12.461
80637W        W52363  22.031   1.905  12.883
80638W        W52364  12.620  25.434   2.114
80639W        W52365  18.762  13.074   3.651
80640W        W52366  13.066  31.939  12.306
80641W        W52367  38.896   0.155   4.107
80642W        W52368   6.650  10.780   4.493
80643W        W52369   8.274  33.002  14.751
80644W        W52370  24.038  29.518  10.767
80645W        W52371  42.535  38.886  12.107
80646W        W52372  14.435  30.281   0.484
80647W        W52373  18.640  39.405  12.577
80648W        W52374  24.690  22.541   0.890
80649W        W52375  34.031  34.815  11.787
80650W        W52376  32.155  32.745  14.168
80651W        W52377  27.527  18.293  11.836
80652W        W52378  30.561  33.936   4.611
80653W        W52379  17.311  19.683  13.865
80654W        W52380  10.323  26.160  13.899
80655W        W52381  21.854  18.718  14.210
80656W        W52382  14.632  35.729   4.330
80657W        W52383  36.023   4.245  11.911
80658W        W52384  10.929  22.994  10.739
80659W        W52385   2.760  32.590  13.857
80660W        W52386  18.745  27.617   0.488
80661W        W52387   2.451  30.137  13.398
80662W        W52388  39.983   2.838  12.501
80663W        W52389  44.453  15.099   0.917
80664W        W52390   3.774  32.622   0.326
80665W        W52391  44.747  29.099   0.870
80666W        W52392  31.117  10.595  10.207
80667W        W52393  30.421   9.463   3.284
80668W        W52394  22.939  31.827   1.426
80669W        W52395   8.684  20.139   3.205
80670W        W52396  33.818  38.751   9.859
80671W        W52397  35.624  40.807   2.295
80672W        W52398  44.743  16.233   4.672
80673W        W52399  10.779  19.043  13.836
80674W        W52400  31.549  43.122  12.947
80675W        W52401   1.641   6.033  12.038
80676W        W52402  10.893   2.770  11.487
80677W        W52403  10.803   8.421   0.264
80678W        W52404  13.850  43.959   1.493
80679W        W52405   7.803  23.450   5.424
80680W        W52406  18.348  30.216  12.620
80681W        W52407  10.345  33.275   4.001
80682W        W52408  13.792  27.622  12.361
80683W        W52409  26.012   5.282   0.072
80684W        W52410  12.621  35.456  13.950
80685W        W52411   2.420  35.454  12.975
80686W        W52412  18.326  25.573  11.434
80687W        W52413   7.239   7.050  13.935
80688W        W52414  40.657   2.190   1.490
80689W        W52415  30.635  29.745   3.457
80690W        W52416   9.746   1.750  14.096
80691W        W52417  21.063  12.518   4.569
80692W        W52418  32.553   4.682   3.841
80693W        W52419   2.264  13.219   1.858
80694W        W52420  28.105   6.330  13.521
80695W        W52421  20.911  20.999   4.992
80696W        W52422  16.372  15.809  14.961
80697W        W52423  24.433  36.478  14.679
80698W        W52424  44.401  18.613  12.951
80699W        W52425  36.160  15.815   3.726
80700W        W52426  43.049  30.617  13.988
80701W        W52427   5.961  28.164  11.971
80702W        W52428  42.344  28.623  13.998
80703W        W52429  11.206  25.678  11.810
80704W        W52430  34.027  38.625   1.416
80705W        W52431   4.995  39.359  14.839
80706W        W52432  31.913  28.589   3.104
80707W        W52433  19.600  26.613  10.646
80708W        W52434  30.623   0.354   0.423
80709W        W52435  23.896  25.575  13.958
80710W        W52436  33.873  22.184   4.636
80711W        W52437  18.681  26.113  10.643
80712W        W52438  33.524   7.654  10.357
80713W        W52439   1.356  12.383  12.128
80714W        W52440  36.787  32.664  13.079
80715W        W52441  40.619  27.030   3.878
80716W        W52442  31.441   4.996  14.503
80717W        W52443  42.588   6.034   2.859
80718W        W52444  24.561  13.236   1.749
80719W        W52445  40.910  18.008   4.647
80720W        W52446   7.203   6.689   1.954
80721W        W52447   0.324  20.089  12.657
80722W        W52448  13.664  31.823   2.460
80723W        W52449  22.291  17.466  12.821
80724W        W52450  17.544   4.828  13.025
80725W        W52451   9.856  31.491   4.153
80726W        W52452  17.174  24.726   3.654
80727W        W52453  32.572  43.040  14.064
80728W        W52454  10.819  11.721  12.375
80729W        W52455   2.166   1.937   1.767
80730W        W52456  43.111  21.829  12.908
80731W        W52457   3.973  23.485  14.362
80732W        W52458  39.275   9.358  10.731
80733W        W52459  40.532  39.908  10.640
80734W        W52460  32.078   8.920  13.988
80735W        W52461   3.930   5.688  14.901
80736W        W52462  44.229  22.824   3.786
80737W        W52463   6.742  13.623   5.484
80738W        W52464   0.834   7.829   1.805
80739W        W52465  22.307  18.337  14.408
80740W        W52466   7.563  12.168  11.041
80741W        W52467  20.221  40.080  12.926
80742W        W52468  16.234  38.769  11.479
80743W        W52469  31.945  33.507   5.195
80744W        W52470  38.635   3.454  11.569
80745W        W52471  24.619  28.005   2.732
80746W        W52472  36.388   1.226   4.557
80747W        W52473  22.612   9.711   4.569
80748W        W52474  32.581  44.741   0.806
80749W        W52475  13.231  18.184  12.042
80750W        W52476  41.074  29.857  13.008
80751W        W52477   4.730   4.981  14.067
80752W        W52478  16.594  27.597  11.885
80753W        W52479  33.911   9.057  11.009
80754W        W52480  34.634  21.958  12.104
80755W        W52481  20.189   2.533   2.333
80756W        W52482  29.517   9.409   1.340
80757W        W52483  28.377  39.938  10.635
80758W        W52484  35.222  36.386   4.732
80759W        W52485  29.338  32.163   1.909
80760W        W52486   7.311  36.322   0.249
80761W        W52487  31.887   7.765  12.883
80762W        W52488  28.666  27.092  12.837
80763W        W52489   4.543  25.984   2.827
80764W        W52490  19.672  32.463  12.701
80765W        W52491  27.625  35.832   1.885
80766W        W52492  16.189  32.375  13.963
80767W        W52493  23.976  14.712   1.784
80768W        W52494  36.122  40.939   2.901
80769W        W52495  33.444  39.656   4.658
80770W        W52496  10.880  21.290   1.805
80771W        W52497   3.803  36.397  14.406
80772W        W52498  16.823  17.495   3.783
80773W        W52499   6.169  17.651   0.279
80774W        W52500  16.187  19.708  13.587
80775W        W52501   7.309   3.233   2.270
80776W        W52502  25.431   0.864   1.379
80777W        W52503  15.365  37.498   2.316
80778W        W52504  16.612  41.997   3.778
80779W        W52505   7.544  35.154  10.023
80780W        W52506   7.174  38.764   2.535
80781W        W52507  36.867  30.034   4.480
80782W        W52508  17.195   7.147  11.778
80783W        W52509  17.252  32.425   4.994
80784W        W52510   9.789  42.340   4.390
80785W        W52511   1.035  16.722  11.310
80786W        W52512  29.618  22.511  13.607
80787W        W52513   7.949  32.662  13.890
80788W        W52514  16.783  40.437   1.277
80789W        W52515  16.750  43.585   1.561
80790W        W52516   6.671  42.151  11.438
80791W        W52517  17.790  41.258  10.679
80792W        W52518  26.459  39.348  10.984
80793W        W52519  36.938  10.977   4.637
80794W        W52520   9.264   2.967   0.697
80795W        W52521  23.277  33.126  12.641
80796W        W52522  38.033  34.502   3.242
80797W        W52523  43.653  37.336   1.039
80798W        W52524  34.511   2.544  10.594
80799W        W52525  13.280  42.329   3.583
80800W        W52526  37.249  29.616   2.728
80801W        W52527  43.977  11.205   3.289
80802W        W52528   0.619  13.610  11.854
80803W        W52529   3.452   6.853   2.827
80804W        W52530  19.719  43.637  12.590
80805W        W52531  28.201   8.694  13.495
80806W        W52532  33.122  10.324  13.788
80807W        W52533  41.033  19.096  10.721
80808W        W52534  34.117  25.092  12.447
80809W        W52535   9.894   4.706  14.717
80810W        W52536  35.067  14.650  13.426
80811W        W52537  27.167   6.254   2.193
80812W        W52538   3.839  36.878  11.553
80813W        W52539   9.854  34.744   0.331
80814W        W52540  36.946  14.110   0.462
80815W        W52541  35.964  38.053   4.681
80816W        W52542  37.214  42.146   2.365
80817W        W52543   9.465  27.271  13.889
80818W        W52544   0.916  36.315  13.505
80819W        W52545  12.620  38.398  14.296
80820W        W52546  27.820   6.550   4.940
80821W        W52547  40.808  35.477   0.756
80822W        W52548  26.210  14.169   1.407
80823W        W52549  33.545  29.945   0.974
80824W        W52550  17.662  30.390   3.096
80825W        W52551  28.386  11.790  12.011
80826W        W52552  19.320  28.934   0.845
80827W        W52553  27.616   2.068  12.471
80828W        W52554  31.218   5.446  13.520
80829W        W52555   7.210  34.466   1.739
80830W        W52556   2.378  41.593   1.618
80831W        W52557  42.252  42.355   1.416
80832W        W52558  25.170  17.963  14.089
80833W        W52559  23.014  18.194  10.448
80834W        W52560  10.828  34.198  12.346
80835W        W52561   5.998  14.658   1.284
80836W        W52562   1.898   1.365   2.808
80837W        W52563  12.478  22.590   2.814
80838W        W52564   0.873  33.914  12.842
80839W        W52565  29.867  20.169  14.703
80840W        W52566  20.312  11.638  12.325
80841W        W52567  22.573   6.542  11.846
80842W        W52568  38.288  33.371   1.471
80843W        W52569   8.804   6.951  13.308
80844W        W52570  23.665  42.008  10.761
80845W        W52571  39.567   2.805   4.121
80846W        W52572  13.066  25.032  11.519
80847W        W52573  14.999  41.366   1.889
80848W        W52574  16.150  24.443   1.724
80849W        W52575   0.523  43.871  11.570
80850W        W52576   7.492  23.062   1.954
80851W        W52577  17.195  35.053  12.569
80852W        W52578  17.678  40.392   4.644
80853W        W52579  25.107  38.216  12.647
80854W        W52580  44.846  38.862   2.745
80855W        W52581  26.478  22.622  14.116
80856W        W52582  36.258   6.959   4.529
80857W        W52583  26.942  14.758  13.468
80858W        W52584  23.511  29.020   2.145
80859W        W52585  20.136  31.939  12.603
80860W        W52586  44.614  41.789   1.217
80861W        W52587  26.045  21.140   2.209
80862W        W52588  20.084  38.932  10.206
80863W        W52589   8.929   2.250   1.694
80864W        W52590   3.677  18.622   3.878
80865W        W52591  36.537   9.599   2.224
80866W        W52592  12.456  16.012   4.148
80867W        W52593   4.776  33.849  12.464
80868W        W52594  26.568  26.020   2.731
80869W        W52595  23.815  42.045   0.910
80870W        W52596  24.976  38.562   0.270
80871W        W52597   5.515   1.920  13.174
80872W        W52598  42.768  14.270  13.547
80873W        W52599  38.822  19.070   4.636
80874W        W52600  14.050   8.332  12.128
80875W        W52601  17.221  21.010   0.460
80876W        W52602  16.704   6.363   2.242
80877W        W52603  43.392  43.032   4.213
80878W        W52604   2.323  12.277  11.871
80879W        W52605  40.755   9.318   0.926
80880W        W52606  26.002   2.825   4.462
80881W        W52607  14.608  17.465   0.477
80882W        W52608  14.906  36.147   4.199
80883W        W52609  13.979  19.792   4.068
80884W        W52610  14.846   3.461  13.412
80885W        W52611  25.789  32.952  11.559
80886W        W52612  38.299  42.990   3.864
80887W        W52613  11.716  35.963   4.041
80888W        W52614  16.144  25.682   4.636
80889W        W52615  30.019  10.386   0.913
80890W        W52616  28.026   8.060  14.921
80891W        W52617  37.963  31.910  10.958
80892W        W52618  28.113  37.022  14.905
80893W        W52619  27.913  34.365   1.414
80894W        W52620  34.431  14.715   2.242
80895W        W52621  44.712   5.362   2.269
80896W        W52622  23.775   0.341   0.085
80897W        W52623  15.105  19.688   0.403
80898W        W52624   8.428  11.031   2.687
80899W        W52625   4.817  31.568  11.582
80900W        W52626  34.138  41.796   0.110
80901W        W52627  19.126  15.024   4.296
80902W        W52628   0.000  18.874   0.209
80903W        W52629  28.886  40.630  10.835
80904W        W52630   1.769  30.612   0.339
80905W        W52631  26.285  14.726  10.786
80906W        W52632   1.454  10.201  11.195
80907W        W52633  27.708  26.031   4.123
80908W        W52634  19.083   0.440   3.153
80909W        W52635   1.508   6.887  14.037
80910W        W52636  34.050  14.555  13.434
80911W        W52637  23.934   0.588   3.368
80912W        W52638   8.357  19.087  13.325
80913W        W52639  27.186   4.357   0.635
80914W        W52640  25.154  31.859   3.308
80915W        W52641  42.015  18.907   2.253
80916W        W52642   4.632  43.332   0.210
80917W        W52643  19.745  38.005  13.293
80918W        W52644   4.624  31.753  12.062
80919W        W52645  34.733  12.098  13.350
80920W        W52646  10.418  16.813  12.337
80921W        W52647  13.893   3.411  11.426
80922W        W52648  11.617   5.874  14.861
80923W        W52649  28.222  16.295   1.924
80924W        W52650   3.464  18.682  12.942
80925W        W52651   3.224  39.860  14.354
80926W        W52652  26.235  30.569  10.681
80927W        W52653  42.020   2.283   0.301
80928W        W52654  40.772  15.745  14.285
80929W        W52655  10.260   2.128   5.030
80930W        W52656   0.202  12.776  12.043
80931W        W52657  26.788  39.447  13.353
80932W        W52658  41.708   5.700  14.868
80933W        W52659   1.344  14.890   3.924
80934W        W52660  25.987  22.723   2.685
80935W        W52661  17.710   0.351  12.465
80936W        W52662  34.431   3.293  12.672
80937W        W52663  26.624  40.289  10.549
80938W        W52664  22.983  29.112   2.120
80939W        W52665  30.031  15.225   0.989
80940W        W52666  21.243   7.105  12.063
80941W        W52667  34.462  41.978  14.277
80942W        W52668  28.828   4.339   0.865
80943W        W52669  29.106   4.760  10.607
80944W        W52670   8.245  31.505  12.484
80945W        W52671   2.188  33.411  13.030
80946W        W52672  38.031  44.243   0.334
80947W        W52673  30.585   9.693   0.772
80948W        W52674  12.838  29.180  11.426
80949W        W52675   0.186  34.642   2.588
80950W        W52676  34.277  34.168  11.036
80951W        W52677  36.889  21.358  12.054
80952W        W52678   0.222  17.940  10.568
80953W        W52679  21.569  10.581   4.478
80954W        W52680   5.417  27.152  13.930
80955W        W52681  19.856  41.997  11.126
80956W        W52682  32.649   3.198   3.620
80957W        W52683  24.161   9.868   3.131
80958W        W52684   7.383  14.406   0.349
80959W        W52685   5.018  28.479   2.532
80960W        W52686   2.869  34.815   4.140
80961W        W52687  21.282  44.064  13.125
80962W        W52688  38.293  19.982  13.727
80963W        W52689  18.736  17.591  13.929
80964W        W52690  20.561  32.184  14.952
80965W        W52691   8.791  44.308   0.065
80966W        W52692   2.730  31.475   1.756
80967W        W52693  33.096  36.949  11.917
80968W        W52694  43.953   4.358   0.742
80969W        W52695  41.684   5.647  11.002
80970W        W52696  12.577   4.461   0.380
80971W        W52697   7.567  27.039   0.705
80972W        W52698   9.403  31.986  13.881
80973W        W52699  41.868  18.012   3.647
80974W        W52700  36.031  26.099  13.372
80975W        W52701  23.620  31.494  13.509
80976W        W52702  35.213  38.769  11.121
80977W        W52703  25.170   8.840   4.618
80978W        W52704  26.690  18.484  12.503
80979W        W52705  17.302   8.185   4.238
80980W        W52706  24.138  44.337  10.116
80981W        W52707  30.175  27.638  14.957
80982W        W52708   9.388  24.357  10.956
80983W        W52709  31.084  21.051   0.813
80984W        W52710  30.702  17.103  12.941
80985W        W52711   9.218  14.191   1.169
80986W        W52712  29.217   0.543  12.124
80987W        W52713  26.685  26.446   1.781
80988W        W52714   7.904   0.838  11.529
80989W        W52715  12.753  43.991  10.860
80990W        W52716  22.669  24.987  13.809
80991W        W52717  31.106  13.838  10.861
80992W        W52718  37.160  34.618   1.662
80993W        W52719  17.704  37.446   0.910
80994W        W52720  33.836  34.820   2.309
80995W        W52721  17.816  32.837   2.186
80996W        W52722  24.110  16.245   2.687
80997W        W52723  40.231  41.089   3.748
80998W        W52724  44.262  10.408  10.773
80999W        W52725   9.296  12.047   2.192
81000W        W52726  36.142   7.883   2.867
81001W        W52727   0.754  28.601  11.325
81002W        W52728  28.108  37.408   3.416
81003W        W52729   5.754  18.667   1.669
81004W        W52730  28.464  39.938  11.150
81005W        W52731  39.383  27.107   0.777
81006W        W52732  21.429  36.294   0.589
81007W        W52733  13.111  19.785  14.368
81008W        W52734   8.853  29.992   1.299
81009W        W52735  43.434  42.531   4.265
81010W        W52736  17.682  39.182   5.054
81011W        W52737  25.222  15.614  14.044
81012W        W52738   8.883  25.570   0.797
81013W        W52739  33.005  21.196  12.801
81014W        W52740  37.870   3.814   4.570
81015W        W52741   8.392  25.505   3.222
81016W        W52742  36.833  43.895   0.894
81017W        W52743  22.636   5.809   2.881
81018W        W52744  15.082  13.907  12.450
81019W        W52745  22.247  31.035  10.666
81020W        W52746  41.261   9.377   1.832
81021W        W52747  17.541  39.020   1.162
81022W        W52748  42.195  31.496  12.121
81023W        W52749   0.462   3.519  12.409
81024W        W52750  44.302  19.653   2.143
81025W        W52751  16.610  10.271   3.807
81026W        W52752  23.651  10.831  12.312
81027W        W52753   5.377  24.720   3.757
81028W        W52754  42.970   9.234  11.579
81029W        W52755  23.729  13.586  14.422
81030W        W52756  30.609  37.113   1.452
81031W        W52757  40.045  41.082   3.192
81032W        W52758  19.610  10.239   3.537
81033W        W52759  35.831  30.731   3.619
81034W        W52760  24.738  29.129  12.864
81035W        W52761   8.808  13.159   0.397
81036W        W52762  10.202  31.972  12.121
81037W        W52763  22.151   8.738  14.904
81038W        W52764   6.936   7.457   0.754
81039W        W52765  23.388   2.443   1.330
81040W        W52766   2.267  10.806   1.739
81041W        W52767   6.897  29.902   4.171
81042W        W52768  27.264  22.739  12.279
81043W        W52769  16.162   3.256  13.356
81044W        W52770  27.251  30.421  14.980
81045W        W52771   3.963  23.464   4.400
81046W        W52772  10.169  29.920  10.951
81047W        W52773   2.190  15.411  12.404
81048W        W52774  31.534   7.333   0.991
81049W        W52775  40.483  13.110  11.644
81050W        W52776  35.009  25.486  12.938
81051W        W52777  36.457  11.340  14.699
81052W        W52778  21.337  16.245   3.136
81053W        W52779   8.184  36.518   5.480
81054W        W52780  31.123  19.160   4.978
81055W        W52781  38.366  10.371  10.520
81056W        W52782  37.010  24.604   3.717
81057W        W52783  28.666  36.473   1.206
81058W        W52784  29.318  28.962   3.300
81059W        W52785  20.754   7.336   1.410
81060W        W52786   4.184  13.603   4.627
81061W        W52787  17.047  40.498  13.017
81062W        W52788   1.552   6.108  11.064
81063W        W52789   3.179   4.353   4.940
81064W        W52790  15.077  42.258   0.400
81065W        W52791  42.320   9.443  12.015
81066W        W52792  36.299  13.715  11.962
81067W        W52793  32.633  11.766   2.487
81068W        W52794   8.623  13.560  11.783
81069W        W52795   1.929  38.507  10.857
81070W        W52796  38.794  38.993  13.381
81071W        W52797  38.079  20.758   1.423
81072W        W52798  10.208  28.571   1.224
81073W        W52799  19.286  16.888  11.430
81074W        W52800  36.142  16.641  13.072
81075W        W52801   7.858  27.088  11.539
81076W        W52802  17.553  20.703  12.678
81077W        W52803  24.619  31.437  13.455
81078W        W52804   6.301  37.115   4.589
81079W        W52805  15.053  21.564   1.879
81080W        W52806  15.363  10.768   4.167
81081W        W52807   8.313  15.807  10.228
81082W        W52808  13.097  18.749  13.196
81083W        W52809  23.497   1.676   2.356
81084W        W52810  12.952  28.506  12.576
81085W        W52811  40.286   2.834   0.963
81086W        W52812  34.999  14.440   4.145
81087W        W52813  22.125  20.508   1.712
81088W        W52814  31.668  33.104   1.716
81089W        W52815  16.127  10.764  14.928
81090W        W52816  17.570   8.316  12.115
81091W        W52817  28.934  18.721   0.888
81092W        W52818  10.946  13.609   1.247
81093W        W52819  41.680  36.879  11.647
81094W        W52820  12.651  34.417  11.973
81095W        W52821  38.859  30.939  14.504
81096W        W52822  41.320   8.420  13.399
81097W        W52823  20.797  21.899   1.391
81098W        W52824  14.174  39.397   1.491
81099W        W52825  34.989  30.934  12.437
81100W        W52826  24.321  42.079   1.741
81101W        W52827   7.230  10.314  12.648
81102W        W52828   9.664  32.226  12.440
81103W        W52829  41.446   5.314  11.900
81104W        W52830   7.136  17.896   4.160
81105W        W52831  20.817  13.615  10.558
81106W        W52832  33.835   2.911   1.255
81107W        W52833  30.659  15.767   1.233
81108W        W52834   1.547  17.588  13.842
81109W        W52835  10.743  18.069  13.457
81110W        W52836  36.505  35.325   3.177
81111W        W52837  14.821  18.268   0.826
81112W        W52838  39.367  16.884  12.485
81113W        W52839   6.327  16.377   2.736
81114W        W52840  27.136  15.549  14.901
81115W        W52841  21.660  27.913  10.536
81116W        W52842  15.229   3.170   3.762
81117W        W52843   2.517  38.939  12.869
81118W        W52844  15.758  25.635  13.879
81119W        W52845   6.336  41.887   0.296
81120W        W52846  18.362  38.296   1.086
81121W        W52847  19.187  44.682  13.340
81122W        W52848   0.276   9.314   2.481
81123W        W52849  13.818  38.005  11.430
81124W        W52850   0.825  24.160   3.879
81125W        W52851  27.167  38.250  13.974
81126W        W52852  28.719  18.963  13.841
81127W        W52853  11.661  35.508  12.615
81128W        W52854  20.012  12.390   1.232
81129W        W52855  11.688  10.672   0.832
81130W        W52856  35.064  12.791  10.315
81131W        W52857  24.745  39.435  12.052
81132W        W52858  41.443  16.702   3.457
81133W        W52859   3.317  24.572   4.642
81134W        W52860  10.645  33.488  10.555
81135W        W52861  44.343  43.573   4.043
81136W        W52862  44.541  22.022  10.332
81137W        W52863  32.516  29.148   2.947
81138W        W52864  22.982  36.730   3.288
81139W        W52865  11.080  43.369  11.542
81140W        W52866   7.348   4.337   5.563
81141W        W52867   7.601  34.404   0.332
81142W        W52868  29.465  26.126  10.502
81143W        W52869  37.419  29.366   3.188
81144W        W52870  12.790   5.335   2.413
81145W        W52871  25.696  27.149   3.135
81146W        W52872   5.378   3.283  11.602
81147W        W52873  32.886  14.407  14.466
81148W        W52874   9.316  17.014   3.001
81149W        W52875  27.046  39.973   0.771
81150W        W52876   3.915  39.566   2.572
81151W        W52877  20.279   4.371   4.665
81152W        W52878  35.722   6.781   4.536
81153W        W52879  24.618  30.922  12.478
81154W        W52880  27.712  28.612  11.418
81155W        W52881  19.851  12.939   3.352
81156W        W52882  21.801  14.898  10.153
81157W        W52883  25.941  40.842  12.894
81158W        W52884  15.097  10.524   0.089
81159W        W52885  42.273  39.805  13.536
81160W        W52886  30.454   9.857   0.271
81161W        W52887   9.624  30.615   4.303
81162W        W52888  11.382   2.768  10.672
81163W        W52889  28.570  43.803  14.416
81164W        W52890   8.194  22.316  11.846
81165W        W52891  17.263  16.764   4.151
81166W        W52892   2.505  33.433   2.169
81167W        W52893   6.584  24.930  10.450
81168W        W52894  28.741  19.513  13.842
81169W        W52895  26.388  19.577  13.802
81170W        W52896   0.257   0.414  14.822
81171W        W52897   3.313   3.493   3.354
81172W        W52898  18.709   8.607   4.161
81173W        W52899  30.075   4.376   4.646
81174W        W52900  40.478   0.720  12.519
81175W        W52901  20.012  11.954  12.578
81176W        W52902  32.966  10.167  12.006
81177W        W52903   7.246  10.335  12.145
81178W        W52904  19.949  14.104   0.847
81179W        W52905  26.119  15.562   4.152
81180W        W52906   4.385  31.497  10.688
81181W        W52907   6.865  16.803  11.530
81182W        W52908   7.209  14.631  11.910
81183W        W52909   2.909  10.391   0.315
81184W        W52910   4.713  11.254   3.764
81185W        W52911   1.704  21.269   1.002
81186W        W52912  27.189  22.484   4.489
81187W        W52913  35.396  29.994  12.120
81188W        W52914  19.142  44.128   3.631
81189W        W52915  33.390  21.926  11.122
81190W        W52916   8.653  33.081   1.371
81191W        W52917  33.290   6.073   1.685
81192W        W52918  20.085  40.575   0.929
81193W        W52919  36.566  23.740  11.991
81194W        W52920  17.652  30.548  10.995
81195W        W52921  38.483   9.892  10.754
81196W        W52922  35.889  25.887   4.159
81197W        W52923   9.060   9.837   0.341
81198W        W52924  15.626  15.210  12.170
81199W        W52925  24.329  29.351   2.670
81200W        W52926  34.504   4.780  12.533
81201W        W52927  18.096  21.445  13.289
81202W        W52928  25.793  16.313   3.144
81203W        W52929  14.366  16.792   4.225
81204W        W52930  37.975  32.314  10.630
81205W        W52931  12.867   9.629   3.328
81206W        W52932   1.302   0.252  13.448
81207W        W52933  17.630  25.717  12.609
81208W        W52934   3.734  18.829   1.721
81209W        W52935   1.941  44.785   2.151
81210W        W52936  30.482  29.963  12.548
81211W        W52937  31.216  38.537  13.986
81212W        W52938  22.593  32.019  11.481
81213W        W52939  28.035  12.695  13.873
81214W        W52940   1.909   6.931  14.840
81215W        W52941   6.359  12.618   5.349
81216W        W52942  41.828  35.924  12.471
81217W        W52943   2.792  15.586   2.668
81218W        W52944  19.590  13.675  13.822
81219W        W52945  29.630  33.869   3.489
81220W        W52946  26.619   3.215  10.335
81221W        W52947  40.955  39.023  13.812
81222W        W52948  44.934   0.297  12.517
81223W        W52949  28.989  34.492   1.184
81224W        W52950  41.361  40.170  10.412
81225W        W52951  38.907  25.961  13.315
81226W        W52952  10.785   4.631  14.856
81227W        W52953  17.534  31.977   4.851
81228W        W52954  32.532  16.966   2.586
81229W        W52955  23.821  25.703   4.320
81230W        W52956  30.371  14.399   1.787
81231W        W52957  34.880  17.657   1.033
81232W        W52958  37.317  28.177   2.299
81233W        W52959  10.836  40.405  11.442
81234W        W52960  10.177  16.081   2.724
81235W        W52961   2.397  14.347   1.372
81236W        W52962  21.610  36.831  14.754
81237W        W52963   3.188  44.466   0.191
81238W        W52964  14.859  24.890   4.170
81239W        W52965   7.757  24.930  12.532
81240W        W52966  31.696  10.721  13.740
81241W        W52967  14.750   4.364  13.319
81242W        W52968   9.337  16.824  14.416
81243W        W52969  35.968   4.986  11.064
81244W        W52970  21.069   9.361  12.651
81245W        W52971  43.959   9.102   2.738
81246W        W52972  12.465  19.447  10.752
81247W        W52973  32.264   7.349  14.004
81248W        W52974  36.361  33.912   3.369
81249W        W52975  44.732   0.880   4.084
81250W        W52976   0.386  32.997   3.657
81251W        W52977   7.253  18.113  14.380
81252W        W52978  16.281  30.522  13.372
81253W        W52979  34.360  35.472   2.478
81254W        W52980  14.981  39.051   4.200
81255W        W52981  21.609  29.057  14.263
81256W        W52982   0.403   6.752   4.650
81257W        W52983  44.444   3.674  11.141
81258W        W52984  21.242  12.402   1.731
81259W        W52985  24.230  15.697  12.870
81260W        W52986  18.721  44.108  13.105
81261W        W52987  21.562  27.128   1.842
81262W        W52988  31.161  19.068   3.218
81263W        W52989  38.499  32.151  14.128
81264W        W52990  33.156  31.394   0.801
81265W        W52991  20.038  24.171   2.263
81266W        W52992   0.926  35.789  14.352
81267W        W52993  37.551  11.828   4.635
81268W        W52994  21.382  11.783   4.511
81269W        W52995  25.177  36.387  10.475
81270W        W52996  21.778   8.334  14.358
81271W        W52997  31.551  17.777   1.285
81272W        W52998  28.957  44.977   2.274
81273W        W52999  43.465  13.342  13.148
81274W        W53000  36.068  33.617  11.403
81275W        W53001  33.462  25.313   0.005
81276W        W53002  26.571  40.598  13.865
81277W        W53003   4.833  18.004   2.792
81278W        W53004  35.576  44.525  11.550
81279W        W53005  33.345  30.605  11.646
81280W        W53006   1.420   7.735   0.101
81281W        W53007  15.641  37.367  13.511
81282W        W53008  41.492  32.423  12.335
81283W        W53009  34.043   8.668   2.569
81284W        W53010  36.221  14.317   3.652
81285W        W53011   7.603  15.986  10.483
81286W        W53012  43.767  12.201  11.279
81287W        W53013  44.831  17.640  13.773
81288W        W53014   6.328  13.677  11.116
81289W        W53015  22.578  29.553   3.108
81290W        W53016  38.818  12.203  13.512
81291W        W53017   8.179   9.637   3.614
81292W        W53018  23.081  20.560   1.678
81293W        W53019  23.741  12.811   2.716
81294W        W53020  23.031  14.030   3.713
81295W        W53021  28.145  29.439  13.570
81296W        W53022  23.012  23.117   0.796
81297W        W53023   5.267  37.477   2.902
81298W        W53024  30.303  21.592   0.750
81299W        W53025  43.700  28.740   1.573
81300W        W53026   9.227  34.819  12.666
81301W        W53027  24.979   2.363  12.582
81302W        W53028  37.930  16.614   3.515
81303W        W53029  19.064  29.135   4.758
81304W        W53030  22.202  35.811  14.802
81305W        W53031  29.063  26.688   4.611
81306W        W53032  14.196   9.287  11.199
81307W        W53033  14.759  24.564   4.548
81308W        W53034   4.343   8.363  11.980
81309W        W53035   9.407  39.282  12.045
81310W        W53036  19.781  25.622   3.060
81311W        W53037  39.054  14.033  14.015
81312W        W53038  11.332  43.744   3.212
81313W        W53039  39.608  33.616  11.858
81314W        W53040  32.857  34.329  10.732
81315W        W53041  21.694  31.894  10.588
81316W        W53042  33.115  32.555  10.384
81317W        W53043  40.738  30.220  12.513
81318W        W53044   3.418  27.144   1.709
81319W        W53045  44.521  37.328  10.260
81320W        W53046  44.583  28.502   4.635
81321W        W53047  42.192  43.363   2.136
81322W        W53048  19.708  18.618   2.188
81323W        W53049  40.732  43.845   4.021
81324W        W53050  44.216  35.950  14.948
81325W        W53051   0.451   6.225  14.872
81326W        W53052   7.299   6.743   2.876
81327W        W53053   5.495  34.538  12.836
81328W        W53054   2.665  34.973   1.770
81329W        W53055  44.446  12.281  11.102
81330W        W53056  29.789   8.947   2.198
81331W        W53057  36.272  10.477   0.983
81332W        W53058  23.663  42.228   2.789
81333W        W53059  33.492  23.260  12.525
81334W        W53060  31.151  23.583   9.786
81335W        W53061  44.207  32.330   2.498
81336W        W53062   5.394  14.722   2.297
81337W        W53063  39.820  19.171   2.430
81338W        W53064  20.748  14.326   1.802
81339W        W53065  17.194   0.758  14.802
81340W        W53066  20.402  28.936   2.850
81341W        W53067  27.197  20.707   4.697
81342W        W53068  43.726   9.406  14.940
81343W        W53069  10.051  20.064   4.268
81344W        W53070  27.050   8.175  12.414
81345W        W53071  15.778  30.692  14.838
81346W        W53072  24.181  20.525  12.025
81347W        W53073  10.628   0.449   4.861
81348W        W53074  10.327  38.059  10.406
81349W        W53075   1.935   0.301  12.926
81350W        W53076  11.951   3.960   3.186
81351W        W53077  32.346  18.134  12.432
81352W        W53078  44.992   0.376   4.298
81353W        W53079  44.060  19.716   4.044
81354W        W53080  24.552  39.247  14.018
81355W        W53081  40.477  27.223   0.953
81356W        W53082  35.620  18.381  14.997
81357W        W53083  22.938   8.856  11.530
81358W        W53084  26.294  29.927  13.996
81359W        W53085  36.612  12.738  13.569
81360W        W53086  20.799  19.148   0.410
81361W        W53087   8.539  23.104  14.336
81362W        W53088  37.851  31.033  11.031
81363W        W53089  28.936  35.925   0.542
81364W        W53090  22.040  29.609  11.770
81365W        W53091   5.310  43.225   3.063
81366W        W53092  34.374  16.318  14.370
81367W        W53093  37.100  19.545  10.206
81368W        W53094   4.885  28.560  12.492
81369W        W53095  27.433  32.639   1.862
81370W        W53096  43.465  40.514   4.118
81371W        W53097   8.855  12.336   2.486
81372W        W53098  28.878  17.663   3.367
81373W        W53099  28.448  33.602   1.441
81374W        W53100  25.061  41.752  14.343
81375W        W53101  17.245   9.845   4.076
81376W        W53102  31.498   0.611   2.801
81377W        W53103  25.292  10.652   4.196
81378W        W53104  15.255  39.979   0.900
81379W        W53105   1.912  31.595   0.494
81380W        W53106  18.535  16.040   2.259
81381W        W53107  29.184  14.108   1.337
81382W        W53108  40.080  30.026   1.256
81383W        W53109  13.568   8.407  10.766
81384W        W53110  38.078  27.613  14.013
81385W        W53111  34.196   5.336   4.658
81386W        W53112  37.648  42.413   4.185
81387W        W53113   0.258   6.305  13.971
81388W        W53114  11.596  15.998   0.037
81389W        W53115   2.497  11.412  11.098
81390W        W53116  28.811  37.597   4.909
81391W        W53117  36.087   5.693  11.943
81392W        W53118   1.545   1.994   1.221
81393W        W53119  18.075  26.202  14.794
81394W        W53120  17.568   2.956   1.985
81395W        W53121   5.176  40.903  11.144
81396W        W53122  13.151  24.035  13.999
81397W        W53123  15.229  19.475   4.396
81398W        W53124  40.554  34.497  14.493
81399W        W53125  25.339   0.064   0.990
81400W        W53126  30.819  43.423   3.258
81401W        W53127  16.966  32.589  11.101
81402W        W53128   5.924  10.296  10.951
81403W        W53129  12.669  20.009  14.998
81404W        W53130  12.008  26.908   3.738
81405W        W53131   4.934  19.133   0.393
81406W        W53132  18.069  27.439  13.727
81407W        W53133  33.343  33.134   5.339
81408W        W53134  10.438  23.600  13.051
81409W        W53135   4.231  20.885  14.160
81410W        W53136   8.634  21.484  11.957
81411W        W53137  21.838  24.754   0.462
81412W        W53138   1.316  29.909   0.756
81413W        W53139  26.585   3.723  12.108
81414W        W53140  44.262  14.575  12.508
81415W        W53141  17.051   5.787  14.988
81416W        W53142  28.994  38.858  14.911
81417W        W53143  10.969   1.798  14.514
81418W        W53144   2.381  26.438  13.015
81419W        W53145  32.567  44.348   4.320
81420W        W53146   3.731  13.536   4.413
81421W        W53147  30.013  31.033  13.968
81422W        W53148  28.923   2.888  13.081
81423W        W53149  19.736  18.724   1.654
81424W        W53150   9.549  14.139  13.948
81425W        W53151  31.630  44.805   4.230
81426W        W53152  26.047  19.439  11.497
81427W        W53153  24.101  38.108   1.499
81428W        W53154  19.111  28.986   1.329
81429W        W53155  35.527  41.555  10.939
81430W        W53156  39.494   6.749  12.113
81431W        W53157  39.516  31.417   4.772
81432W        W53158  22.740  20.996  13.461
81433W        W53159  42.892   5.952  14.336
81434W        W53160  18.667  40.563  11.991
81435W        W53161  34.150  11.185  12.094
81436W        W53162  36.034  38.573   1.286
81437W        W53163  32.800  13.121  13.795
81438W        W53164  20.026  23.640  12.375
81439W        W53165   1.283  44.929  12.537
81440W        W53166  30.464  17.162   1.332
81441W        W53167   8.185  38.631   3.630
81442W        W53168   8.887   6.565  12.957
81443W        W53169  36.110  20.809  11.649
81444W        W53170  37.372  44.801   0.935
81445W        W53171   9.199  19.322  12.883
81446W        W53172  41.531  29.181   2.798
81447W        W53173  34.979  11.476   4.147
81448W        W53174   5.966  26.532  12.583
81449W        W53175  28.666   3.997   3.320
81450W        W53176   5.397  34.977  10.681
81451W        W53177  30.238  38.073   4.496
81452W        W53178  26.331   2.697  12.056
81453W        W53179  19.144   8.881  10.957
81454W        W53180  40.647  16.082   3.372
81455W        W53181  28.247  39.871  11.618
81456W        W53182  10.738  43.604   0.167
81457W        W53183   8.573  27.673   4.315
81458W        W53184  17.257   2.061  11.586
81459W        W53185   6.338  43.478  14.901
81460W        W53186  35.612  11.611  13.387
81461W        W53187   6.642  44.397  12.079
81462W        W53188  18.085  28.041  14.448
81463W        W53189  35.818  36.370   1.032
81464W        W53190  38.869  33.006  10.208
81465W        W53191  30.054  41.216  12.765
81466W        W53192  37.932  22.269   0.896
81467W        W53193  24.088  16.137  13.682
81468W        W53194   7.317  35.168  12.023
81469W        W53195  33.117  25.465   9.802
81470W        W53196  14.212  13.054  14.696
81471W        W53197   9.675  38.212  14.903
81472W        W53198  25.671  14.143   1.414
81473W        W53199   0.270   6.689  12.044
81474W        W53200  16.024  43.300   3.180
81475W        W53201  19.773  44.272  11.129
81476W        W53202   8.383  20.038   1.875
81477W        W53203  32.398  38.441  14.810
81478W        W53204  44.326  37.151  12.500
81479W        W53205  29.452  12.680  12.041
81480W        W53206  32.123  14.128   2.683
81481W        W53207   7.341  33.621   0.623
81482W        W53208  19.650  22.099  10.681
81483W        W53209  32.086   4.849   4.057
81484W        W53210  11.127   2.286  11.635
81485W        W53211  33.994   9.652   1.800
81486W        W53212  12.011  11.893   4.672
81487W        W53213   3.875  41.453  11.772
81488W        W53214  15.632  33.969   1.265
81489W        W53215   9.861  23.279  12.150
81490W        W53216   6.956  39.405  12.920
81491W        W53217   9.845  38.047  14.447
81492W        W53218  19.139  14.630   1.979
81493W        W53219  18.892  10.739   5.001
81494W        W53220  12.022  39.068  11.180
81495W        W53221   9.388  40.535  12.388
81496W        W53222  23.093   9.371  10.340
81497W        W53223   8.179  17.072   2.741
81498W        W53224  18.225  32.903  13.977
81499W        W53225  28.689  28.668  12.973
81500W        W53226   6.239  43.416  10.974
81501W        W53227  23.660  36.074  11.341
81502W        W53228  28.373  12.201   0.213
81503W        W53229   9.246  21.401  12.720
81504W        W53230  31.548   8.586   1.873
81505W        W53231  40.482  39.363   0.655
81506W        W53232  38.452   4.913   4.689
81507W        W53233   5.506  34.619   1.354
81508W        W53234  15.430   0.862   1.427
81509W        W53235   0.268   8.230  14.885
81510W        W53236  14.840  40.790   3.860
81511W        W53237  24.578  21.674  10.817
81512W        W53238  17.979   7.520  11.464
81513W        W53239  42.927  19.989  13.841
81514W        W53240  42.415   6.324   0.970
81515W        W53241  35.516  18.887  14.889
81516W        W53242   8.627  34.198   9.884
81517W        W53243  14.866  40.088  13.535
81518W        W53244   2.556  12.815  10.705
81519W        W53245  39.972   2.988  14.320
81520W        W53246  33.528   9.988  13.896
81521W        W53247  15.663  37.616   2.766
81522W        W53248  15.625  18.610   0.331
81523W        W53249   2.851  29.631   0.600
81524W        W53250  18.472  22.451   4.993
81525W        W53251  16.748  43.826   0.800
81526W        W53252  32.379  34.315  13.944
81527W        W53253  31.522   2.966   2.244
81528W        W53254   7.109  29.094   1.324
81529W        W53255  12.604  42.000   4.683
81530W        W53256  20.014  30.890   1.727
81531W        W53257   1.916  12.280   2.254
81532W        W53258  29.956  28.078  11.654
81533W        W53259  28.843  28.463  12.077
81534W        W53260  32.851   2.033  11.175
81535W        W53261  15.954  34.322   4.108
81536W        W53262  33.001   1.409   1.913
81537W        W53263   9.221   9.667   4.632
81538W        W53264  10.766  32.246   1.265
81539W        W53265  10.387   3.778   3.316
81540W        W53266  10.180  26.923   4.666
81541W        W53267  26.051   1.300   4.531
81542W        W53268  21.646  31.399  10.711
81543W        W53269   3.317  28.567  14.295
81544W        W53270  22.713  42.548  13.047
81545W        W53271  15.998   2.827  13.627
81546W        W53272  16.111  29.210  10.752
81547W        W53273  22.675  15.467   5.218
81548W        W53274  40.715  31.085   1.967
81549W        W53275  13.504  12.089   4.635
81550W        W53276  41.389  19.194   0.946
81551W        W53277  37.289   5.768   2.231
81552W        W53278  22.110  29.630  13.729
81553W        W53279  43.964  36.035   3.740
81554W        W53280  22.794  27.483  11.060
81555W        W53281  40.871  39.520   0.119
81556W        W53282  37.354  43.737   4.094
81557W        W53283  32.355  14.939  11.218
81558W        W53284  17.705  30.085  13.465
81559W        W53285  27.374  37.036   2.708
81560W        W53286  14.668  19.548   4.598
81561W        W53287  14.402  41.519  14.264
81562W        W53288  40.077   5.296   0.524
81563W        W53289   4.718  18.524  11.784
81564W        W53290   6.752   8.217   3.094
81565W        W53291   6.930   8.890   4.759
81566W        W53292  31.451  32.152   2.661
81567W        W53293  36.037   0.833   4.515
81568W        W53294  22.505  42.068   3.273
81569W        W53295  30.716   8.855  13.611
81570W        W53296  13.765  15.004   3.751
81571W        W53297  43.997  43.518   3.193
81572W        W53298  32.576  34.821   0.491
81573W        W53299  15.686  28.970  13.474
81574W        W53300  21.603   5.237   1.330
81575W        W53301  31.989  21.626  11.704
81576W        W53302  41.249  16.762  12.411
81577W        W53303  29.512  36.424   3.667
81578W        W53304  31.995  20.976   0.731
81579W        W53305  43.384  13.591   0.938
81580W        W53306  16.621  10.891  12.051
81581W        W53307  26.691  44.769  12.923
81582W        W53308  19.918  40.437   5.070
81583W        W53309   7.415  30.088  13.054
81584W        W53310  10.636  28.471   3.478
81585W        W53311  32.115   3.346   2.856
81586W        W53312   5.381  21.149   0.009
81587W        W53313  27.000  29.982   0.832
81588W        W53314  23.007  16.672   3.124
81589W        W53315   1.294   2.672  13.650
81590W        W53316  33.379  21.975   4.605
81591W        W53317  37.028   8.793  12.088
81592W        W53318   7.165  15.138   5.431
81593W        W53319   9.450  19.155   1.263
81594W        W53320  35.645  42.834   0.251
81595W        W53321  42.584  31.173  12.168
81596W        W53322  14.025   4.848  14.317
81597W        W53323  10.659   8.798   3.689
81598W        W53324   7.335   2.865  13.950
81599W        W53325  19.604  44.728   0.009
81600W        W53326   5.512  14.255   5.093
81601W        W53327  19.151  31.512   0.905
81602W        W53328  24.681  37.131   2.933
81603W        W53329   0.203   8.886  12.195
81604W        W53330  11.352  42.501   4.098
81605W        W53331  38.515  20.739  14.953
81606W        W53332  29.206  16.957  14.976
81607W        W53333   8.287  38.447   0.772
81608W        W53334  37.638  41.041  13.560
81609W        W53335  26.865  21.120  10.631
81610W        W53336  32.527  22.403   0.747
81611W        W53337  35.545  17.255  14.507
81612W        W53338   4.752  35.025   2.467
81613W        W53339  40.238  19.194   2.748
81614W        W53340  12.703  18.113  13.526
81615W        W53341  27.508  36.099   1.008
81616W        W53342  12.332  19.528  11.510
81617W        W53343  26.740  32.982  11.630
81618W        W53344  13.671  43.181   4.394
81619W        W53345  37.117  15.677  13.044
81620W        W53346  30.922  15.675   0.368
81621W        W53347  29.267  17.599   3.705
81622W        W53348  36.052  32.119  10.735
81623W        W53349  34.949  19.225   3.400
81624W        W53350   3.843  27.564   3.228
81625W        W53351  22.533  31.944  13.677
81626W        W53352  40.027  36.817  12.040
81627W        W53353  36.882  16.318  13.833
81628W        W53354  42.747  11.255  11.450
81629W        W53355  30.549  30.547   4.111
81630W        W53356   6.741  34.666   0.001
81631W        W53357  11.110  10.021  10.635
81632W        W53358  33.841  25.698   0.055
81633W        W53359  11.902  36.079   0.684
81634W        W53360  42.748  36.016  12.341
81635W        W53361  24.872  35.000   3.371
81636W        W53362  30.585  18.185  12.173
81637W        W53363  16.054  37.119   1.765
81638W        W53364  32.122  39.393  13.370
81639W        W53365  37.619  33.861  14.012
81640W        W53366   7.665  35.628   0.721
81641W        W53367   8.154  27.027  13.522
81642W        W53368  17.609   2.935  13.824
81643W        W53369  32.534  31.754  14.237
81644W        W53370  25.129  24.210   4.271
81645W        W53371  25.889  39.005   1.300
81646W        W53372  12.674   2.730   4.374
81647W        W53373  16.794  10.058   4.239
81648W        W53374  10.624  25.412  14.680
81649W        W53375  12.929  42.537   4.890
81650W        W53376   9.285  37.592   1.375
81651W        W53377  26.730  10.328  11.466
81652W        W53378  42.261  14.327  13.366
81653W        W53379   1.748  19.733  11.904
81654W        W53380  27.863  38.786  11.177
81655W        W53381  42.067  31.184  10.569
81656W        W53382  25.282  32.151  14.529
81657W        W53383  34.433  28.590   4.678
81658W        W53384   3.718  24.517  13.315
81659W        W53385  41.533  34.537  11.645
81660W        W53386  27.378  33.425  10.136
81661W        W53387  25.041  40.336   0.749
81662W        W53388  40.835  30.992   3.458
81663W        W53389  24.748   8.398   2.011
81664W        W53390   5.001   4.996   2.378
81665W        W53391  19.503  38.533   2.022
81666W        W53392  35.079  35.353  12.451
81667W        W53393  28.627  41.806   1.663
81668W        W53394  44.241  11.152   3.743
81669W        W53395  34.901   8.333   2.892
81670W        W53396  22.471  14.727  14.964
81671W        W53397  28.994  24.624   2.007
81672W        W53398  43.433   5.357  13.228
81673W        W53399  14.608  21.020  12.274
81674W        W53400  24.343  30.986  13.579
81675W        W53401  28.518  37.209  11.472
81676W        W53402  35.357  42.539   1.309
81677W        W53403  16.740  17.727   4.772
81678W        W53404  37.393   2.404  14.275
81679W        W53405  17.225  15.256  13.952
81680W        W53406  17.729  21.772  14.449
81681W        W53407  21.795   0.917  12.517
81682W        W53408   9.867   6.597   0.698
81683W        W53409  31.890  27.713   5.165
81684W        W53410  37.901  13.376  10.693
81685W        W53411  38.416  31.932  11.673
81686W        W53412  24.552  23.510  12.635
81687W        W53413  37.942  33.009   4.947
81688W        W53414  40.622  13.319  11.198
81689W        W53415  31.969  12.565  11.425
81690W        W53416  18.269  27.444   2.621
81691W        W53417  37.545  34.153   2.302
81692W        W53418  38.807   0.507   1.692
81693W        W53419  27.558  39.306   3.675
81694W        W53420  43.225  33.947   0.005
81695W        W53421   4.545  10.164  14.243
81696W        W53422   1.748  43.268  10.606
81697W        W53423  18.715  39.069  12.180
81698W        W53424   7.380   6.771   0.499
81699W        W53425  41.071   6.127  14.252
81700W        W53426   2.795  20.152  12.580
81701W        W53427  19.430  43.986   3.205
81702W        W53428  37.461   0.430  12.109
81703W        W53429  13.722   5.122  11.378
81704W        W53430  24.936  33.964   0.778
81705W        W53431  39.805  41.524   3.069
81706W        W53432  23.774   7.296   1.558
81707W        W53433  38.860   4.632   2.369
81708W        W53434  23.145  44.280   4.165
81709W        W53435  41.856  38.584   3.874
81710W        W53436  32.502  43.983   2.833
81711W        W53437  24.276  14.429   1.463
81712W        W53438  24.667  28.817  12.399
81713W        W53439   8.840  29.448   4.723
81714W        W53440   6.390   4.517  13.891
81715W        W53441   7.838  24.558  11.472
81716W        W53442  29.763  42.961  12.910
81717W        W53443   5.142   9.847   4.189
81718W        W53444  16.671  29.451  11.893
81719W        W53445  25.698  13.107   0.455
81720W        W53446  35.299  23.486  11.886
81721W        W53447  22.589  37.592  13.780
81722W        W53448   1.801  29.633   1.879
81723W        W53449   9.662  35.425   3.658
81724W        W53450   4.700   4.972  13.506
81725W        W53451  36.512  35.180   0.755
81726W        W53452  21.443  16.925  13.612
81727W        W53453  10.384  40.908   1.789
81728W        W53454  13.917  14.403  10.921
81729W        W53455  31.174  23.388   2.859
81730W        W53456  37.961  31.841  10.438
81731W        W53457   5.320  26.376  11.448
81732W        W53458  33.892  38.933  12.123
81733W        W53459  44.731  40.888  13.057
81734W        W53460   7.679  19.040   1.862
81735W        W53461  38.048  18.280   1.981
81736W        W53462  14.570  22.718   2.746
81737W        W53463  24.585  28.235  11.120
81738W        W53464  38.154  13.526  11.125
81739W        W53465  42.065  23.682   4.776
81740W        W53466  44.866  12.282  13.416
81741W        W53467  40.778  22.585  12.400
81742W        W53468  14.688  15.012   4.638
81743W        W53469   8.955  16.778   0.793
81744W        W53470  35.228  22.170  14.865
81745W        W53471   8.483   2.094   1.468
81746W        W53472  44.838  37.605   3.285
81747W        W53473  42.892  30.619   4.356
81748W        W53474  16.518   5.682  13.063
81749W        W53475   5.793  34.058  14.693
81750W        W53476  38.478   1.906  11.660
81751W        W53477  41.494  44.482  13.132
81752W        W53478  38.796  33.642  12.276
81753W        W53479   8.683  40.071  11.144
81754W        W53480  32.540  29.711  10.668
81755W        W53481  14.085  31.027   4.501
81756W        W53482  38.024  16.253  11.217
81757W        W53483  18.524  17.812   0.321
81758W        W53484  12.267  27.740   3.370
81759W        W53485  34.156  18.821  13.899
81760W        W53486  15.780  27.674  14.860
81761W        W53487  31.561  10.000   2.894
81762W        W53488   1.768   1.760  12.726
81763W        W53489   6.476  38.523   1.683
81764W        W53490  26.569  39.853  10.828
81765W        W53491  37.583  18.838   0.343
81766W        W53492  11.968  22.454  13.979
81767W        W53493  19.455  44.491   3.397
81768W        W53494  40.369   3.995   1.792
81769W        W53495  30.389  21.356   2.029
81770W        W53496  19.984  38.350   1.809
81771W        W53497  42.364  16.298   1.429
81772W        W53498   6.721  27.744   1.224
81773W        W53499  43.959  40.552  10.589
81774W        W53500  23.089  14.937   4.550
81775W        W53501   5.804  17.114   4.085
81776W        W53502  20.477  21.751   2.712
81777W        W53503  32.992   8.312   0.539
81778W        W53504   5.495  12.128  13.162
81779W        W53505   5.943  38.494  14.936
81780W        W53506  37.286   8.091   2.382
81781W        W53507  31.173  42.097   1.193
81782W        W53508  18.686  21.716   2.407
81783W        W53509   0.805  28.609   1.862
81784W        W53510  38.345   2.767   4.735
81785W        W53511  20.145  17.779  12.074
81786W        W53512  14.614  10.281  11.422
81787W        W53513  25.089  41.429   0.784
81788W        W53514  26.850  18.167   1.320
81789W        W53515  35.857  40.439  12.079
81790W        W53516   3.912  16.181  11.236
81791W        W53517  22.552  21.890   1.807
81792W        W53518  40.463  44.200   3.734
81793W        W53519  24.062  17.516   3.596
81794W        W53520  20.275  25.951  13.583
81795W        W53521   5.659   7.969  10.576
81796W        W53522  14.552  16.149  12.339
81797W        W53523   9.799  44.925  13.006
81798W        W53524   7.699  21.420   4.974
81799W        W53525  41.441  21.017   2.743
81800W        W53526  29.893   1.689   3.322
81801W        W53527  13.702   2.797   0.013
81802W        W53528   5.887  16.491  14.467
81803W        W53529  10.299  17.860   1.212
81804W        W53530   4.259  14.679   4.741
81805W        W53531  22.594   9.206   2.285
81806W        W53532  34.121   4.254  14.377
81807W        W53533  14.522  14.831  11.648
81808W        W53534   8.774  20.853   4.142
81809W        W53535  20.895  21.322   1.904
81810W        W53536   4.840  25.743   1.878
81811W        W53537  27.611  43.987  12.013
81812W        W53538  34.521  23.806   4.109
81813W        W53539  12.183  35.867  14.785
81814W        W53540  18.144  13.051  12.968
81815W        W53541  25.561  21.657   0.771
81816W        W53542  28.225  43.069  14.828
81817W        W53543  44.419  17.045  11.345
81818W        W53544  20.793   7.589  11.601
81819W        W53545   6.325  32.972   4.567
81820W        W53546  22.789  26.047   5.086
81821W        W53547  43.420  30.796   0.379
81822W        W53548  38.925  43.074  10.262
81823W        W53549   9.137  37.086   2.735
81824W        W53550   4.291  29.342   4.916
81825W        W53551  41.462  19.581   1.320
81826W        W53552  10.201   3.744   2.366
81827W        W53553  13.259  29.940   4.221
81828W        W53554  33.618   3.511   4.728
81829W        W53555  37.407  11.213  10.943
81830W        W53556  29.486  38.162   0.855
81831W        W53557  33.641   6.387   0.837
81832W        W53558  24.536  43.577  10.520
81833W        W53559  30.856  26.666   9.750
81834W        W53560  15.310  36.602   4.763
81835W        W53561  10.320   0.675  12.993
81836W        W53562  19.714   6.806   4.094
81837W        W53563   5.945  38.080   4.288
81838W        W53564  25.885  31.058   1.349
81839W        W53565   7.708  35.286   2.692
81840W        W53566   5.920  13.402   0.853
81841W        W53567  12.842  21.045   4.035
81842W        W53568  30.420  41.883  13.286
81843W        W53569   4.237  42.577  11.023
81844W        W53570  14.644   0.829   1.232
81845W        W53571  33.314  24.783  14.953
81846W        W53572  30.324  25.986  14.046
81847W        W53573  35.648  21.292   3.066
81848W        W53574  39.444  23.270   1.416
81849W        W53575  38.954  25.896   4.698
81850W        W53576  26.071  29.728   1.402
81851W        W53577   2.800  29.924  12.110
81852W        W53578  21.087  17.211   2.173
81853W        W53579   2.696   3.424   0.489
81854W        W53580  37.900  21.478   3.675
81855W        W53581  39.653  22.737   2.006
81856W        W53582  28.465  28.593   4.731
81857W        W53583   5.664  10.721   2.765
81858W        W53584  20.245   0.801   1.794
81859W        W53585  21.243   0.926   4.405
81860W        W53586  43.463  44.530   4.195
81861W        W53587  22.979  11.478   4.310
81862W        W53588  23.635  34.896  14.696
81863W        W53589  22.779   8.449   0.388
81864W        W53590  35.494   1.052   1.800
81865W        W53591  41.822  26.377  14.921
81866W        W53592  41.727  32.623  10.969
81867W        W53593  16.746  30.550   0.485
81868W        W53594  22.563  12.652   3.335
81869W        W53595  18.257  44.192  11.065
81870W        W53596  10.028  28.242   4.210
81871W        W53597  44.610  15.564   1.244
81872W        W53598  32.089  29.862   4.729
81873W        W53599  28.020   5.028  11.480
81874W        W53600  14.218  18.774   0.326
81875W        W53601   9.176  36.660   1.313
81876W        W53602  33.908  28.497   4.688
81877W        W53603   8.865  25.538   4.677
81878W        W53604  16.994  39.010   1.320
81879W        W53605  36.382  29.276   0.227
81880W        W53606   9.892  26.511  13.120
81881W        W53607  10.256  27.249  11.616
81882W        W53608  13.468   1.800  11.360
81883W        W53609  29.478   8.052   4.879
81884W        W53610  22.624  20.192  11.222
81885W        W53611  39.579  38.298   4.944
81886W        W53612   6.429  12.682   1.931
81887W        W53613  12.838  35.688   2.580
81888W        W53614  15.367  10.721   1.350
81889W        W53615  30.107  26.581   4.609
81890W        W53616  21.195  25.042  13.973
81891W        W53617   8.215   8.966  14.477
81892W        W53618  16.239  32.717  14.400
81893W        W53619  40.809  11.300  13.380
81894W        W53620  21.315  38.545   2.904
81895W        W53621  18.743   4.473  13.277
81896W        W53622  32.168  22.980  11.085
81897W        W53623  31.672   3.686  13.386
81898W        W53624   1.199  21.037  12.126
81899W        W53625  43.390  43.766   3.677
81900W        W53626  17.595  37.141  13.443
81901W        W53627  18.793  31.442  11.592
81902W        W53628   7.551   7.365   5.005
81903W        W53629   5.718  42.803   3.699
81904W        W53630  36.649  12.787  10.773
81905W        W53631  22.713  22.187  11.002
81906W        W53632  27.613  24.970   3.675
81907W        W53633   5.884   4.227  11.459
81908W        W53634   5.805   3.808   1.263
81909W        W53635  32.468  40.037  10.758
81910W        W53636  20.736  43.010  13.803
81911W        W53637  35.841  14.599  14.140
81912W        W53638  27.971   8.315   2.741
81913W        W53639  27.662  28.166  11.676
81914W        W53640  19.053  10.851  11.568
81915W        W53641  37.820  13.380  12.978
81916W        W53642  19.057  26.950   3.229
81917W        W53643  41.572  44.927   4.569
81918W        W53644  10.106  38.253   1.079
81919W        W53645  24.243   5.712   4.015
81920W        W53646  22.228  21.267   2.234
81921W        W53647   1.929  22.242  11.098
81922W        W53648  44.275  34.400  12.145
81923W        W53649  14.020   2.634   4.155
81924W        W53650  25.020  24.034  14.947
81925W        W53651   5.211  32.440  10.957
81926W        W53652  22.474  20.136   2.760
81927W        W53653  24.461  14.729  11.999
81928W        W53654  42.472  27.107  14.969
81929W        W53655  40.358  11.421   2.813
81930W        W53656  33.563  43.889   3.155
81931W        W53657  28.341  23.974  11.109
81932W        W53658  28.593  43.701  11.909
81933W        W53659  18.629  21.087   0.799
81934W        W53660  33.966   5.636  13.002
81935W        W53661   3.203   4.442   1.720
81936W        W53662  44.530  27.477  11.673
81937W        W53663  30.093  37.074  14.910
81938W        W53664  12.947  20.065   4.392
81939W        W53665  13.131  23.604   0.299
81940W        W53666  23.645   9.916   4.575
81941W        W53667  17.712  16.706   3.334
81942W        W53668  35.103  26.187  10.654
81943W        W53669  27.060  21.130  14.897
81944W        W53670   2.722  24.746   1.915
81945W        W53671   6.840  25.051   2.534
81946W        W53672  44.840  38.594   2.253
81947W        W53673   0.965  23.457  11.992
81948W        W53674  24.978  23.813   2.248
81949W        W53675   3.470   2.659   1.100
81950W        W53676  27.471  19.549  12.131
81951W        W53677  42.205  19.615  10.975
81952W        W53678  11.293  35.903  13.897
81953W        W53679  43.225  34.420  13.349
81954W        W53680  28.904  12.627   1.669
81955W        W53681  34.361  31.295   3.760
81956W        W53682  41.527  18.145  13.843
81957W        W53683  16.903  24.388   3.373
81958W        W53684   6.895  41.470  14.107
81959W        W53685  25.469  16.196  12.024
81960W        W53686  13.630  18.269  14.857
81961W        W53687  29.438  32.706   2.829
81962W        W53688   5.856  29.690  11.987
81963W        W53689  27.973  20.927   0.770
81964W        W53690   9.323  11.424  13.504
81965W        W53691   1.709   9.730  12.792
81966W        W53692  30.547  30.399   2.521
81967W        W53693  37.322   9.819  11.487
81968W        W53694   9.221  36.499   2.333
81969W        W53695  21.183  30.358   1.402
81970W        W53696  37.937   7.265   3.547
81971W        W53697  18.595  18.094   1.717
81972W        W53698  16.391  34.651  11.577
81973W        W53699   0.144  39.503   4.074
81974W        W53700  10.183  33.657  14.396
81975W        W53701   8.681  18.847  10.896
81976W        W53702  19.333  33.786   2.203
81977W        W53703  16.741   6.630   2.744
81978W        W53704  14.411  34.305   4.134
81979W        W53705  23.064  21.499   3.638
81980W        W53706  33.036  34.151   2.851
81981W        W53707  39.447  22.113  13.933
81982W        W53708   4.149  40.420  11.650
81983W        W53709  18.379   5.232  11.471
81984W        W53710  34.646  29.456  11.418
81985W        W53711  38.119  42.976   1.677
81986W        W53712  36.393  28.578  13.499
81987W        W53713  29.879   6.175  11.519
81988W        W53714   4.000  17.133  12.385
81989W        W53715  31.665  44.476  10.092
81990W        W53716  43.138  43.848  14.557
81991W        W53717  41.687  26.192  14.436
81992W        W53718  31.393  13.635   0.398
81993W        W53719  14.242  28.991   0.431
81994W        W53720  23.571   0.086   2.701
81995W        W53721  10.311   3.085   0.287
81996W        W53722  36.411  18.194   5.184
81997W        W53723  35.894  38.100   0.342
81998W        W53724  40.803  36.498   3.314
81999W        W53725   4.652  28.639   0.675
82000W        W53726  34.015  18.031   2.506
82001W        W53727  28.133  43.991   4.742
82002W        W53728   6.507   1.507   2.677
82003W        W53729  42.157   8.609   2.338
82004W        W53730   9.926  26.539   2.747
82005W        W53731  40.942  15.122  12.552
82006W        W53732   9.869   6.583  11.926
82007W        W53733  36.538  26.132  13.416
82008W        W53734  29.181  36.569   0.342
82009W        W53735  38.110  12.050  14.010
82010W        W53736  21.591  30.481   4.190
82011W        W53737  39.310   2.909  13.113
82012W        W53738  29.024  30.368  14.419
82013W        W53739  33.525  28.868   1.809
82014W        W53740  30.903  40.305  12.913
82015W        W53741   5.679  22.200   2.209
82016W        W53742  17.976   2.637   0.837
82017W        W53743   3.531  10.325  14.364
82018W        W53744  13.318  17.064  10.729
82019W        W53745  35.818  34.014  14.109
82020W        W53746  13.676  34.181  14.474
82021W        W53747   9.199   2.228   2.414
82022W        W53748  16.996  15.426  14.384
82023W        W53749   4.275  27.744  11.334
82024W        W53750  35.885  14.055   4.013
82025W        W53751  13.697  25.172   0.023
82026W        W53752  28.468  34.564  10.755
82027W        W53753  34.471  10.341  12.257
82028W        W53754  32.090   7.843   2.354
82029W        W53755  39.382   1.939   1.956
82030W        W53756  27.998  22.561  11.008
82031W        W53757  26.837  30.404  11.512
82032W        W53758   3.810  32.614   3.333
82033W        W53759  29.934  38.518  14.395
82034W        W53760  40.601  44.804  13.895
82035W        W53761  26.757  21.128   0.548
82036W        W53762  34.949  42.981  13.885
82037W        W53763  34.034  14.555  11.602
82038W        W53764  21.300   0.995  11.169
82039W        W53765   3.486  29.097   1.812
82040W        W53766  21.511  21.220  12.629
82041W        W53767   3.334  39.991  12.397
82042W        W53768  26.744  28.120  12.902
82043W        W53769  16.854  29.193  13.949
82044W        W53770   4.430  41.324  11.597
82045W        W53771  38.013   4.931  11.596
82046W        W53772  17.791  28.070   0.160
82047W        W53773  12.627  42.981  14.802
82048W        W53774  16.195  33.007  12.000
82049W        W53775  18.126   7.363  13.863
82050W        W53776  29.569  15.572  14.881
82051W        W53777  33.167   5.434   0.774
82052W        W53778  14.266   0.439  13.500
82053W        W53779  24.418  39.826  11.987
82054W        W53780  17.488  35.930   1.789
82055W        W53781   4.426  30.132   1.517
82056W        W53782  38.360  12.835   1.656
82057W        W53783  26.168  33.321   4.082
82058W        W53784  43.583  34.098  12.184
82059W        W53785  15.395  25.235  11.964
82060W        W53786  24.984  43.181  12.095
82061W        W53787  17.123  22.629   0.167
82062W        W53788  18.988  35.888   1.664
82063W        W53789  18.457   5.685   1.905
82064W        W53790  32.894  21.755  11.173
82065W        W53791  17.624   6.458   4.128
82066W        W53792  31.821  23.527   4.643
82067W        W53793  21.672  11.153   0.934
82068W        W53794  32.657  33.964  13.462
82069W        W53795  18.112   6.301   4.435
82070W        W53796  39.112  37.606  14.434
82071W        W53797  21.183  10.679  12.040
82072W        W53798  23.102  27.450  10.146
82073W        W53799  42.885  39.486   3.342
82074W        W53800  37.503  30.606   3.766
82075W        W53801  11.744  40.774  13.868
82076W        W53802  25.730  18.573   4.343
82077W        W53803  11.605  31.941   2.916
82078W        W53804  21.882   9.081   2.756
82079W        W53805  21.164  15.782   3.367
82080W        W53806  24.665  38.032  14.441
82081W        W53807  29.425  16.887   3.180
82082W        W53808  43.415   8.737   0.766
82083W        W53809  10.522  34.635  11.848
82084W        W53810  17.349  10.290  14.667
82085W        W53811  28.418  43.691  13.464
82086W        W53812  17.166  34.573  12.915
82087W        W53813  10.543  37.207   4.513
82088W        W53814  30.963  18.255  13.331
82089W        W53815  28.953   3.242  14.346
82090W        W53816  15.902  26.945  14.616
82091W        W53817   8.733  28.988   1.008
82092W        W53818   5.220  30.686  12.378
82093W        W53819  38.358   7.556   3.333
82094W        W53820  36.426  31.373  11.530
82095W        W53821  28.535  10.295  13.071
82096W        W53822   1.806  17.155   0.879
82097W        W53823  32.677  23.069  12.952
82098W        W53824   8.952  23.819  14.782
82099W        W53825   2.683  33.548  13.098
82100W        W53826  22.261   8.433  14.487
82101W        W53827   4.433  32.894  10.347
82102W        W53828  34.131  25.237  11.516
82103W        W53829  44.014   8.221   4.326
82104W        W53830   1.187  33.804   3.743
82105W        W53831  17.173  16.850  13.003
82106W        W53832  15.185  20.174   1.305
82107W        W53833   8.854  30.166   3.346
82108W        W53834   7.205  39.429   0.691
82109W        W53835   3.671  25.977  12.994
82110W        W53836  39.182  24.170   5.101
82111W        W53837  17.967  28.702  14.858
82112W        W53838  44.048  19.448   3.314
82113W        W53839  11.566  36.362  12.635
82114W        W53840  11.489  14.723   3.279
82115W        W53841  27.658   7.664   3.744
82116W        W53842  25.254  13.072  13.091
82117W        W53843  22.287  27.231   2.689
82118W        W53844  38.016   8.616   3.737
82119W        W53845  41.265  14.788   4.163
82120W        W53846  27.754  16.104   1.740
82121W        W53847  25.645  16.670   1.477
82122W        W53848   4.356  32.776   0.090
82123W        W53849  15.061  42.704  13.727
82124W        W53850  27.634   7.533   3.224
82125W        W53851  35.814  11.695   1.280
82126W        W53852  44.420  32.040  10.867
82127W        W53853  41.379  38.311  11.958
82128W        W53854  20.730  26.339   1.330
82129W        W53855  29.350  16.694  11.487
82130W        W53856  14.561  29.441  12.405
82131W        W53857  35.231  19.696   3.286
82132W        W53858  27.577  39.509  11.821
82133W        W53859  11.317  30.401   3.197
82134W        W53860  24.553   3.239   1.612
82135W        W53861  42.470  41.320   3.332
82136W        W53862  43.062  35.396  10.644
82137W        W53863  44.615  13.140  11.433
82138W        W53864  35.785  25.084   2.812
82139W        W53865   3.270  18.353   2.275
82140W        W53866  13.169  16.357  11.866
82141W        W53867  21.530  12.070  14.930
82142W        W53868  17.194  18.466   1.930
82143W        W53869  20.061  18.236   0.798
82144W        W53870  38.057   7.315  10.600
82145W        W53871  28.732  23.344   4.158
82146W        W53872  26.288  22.917  14.523
82147W        W53873   8.231   7.635   3.159
82148W        W53874  27.998  33.830  11.389
82149W        W53875  43.420  22.159   4.316
82150W        W53876   1.811  37.089   0.588
82151W        W53877  30.999  31.690   4.625
82152W        W53878  18.616  26.223   0.545
82153W        W53879  43.969  40.469   4.323
82154W        W53880  13.204  15.881  11.390
82155W        W53881  38.084  34.784  14.397
82156W        W53882  36.482  37.647  10.554
82157W        W53883  12.448   2.266   0.979
82158W        W53884  17.654  21.231   1.887
82159W        W53885   7.232  43.724  12.979
82160W        W53886  43.290   0.655   3.262
82161W        W53887  28.155  10.616   1.890
82162W        W53888   9.941  12.121  13.521
82163W        W53889   6.684  26.837  13.531
82164W        W53890  22.083   5.175   1.114
82165W        W53891  27.600  32.625   2.881
82166W        W53892   2.896  30.727   3.291
82167W        W53893  24.053  13.628  14.914
82168W        W53894  34.189   3.168   0.959
82169W        W53895  14.456  13.081   0.166
82170W        W53896  43.687   8.211  14.890
82171W        W53897   4.277   8.377  12.477
82172W        W53898  22.584  28.404  13.340
82173W        W53899  40.056  13.237   2.333
82174W        W53900  27.131  11.905  13.573
82175W        W53901   4.041  32.191  12.599
82176W        W53902  24.141   0.928   1.026
82177W        W53903  34.351   1.611  13.560
82178W        W53904  35.466  39.701   1.643
82179W        W53905   9.826  25.671   4.585
82180W        W53906  20.702   3.136  14.812
82181W        W53907  13.321  38.012   0.889
82182W        W53908  35.279  12.103  10.664
82183W        W53909  14.757   1.224   0.902
82184W        W53910  27.602   2.916  13.546
82185W        W53911   3.460  35.909  11.470
82186W        W53912  35.894  42.267  12.386
82187W        W53913  19.529  41.975   0.788
82188W        W53914  22.634   6.451   0.236
82189W        W53915  20.263  36.977  14.822
82190W        W53916  23.716  15.794   3.714
82191W        W53917   5.277  15.741   1.403
82192W        W53918  16.221  26.770  11.586
82193W        W53919  16.857  21.766   2.223
82194W        W53920   4.607  37.096  12.554
82195W        W53921  18.073  38.191   0.578
82196W        W53922  44.746  10.356  12.402
82197W        W53923   5.064   5.827   1.264
82198W        W53924  44.471  19.786   1.260
82199W        W53925  18.616  30.973  11.530
82200W        W53926  31.341  12.803   3.369
82201W        W53927  27.072  36.367   3.981
82202W        W53928   8.461   6.634   3.609
82203W        W53929  28.918  32.626  11.879
82204W        W53930  35.419  39.722   4.832
82205W        W53931  34.074   9.420   1.253
82206W        W53932  32.480  39.149  14.325
82207W        W53933  24.994  42.597  12.055
82208W        W53934  11.234   4.272   0.435
82209W        W53935  44.053  41.945   4.645
82210W        W53936   7.213  24.037   4.456
82211W        W53937   0.864   3.730   2.648
82212W        W53938  33.158  24.782   4.089
82213W        W53939  33.030  11.368  12.636
82214W        W53940  14.228   2.256  14.441
82215W        W53941  41.878  40.564   3.293
82216W        W53942   1.612   4.432   4.800
82217W        W53943  44.510  24.781  12.937
82218W        W53944  27.549   6.296  13.637
82219W        W53945  40.392   0.443  14.500
82220W        W53946  25.148  11.645   3.600
82221W        W53947  23.528  15.138  13.516
82222W        W53948  25.017   0.027  13.784
82223W        W53949  35.539  16.225   4.526
82224W        W53950  14.225  12.703   4.144
82225W        W53951  39.585  23.756   0.478
82226W        W53952  19.696   5.934  12.027
82227W        W53953  34.762  28.654   3.180
82228W        W53954  44.927  41.954   1.972
82229W        W53955  27.652   1.121   5.032
82230W        W53956  23.119  21.763   3.178
82231W        W53957   9.724  36.926  10.180
82232W        W53958  36.882  16.345   3.491
82233W        W53959  23.434  33.859  13.903
82234W        W53960  10.091  44.286  13.326
82235W        W53961   2.254  12.819  11.130
82236W        W53962  11.218  34.424  13.834
82237W        W53963   3.717  19.299  13.411
82238W        W53964  37.000  40.031   1.402
82239W        W53965   1.894  25.461  14.030
82240W        W53966  27.246   7.230   1.892
82241W        W53967  26.054  27.514   3.083
82242W        W53968  32.556  14.678  11.631
82243W        W53969   9.332  10.744  14.898
82244W        W53970  26.968  33.989   1.342
82245W        W53971  23.659  10.911   4.631
82246W        W53972  14.700   1.456   4.380
82247W        W53973  31.532   9.091   5.194
82248W        W53974  44.936  42.368   0.047
82249W        W53975  35.480  39.408  11.480
82250W        W53976  13.583  15.314  12.555
82251W        W53977  25.963  20.828  14.433
82252W        W53978   3.652   1.177   4.582
82253W        W53979  40.519  18.297   2.649
82254W        W53980  17.763  23.122  11.646
82255W        W53981  21.631  13.131  14.695
82256W        W53982   8.402   8.897   0.719
82257W        W53983  41.284   3.785  11.448
82258W        W53984  40.468  23.433   2.277
82259W        W53985  40.515  36.027  13.773
82260W        W53986  16.843  22.490  12.025
82261W        W53987  26.404  27.551  13.922
82262W        W53988  14.862  17.699   0.014
82263W        W53989  24.822  43.802   1.416
82264W        W53990  22.997  26.317  12.579
82265W        W53991   9.416   6.428  12.979
82266W        W53992  16.117  35.033  10.680
82267W        W53993  31.069  26.496   2.852
82268W        W53994  17.847  38.945   4.633
82269W        W53995  10.837  41.456   1.391
82270W        W53996  23.165  27.658  12.054
82271W        W53997  11.542  20.658  13.916
82272W        W53998  44.286   6.272  13.049
82273W        W53999  23.180  37.854  11.654
82274W        W54000  42.262   0.363  13.436
82275W        W54001  26.589  11.571  12.944
82276W        W54002  42.404  23.798  12.069
82277W        W54003  10.809   8.929  12.582
82278W        W54004  34.283   0.031  11.715
82279W        W54005  15.043  19.115  13.273
82280W        W54006  30.157   0.129   1.862
82281W        W54007  10.802  22.730   4.685
82282W        W54008  31.340  24.214   4.255
82283W        W54009  18.706  26.091   1.053
82284W        W54010  44.853  10.364  11.636
82285W        W54011  38.358  28.547  13.265
82286W        W54012  29.474  14.552   2.775
82287W        W54013  17.770  20.244  11.124
82288W        W54014   6.914   5.285  13.796
82289W        W54015   5.053   2.867  11.545
82290W        W54016   2.376  43.322  12.244
82291W        W54017  37.395  35.276   0.453
82292W        W54018  13.647  32.145   2.859
82293W        W54019  22.340  22.288   2.267
82294W        W54020   1.835  27.825   5.116
82295W        W54021  31.526  17.613  11.669
82296W        W54022  31.879  28.402   1.156
82297W        W54023  39.438  34.804  11.651
82298W        W54024  32.327   1.946   3.321
82299W        W54025  30.571  36.732   4.141
82300W        W54026  38.791  36.366   0.489
82301W        W54027  23.593  12.075  13.543
82302W        W54028  24.158  41.439  13.815
82303W        W54029  33.877  40.925   1.037
82304W        W54030  32.603   4.231   4.118
82305W        W54031  24.511  40.969   3.658
82306W        W54032  15.291  11.698  11.653
82307W        W54033  34.993  19.712  10.274
82308W        W54034  34.006  15.835  11.121
82309W        W54035  43.331  28.617   3.660
82310W        W54036   8.771  19.737  14.365
82311W        W54037  19.139   1.805   0.439
82312W        W54038  34.780  13.754  11.945
82313W        W54039   1.786  30.632   1.737
82314W        W54040   6.859  15.217   5.011
82315W        W54041  35.875  25.001  13.834
82316W        W54042  42.533  18.278  12.826
82317W        W54043  28.417  14.161   3.809
82318W        W54044  42.864  15.958   5.146
82319W        W54045  26.674  17.834  12.860
82320W        W54046  31.468  19.109   1.353
82321W        W54047  28.936  12.869  14.282
82322W        W54048   5.690   5.337   2.345
82323W        W54049  11.831  32.859   0.580
82324W        W54050  10.234  21.524  12.670
82325W        W54051  22.600  13.193   4.540
82326W        W54052  18.267  20.255   2.393
82327W        W54053  23.187  22.940  11.994
82328W        W54054  22.265  22.649   1.249
82329W        W54055   6.682  19.872   3.422
82330W        W54056   6.709   0.510   2.787
82331W        W54057  23.424  26.959   0.719
82332W        W54058  37.068  17.669  12.048
82333W        W54059  30.707  43.222   2.804
82334W        W54060  31.411  16.216  14.828
82335W        W54061   9.261  44.254   0.875
82336W        W54062   2.787  39.590  10.663
82337W        W54063  17.441  25.720   2.272
82338W        W54064  34.817  35.795  12.378
82339W        W54065  16.136  20.135   3.223
82340W        W54066  15.771  34.627  14.231
82341W        W54067  25.138   0.406   1.357
82342W        W54068   6.889  17.798  11.845
82343W        W54069  26.357   5.804  11.843
82344W        W54070  44.429  41.272   0.353
82345W        W54071  17.869  16.191   0.834
82346W        W54072  16.749  32.647  12.032
82347W        W54073  22.460  36.426   0.408
82348W        W54074   0.525   8.114   4.948
82349W        W54075  32.366  34.005  11.600
82350W        W54076  33.542   3.480  12.849
82351W        W54077   0.039   3.753  13.308
82352W        W54078  34.839  13.531  11.477
82353W        W54079  20.692  29.085  10.536
82354W        W54080  36.769  25.121  13.596
82355W        W54081   9.237  23.308  12.916
82356W        W54082  33.646  37.478  11.241
82357W        W54083  42.872  28.509   0.056
82358W        W54084  33.163  26.161   4.018
82359W        W54085   5.209  20.459  11.166
82360W        W54086   0.451   8.770   2.379
82361W        W54087  17.675  33.597   0.238
82362W        W54088  42.904  12.812   0.015
82363W        W54089  38.796  28.471   0.882
82364W        W54090  32.834  20.894  14.270
82365W        W54091  43.544  42.801   0.096
82366W        W54092   5.393  31.401   1.319
82367W        W54093  17.696   8.853   0.747
82368W        W54094  20.792   9.869  14.418
82369W        W54095  16.017  26.678  11.109
82370W        W54096   0.416  28.171   2.757
82371W        W54097  40.605  43.472  11.252
82372W        W54098  26.421  21.911  10.330
82373W        W54099  14.851  34.436   1.312
82374W        W54100  11.289  20.720  11.946
82375W        W54101  29.551  18.486   1.734
82376W        W54102   6.169  13.157  14.453
82377W        W54103  21.506  40.394  11.609
82378W        W54104  36.373   1.544   0.821
82379W        W54105   7.558  42.972   4.552
82380W        W54106  42.354  25.490   0.184
82381W        W54107  27.151  28.789   1.656
82382W        W54108   8.449  30.107   3.040
82383W        W54109  31.968  12.547  11.932
82384W        W54110  14.229  26.566  10.011
82385W        W54111  43.596  18.250   5.030
82386W        W54112  14.184  23.053  11.209
82387W        W54113  11.269  25.089  12.078
82388W        W54114  21.545   9.303   1.840
82389W        W54115  13.680  24.606  13.357
82390W        W54116   8.205  31.821  13.900
82391W        W54117  41.355   8.184  11.956
82392W        W54118  35.832   5.739  10.702
82393W        W54119  38.372  18.181   1.320
82394W        W54120  39.372  32.856  10.371
82395W        W54121  31.422  33.345  12.377
82396W        W54122  34.660  40.309   4.537
82397W        W54123  13.966  20.662   3.427
82398W        W54124  22.014  19.556  12.612
82399W        W54125  20.276  10.332  13.482
82400W        W54126  44.191   7.272  14.877
82401W        W54127  34.147  27.696   4.163
82402W        W54128  12.831  15.583   2.334
82403W        W54129  20.806  13.568   1.278
82404W        W54130  44.650  34.887   2.422
82405W        W54131  15.919  35.483  13.377
82406W        W54132  10.346  31.150   2.319
82407W        W54133   9.532  25.506  11.485
82408W        W54134  25.445  22.818  11.049
82409W        W54135  19.758  35.678   4.091
82410W        W54136   2.796  40.496  14.969
82411W        W54137  26.069  24.034  10.976
82412W        W54138   3.014  35.495  14.922
82413W        W54139  32.365  10.380  14.409
82414W        W54140   3.078  28.070  14.524
82415W        W54141   6.418  14.155   2.752
82416W        W54142  42.280  11.357   4.934
82417W        W54143   7.767  10.931   1.946
82418W        W54144  42.403   4.366  10.930
82419W        W54145  22.631  38.987  11.318
82420W        W54146  14.905  42.720   4.071
82421W        W54147  31.909  28.173  14.175
82422W        W54148  34.003  19.632   4.546
82423W        W54149  28.404  15.634  11.167
82424W        W54150   3.792   4.671  14.954
82425W        W54151  14.181  19.795   0.433
82426W        W54152  26.516  19.051   3.168
82427W        W54153  41.324  43.448   0.547
82428W        W54154   3.432  14.725  12.153
82429W        W54155   6.546  22.777  14.303
82430W        W54156   9.087   0.755  13.747
82431W        W54157  14.221  14.724   2.196
82432W        W54158   2.006   8.145   4.722
82433W        W54159  40.983   9.911  12.514
82434W        W54160  35.984  21.440   4.887
82435W        W54161  12.476   2.654   2.646
82436W        W54162  34.527  18.135  12.946
82437W        W54163  20.148   2.375   4.753
82438W        W54164  36.995  31.214  13.083
82439W        W54165  42.525  21.683  11.620
82440W        W54166  37.833   2.298   3.412
82441W        W54167  14.561   9.462  14.963
82442W        W54168  18.782  23.407   4.161
82443W        W54169  44.264  24.702  13.379
82444W        W54170   0.724  10.553   2.360
82445W        W54171  41.227  19.243  14.490
82446W        W54172  25.741   1.554  11.234
82447W        W54173  32.919  15.711   0.491
82448W        W54174   5.232  15.366   3.749
82449W        W54175   7.424  35.325   3.896
82450W        W54176  16.694  13.771  10.752
82451W        W54177  30.853  15.675  13.100
82452W        W54178  44.758  18.966   1.655
82453W        W54179  19.780  18.263   0.366
82454W        W54180  18.332  33.867  10.996
82455W        W54181  38.266  38.507  14.684
82456W        W54182  18.754   1.817   4.508
82457W        W54183   5.265  40.336   3.994
82458W        W54184  25.919  28.412   0.997
82459W        W54185  13.618  17.825  12.058
82460W        W54186  23.716  12.784  14.789
82461W        W54187   1.010   6.764   3.845
82462W        W54188  40.569   8.189   4.830
82463W        W54189   4.726  11.326   4.741
82464W        W54190  36.521  44.034  12.094
82465W        W54191  40.360  21.515  13.331
82466W        W54192  40.589  36.556  13.067
82467W        W54193  10.889   3.842   3.174
82468W        W54194  27.194  24.514   2.302
82469W        W54195   1.437  33.379  10.624
82470W        W54196  43.750  17.202   1.819
82471W        W54197  10.129  14.844  14.570
82472W        W54198  24.478   9.689  12.566
82473W        W54199  22.491   7.786  11.097
82474W        W54200   8.062  31.873  11.904
82475W        W54201  37.763   6.005  12.995
82476W        W54202   2.376   3.414  13.479
82477W        W54203   0.179  44.956   2.877
82478W        W54204  32.532  17.242   4.296
82479W        W54205  16.581  44.792  13.336
82480W        W54206  35.273  44.894  14.347
82481W        W54207  41.462  23.885   4.103
82482W        W54208  17.943  44.900   3.730
82483W        W54209  18.733  22.108   0.833
82484W        W54210  24.024  22.737  10.676
82485W        W54211  18.761  35.685   3.331
82486W        W54212  31.615  12.208  12.452
82487W        W54213  29.179  16.923   2.706
82488W        W54214  14.678  33.585  13.972
82489W        W54215  17.638  14.046  12.510
82490W        W54216  28.061  22.246  10.556
82491W        W54217  28.111  23.327  10.700
82492W        W54218  31.897  18.238   3.721
82493W        W54219  16.628  37.009  13.422
82494W        W54220  32.754   6.668   1.333
82495W        W54221  36.832  38.759   4.119
82496W        W54222  28.908  22.259   0.304
82497W        W54223   0.205  16.708  14.853
82498W        W54224  40.456  42.736  14.094
82499W        W54225  31.927  16.227  10.410
82500W        W54226   6.096   7.502  14.794
82501W        W54227   9.701  44.044   3.424
82502W        W54228  41.054  36.051   3.440
82503W        W54229  44.488  39.282   4.806
82504W        W54230  40.594  39.142  14.844
82505W        W54231   2.254   8.632  10.762
82506W        W54232  40.268   2.438   4.065
82507W        W54233  32.531  31.579  11.109
82508W        W54234  19.336  40.046   4.390
82509W        W54235  22.638  23.728   2.808
82510W        W54236  23.995  22.836  14.243
82511W        W54237  21.613   1.213   0.940
82512W        W54238  31.932  32.540  11.987
82513W        W54239   6.736  20.683  12.187
82514W        W54240  23.638   9.878   3.157
82515W        W54241  21.738   7.724   0.730
82516W        W54242  42.634  25.891  12.982
82517W        W54243  24.067  26.305  13.385
82518W        W54244  38.642  25.160  12.012
82519W        W54245  10.147  20.203   2.511
82520W        W54246   0.208  34.533  12.022
82521W        W54247   7.369  15.174  10.616
82522W        W54248   0.884   5.840   4.673
82523W        W54249  18.717   5.917   0.453
82524W        W54250  14.211  12.119   1.779
82525W        W54251   4.125   9.643  13.051
82526W        W54252  29.982  42.982   0.493
82527W        W54253  24.659  29.254  13.450
82528W        W54254   6.396  15.099   2.324
82529W        W54255   9.134  41.873   2.702
82530W        W54256  12.681  25.728   0.274
82531W        W54257  14.746  23.594  13.278
82532W        W54258  12.795  27.618   4.263
82533W        W54259  13.144   7.582   4.157
82534W        W54260  25.034   9.790  12.666
82535W        W54261  23.751  29.055   1.661
82536W        W54262   9.968   1.979  14.502
82537W        W54263   8.468   3.831  11.780
82538W        W54264  43.337  19.555  14.407
82539W        W54265  42.518  44.313   3.709
82540W        W54266   4.582  25.077   5.120
82541W        W54267  40.438  38.464   2.429
82542W        W54268  22.508  21.465  10.688
82543W        W54269  40.978  23.752  11.980
82544W        W54270  31.698   5.660   2.321
82545W        W54271   6.685  39.991  11.538
82546W        W54272  30.476  13.565  13.822
82547W        W54273  12.445   6.746   3.697
82548W        W54274  40.734  16.146  12.135
82549W        W54275  11.129  33.466  10.816
82550W        W54276  40.523  21.752   0.314
82551W        W54277  35.014  38.303  12.392
82552W        W54278  22.667  36.310   0.856
82553W        W54279   6.808  26.588   4.673
82554W        W54280  22.632  18.724  11.645
82555W        W54281  21.770   8.222  10.995
82556W        W54282   3.273  15.636   4.974
82557W        W54283  44.878  37.092   3.330
82558W        W54284  21.977   9.804  13.321
82559W        W54285   5.733  33.034   1.789
82560W        W54286  13.623  14.801  14.330
82561W        W54287  24.773  27.776  11.090
82562W        W54288  34.450  42.192   2.588
82563W        W54289  17.813   2.566  14.528
82564W        W54290  37.579  30.227  14.397
82565W        W54291  43.845  44.775  10.629
82566W        W54292   2.011  12.898  13.888
82567W        W54293   6.705  24.607  14.798
82568W        W54294  23.460  30.451  12.815
82569W        W54295   7.325  30.525   3.093
82570W        W54296   5.674  28.386  13.448
82571W        W54297  28.480  35.510   2.200
82572W        W54298  12.793  12.658  12.614
82573W        W54299  23.224   4.585  13.059
82574W        W54300  31.793  19.684   4.556
82575W        W54301  35.616  28.829   0.044
82576W        W54302  41.844  21.010   1.945
82577W        W54303  33.167  10.304   3.123
82578W        W54304  16.618  11.216   0.034
82579W        W54305  11.076  37.367   3.623
82580W        W54306  26.226   1.161  13.451
82581W        W54307  26.884  20.130  12.471
82582W        W54308  11.880  14.308  12.824
82583W        W54309   9.840  37.363  12.011
82584W        W54310  40.839  27.917  14.376
82585W        W54311  19.631  12.684   1.451
82586W        W54312  10.842  22.052   2.063
82587W        W54313  12.944  15.694  13.710
82588W        W54314  44.697  40.425   1.276
82589W        W54315  21.711   7.256  11.930
82590W        W54316  12.366  18.639  14.245
82591W        W54317  13.136  16.744   4.530
82592W        W54318   4.719  28.919   4.202
82593W        W54319   1.407   5.878   4.591
82594W        W54320  14.165  21.954   3.159
82595W        W54321  35.560  38.284   3.281
82596W        W54322  28.931  37.408  12.502
82597W        W54323   9.112  23.091   4.675
82598W        W54324  36.536   0.972  11.155
82599W        W54325  34.495  14.736   1.601
82600W        W54326  21.160  25.970  14.480
82601W        W54327  27.727  38.380  14.845
82602W        W54328  19.150  32.646   4.025
82603W        W54329   7.604  10.684   0.455
82604W        W54330  31.787  11.091   1.473
82605W        W54331  17.357  22.782   1.248
82606W        W54332  23.978   8.333   2.441
82607W        W54333   5.663  30.913   4.823
82608W        W54334  33.879  33.304  11.059
82609W        W54335  29.046   3.802  12.526
82610W        W54336  11.706   4.531   0.327
82611W        W54337  27.045  16.919  11.583
82612W        W54338  17.896  13.570  13.522
82613W        W54339   3.311  42.500  11.151
82614W        W54340  11.743  31.787  10.684
82615W        W54341  27.978   1.692   1.845
82616W        W54342  23.194  14.820   2.779
82617W        W54343   6.353   9.129   1.723
82618W        W54344  34.155   5.507   0.827
82619W        W54345   5.221  36.521   3.531
82620W        W54346  27.817  12.364  10.119
82621W        W54347   9.149   8.411  14.284
82622W        W54348  33.485  39.197   4.887
82623W        W54349  39.516  37.581   0.242
82624W        W54350   1.486  43.856   1.339
82625W        W54351  44.755  22.638   1.749
82626W        W54352  24.409  20.133  14.776
82627W        W54353  34.530  40.140   3.251
82628W        W54354  16.753  40.591   0.370
82629W        W54355  22.243  40.777   1.044
82630W        W54356  11.527  15.072  13.329
82631W        W54357  23.222   0.739   0.839
82632W        W54358  28.031  24.773  14.041
82633W        W54359  41.492   5.877  14.435
82634W        W54360  11.294   3.697  12.901
82635W        W54361  30.687  25.522   2.736
82636W        W54362  16.251   3.330   0.266
82637W        W54363  29.360   0.813   4.139
82638W        W54364   3.830   3.189  11.068
82639W        W54365  30.452   3.909   1.328
82640W        W54366   3.741  22.227   2.771
82641W        W54367  18.988  38.809  10.939
82642W        W54368  30.401  28.179   3.667
82643W        W54369  17.804  11.788   3.262
82644W        W54370  44.962  31.526   4.534
82645W        W54371  15.243  20.510  11.124
82646W        W54372  40.280   6.164   2.386
82647W        W54373  16.270  33.506  11.970
82648W        W54374  33.454  20.194   2.894
82649W        W54375  24.725  16.153   1.345
82650W        W54376  26.289  32.974   4.545
82651W        W54377  36.396  38.058   1.960
82652W        W54378  36.872  14.571   0.259
82653W        W54379  12.142  33.943   1.252
82654W        W54380   5.885  29.078   2.732
82655W        W54381  25.934  13.860  11.149
82656W        W54382  33.791  12.101  10.742
82657W        W54383  19.112  16.055   0.446
82658W        W54384  25.458  22.208   2.271
82659W        W54385  22.300  40.437  11.102
82660W        W54386   8.189  34.119   4.127
82661W        W54387  30.088  12.042   4.377
82662W        W54388  12.310  15.613  14.728
82663W        W54389  42.575  44.599  11.177
82664W        W54390  41.775   2.336  11.643
82665W        W54391  17.102   6.664   2.371
82666W        W54392  35.007   3.712   1.343
82667W        W54393  34.796  10.157   2.898
82668W        W54394  34.463  36.048   3.344
82669W        W54395  30.941   7.857  11.544
82670W        W54396  20.933   5.675   0.783
82671W        W54397  42.593  36.997   4.233
82672W        W54398   6.607  35.907  13.821
82673W        W54399  21.071   4.260   0.953
82674W        W54400  38.945  17.964  10.204
82675W        W54401   6.413  12.845   3.858
82676W        W54402  42.434  13.870   3.376
82677W        W54403  37.855  30.524   1.271
82678W        W54404   8.899  17.208   2.641
82679W        W54405  32.607  13.628   2.553
82680W        W54406  22.724  29.847   3.834
82681W        W54407  41.354  31.631   4.087
82682W        W54408  24.234  35.337   5.025
82683W        W54409   7.263  24.990   2.837
82684W        W54410   6.887  27.928  14.474
82685W        W54411  21.465   9.339   3.743
82686W        W54412  36.392  12.829   0.435
82687W        W54413  21.309  31.108  13.355
82688W        W54414   2.274  35.797  13.351
82689W        W54415  24.916  28.067  11.536
82690W        W54416  13.305  25.386  12.429
82691W        W54417   0.382  28.136  12.884
82692W        W54418  35.163  40.950  13.190
82693W        W54419  39.944  41.340  11.655
82694W        W54420  29.001  12.048  11.213
82695W        W54421  12.178   2.844   0.214
82696W        W54422   8.597   1.291   3.842
82697W        W54423  26.683  15.881   1.771
82698W        W54424  29.370  43.359   2.700
82699W        W54425  34.391   1.718   4.236
82700W        W54426  19.272  35.065  14.953
82701W        W54427  39.273  34.530  12.046
82702W        W54428  37.538  27.074   1.426
82703W        W54429   1.534  10.721   3.623
82704W        W54430  29.488   0.096  14.871
82705W        W54431  32.390  12.984   3.247
82706W        W54432   4.854  36.337  11.507
82707W        W54433  24.189   1.298   0.059
82708W        W54434  44.548   5.728  10.431
82709W        W54435  13.589  14.282   4.474
82710W        W54436   4.784   4.928  11.923
82711W        W54437  16.020  13.393   4.288
82712W        W54438  14.755  40.303  13.069
82713W        W54439  26.529  21.085  12.136
82714W        W54440  21.978  13.048   2.591
82715W        W54441   0.965   7.332  13.477
82716W        W54442  29.516   9.056   2.624
82717W        W54443  31.606  26.505  12.925
82718W        W54444  16.247  23.528   0.729
82719W        W54445  18.325  29.063  14.874
82720W        W54446  14.370  37.285  10.998
82721W        W54447  19.931  14.224  14.508
82722W        W54448  21.495  36.174  11.159
82723W        W54449  23.715  33.855   2.264
82724W        W54450  29.039  22.006  11.945
82725W        W54451  27.216  23.046  10.652
82726W        W54452  22.795   7.235   1.239
82727W        W54453  29.525  32.165   5.028
82728W        W54454  18.329  39.974   0.912
82729W        W54455  43.548  31.515   4.626
82730W        W54456  14.762  24.214  14.036
82731W        W54457  10.681   3.402  10.189
82732W        W54458  27.666  23.745   2.269
82733W        W54459  29.159  34.048   1.015
82734W        W54460  23.675  36.875   0.121
82735W        W54461  21.722  42.556  14.540
82736W        W54462  11.486  11.524   1.415
82737W        W54463  42.934  22.416   4.129
82738W        W54464  28.382  21.266  12.104
82739W        W54465  42.472  44.483   0.412
82740W        W54466  24.999   6.051  13.649
82741W        W54467   0.222  34.013  10.577
82742W        W54468  21.658  39.779   1.660
82743W        W54469   1.880   9.961   3.304
82744W        W54470   3.398  34.751   4.094
82745W        W54471  32.379  24.560   0.374
82746W        W54472  37.987  42.508   0.775
82747W        W54473   5.993  17.079  13.299
82748W        W54474  30.080  24.661   2.861
82749W        W54475  16.203  44.741   2.632
82750W        W54476   2.784   5.152  12.968
82751W        W54477  12.856  37.921  14.329
82752W        W54478  22.140  12.235   0.649
82753W        W54479  28.989  32.955   1.450
82754W        W54480  26.081  36.075   2.343
82755W        W54481  31.060  35.102  11.838
82756W        W54482  42.518  20.637   0.341
82757W        W54483  30.944  18.418   3.815
82758W        W54484  42.857  29.557  14.851
82759W        W54485  39.238  31.422   0.177
82760W        W54486   8.165  41.367  12.026
82761W        W54487  38.337  16.583   4.210
82762W        W54488  37.383  23.999   1.853
82763W        W54489   0.516  13.640   3.747
82764W        W54490  10.773  42.052  13.093
82765W        W54491  28.428   9.634   4.613
82766W        W54492  29.300  30.850  12.101
82767W        W54493   6.127   1.759   2.426
82768W        W54494  29.392   4.922  12.678
82769W        W54495  37.457  12.334   1.849
82770W        W54496  36.526   9.306   1.383
82771W        W54497   6.030  31.463   0.120
82772W        W54498   3.858  12.042   2.599
82773W        W54499  30.684  38.621  10.628
82774W        W54500  21.033  24.026  11.499
82775W        W54501  18.457   6.850   3.385
82776W        W54502  41.059  34.565   0.482
82777W        W54503  13.289  31.201   2.686
82778W        W54504  27.159  40.017   2.250
82779W        W54505   2.168  41.504   4.349
82780W        W54506  37.850   5.799   0.333
82781W        W54507  26.939  25.717  13.953
82782W        W54508  33.819   2.836  13.420
82783W        W54509  15.702  17.818  13.532
82784W        W54510  12.203  41.877   3.860
82785W        W54511   5.240  37.048  10.626
82786W        W54512  16.681  28.157  11.582
82787W        W54513  32.133  41.938  12.338
82788W        W54514  28.156  20.229   2.957
82789W        W54515   2.874  18.664  14.274
82790W        W54516  22.689  44.533   4.114
82791W        W54517  40.678  18.187  12.444
82792W        W54518  10.784  24.640  13.975
82793W        W54519  40.488  21.273  12.388
82794W        W54520   4.702  33.112   5.114
82795W        W54521  40.042  29.969   3.896
82796W        W54522  23.176   0.498   4.883
82797W        W54523  39.612   6.343   0.227
82798W        W54524  23.443  40.767   2.718
82799W        W54525  17.543  26.247   2.147
82800W        W54526  41.591  29.429   2.349
82801W        W54527  32.535  41.283  13.572
82802W        W54528  13.240  20.188  11.530
82803W        W54529  38.845  12.374  14.374
82804W        W54530   3.372  21.285  12.388
82805W        W54531  22.766  34.728  13.413
82806W        W54532  44.796  38.607   3.244
82807W        W54533  30.384   3.958   4.134
82808W        W54534  18.755  40.286   1.735
82809W        W54535  30.527  12.046   2.279
82810W        W54536  40.591   7.935   3.711
82811W        W54537  29.545   2.648   3.746
82812W        W54538  10.210  19.820   0.479
82813W        W54539  16.030  24.736  12.879
82814W        W54540   4.892  10.062   0.187
82815W        W54541  23.539  33.310  12.095
82816W        W54542  35.484   8.216  12.180
82817W        W54543   8.475  35.556  12.039
82818W        W54544   3.150  39.289   4.119
82819W        W54545   3.614  43.594  14.517
82820W        W54546   5.795  13.167   0.423
82821W        W54547  14.611  12.736  11.807
82822W        W54548  24.314   2.420   1.728
82823W        W54549  40.006  39.408   4.520
82824W        W54550  12.538  27.947  10.870
82825W        W54551   0.181  14.484  14.345
82826W        W54552  16.457  43.337  12.017
82827W        W54553  18.151  16.714  12.808
82828W        W54554  28.993   2.475  11.522
82829W        W54555  29.032   5.706   3.223
82830W        W54556   1.957  42.986  12.482
82831W        W54557  20.671  26.589   2.534
82832W        W54558   5.076  32.506   4.610
82833W        W54559   7.704  17.469  10.483
82834W        W54560  22.309  14.186   2.866
82835W        W54561  31.049   2.067   0.964
82836W        W54562  13.795  31.364   2.665
82837W        W54563  18.178   3.719   2.267
82838W        W54564  33.406  40.838  11.065
82839W        W54565  34.078  39.821   4.094
82840W        W54566  40.595  16.056  12.617
82841W        W54567  31.066  10.581  14.969
82842W        W54568   4.353   4.745   5.462
82843W        W54569   7.304  12.259  13.920
82844W        W54570  12.239  16.913   2.861
82845W        W54571  20.156  29.881   1.655
82846W        W54572  31.493  29.893  12.888
82847W        W54573  21.290  10.225  13.712
82848W        W54574  17.761  29.021  12.469
82849W        W54575  12.297   9.458  11.179
82850W        W54576  44.948  44.403   3.666
82851W        W54577  26.260  41.066  14.441
82852W        W54578  38.589  36.283  11.582
82853W        W54579   6.284  14.757  14.065
82854W        W54580  30.675   8.437  12.270
82855W        W54581  38.637  38.928  11.269
82856W        W54582   4.417   1.935  10.471
82857W        W54583  36.468   5.775   0.192
82858W        W54584  12.599  18.319  11.994
82859W        W54585  11.689  18.575  11.494
82860W        W54586  13.910  25.414  12.539
82861W        W54587  36.003  15.696   0.253
82862W        W54588   2.919  26.576  12.550
82863W        W54589  16.221  11.576   3.727
82864W        W54590  19.283  34.808  12.563
82865W        W54591  37.480  17.284   0.416
82866W        W54592  24.778  27.188   4.271
82867W        W54593  14.685   6.560  14.651
82868W        W54594   3.930  34.356  11.015
82869W        W54595  23.199  29.971  13.185
82870W        W54596  22.934  18.703   3.366
82871W        W54597  43.773  11.865   4.427
82872W        W54598   0.633  39.011   5.066
82873W        W54599  41.396  17.616   4.621
82874W        W54600  11.240  16.807  12.897
82875W        W54601  11.301  22.758  10.419
82876W        W54602   5.336  11.369  13.602
82877W        W54603  32.432  39.530  10.604
82878W        W54604   9.734  27.025   3.381
82879W        W54605  20.723  24.754  12.336
82880W        W54606  18.622   1.463  11.379
82881W        W54607  16.468  20.142  10.633
82882W        W54608  39.068  22.988   4.149
82883W        W54609  27.675  12.237  13.019
82884W        W54610  29.079   5.481  14.000
82885W        W54611  44.810  33.052   1.232
82886W        W54612  42.303  26.707   2.641
82887W        W54613  27.568  16.861   3.101
82888W        W54614  22.463  13.656   4.786
82889W        W54615  43.793  30.129  13.383
82890W        W54616   4.234  36.289  13.632
82891W        W54617   3.321   0.740  12.610
82892W        W54618  22.133  20.237   2.164
82893W        W54619  40.997  29.816  13.747
82894W        W54620   9.453  24.749   0.544
82895W        W54621  33.245  24.909  10.620
82896W        W54622  12.985   1.222   4.627
82897W        W54623  43.337  10.416  13.456
82898W        W54624  35.450  27.424  11.723
82899W        W54625  10.704  18.406   4.078
82900W        W54626  16.759   2.024  13.553
82901W        W54627  18.196   2.008   1.883
82902W        W54628  21.917  30.045  13.072
82903W        W54629  14.118  31.240  11.157
82904W        W54630   4.866   0.711   5.067
82905W        W54631   6.571  32.825   3.539
82906W        W54632   9.142  38.996   2.126
82907W        W54633   1.879  26.365  12.921
82908W        W54634  42.752  30.711   0.968
82909W        W54635  16.198  19.023   3.967
82910W        W54636  27.586  33.613  11.799
82911W        W54637  18.322  27.528  10.617
82912W        W54638  21.833  12.379  13.609
82913W        W54639  19.488   1.703   1.318
82914W        W54640  29.527   8.684   1.832
82915W        W54641  16.521  26.694  11.142
82916W        W54642  26.112  28.649  10.565
82917W        W54643   9.435   1.859  13.442
82918W        W54644  26.747  27.095   3.731
82919W        W54645  21.682   0.683  13.858
82920W        W54646   4.936   1.732  12.546
82921W        W54647   3.839  20.813   4.285
82922W        W54648  43.064  42.199   4.261
82923W        W54649  12.252  30.445   3.261
82924W        W54650  38.385  26.723  10.651
82925W        W54651   8.680  34.149   4.084
82926W        W54652   2.147  42.068   0.249
82927W        W54653  27.375  28.053   0.735
82928W        W54654  32.142  43.985   4.180
82929W        W54655  29.202   5.896   2.279
82930W        W54656  17.255  24.647   4.580
82931W        W54657  11.118  29.238   2.240
82932W        W54658  28.954  15.540   1.381
82933W        W54659  36.578  13.119  14.387
82934W        W54660  34.970   6.857  14.418
82935W        W54661  33.491   9.614   4.358
82936W        W54662  37.358  36.781  10.750
82937W        W54663  10.701  35.459   4.687
82938W        W54664   2.963  42.917  11.592
82939W        W54665  14.642  37.962   5.447
82940W        W54666  30.154   7.788  14.623
82941W        W54667  13.002   8.677  11.073
82942W        W54668   1.431  14.883  14.070
82943W        W54669  20.318   7.888  13.513
82944W        W54670   3.465  30.566  10.168
82945W        W54671  44.185  19.145   1.918
82946W        W54672  37.455  19.206  10.660
82947W        W54673  43.804  37.835  14.233
82948W        W54674  13.041  13.053  12.404
82949W        W54675  13.821   5.203  11.865
82950W        W54676  16.908  37.150   4.464
82951W        W54677  10.910   2.472  10.789
82952W        W54678  14.198   6.454  14.459
82953W        W54679  31.011  10.825  14.474
82954W        W54680   5.758  27.610  14.743
82955W        W54681  36.305  11.867  13.883
82956W        W54682   0.241  31.401   3.683
82957W        W54683   0.780  37.245   4.161
82958W        W54684   4.278  13.813  11.506
82959W        W54685  34.672  39.510  13.953
82960W        W54686  30.842  42.709   3.722
82961W        W54687  43.256  39.868   3.313
82962W        W54688  18.309  25.390   0.774
82963W        W54689   7.267  36.899  12.258
82964W        W54690  13.806  18.009  14.380
82965W        W54691  29.327  36.759   2.143
82966W        W54692   1.982  29.539   2.347
82967W        W54693  37.538  24.201   4.085
82968W        W54694   5.124   0.043   3.110
82969W        W54695   0.417  34.486   1.793
82970W        W54696  24.242   1.456   1.857
82971W        W54697  30.926  33.136   4.138
82972W        W54698   8.740  27.049   2.896
82973W        W54699  18.676  22.999   1.796
82974W        W54700  30.059   0.962   0.694
82975W        W54701  35.163  18.485   5.121
82976W        W54702  22.846  33.791  11.599
82977W        W54703  37.859   9.924   3.792
82978W        W54704  19.983  28.377  14.877
82979W        W54705  18.045   4.215   3.711
82980W        W54706  12.133   6.676  12.809
82981W        W54707   3.587  34.174   1.955
82982W        W54708  18.517   1.344   4.511
82983W        W54709  27.820   4.900   5.083
82984W        W54710  33.533  16.607  11.149
82985W        W54711  16.157   9.384  10.946
82986W        W54712  35.576  36.546  10.921
82987W        W54713  35.888  26.236  12.892
82988W        W54714  31.486  29.612  14.279
82989W        W54715   6.925  32.631  13.909
82990W        W54716  29.701  24.554  14.943
82991W        W54717  11.959  15.747  10.783
82992W        W54718  22.400   0.710  14.266
82993W        W54719  35.289  37.457   1.780
82994W        W54720  38.546   2.651  11.146
82995W        W54721  42.021  40.001   3.955
82996W        W54722   9.349   9.088   1.312
82997W        W54723  38.643  42.011   2.470
82998W        W54724   7.261   5.932   1.305
82999W        W54725  34.474  20.047   3.089
83000W        W54726  25.054  18.708  14.258
83001W        W54727   7.260  21.998  12.828
83002W        W54728  25.696   0.577   2.007
83003W        W54729  42.573  43.309   3.081
83004W        W54730  36.177  43.438   1.881
83005W        W54731  31.635  39.696  11.630
83006W        W54732  28.472  23.681   3.731
83007W        W54733   5.319  41.948   0.413
83008W        W54734  14.596  41.022   2.940
83009W        W54735  25.915  33.969  14.484
83010W        W54736   0.511  14.938   3.701
83011W        W54737  10.203  11.683  14.301
83012W        W54738  43.236  34.001  10.681
83013W        W54739   1.860  32.875   1.400
83014W        W54740  38.382  22.533  12.435
83015W        W54741  42.945  29.173   3.151
83016W        W54742   1.915   8.635   2.147
83017W        W54743   3.181  22.499  11.730
83018W        W54744  20.963  33.712   0.052
83019W        W54745  14.735  21.793  12.902
83020W        W54746  22.443  30.862   0.561
83021W        W54747  24.941  11.261  11.024
83022W        W54748   9.420  41.759  14.354
83023W        W54749  23.467  42.462   0.831
83024W        W54750  13.267  14.673   4.364
83025W        W54751  35.600  24.033   0.384
83026W        W54752  12.187  39.094   2.374
83027W        W54753   4.209  24.515   1.701
83028W        W54754  22.161  23.900   0.504
83029W        W54755  20.835  18.686   1.192
83030W        W54756   1.400  28.850   0.839
83031W        W54757  28.179  33.016   0.913
83032W        W54758  26.060  36.176   0.778
83033W        W54759  16.135  19.308   3.550
83034W        W54760   5.418  41.899   2.461
83035W        W54761   6.606  44.932   2.370
83036W        W54762  12.414  29.040  11.664
83037W        W54763  20.969  13.849  13.783
83038W        W54764  25.930  26.451  12.021
83039W        W54765  16.038  39.518   0.926
83040W        W54766  29.986  29.219   2.471
83041W        W54767  23.921  35.751   1.505
83042W        W54768  16.915  35.467  11.550
83043W        W54769  31.000   4.663   4.189
83044W        W54770  30.626  18.116  10.709
83045W        W54771   1.712   1.437  10.543
83046W        W54772  22.772  19.699  11.255
83047W        W54773  26.737  15.081  11.628
83048W        W54774   5.689  16.874   4.847
83049W        W54775  25.143  19.688  11.400
83050W        W54776  23.980  22.987  11.153
83051W        W54777  39.967   3.999   2.820
83052W        W54778  38.262  24.098   0.508
83053W        W54779   7.105   3.656   0.923
83054W        W54780  33.633   0.201  13.302
83055W        W54781  22.063  43.058   1.286
83056W        W54782   8.909  43.382  14.952
83057W        W54783  20.679   6.661  11.596
83058W        W54784  19.094  12.255  12.427
83059W        W54785  43.826   0.909   1.422
83060W        W54786  15.857  43.305  11.136
83061W        W54787  23.718  29.500   4.052
83062W        W54788  18.237   7.157  12.279
83063W        W54789  42.963  33.521   0.146
83064W        W54790  16.355  40.087  14.383
83065W        W54791   2.411  16.185  12.861
83066W        W54792   6.239  24.450  14.700
83067W        W54793  15.783   8.206   2.420
83068W        W54794  24.924  33.967   1.696
83069W        W54795   3.856   1.798  13.889
83070W        W54796  32.477  36.045   3.857
83071W        W54797   4.891   6.215   4.313
83072W        W54798   8.669  10.545  11.270
83073W        W54799  23.498  38.302  10.727
83074W        W54800  42.070  40.521  11.536
83075W        W54801   1.908   9.406  10.728
83076W        W54802  37.820  29.411  11.135
83077W        W54803  21.805   7.230  11.413
83078W        W54804  11.805  23.056  10.990
83079W        W54805  32.354  21.716   1.724
83080W        W54806   1.172   9.676  11.045
83081W        W54807  39.261  43.960   3.220
83082W        W54808  19.270  24.833   2.181
83083W        W54809  20.331  29.977  13.926
83084W        W54810  34.960  35.979   1.269
83085W        W54811  19.005  40.987   3.495
83086W        W54812  24.234  24.205   0.381
83087W        W54813  34.403  36.564  13.397
83088W        W54814  29.762   3.064   4.230
83089W        W54815  16.647   6.403  11.640
83090W        W54816   0.575   6.667   3.591
83091W        W54817  14.475  35.853   5.135
83092W        W54818  32.584  39.316   2.280
83093W        W54819  25.930  16.216  13.609
83094W        W54820  36.876  35.524   2.872
83095W        W54821  37.414  31.520   1.339
83096W        W54822   6.221  15.900   1.733
83097W        W54823  21.166  27.171  13.546
83098W        W54824  22.076  28.343  11.845
83099W        W54825   9.785  42.103  12.560
83100W        W54826  30.210  33.072  13.712
83101W        W54827   2.191   5.282   0.402
83102W        W54828  30.161  27.749  13.895
83103W        W54829   7.642   4.768   5.666
83104W        W54830  40.621   9.287   4.288
83105W        W54831  40.924  41.364  11.619
83106W        W54832  25.001  12.697   1.233
83107W        W54833  39.942  36.986   0.250
83108W        W54834  17.306  40.975   1.748
83109W        W54835  21.509  10.637   2.256
83110W        W54836  39.505  42.980  11.413
83111W        W54837  16.312  13.763  14.799
83112W        W54838  23.801  17.559   1.442
83113W        W54839  16.723  12.498   1.042
83114W        W54840  32.147   2.460  14.914
83115W        W54841  27.501  27.770   4.711
83116W        W54842  40.425  34.131   1.169
83117W        W54843  41.016   5.340  11.641
83118W        W54844  37.936  36.840   4.307
83119W        W54845   8.699  26.928  13.531
83120W        W54846  10.581  26.115   3.234
83121W        W54847  10.286  36.031  11.763
83122W        W54848  34.926  39.967   2.853
83123W        W54849  36.413  26.759   4.133
83124W        W54850  15.407  12.392  12.150
83125W        W54851  15.688  12.369  14.055
83126W        W54852   2.788  32.174   3.260
83127W        W54853  29.290  25.616   0.493
83128W        W54854   4.700  19.038  14.929
83129W        W54855  24.438  29.480  13.900
83130W        W54856  18.481  23.603  12.852
83131W        W54857   0.444  44.479  11.406
83132W        W54858  31.065  31.532  11.003
83133W        W54859  13.335  20.674  13.342
83134W        W54860  17.883   8.110   2.213
83135W        W54861  14.197  23.605   4.988
83136W        W54862  39.404   2.565   2.163
83137W        W54863  26.088  40.789   1.193
83138W        W54864  28.187  24.105  11.957
83139W        W54865  12.105  31.551  12.968
83140W        W54866  17.675   4.738   0.115
83141W        W54867  27.197  37.734   0.383
83142W        W54868  12.406  11.402  12.397
83143W        W54869  18.584  24.743  12.508
83144W        W54870  32.978  25.673  14.508
83145W        W54871  35.775  24.257  11.018
83146W        W54872  17.708   3.802  13.497
83147W        W54873  31.491  38.207  12.402
83148W        W54874  41.255  40.278   3.824
83149W        W54875  16.256  22.260  12.328
83150W        W54876  11.311  23.820   5.547
83151W        W54877   3.268  24.185  14.556
83152W        W54878  10.171  26.406  12.567
83153W        W54879  19.207   5.717   0.314
83154W        W54880   7.229  12.462  12.910
83155W        W54881  33.022   0.865  13.430
83156W        W54882   4.547   6.896   5.468
83157W        W54883  42.115  27.460  11.969
83158W        W54884  14.625  31.390  14.046
83159W        W54885  26.692  26.441  13.004
83160W        W54886  32.653  13.306   4.132
83161W        W54887   7.604  24.224   9.790
83162W        W54888   6.058  38.036   2.846
83163W        W54889  40.310  23.502  13.929
83164W        W54890  16.078  40.573  14.451
83165W        W54891  27.166  33.442   0.837
83166W        W54892  39.528  37.465   3.681
83167W        W54893  41.428   5.502   3.324
83168W        W54894  16.332  38.440   2.149
83169W        W54895   5.111  22.987   4.132
83170W        W54896  30.369  42.670  11.923
83171W        W54897  25.936  27.871   3.436
83172W        W54898  30.522  10.108  14.822
83173W        W54899   3.751   6.276  13.978
83174W        W54900  13.835  36.362  13.013
83175W        W54901  14.632  43.311  12.583
83176W        W54902  15.258  33.858  10.750
83177W        W54903  24.320  20.280  12.539
83178W        W54904  37.477  44.416  12.009
83179W        W54905  32.035  36.211  10.137
83180W        W54906  44.082   4.711  11.209
83181W        W54907  32.987  10.943  11.553
83182W        W54908  42.320  11.905   0.938
83183W        W54909  11.245  40.342  14.555
83184W        W54910  37.358  29.361   5.003
83185W        W54911  33.094  34.566   0.267
83186W        W54912  43.737  11.204  14.776
83187W        W54913  26.636  35.507  13.518
83188W        W54914   9.935  42.975   2.809
83189W        W54915  19.784  26.534  12.588
83190W        W54916  26.541  27.433  11.617
83191W        W54917  21.591  27.093   1.319
83192W        W54918  23.267  36.067   4.242
83193W        W54919   1.409   3.142   4.791
83194W        W54920  14.280  42.094  11.231
83195W        W54921  22.089   9.424   2.373
83196W        W54922  34.292  17.507   3.771
83197W        W54923  43.273  29.766  12.371
83198W        W54924   6.871  30.434   1.444
83199W        W54925  17.185  11.609  13.039
83200W        W54926  44.416  21.945  12.600
83201W        W54927  32.664  44.500   5.313
83202W        W54928  44.378  27.707  11.183
83203W        W54929  19.495   6.954   2.348
83204W        W54930  11.337  15.573  14.811
83205W        W54931  17.519  25.737   0.485
83206W        W54932  31.340  38.276   1.202
83207W        W54933  14.321  29.883  10.742
83208W        W54934   3.263  31.515  12.479
83209W        W54935   9.925   7.505   3.784
83210W        W54936  37.172  27.501   0.725
83211W        W54937  43.355  16.073  13.583
83212W        W54938  17.653   7.327   3.926
83213W        W54939  40.336  12.929  12.093
83214W        W54940  35.084  27.673   0.823
83215W        W54941  30.181  42.329  14.755
83216W        W54942  26.169  28.443  13.885
83217W        W54943  23.220  26.494   2.447
83218W        W54944  36.285  18.210   1.248
83219W        W54945  42.873  18.578  11.562
83220W        W54946  25.744   2.699   2.813
83221W        W54947   2.781  28.225  11.223
83222W        W54948  41.834   1.320  11.440
83223W        W54949  13.236  19.776   3.613
83224W        W54950  38.291  27.496  11.053
83225W        W54951   7.215   1.190   4.384
83226W        W54952  13.098  33.399  11.508
83227W        W54953   7.491   6.280   3.024
83228W        W54954   6.640  37.107  14.567
83229W        W54955  27.201  23.207   1.675
83230W        W54956  36.962  12.167   1.885
83231W        W54957  10.120  20.242   1.708
83232W        W54958  42.676  30.642  14.872
83233W        W54959  10.105  44.924  12.580
83234W        W54960   0.726  44.323   4.736
83235W        W54961  34.491   1.475  11.456
83236W        W54962   1.028  21.501  14.535
83237W        W54963  11.778   1.208  13.815
83238W        W54964   6.767  19.486  13.330
83239W        W54965  10.148  21.771   1.807
83240W        W54966  10.437  34.907   3.240
83241W        W54967  16.476  43.237   1.839
83242W        W54968   9.689  15.261   4.699
83243W        W54969  32.075  41.398   0.830
83244W        W54970  20.323   3.353   3.705
83245W        W54971  15.304  24.493   3.450
83246W        W54972  36.589  22.592  11.214
83247W        W54973  19.711  17.627  14.939
83248W        W54974  12.318  20.508   2.280
83249W        W54975  40.347  11.697   1.478
83250W        W54976  43.884   0.007   3.190
83251W        W54977   3.661  30.440  13.051
83252W        W54978  25.982  35.994   0.287
83253W        W54979  33.408  29.779   4.590
83254W        W54980  16.433   7.775  11.628
83255W        W54981   4.287  26.806  14.403
83256W        W54982  31.706   2.767  12.142
83257W        W54983   8.065  12.229  14.958
83258W        W54984  34.874  16.630  14.816
83259W        W54985  26.403  21.357   4.966
83260W        W54986  21.692   4.907   2.171
83261W        W54987  24.726  25.446   1.508
83262W        W54988   6.847  11.527  11.944
83263W        W54989  26.619  13.350   0.725
83264W        W54990   0.432  18.876   3.274
83265W        W54991  36.883  32.521   2.731
83266W        W54992   9.828  34.158   4.126
83267W        W54993  34.566   9.289   1.418
83268W        W54994  42.547   6.742   2.427
83269W        W54995  22.064  12.520   2.663
83270W        W54996  41.853  17.317  10.259
83271W        W54997  35.034  37.602   2.288
83272W        W54998  25.810  25.301  10.463
83273W        W54999  35.490  12.214  14.618
83274W        W55000  20.941  25.066   0.445
83275W        W55001  30.985  33.986  12.800
83276W        W55002  21.259  13.078   0.074
83277W        W55003  39.957  21.119   4.741
83278W        W55004  33.127   5.251   1.281
83279W        W55005   8.957  16.046   2.374
83280W        W55006   6.351  10.681  13.102
83281W        W55007  22.927  39.970  12.146
83282W        W55008  23.656   4.337  12.911
83283W        W55009  44.077   5.666   0.226
83284W        W55010  34.825  27.588  13.566
83285W        W55011   0.247  34.812  14.437
83286W        W55012  29.175  38.798   3.870
83287W        W55013  40.234  19.991   1.492
83288W        W55014  19.849  24.182  13.126
83289W        W55015  42.424   5.315  10.949
83290W        W55016   0.295  29.959   3.133
83291W        W55017  35.661  11.314  11.122
83292W        W55018  34.497   7.179   4.248
83293W        W55019  17.606  27.709   0.997
83294W        W55020   1.170  20.228  14.815
83295W        W55021  21.594  25.543   9.820
83296W        W55022  44.423   5.569   4.563
83297W        W55023  19.610  28.216   1.461
83298W        W55024  19.140   6.214   0.480
83299W        W55025  24.169  44.203   2.717
83300W        W55026  14.469  31.937  14.866
83301W        W55027  28.117  24.558  13.534
83302W        W55028  38.059  36.497  14.879
83303W        W55029  25.569  44.944  12.156
83304W        W55030  43.523  43.822   0.885
83305W        W55031  37.750  37.522  12.856
83306W        W55032   6.256  25.158  13.552
83307W        W55033  21.516  11.016   0.409
83308W        W55034  41.052  39.932  12.149
83309W        W55035  43.254   9.835   2.684
83310W        W55036  17.609  29.909  12.026
83311W        W55037   4.458   8.805  14.532
83312W        W55038  25.996  35.418  12.884
83313W        W55039  24.773  40.896   3.159
83314W        W55040  16.822   9.243  10.503
83315W        W55041  38.907  28.107  12.524
83316W        W55042   0.459  21.659   3.270
83317W        W55043  26.675   9.455   3.113
83318W        W55044   9.629  26.923  11.975
83319W        W55045  16.270   8.385   2.337
83320W        W55046  17.897   8.794  12.879
83321W        W55047  23.997  42.785   1.270
83322W        W55048  28.028  23.595  12.023
83323W        W55049  24.295  23.134  13.876
83324W        W55050  41.765  28.078  13.106
83325W        W55051  11.891  24.594  11.627
83326W        W55052  42.569  37.508  12.861
83327W        W55053  14.821  21.093  11.289
83328W        W55054  34.336  22.178  11.162
83329W        W55055  38.620  32.424   0.807
83330W        W55056  17.697  21.166   3.285
83331W        W55057  40.089  26.698  14.659
83332W        W55058  30.673   5.862  11.635
83333W        W55059  32.552   6.643   2.701
83334W        W55060  24.702  11.938  11.648
83335W        W55061  11.900  29.922   2.171
83336W        W55062  26.424   4.532  13.297
83337W        W55063  22.530  18.544  13.970
83338W        W55064  41.071  23.521   4.505
83339W        W55065  25.649  33.979  10.684
83340W        W55066  25.108   6.667  12.970
83341W        W55067   9.804  25.068  11.120
83342W        W55068   9.456  34.420   0.410
83343W        W55069  27.595   5.369   4.196
83344W        W55070   0.230  24.889   0.316
83345W        W55071  33.480  43.432   9.966
83346W        W55072   6.342  23.305   4.326
83347W        W55073  15.892   2.822   2.642
83348W        W55074  35.292  24.139   2.746
83349W        W55075   2.313  36.397  14.521
83350W        W55076   3.169  13.010   3.409
83351W        W55077  34.793  36.856  13.304
83352W        W55078   5.345  30.140   0.004
83353W        W55079  33.145   5.756   3.267
83354W        W55080  18.991  17.701  13.456
83355W        W55081  10.289  41.350  10.717
83356W        W55082  29.404  37.862   2.707
83357W        W55083   0.760  42.580   4.557
83358W        W55084  28.599  19.309   2.075
83359W        W55085  23.984  37.972  14.791
83360W        W55086  32.042  17.651  12.586
83361W        W55087  23.570  44.988  13.430
83362W        W55088   6.811  43.804   3.772
83363W        W55089   2.468  32.614  14.823
83364W        W55090   5.238  21.479   0.921
83365W        W55091   0.003  35.434   0.393
83366W        W55092  36.352  24.924  14.074
83367W        W55093  37.053   3.612   2.293
83368W        W55094  32.567   0.098  12.650
83369W        W55095  38.867  16.982   3.197
83370W        W55096   3.009  15.067   4.467
83371W        W55097  15.425  17.162  10.701
83372W        W55098  27.130  23.621   0.965
83373W        W55099  38.795   2.255  14.385
83374W        W55100  22.726  37.270   4.575
83375W        W55101  38.313  26.215  14.954
83376W        W55102  41.884  14.201   3.563
83377W        W55103   1.432  27.477  12.374
83378W        W55104  10.187   9.439   1.430
83379W        W55105  39.511  38.987  12.617
83380W        W55106   3.290  10.399  14.858
83381W        W55107  32.014  29.464  13.502
83382W        W55108  25.347  35.136   3.125
83383W        W55109  24.758  32.771   1.447
83384W        W55110  32.331  10.573  11.134
83385W        W55111  17.546  31.985  14.749
83386W        W55112   5.358  27.522   0.216
83387W        W55113  15.702  17.553  12.443
83388W        W55114  30.227  44.189   1.408
83389W        W55115  13.833   7.784   1.391
83390W        W55116  35.592  12.509  11.528
83391W        W55117   7.715  29.182  12.910
83392W        W55118   3.366   0.852   1.022
83393W        W55119  32.153  24.634  13.370
83394W        W55120   6.143  24.984  13.069
83395W        W55121  29.781  33.985   4.015
83396W        W55122   2.449  41.023   1.408
83397W        W55123  36.823  38.969  14.537
83398W        W55124   7.385   7.772   2.708
83399W        W55125  32.688  13.729   0.896
83400W        W55126  19.040  36.376   3.889
83401W        W55127  22.753   4.678  14.957
83402W        W55128  26.039  15.289   2.346
83403W        W55129  41.565   7.178   1.670
83404W        W55130  34.132  15.815   0.392
83405W        W55131  30.139  25.258   5.013
83406W        W55132  30.244   5.370   2.743
83407W        W55133  26.988  40.760  12.464
83408W        W55134  25.581   6.657   4.211
83409W        W55135   9.946  40.995   3.385
83410W        W55136  39.817   2.855   2.309
83411W        W55137  16.964  35.195  12.015
83412W        W55138  21.634   3.978  11.055
83413W        W55139   0.813   1.154  10.656
83414W        W55140  31.988  26.171  13.949
83415W        W55141  44.366  20.263  11.563
83416W        W55142  37.618  31.932  13.782
83417W        W55143  42.336  18.614   0.213
83418W        W55144  24.634  12.139   4.704
83419W        W55145  28.146   8.439   3.242
83420W        W55146   3.750  40.583  13.089
83421W        W55147  35.696  12.064  13.070
83422W        W55148  11.286   6.227   1.248
83423W        W55149  21.475  35.090   1.628
83424W        W55150  35.061   1.986   2.778
83425W        W55151  38.929  11.244  12.978
83426W        W55152  11.335   1.440   2.456
83427W        W55153  20.433  31.899  11.170
83428W        W55154  21.992  29.242   1.309
83429W        W55155   2.531  33.953   3.419
83430W        W55156   0.836   0.029   0.975
83431W        W55157   9.093  28.950   2.852
83432W        W55158  14.767  18.775   2.227
83433W        W55159  41.820  29.905  11.668
83434W        W55160   9.142   1.461  14.306
83435W        W55161  37.046  11.951   4.616
83436W        W55162  13.286  12.661   0.074
83437W        W55163  41.837  38.183  12.133
83438W        W55164  20.333   5.942  11.169
83439W        W55165  10.848   1.565   2.142
83440W        W55166   4.989  24.034  11.477
83441W        W55167  36.562  17.344  10.615
83442W        W55168  10.087  22.796   0.714
83443W        W55169  19.237  14.884  14.033
83444W        W55170  21.689  23.524   1.007
83445W        W55171  14.189  26.465  14.998
83446W        W55172  39.394  43.753   4.503
83447W        W55173  26.804  29.975  14.133
83448W        W55174  43.985  36.701   2.919
83449W        W55175  12.853  43.523  13.101
83450W        W55176  17.763  34.379  14.803
83451W        W55177  17.239  31.039  10.062
83452W        W55178  14.843  37.416   3.642
83453W        W55179  24.808  43.343   0.680
83454W        W55180  14.085  16.128  10.682
83455W        W55181  14.198   1.842   1.850
83456W        W55182   5.747  25.589   4.938
83457W        W55183  10.780  20.582  11.068
83458W        W55184   9.461   2.344   1.761
83459W        W55185  34.378  39.082  14.924
83460W        W55186  21.021  16.643   2.966
83461W        W55187  35.087  34.077   4.355
83462W        W55188  13.723  28.489   4.913
83463W        W55189  22.279   4.985  14.766
83464W        W55190  29.791  10.584   1.352
83465W        W55191  11.721   4.487  11.406
83466W        W55192   0.778  42.590   3.757
83467W        W55193  43.155  42.806  13.658
83468W        W55194   8.894  21.505  13.096
83469W        W55195  27.548  41.953  10.761
83470W        W55196   1.194  34.523   3.015
83471W        W55197  38.013  17.293  13.528
83472W        W55198  42.379  19.821   0.008
83473W        W55199  19.283  25.549  12.888
83474W        W55200  31.707  15.099   2.811
83475W        W55201  37.357  25.110   2.606
83476W        W55202  19.704  43.764  14.008
83477W        W55203  28.858  20.373   4.166
83478W        W55204  43.463   1.315  11.971
83479W        W55205  17.599  37.475  11.899
83480W        W55206   0.866  26.907  10.309
83481W        W55207   5.526  30.089  12.005
83482W        W55208  11.732  23.986   4.616
83483W        W55209  12.778   7.941   4.090
83484W        W55210  44.998  38.129   3.315
83485W        W55211   2.487  37.922  11.614
83486W        W55212  29.423   9.914  10.795
83487W        W55213  36.782  30.479   2.612
83488W        W55214  17.614  34.821   2.345
83489W        W55215  41.003  18.527   3.885
83490W        W55216   6.265   0.774  12.591
83491W        W55217  20.781   5.329   0.372
83492W        W55218   1.497  35.258   0.945
83493W        W55219  10.340  33.100  13.560
83494W        W55220  21.666  44.017   1.370
83495W        W55221  22.773  24.178   4.490
83496W        W55222  39.361  17.876  12.388
83497W        W55223  14.901  11.321  13.521
83498W        W55224  22.026  31.120  13.898
83499W        W55225  15.115  23.955   0.259
83500W        W55226   4.866  31.893  11.192
83501W        W55227  15.178  32.526  10.684
83502W        W55228  37.705  26.817   3.121
83503W        W55229  23.817  36.427  11.008
83504W        W55230   8.679  20.576  12.768
83505W        W55231  29.502   0.391   2.886
83506W        W55232  34.336  16.346  10.606
83507W        W55233  10.866  20.337   1.293
83508W        W55234  36.517   2.023   0.934
83509W        W55235  13.727  17.506   3.836
83510W        W55236  13.801  15.721  13.334
83511W        W55237  24.752  19.024   1.010
83512W        W55238  25.044  19.373  13.463
83513W        W55239   2.725  19.187  11.472
83514W        W55240  23.015  38.649  11.897
83515W        W55241  12.394  41.440   2.332
83516W        W55242  36.627  22.170   0.949
83517W        W55243  24.483  19.125  13.019
83518W        W55244  27.036  29.684   0.416
83519W        W55245   7.275  19.190   3.757
83520W        W55246  23.942   2.014   3.208
83521W        W55247   5.401  42.471  13.485
83522W        W55248  44.844  38.850  10.078
83523W        W55249  43.645  27.526  12.803
83524W        W55250  37.727  11.635  10.592
83525W        W55251  34.066  38.142   2.311
83526W        W55252  38.613   5.369   0.407
83527W        W55253  20.634   9.090   4.729
83528W        W55254   8.910  12.251  11.450
83529W        W55255  16.310  38.297   4.248
83530W        W55256  10.949   3.258   4.584
83531W        W55257  29.941  23.728  14.360
83532W        W55258  25.877  18.525   3.836
83533W        W55259  39.455  15.934  11.501
83534W        W55260  12.613   3.236   4.253
83535W        W55261   6.388   4.737  11.354
83536W        W55262   4.405  36.602  12.674
83537W        W55263   3.639  31.005  10.720
83538W        W55264  25.145  32.626  14.423
83539W        W55265  30.120  32.617   4.612
83540W        W55266  18.534  31.568  13.090
83541W        W55267   6.832  21.469  12.433
83542W        W55268  22.634  20.984   4.262
83543W        W55269  16.879  39.101  13.948
83544W        W55270   2.522  18.328  14.044
83545W        W55271  29.604   8.466   4.533
83546W        W55272  38.816  30.190  12.507
83547W        W55273  13.379  12.588   4.570
83548W        W55274  43.940  30.921  13.731
83549W        W55275  36.632   3.480   3.104
83550W        W55276  29.117  15.117  11.377
83551W        W55277   9.776  41.492  10.678
83552W        W55278  33.894  38.332  13.834
83553W        W55279   8.980  24.036  11.024
83554W        W55280  43.953   0.948   2.413
83555W        W55281  26.098  33.647  13.453
83556W        W55282  29.088  13.295  11.106
83557W        W55283  41.528  29.129   3.737
83558W        W55284  37.167  25.782  12.908
83559W        W55285  41.875  33.710  11.143
83560W        W55286   3.859  23.612  13.052
83561W        W55287  29.831  11.397   3.800
83562W        W55288  42.475   8.918  11.324
83563W        W55289  28.201  23.194   1.466
83564W        W55290  14.864  10.882   1.353
83565W        W55291   8.138  31.615   1.213
83566W        W55292  27.518   1.499   1.936
83567W        W55293   4.217  40.075   3.297
83568W        W55294  23.110  25.652   2.313
83569W        W55295  27.529  33.793   4.233
83570W        W55296   1.321  36.398   0.302
83571W        W55297  35.783   7.617  11.101
83572W        W55298  13.147   9.705  11.872
83573W        W55299  30.488  13.883   4.682
83574W        W55300  25.022  10.939   0.432
83575W        W55301  33.894   7.720  10.735
83576W        W55302  22.565  33.585  12.113
83577W        W55303  31.433  39.891  13.355
83578W        W55304  44.274   2.668  11.184
83579W        W55305   1.512  36.085   4.879
83580W        W55306  12.237   4.351  11.389
83581W        W55307  11.635  40.400  12.137
83582W        W55308  29.506  13.360   1.717
83583W        W55309  24.617  38.031   3.304
83584W        W55310  41.123   6.785  13.803
83585W        W55311  12.755  14.334  14.779
83586W        W55312  22.092   4.432   4.565
83587W        W55313   9.287  39.933   0.927
83588W        W55314  20.094  43.906   0.776
83589W        W55315  36.602  23.779  12.963
83590W        W55316  14.198  32.602   2.235
83591W        W55317  24.732  21.212   2.883
83592W        W55318   7.612  41.494  13.380
83593W        W55319   2.337  31.589   4.834
83594W        W55320   8.766   0.576  12.544
83595W        W55321  19.275  25.289  10.357
83596W        W55322   3.064  27.485  10.692
83597W        W55323   1.802  32.117   1.870
83598W        W55324   5.193   5.840   2.786
83599W        W55325  22.731  43.881  14.197
83600W        W55326  42.818  30.372   0.300
83601W        W55327   9.427  42.920   1.006
83602W        W55328   8.395  18.206  10.730
83603W        W55329   9.946   6.334  14.710
83604W        W55330  43.755  11.173  14.210
83605W        W55331  25.822  23.978   3.134
83606W        W55332  26.577  12.744  12.568
83607W        W55333  19.347  10.426  12.325
83608W        W55334  27.680  10.750   4.479
83609W        W55335  42.355  21.413   3.023
83610W        W55336  20.565  34.988  10.694
83611W        W55337  15.647  35.307   0.024
83612W        W55338  39.921   2.871   0.340
83613W        W55339  16.805  15.290   0.905
83614W        W55340  40.978  43.871   3.252
83615W        W55341  27.911  36.535  14.876
83616W        W55342  13.168  44.253  10.583
83617W        W55343  13.784  23.732   2.227
83618W        W55344  36.463  35.888  14.329
83619W        W55345   0.665   8.201   0.263
83620W        W55346  30.032  31.726   2.460
83621W        W55347  43.337  10.814  14.908
83622W        W55348   4.377  38.493  13.327
83623W        W55349   7.222  24.813   5.289
83624W        W55350  16.092   8.953   2.280
83625W        W55351  33.486  22.143  11.578
83626W        W55352  14.602  10.140   0.881
83627W        W55353  32.715  18.044   4.069
83628W        W55354  13.308  43.491   0.834
83629W        W55355  20.500   1.244   2.371
83630W        W55356  26.624  36.947   3.311
83631W        W55357  30.101  22.613  13.420
83632W        W55358  29.154  16.464  14.788
83633W        W55359  31.258   2.325  11.711
83634W        W55360   9.243  42.660   2.433
83635W        W55361  37.537  23.737   2.807
83636W        W55362  31.025   8.626  11.939
83637W        W55363   2.797   7.350   2.432
83638W        W55364   5.685   1.331   0.883
83639W        W55365  15.870  33.733   2.235
83640W        W55366   0.926  11.336  12.569
83641W        W55367  12.699  36.902  13.542
83642W        W55368  14.263  27.756   3.668
83643W        W55369  26.475   9.719   1.724
83644W        W55370  18.723  38.769  13.962
83645W        W55371   9.167  42.926  13.798
83646W        W55372  28.442  10.540  13.532
83647W        W55373  31.371  37.299   0.499
83648W        W55374  42.861  38.647   1.369
83649W        W55375  16.149  43.301  11.588
83650W        W55376  28.304  34.521   2.298
83651W        W55377  18.169  13.546  13.076
83652W        W55378  38.077  12.629   3.983
83653W        W55379  17.642  13.595  14.345
83654W        W55380   7.666  16.086   1.898
83655W        W55381  17.127   8.216  11.166
83656W        W55382  39.097  36.612   2.867
83657W        W55383   2.107  11.396   0.014
83658W        W55384   3.948  30.038  13.272
83659W        W55385  31.857  26.226  14.870
83660W        W55386  11.359  34.488  10.082
83661W        W55387  41.476  11.272   3.361
83662W        W55388  23.131  29.562  10.724
83663W        W55389  37.256  40.891  11.185
83664W        W55390  44.418  39.829   0.458
83665W        W55391  31.337   2.227  12.202
83666W        W55392  13.789   2.978   1.438
83667W        W55393  40.399  43.497  11.711
83668W        W55394  25.510  24.676  11.988
83669W        W55395   1.541  19.179   0.252
83670W        W55396  11.387   7.068   0.306
83671W        W55397  14.348  36.173   3.278
83672W        W55398   3.338  37.693  12.307
83673W        W55399  26.738  16.320  14.757
83674W        W55400   2.371   3.545   3.297
83675W        W55401  37.859  41.800   1.357
83676W        W55402  11.738  28.688  13.848
83677W        W55403  38.959  22.530   0.283
83678W        W55404   4.868  16.609  10.085
83679W        W55405  31.225  11.731   5.199
83680W        W55406   6.396  36.992   3.709
83681W        W55407  30.600  30.968   5.132
83682W        W55408  22.088  15.638  11.393
83683W        W55409  33.042  40.461  14.964
83684W        W55410  31.401  30.654  13.401
83685W        W55411  26.682  20.165  11.976
83686W        W55412  20.230  19.600   1.897
83687W        W55413  30.568  11.562  11.901
83688W        W55414   3.824  27.496   4.804
83689W        W55415  20.811  14.652  11.858
83690W        W55416   1.746  17.216  10.926
83691W        W55417  28.074   1.420  13.334
83692W        W55418   7.102  14.223  12.213
83693W        W55419  40.522   6.378   2.854
83694W        W55420  42.081  11.853  12.387
83695W        W55421   4.069   5.680   9.786
83696W        W55422  14.883  27.178   2.137
83697W        W55423  32.191  14.318  11.610
83698W        W55424  21.794  39.755  12.898
83699W        W55425   4.447  15.070  11.120
83700W        W55426  38.545  37.803   3.179
83701W        W55427   8.325   9.183  11.201
83702W        W55428  27.060  16.279   2.828
83703W        W55429   9.949   5.871   2.716
83704W        W55430   5.757  25.896   0.900
83705W        W55431   6.136   1.731  14.872
83706W        W55432  33.120  42.376   1.303
83707W        W55433  42.353  17.494   4.771
83708W        W55434  37.610   8.445  11.898
83709W        W55435  14.605  20.101   0.311
83710W        W55436  22.717  30.724  14.355
83711W        W55437  43.238  44.955  11.999
83712W        W55438  28.042  30.387  14.853
83713W        W55439   9.700  26.134   0.860
83714W        W55440  18.768  30.409  14.782
83715W        W55441  29.892  18.006  12.084
83716W        W55442   7.292  43.920   4.375
83717W        W55443  34.854   0.257   3.204
83718W        W55444  33.853  23.747  11.853
83719W        W55445  36.839  36.833   2.330
83720W        W55446   7.190  14.603  14.891
83721W        W55447  16.080  32.501  12.064
83722W        W55448  30.492  21.356   3.397
83723W        W55449  44.745  24.854   1.668
83724W        W55450  14.639   2.757   3.802
83725W        W55451   0.561   4.242   4.734
83726W        W55452  43.786  37.546   0.563
83727W        W55453   9.412   4.864   1.951
83728W        W55454  44.783  24.417   1.918
83729W        W55455  17.144  32.030  13.911
83730W        W55456  28.913   7.136  12.600
83731W        W55457  27.423   3.327  11.690
83732W        W55458  30.493  17.751  11.499
83733W        W55459   7.238   4.876  13.498
83734W        W55460  42.498  33.606   1.376
83735W        W55461  20.355  15.676  12.129
83736W        W55462   2.673  23.734   4.164
83737W        W55463   8.244  29.058   0.163
83738W        W55464  12.652  39.798   2.409
83739W        W55465  35.368  23.635   4.590
83740W        W55466  16.545  37.453  10.364
83741W        W55467  34.848   9.361  10.769
83742W        W55468  25.115  42.808  12.995
83743W        W55469   5.749  31.351  13.333
83744W        W55470  16.084  36.612   1.839
83745W        W55471  37.087  37.108   0.566
83746W        W55472  13.317  20.049  12.467
83747W        W55473  11.940  35.522   4.171
83748W        W55474  35.035  41.786   4.170
83749W        W55475   5.267  14.297  12.472
83750W        W55476  20.271  19.588  11.646
83751W        W55477  32.069  30.686  13.936
83752W        W55478  13.310  44.009  11.548
83753W        W55479  29.027  31.374   3.806
83754W        W55480  30.702   1.907  12.068
83755W        W55481  42.269  26.165   2.682
83756W        W55482  23.198  44.106  11.486
83757W        W55483   7.700  32.745   4.289
83758W        W55484  10.609  19.586   1.286
83759W        W55485  19.790  32.674   0.168
83760W        W55486  19.867   8.878  11.878
83761W        W55487  32.140  26.024   9.855
83762W        W55488  15.922  25.277   1.460
83763W        W55489  43.690   9.780  12.862
83764W        W55490   4.381  40.773  14.256
83765W        W55491  28.499   4.293  11.166
83766W        W55492  26.694   5.772   4.751
83767W        W55493  30.827   3.844  14.173
83768W        W55494  23.547  33.820  13.008
83769W        W55495   3.841   1.708   0.404
83770W        W55496   0.038  10.527   4.886
83771W        W55497   1.762  34.612   1.733
83772W        W55498  39.428  13.527   4.568
83773W        W55499  12.770  42.826  14.344
83774W        W55500  15.607  13.705  11.564
83775W        W55501  17.099   2.965   0.730
83776W        W55502  27.563  41.846  13.509
83777W        W55503  31.486   2.850   0.758
83778W        W55504  26.540  20.472   2.896
83779W        W55505  37.896  37.518  11.713
83780W        W55506   4.756  21.130  12.622
83781W        W55507  15.717  16.761   2.037
83782W        W55508  16.319  34.521   2.795
83783W        W55509  17.782  38.480  11.901
83784W        W55510   6.714   7.235   3.161
83785W        W55511  31.978   3.840   1.661
83786W        W55512  21.034  12.487  13.773
83787W        W55513  22.311  14.044  10.421
83788W        W55514  35.359  33.156   4.532
83789W        W55515   9.449  17.141   0.657
83790W        W55516  20.692  24.963   2.359
83791W        W55517  25.508  35.103  13.064
83792W        W55518  34.164  40.823  11.533
83793W        W55519  21.539   7.331   1.691
83794W        W55520  20.129  30.633   2.361
83795W        W55521  27.576  33.135   0.652
83796W        W55522  12.864  18.044   4.838
83797W        W55523  30.342  42.809   3.695
83798W        W55524  25.944  26.696  11.174
83799W        W55525  44.721  20.593  10.622
83800W        W55526  12.348  27.508   1.162
83801W        W55527   3.869  34.993  11.719
83802W        W55528  24.142  23.467   3.085
83803W        W55529   4.994   7.752   2.740
83804W        W55530  14.683  14.580  10.427
83805W        W55531  43.982   0.718   2.858
83806W        W55532  32.080   2.544  11.473
83807W        W55533  10.880   3.698  12.558
83808W        W55534  10.689  35.881  12.604
83809W        W55535  30.721  31.702  14.020
83810W        W55536  42.461  39.304   1.302
83811W        W55537   9.305   4.512   1.355
83812W        W55538   9.344  12.809   0.824
83813W        W55539  33.505   5.897  13.120
83814W        W55540   5.222  17.200   4.874
83815W        W55541  16.145  19.799  14.925
83816W        W55542  39.450  44.299  10.723
83817W        W55543  42.537  26.666   3.367
83818W        W55544  18.831  12.164   1.833
83819W        W55545  41.415  30.948  11.141
83820W        W55546  38.455  32.402  10.467
83821W        W55547  37.043   1.151   1.743
83822W        W55548   9.932  14.086  11.136
83823W        W55549  25.129   1.234   9.838
83824W        W55550  19.518   7.737  12.989
83825W        W55551  20.168  30.611   5.096
83826W        W55552  15.543  27.971  11.576
83827W        W55553  19.555  42.306   3.572
83828W        W55554   9.382  34.635  14.954
83829W        W55555   4.538  19.922  14.422
83830W        W55556  29.620  44.775  12.925
83831W        W55557   8.854  39.893   3.687
83832W        W55558  16.997   2.556   4.579
83833W        W55559   1.717  14.660  14.423
83834W        W55560  43.046  40.699   0.287
83835W        W55561   4.442  41.004   2.638
83836W        W55562  34.836   5.736  11.881
83837W        W55563  26.207  43.289   0.918
83838W        W55564  35.372  34.125  14.312
83839W        W55565  21.778  23.225  12.462
83840W        W55566   0.814  34.443   0.519
83841W        W55567  39.057  28.900   0.946
83842W        W55568  22.747   9.818   3.611
83843W        W55569  36.095  27.716   4.644
83844W        W55570   2.946  26.903   3.921
83845W        W55571   3.720  13.236   4.855
83846W        W55572  44.697  16.694   2.904
83847W        W55573  11.259  36.097  11.420
83848W        W55574  37.152   2.800  13.383
83849W        W55575  40.788  38.673  14.959
83850W        W55576  17.681  34.013  12.158
83851W        W55577   5.844  26.999   1.475
83852W        W55578  12.341  18.770  11.933
83853W        W55579  20.971  31.584   0.902
83854W        W55580  33.937  36.656   0.519
83855W        W55581   8.483   0.653   2.780
83856W        W55582  15.704  37.159  12.023
83857W        W55583  27.426  27.564   3.400
83858W        W55584  36.610  44.563   1.834
83859W        W55585  38.217  27.455  11.917
83860W        W55586   2.434   7.169  11.224
83861W        W55587   6.326  23.294   4.854
83862W        W55588  25.766   5.766   0.265
83863W        W55589  28.448   2.457   2.178
83864W        W55590  11.714  14.763   2.158
83865W        W55591  26.630  13.911  13.959
83866W        W55592  30.657  38.124   1.427
83867W        W55593  37.087   4.648  11.471
83868W        W55594  13.558   2.358   3.239
83869W        W55595   4.949  31.866   0.172
83870W        W55596   6.059  27.494   4.158
83871W        W55597  11.807  21.567   4.709
83872W        W55598  16.681   5.611   2.807
83873W        W55599  10.639   7.762  11.925
83874W        W55600  29.153  38.514  10.652
83875W        W55601  36.960  36.531  11.053
83876W        W55602  15.198  18.040   1.921
83877W        W55603  44.040  24.560  14.780
83878W        W55604   5.134  44.976   2.383
83879W        W55605  20.173  29.574  10.897
83880W        W55606  31.816   5.911   9.916
83881W        W55607  30.672   1.850   0.269
83882W        W55608   5.162  12.889   5.082
83883W        W55609  20.235  13.086   2.002
83884W        W55610  36.798  28.595   2.808
83885W        W55611  27.185  43.977  14.857
83886W        W55612  41.046  19.843   2.050
83887W        W55613   2.068  14.172  11.110
83888W        W55614   0.884  41.643   1.333
83889W        W55615  28.086  17.190  14.534
83890W        W55616  42.309  22.716  13.856
83891W        W55617  20.464  26.009  11.056
83892W        W55618  23.893  40.846  12.493
83893W        W55619  41.301  29.638  14.802
83894W        W55620   3.361  24.231  10.725
83895W        W55621  22.958   5.318   2.485
83896W        W55622  41.857  44.882   2.257
83897W        W55623   5.681  26.597   0.702
83898W        W55624   0.720   7.288  13.995
83899W        W55625   1.759  19.010  11.208
83900W        W55626  33.182   7.618  14.254
83901W        W55627   4.188  34.948  13.945
83902W        W55628   4.015  39.751   1.739
83903W        W55629  37.930   8.667   1.904
83904W        W55630  17.644  38.754  12.466
83905W        W55631  21.800   1.180  14.739
83906W        W55632  26.535  30.469  11.071
83907W        W55633  24.452  37.578  14.243
83908W        W55634  32.491  22.760   2.561
83909W        W55635  13.938  36.477   3.370
83910W        W55636  41.549   0.344   2.136
83911W        W55637  41.459  29.377   0.819
83912W        W55638  13.863   0.816  14.272
83913W        W55639  30.117  33.907   3.626
83914W        W55640   0.553  16.385   2.790
83915W        W55641  37.154  21.604   0.821
83916W        W55642  27.493  33.141   2.622
83917W        W55643  20.309   8.674   4.663
83918W        W55644  10.899   4.312   2.802
83919W        W55645  34.024  26.762   1.428
83920W        W55646  23.511  21.801  11.602
83921W        W55647  40.353  10.651  11.859
83922W        W55648  20.630  39.819   0.795
83923W        W55649  21.955   5.858   3.444
83924W        W55650  27.711  33.476   3.837
83925W        W55651  21.977   3.969   4.350
83926W        W55652   7.978  10.193   1.200
83927W        W55653  37.501  17.509   2.689
83928W        W55654   3.740  11.273   4.549
83929W        W55655  41.562   9.721   2.077
83930W        W55656   1.182  28.524  11.609
83931W        W55657  32.650  42.089  14.430
83932W        W55658  37.802   0.731   1.147
83933W        W55659  17.784  27.658   2.565
83934W        W55660  25.982  44.735  11.270
83935W        W55661  14.180  33.423   2.616
83936W        W55662   7.472  20.267   2.068
83937W        W55663  15.752   8.408  11.291
83938W        W55664  16.621  24.159  11.060
83939W        W55665  15.678  24.205   1.629
83940W        W55666   8.134  12.739  12.834
83941W        W55667   9.353  38.978   2.738
83942W        W55668  12.984   1.740  11.524
83943W        W55669  21.055  43.317  12.918
83944W        W55670  11.204   7.224   1.200
83945W        W55671  36.326  35.411  12.846
83946W        W55672  16.219  19.457   2.730
83947W        W55673  44.510  19.107  14.283
83948W        W55674  12.426  36.001   2.465
83949W        W55675  20.791  31.797   0.449
83950W        W55676  11.699  22.411  14.892
83951W        W55677  31.644  11.205  10.399
83952W        W55678   4.495  35.109   2.919
83953W        W55679   0.256  28.449   0.544
83954W        W55680   1.263   2.143   4.705
83955W        W55681  34.589  21.604  14.374
83956W        W55682  37.768   5.255  14.499
83957W        W55683   7.007  30.543   0.280
83958W        W55684  27.266   1.168  14.803
83959W        W55685  22.278  19.670   4.092
83960W        W55686  24.013  22.979   3.136
83961W        W55687   5.881  13.451   1.801
83962W        W55688  24.644  40.277   1.404
83963W        W55689  26.588  31.556   2.902
83964W        W55690  26.759   6.251  13.032
83965W        W55691  34.987  15.294   4.304
83966W        W55692  19.329  21.067   4.159
83967W        W55693   0.721  39.881   4.316
83968W        W55694  17.785  11.741  11.111
83969W        W55695  15.855  13.872  12.022
83970W        W55696   7.850  22.007   1.488
83971W        W55697  31.924  41.811  14.627
83972W        W55698  40.730  40.096  12.869
83973W        W55699  24.101   8.989   2.399
83974W        W55700   7.162   3.892  14.294
83975W        W55701  25.188  11.395   2.248
83976W        W55702   1.277  29.946   0.182
83977W        W55703   6.970  28.582   0.904
83978W        W55704  39.433   1.914  12.057
83979W        W55705  33.604  19.646  14.814
83980W        W55706   6.653  20.641   1.299
83981W        W55707  20.303  27.703  13.987
83982W        W55708  10.256  28.533  10.930
83983W        W55709  25.733  10.718   2.251
83984W        W55710  12.189   3.873   2.716
83985W        W55711  24.123  19.288   2.206
83986W        W55712  33.561  33.526   1.884
83987W        W55713   9.672  31.915  12.960
83988W        W55714  38.494   2.922  13.502
83989W        W55715  10.696  21.319  12.647
83990W        W55716  38.818  11.532   5.053
83991W        W55717   2.876  42.557   2.387
83992W        W55718  18.673  43.425  11.919
83993W        W55719  18.281  32.032  13.931
83994W        W55720  34.544  15.909  14.607
83995W        W55721   4.379  27.440   1.716
83996W        W55722   3.459  17.851  13.909
83997W        W55723  30.926  25.058  13.822
83998W        W55724  11.608  36.883   4.295
83999W        W55725  21.502  18.667   3.372
84000W        W55726  25.701   6.073   2.306
84001W        W55727  31.708  19.849   0.399
84002W        W55728  23.245  26.245  13.019
84003W        W55729  26.797  37.590   0.905
84004W        W55730   3.823  34.561   0.989
84005W        W55731  40.342   7.230  11.549
84006W        W55732  32.565  19.474  12.406
84007W        W55733   4.579   9.447   2.754
84008W        W55734  27.868  21.092   1.854
84009W        W55735   9.402   6.753  11.578
84010W        W55736  42.804  24.091   1.364
84011W        W55737  18.975  44.241   4.122
84012W        W55738   4.195  18.585  14.609
84013W        W55739  31.335  35.281  13.602
84014W        W55740  43.866   7.679   0.508
84015W        W55741  23.713  35.940   3.115
84016W        W55742  23.634  42.060   4.618
84017W        W55743  29.646  20.733   4.035
84018W        W55744  40.555   1.460  13.050
84019W        W55745  16.691  35.862  13.802
84020W        W55746  14.865   8.362  12.536
84021W        W55747  11.200   7.536   3.755
84022W        W55748  21.268  14.261  14.650
84023W        W55749   6.922  10.801   2.184
84024W        W55750   9.767  16.871   2.363
84025W        W55751  20.263  44.962   3.245
84026W        W55752  22.660  41.010   4.179
84027W        W55753   4.240  26.468  14.029
84028W        W55754  37.787  32.533  12.071
84029W        W55755  33.586  34.091  14.462
84030W        W55756   7.850  40.556  10.990
84031W        W55757   1.481  27.533  11.490
84032W        W55758  43.294  20.644   4.745
84033W        W55759   2.756   8.991   2.442
84034W        W55760  21.039  29.720  13.387
84035W        W55761  40.585  11.844   5.072
84036W        W55762  43.181   7.350  14.883
84037W        W55763   1.070  22.636   3.749
84038W        W55764  16.641  23.456  10.660
84039W        W55765  22.971  42.352  12.095
84040W        W55766   7.607  22.378   4.150
84041W        W55767  36.880   6.198  14.769
84042W        W55768  18.016   5.908  11.103
84043W        W55769  41.698   3.614   0.930
84044W        W55770  25.366  13.696   3.775
84045W        W55771  29.670  29.606  11.110
84046W        W55772  15.652  38.148  14.546
84047W        W55773  38.030   9.871  11.110
84048W        W55774  11.385   5.334  12.907
84049W        W55775  35.006  16.295  11.047
84050W        W55776  30.116  10.152   3.192
84051W        W55777  22.057   5.224   2.358
84052W        W55778  42.475  25.470  10.643
84053W        W55779   9.139  30.101   2.562
84054W        W55780  14.728  20.255  11.152
84055W        W55781  21.647  29.935  14.673
84056W        W55782  41.321  33.128  11.597
84057W        W55783  17.170   9.654   1.420
84058W        W55784  26.047  27.208  11.642
84059W        W55785  35.258  21.511  11.592
84060W        W55786  26.220   2.705  14.892
84061W        W55787  40.741   4.018  13.888
84062W        W55788  24.244  19.459  10.991
84063W        W55789   4.985  14.240  11.265
84064W        W55790  32.147  35.670   3.711
84065W        W55791  37.675  22.714   1.952
84066W        W55792   0.396  10.344  14.294
84067W        W55793  20.507  44.269  14.418
84068W        W55794   4.394  19.361   0.227
84069W        W55795  29.487  13.120   1.260
84070W        W55796  21.686  30.900  11.483
84071W        W55797  38.558  36.898  14.038
84072W        W55798  31.986  24.787   4.265
84073W        W55799  29.429  35.083   3.931
84074W        W55800  24.999   9.395   0.977
84075W        W55801  12.171   3.493   4.240
84076W        W55802  27.066  14.675   3.711
84077W        W55803  43.774  29.480  10.763
84078W        W55804  33.383  22.305   1.410
84079W        W55805   9.527  35.250  14.283
84080W        W55806  35.865  41.790   1.205
84081W        W55807  14.650  14.288   4.931
84082W        W55808  19.325   6.915  11.511
84083W        W55809   8.878   7.826   5.175
84084W        W55810  12.111  41.429  11.123
84085W        W55811  13.920  15.105   0.345
84086W        W55812  34.087  26.379   1.062
84087W        W55813  33.159  35.077  11.176
84088W        W55814  42.625  26.606  11.372
84089W        W55815  29.929   3.807  10.418
84090W        W55816  30.442  36.962  14.005
84091W        W55817  29.136  28.743  11.157
84092W        W55818   4.304  35.551   3.700
84093W        W55819  36.522  12.049   4.655
84094W        W55820  20.241  24.620   0.361
84095W        W55821  12.050  16.114  14.464
84096W        W55822  20.517  33.687  11.914
84097W        W55823   0.259   6.976  11.608
84098W        W55824  28.943   2.311   2.471
84099W        W55825  17.630  12.033  12.642
84100W        W55826   6.454  16.670   3.773
84101W        W55827   0.874   6.740   4.875
84102W        W55828  18.563   0.986   2.708
84103W        W55829   9.158  41.432   0.372
84104W        W55830  24.733   5.804   3.816
84105W        W55831  14.513   4.975  14.134
84106W        W55832  10.110  34.603   0.825
84107W        W55833  25.287  25.073  14.815
84108W        W55834  39.884  21.742   0.771
84109W        W55835   3.965   6.731  13.052
84110W        W55836   8.847  38.707   3.347
84111W        W55837  36.128  27.486   0.062
84112W        W55838  13.719  32.364   2.296
84113W        W55839   6.310  24.254  11.462
84114W        W55840  10.362  43.427   0.465
84115W        W55841   3.710   1.843  14.797
84116W        W55842  14.836  14.271  13.103
84117W        W55843  41.503  31.396  11.389
84118W        W55844   6.294  42.930   0.276
84119W        W55845  12.868  36.663  12.999
84120W        W55846   4.740  36.415   2.621
84121W        W55847   5.583  35.942  13.803
84122W        W55848   8.836   3.614  12.500
84123W        W55849  19.699  10.070   3.066
84124W        W55850  17.826  12.820   3.161
84125W        W55851  37.611  31.494   0.834
84126W        W55852   0.732   1.918  12.072
84127W        W55853   4.450  19.652   0.988
84128W        W55854   0.334   6.856   3.154
84129W        W55855  18.635  21.318   2.806
84130W        W55856  22.247  10.747  14.311
84131W        W55857  42.933  26.450  13.478
84132W        W55858   8.112  17.160   1.781
84133W        W55859   5.348  43.208   2.545
84134W        W55860  39.679  21.752   2.795
84135W        W55861  14.739  25.940  12.094
84136W        W55862  32.852  39.363   3.168
84137W        W55863   2.768  22.714  12.895
84138W        W55864  11.369   8.691  13.263
84139W        W55865  29.454  21.623  13.548
84140W        W55866   0.372   0.232   1.697
84141W        W55867  23.589  23.740  14.349
84142W        W55868  36.124  28.441  11.540
84143W        W55869  23.054  21.486   1.291
84144W        W55870  21.054  35.948  12.973
84145W        W55871  26.723  21.227  13.900
84146W        W55872   6.736  25.601  14.885
84147W        W55873  24.433  20.596   0.420
84148W        W55874  16.556  17.383  11.654
84149W        W55875  14.692  13.237  13.427
84150W        W55876  22.505  38.571  14.830
84151W        W55877  33.473   4.199  13.529
84152W        W55878   0.740  27.478   4.286
84153W        W55879  32.045  29.506  10.691
84154W        W55880  24.008  20.581   1.742
84155W        W55881  29.662  12.069  12.885
84156W        W55882   9.852  17.180   4.234
84157W        W55883  28.977  35.346   1.291
84158W        W55884  10.617  29.501  12.502
84159W        W55885  31.702  27.847  12.891
84160W        W55886  26.543   7.387  12.307
84161W        W55887  39.880   4.935  14.902
84162W        W55888   2.831   9.956   2.372
84163W        W55889  11.276  21.313   4.625
84164W        W55890  39.618  26.566  14.935
84165W        W55891  41.850  18.482   3.909
84166W        W55892   6.193   4.678  10.896
84167W        W55893   5.801  44.685  14.779
84168W        W55894  25.963  24.434  12.014
84169W        W55895   4.834  34.608  13.471
84170W        W55896  13.279  41.057   4.152
84171W        W55897  40.920   9.419  14.109
84172W        W55898  33.372  29.037  12.520
84173W        W55899  44.483  40.765   0.339
84174W        W55900   1.909  42.726  12.940
84175W        W55901  20.679  38.257  12.836
84176W        W55902   8.266  21.623   0.737
84177W        W55903  35.887  24.157  14.408
84178W        W55904  11.778  14.805  12.537
84179W        W55905  24.063   2.990  11.539
84180W        W55906  33.990  31.169   2.677
84181W        W55907   3.667  12.285  11.088
84182W        W55908  42.367  24.680  13.549
84183W        W55909   8.899   3.481  13.093
84184W        W55910  16.120  37.772  11.516
84185W        W55911  42.380   1.191  14.985
84186W        W55912  30.669  39.518  10.745
84187W        W55913  26.212  19.259  12.125
84188W        W55914  32.446  26.507  13.927
84189W        W55915  28.367  34.985  14.100
84190W        W55916   0.382  44.498  12.360
84191W        W55917  18.240  10.790   1.715
84192W        W55918  44.266  37.692   1.733
84193W        W55919  30.493  14.632  11.895
84194W        W55920  20.493  43.736  14.393
84195W        W55921  42.450  32.445  13.366
84196W        W55922  27.031  37.867  10.279
84197W        W55923  42.866  43.346  10.564
84198W        W55924   2.265  43.244   3.455
84199W        W55925  18.146  34.093  11.882
84200W        W55926  38.765  41.884  13.978
84201W        W55927  29.190  32.003   3.333
84202W        W55928  26.710  16.174  10.975
84203W        W55929  30.186   1.202  13.346
84204W        W55930   5.664  36.439  10.644
84205W        W55931  16.736  11.850  11.613
84206W        W55932  43.337  43.511  14.212
84207W        W55933   3.806  25.932  10.660
84208W        W55934  26.648  34.462  13.496
84209W        W55935   5.636  39.093  11.051
84210W        W55936   3.287  16.836  12.857
84211W        W55937  38.073   5.338   0.430
84212W        W55938  31.425  30.438  12.890
84213W        W55939   4.802  31.041   3.737
84214W        W55940  38.159  11.266  12.316
84215W        W55941  33.437  14.493   0.202
84216W        W55942  13.795  13.136   0.870
84217W        W55943  44.729  26.537  13.374
84218W        W55944  10.416  35.113  11.580
84219W        W55945  16.258  41.737   1.129
84220W        W55946   3.430  22.761  13.412
84221W        W55947  43.865  18.259  12.000
84222W        W55948  13.315  18.293   2.860
84223W        W55949  17.254  37.798   4.979
84224W        W55950   8.886  35.156   0.911
84225W        W55951   2.355   5.498   2.818
84226W        W55952  19.743  24.790   0.364
84227W        W55953   3.297  25.796   2.764
84228W        W55954  27.946   7.951   3.276
84229W        W55955  34.420  24.173   2.726
84230W        W55956   1.371   1.327  13.470
84231W        W55957  36.222  34.332  12.628
84232W        W55958  35.343   1.484  10.454
84233W        W55959  42.411   7.969  11.881
84234W        W55960  32.623  28.858  12.150
84235W        W55961  10.428  28.262   3.033
84236W        W55962   8.523   2.496   2.823
84237W        W55963   5.498  32.535   1.809
84238W        W55964  23.116   2.772  10.744
84239W        W55965  28.587  18.297   2.648
84240W        W55966   9.185  30.593   2.754
84241W        W55967  17.872   9.293  14.463
84242W        W55968   6.670   8.929   0.189
84243W        W55969   5.271  41.902  12.187
84244W        W55970  24.249   8.183   2.007
84245W        W55971  44.466  33.413  11.606
84246W        W55972   1.642  20.131   2.911
84247W        W55973  29.584  15.057   4.171
84248W        W55974  16.062  23.589   0.254
84249W        W55975   8.977   4.176   3.695
84250W        W55976   0.026  42.243  11.015
84251W        W55977  39.878  19.090  12.910
84252W        W55978  27.677  22.061   3.895
84253W        W55979  34.069  39.513  13.851
84254W        W55980  42.598  28.419   1.300
84255W        W55981  31.045  44.562   4.205
84256W        W55982  42.801  10.622   4.595
84257W        W55983  20.544   4.204   2.787
84258W        W55984  23.303  24.137   2.230
84259W        W55985  34.092  36.789  11.066
84260W        W55986  31.121  42.496  12.912
84261W        W55987  14.680  23.610  14.286
84262W        W55988  39.114  44.286   2.244
84263W        W55989  34.486  38.445   2.311
84264W        W55990   2.400  17.128   3.263
84265W        W55991  34.173   1.735   2.842
84266W        W55992  34.066  31.170  12.019
84267W        W55993  22.431  15.056  14.353
84268W        W55994  11.547  14.384   2.438
84269W        W55995  23.920  26.263  11.633
84270W        W55996  33.210   1.300   1.450
84271W        W55997  14.720  28.240   0.426
84272W        W55998  23.581   2.978   3.829
84273W        W55999  15.135  25.332  12.846
84274W        W56000   7.255  42.368  14.777
84275W        W56001  34.546   5.833   3.338
84276W        W56002  31.844   2.077  13.493
84277W        W56003  42.875  31.156   5.106
84278W        W56004   7.140   5.855   5.067
84279W        W56005  42.937  31.228  12.910
84280W        W56006  39.991  29.980  12.890
84281W        W56007  39.094   3.498   0.888
84282W        W56008  13.164  28.230   0.796
84283W        W56009  30.871  31.438  10.546
84284W        W56010  42.324  27.035   3.649
84285W        W56011  18.935  35.502   2.861
84286W        W56012  39.137  25.100   3.416
84287W        W56013  39.572  35.739  12.543
84288W        W56014  29.827  20.541   4.488
84289W        W56015  15.282  34.854   4.028
84290W        W56016  42.954  30.394  14.503
84291W        W56017   9.988  28.994  14.430
84292W        W56018   8.973  25.614   0.274
84293W        W56019   8.049  31.007   3.289
84294W        W56020  16.046   4.491  11.664
84295W        W56021  35.457   7.782   0.747
84296W        W56022  14.818  11.171   0.904
84297W        W56023  16.587  21.741  12.543
84298W        W56024  15.006  16.864   1.355
84299W        W56025  18.981   9.320   0.404
84300W        W56026  37.487  20.014   0.555
84301W        W56027  22.549   7.361   3.808
84302W        W56028  30.845  32.190   0.257
84303W        W56029  21.559  10.239   1.926
84304W        W56030   8.363  43.296   3.267
84305W        W56031  20.260  25.665  11.570
84306W        W56032  20.088  31.968  14.935
84307W        W56033  12.413  10.293  11.471
84308W        W56034   2.667  30.596   0.473
84309W        W56035  43.305  20.609  12.135
84310W        W56036  43.082  13.192  12.318
84311W        W56037  16.139  36.463  14.956
84312W        W56038   5.615  23.793  13.873
84313W        W56039  41.486   8.274   4.380
84314W        W56040  36.775  33.105   3.563
84315W        W56041  44.771  34.339  12.290
84316W        W56042   9.954  14.586  12.066
84317W        W56043  10.832  26.250  13.891
84318W        W56044   9.881   1.453  12.914
84319W        W56045   0.755  20.258  11.072
84320W        W56046   7.629  34.169   3.327
84321W        W56047  19.832  18.621  11.455
84322W        W56048  12.706  36.877   3.816
84323W        W56049  22.150  33.040  11.563
84324W        W56050  40.462  25.099  12.196
84325W        W56051  33.493  29.176   2.756
84326W        W56052  31.703  27.504   4.247
84327W        W56053   8.660  17.089  11.022
84328W        W56054  16.822  10.777  13.531
84329W        W56055   2.160  12.283  13.359
84330W        W56056   4.278  15.092  13.486
84331W        W56057   5.967  20.036  14.398
84332W        W56058  13.274  34.482  14.740
84333W        W56059  14.696  15.307   2.353
84334W        W56060   9.386  43.977  11.969
84335W        W56061  38.339  31.989  12.561
84336W        W56062  28.307   4.116   0.007
84337W        W56063   6.703  41.899   1.741
84338W        W56064  40.368  17.334   9.730
84339W        W56065   2.851  39.350   1.844
84340W        W56066  35.610  14.294   2.706
84341W        W56067  29.074  13.729   2.453
84342W        W56068   0.175  44.739   1.527
84343W        W56069  12.798  30.370  12.977
84344W        W56070  28.835  41.029   1.873
84345W        W56071  34.213  22.147   1.639
84346W        W56072  42.444  34.198  12.899
84347W        W56073  17.272   2.188   4.336
84348W        W56074  11.280  44.573  11.041
84349W        W56075  44.300  35.915   1.437
84350W        W56076  29.401  21.709   1.131
84351W        W56077  38.347  14.896  11.516
84352W        W56078  12.293  11.421   4.674
84353W        W56079   2.458  12.633   3.761
84354W        W56080   9.426  26.404   3.849
84355W        W56081  37.753  24.765  11.103
84356W        W56082  33.587   9.781  12.070
84357W        W56083  23.205   4.169   3.189
84358W        W56084   9.420  14.180  10.256
84359W        W56085  39.432  34.902  10.271
84360W        W56086   2.475  35.062   1.225
84361W        W56087  41.293   6.561   3.404
84362W        W56088  24.547  43.397  14.657
84363W        W56089  22.582  17.856   2.430
84364W        W56090  28.942   0.247   2.778
84365W        W56091  37.069   9.856  12.008
84366W        W56092   4.044  22.476  12.663
84367W        W56093  20.145  28.210  14.037
84368W        W56094  21.271  31.522   2.800
84369W        W56095  29.333  37.511  11.547
84370W        W56096  37.796  35.601   0.335
84371W        W56097  41.412  20.903   3.659
84372W        W56098  44.748  11.245  14.003
84373W        W56099  43.761   4.400  10.936
84374W        W56100  14.175  25.792   3.660
84375W        W56101  10.891  14.341  12.650
84376W        W56102  43.891  30.637  10.637
84377W        W56103  19.299   9.590  11.681
84378W        W56104  30.713  26.147   4.645
84379W        W56105  43.572  28.846  11.615
84380W        W56106  28.669  35.553  13.516
84381W        W56107  14.324   6.295   3.727
84382W        W56108   4.888  17.092  13.845
84383W        W56109  14.888  40.790  11.982
84384W        W56110   5.753  44.508   4.878
84385W        W56111   6.365  11.570  11.756
84386W        W56112   6.206   3.418   0.970
84387W        W56113  27.297  26.201   3.308
84388W        W56114  42.722  32.958   4.208
84389W        W56115  31.130  26.995   2.700
84390W        W56116  21.826  42.792   3.559
84391W        W56117  17.754  17.165  12.369
84392W        W56118  42.580   1.230  12.490
84393W        W56119  34.623  27.174  13.779
84394W        W56120  14.216   8.867   4.556
84395W        W56121  35.495  41.547   4.110
84396W        W56122  31.236   9.088  14.836
84397W        W56123  15.335  29.002  10.929
84398W        W56124  19.354  10.007  12.019
84399W        W56125   8.149  13.487  12.546
84400W        W56126  32.472  23.747   2.760
84401W        W56127  15.158  38.064   9.674
84402W        W56128  24.108  23.287   4.611
84403W        W56129  29.664  10.136  14.492
84404W        W56130  31.613  30.880   0.268
84405W        W56131  32.684  24.230   5.531
84406W        W56132   4.516  43.035   0.629
84407W        W56133  41.177  28.002  13.916
84408W        W56134  41.441  41.786  12.596
84409W        W56135  34.843  42.581  10.670
84410W        W56136  33.490  24.090   1.937
84411W        W56137  32.614  21.006  12.518
84412W        W56138  31.940  24.569   4.782
84413W        W56139  18.835  28.360  10.899
84414W        W56140  37.111   6.941  13.091
84415W        W56141  26.132   5.845  10.846
84416W        W56142  35.166  32.934   3.728
84417W        W56143  15.659   1.499  12.217
84418W        W56144  26.715  15.408   2.871
84419W        W56145   7.263  11.589  14.918
84420W        W56146  29.531  30.352  13.379
84421W        W56147  24.703  11.948   3.759
84422W        W56148  41.615  22.568   0.847
84423W        W56149   8.765  18.522  10.505
84424W        W56150  27.227  32.347   2.605
84425W        W56151  41.407  21.642  11.643
84426W        W56152  35.884  40.741  12.940
84427W        W56153  22.312  12.744  12.489
84428W        W56154  11.412   3.736  10.589
84429W        W56155  20.544  27.662  14.491
84430W        W56156   1.960  24.773   3.670
84431W        W56157  38.992   8.367  12.619
84432W        W56158  22.717  28.832   3.362
84433W        W56159  34.615   2.432  13.390
84434W        W56160  21.110  30.058   2.404
84435W        W56161  40.698  33.235   1.364
84436W        W56162  37.912  35.309  10.688
84437W        W56163  39.615  39.507  13.378
84438W        W56164   9.423   8.925  11.290
84439W        W56165  36.391  37.920   0.376
84440W        W56166  11.920  16.022   0.510
84441W        W56167  37.417  23.547  11.612
84442W        W56168  25.433  20.704   4.507
84443W        W56169  18.752  42.967  12.147
84444W        W56170   7.142  31.951  11.864
84445W        W56171  42.531  39.952  13.952
84446W        W56172  10.667  41.569  11.621
84447W        W56173  11.254  42.921   3.844
84448W        W56174  26.504   0.450   2.650
84449W        W56175  21.168  37.811   4.587
84450W        W56176  15.273  42.470  10.439
84451W        W56177  28.453  43.763   2.624
84452W        W56178  23.587  27.393  11.557
84453W        W56179  13.315  19.774  10.301
84454W        W56180  20.266  13.966   3.293
84455W        W56181  33.801  22.492   2.921
84456W        W56182  31.538  31.679  13.334
84457W        W56183   2.334  39.774   0.691
84458W        W56184  28.541  41.534   1.239
84459W        W56185  22.985  17.350  14.882
84460W        W56186  39.586  19.252   3.416
84461W        W56187   7.444  38.867   3.383
84462W        W56188   1.507  44.453   1.792
84463W        W56189  30.023  42.544   2.766
84464W        W56190  11.068  37.975  12.033
84465W        W56191  41.302  21.035  11.873
84466W        W56192  43.586  33.539  10.061
84467W        W56193   9.356  18.022  12.208
84468W        W56194   1.053  43.007   4.573
84469W        W56195  33.630   9.318   1.554
84470W        W56196   9.224  18.096   1.860
84471W        W56197  10.306  24.196  10.954
84472W        W56198  18.298  41.398  10.734
84473W        W56199  18.057  21.836  10.712
84474W        W56200  35.053   2.911   0.840
84475W        W56201  35.060   2.357  14.331
84476W        W56202  42.811  29.650  13.176
84477W        W56203  12.661  15.105   1.057
84478W        W56204   1.420   1.884  13.098
84479W        W56205  36.591  42.776   2.163
84480W        W56206  38.937   5.215  12.443
84481W        W56207   9.764   3.720   4.513
84482W        W56208  26.556  24.076  11.115
84483W        W56209  36.845  37.552   1.927
84484W        W56210  23.051   5.479   1.206
84485W        W56211  14.658  15.007  13.778
84486W        W56212  40.862  29.074   4.919
84487W        W56213  26.262  33.591   0.688
84488W        W56214  12.319  22.852   3.848
84489W        W56215   9.861  26.542   4.167
84490W        W56216  27.951  44.957   4.599
84491W        W56217   0.548   4.298  11.973
84492W        W56218  15.563  18.651  10.504
84493W        W56219  33.050  36.928  13.438
84494W        W56220  20.681  27.193   4.230
84495W        W56221  31.036  36.373   1.166
84496W        W56222   3.104  29.562  14.750
84497W        W56223  32.912   3.961   2.694
84498W        W56224   5.305  18.974  14.366
84499W        W56225  36.464   7.453   4.626
84500W        W56226  37.863  15.707   3.284
84501W        W56227  39.889  40.538   4.541
84502W        W56228   3.661  18.083  14.394
84503W        W56229  36.284   9.811   0.417
84504W        W56230  14.071  44.752  10.595
84505W        W56231  15.271  36.312   1.262
84506W        W56232  32.037  39.442  11.344
84507W        W56233  29.436  24.161   5.502
84508W        W56234   1.203  43.544   3.713
84509W        W56235  20.027  16.212  13.792
84510W        W56236  40.017  32.465   0.005
84511W        W56237  29.174  20.777  12.167
84512W        W56238  23.264  17.827   0.002
84513W        W56239  32.974  20.793   0.489
84514W        W56240   8.851   1.342   1.312
84515W        W56241   3.195  26.569   1.445
84516W        W56242   8.109  30.415   4.107
84517W        W56243  40.944  37.068  12.918
84518W        W56244  24.946  39.439  13.145
84519W        W56245   6.033  34.500  11.065
84520W        W56246  37.886  39.488   0.841
84521W        W56247  14.113  29.422   4.095
84522W        W56248  32.370  12.701  11.074
84523W        W56249  15.701  42.527  14.801
84524W        W56250  10.229  30.607  12.891
84525W        W56251   5.208   6.258   2.457
84526W        W56252  16.322  30.392  14.772
84527W        W56253  31.124   3.698   2.880
84528W        W56254   3.093   3.163  11.785
84529W        W56255  27.149  43.882   3.165
84530W        W56256  14.822  18.715  13.511
84531W        W56257  29.422  14.111  12.111
84532W        W56258  28.593   6.858  11.115
84533W        W56259  41.356  26.043  11.668
84534W        W56260  39.430  24.937  14.260
84535W        W56261  16.850   9.078  11.502
84536W        W56262  40.518  10.155   1.482
84537W        W56263  14.310   4.904   0.673
84538W        W56264  22.560  30.643  12.584
84539W        W56265  31.123   0.568   2.160
84540W        W56266  28.716   2.404  12.410
84541W        W56267   3.929  29.610   0.378
84542W        W56268  10.290   9.697   4.150
84543W        W56269   6.019   7.823   2.813
84544W        W56270   8.363  10.708   4.787
84545W        W56271   0.383  16.007  14.380
84546W        W56272  27.506  22.021   2.827
84547W        W56273  14.138   7.115   3.293
84548W        W56274  12.134  27.508   0.595
84549W        W56275  12.205  39.932  11.104
84550W        W56276   1.449  21.004   2.878
84551W        W56277  30.619   1.353  14.087
84552W        W56278  14.073  31.082  12.961
84553W        W56279   3.778  33.026  12.092
84554W        W56280  44.208   2.334   1.698
84555W        W56281   0.218  15.722   2.278
84556W        W56282   1.569   2.930   2.642
84557W        W56283  19.442  40.511   0.308
84558W        W56284  19.755  25.186  10.719
84559W        W56285  20.921   8.229   0.750
84560W        W56286  20.984  23.186  11.274
84561W        W56287  31.355   9.700  10.310
84562W        W56288  29.642   4.771  11.315
84563W        W56289   9.230   1.030   4.342
84564W        W56290   4.332  39.937  13.483
84565W        W56291  31.183  13.426   3.626
84566W        W56292   2.915  28.041  10.750
84567W        W56293  31.458  25.700   3.707
84568W        W56294   4.454   7.442   2.839
84569W        W56295   0.177  32.345  13.817
84570W        W56296  19.037  23.531  11.637
84571W        W56297  43.463   9.582   2.258
84572W        W56298  20.031   5.281   2.430
84573W        W56299   5.377  25.054   3.308
84574W        W56300  10.209  42.565   2.684
84575W        W56301   8.229  23.950   1.931
84576W        W56302  30.114  27.249   0.859
84577W        W56303  35.751  36.737  12.460
84578W        W56304  24.476  25.426   1.967
84579W        W56305  37.743  27.505  10.211
84580W        W56306   8.255   0.445  14.013
84581W        W56307   0.226  30.473   3.843
84582W        W56308  16.880  35.598   4.728
84583W        W56309   4.792  19.090   1.479
84584W        W56310  21.455  37.297   4.599
84585W        W56311  44.791  10.682   2.924
84586W        W56312  34.082  26.561   2.850
84587W        W56313  28.783  31.000  12.936
84588W        W56314  35.555   1.276  14.020
84589W        W56315  37.862  20.554   0.628
84590W        W56316  19.008  30.668   0.985
84591W        W56317  20.570   1.307   1.861
84592W        W56318   8.524  31.453   1.503
84593W        W56319  25.763  44.704   3.159
84594W        W56320  30.629  30.096   4.410
84595W        W56321  11.164   0.278  11.569
84596W        W56322  18.497   6.743   0.833
84597W        W56323   1.866   1.144   1.364
84598W        W56324   9.833  21.126  12.937
84599W        W56325  18.102  39.589   2.725
84600W        W56326  33.132  44.233   9.920
84601W        W56327  44.814  39.539   4.482
84602W        W56328  13.801  30.145   1.432
84603W        W56329  23.282  21.707   0.356
84604W        W56330  17.591   5.216   3.329
84605W        W56331  24.533  32.350   2.272
84606W        W56332   2.456  19.457  12.541
84607W        W56333   9.836  42.914   1.818
84608W        W56334  19.987  17.187  14.842
84609W        W56335   2.440   2.768  14.911
84610W        W56336  38.406  33.175  13.108
84611W        W56337  32.682  17.726   4.700
84612W        W56338  43.343  37.878  13.025
84613W        W56339   4.834  12.479   0.737
84614W        W56340  26.446   1.687  11.333
84615W        W56341  26.288  31.031   4.206
84616W        W56342  20.778  21.450  12.945
84617W        W56343  44.721  23.613  13.481
84618W        W56344  25.524  43.805   3.133
84619W        W56345  29.500  21.239  10.156
84620W        W56346  19.529  15.522   1.775
84621W        W56347   7.727  12.396  13.149
84622W        W56348   2.713  39.427   1.338
84623W        W56349  15.690  28.960  14.450
84624W        W56350  12.491   3.749  13.474
84625W        W56351   5.308  20.905  12.045
84626W        W56352  40.836  19.493  12.956
84627W        W56353  39.484   8.106   1.821
84628W        W56354   6.330  14.821   1.881
84629W        W56355  14.302  33.591   1.155
84630W        W56356  14.169  12.256   2.768
84631W        W56357   7.344  18.669  11.390
84632W        W56358  37.358  42.945   5.000
84633W        W56359   5.283  17.113   0.527
84634W        W56360  24.789  34.954   0.757
84635W        W56361   1.000  31.137   2.203
84636W        W56362  29.019  36.106   3.301
84637W        W56363   1.432   1.466  12.435
84638W        W56364  41.994  29.769  14.068
84639W        W56365  10.808  17.558  11.140
84640W        W56366  21.654  15.613   3.334
84641W        W56367  34.006  44.442   2.243
84642W        W56368  19.982  26.135   4.213
84643W        W56369  44.166   1.746  10.820
84644W        W56370  30.529  43.949  11.107
84645W        W56371   8.376  36.880   2.181
84646W        W56372  37.360   3.739  13.751
84647W        W56373   9.709  34.314  10.606
84648W        W56374  29.538   3.695   1.895
84649W        W56375  28.344  25.851  11.625
84650W        W56376  13.811  30.374   0.846
84651W        W56377   3.891   1.276   1.385
84652W        W56378   3.367  28.896   0.472
84653W        W56379   3.488  42.483  12.017
84654W        W56380  24.023  40.923  13.991
84655W        W56381  23.432  27.088   3.617
84656W        W56382  33.067  18.054   2.993
84657W        W56383  39.254  15.215   2.900
84658W        W56384  26.071  20.022   2.411
84659W        W56385  21.690  16.829   0.443
84660W        W56386   7.282   4.839   3.468
84661W        W56387  38.945  27.026   1.364
84662W        W56388  44.572  43.777   4.464
84663W        W56389  33.355  13.120  13.128
84664W        W56390   3.934  21.078   4.901
84665W        W56391  38.020  20.581  13.618
84666W        W56392  36.538  36.807  11.155
84667W        W56393   3.408  19.676  10.453
84668W        W56394  41.031   6.276   2.925
84669W        W56395   6.869  33.894  10.861
84670W        W56396  24.422   3.138  13.332
84671W        W56397   1.939  44.551  14.771
84672W        W56398  14.578   1.273   3.359
84673W        W56399  43.821  28.544   4.422
84674W        W56400  20.913  37.809   0.745
84675W        W56401   4.110  16.078  10.760
84676W        W56402  24.918  10.296  12.061
84677W        W56403  29.900   3.788  12.970
84678W        W56404  13.472   3.785  11.617
84679W        W56405  29.988  43.005  12.173
84680W        W56406  40.002  44.348  14.097
84681W        W56407  13.725  18.546   3.777
84682W        W56408  29.950  19.265  10.687
84683W        W56409   5.760   6.771   0.252
84684W        W56410   9.590  39.056   3.674
84685W        W56411  32.127   4.861  12.943
84686W        W56412  36.831  19.501   4.179
84687W        W56413  19.971  19.497   5.053
84688W        W56414   2.005  36.000  12.956
84689W        W56415  31.368  21.651   2.924
84690W        W56416  14.771  32.613   3.766
84691W        W56417  15.827  17.352   0.920
84692W        W56418   5.410  21.124   0.566
84693W        W56419  32.207   1.309   1.309
84694W        W56420  13.769  37.384  13.049
84695W        W56421   3.035  44.314   1.887
84696W        W56422   3.672   6.951   0.263
84697W        W56423  18.451   5.343  14.296
84698W        W56424   3.757  42.919   3.648
84699W        W56425  39.533   5.811  13.000
84700W        W56426   1.020  37.451  11.182
84701W        W56427  15.867  22.505  13.514
84702W        W56428  40.643   3.395  13.981
84703W        W56429  21.300  41.922   1.887
84704W        W56430  41.531  41.561  10.781
84705W        W56431  29.415  15.467  13.997
84706W        W56432  20.137  42.807  10.775
84707W        W56433   3.973  24.753  11.116
84708W        W56434  30.670  12.415  12.435
84709W        W56435  32.402  22.252   1.724
84710W        W56436  16.427  25.566   4.123
84711W        W56437  12.093  25.109   3.399
84712W        W56438  35.978  17.170   4.465
84713W        W56439   1.209  34.039   1.282
84714W        W56440  41.015  30.662   1.126
84715W        W56441  22.022   8.655  11.064
84716W        W56442  44.599  32.137  12.160
84717W        W56443  44.491  33.155   2.786
84718W        W56444  11.715  26.896  14.498
84719W        W56445  44.557  44.517  12.956
84720W        W56446  31.488  42.137   0.782
84721W        W56447  14.048  16.041  12.435
84722W        W56448   2.297  38.344   1.227
84723W        W56449  17.704   0.024  11.973
84724W        W56450  26.220  22.062   3.733
84725W        W56451  37.968  32.035  11.447
84726W        W56452  44.417   9.836   5.055
84727W        W56453  44.521  37.007   0.460
84728W        W56454  16.604  10.517  12.419
84729W        W56455  41.495  32.093  10.715
84730W        W56456  44.444  11.052  12.930
84731W        W56457  13.859  39.614  12.064
84732W        W56458   5.320  37.539  11.248
84733W        W56459  17.719  17.157   2.322
84734W        W56460  32.488  19.286   1.947
84735W        W56461  14.775  15.842  14.052
84736W        W56462  14.143   5.078   3.294
84737W        W56463   1.313  35.954  13.520
84738W        W56464  40.234  44.399   4.576
84739W        W56465   3.998  30.545   0.453
84740W        W56466  42.112  19.598  13.664
84741W        W56467  23.236   7.254  11.934
84742W        W56468   7.183   3.091  14.633
84743W        W56469  23.290  19.141   0.662
84744W        W56470  13.600  14.374  12.155
84745W        W56471  23.722  40.420  12.006
84746W        W56472  19.576  38.298   0.067
84747W        W56473  39.949  15.024   1.443
84748W        W56474  40.273   5.239   2.259
84749W        W56475   2.835  44.576  13.164
84750W        W56476   1.474  24.409   1.217
84751W        W56477   8.604   2.328  12.148
84752W        W56478  25.385   5.220  12.775
84753W        W56479   1.140  39.508   4.007
84754W        W56480  26.374  11.849   1.645
84755W        W56481   0.378  43.809   1.190
84756W        W56482   7.621   3.906  10.659
84757W        W56483  18.031  44.340  12.423
84758W        W56484  42.757  27.201  12.987
84759W        W56485  21.240   3.709  14.746
84760W        W56486   8.616  34.886   1.719
84761W        W56487  13.167  14.730  12.091
84762W        W56488  20.014   6.854  13.867
84763W        W56489  21.201  27.991   3.945
84764W        W56490   2.728  26.294   1.336
84765W        W56491  25.603  23.182  12.100
84766W        W56492   1.618  29.051  13.536
84767W        W56493  43.891   2.344  11.193
84768W        W56494  22.136  20.783  12.937
84769W        W56495  36.957   3.252   1.846
84770W        W56496  10.810  36.840   0.446
84771W        W56497  39.314  32.231  13.060
84772W        W56498   0.499   3.384  13.956
84773W        W56499  40.323  12.236  12.536
84774W        W56500  33.917  32.611   0.890
84775W        W56501   1.990  42.436  12.510
84776W        W56502  37.416  25.511  13.753
84777W        W56503  24.934  44.771   3.732
84778W        W56504  30.409  23.909   4.070
84779W        W56505  22.927   7.714   1.466
84780W        W56506   9.016  37.563   4.515
84781W        W56507   0.718  36.779  12.587
84782W        W56508  20.148  26.251   1.326
84783W        W56509  42.849  27.485  14.252
84784W        W56510  31.598  15.731  14.816
84785W        W56511  31.517  23.624   0.692
84786W        W56512   8.233  32.912  13.278
84787W        W56513  33.705  37.310   1.353
84788W        W56514  22.484  44.529  11.061
84789W        W56515  10.757  14.032  14.284
84790W        W56516  31.470  39.907   4.110
84791W        W56517   5.678  25.746  12.936
84792W        W56518   5.736  16.150  13.531
84793W        W56519  28.528  34.173   2.645
84794W        W56520  41.002  34.709   2.322
84795W        W56521  24.934  27.881  14.735
84796W        W56522  18.084  30.402   1.284
84797W        W56523   0.357  29.129   4.146
84798W        W56524  17.004   2.404   2.821
84799W        W56525  24.660   5.942  11.531
84800W        W56526  33.835  11.967  11.954
84801W        W56527  37.613  24.040   2.320
84802W        W56528  35.275   8.316  13.925
84803W        W56529  17.161  43.264  13.265
84804W        W56530  15.595  18.762  13.863
84805W        W56531  44.077  32.995  12.110
84806W        W56532  41.282  31.483  11.880
84807W        W56533  34.066   0.525  13.493
84808W        W56534  15.095   1.260  11.130
84809W        W56535  13.300  17.868   3.146
84810W        W56536  37.286  13.131   1.439
84811W        W56537  35.025  38.624  14.328
84812W        W56538  37.596  27.706   2.282
84813W        W56539   2.107  24.048  12.088
84814W        W56540  32.409   3.235   4.643
84815W        W56541  19.522  17.142   1.745
84816W        W56542  11.792   0.280  14.006
84817W        W56543  21.523  29.558  14.347
84818W        W56544  26.115  38.019  10.467
84819W        W56545  10.990  16.737  11.581
84820W        W56546  44.918   4.051  10.450
84821W        W56547   6.907  19.598  11.031
84822W        W56548  11.575  19.535  13.754
84823W        W56549  18.149  24.599  13.790
84824W        W56550   4.353  42.156   3.965
84825W        W56551  41.777  19.252  12.092
84826W        W56552  32.581   5.877  12.839
84827W        W56553  32.598  22.584  10.770
84828W        W56554   1.453  25.451  11.110
84829W        W56555  17.565  41.905   2.707
84830W        W56556  23.987   3.279   3.738
84831W        W56557  41.087   6.503  12.407
84832W        W56558  32.564  27.133   2.836
84833W        W56559   6.821  30.918  13.414
84834W        W56560  25.684  27.623  11.601
84835W        W56561  24.814  38.519  13.034
84836W        W56562  16.837  19.263  10.743
84837W        W56563  39.064  31.076   3.675
84838W        W56564  27.924  11.881   1.256
84839W        W56565  11.410   1.789  11.606
84840W        W56566   1.781  32.589   4.037
84841W        W56567  20.081  12.447  12.452
84842W        W56568  23.010  25.431  10.648
84843W        W56569  43.770   2.860   4.547
84844W        W56570  25.271   1.589   0.935
84845W        W56571  38.598  13.729   2.658
84846W        W56572  23.008  14.686  14.975
84847W        W56573  33.295   2.209   2.269
84848W        W56574  23.623  39.498  11.984
84849W        W56575  27.858  12.268  14.804
84850W        W56576  20.101  32.521   1.143
84851W        W56577  10.234   3.652   1.377
84852W        W56578  18.828  10.990   4.529
84853W        W56579  27.145  44.335  10.178
84854W        W56580  30.042  17.544   4.108
84855W        W56581  23.652   0.889  13.238
84856W        W56582  20.859  33.961  11.567
84857W        W56583  44.874  38.508  11.456
84858W        W56584  31.758   9.247   4.711
84859W        W56585   8.767  29.401  14.512
84860W        W56586   1.505  19.684   1.919
84861W        W56587   6.197  18.578   3.132
84862W        W56588   7.363  11.482  13.098
84863W        W56589  11.242   7.073  10.936
84864W        W56590   1.014  26.461   1.922
84865W        W56591  35.322  12.613   2.512
84866W        W56592  41.620  35.852   2.812
84867W        W56593   2.746  43.097   0.831
84868W        W56594   4.966  31.087  13.818
84869W        W56595  42.300   8.737   3.732
84870W        W56596  36.112  40.099   0.527
84871W        W56597   6.870  27.992   2.107
84872W        W56598  42.026   2.255  14.357
84873W        W56599  21.972  18.706   3.159
84874W        W56600  16.867   1.901   0.466
84875W        W56601  22.602  22.713   2.341
84876W        W56602  10.812  43.943   3.573
84877W        W56603  40.773  16.343   2.014
84878W        W56604   1.736  23.111  13.718
84879W        W56605  32.552   4.901  13.955
84880W        W56606  39.362   1.755  11.561
84881W        W56607  12.184  37.397   1.137
84882W        W56608  31.201   4.408   2.231
84883W        W56609  27.672  40.832   2.172
84884W        W56610  31.061   2.765   3.761
84885W        W56611  16.768  30.362   4.580
84886W        W56612  14.459  26.224   1.270
84887W        W56613  41.467  21.996  12.836
84888W        W56614  13.650  21.981   0.303
84889W        W56615  16.609  23.630   1.960
84890W        W56616  42.113  17.212   0.183
84891W        W56617   8.361   7.398  11.929
84892W        W56618  10.026  30.514  13.731
84893W        W56619   3.750  25.914   1.133
84894W        W56620  31.648  21.124  11.969
84895W        W56621  28.901  18.365  12.052
84896W        W56622  22.041   0.269   0.885
84897W        W56623  23.174  43.170  11.707
84898W        W56624  33.479   5.152   3.745
84899W        W56625  32.279  33.578  11.321
84900W        W56626  38.781  19.317  12.772
84901W        W56627  15.618  35.429   3.254
84902W        W56628  39.483   7.833   2.869
84903W        W56629  17.004  37.874   2.639
84904W        W56630  29.111   1.217  11.527
84905W        W56631  41.888  32.137   0.926
84906W        W56632  26.491  16.598   1.260
84907W        W56633   9.853  11.559   1.934
84908W        W56634   7.796   8.062   4.411
84909W        W56635   5.171   9.614  13.954
84910W        W56636   1.431  25.699  13.368
84911W        W56637  39.855  20.833  14.362
84912W        W56638  34.859  43.725   1.830
84913W        W56639  28.397   5.912  14.451
84914W        W56640   3.423  40.489   2.840
84915W        W56641  33.951   8.466   2.106
84916W        W56642  30.381  18.549  14.067
84917W        W56643  42.604  10.303   4.208
84918W        W56644  44.905  23.237   4.363
84919W        W56645  41.393  39.883   3.127
84920W        W56646  22.268  33.146   4.344
84921W        W56647   7.251  28.192   0.469
84922W        W56648  20.530  18.058  14.862
84923W        W56649  25.097  32.478  11.938
84924W        W56650  22.727  41.792  14.486
84925W        W56651   4.047   4.265   1.903
84926W        W56652  23.624  16.391  11.527
84927W        W56653   0.152  13.838   4.088
84928W        W56654  25.675  33.370   3.726
84929W        W56655  10.708  39.094   1.165
84930W        W56656  26.212   2.188   4.633
84931W        W56657  36.066  23.470  11.269
84932W        W56658  14.313  11.398   0.889
84933W        W56659   0.516  22.510   4.346
84934W        W56660  41.904  24.603   0.517
84935W        W56661  40.530  29.909   3.673
84936W        W56662  32.654   0.295  13.543
84937W        W56663  28.190  26.963   3.438
84938W        W56664  18.684  22.912   4.891
84939W        W56665  22.956  11.051  10.341
84940W        W56666   5.634  32.037  12.064
84941W        W56667  17.661  13.594   4.068
84942W        W56668   3.909  34.512   0.476
84943W        W56669  20.472  22.524   4.011
84944W        W56670   0.084  40.588  11.426
84945W        W56671  44.285  37.972   2.670
84946W        W56672  40.612  33.680  11.940
84947W        W56673   4.813   3.062  11.947
84948W        W56674  10.331   2.820   2.482
84949W        W56675  21.219  20.264   4.663
84950W        W56676  36.091   8.295  12.934
84951W        W56677  31.675  20.067   3.823
84952W        W56678  29.913  44.322  12.978
84953W        W56679  35.087  10.641   1.714
84954W        W56680  35.677  25.228   1.404
84955W        W56681  13.256  35.631   4.268
84956W        W56682  33.321  35.229   3.897
84957W        W56683  14.625   2.955   1.443
84958W        W56684   8.767  31.491   2.359
84959W        W56685  38.052  20.576  12.508
84960W        W56686  43.304  33.309   2.766
84961W        W56687  22.776  24.255  14.307
84962W        W56688  16.519  40.056   2.231
84963W        W56689   5.446  23.237   1.695
84964W        W56690   3.664  41.398   4.218
84965W        W56691  12.371  29.094  14.983
84966W        W56692  17.527  38.246  11.523
84967W        W56693  25.225  27.769  11.908
84968W        W56694   6.622  25.754  12.009
84969W        W56695  25.623   8.897  12.453
84970W        W56696  25.955   0.470   3.162
84971W        W56697  42.357  40.742   3.178
84972W        W56698  41.462  44.559   2.874
84973W        W56699  17.679  17.576  14.944
84974W        W56700  31.863  20.645  14.470
84975W        W56701  18.300  22.984   3.646
84976W        W56702   7.850  33.583   0.445
84977W        W56703  16.640  11.620   4.127
84978W        W56704   6.245  12.183   1.897
84979W        W56705  43.376   2.473  11.434
84980W        W56706  15.418   6.989  14.106
84981W        W56707  29.180  36.728   3.925
84982W        W56708   6.516  26.774  14.389
84983W        W56709   0.514  34.584  14.857
84984W        W56710   7.719  29.548   0.398
84985W        W56711  33.876  41.199  13.314
84986W        W56712  28.073   2.303  12.575
84987W        W56713  36.400  29.199   3.351
84988W        W56714   2.517  29.828   4.267
84989W        W56715  41.517   6.444   0.400
84990W        W56716  39.342  13.188   2.688
84991W        W56717  18.550  10.107  13.920
84992W        W56718  21.789   1.793   3.958
84993W        W56719  14.151  43.546   3.669
84994W        W56720  36.385  38.356   4.589
84995W        W56721  21.093  38.348  12.035
84996W        W56722  40.124  41.901  13.847
84997W        W56723   6.713  38.844   3.825
84998W        W56724  29.359   0.445  13.487
84999W        W56725  27.159  20.633  13.331
85000W        W56726  24.008  34.986  12.065
85001W        W56727  18.704   1.982   2.703
85002W        W56728  39.034  34.207   1.320
85003W        W56729  40.345  43.358   2.165
85004W        W56730   0.244  19.360  11.068
85005W        W56731  32.906  33.620  14.773
85006W        W56732  23.274  19.497  12.900
85007W        W56733   8.216  31.511  13.481
85008W        W56734   6.623  31.584  11.747
85009W        W56735  20.254  44.790   0.755
85010W        W56736  12.613  26.208  13.408
85011W        W56737   9.747  26.158   1.910
85012W        W56738  10.757  26.551  14.327
85013W        W56739   0.378  43.226   3.282
85014W        W56740  21.008  39.517  11.418
85015W        W56741  16.226  40.237  11.507
85016W        W56742  32.893   1.755   0.741
85017W        W56743  21.299  35.776   5.037
85018W        W56744  32.945  41.765  14.681
85019W        W56745  33.942  15.977   3.215
85020W        W56746  40.223  21.293  10.448
85021W        W56747  16.398  39.910   4.464
85022W        W56748  41.973  30.534  12.351
85023W        W56749  36.116  42.907   4.550
85024W        W56750  31.125  26.193  13.625
85025W        W56751   6.122  16.054  12.069
85026W        W56752  21.007  18.977  12.116
85027W        W56753  42.850   3.369   0.433
85028W        W56754  10.853  43.211   4.662
85029W        W56755  33.000  23.739  12.079
85030W        W56756  34.555  34.531   3.454
85031W        W56757  37.677  35.334  12.405
85032W        W56758  29.197   6.208   4.470
85033W        W56759  23.609  34.784   3.250
85034W        W56760  11.911  12.274   0.415
85035W        W56761  43.734  40.387  12.951
85036W        W56762  29.480   6.432   0.537
85037W        W56763  10.107   8.564   3.213
85038W        W56764   8.783  11.344  13.364
85039W        W56765   1.825  36.877   3.741
85040W        W56766  43.987  11.388   4.143
85041W        W56767  24.223  10.961   0.753
85042W        W56768  24.008  44.717   1.765
85043W        W56769   1.917  24.580  12.835
85044W        W56770  25.111  35.137  14.339
85045W        W56771  30.167  29.822  11.249
85046W        W56772  24.762  17.613   1.681
85047W        W56773  44.006  35.186   1.921
85048W        W56774  34.149  26.049   0.288
85049W        W56775  15.353  38.345   1.198
85050W        W56776  38.838  11.129  11.089
85051W        W56777  19.498  30.084  13.516
85052W        W56778   1.928  23.719   0.028
85053W        W56779  43.692  19.294   1.973
85054W        W56780  35.319   0.289   3.431
85055W        W56781  13.640  32.596  12.324
85056W        W56782   0.433  43.828  12.782
85057W        W56783  19.159  41.379   2.704
85058W        W56784  35.891  24.021   0.884
85059W        W56785  31.170  33.936  13.576
85060W        W56786   1.947  20.398   4.770
85061W        W56787  18.791  27.953   4.596
85062W        W56788  29.463  28.651  12.512
85063W        W56789  19.776  19.698   4.595
85064W        W56790  40.546  25.557   4.786
85065W        W56791  35.448   9.690   2.654
85066W        W56792  13.359  27.750  10.944
85067W        W56793  34.360  41.417   0.420
85068W        W56794  30.171   4.168  12.753
85069W        W56795  22.119  15.600  14.510
85070W        W56796  33.346  34.090   0.818
85071W        W56797  32.127  34.004  12.181
85072W        W56798   8.402  25.660  12.864
85073W        W56799  43.570  35.583   0.319
85074W        W56800  26.818  24.798  13.766
85075W        W56801  12.382  26.552  10.681
85076W        W56802  30.116  11.853  13.081
85077W        W56803   5.263   5.005   1.880
85078W        W56804  29.627  33.982  12.118
85079W        W56805  26.723  18.732  13.522
85080W        W56806  36.612  30.439  14.890
85081W        W56807   8.448   4.284  10.790
85082W        W56808  43.841  39.222   0.796
85083W        W56809  35.149  14.319  14.687
85084W        W56810  13.720  39.470  10.671
85085W        W56811  35.517  39.875   3.611
85086W        W56812  23.832   3.742   0.075
85087W        W56813  16.066  33.431   1.822
85088W        W56814   9.908  42.276  13.023
85089W        W56815  40.966  16.975  14.927
85090W        W56816  10.819   5.255   0.693
85091W        W56817  12.687   9.475  11.534
85092W        W56818  15.287   2.212   2.229
85093W        W56819   4.228  20.775  11.372
85094W        W56820  40.090  35.906  11.947
85095W        W56821  38.343  22.545   4.556
85096W        W56822  31.541  29.377  12.893
85097W        W56823  40.920  28.013   2.773
85098W        W56824   9.195  23.503   1.678
85099W        W56825  37.810  25.013  12.204
85100W        W56826  21.171  11.261   4.468
85101W        W56827   2.018  35.403   4.242
85102W        W56828   2.827  38.979   3.749
85103W        W56829   5.825  15.741   5.585
85104W        W56830  38.755  21.665   4.723
85105W        W56831   7.169  10.637  14.792
85106W        W56832  25.648  26.656  11.605
85107W        W56833   7.759  21.478   0.825
85108W        W56834  36.449  38.810  11.545
85109W        W56835  44.059  39.899   5.147
85110W        W56836  14.016   1.783  13.512
85111W        W56837  36.168   5.363   0.240
85112W        W56838  23.039  34.079  14.733
85113W        W56839  40.764   1.415   0.733
85114W        W56840  20.735  35.932   1.441
85115W        W56841  25.991  30.531   2.018
85116W        W56842  14.240  18.498  14.002
85117W        W56843  12.638  31.014   3.896
85118W        W56844  18.000  24.452   1.148
85119W        W56845  30.095  34.939  12.051
85120W        W56846   4.733  25.271  14.871
85121W        W56847   1.445  26.466  12.003
85122W        W56848  24.169  42.256   3.707
85123W        W56849   1.914  37.951   0.475
85124W        W56850  23.767  30.006   4.769
85125W        W56851  31.983   5.703  12.047
85126W        W56852  30.989  20.688  11.884
85127W        W56853  40.005  13.295   0.377
85128W        W56854  42.924  24.960  14.431
85129W        W56855  11.411   3.301  14.812
85130W        W56856   0.302  29.929   0.963
85131W        W56857  29.630  28.918   0.888
85132W        W56858  23.512   5.430   0.317
85133W        W56859  39.064  44.382  13.821
85134W        W56860   3.202  11.156   1.105
85135W        W56861  43.319  23.107   1.313
85136W        W56862  14.725   4.250  10.866
85137W        W56863  13.671  24.529   0.832
85138W        W56864  30.634  24.769  11.166
85139W        W56865  21.459  27.736   3.580
85140W        W56866  24.254  18.426  12.620
85141W        W56867  18.529  21.595  10.841
85142W        W56868   3.308  32.302   3.267
85143W        W56869  35.771  33.421  12.426
85144W        W56870   0.277  19.126  14.741
85145W        W56871  22.973   5.410  12.474
85146W        W56872  43.777  36.967   1.750
85147W        W56873  34.828  38.587   0.251
85148W        W56874  34.875  17.490   3.792
85149W        W56875  21.138  11.616   4.075
85150W        W56876  11.315   9.750  12.115
85151W        W56877  26.469  20.786  10.509
85152W        W56878  25.410  40.770  12.940
85153W        W56879   2.837  17.492   2.239
85154W        W56880  33.652   2.888  10.677
85155W        W56881   8.200  12.404   3.561
85156W        W56882  26.213  18.687  14.878
85157W        W56883   5.319  40.407  14.259
85158W        W56884  14.790  27.196  11.047
85159W        W56885  22.614  14.073  11.184
85160W        W56886  29.035   3.885   3.671
85161W        W56887  25.123  32.004   4.654
85162W        W56888  25.104   4.940   5.089
85163W        W56889  37.716  19.941   2.705
85164W        W56890  23.448  20.312  11.493
85165W        W56891   8.290  40.820  14.391
85166W        W56892  31.104  12.821   2.422
85167W        W56893  13.623   4.330   2.182
85168W        W56894  14.200  40.598   0.268
85169W        W56895  27.508  39.958  13.031
85170W        W56896  32.464  34.375   0.747
85171W        W56897  39.375  27.188   3.733
85172W        W56898  29.616  18.169  10.785
85173W        W56899  27.730  19.123  11.942
85174W        W56900  13.912  25.760   0.714
85175W        W56901  32.163  33.612   4.197
85176W        W56902   4.264  13.127   0.292
85177W        W56903  26.926  44.011   0.918
85178W        W56904  36.181  34.730  12.281
85179W        W56905   3.340  19.177   1.793
85180W        W56906  30.587  42.427   2.374
85181W        W56907  13.871  29.140   3.676
85182W        W56908   6.665  43.397   0.878
85183W        W56909   1.381   6.868   4.171
85184W        W56910  36.035  40.473   2.122
85185W        W56911   7.749  44.555   2.755
85186W        W56912  33.145  17.302   1.784
85187W        W56913  41.281   0.985  10.663
85188W        W56914  42.604  39.298  10.567
85189W        W56915  11.349  26.640   2.414
85190W        W56916  22.588   7.388   1.707
85191W        W56917  37.954  15.403  13.316
85192W        W56918  25.485  14.344  13.350
85193W        W56919  18.240  33.627   0.020
85194W        W56920  42.205   4.659   0.485
85195W        W56921  13.674  19.048   3.708
85196W        W56922   8.516  29.247   1.982
85197W        W56923  29.594  13.637  13.995
85198W        W56924  21.530  24.102  11.606
85199W        W56925  41.214   4.682   3.639
85200W        W56926  42.895  27.612   0.332
85201W        W56927   7.870  18.188  10.688
85202W        W56928  11.892  10.674  12.938
85203W        W56929   2.849  23.603  12.314
85204W        W56930  30.385  14.399  13.503
85205W        W56931   4.020  25.223  12.411
85206W        W56932  44.175  39.626   0.046
85207W        W56933  15.652  41.331   4.715
85208W        W56934  37.900  35.254  11.920
85209W        W56935  24.667  14.993  13.511
85210W        W56936  15.357  16.285   4.946
85211W        W56937  44.852  17.790  11.256
85212W        W56938  13.565  40.418  11.832
85213W        W56939  41.482  10.626  10.440
85214W        W56940  40.279  40.826   1.992
85215W        W56941  28.022  26.712   3.022
85216W        W56942  19.587  28.952   3.262
85217W        W56943  32.097  16.755  11.614
85218W        W56944  42.311  26.864  14.439
85219W        W56945  40.027  30.447  13.995
85220W        W56946  13.376  22.207  12.900
85221W        W56947  20.658   1.478  13.953
85222W        W56948  40.084  38.160   4.157
85223W        W56949  35.898  44.433   0.050
85224W        W56950   5.948   1.972  13.448
85225W        W56951  17.772  41.538   0.904
85226W        W56952  41.393   8.252  12.913
85227W        W56953  20.482  10.581  13.924
85228W        W56954  26.158   7.040   1.318
85229W        W56955   3.306  19.183   4.504
85230W        W56956  35.269  18.163   4.690
85231W        W56957  42.399  28.676   0.843
85232W        W56958  42.225  13.111   1.391
85233W        W56959   1.320  36.935  13.534
85234W        W56960  10.370   1.567  12.026
85235W        W56961  31.398  12.734  14.513
85236W        W56962  42.936  27.775  13.851
85237W        W56963   0.462  14.989   4.452
85238W        W56964  31.958  42.344   5.025
85239W        W56965  33.009  18.186   4.789
85240W        W56966  10.737   9.504   2.343
85241W        W56967   9.201  27.723  12.115
85242W        W56968  17.683   1.263  11.433
85243W        W56969  22.610   0.354  13.597
85244W        W56970  26.695  11.718  14.489
85245W        W56971   1.283  17.086   0.976
85246W        W56972  25.281  27.081  10.949
85247W        W56973  11.423  38.519  12.812
85248W        W56974  19.048  38.402   1.777
85249W        W56975   9.413  33.858   3.990
85250W        W56976  23.704  36.712   3.795
85251W        W56977   6.207  21.218  11.151
85252W        W56978  22.215   7.160   3.479
85253W        W56979  37.806  33.537  11.570
85254W        W56980  11.758  41.883   4.125
85255W        W56981  18.581   2.857   4.569
85256W        W56982  21.734   5.376  12.951
85257W        W56983  12.200  30.622   1.942
85258W        W56984   4.695  27.600   2.123
85259W        W56985  10.307   4.505   0.024
85260W        W56986  20.939  30.668   0.401
85261W        W56987  39.084   7.402   2.999
85262W        W56988  22.638  12.383  13.090
85263W        W56989   4.325  12.591  14.227
85264W        W56990  33.326   4.901   1.647
85265W        W56991  36.849   2.230  11.624
85266W        W56992  43.023  39.791  13.990
85267W        W56993  40.279  26.304   0.914
85268W        W56994   2.185  38.695  11.922
85269W        W56995   1.957  11.465   3.631
85270W        W56996  19.327   7.714   0.850
85271W        W56997  13.878  33.982  14.939
85272W        W56998  35.184  10.829   2.705
85273W        W56999  35.270  38.418  13.922
85274W        W57000  26.856  17.453   0.924
85275W        W57001  12.810   5.358   3.431
85276W        W57002  35.895  28.925  14.038
85277W        W57003   4.529   0.316   4.195
85278W        W57004  24.715   6.986   4.134
85279W        W57005  33.103   3.298  12.042
85280W        W57006   8.114  41.396   3.397
85281W        W57007   8.259  29.892   1.241
85282W        W57008  17.121  20.445  13.470
85283W        W57009   4.636  37.052  11.155
85284W        W57010  31.409  19.772   4.217
85285W        W57011  11.148   8.189   0.739
85286W        W57012  37.999   6.644  14.430
85287W        W57013   4.394  24.067   1.895
85288W        W57014  43.587  35.377  14.102
85289W        W57015   7.937  36.404  12.493
85290W        W57016   6.213  42.025  13.008
85291W        W57017   3.405  35.057  10.784
85292W        W57018  40.468  17.333  10.339
85293W        W57019  25.244  13.805   5.215
85294W        W57020  14.694  43.889  12.505
85295W        W57021   7.407  18.727   4.484
85296W        W57022   6.410  43.953   2.232
85297W        W57023  38.014  22.898  13.671
85298W        W57024  22.214  42.478  14.351
85299W        W57025  24.432  40.753   1.373
85300W        W57026  41.562  38.165   4.022
85301W        W57027  13.985   2.444   0.705
85302W        W57028  35.826  17.101   3.968
85303W        W57029  24.014  37.869   1.047
85304W        W57030   7.362  25.274  12.461
85305W        W57031  18.496   7.736   3.387
85306W        W57032   7.898  15.809  13.016
85307W        W57033  37.629  37.048   0.623
85308W        W57034  27.898  15.666  11.040
85309W        W57035  14.832  28.975  14.886
85310W        W57036  26.829  35.339   2.936
85311W        W57037  25.536  27.943   0.335
85312W        W57038   9.385  13.098   2.205
85313W        W57039  35.382  39.067  13.580
85314W        W57040  44.332  21.189   0.925
85315W        W57041  21.936  41.088   3.747
85316W        W57042  34.164   7.812  11.189
85317W        W57043  33.066  28.476  14.695
85318W        W57044  18.946   7.258   2.558
85319W        W57045  34.656  13.786  13.981
85320W        W57046   5.048  16.069   4.050
85321W        W57047  31.165  16.228   3.267
85322W        W57048  35.083  16.236   4.759
85323W        W57049  16.878  29.606   4.768
85324W        W57050  12.008  12.392   1.292
85325W        W57051  12.097  16.877  11.133
85326W        W57052  38.872  18.037  11.080
85327W        W57053  30.145  11.262  10.958
85328W        W57054  34.049  27.730  11.559
85329W        W57055  13.345  25.823   2.001
85330W        W57056  15.733  38.920   3.236
85331W        W57057  14.108  36.615   0.506
85332W        W57058   1.617   3.290  14.422
85333W        W57059  13.187  18.237   1.838
85334W        W57060  36.344  42.494  11.417
85335W        W57061  20.576  37.905   2.755
85336W        W57062  42.247  38.286  13.853
85337W        W57063  21.379  28.958  13.798
85338W        W57064  25.987  18.476   3.334
85339W        W57065  24.358  29.269  11.107
85340W        W57066  31.513  19.760  12.083
85341W        W57067   0.364   9.677   1.150
85342W        W57068  25.962  17.613   3.369
85343W        W57069  24.630  10.219   1.275
85344W        W57070  29.647  30.420  13.878
85345W        W57071  27.186  21.184   4.434
85346W        W57072  38.142  39.555  12.401
85347W        W57073   2.779  26.068   4.380
85348W        W57074  22.010  10.396   3.029
85349W        W57075  11.132   7.358  10.527
85350W        W57076  23.024  37.421  10.449
85351W        W57077  17.616  10.238  10.723
85352W        W57078  20.145  21.787  11.546
85353W        W57079   7.699  11.799   2.882
85354W        W57080  36.010   3.243  14.173
85355W        W57081   1.076   8.159  13.573
85356W        W57082  25.106   9.473  11.871
85357W        W57083  42.952  18.222   3.808
85358W        W57084  42.263  23.249  13.874
85359W        W57085  25.571  34.387   3.740
85360W        W57086  12.990  12.227   4.651
85361W        W57087  41.510  13.684   0.001
85362W        W57088  15.677  20.459  10.516
85363W        W57089  30.360  19.712   1.710
85364W        W57090  14.748  35.654   2.636
85365W        W57091  39.534  17.589  12.011
85366W        W57092   1.279  29.455  12.577
85367W        W57093  23.453  11.803   2.108
85368W        W57094  21.903  36.972  14.289
85369W        W57095  38.869  31.472  12.012
85370W        W57096  28.657  15.221   2.660
85371W        W57097  18.271  36.490   2.631
85372W        W57098  44.538   9.355  14.475
85373W        W57099  14.644   4.527   4.164
85374W        W57100  35.348  17.975  11.149
85375W        W57101  35.072  18.076   0.344
85376W        W57102  24.960  11.130   2.681
85377W        W57103  11.803  27.274  13.007
85378W        W57104  21.582   0.433  14.362
85379W        W57105  36.821  10.186  12.456
85380W        W57106  19.151  40.403  11.964
85381W        W57107   2.109  34.006   0.911
85382W        W57108  43.296  37.035   1.928
85383W        W57109  15.711  13.794  13.024
85384W        W57110  11.644  35.204  11.814
85385W        W57111  37.511  14.877  14.857
85386W        W57112  23.454   7.069   1.900
85387W        W57113  28.684  36.774   0.374
85388W        W57114  40.376  43.468  13.386
85389W        W57115   9.294  17.515   2.807
85390W        W57116  39.822   3.997  14.085
85391W        W57117  14.823   0.510   4.368
85392W        W57118  35.454  12.796  14.923
85393W        W57119   1.687  36.383   1.271
85394W        W57120  44.010  29.474   4.181
85395W        W57121  40.826  42.969   2.872
85396W        W57122  27.019   3.279  14.694
85397W        W57123   2.967  12.704   2.679
85398W        W57124  23.583  29.221   2.624
85399W        W57125   5.510  36.587   4.113
85400W        W57126  18.460   8.155   0.792
85401W        W57127  23.819  28.117  11.609
85402W        W57128   6.404  28.525  12.802
85403W        W57129  31.692   6.856  13.424
85404W        W57130   2.607   2.192   1.711
85405W        W57131   2.869  27.053   4.416
85406W        W57132  15.337   7.805  14.590
85407W        W57133  26.437  12.797  13.923
85408W        W57134  25.157  13.454  14.787
85409W        W57135  41.709  42.765   2.612
85410W        W57136  29.849  43.029   2.315
85411W        W57137  21.445  12.577  11.049
85412W        W57138  43.295  10.276   0.428
85413W        W57139  24.105  38.689  13.501
85414W        W57140  26.740  22.065   0.459
85415W        W57141  22.760  30.175  11.106
85416W        W57142  39.094  36.736   0.300
85417W        W57143  16.790  34.026  10.892
85418W        W57144  35.430  34.153  11.946
85419W        W57145   2.001  43.997  10.681
85420W        W57146  39.836   6.034   2.677
85421W        W57147  36.862  40.856   3.987
85422W        W57148   4.539  30.615   3.844
85423W        W57149  27.990   3.739  13.326
85424W        W57150   6.963   8.616  14.875
85425W        W57151  12.101  27.736  12.047
85426W        W57152  15.337   3.907  10.412
85427W        W57153  24.932  15.385   0.012
85428W        W57154   1.688  24.184  13.046
85429W        W57155   3.763   9.565   3.018
85430W        W57156  31.902  21.563   3.801
85431W        W57157  10.207  18.289  14.377
85432W        W57158  13.200   1.381   2.240
85433W        W57159  14.414  31.862  14.010
85434W        W57160  42.320   9.739  11.130
85435W        W57161  34.023  43.309   1.364
85436W        W57162  44.721  32.072  13.900
85437W        W57163   3.613  29.523  14.740
85438W        W57164  28.196  10.816  13.899
85439W        W57165  23.228  13.140  10.698
85440W        W57166  21.117  44.539  11.079
85441W        W57167   2.375   1.281   1.453
85442W        W57168   7.147  19.887   1.191
85443W        W57169  21.137   8.371  12.783
85444W        W57170   5.874  10.938   3.201
85445W        W57171  29.919   9.722   1.396
85446W        W57172  25.646  12.174   0.066
85447W        W57173  10.341   7.772  10.578
85448W        W57174  38.040   1.731  13.403
85449W        W57175  24.023  21.841  14.381
85450W        W57176  28.614  27.141   2.557
85451W        W57177  29.080  23.879  11.637
85452W        W57178   0.879  10.229  13.468
85453W        W57179  19.122   4.988   1.037
85454W        W57180  29.218  11.372  14.452
85455W        W57181  41.563   0.351   3.172
85456W        W57182  36.535   3.351   2.108
85457W        W57183  22.578  12.678   5.422
85458W        W57184   2.692  16.211   1.902
85459W        W57185  32.391   2.232   0.908
85460W        W57186  40.630  30.969  14.278
85461W        W57187  25.452  39.602   4.042
85462W        W57188  22.490  43.396  14.343
85463W        W57189  29.892   2.385  11.132
85464W        W57190  12.180  23.685  14.706
85465W        W57191  25.658   9.478   3.591
85466W        W57192  10.847   5.171   3.789
85467W        W57193  11.344  16.680   0.584
85468W        W57194  10.847   1.438   1.205
85469W        W57195   6.073   4.297   1.049
85470W        W57196  34.251  19.718  10.693
85471W        W57197  38.515  18.753  10.705
85472W        W57198  23.688  35.907   2.117
85473W        W57199   9.207  25.059   2.164
85474W        W57200  43.389  33.649   0.433
85475W        W57201  20.612  39.370  13.810
85476W        W57202  23.994   4.918  12.480
85477W        W57203  43.576  44.471  11.514
85478W        W57204  17.709  13.311  13.080
85479W        W57205  20.702   0.226   1.309
85480W        W57206  24.945  26.898   1.898
85481W        W57207  19.576  38.874  12.787
85482W        W57208  22.978  11.127   0.739
85483W        W57209  42.064  11.387  13.946
85484W        W57210  40.961   5.770  12.457
85485W        W57211  15.871  22.331   9.894
85486W        W57212  23.091  11.632   1.710
85487W        W57213  34.839   4.488  11.612
85488W        W57214  15.639  40.430   3.209
85489W        W57215  34.876  26.934  14.856
85490W        W57216  12.856   5.473  12.019
85491W        W57217  37.409  34.040   4.202
85492W        W57218  16.575  37.787  10.765
85493W        W57219  32.666  41.480   1.841
85494W        W57220  13.876  14.408  14.576
85495W        W57221  30.776  33.390   2.807
85496W        W57222  35.539  12.272  11.075
85497W        W57223   7.677  32.429   0.811
85498W        W57224  24.608   5.186  13.464
85499W        W57225  31.566  35.581   3.681
85500W        W57226  21.887  25.711   0.968
85501W        W57227  35.065  33.345  14.423
85502W        W57228  31.994  29.504  11.608
85503W        W57229  32.129  12.276  14.966
85504W        W57230  34.852  36.939   4.186
85505W        W57231  15.296  13.142  10.664
85506W        W57232  20.777  26.302  14.359
85507W        W57233   8.269  37.022  12.359
85508W        W57234   9.313  23.472   2.214
85509W        W57235   5.892  37.498  14.470
85510W        W57236  40.413   7.156  13.354
85511W        W57237   3.913  21.194   3.905
85512W        W57238   8.910  44.878  11.782
85513W        W57239  10.340  16.897   3.260
85514W        W57240  40.823  38.494  13.115
85515W        W57241  39.877  39.342  10.725
85516W        W57242  22.735   1.337  13.343
85517W        W57243  25.028  38.978  14.098
85518W        W57244   6.820  26.232  10.915
85519W        W57245   4.791  26.615  14.474
85520W        W57246   2.197  41.289   0.714
85521W        W57247  10.024  34.502  11.895
85522W        W57248  36.755   7.612   0.802
85523W        W57249  30.690  21.105   1.157
85524W        W57250  21.025   8.564  11.086
85525W        W57251  25.040  11.213   4.649
85526W        W57252  44.890   0.066  10.427
85527W        W57253   4.855  19.507   0.025
85528W        W57254   5.139  39.941  13.031
85529W        W57255  10.733   3.877   1.221
85530W        W57256  23.782  17.038   4.131
85531W        W57257  39.968   8.185  12.417
85532W        W57258   6.794  35.420   4.880
85533W        W57259  10.886  35.039   2.852
85534W        W57260  35.561  10.896  14.951
85535W        W57261  30.647  23.948   1.240
85536W        W57262  18.997   1.561  13.462
85537W        W57263  30.229  27.847  12.041
85538W        W57264  43.192  28.956  11.970
85539W        W57265   4.075   3.552  11.996
85540W        W57266   1.740  24.137   4.262
85541W        W57267  22.459  32.842  14.421
85542W        W57268  28.042   7.225  10.656
85543W        W57269  12.092   6.745  14.706
85544W        W57270  40.479  17.704   0.979
85545W        W57271   2.251  36.733   2.861
85546W        W57272  20.713  36.429   4.655
85547W        W57273  40.692  35.947   3.798
85548W        W57274  15.630   0.438   0.338
85549W        W57275  39.605  26.646  11.626
85550W        W57276  34.939   6.007  13.590
85551W        W57277   1.007   1.928   5.126
85552W        W57278  30.500   4.422   0.481
85553W        W57279   9.114   5.919   1.444
85554W        W57280  26.824  11.719   5.222
85555W        W57281  19.087  34.976   1.928
85556W        W57282   3.552  10.882  12.288
85557W        W57283  29.159  37.343   3.907
85558W        W57284  43.081  18.622  12.489
85559W        W57285  14.674   8.824  12.538
85560W        W57286  37.583  34.987   5.186
85561W        W57287   4.929  36.966   1.826
85562W        W57288   1.904  24.730   1.342
85563W        W57289  27.035   5.033  10.394
85564W        W57290  42.834  15.571  11.144
85565W        W57291  40.448  21.550  11.682
85566W        W57292   5.827  25.623   4.416
85567W        W57293  22.273  11.615  13.460
85568W        W57294  27.485  44.339   1.961
85569W        W57295  22.369  17.236  11.989
85570W        W57296  42.278  40.034  11.725
85571W        W57297   6.354  40.336   4.504
85572W        W57298  17.843  42.791  12.101
85573W        W57299  33.020  13.572   4.813
85574W        W57300  14.045   5.648  12.591
85575W        W57301   1.367  15.049  10.721
85576W        W57302  38.474  12.930  12.504
85577W        W57303   3.397  10.352   4.105
85578W        W57304  41.394  44.840  12.291
85579W        W57305   1.927  21.154  12.496
85580W        W57306  18.016  26.494   2.296
85581W        W57307   4.638  21.592   4.999
85582W        W57308  25.667  43.350   2.241
85583W        W57309  42.082   9.092  12.580
85584W        W57310   6.346  39.096  14.450
85585W        W57311  16.479  31.518   1.300
85586W        W57312  28.012  40.575   1.167
85587W        W57313   9.814   0.324  10.701
85588W        W57314   6.256  42.702  13.488
85589W        W57315  20.536  21.949  12.903
85590W        W57316  25.492  12.637  12.952
85591W        W57317  22.692   8.287   2.827
85592W        W57318  18.497  30.635   3.546
85593W        W57319  29.318  20.757  13.872
85594W        W57320  10.407   1.352  11.151
85595W        W57321  39.024  15.507   4.610
85596W        W57322  39.037  31.619   3.319
85597W        W57323  41.639  44.554  12.645
85598W        W57324  13.466  20.644   3.296
85599W        W57325  29.950  26.599  12.952
85600W        W57326  17.472  33.089  10.694
85601W        W57327  21.163   9.316   4.786
85602W        W57328  41.771  12.248   1.305
85603W        W57329   0.793  37.521  10.711
85604W        W57330  28.768  39.520   3.424
85605W        W57331  35.161  39.789  12.648
85606W        W57332  21.754   9.589   3.352
85607W        W57333   0.904   4.678  10.677
85608W        W57334  18.444  15.637   0.412
85609W        W57335   2.512  33.991   1.884
85610W        W57336  37.847  31.018   0.902
85611W        W57337   6.255  16.319   0.831
85612W        W57338  38.328  41.602  13.772
85613W        W57339  12.161   5.253  13.717
85614W        W57340  13.525  43.424  14.538
85615W        W57341  25.215  23.492   1.884
85616W        W57342   6.977  42.788   0.843
85617W        W57343  22.112  44.855  11.161
85618W        W57344   7.224  16.240  12.561
85619W        W57345   0.340   1.884  11.155
85620W        W57346  28.693  14.735  11.098
85621W        W57347  39.580  24.850  13.006
85622W        W57348  10.704  28.593   1.389
85623W        W57349  12.535  37.464  14.050
85624W        W57350  43.924  23.534   3.261
85625W        W57351  32.354   7.446  13.493
85626W        W57352  39.733  37.384   4.145
85627W        W57353  14.340  32.438  14.825
85628W        W57354  39.909   3.737  11.224
85629W        W57355  43.756  30.687  14.981
85630W        W57356  10.700  11.691   3.255
85631W        W57357  34.794   7.193   0.334
85632W        W57358   4.392  29.668   2.896
85633W        W57359  30.421  24.543  12.411
85634W        W57360   5.111   7.395   2.374
85635W        W57361  27.531  19.055   0.849
85636W        W57362  31.209  43.891   9.864
85637W        W57363  11.901  39.968   0.266
85638W        W57364  24.106  19.044   1.707
85639W        W57365  16.646  35.907   1.245
85640W        W57366   5.713   5.660  13.065
85641W        W57367   0.990  32.034   1.233
85642W        W57368  11.665  35.833  14.688
85643W        W57369  29.345  24.809  11.452
85644W        W57370  10.661  41.254  13.540
85645W        W57371  36.337  37.977   3.284
85646W        W57372   8.736  11.125  12.625
85647W        W57373  37.092  23.157  11.654
85648W        W57374   8.109  34.299   9.995
85649W        W57375  13.265  15.879   2.359
85650W        W57376  29.201   0.795  11.071
85651W        W57377  28.518  16.516  11.136
85652W        W57378  35.972  32.560  14.781
85653W        W57379  34.960  11.678  13.097
85654W        W57380  26.368  36.950   4.029
85655W        W57381  13.775   2.671  11.984
85656W        W57382  32.254  33.488   3.702
85657W        W57383  41.094  41.831  12.122
85658W        W57384  21.121  32.603   4.556
85659W        W57385  37.581  10.860  11.373
85660W        W57386   5.297  17.045   4.117
85661W        W57387  40.349  39.503   0.181
85662W        W57388  19.279  39.231  10.933
85663W        W57389  25.909  22.764  10.757
85664W        W57390  28.607  42.871   1.667
85665W        W57391  38.930  32.984   3.094
85666W        W57392  17.638  39.059  13.390
85667W        W57393   2.353   5.785   2.389
85668W        W57394  35.036   7.383  14.877
85669W        W57395   9.683  34.370   4.601
85670W        W57396   7.278   0.986  13.654
85671W        W57397  17.024  33.342  13.478
85672W        W57398   8.126  25.845   2.775
85673W        W57399  30.381  40.288   2.373
85674W        W57400  34.348   2.387   4.660
85675W        W57401  10.095  25.971   3.074
85676W        W57402  21.506  43.930  10.625
85677W        W57403  14.839  18.691  13.007
85678W        W57404  20.927  16.875  13.575
85679W        W57405  36.931  12.767   2.254
85680W        W57406  14.197  41.009  13.493
85681W        W57407   5.708   4.622   0.751
85682W        W57408  28.972   6.792   4.355
85683W        W57409   9.639  32.921  13.916
85684W        W57410  14.885  32.604   2.302
85685W        W57411   8.516  38.270  12.429
85686W        W57412  20.165   8.780   2.131
85687W        W57413  25.580  32.885  13.472
85688W        W57414   2.028  40.102   3.188
85689W        W57415   7.194   8.834   0.290
85690W        W57416  35.373  14.721  11.407
85691W        W57417  42.568  26.205  11.065
85692W        W57418  30.545  34.824   4.567
85693W        W57419  14.105  43.844   0.757
85694W        W57420   0.741   1.978   3.227
85695W        W57421  37.406   7.438  13.861
85696W        W57422  36.550  10.364   4.153
85697W        W57423  40.495  18.282  14.789
85698W        W57424  25.092  17.759   4.666
85699W        W57425  20.187   1.328  10.837
85700W        W57426   5.450   6.276   4.669
85701W        W57427   8.849  18.621   2.417
85702W        W57428  26.085   0.755  11.680
85703W        W57429  19.460  36.623   3.310
85704W        W57430  19.020  34.306  11.427
85705W        W57431   6.327  40.922   1.305
85706W        W57432  38.831  24.959   3.827
85707W        W57433  14.236  21.457   3.245
85708W        W57434   2.990  14.287   4.950
85709W        W57435  23.636  23.180  14.466
85710W        W57436   9.363  24.073   2.237
85711W        W57437  24.128  23.732  12.464
85712W        W57438  42.523  35.807  13.444
85713W        W57439  39.980   5.230   1.029
85714W        W57440  19.981  41.052  11.974
85715W        W57441   2.534   5.283  11.154
85716W        W57442  29.954   8.911   4.500
85717W        W57443  41.438  41.035  14.515
85718W        W57444   4.833  13.602   1.482
85719W        W57445  20.530  18.994  13.387
85720W        W57446  11.742  22.171   4.153
85721W        W57447   0.292   2.398  14.976
85722W        W57448  38.015  15.368  11.831
85723W        W57449  25.215  25.243   0.771
85724W        W57450  38.882  31.544   2.280
85725W        W57451  22.507  25.177  12.399
85726W        W57452  33.089  24.944  11.938
85727W        W57453  19.682  19.527  12.446
85728W        W57454   6.442   1.967  13.608
85729W        W57455  30.087  35.583  14.803
85730W        W57456  37.776  29.965   2.460
85731W        W57457  28.355  27.507  13.794
85732W        W57458  40.621   6.415  12.634
85733W        W57459  40.566  29.996   4.201
85734W        W57460   4.505  29.426   1.769
85735W        W57461  24.984  44.052  10.273
85736W        W57462  38.581  24.129   2.332
85737W        W57463   0.905  13.625  14.064
85738W        W57464  43.932  16.054  11.529
85739W        W57465  17.000  16.078  12.071
85740W        W57466   3.017  14.568   2.670
85741W        W57467  26.619  16.724   4.048
85742W        W57468  11.183   4.207  10.586
85743W        W57469   8.743  22.572   2.764
85744W        W57470  35.920  40.932  11.993
85745W        W57471  24.422  38.039   2.816
85746W        W57472  31.357   4.193  11.153
85747W        W57473  24.567  18.469   2.311
85748W        W57474  23.142  36.581  13.337
85749W        W57475  20.042  17.654   3.107
85750W        W57476   9.710   9.878  11.933
85751W        W57477  24.251  27.423   1.909
85752W        W57478  27.362   6.545   3.740
85753W        W57479  17.287  11.797   3.270
85754W        W57480  21.698  23.306   4.722
85755W        W57481  13.976  12.247   4.069
85756W        W57482  21.290  39.178  13.064
85757W        W57483  36.951  12.273   1.358
85758W        W57484  34.162  13.534  12.325
85759W        W57485  29.554  40.435  10.602
85760W        W57486   3.335   8.218  11.175
85761W        W57487  31.559  17.012   2.754
85762W        W57488  17.248  18.611  14.974
85763W        W57489  16.117   0.846   3.283
85764W        W57490  18.962  22.418   2.202
85765W        W57491  42.085  14.449  14.878
85766W        W57492  11.141   1.300  13.333
85767W        W57493  27.032   4.378   1.667
85768W        W57494  44.034  39.833  13.136
85769W        W57495   4.270  28.213   1.333
85770W        W57496  15.972  34.904  14.973
85771W        W57497  24.427   8.282  12.008
85772W        W57498  35.072  29.986   0.911
85773W        W57499  40.404   8.433  11.844
85774W        W57500  37.710  12.824   3.675
85775W        W57501  29.078  13.065   1.843
85776W        W57502  36.814  21.245   1.882
85777W        W57503  34.397  34.980   0.231
85778W        W57504  14.663  36.364  13.298
85779W        W57505  38.533  10.712  11.312
85780W        W57506  24.278   3.524   3.376
85781W        W57507  33.657  33.820   0.440
85782W        W57508  24.654   7.202   1.349
85783W        W57509   4.889   0.675   4.114
85784W        W57510   6.992  12.877   3.151
85785W        W57511   0.734   2.794   3.122
85786W        W57512   5.868  23.198   4.517
85787W        W57513  39.307  14.104  14.836
85788W        W57514   8.846  26.099  10.540
85789W        W57515  34.365   1.460  10.704
85790W        W57516   2.277  29.885   0.193
85791W        W57517  19.004   5.898   2.779
85792W        W57518   8.243   4.751  13.458
85793W        W57519  18.767  26.942  14.784
85794W        W57520  33.197  37.508   1.891
85795W        W57521  35.992   5.460  13.347
85796W        W57522  42.777  40.292  10.622
85797W        W57523   9.219  19.342   3.856
85798W        W57524  10.773  28.494  13.411
85799W        W57525  29.052  44.921   1.732
85800W        W57526  17.312   8.827   1.706
85801W        W57527  44.867   6.220  13.265
85802W        W57528  35.909   0.054  12.004
85803W        W57529  26.219   9.143   1.482
85804W        W57530  35.493  31.082   0.372
85805W        W57531  20.544  43.376   1.335
85806W        W57532  28.170  43.351  12.369
85807W        W57533  23.524   0.244  14.582
85808W        W57534  37.947  16.280   1.288
85809W        W57535  43.242  10.700  12.046
85810W        W57536  44.435  28.214  10.262
85811W        W57537  27.455  11.148   3.781
85812W        W57538  40.523   4.176   1.301
85813W        W57539  17.111  19.481   3.706
85814W        W57540  28.866  32.227   4.217
85815W        W57541   4.090   7.460  10.057
85816W        W57542  41.838  33.888   4.781
85817W        W57543  39.685  40.883  13.471
85818W        W57544  26.967   4.406  11.966
85819W        W57545  39.960   0.887  13.414
85820W        W57546  11.662  35.097   3.993
85821W        W57547  37.416   1.874   4.550
85822W        W57548  11.137  23.181   2.721
85823W        W57549  43.475  39.876   2.614
85824W        W57550  12.229  16.226   0.886
85825W        W57551  24.776  12.931   2.725
85826W        W57552  22.081  25.765   0.034
85827W        W57553  12.717  33.697   2.725
85828W        W57554   8.219  11.258   2.266
85829W        W57555   9.971  26.412   1.257
85830W        W57556   4.180  43.984  12.828
85831W        W57557   0.552   3.288  13.027
85832W        W57558   6.569  39.781  11.094
85833W        W57559  15.499  33.436  10.929
85834W        W57560  42.000  20.048   3.597
85835W        W57561   1.707  20.226  13.943
85836W        W57562  21.248  42.418   2.856
85837W        W57563   8.555  31.447  13.880
85838W        W57564   4.862  42.879  13.976
85839W        W57565  33.867  29.425   1.229
85840W        W57566  44.207   9.182  14.919
85841W        W57567  35.389  39.771  10.350
85842W        W57568  37.468  20.844  11.439
85843W        W57569   5.193  14.103  11.995
85844W        W57570  33.556  29.511  12.626
85845W        W57571  38.026  37.876  10.695
85846W        W57572  39.034  14.286   2.204
85847W        W57573  37.890  20.053  10.655
85848W        W57574  12.595  30.110   1.353
85849W        W57575  39.501  35.911  14.021
85850W        W57576  43.852  28.509   2.587
85851W        W57577  42.533  20.258   0.950
85852W        W57578   0.498  37.541  11.105
85853W        W57579  31.331  13.595  13.315
85854W        W57580  39.798  37.056  14.276
85855W        W57581  34.667   3.308  11.193
85856W        W57582  37.531  13.380   4.412
85857W        W57583  12.167  13.758   4.215
85858W        W57584  28.809  42.036  10.647
85859W        W57585   2.543  26.422  13.573
85860W        W57586  42.412  19.150  12.732
85861W        W57587  43.433  23.747   1.748
85862W        W57588  27.165   5.937  12.088
85863W        W57589  15.728  16.050  13.949
85864W        W57590   7.598  17.176  14.823
85865W        W57591   9.015  15.112   0.038
85866W        W57592  24.176  27.988   0.927
85867W        W57593  23.633  11.629  14.734
85868W        W57594  34.635   8.899  13.793
85869W        W57595  16.756  44.986  12.413
85870W        W57596  14.811  32.421  10.333
85871W        W57597  35.980   9.844   4.629
85872W        W57598  38.966  13.141  12.520
85873W        W57599   2.380   2.866  12.164
85874W        W57600  40.157  22.713   1.994
85875W        W57601  39.428  44.263  11.637
85876W        W57602  23.485  25.134   1.812
85877W        W57603  37.030  26.895   4.082
85878W        W57604  38.238  28.395  11.026
85879W        W57605  33.969  22.706   4.739
85880W        W57606  10.685  40.258  12.437
85881W        W57607  33.071  29.964  13.087
85882W        W57608  23.867  43.780  14.356
85883W        W57609  24.102  40.496   1.698
85884W        W57610  28.628  31.053  11.149
85885W        W57611   4.177  18.031   2.179
85886W        W57612  14.758  34.918   0.903
85887W        W57613  17.838  42.037  13.216
85888W        W57614  12.462  20.040   4.171
85889W        W57615  40.421  42.314   3.764
85890W        W57616   4.347  40.495  13.811
85891W        W57617  10.290  43.192   1.520
85892W        W57618  29.740  22.601   2.579
85893W        W57619  39.442  27.268  10.627
85894W        W57620  32.568  40.300   4.956
85895W        W57621   9.199  43.368   1.145
85896W        W57622  31.157  21.959  14.807
85897W        W57623  15.052   7.669   0.878
85898W        W57624  14.612   0.268   2.288
85899W        W57625  11.599  24.017  13.869
85900W        W57626  27.756  22.250   4.669
85901W        W57627  26.775   1.169   2.241
85902W        W57628  41.844  19.543  11.668
85903W        W57629  12.142  12.090  13.343
85904W        W57630   4.030  37.241  11.967
85905W        W57631   5.657  44.950   4.132
85906W        W57632  26.761  17.653  12.104
85907W        W57633  22.058  22.026   3.601
85908W        W57634  17.625  10.216  14.248
85909W        W57635  29.603  38.280   0.359
85910W        W57636  16.644  43.913  11.596
85911W        W57637  36.506  29.112  11.121
85912W        W57638  28.072   8.168  11.907
85913W        W57639  22.650   5.795  12.910
85914W        W57640  37.603  42.154   0.876
85915W        W57641   6.486  23.238   1.856
85916W        W57642  36.334  15.349  12.381
85917W        W57643  33.395   3.011   0.966
85918W        W57644  17.319   3.330   4.119
85919W        W57645  37.425  26.666  11.409
85920W        W57646  42.007  33.631   2.743
85921W        W57647  28.360   9.626   1.717
85922W        W57648   4.269  42.419   2.950
85923W        W57649   8.758  27.880   2.359
85924W        W57650   9.923  38.566  13.034
85925W        W57651  35.940  26.575  13.545
85926W        W57652  30.577  27.416  14.039
85927W        W57653  40.483  18.688   3.413
85928W        W57654  32.519  26.214  11.189
85929W        W57655  43.042  10.614   1.815
85930W        W57656  22.227  14.261  12.444
85931W        W57657  44.056  19.802   0.871
85932W        W57658  24.025  12.137   3.785
85933W        W57659  41.491  29.693  13.937
85934W        W57660  44.694  21.194   4.833
85935W        W57661  43.542  17.509  10.965
85936W        W57662  18.302   9.382  11.724
85937W        W57663  39.373   1.924  10.634
85938W        W57664   2.093  32.550  10.615
85939W        W57665  15.724   2.406   1.244
85940W        W57666   3.359  22.194   4.159
85941W        W57667  40.504  28.906   4.590
85942W        W57668  10.714  33.673   9.617
85943W        W57669  41.902  26.198  12.439
85944W        W57670   9.034  20.697  10.418
85945W        W57671  10.610  24.299   1.089
85946W        W57672  32.350  33.805  13.891
85947W        W57673  22.111   6.180   3.799
85948W        W57674  27.257  36.060  11.978
85949W        W57675  17.263  17.097   2.818
85950W        W57676   5.753  14.114   2.665
85951W        W57677  35.422  37.935   2.371
85952W        W57678  33.498  34.595  14.926
85953W        W57679  38.308  19.134   4.710
85954W        W57680  13.205  39.311  10.664
85955W        W57681  41.222  25.411  12.600
85956W        W57682  44.448  29.644  13.936
85957W        W57683  34.463  16.632  12.110
85958W        W57684  39.929  35.606  13.992
85959W        W57685   6.380  29.708   0.432
85960W        W57686   2.201  33.886   3.803
85961W        W57687   1.646  23.025   1.368
85962W        W57688  32.521  19.739   2.851
85963W        W57689  16.118  15.412   4.136
85964W        W57690  16.208  19.640  12.358
85965W        W57691  16.543  12.726  13.418
85966W        W57692  15.994  21.549  13.175
85967W        W57693  41.307  17.464   0.923
85968W        W57694  29.896  42.493  12.056
85969W        W57695   3.246   8.812  12.523
85970W        W57696  44.267   1.457   4.116
85971W        W57697  31.028  38.319   4.733
85972W        W57698  40.890   5.797  11.896
85973W        W57699  12.946  22.721  14.140
85974W        W57700  13.688  29.089   4.185
85975W        W57701   4.402   6.505  11.509
85976W        W57702  37.912  33.267  12.588
85977W        W57703  16.911  15.719   3.186
85978W        W57704  29.139   5.633  14.849
85979W        W57705   7.098   0.949  10.486
85980W        W57706  35.561  13.781  13.365
85981W        W57707  20.165  10.074   2.852
85982W        W57708  16.294  29.220  12.564
85983W        W57709  32.884   5.895   1.949
85984W        W57710  35.841   7.343   3.766
85985W        W57711  19.279   5.959   3.229
85986W        W57712  27.752  29.045  12.879
85987W        W57713  13.869  24.180  10.688
85988W        W57714  44.898  25.523   3.462
85989W        W57715  20.318   7.633   3.835
85990W        W57716  20.097   9.157  10.607
85991W        W57717  28.062   4.787   1.944
85992W        W57718  40.850   3.722  10.741
85993W        W57719  36.552  41.000   1.431
85994W        W57720  30.593  26.759  12.134
85995W        W57721  31.566  43.509   3.801
85996W        W57722  19.863  14.182   0.022
85997W        W57723  14.585  30.008   0.068
85998W        W57724   9.187  44.540   5.254
85999W        W57725  24.523  23.005   3.799
86000W        W57726  18.603  28.389  11.370
86001W        W57727  33.238  14.214  11.373
86002W        W57728  20.071  18.207  11.742
86003W        W57729   7.201  29.948  14.070
86004W        W57730  44.473  23.689   4.742
86005W        W57731  26.744  40.108   4.218
86006W        W57732  44.435  15.647  10.698
86007W        W57733  21.071  11.425   3.582
86008W        W57734  29.564  11.599   4.882
86009W        W57735  37.839  25.980  14.998
86010W        W57736  26.203  16.836   2.210
86011W        W57737  30.588  32.992   3.796
86012W        W57738  23.117  20.645  12.822
86013W        W57739  27.501  32.065   3.875
86014W        W57740  10.499  32.469   2.094
86015W        W57741  29.218  38.667   0.371
86016W        W57742  10.953   6.284   4.149
86017W        W57743  39.425  30.995  11.408
86018W        W57744  11.663  33.658  12.595
86019W        W57745  26.998  17.057   2.339
86020W        W57746   0.831   8.229  12.611
86021W        W57747  25.536  18.154   4.063
86022W        W57748  44.971  15.187   2.396
86023W        W57749  39.535   5.335  13.212
86024W        W57750   3.263  17.649  12.119
86025W        W57751   8.666  44.217  13.195
86026W        W57752   0.450  20.354   3.816
86027W        W57753   7.931  20.668  10.980
86028W        W57754  32.865  10.677  12.011
86029W        W57755   6.704   1.595   1.660
86030W        W57756  22.688  41.550   4.188
86031W        W57757  17.974  11.102  11.243
86032W        W57758  12.722  39.819   0.847
86033W        W57759  24.115  31.319  14.373
86034W        W57760   3.686  14.576  14.873
86035W        W57761  12.342  21.306  10.636
86036W        W57762  27.270   5.990   0.877
86037W        W57763   9.764   8.718   1.396
86038W        W57764  22.152   2.876   3.365
86039W        W57765  14.640  41.009  12.494
86040W        W57766  15.694   7.823  13.821
86041W        W57767  20.556  11.555  10.651
86042W        W57768   0.538   3.672   1.703
86043W        W57769  28.458  15.124  12.344
86044W        W57770   1.489  34.749   0.807
86045W        W57771  26.312  29.214   1.863
86046W        W57772  30.790  24.528   3.422
86047W        W57773  15.384  31.000  14.683
86048W        W57774  17.139  24.573   9.921
86049W        W57775  30.713  37.908   4.731
86050W        W57776  30.945   5.597  11.982
86051W        W57777  26.413  24.690  10.519
86052W        W57778   1.663  12.211  13.437
86053W        W57779   9.182  36.566  13.558
86054W        W57780  13.389  38.403  12.966
86055W        W57781  29.628  30.162  12.875
86056W        W57782  18.756  40.604  12.904
86057W        W57783  25.090  11.667   4.133
86058W        W57784  19.253  15.542   3.139
86059W        W57785  43.325  19.508   2.871
86060W        W57786  20.650   5.000   4.106
86061W        W57787  25.035   4.859   1.377
86062W        W57788  29.225  44.968   3.123
86063W        W57789  12.646   5.191  13.934
86064W        W57790  24.466   4.751  11.530
86065W        W57791  36.050  29.460   1.653
86066W        W57792  14.038  22.628   2.851
86067W        W57793  28.062  26.265   2.737
86068W        W57794   5.379  15.719   5.248
86069W        W57795   0.870  12.878   4.762
86070W        W57796  30.601  30.881   3.722
86071W        W57797  30.063  44.843   4.571
86072W        W57798   3.226   8.581   0.440
86073W        W57799  10.347  38.906   2.763
86074W        W57800  34.844  32.671   1.703
86075W        W57801   2.940  32.463   2.678
86076W        W57802  20.539  42.888   4.372
86077W        W57803   7.065  37.368   0.800
86078W        W57804  28.169  34.489   0.366
86079W        W57805  30.444  21.857  12.165
86080W        W57806   4.761  35.932   3.352
86081W        W57807  10.090   5.241   1.314
86082W        W57808  43.586  15.604  14.688
86083W        W57809  27.740  26.177  14.870
86084W        W57810   5.819  37.006  11.138
86085W        W57811  12.122  13.829   2.272
86086W        W57812  27.944  18.140  13.009
86087W        W57813  16.900  35.329   0.226
86088W        W57814  43.810  26.571  12.413
86089W        W57815  11.319  11.613  14.729
86090W        W57816  11.837  34.645   0.039
86091W        W57817  28.700   8.378   3.324
86092W        W57818  39.260   5.001  12.910
86093W        W57819   5.844  26.828  12.156
86094W        W57820   4.761   9.124   0.386
86095W        W57821  43.469   9.821  12.362
86096W        W57822   4.515  23.251   0.299
86097W        W57823  37.257  31.649   4.843
86098W        W57824  19.578  44.907   2.769
86099W        W57825  14.329  17.446  14.034
86100W        W57826  42.762  37.434  11.051
86101W        W57827  22.473  21.817   0.959
86102W        W57828   5.700  20.205  14.831
86103W        W57829  18.880  16.742   1.329
86104W        W57830  10.125   2.239  13.509
86105W        W57831  14.618  34.864   1.514
86106W        W57832  41.022  26.666   1.954
86107W        W57833  40.773  28.015   1.325
86108W        W57834  44.422  39.582   1.804
86109W        W57835  37.054  19.796  11.049
86110W        W57836  41.472  33.600  11.705
86111W        W57837  38.100  23.930   2.346
86112W        W57838  33.431  35.094  14.496
86113W        W57839  20.664  31.168  14.960
86114W        W57840  24.753   0.035   3.321
86115W        W57841  21.956   9.713  10.930
86116W        W57842  44.007  17.953  12.636
86117W        W57843  11.367  18.764  11.127
86118W        W57844  32.177  41.713   3.306
86119W        W57845  24.563   7.884  11.716
86120W        W57846  39.438  36.504   2.186
86121W        W57847  19.059  14.043  13.037
86122W        W57848  24.715  27.996   1.348
86123W        W57849  24.716  24.220   3.906
86124W        W57850  20.416   4.426  11.149
86125W        W57851  35.963  16.844  13.959
86126W        W57852  18.494  38.065  14.352
86127W        W57853   4.918  24.494   4.554
86128W        W57854  41.098  28.668   3.583
86129W        W57855  42.899  33.028  10.386
86130W        W57856   8.130  37.128   0.438
86131W        W57857   2.991   9.920   1.530
86132W        W57858   1.824  40.353  11.485
86133W        W57859  32.641  15.748  13.477
86134W        W57860  42.033  44.602   1.696
86135W        W57861  18.775  26.648   0.785
86136W        W57862  20.606  18.511  12.508
86137W        W57863  21.162  12.362   0.171
86138W        W57864  16.018  16.844   1.057
86139W        W57865  30.626  37.168  13.509
86140W        W57866  30.235   2.474   3.771
86141W        W57867  43.962  35.030  12.612
86142W        W57868   7.195  22.563  13.076
86143W        W57869  19.630   3.014   1.768
86144W        W57870  25.055  14.385   4.323
86145W        W57871  31.393  26.616  13.422
86146W        W57872  35.365  13.507  11.608
86147W        W57873  38.815  37.754   3.784
86148W        W57874  30.096  38.648   0.777
86149W        W57875  19.910  10.176  13.804
86150W        W57876   0.471   5.908   1.818
86151W        W57877  22.072  14.177   4.938
86152W        W57878  41.311  32.879  11.151
86153W        W57879  13.077  30.116   3.235
86154W        W57880  14.740  32.217  10.797
86155W        W57881  21.615  36.995   3.202
86156W        W57882  31.633  30.414   3.465
86157W        W57883  35.439   3.428   1.376
86158W        W57884  42.603  42.156  13.890
86159W        W57885  31.476  19.408   0.552
86160W        W57886  36.127  21.901  14.167
86161W        W57887  18.521  30.979   1.808
86162W        W57888  18.212  19.595  10.675
86163W        W57889  29.105  44.300   4.671
86164W        W57890   1.084  38.966   4.346
86165W        W57891   0.857   4.097   3.468
86166W        W57892  13.579  34.439  13.371
86167W        W57893  26.747  33.918  10.731
86168W        W57894  44.214  30.956   2.175
86169W        W57895  38.823  42.835  14.710
86170W        W57896  19.314  17.731  11.549
86171W        W57897  44.534  12.202   1.289
86172W        W57898  32.668  30.511   0.991
86173W        W57899  22.594   4.472  11.880
86174W        W57900  12.187  16.684  13.331
86175W        W57901  24.466  24.654   4.090
86176W        W57902  15.183   0.248  14.556
86177W        W57903   0.894  42.741  10.821
86178W        W57904  27.015  33.097  13.416
86179W        W57905  35.498  20.701   0.410
86180W        W57906  38.428   1.448  13.826
86181W        W57907  15.081  10.037   1.881
86182W        W57908  37.087  19.296  14.299
86183W        W57909   9.831  38.995   1.452
86184W        W57910  18.268   4.294  14.985
86185W        W57911  27.680   5.421  14.909
86186W        W57912   6.223   0.780   2.487
86187W        W57913   7.715  24.676  13.835
86188W        W57914  28.061  30.325   4.611
86189W        W57915  20.562   3.029  11.887
86190W        W57916   9.087  38.921  14.862
86191W        W57917  11.190  38.305   4.227
86192W        W57918  14.805   7.610  12.975
86193W        W57919  25.797  21.304   4.156
86194W        W57920   5.970  19.752  14.867
86195W        W57921  27.141  15.322   0.384
86196W        W57922  34.510  39.929   1.342
86197W        W57923  31.216  41.051   2.670
86198W        W57924  44.849  32.587  11.978
86199W        W57925  13.822  42.950  12.550
86200W        W57926  34.437  22.955  12.240
86201W        W57927  31.389  11.137   2.256
86202W        W57928   5.636   8.844  14.974
86203W        W57929  22.824  29.125  12.596
86204W        W57930  40.319   7.439   3.728
86205W        W57931  44.407  27.358  10.803
86206W        W57932   3.398  15.879  12.407
86207W        W57933  38.331  41.957   0.261
86208W        W57934  11.328  38.258   0.393
86209W        W57935  35.280  14.687  11.909
86210W        W57936  12.986   3.906   1.527
86211W        W57937  24.114  25.770   1.861
86212W        W57938  44.883  18.276  13.461
86213W        W57939  42.219  31.158  12.541
86214W        W57940  44.047  27.532  11.542
86215W        W57941  33.103  15.786  14.444
86216W        W57942  27.599  39.919   4.779
86217W        W57943  36.831  34.773  14.764
86218W        W57944  24.292  29.181  14.342
86219W        W57945  25.162  33.828  10.571
86220W        W57946   0.486  28.640   4.532
86221W        W57947  25.505  10.747   2.769
86222W        W57948  21.194  27.587  12.257
86223W        W57949  13.463   2.052   4.506
86224W        W57950  21.653  28.239  10.049
86225W        W57951  31.460  29.079   1.336
86226W        W57952  24.646   0.929   0.269
86227W        W57953  26.551  17.055   0.397
86228W        W57954  35.173   9.630  14.284
86229W        W57955  15.680  42.175  11.904
86230W        W57956  38.852  42.952  10.752
86231W        W57957  22.424  13.241   2.702
86232W        W57958  23.658  23.482  13.389
86233W        W57959  26.715   0.011   4.196
86234W        W57960  42.092   3.496  10.878
86235W        W57961  26.007  28.241   4.690
86236W        W57962   7.258  25.775   4.677
86237W        W57963  40.047  13.126  12.475
86238W        W57964   6.058  40.355  10.146
86239W        W57965   4.271   6.749  12.492
86240W        W57966  23.281  12.302   2.387
86241W        W57967  30.761  19.780  14.333
86242W        W57968  18.806   6.663   1.803
86243W        W57969  17.200   6.304  10.643
86244W        W57970   4.789   2.265  10.635
86245W        W57971  13.525  27.480   0.406
86246W        W57972  26.610  26.030  11.267
86247W        W57973   6.804   2.772   4.577
86248W        W57974   3.653  15.753  11.995
86249W        W57975  42.512   9.955   1.638
86250W        W57976  28.038  18.288   1.755
86251W        W57977   9.793  27.004  11.498
86252W        W57978  16.062  17.347   4.082
86253W        W57979  13.290  42.951  12.595
86254W        W57980   4.806  25.289  11.993
86255W        W57981  12.834   1.069  11.053
86256W        W57982  43.280   9.248   4.388
86257W        W57983  23.479  22.679   4.230
86258W        W57984  27.087  31.888   4.639
86259W        W57985  37.334  28.683   4.704
86260W        W57986  44.620  25.428   4.467
86261W        W57987   8.806  29.914   2.200
86262W        W57988  36.663   0.693  10.734
86263W        W57989  28.370  12.689   0.398
86264W        W57990  32.707  36.980   1.386
86265W        W57991   4.654  30.937  14.230
86266W        W57992  19.577  11.181  12.945
86267W        W57993  21.532   1.469  11.911
86268W        W57994  30.401   6.899  12.589
86269W        W57995  27.978   3.720  10.544
86270W        W57996   9.562  43.580  14.454
86271W        W57997  21.725  24.972  14.217
86272W        W57998   0.306   2.257  13.491
86273W        W57999  38.991  32.938  10.712
86274W        W58000  22.735  30.478   0.719
86275W        W58001  17.893  22.804  11.173
86276W        W58002  38.128  34.686  11.381
86277W        W58003  27.422  12.698  13.035
86278W        W58004  17.173  28.422  10.900
86279W        W58005  14.650  26.714   2.120
86280W        W58006   4.314  36.325  14.146
86281W        W58007  42.299   6.282   2.472
86282W        W58008   2.210  16.340   1.624
86283W        W58009  10.450  21.184   2.765
86284W        W58010  37.594   7.818  10.573
86285W        W58011   9.234   7.730   0.203
86286W        W58012  11.747   5.227   3.922
86287W        W58013  22.026  31.861   4.113
86288W        W58014   0.804  20.695  12.183
86289W        W58015   1.712  12.303   1.798
86290W        W58016  13.869  11.283   4.735
86291W        W58017  22.517  25.168  11.489
86292W        W58018  14.310  20.567   4.161
86293W        W58019  25.039   2.384  13.534
86294W        W58020  35.501   8.368   3.720
86295W        W58021   4.155  18.471  10.726
86296W        W58022  16.248  33.678  14.535
86297W        W58023   3.170  39.953  13.846
86298W        W58024  11.195  22.216   2.867
86299W        W58025   1.397  28.519   4.258
86300W        W58026  32.154   3.806  12.428
86301W        W58027  33.827  43.918   4.645
86302W        W58028  10.188  22.471   4.162
86303W        W58029  20.583   9.851  11.217
86304W        W58030  36.825  43.027  14.248
86305W        W58031  32.946  36.076   2.790
86306W        W58032  38.344  41.733  14.270
86307W        W58033  35.113  15.548   0.359
86308W        W58034  23.613  17.834  10.398
86309W        W58035  34.017  27.368   0.816
86310W        W58036  21.590   9.221  14.497
86311W        W58037   1.927  30.593  13.594
86312W        W58038  15.804  39.010  13.522
86313W        W58039  33.128  26.990  13.445
86314W        W58040   6.097  12.733  13.732
86315W        W58041  19.225  38.330  10.991
86316W        W58042  42.801   1.050  14.738
86317W        W58043  36.353  14.870  12.912
86318W        W58044   0.680  22.456   1.899
86319W        W58045  35.127  25.703  14.269
86320W        W58046  30.546   4.937   0.555
86321W        W58047  35.057   7.420  12.135
86322W        W58048  33.380  39.071   4.378
86323W        W58049  44.139  12.493  12.002
86324W        W58050  14.197  39.553  13.793
86325W        W58051  29.027  25.274  10.181
86326W        W58052   8.113  10.445  12.036
86327W        W58053  19.401  35.847   4.505
86328W        W58054  15.270  33.126  11.286
86329W        W58055  35.841  35.359  14.190
86330W        W58056   5.239  11.674  10.929
86331W        W58057   7.923   7.046  12.921
86332W        W58058  19.350  28.931   3.800
86333W        W58059  11.087  11.947   2.656
86334W        W58060  36.458  25.105  13.158
86335W        W58061  17.807  18.613  11.737
86336W        W58062   5.465  11.057   0.093
86337W        W58063  35.737   6.798  12.131
86338W        W58064   0.889  42.532   2.357
86339W        W58065   1.264  11.332   0.936
86340W        W58066  42.368  36.016   1.939
86341W        W58067  19.692  13.337  12.184
86342W        W58068  10.264  43.868  11.738
86343W        W58069   2.369  29.524   1.442
86344W        W58070  30.968  41.591   0.320
86345W        W58071  33.801  34.371  11.087
86346W        W58072  38.170  31.390   1.769
86347W        W58073  27.140  19.602  10.732
86348W        W58074  17.396  44.110   4.107
86349W        W58075  18.338  15.519   3.174
86350W        W58076  19.233   9.908  14.879
86351W        W58077  22.682   7.593  13.547
86352W        W58078  23.546   1.260  14.198
86353W        W58079  40.942  22.997   0.831
86354W        W58080  44.918   6.984   1.054
86355W        W58081  35.436  23.092  14.019
86356W        W58082  10.409  10.836   2.453
86357W        W58083  24.499   3.733   2.915
86358W        W58084  40.011  32.281   2.633
86359W        W58085  29.209  13.651  11.468
86360W        W58086  41.015  28.309   3.208
86361W        W58087  18.762  32.956  13.046
86362W        W58088  26.187  23.188  10.730
86363W        W58089  39.506  41.413   4.501
86364W        W58090  38.587  35.410  12.630
86365W        W58091  35.758  42.990  10.690
86366W        W58092  14.150  31.359  14.805
86367W        W58093  23.262   7.623   2.410
86368W        W58094  26.930  25.978  10.625
86369W        W58095  31.952  10.759  10.164
86370W        W58096   5.660  14.262  13.433
86371W        W58097  22.041  24.183  11.565
86372W        W58098  27.223  32.834  11.561
86373W        W58099  37.688  30.477   2.384
86374W        W58100   5.685  34.059   2.674
86375W        W58101  28.042  40.077   2.882
86376W        W58102  35.849   4.758   1.526
86377W        W58103   9.236  41.881   3.611
86378W        W58104   5.085   6.371  14.454
86379W        W58105   1.194  24.180  12.972
86380W        W58106  21.942   5.978   0.799
86381W        W58107  34.865  34.962  12.206
86382W        W58108  15.254  18.626  14.750
86383W        W58109  12.749   5.467   0.422
86384W        W58110  15.610   7.147  12.424
86385W        W58111   3.422   2.801  14.620
86386W        W58112   7.648  30.054   0.581
86387W        W58113   4.301   0.231  11.325
86388W        W58114  22.099  25.385  11.126
86389W        W58115  40.496  44.766   3.189
86390W        W58116  29.507  23.556   1.689
86391W        W58117  13.701  39.898  11.134
86392W        W58118  38.403   3.211  14.366
86393W        W58119  41.566  25.454  10.650
86394W        W58120  37.341  29.113   3.749
86395W        W58121  11.217  24.029   9.736
86396W        W58122  40.297  18.247   1.788
86397W        W58123  25.987  11.683   4.187
86398W        W58124  32.219  31.895   3.876
86399W        W58125   4.266   8.329  10.990
86400W        W58126  32.296  27.384  12.083
86401W        W58127   1.048  20.172   4.546
86402W        W58128  16.580  27.101  13.940
86403W        W58129  41.549  36.387   0.406
86404W        W58130  17.153  40.537   3.011
86405W        W58131   5.290  15.609   0.147
86406W        W58132  40.362  36.678   0.972
86407W        W58133   9.691   5.991  10.589
86408W        W58134  23.707  23.694  11.160
86409W        W58135   2.357  11.180  14.135
86410W        W58136  40.049   0.253   2.268
86411W        W58137  11.562  40.373  12.656
86412W        W58138  36.533  38.831  12.607
86413W        W58139  26.653   5.447   1.807
86414W        W58140   4.677   9.628   4.369
86415W        W58141  21.597  25.706  13.335
86416W        W58142   1.789  31.495  13.116
86417W        W58143   5.019  27.791   1.762
86418W        W58144  28.980  22.503  13.066
86419W        W58145  11.503  33.902   4.692
86420W        W58146   0.969  10.918  12.895
86421W        W58147  23.245   1.165  11.593
86422W        W58148  19.021   1.902  12.154
86423W        W58149  19.715  36.111   1.421
86424W        W58150  13.752  25.714  14.237
86425W        W58151  25.011   9.910   0.983
86426W        W58152  37.801   2.414  12.484
86427W        W58153  11.726  23.572  11.071
86428W        W58154  35.323   9.255  10.921
86429W        W58155  43.432  36.356  10.617
86430W        W58156  18.751  32.969   4.236
86431W        W58157   4.998  25.261   4.321
86432W        W58158  19.157  21.773   0.657
86433W        W58159  15.158  16.793   2.902
86434W        W58160   7.273   7.448  11.530
86435W        W58161  15.133  19.252  11.640
86436W        W58162   7.676  13.259   4.772
86437W        W58163   8.303  27.182   3.600
86438W        W58164   4.861   3.030   0.799
86439W        W58165  43.387  28.059   0.944
86440W        W58166  26.049  10.433  13.947
86441W        W58167  11.263  13.322  13.552
86442W        W58168  25.033  44.896   0.240
86443W        W58169  40.979  41.268  14.496
86444W        W58170  41.772  40.437   0.765
86445W        W58171  25.893  17.228   4.142
86446W        W58172   6.336  14.302   1.837
86447W        W58173  14.682  35.200   4.211
86448W        W58174  11.321  38.766   3.279
86449W        W58175  40.746  10.143  10.716
86450W        W58176   5.883   6.890   4.615
86451W        W58177  13.291   6.263   2.259
86452W        W58178  21.690  27.667  12.390
86453W        W58179   4.272  20.782   1.716
86454W        W58180   1.352  24.172   3.723
86455W        W58181   2.153  27.352  14.076
86456W        W58182  35.334  38.575  12.700
86457W        W58183  36.856  17.167   2.168
86458W        W58184   7.454  16.859   0.291
86459W        W58185  16.031  25.480   3.694
86460W        W58186  32.365  42.324   0.240
86461W        W58187  44.515  33.131  13.741
86462W        W58188  12.786  40.277  14.897
86463W        W58189  44.556  13.995   2.847
86464W        W58190  29.138  38.921   2.880
86465W        W58191  24.936  12.970   0.812
86466W        W58192  37.676  34.477  11.320
86467W        W58193  19.945  44.458  11.627
86468W        W58194  28.731  27.538   0.884
86469W        W58195   2.926  39.992   0.417
86470W        W58196   6.639  24.117   1.163
86471W        W58197  36.295  24.164   1.829
86472W        W58198   1.514  40.118   3.244
86473W        W58199  37.628  14.924   4.791
86474W        W58200  20.052  19.319  14.859
86475W        W58201  12.993   0.835  10.620
86476W        W58202  12.622  20.189   1.367
86477W        W58203   3.850  42.921   1.233
86478W        W58204  18.168  43.243   0.855
86479W        W58205  11.528   6.388  13.978
86480W        W58206  16.670   6.630   3.667
86481W        W58207  28.930   5.872  14.440
86482W        W58208  29.620   8.313  10.636
86483W        W58209  19.194  22.713  11.009
86484W        W58210  34.032  32.366  13.363
86485W        W58211   9.703  27.538   2.163
86486W        W58212  27.737  36.576   2.363
86487W        W58213  22.264  15.390   3.788
86488W        W58214  42.941   4.228   3.282
86489W        W58215  18.014  15.822  10.779
86490W        W58216  39.315  12.122   1.704
86491W        W58217  32.649  34.154   1.973
86492W        W58218  14.125  34.868  12.556
86493W        W58219   4.949  44.269  13.851
86494W        W58220  35.647   6.440   1.398
86495W        W58221  28.935  27.876   1.263
86496W        W58222  40.833  18.492  12.835
86497W        W58223  43.370  26.606   4.137
86498W        W58224   3.712  34.809  14.757
86499W        W58225  24.266  37.725   1.824
86500W        W58226  16.201  28.492   1.007
86501W        W58227  36.049  10.209  14.954
86502W        W58228  41.537  42.005   1.727
86503W        W58229   6.204  44.204   2.799
86504W        W58230  17.283  21.985   1.868
86505W        W58231   2.416  10.735  14.421
86506W        W58232   4.988  12.191   2.371
86507W        W58233   9.298  31.371  14.305
86508W        W58234  32.968  41.031   1.742
86509W        W58235  33.326  29.368  13.612
86510W        W58236  23.435  30.267  12.340
86511W        W58237   7.771  21.704   4.545
86512W        W58238  23.591  19.828   3.797
86513W        W58239   1.475  27.956   2.734
86514W        W58240  29.554   4.005   2.873
86515W        W58241  31.154   0.260   3.139
86516W        W58242   1.272  18.208   5.055
86517W        W58243   2.509  18.789   2.752
86518W        W58244  42.407  25.046  14.342
86519W        W58245  36.195   2.726  11.077
86520W        W58246   8.284  26.124  14.297
86521W        W58247  40.097  44.811  13.860
86522W        W58248  43.609  28.706  14.332
86523W        W58249  23.810  27.594  11.145
86524W        W58250  16.307  43.860   0.442
86525W        W58251  23.493  28.697  13.003
86526W        W58252  23.014  41.751  12.510
86527W        W58253  33.015   7.496   4.541
86528W        W58254  11.163  20.850   1.807
86529W        W58255  37.343  40.456  12.010
86530W        W58256   8.932  32.628   3.150
86531W        W58257  10.743   6.788   0.858
86532W        W58258  21.974  15.204   3.401
86533W        W58259  39.918  22.164   3.154
86534W        W58260  31.102   0.386   1.674
86535W        W58261  10.834  29.300   0.758
86536W        W58262  27.257  22.622  13.591
86537W        W58263   4.982   8.772  14.561
86538W        W58264   0.496  27.046   4.191
86539W        W58265  44.723  32.459  10.976
86540W        W58266  40.678  23.453   0.889
86541W        W58267  13.132  32.905  11.561
86542W        W58268   3.744  13.813   2.270
86543W        W58269  11.862  16.969   2.315
86544W        W58270   2.000  14.672   2.723
86545W        W58271  33.436  37.006  11.106
86546W        W58272  39.959  33.857   1.849
86547W        W58273   5.394  23.620  14.343
86548W        W58274  14.145  16.315  12.020
86549W        W58275  13.853  33.329  12.144
86550W        W58276   6.901  41.175   0.090
86551W        W58277   4.887  14.811   0.305
86552W        W58278  24.597  17.027  13.481
86553W        W58279  29.492   7.700   3.935
86554W        W58280  28.214  34.167  11.022
86555W        W58281  20.750  23.199   1.372
86556W        W58282  33.426  16.226  12.459
86557W        W58283  34.482   0.558  14.430
86558W        W58284  25.533  27.878   1.798
86559W        W58285  13.613  41.893  14.827
86560W        W58286  14.691  44.730  11.372
86561W        W58287   3.244  11.346  14.590
86562W        W58288  22.476  32.052  14.203
86563W        W58289  39.351  29.478   0.982
86564W        W58290  10.813  43.986  13.133
86565W        W58291  18.209  35.591  11.348
86566W        W58292   1.428  41.077   2.635
86567W        W58293  27.631  11.805  14.836
86568W        W58294  11.633  34.356  11.466
86569W        W58295  22.512   3.811  11.153
86570W        W58296  10.595   7.864  14.423
86571W        W58297  43.607  19.176   0.214
86572W        W58298   3.554  29.083  13.617
86573W        W58299  41.127  42.356  13.067
86574W        W58300  12.165  28.015   4.778
86575W        W58301  27.008  44.339   5.240
86576W        W58302  16.284  39.961   0.740
86577W        W58303  11.252  41.527  10.979
86578W        W58304  44.441  14.551   3.261
86579W        W58305   8.617   8.551  12.908
86580W        W58306  20.584  16.462  10.673
86581W        W58307   5.957  43.561   3.323
86582W        W58308  31.745  26.744   1.269
86583W        W58309  28.622  41.024   1.414
86584W        W58310  22.009  24.539  11.987
86585W        W58311  18.984  23.673  13.151
86586W        W58312   0.223  31.497  13.687
86587W        W58313  12.419  35.493   2.324
86588W        W58314  23.584  41.043   4.047
86589W        W58315  41.733  36.282  14.487
86590W        W58316  29.005   8.663   1.839
86591W        W58317  32.851  25.712  11.618
86592W        W58318  39.074   2.426   3.067
86593W        W58319  12.702  16.559  12.085
86594W        W58320  24.968   0.491   4.178
86595W        W58321  13.154  44.949  11.593
86596W        W58322   6.481  11.695  13.929
86597W        W58323  10.869  44.813  13.589
86598W        W58324  22.358  43.483  12.523
86599W        W58325  23.092  32.158   3.668
86600W        W58326  13.120  15.644   9.961
86601W        W58327   0.000  15.172  12.764
86602W        W58328  27.975  15.531  11.525
86603W        W58329  21.218  41.856  12.798
86604W        W58330  30.441  42.806  13.568
86605W        W58331   2.719  17.276   3.672
86606W        W58332  42.569   9.175  10.455
86607W        W58333  44.743   7.664  14.478
86608W        W58334  13.137   9.373  10.747
86609W        W58335   3.424   7.142  12.098
86610W        W58336  17.827  13.027  12.491
86611W        W58337  15.660  35.968  10.635
86612W        W58338  33.797  34.504   1.848
86613W        W58339  30.548  24.280  11.935
86614W        W58340   8.407  27.661   1.337
86615W        W58341   4.953  34.514  13.982
86616W        W58342  23.758  14.877   2.383
86617W        W58343  35.376  14.615  12.410
86618W        W58344  28.187  36.945  13.453
86619W        W58345  27.178  40.960   4.590
86620W        W58346  38.017  37.108  12.657
86621W        W58347  40.059  10.278   4.308
86622W        W58348  39.329  36.517   4.192
86623W        W58349  22.996  17.579   2.290
86624W        W58350  21.816  39.264  12.787
86625W        W58351   2.097  18.590  11.121
86626W        W58352  20.552  41.133  14.485
86627W        W58353  29.887   7.854   1.401
86628W        W58354   0.568  28.117  11.126
86629W        W58355  19.056   7.239   4.007
86630W        W58356  20.572  30.486   4.203
86631W        W58357  14.818   0.814   3.161
86632W        W58358  14.180  43.074   2.221
86633W        W58359   4.259  33.278   3.804
86634W        W58360  34.905  22.511  14.050
86635W        W58361   3.800  21.968   3.227
86636W        W58362  36.101  35.549   0.711
86637W        W58363  27.611  33.978  13.813
86638W        W58364  11.014  26.982  12.134
86639W        W58365  25.507   2.842  12.348
86640W        W58366  35.101  16.082   0.322
86641W        W58367   8.255  19.082  14.259
86642W        W58368  27.935  32.041   0.454
86643W        W58369  16.552  16.318   1.394
86644W        W58370  19.483  15.618   0.399
86645W        W58371  14.145   0.368  14.128
86646W        W58372  12.218  33.743  13.113
86647W        W58373  27.902  41.944   2.213
86648W        W58374  37.995  15.667  13.929
86649W        W58375  12.783   6.170   0.745
86650W        W58376  33.121  20.608   0.009
86651W        W58377  42.893  32.879   4.690
86652W        W58378  41.503  31.044  14.842
86653W        W58379  27.159  14.334   0.286
86654W        W58380  15.580  44.979   4.193
86655W        W58381   5.065  15.145  12.823
86656W        W58382  36.315  16.072   1.488
86657W        W58383   6.314  21.526  10.610
86658W        W58384  33.059  30.195  11.230
86659W        W58385   0.379  32.529   4.588
86660W        W58386   4.394  37.529  10.813
86661W        W58387   3.146  34.936  11.203
86662W        W58388   2.140  36.254   2.680
86663W        W58389  23.016   2.718  13.429
86664W        W58390   8.388  30.979  10.797
86665W        W58391  31.224   2.379   4.867
86666W        W58392  41.674  42.367   3.237
86667W        W58393  31.123  40.537   2.811
86668W        W58394   1.687  10.713  12.525
86669W        W58395  43.938  16.793   4.587
86670W        W58396  42.357  12.720   3.301
86671W        W58397   9.647  20.114  12.109
86672W        W58398  42.446  19.087   1.989
86673W        W58399  31.570  20.168   0.823
86674W        W58400  25.273   8.685  11.763
86675W        W58401  42.554  44.028  13.835
86676W        W58402  40.872  21.056   3.296
86677W        W58403  16.523  29.025  13.001
86678W        W58404  36.542  27.070   1.242
86679W        W58405  28.717  40.047  12.521
86680W        W58406  42.423  34.886  14.365
86681W        W58407  23.618  23.703   2.973
86682W        W58408  14.818  15.733  12.524
86683W        W58409  20.826   8.093   5.009
86684W        W58410   2.022   4.526  13.006
86685W        W58411  41.280  29.660   2.668
86686W        W58412  28.184  22.143  12.972
86687W        W58413   0.388   1.460  11.448
86688W        W58414  35.506  34.886  10.721
86689W        W58415  18.668  30.930  14.847
86690W        W58416  25.767  10.845   4.315
86691W        W58417  18.413  19.149  12.339
86692W        W58418   9.699  30.129  14.076
86693W        W58419   2.491   0.849   0.773
86694W        W58420  29.002  29.753  12.371
86695W        W58421  31.872  42.977   1.327
86696W        W58422  29.510  34.718   3.582
86697W        W58423   6.322  38.090  14.372
86698W        W58424  13.764  21.061  10.561
86699W        W58425  31.847  37.246   1.733
86700W        W58426  26.648  23.559   0.421
86701W        W58427   2.376  41.126  14.374
86702W        W58428   2.729  29.663   1.788
86703W        W58429   8.875  41.955  11.061
86704W        W58430   4.236   7.460  11.487
86705W        W58431  25.169  24.895  13.951
86706W        W58432  12.776  44.920   1.410
86707W        W58433  28.838  39.014   3.312
86708W        W58434  10.729  10.811  12.559
86709W        W58435  43.304  14.336   1.946
86710W        W58436  26.552  37.247   4.590
86711W        W58437  38.454  16.702   3.315
86712W        W58438   5.758   6.894   1.166
86713W        W58439  13.050   0.511  13.789
86714W        W58440   9.453   5.180  13.144
86715W        W58441  18.222  17.490  13.819
86716W        W58442  23.096  12.471  13.978
86717W        W58443  31.106   0.430  14.018
86718W        W58444   4.182  41.670   4.878
86719W        W58445  12.045  27.108   3.169
86720W        W58446  41.820   9.362  13.869
86721W        W58447  14.239   6.006   5.058
86722W        W58448  42.039  22.423  13.469
86723W        W58449  40.583  16.345   0.688
86724W        W58450  12.199  40.339   2.996
86725W        W58451  13.005   0.251   1.729
86726W        W58452  12.062   8.746   3.694
86727W        W58453  12.561  43.464   2.056
86728W        W58454  30.535   2.420   2.727
86729W        W58455  14.366   2.310  12.303
86730W        W58456   0.216  41.430  14.353
86731W        W58457   8.519  33.009   3.732
86732W        W58458  39.526  29.409  13.409
86733W        W58459  10.003  20.942   2.924
86734W        W58460  37.023   5.725   4.525
86735W        W58461   4.261  16.868  14.863
86736W        W58462   6.443  32.448   4.807
86737W        W58463  13.072  37.483  12.321
86738W        W58464   0.831  39.112  13.855
86739W        W58465   9.126  10.818  11.052
86740W        W58466  20.541  35.854  11.127
86741W        W58467  12.200   9.954  12.514
86742W        W58468   6.154  34.849   1.948
86743W        W58469  15.576   9.934  12.025
86744W        W58470  39.971  28.389   2.315
86745W        W58471  39.032  26.831   5.123
86746W        W58472  21.070  14.822   5.550
86747W        W58473  24.913  32.617   4.588
86748W        W58474  40.836  15.682   0.324
86749W        W58475  43.772  42.619   2.181
86750W        W58476  36.825  11.601   4.306
86751W        W58477  28.310   7.302  13.576
86752W        W58478  22.224  12.849   2.999
86753W        W58479   2.725  10.872  12.574
86754W        W58480  41.033  26.779   2.460
86755W        W58481  22.274  16.626  10.535
86756W        W58482  19.930  12.275   2.562
86757W        W58483   2.755  34.507   2.740
86758W        W58484  24.514  43.312  11.407
86759W        W58485  33.463  28.962   4.246
86760W        W58486   8.771  22.299   0.338
86761W        W58487  36.304  38.556   1.747
86762W        W58488  41.230  28.517  13.196
86763W        W58489  14.686  11.137  12.099
86764W        W58490  43.033  14.160   1.522
86765W        W58491  15.902  22.795  14.789
86766W        W58492  34.433   5.085   2.828
86767W        W58493  12.663  39.289   2.270
86768W        W58494  22.526   7.997  13.836
86769W        W58495  22.690   7.459  11.427
86770W        W58496  31.482  27.967   3.736
86771W        W58497  43.827  19.621  12.157
86772W        W58498  28.450  37.955   2.378
86773W        W58499  19.336  21.279  11.173
86774W        W58500  39.918  12.675  14.806
86775W        W58501  36.912  24.453   1.217
86776W        W58502  24.128   1.735   0.615
86777W        W58503  30.637   2.196   0.661
86778W        W58504   6.451  42.422   4.229
86779W        W58505   4.968   6.815  13.746
86780W        W58506   7.100  18.829   4.073
86781W        W58507  37.262  18.892   2.243
86782W        W58508  26.161  35.681  13.333
86783W        W58509  14.606  22.229   5.083
86784W        W58510   8.583  27.755  13.854
86785W        W58511  36.721   6.772   0.902
86786W        W58512  27.608  23.718   1.744
86787W        W58513  25.741   0.597  12.712
86788W        W58514  11.634  17.443   1.278
86789W        W58515  40.848  27.896   4.115
86790W        W58516  13.854  22.626  14.547
86791W        W58517  42.020  37.826  10.937
86792W        W58518  31.229  17.140   3.660
86793W        W58519  44.314  30.885   3.653
86794W        W58520  30.450  32.865   4.286
86795W        W58521  13.036   1.356  14.429
86796W        W58522   8.264  27.686   2.372
86797W        W58523   9.905  30.355  11.602
86798W        W58524   5.783  18.854   3.281
86799W        W58525  37.576  31.022   4.093
86800W        W58526   4.287  26.008   4.343
86801W        W58527  14.169  26.902   4.270
86802W        W58528   2.917   5.461  12.585
86803W        W58529  12.868   9.377   0.903
86804W        W58530  40.145  38.934   4.370
86805W        W58531  40.162  21.531   3.658
86806W        W58532  23.281  13.740  13.334
86807W        W58533   9.592  38.823  14.079
86808W        W58534  31.767   9.869  10.589
86809W        W58535  19.439  33.255   0.987
86810W        W58536  31.468   4.349  12.555
86811W        W58537  16.029  38.847   2.317
86812W        W58538  13.184  11.099  10.535
86813W        W58539  42.077  41.936   0.743
86814W        W58540   9.395  14.432   4.213
86815W        W58541   1.442   0.152  12.957
86816W        W58542  25.727   5.819  11.170
86817W        W58543   7.739  15.309  11.647
86818W        W58544   5.882  36.336   2.814
86819W        W58545  18.090   1.476   0.408
86820W        W58546  20.394  22.032  11.138
86821W        W58547  27.572   0.221   4.310
86822W        W58548  42.373  35.192   4.471
86823W        W58549  30.091  29.706   0.745
86824W        W58550   7.326  17.708   4.639
86825W        W58551   0.852  32.279  14.348
86826W        W58552   2.783  14.276   0.686
86827W        W58553  12.732  44.998  12.836
86828W        W58554  13.202  30.042  14.745
86829W        W58555  34.527  13.292  12.061
86830W        W58556   9.672  41.840   0.980
86831W        W58557  22.521  15.562   4.197
86832W        W58558  22.999   5.323   4.352
86833W        W58559  28.906  38.375   4.161
86834W        W58560  33.073   9.457   3.386
86835W        W58561  19.094   0.969   3.213
86836W        W58562  29.590  34.935   4.438
86837W        W58563  15.489  36.881   0.707
86838W        W58564   3.451  33.502  11.594
86839W        W58565  39.585  13.830   2.826
86840W        W58566  38.088  20.028   3.906
86841W        W58567  35.296   7.095   0.221
86842W        W58568  44.980  28.377   1.446
86843W        W58569  14.740   7.276   4.801
86844W        W58570  44.395  36.491   4.517
86845W        W58571  15.518  30.127   1.618
86846W        W58572  15.511  36.335  12.385
86847W        W58573  40.868  27.493  10.393
86848W        W58574  31.499  42.268   3.367
86849W        W58575  20.016  40.491  11.657
86850W        W58576   0.682  25.635   2.286
86851W        W58577   5.131   2.391  14.299
86852W        W58578  26.229  15.292  11.158
86853W        W58579  44.044  23.761   3.705
86854W        W58580  43.775  44.069  11.231
86855W        W58581   8.726  34.521   2.084
86856W        W58582  22.271  10.098   1.243
86857W        W58583  32.247   0.264   4.994
86858W        W58584  21.155   6.868  11.557
86859W        W58585   6.855  31.426   2.283
86860W        W58586  14.255   8.078   2.391
86861W        W58587  12.290   0.703   3.408
86862W        W58588   6.018   9.764  10.761
86863W        W58589  35.585  31.459   2.332
86864W        W58590  19.528   3.189  12.899
86865W        W58591  30.170  39.053  11.251
86866W        W58592  30.200  30.158  11.613
86867W        W58593  17.903  37.904  13.053
86868W        W58594  31.324   4.285   4.051
86869W        W58595  44.858   0.726   2.190
86870W        W58596  20.621  39.597   3.350
86871W        W58597  18.308   8.165  10.409
86872W        W58598  10.096   1.322  13.370
86873W        W58599   6.490  36.619   3.140
86874W        W58600  26.684  28.031   4.127
86875W        W58601  22.938  24.586  12.991
86876W        W58602  24.864  25.268   2.398
86877W        W58603  23.163  15.349   2.732
86878W        W58604  28.938  19.102   1.253
86879W        W58605  33.939  10.176  14.148
86880W        W58606   8.810  25.438   2.227
86881W        W58607  25.512  38.807   4.615
86882W        W58608  40.992   4.845   2.184
86883W        W58609  21.684  44.898   3.343
86884W        W58610  16.756  27.983  12.228
86885W        W58611   2.507  19.394   0.414
86886W        W58612  38.945  23.052   1.601
86887W        W58613  41.404   0.985  13.433
86888W        W58614  16.813   5.520   4.587
86889W        W58615   7.896  15.484  12.594
86890W        W58616  17.856   5.518   3.798
86891W        W58617  37.823  23.728   3.250
86892W        W58618  16.925  39.894  10.113
86893W        W58619   0.955  34.017   0.792
86894W        W58620  19.349  39.585   3.000
86895W        W58621  44.407  25.498   0.536
86896W        W58622  19.373  16.223  11.923
86897W        W58623  30.879  41.797  13.101
86898W        W58624   1.132  24.449  11.089
86899W        W58625  28.237  16.634   0.831
86900W        W58626  27.650  31.141  10.628
86901W        W58627  18.201  19.372   4.267
86902W        W58628  32.009   7.047  12.456
86903W        W58629  44.868   2.211   2.409
86904W        W58630  12.088   0.652  11.060
86905W        W58631  42.299  31.972  12.277
86906W        W58632  31.680  32.297   3.851
86907W        W58633  19.739  19.707   2.104
86908W        W58634  14.803   5.876  14.592
86909W        W58635  37.955  41.988   4.142
86910W        W58636  43.357   5.349  11.029
86911W        W58637  30.164  17.787  10.953
86912W        W58638  42.004  43.598  12.501
86913W        W58639  27.916  12.595   3.627
86914W        W58640   8.839   3.251   0.462
86915W        W58641   2.770  33.386   1.314
86916W        W58642  20.770   7.690  14.746
86917W        W58643  32.260  24.719   1.793
86918W        W58644  43.310  33.189   4.537
86919W        W58645  29.562   4.878  10.831
86920W        W58646  22.679   9.179   4.495
86921W        W58647  34.303  25.278   4.394
86922W        W58648  39.311   5.477  12.698
86923W        W58649  17.534  17.217  11.907
86924W        W58650  34.016  34.944   4.465
86925W        W58651  26.422  42.091  10.736
86926W        W58652   9.326  22.631  11.472
86927W        W58653  39.242  41.072   0.713
86928W        W58654   6.793  18.194   3.877
86929W        W58655  22.537   1.348  13.841
86930W        W58656  28.237  40.270   0.209
86931W        W58657   9.253  44.306   3.442
86932W        W58658  36.098   3.199   2.373
86933W        W58659  43.608  26.472  14.354
86934W        W58660  40.627  15.632  10.564
86935W        W58661  40.849   3.784   1.894
86936W        W58662  38.587  23.086  13.512
86937W        W58663  11.652  36.390   5.485
86938W        W58664  25.703  38.314  13.895
86939W        W58665   2.243   4.938  11.418
86940W        W58666  22.007  14.041  14.530
86941W        W58667  15.455  11.788   2.085
86942W        W58668  23.128  32.859   1.369
86943W        W58669  32.633  40.123  14.976
86944W        W58670  31.126  42.451   2.394
86945W        W58671  39.839  24.139   3.677
86946W        W58672  14.978  17.290  12.128
86947W        W58673  30.446  37.206   5.006
86948W        W58674  24.023  12.862   3.284
86949W        W58675   7.410  42.918   2.235
86950W        W58676   7.489  26.765  12.430
86951W        W58677  42.318  15.144  12.923
86952W        W58678  22.262   9.264  12.154
86953W        W58679  34.440  42.509   0.022
86954W        W58680  28.126   1.984   4.058
86955W        W58681  44.471   5.823  12.406
86956W        W58682   2.543  38.618   4.412
86957W        W58683   1.537  38.739   2.233
86958W        W58684  17.779  41.029   0.966
86959W        W58685  11.689  29.760  13.703
86960W        W58686  20.188   8.176   3.849
86961W        W58687  19.088  29.382  13.893
86962W        W58688   6.258   6.401  10.157
86963W        W58689  22.024  39.829   3.605
86964W        W58690  28.407  13.349  12.479
86965W        W58691  14.028  37.931   3.747
86966W        W58692   7.443  13.686   0.017
86967W        W58693  16.751   4.300   0.825
86968W        W58694  40.251  44.331   1.795
86969W        W58695  22.695  34.222   3.247
86970W        W58696  11.554  14.129  11.189
86971W        W58697  34.036  31.651   3.887
86972W        W58698  23.027  39.526   2.792
86973W        W58699  40.138   6.233  11.705
86974W        W58700  32.860  16.893   0.859
86975W        W58701   5.201   8.439  12.137
86976W        W58702  23.629  18.612  14.939
86977W        W58703  25.432  16.264   0.163
86978W        W58704   8.832  38.920  10.683
86979W        W58705  30.689  41.434  11.449
86980W        W58706   6.520   6.837  12.775
86981W        W58707  14.391  13.816   3.693
86982W        W58708  36.516  29.424   0.727
86983W        W58709   7.752  25.574  11.638
86984W        W58710   9.376  20.626   4.526
86985W        W58711  13.572  16.084  13.631
86986W        W58712   4.243  15.784   0.979
86987W        W58713  32.535  20.382   4.290
86988W        W58714  32.156  27.691  11.118
86989W        W58715   7.944   4.751   1.187
86990W        W58716  33.668  25.510  13.867
86991W        W58717   8.861  18.012  10.598
86992W        W58718  28.157  25.045  10.079
86993W        W58719  37.828   3.265  10.745
86994W        W58720  30.358   5.663  13.390
86995W        W58721  21.573   4.972  11.129
86996W        W58722  23.967  15.871   4.158
86997W        W58723   4.132  10.288   3.383
86998W        W58724  21.158  44.290   4.172
86999W        W58725   7.442  10.679   2.301
87000W        W58726  18.748  40.252   1.030
87001W        W58727  24.390   3.753  14.453
87002W        W58728   1.023  34.475   1.014
87003W        W58729   5.317  32.629  12.396
87004W        W58730  37.683  44.901   0.197
87005W        W58731  39.958  10.915   0.673
87006W        W58732  42.493  12.660  12.214
87007W        W58733  43.150  14.168   4.220
87008W        W58734  13.260  23.091   2.096
87009W        W58735  28.091  21.263  14.889
87010W        W58736  35.418  32.037   4.109
87011W        W58737  21.789  29.138   0.391
87012W        W58738  28.114  41.015   1.407
87013W        W58739  11.288   3.363  13.807
87014W        W58740   0.721   6.302  13.747
87015W        W58741   2.509  20.137  11.552
87016W        W58742  25.768  30.027   2.034
87017W        W58743   0.323  26.039   2.271
87018W        W58744  15.664  33.198   2.403
87019W        W58745  21.661  17.181   4.029
87020W        W58746   8.492  22.658   2.281
87021W        W58747  18.143  14.051  13.077
87022W        W58748  20.082  21.626   0.841
87023W        W58749   9.476   6.475   4.138
87024W        W58750  42.610  22.356   3.681
87025W        W58751  15.074  40.692  14.181
87026W        W58752  42.815   3.374  12.513
87027W        W58753   5.627   0.027   2.277
87028W        W58754  41.066  12.580  14.364
87029W        W58755   9.021  17.626   2.356
87030W        W58756  29.514  10.130  14.981
87031W        W58757  35.306  42.499   3.815
87032W        W58758  14.486  39.005  11.078
87033W        W58759  10.626   5.567  11.479
87034W        W58760   9.815  25.284  11.922
87035W        W58761  38.028  14.130   4.798
87036W        W58762   5.672   0.170  11.076
87037W        W58763  31.102  35.103   0.557
87038W        W58764  22.059   1.677   3.184
87039W        W58765  37.227  28.836   1.758
87040W        W58766  43.349  21.775   0.246
87041W        W58767   0.249  26.620  13.437
87042W        W58768  21.138   2.326  11.903
87043W        W58769  24.978  15.119  11.579
87044W        W58770  44.329  31.369   1.792
87045W        W58771   8.744  15.106   0.794
87046W        W58772  20.029  27.934  10.065
87047W        W58773   5.374  19.221   3.847
87048W        W58774  15.742  27.557  10.365
87049W        W58775  27.712  29.628  12.258
87050W        W58776  25.180  24.541   3.098
87051W        W58777  17.440  33.771   4.407
87052W        W58778  31.279  27.791   4.265
87053W        W58779  17.232   2.687   1.690
87054W        W58780  29.723   8.098  14.694
87055W        W58781  34.194  19.682   3.338
87056W        W58782  42.787  37.433  12.413
87057W        W58783  21.280  30.009  12.457
87058W        W58784   5.930   2.047   4.606
87059W        W58785  23.565   8.149  13.309
87060W        W58786   7.945  10.851   2.430
87061W        W58787  21.881   7.202  13.884
87062W        W58788  19.979  10.707  13.842
87063W        W58789  21.746  43.888  14.063
87064W        W58790  31.028  17.684  14.213
87065W        W58791  26.589  19.461   2.364
87066W        W58792  31.183  20.172   3.951
87067W        W58793   2.339   6.104  14.747
87068W        W58794  44.894  15.894  13.850
87069W        W58795  38.427   0.728  13.441
87070W        W58796  37.277  32.437  11.038
87071W        W58797  18.260  30.083   2.179
87072W        W58798  23.063  16.594   0.391
87073W        W58799   9.520  17.800   2.339
87074W        W58800  31.238   6.290   2.673
87075W        W58801  18.289  32.917   0.524
87076W        W58802  33.531   6.518   1.522
87077W        W58803  13.333  31.837  12.739
87078W        W58804   4.486  37.495  12.878
87079W        W58805  19.257  30.515   4.745
87080W        W58806  14.477  11.609  11.985
87081W        W58807   1.953  24.809  14.771
87082W        W58808  18.074  11.728  10.691
87083W        W58809  32.030  28.143   2.867
87084W        W58810  30.544  37.871  14.515
87085W        W58811   1.305  38.287  11.105
87086W        W58812  23.043  18.245   3.143
87087W        W58813  41.891  26.446  11.994
87088W        W58814  33.910  42.802  14.480
87089W        W58815  34.254  38.574  12.013
87090W        W58816  39.339   9.691  13.929
87091W        W58817   6.255  44.490   4.704
87092W        W58818   3.355  34.586  13.842
87093W        W58819   3.598   2.452   1.887
87094W        W58820  36.433  31.231  14.979
87095W        W58821  19.612  16.070  13.311
87096W        W58822  40.423  36.626   2.712
87097W        W58823  16.739  31.071  14.776
87098W        W58824  16.537  20.284   2.850
87099W        W58825   1.747  44.937  13.311
87100W        W58826  37.935   4.371   1.618
87101W        W58827   9.112  17.154  10.588
87102W        W58828  17.731  41.364  14.518
87103W        W58829  43.124  36.830   0.396
87104W        W58830  20.718   3.933   4.172
87105W        W58831  13.685  41.348  14.944
87106W        W58832  30.040  14.116   4.392
87107W        W58833   9.389   8.788   0.207
87108W        W58834  43.057  15.141  13.894
87109W        W58835  44.926  32.746   3.682
87110W        W58836   4.017   3.814   4.438
87111W        W58837  39.967  44.688  10.490
87112W        W58838  23.635  26.489   0.802
87113W        W58839  15.974  20.106  10.725
87114W        W58840  13.077  42.868   3.631
87115W        W58841  24.668  19.575  11.235
87116W        W58842  30.008  23.641   5.091
87117W        W58843   3.812  18.150   4.033
87118W        W58844  44.712  23.214  11.817
87119W        W58845  40.386  43.515   1.685
87120W        W58846  18.668  33.300  12.169
87121W        W58847  40.053   3.712   1.373
87122W        W58848  36.611   8.717   2.267
87123W        W58849  24.419  37.755   0.752
87124W        W58850  31.059  17.996  11.926
87125W        W58851  12.431  28.023   4.285
87126W        W58852   0.321  36.558   4.868
87127W        W58853  40.897   6.646  11.445
87128W        W58854  27.154   7.863  13.530
87129W        W58855  37.472  37.301   0.206
87130W        W58856  11.383  17.141   2.181
87131W        W58857  31.169  27.594  11.045
87132W        W58858  16.213  13.745  13.206
87133W        W58859  23.152   7.616  11.579
87134W        W58860   5.687  12.142   3.675
87135W        W58861  13.424  23.216   0.178
87136W        W58862  33.796  34.504  10.586
87137W        W58863  28.660  36.301   2.220
87138W        W58864  30.553  13.598  12.096
87139W        W58865  19.792  41.356  11.459
87140W        W58866  27.998  16.875   1.256
87141W        W58867  37.636  22.172   4.186
87142W        W58868  38.099  37.077   0.390
87143W        W58869  28.217  42.796  11.735
87144W        W58870  36.248  28.597   2.805
87145W        W58871  40.522  22.160   2.773
87146W        W58872  23.845  31.682  11.063
87147W        W58873  33.070  25.152   0.280
87148W        W58874  32.861   6.763   3.264
87149W        W58875  33.228  23.968   0.311
87150W        W58876  41.511   0.436   2.661
87151W        W58877  14.769  23.457   0.900
87152W        W58878  30.242  43.849   9.696
87153W        W58879  27.501  18.515  14.633
87154W        W58880   5.601  23.156   4.066
87155W        W58881   5.834  32.509   0.272
87156W        W58882  24.711  33.835   2.274
87157W        W58883  40.734  39.124  12.829
87158W        W58884  17.220  19.295   2.320
87159W        W58885  42.355   1.746   2.388
87160W        W58886  10.022  25.065  14.742
87161W        W58887  23.597  21.738   2.901
87162W        W58888  13.866  44.635  11.382
87163W        W58889  36.084  24.698  14.969
87164W        W58890   2.867   4.959  13.991
87165W        W58891  24.532   4.228   4.001
87166W        W58892  23.129  36.859  12.865
87167W        W58893  12.755   1.474   1.398
87168W        W58894   0.180  24.797   1.934
87169W        W58895  20.578  41.031   3.442
87170W        W58896  35.039  11.289  14.939
87171W        W58897  14.971  39.562   0.731
87172W        W58898   4.152  28.754  10.358
87173W        W58899   6.816  25.945   3.722
87174W        W58900  39.897  30.579   3.303
87175W        W58901  39.274  41.781  14.042
87176W        W58902  20.442  34.988   3.234
87177W        W58903  35.406  37.414  11.526
87178W        W58904  40.545  19.795  11.867
87179W        W58905  33.407  13.709   2.673
87180W        W58906   3.242  11.252  11.538
87181W        W58907  29.483   7.342  13.961
87182W        W58908  28.446  37.988  13.492
87183W        W58909  27.969   3.162  14.960
87184W        W58910  25.059   8.099  13.505
87185W        W58911  18.721  29.031  14.555
87186W        W58912  13.543  25.722  12.749
87187W        W58913  32.162  30.557  11.685
87188W        W58914  44.731  14.749  12.606
87189W        W58915  36.200  42.967   2.718
87190W        W58916   1.356  14.842   0.787
87191W        W58917  39.893   1.729   3.105
87192W        W58918  14.291  27.755  12.207
87193W        W58919  12.071  21.300  11.057
87194W        W58920  20.141  25.186  11.708
87195W        W58921   0.935   4.930   0.002
87196W        W58922  30.047  17.418  13.387
87197W        W58923  29.544  37.870  14.993
87198W        W58924  43.930  27.340   1.318
87199W        W58925  28.682  26.107  14.845
87200W        W58926  28.474   8.263   2.899
87201W        W58927  16.575  27.130   1.446
87202W        W58928  44.340  26.381   4.900
87203W        W58929   9.253   1.247   0.770
87204W        W58930   5.253  36.100   4.271
87205W        W58931  40.094  15.555  10.696
87206W        W58932  18.993   1.396  12.145
87207W        W58933  12.877   6.043  12.047
87208W        W58934  30.027  24.017  12.010
87209W        W58935  34.466  14.789   4.175
87210W        W58936  19.166  26.825  13.373
87211W        W58937  27.393  34.331   1.263
87212W        W58938  10.243  23.237  13.859
87213W        W58939   9.083  44.729  14.942
87214W        W58940   9.755  36.978  12.330
87215W        W58941  44.218  32.254  13.923
87216W        W58942  22.440  25.748  11.176
87217W        W58943  20.934  30.129   4.139
87218W        W58944  20.098  37.334  13.325
87219W        W58945  31.173  41.629   1.899
87220W        W58946  35.099  39.960  10.735
87221W        W58947  18.558  42.494   3.219
87222W        W58948  21.194  22.281  10.808
87223W        W58949  28.642   8.296  14.763
87224W        W58950  34.818  35.128   5.033
87225W        W58951  25.435  35.983  12.438
87226W        W58952  40.969  25.800   2.080
87227W        W58953   2.706  11.213  11.531
87228W        W58954   7.756   6.600  10.105
87229W        W58955   0.331   7.728   3.113
87230W        W58956  40.869  17.678  14.298
87231W        W58957   4.329  26.947   2.758
87232W        W58958  32.516  39.777  12.496
87233W        W58959  37.495  22.530   1.031
87234W        W58960   1.905   9.457   0.882
87235W        W58961  43.898  30.791  11.908
87236W        W58962  22.652  11.861  11.422
87237W        W58963   0.885  39.630   0.801
87238W        W58964  13.019  36.208  14.273
87239W        W58965   5.994  14.821  13.381
87240W        W58966  24.632   6.184   1.435
87241W        W58967  41.874   2.295   3.818
87242W        W58968  39.334  25.181   2.619
87243W        W58969  32.497  39.806   3.146
87244W        W58970  26.157  35.358  10.557
87245W        W58971  41.762  15.013  10.649
87246W        W58972  43.168  44.178  10.643
87247W        W58973  11.680   9.895  14.543
87248W        W58974  11.350  36.421   5.058
87249W        W58975  34.102   4.486  12.695
87250W        W58976   1.287   1.271  10.855
87251W        W58977  32.617  14.091  14.847
87252W        W58978  39.342  28.490   2.724
87253W        W58979  11.078  26.011  13.510
87254W        W58980  22.242  22.291   0.832
87255W        W58981  17.276   5.295  13.048
87256W        W58982  11.693  43.783   4.248
87257W        W58983  39.710  39.982  13.101
87258W        W58984  27.399  12.284  11.580
87259W        W58985  31.509   1.680   2.751
87260W        W58986  11.775  11.320   3.059
87261W        W58987  44.741   8.670   1.913
87262W        W58988   2.654  33.854   0.937
87263W        W58989  40.846  22.697   1.269
87264W        W58990  20.813  15.251   1.808
87265W        W58991  29.653  13.094  14.067
87266W        W58992  10.566  37.344  11.215
87267W        W58993  27.869   9.132  13.448
87268W        W58994  27.683  12.585   2.409
87269W        W58995  24.263  41.803  11.984
87270W        W58996  16.717  27.384  12.556
87271W        W58997  21.284   8.111  11.127
87272W        W58998  41.875  13.062   3.208
87273W        W58999  19.711  16.561  13.282
87274W        W59000  40.527  20.209  12.225
87275W        W59001  14.386   7.903  12.741
87276W        W59002   9.768  36.386  11.084
87277W        W59003   0.557  29.992  14.893
87278W        W59004  27.881  29.849   1.142
87279W        W59005  42.521   5.146   4.624
87280W        W59006   1.119  27.369   1.678
87281W        W59007  31.142   3.795   3.908
87282W        W59008  36.030  30.988   0.248
87283W        W59009  28.592  30.064  11.107
87284W        W59010  18.600   2.212  10.673
87285W        W59011  10.129   5.448  13.389
87286W        W59012  38.211   7.258   0.718
87287W        W59013  25.899  12.077  12.438
87288W        W59014  35.716  28.591   2.970
87289W        W59015   5.541  13.366   2.256
87290W        W59016  35.867  37.621  13.362
87291W        W59017   8.141   2.451  12.999
87292W        W59018  19.792  43.184  11.666
87293W        W59019  10.799  13.750   1.759
87294W        W59020  34.621   0.247  12.117
87295W        W59021  23.802  38.111   3.668
87296W        W59022  42.373   9.197  12.980
87297W        W59023  26.210  36.637   3.215
87298W        W59024  32.034  40.582   2.356
87299W        W59025  28.508  24.087   4.663
87300W        W59026  31.434  43.606  13.081
87301W        W59027  44.967  16.797  14.368
87302W        W59028   5.834  44.958   0.892
87303W        W59029  12.316  26.875  13.760
87304W        W59030  18.694  17.961  13.006
87305W        W59031  33.756  35.134   9.957
87306W        W59032  28.686  28.649   4.235
87307W        W59033  28.484   9.095   3.754
87308W        W59034   2.992  27.992  13.439
87309W        W59035  26.215  30.089   2.281
87310W        W59036   4.047  12.668  12.672
87311W        W59037   6.855   8.383  10.908
87312W        W59038  12.223  34.394   3.882
87313W        W59039   9.364  14.966  10.768
87314W        W59040  39.851  40.123   0.918
87315W        W59041  10.340  19.627   4.229
87316W        W59042  29.769  19.054  11.137
87317W        W59043   3.362  16.126   5.084
87318W        W59044  32.180  19.275  13.869
87319W        W59045  41.973   3.963   1.292
87320W        W59046  36.286  34.652   4.346
87321W        W59047  18.659  35.836   5.178
87322W        W59048   2.747  15.761  13.551
87323W        W59049  33.857  36.203   1.413
87324W        W59050   2.483   0.285  12.776
87325W        W59051   7.405   0.171   2.463
87326W        W59052  15.618  10.593   3.277
87327W        W59053  23.019   8.437   1.601
87328W        W59054  20.295  41.392  12.712
87329W        W59055   2.797  14.596   4.560
87330W        W59056  13.190  21.695  13.060
87331W        W59057  36.777  17.539  11.591
87332W        W59058   1.056  23.708  14.241
87333W        W59059  30.396  29.023   3.676
87334W        W59060   3.967  33.614   3.173
87335W        W59061  22.936   4.719  10.905
87336W        W59062  13.793  36.550  13.930
87337W        W59063   0.888   8.611   4.588
87338W        W59064  35.590  42.273  11.961
87339W        W59065  40.879  37.443   0.920
87340W        W59066  39.589  17.730  13.928
87341W        W59067  43.709  12.264   0.948
87342W        W59068  30.174  27.915   2.373
87343W        W59069  35.675  42.761   2.656
87344W        W59070  39.339  17.500   2.849
87345W        W59071  27.925  33.589  13.728
87346W        W59072  38.718  34.049  11.107
87347W        W59073  16.530  33.499  13.407
87348W        W59074  28.405  22.010  12.509
87349W        W59075  37.853  28.611   2.557
87350W        W59076  37.419   4.222  14.062
87351W        W59077   8.208   8.772   3.083
87352W        W59078  29.142  19.095  13.577
87353W        W59079  17.131   2.733   1.183
87354W        W59080  29.048  18.568  13.694
87355W        W59081   3.810  23.519   3.356
87356W        W59082  19.252  25.181  10.874
87357W        W59083  33.925  17.464   4.143
87358W        W59084  38.284  22.704   3.221
87359W        W59085  13.290  36.503   2.736
87360W        W59086  42.431  25.544  12.640
87361W        W59087  29.581  10.500  12.159
87362W        W59088  26.183   6.398   1.979
87363W        W59089  16.855  33.347   1.243
87364W        W59090  14.317  31.863   0.679
87365W        W59091  39.627  42.864   4.240
87366W        W59092  14.162  24.649  14.092
87367W        W59093  17.344  18.247   1.391
87368W        W59094  36.019  29.541  14.942
87369W        W59095  43.460  35.913   5.167
87370W        W59096  27.609  44.148  10.987
87371W        W59097   0.546  41.856   4.944
87372W        W59098  32.562  10.900  10.819
87373W        W59099  24.489  24.172  14.065
87374W        W59100  12.399  12.160  12.920
87375W        W59101  14.367  17.309   1.721
87376W        W59102  15.211   0.028  14.072
87377W        W59103   5.959   7.786  14.323
87378W        W59104  27.952  43.563   1.706
87379W        W59105   2.666  14.091  14.676
87380W        W59106  24.033  23.465  12.953
87381W        W59107  30.161  18.012  13.088
87382W        W59108  40.349   0.924  14.784
87383W        W59109  39.544   4.031  11.022
87384W        W59110  28.312   4.906   4.349
87385W        W59111  42.693  44.911   1.821
87386W        W59112  11.833  44.430   4.232
87387W        W59113  26.232  29.697  14.449
87388W        W59114   1.310  33.524  12.569
87389W        W59115  18.016  14.829   4.775
87390W        W59116   1.457  24.679   3.698
87391W        W59117   8.780   7.376   1.290
87392W        W59118  12.389  39.785  12.501
87393W        W59119  40.652  29.799  14.686
87394W        W59120  33.776   3.679   2.853
87395W        W59121  13.724   7.340   4.283
87396W        W59122  15.252   7.928   1.717
87397W        W59123  43.262  33.245  11.847
87398W        W59124  13.708   9.354   0.277
87399W        W59125  27.474   7.105  12.439
87400W        W59126  31.376  15.832   4.131
87401W        W59127  44.334  44.034  12.448
87402W        W59128   0.790  23.231   0.921
87403W        W59129  42.389  42.727  11.482
87404W        W59130  24.216  40.852   0.898
87405W        W59131   7.857  12.767   0.961
87406W        W59132  20.789  20.348   1.892
87407W        W59133   7.198  38.057   1.463
87408W        W59134  38.460  23.182  11.997
87409W        W59135  33.561   7.833   0.059
87410W        W59136  22.238  14.546  10.549
87411W        W59137   8.458  22.129   2.748
87412W        W59138   1.012  10.609  11.136
87413W        W59139  16.273  29.044  13.446
87414W        W59140  21.086  10.906  11.584
87415W        W59141  29.492  28.032  10.763
87416W        W59142   9.909   4.401   2.760
87417W        W59143  15.096  39.598  13.944
87418W        W59144  38.329  23.061  12.507
87419W        W59145   2.456   4.224  14.334
87420W        W59146   3.383   2.950   3.332
87421W        W59147  17.667  36.970  14.944
87422W        W59148   9.176  32.348  14.220
87423W        W59149  37.346  37.869   3.148
87424W        W59150  16.760  25.129   2.364
87425W        W59151  32.798  20.640   0.964
87426W        W59152   4.675  23.874   2.777
87427W        W59153  37.584  21.062   3.167
87428W        W59154  39.571  11.651  11.394
87429W        W59155  38.969  11.893   4.587
87430W        W59156  16.794  28.912  12.574
87431W        W59157  16.386  22.753  14.987
87432W        W59158  26.219  12.555   2.368
87433W        W59159  24.252  12.841  12.129
87434W        W59160  20.769  35.507  12.908
87435W        W59161  24.750  22.209  12.130
87436W        W59162  30.439   9.265  12.448
87437W        W59163  30.368  25.907   2.804
87438W        W59164  15.170  29.129  14.301
87439W        W59165   0.821  44.167  13.917
87440W        W59166  27.025  36.542  11.966
87441W        W59167  35.558  35.531  13.334
87442W        W59168  24.354  43.862  14.442
87443W        W59169  20.123  15.626  11.664
87444W        W59170  40.949  19.079   3.888
87445W        W59171  10.399  26.605   1.456
87446W        W59172  34.538  10.413   1.830
87447W        W59173  39.592  38.862   3.784
87448W        W59174  42.247   9.091  13.893
87449W        W59175  15.139  21.981   1.566
87450W        W59176  34.270   9.838  14.351
87451W        W59177  15.600   1.338  13.121
87452W        W59178  28.655   8.599   2.574
87453W        W59179   2.928  10.743   0.944
87454W        W59180   4.445   0.459   0.891
87455W        W59181   7.287   5.610  14.975
87456W        W59182  40.512   5.464  12.423
87457W        W59183  20.483   7.279   1.873
87458W        W59184  23.157  38.784   3.786
87459W        W59185  20.032  25.758  13.989
87460W        W59186  37.364   3.304  12.900
87461W        W59187  18.136   7.730   4.865
87462W        W59188  34.104  10.759  12.942
87463W        W59189   2.403   6.944   1.729
87464W        W59190  25.707  43.294   5.106
87465W        W59191  43.023  41.515  13.334
87466W        W59192  17.333   0.954   2.301
87467W        W59193  19.735  36.184  10.343
87468W        W59194  36.452  23.546   3.802
87469W        W59195  29.673  13.428  11.365
87470W        W59196  24.213   1.403  14.525
87471W        W59197   5.720   0.100  13.461
87472W        W59198   4.241  19.091  14.352
87473W        W59199  20.113  11.338   2.914
87474W        W59200  44.347  24.177   0.626
87475W        W59201  15.577  26.489  14.704
87476W        W59202  22.866  43.940   1.525
87477W        W59203   4.227  13.690  12.973
87478W        W59204  24.719  41.733  12.196
87479W        W59205  39.560  21.995   4.661
87480W        W59206  20.441   9.562  13.955
87481W        W59207  41.495  26.797   4.183
87482W        W59208  42.345  40.600  10.533
87483W        W59209  11.639   0.298   4.472
87484W        W59210  43.273  11.147   2.265
87485W        W59211  19.445   1.744  13.025
87486W        W59212  41.310  11.250   4.858
87487W        W59213  12.463  21.615   1.308
87488W        W59214  13.440  31.648   2.918
87489W        W59215  26.017   4.117   4.331
87490W        W59216  12.750  34.608  12.945
87491W        W59217  32.930  32.979   2.292
87492W        W59218  20.387  27.920  14.998
87493W        W59219  37.607  32.057   1.425
87494W        W59220  33.480  26.550   4.986
87495W        W59221   8.728  32.397   4.164
87496W        W59222  36.360   4.317   3.925
87497W        W59223  12.081  20.154  14.457
87498W        W59224   2.717  20.633  12.805
87499W        W59225  20.635  14.684  14.061
87500W        W59226   7.625   1.023  11.913
87501W        W59227   0.879  26.480  14.610
87502W        W59228  36.261  17.673   2.875
87503W        W59229  13.659  34.578  12.445
87504W        W59230   8.452  13.042  11.923
87505W        W59231   3.549  31.967   4.574
87506W        W59232  13.592  42.247  14.301
87507W        W59233  20.440  25.517  12.030
87508W        W59234  28.454  42.386  10.694
87509W        W59235  12.719  42.850   4.076
87510W        W59236  43.589  38.984  12.961
87511W        W59237  40.587   9.414  12.539
87512W        W59238  29.437   9.367  13.306
87513W        W59239  24.238  14.777   2.216
87514W        W59240  20.105  11.388  10.885
87515W        W59241  36.855   7.289   2.862
87516W        W59242   6.770  35.001   4.167
87517W        W59243   6.482  15.125  10.030
87518W        W59244  12.300  33.484   4.882
87519W        W59245  37.015  31.801  12.198
87520W        W59246  39.280  40.096   1.798
87521W        W59247  42.402  14.856  13.360
87522W        W59248  28.528  17.808  14.306
87523W        W59249  22.901  19.062  12.916
87524W        W59250  27.466   2.716   2.163
87525W        W59251  18.103  25.204   1.803
87526W        W59252   8.290  12.817  11.460
87527W        W59253  44.323  27.671   1.226
87528W        W59254  11.129  43.534   0.968
87529W        W59255  17.721  39.505  11.914
87530W        W59256  13.839   9.246  12.880
87531W        W59257   8.351  40.570   1.676
87532W        W59258  41.009  33.316  11.973
87533W        W59259  18.376  19.118  10.691
87534W        W59260  33.133  24.854  12.817
87535W        W59261   7.436  43.332   1.382
87536W        W59262  18.015   1.028   1.666
87537W        W59263  20.693  26.838   1.399
87538W        W59264  35.517  32.905  12.442
87539W        W59265   1.697  42.382  11.658
87540W        W59266  20.262   1.322  12.598
87541W        W59267   9.565  44.422   3.853
87542W        W59268  42.528  22.293  13.594
87543W        W59269  32.562  24.421   0.854
87544W        W59270  24.188  34.362   3.827
87545W        W59271  26.384  31.635   2.399
87546W        W59272   1.993  19.832   1.686
87547W        W59273   0.773  21.579   3.740
87548W        W59274  31.248  19.013  14.038
87549W        W59275  39.636  42.007  13.752
87550W        W59276   3.930   5.195  11.141
87551W        W59277   8.918  13.061  10.542
87552W        W59278  19.061   2.663   4.632
87553W        W59279  42.187  15.259  12.408
87554W        W59280  30.901  26.877  11.459
87555W        W59281  35.135  25.291  11.479
87556W        W59282  16.359  13.323   3.179
87557W        W59283   2.023   4.242   2.284
87558W        W59284  10.719  31.020   0.456
87559W        W59285  24.470  35.282   3.226
87560W        W59286   9.214  14.298   1.667
87561W        W59287  38.480   1.268  12.554
87562W        W59288   8.444  22.995  13.415
87563W        W59289   4.886  27.576  10.738
87564W        W59290  29.068  14.231   4.632
87565W        W59291  35.060  31.717   1.349
87566W        W59292   8.178  43.318  12.532
87567W        W59293  13.794   3.938   2.926
87568W        W59294   9.135  36.872  12.121
87569W        W59295  16.729   1.028   1.875
87570W        W59296  30.830  32.022   2.262
87571W        W59297  30.408  33.039  10.695
87572W        W59298   9.121   5.269  10.703
87573W        W59299  37.114  26.369  14.361
87574W        W59300  32.550  14.396   2.784
87575W        W59301   2.333  16.579   0.227
87576W        W59302  42.354   3.127  12.682
87577W        W59303  35.783  40.259  11.120
87578W        W59304  11.254   9.081  12.364
87579W        W59305  16.218   8.764   4.621
87580W        W59306  41.369   4.712   2.840
87581W        W59307  17.591  28.056  12.880
87582W        W59308  14.280  24.479   1.246
87583W        W59309  24.907  24.453  13.837
87584W        W59310  36.974   7.914  13.419
87585W        W59311  15.556  24.684  13.909
87586W        W59312  12.113  12.250   2.714
87587W        W59313  36.908  26.878   1.923
87588W        W59314  39.327  27.416   3.267
87589W        W59315  10.938  33.413   1.898
87590W        W59316   4.189  14.868  12.455
87591W        W59317   9.675  39.895  11.108
87592W        W59318  43.769   6.748   1.678
87593W        W59319  41.030   4.450   1.244
87594W        W59320  36.052   8.852  13.433
87595W        W59321  33.567  42.586   1.201
87596W        W59322  20.742  24.024   1.996
87597W        W59323  30.982  12.872   0.277
87598W        W59324   6.839  25.488   1.708
87599W        W59325   7.094  15.142  13.916
87600W        W59326   1.302  20.439  12.443
87601W        W59327  39.048  44.226   3.623
87602W        W59328  37.103  29.336   1.741
87603W        W59329  29.963  31.464  12.514
87604W        W59330   3.869  27.279   1.932
87605W        W59331  38.121  44.262   2.453
87606W        W59332  18.929  26.864   4.997
87607W        W59333  36.650  26.185  10.370
87608W        W59334   5.981  25.585   1.294
87609W        W59335  11.391  34.224   3.755
87610W        W59336  11.858  29.467  11.494
87611W        W59337   9.211  23.019   1.908
87612W        W59338  10.233  16.748   2.176
87613W        W59339   4.622  29.495   0.864
87614W        W59340  18.723  24.081   0.932
87615W        W59341  29.935  19.694  12.803
87616W        W59342  35.019  18.669   2.155
87617W        W59343   1.996   1.409   1.812
87618W        W59344  26.669   1.697   2.291
87619W        W59345  31.490  19.274  14.505
87620W        W59346  14.626   6.116  10.662
87621W        W59347  35.080   1.201   3.293
87622W        W59348  29.983  24.802  12.462
87623W        W59349  32.266  28.221  11.151
87624W        W59350  30.957  10.644   4.638
87625W        W59351   7.097  16.787   4.281
87626W        W59352  27.236   0.244   1.976
87627W        W59353  22.739   5.338   3.059
87628W        W59354   5.618  36.799   3.285
87629W        W59355  14.583   3.898  13.469
87630W        W59356  30.779  44.914  10.143
87631W        W59357  32.509  30.036   1.244
87632W        W59358   3.420  12.803   4.848
87633W        W59359  37.525  32.959   1.168
87634W        W59360  33.007  21.089   1.829
87635W        W59361  24.247   9.429   3.354
87636W        W59362   8.447   3.249  11.850
87637W        W59363  15.449  33.463   3.647
87638W        W59364  42.919  26.609   4.563
87639W        W59365  28.165  34.950  13.319
87640W        W59366  15.805  31.233  14.875
87641W        W59367  16.978  25.538   2.144
87642W        W59368  42.310   7.530   0.159
87643W        W59369  12.788  36.962   4.314
87644W        W59370   4.098   7.467  10.988
87645W        W59371   7.921  23.086   0.683
87646W        W59372   5.429  26.450   3.764
87647W        W59373  34.819  31.905  13.013
87648W        W59374  25.420  13.783  10.995
87649W        W59375  19.857   4.796   2.312
87650W        W59376   2.039  41.350   1.193
87651W        W59377   4.617   7.456  10.103
87652W        W59378  24.105   3.383   1.899
87653W        W59379  39.799  30.351  12.486
87654W        W59380  35.333   5.267  14.908
87655W        W59381  36.306  17.599  12.484
87656W        W59382  33.729  39.464   4.284
87657W        W59383   1.004   9.403  10.643
87658W        W59384   5.727  28.654  13.907
87659W        W59385  35.963   2.677  13.487
87660W        W59386  41.076  20.262   3.990
87661W        W59387  39.295  44.799  12.992
87662W        W59388  38.785  44.685  11.866
87663W        W59389  10.276   7.891   3.825
87664W        W59390  44.773   4.484  10.743
87665W        W59391  12.799  17.179  10.929
87666W        W59392  35.291  34.102   3.346
87667W        W59393  26.242   2.179  10.624
87668W        W59394  38.245  37.042  10.702
87669W        W59395  18.030  13.128   1.311
87670W        W59396  25.613  39.437  11.491
87671W        W59397  19.711  38.797  14.925
87672W        W59398  27.576  44.320  10.494
87673W        W59399  11.203  24.511  14.885
87674W        W59400   4.936  32.613   1.786
87675W        W59401   7.431  22.097   4.576
87676W        W59402  14.075  21.677   0.804
87677W        W59403   9.885  22.119  10.606
87678W        W59404  33.904  15.284   2.782
87679W        W59405  38.546  30.380   2.691
87680W        W59406  34.392  16.390  13.461
87681W        W59407  19.504  43.484  14.497
87682W        W59408   6.980   7.386   5.113
87683W        W59409  24.645   3.231  14.757
87684W        W59410  40.077  30.370   1.875
87685W        W59411  25.422  15.775   0.862
87686W        W59412  33.533  17.930  10.666
87687W        W59413  16.562   2.388  10.786
87688W        W59414  12.402  20.002  12.475
87689W        W59415   4.897  27.756   0.895
87690W        W59416  43.620  26.895  11.185
87691W        W59417  22.540  15.719   1.290
87692W        W59418   1.250  20.733   3.695
87693W        W59419   5.864   7.435   1.630
87694W        W59420  28.386  31.122  13.909
87695W        W59421  23.135  20.178  11.067
87696W        W59422  24.639  14.745   0.059
87697W        W59423  35.963   8.309   0.223
87698W        W59424  32.059   2.981   4.167
87699W        W59425   9.804   3.700  14.746
87700W        W59426  38.465  40.538   1.249
87701W        W59427  17.835  43.718   2.343
87702W        W59428  28.018  25.124   0.486
87703W        W59429  16.085  15.627   2.724
87704W        W59430  17.152  10.816  13.939
87705W        W59431  10.214  29.506  13.233
87706W        W59432  18.691  40.434  13.900
87707W        W59433  28.599  39.982   4.730
87708W        W59434   3.253   6.370   3.722
87709W        W59435  26.463  30.920  13.099
87710W        W59436   0.057  21.806  14.704
87711W        W59437   2.913  29.581   4.612
87712W        W59438  25.289  16.202  10.656
87713W        W59439  31.531  20.315  13.730
87714W        W59440  38.972  12.460   0.906
87715W        W59441  17.312  36.643  12.874
87716W        W59442  17.009  17.437  12.841
87717W        W59443  20.195   6.156   1.348
87718W        W59444  28.491  28.544  10.967
87719W        W59445  42.615  15.179   1.855
87720W        W59446  27.784  11.833  10.087
87721W        W59447   3.321  32.891   0.307
87722W        W59448  43.417  15.667   3.122
87723W        W59449  41.024  39.427   0.609
87724W        W59450  30.775  13.113   1.045
87725W        W59451  18.229  10.826  13.767
87726W        W59452   0.011  22.725  12.526
87727W        W59453  22.676  34.362  10.530
87728W        W59454  25.201  36.331  12.983
87729W        W59455  21.104   1.406  12.188
87730W        W59456  43.926  31.468  12.413
87731W        W59457  12.752  24.307   3.341
87732W        W59458  26.006  16.310  13.119
87733W        W59459   8.664  38.474   3.796
87734W        W59460  13.164  41.913  14.319
87735W        W59461   4.934  15.789   3.619
87736W        W59462  29.424  30.344  14.767
87737W        W59463  32.787  13.069   2.903
87738W        W59464  14.278  37.112  11.945
87739W        W59465  37.535  38.911   4.515
87740W        W59466  32.449   5.680  12.386
87741W        W59467  20.496  44.678  13.044
87742W        W59468  21.285  37.046   5.052
87743W        W59469  25.967  28.636  12.860
87744W        W59470  13.817  20.578   2.904
87745W        W59471   7.566  20.152  11.975
87746W        W59472  31.534  20.190   2.953
87747W        W59473  20.028   1.544  13.558
87748W        W59474   2.564  42.331  14.958
87749W        W59475  44.894  43.267   0.776
87750W        W59476  37.381  36.531   2.814
87751W        W59477  30.007  31.658   4.597
87752W        W59478   1.948   4.200  11.443
87753W        W59479   9.839  21.857   2.264
87754W        W59480   3.412  17.070  14.952
87755W        W59481  28.023  43.659   5.108
87756W        W59482   2.991  22.978  13.287
87757W        W59483  31.277  36.168   2.509
87758W        W59484  38.336  21.755   2.768
87759W        W59485  21.529   9.824  10.645
87760W        W59486  29.078  20.474   3.238
87761W        W59487  44.733  24.112   1.013
87762W        W59488  42.713  36.446  12.634
87763W        W59489  18.882  25.064   4.949
87764W        W59490  36.922   8.380   3.702
87765W        W59491  40.697  37.449  14.119
87766W        W59492  42.560  23.994  10.641
87767W        W59493  18.969  18.866   2.392
87768W        W59494  11.412  10.616   2.870
87769W        W59495  31.121  32.327   0.699
87770W        W59496   3.568  29.725  13.429
87771W        W59497  34.436   7.512  13.021
87772W        W59498  13.056   9.167  10.292
87773W        W59499  12.620  41.351  10.963
87774W        W59500  42.270  11.746   1.798
87775W        W59501   2.659  17.339   1.259
87776W        W59502  40.313  19.618   0.359
87777W        W59503  38.112  42.454   3.912
87778W        W59504  21.046  36.437  14.383
87779W        W59505  28.703  36.927   1.813
87780W        W59506  10.339   3.477  11.160
87781W        W59507  11.934  30.632  13.270
87782W        W59508  42.355   5.779   0.940
87783W        W59509  40.361   2.023   1.883
87784W        W59510  37.319  23.708   3.292
87785W        W59511  32.838  44.849   1.289
87786W        W59512  38.917  24.925  12.378
87787W        W59513  27.424   7.857   0.783
87788W        W59514  42.289  39.593  10.895
87789W        W59515   9.403  39.444  13.003
87790W        W59516  38.291  22.770   4.089
87791W        W59517  20.695   5.019   2.687
87792W        W59518  39.218  34.036  11.058
87793W        W59519  13.827  15.302  11.893
87794W        W59520  44.785  41.841   3.309
87795W        W59521  41.027  37.029  14.795
87796W        W59522   1.677  36.403   3.537
87797W        W59523   9.288  11.977  14.462
87798W        W59524  16.379  43.820  13.524
87799W        W59525  17.690  30.866   1.972
87800W        W59526   9.070  27.622  13.866
87801W        W59527  37.638  43.354   2.744
87802W        W59528  12.438  26.683  13.296
87803W        W59529  19.672  18.046  12.044
87804W        W59530  32.846   3.258  11.587
87805W        W59531  22.516  25.671   5.353
87806W        W59532  30.496  42.973  11.505
87807W        W59533  43.007  17.331  14.256
87808W        W59534  25.139  36.906   2.831
87809W        W59535  43.950  41.348  13.623
87810W        W59536  44.741  40.242  10.185
87811W        W59537  11.879   3.867   4.525
87812W        W59538  10.206  11.324  11.936
87813W        W59539  39.764  18.151  12.523
87814W        W59540  14.224  18.298  11.721
87815W        W59541  32.022  40.308  11.214
87816W        W59542  38.444  33.993   2.432
87817W        W59543  25.723  36.127   1.449
87818W        W59544  27.727  42.566   1.622
87819W        W59545  10.245  39.424   4.122
87820W        W59546  22.007  28.256   9.673
87821W        W59547  34.027  24.241  11.802
87822W        W59548   2.662   9.394   3.772
87823W        W59549  14.593  39.873   9.762
87824W        W59550  37.666  35.607   3.602
87825W        W59551  27.324  29.483   3.228
87826W        W59552  33.855  23.602   1.257
87827W        W59553  29.289  19.226   2.635
87828W        W59554  26.362   2.438   1.006
87829W        W59555   8.158  30.343   2.697
87830W        W59556   3.483  43.475   2.356
87831W        W59557  30.033  25.976  11.059
87832W        W59558  27.179  36.353  11.482
87833W        W59559  44.887   1.370   0.909
87834W        W59560  32.955  10.197   4.607
87835W        W59561  16.565  26.736   2.324
87836W        W59562  33.890  28.971  14.953
87837W        W59563   4.757  17.770   0.474
87838W        W59564  32.628  26.170  14.281
87839W        W59565  38.838   6.380  12.333
87840W        W59566  18.796   9.595  11.490
87841W        W59567  18.433  34.484   4.096
87842W        W59568  24.076  43.332  10.645
87843W        W59569  11.963   6.143   4.360
87844W        W59570  16.653  16.160   3.884
87845W        W59571  34.920   6.878  10.375
87846W        W59572  28.340   5.036  14.292
87847W        W59573  37.297  18.162   4.735
87848W        W59574  29.475  13.701  13.363
87849W        W59575  18.009  38.867  12.874
87850W        W59576  42.781   8.154   0.456
87851W        W59577   1.975  31.454   2.239
87852W        W59578  39.355  40.574  12.543
87853W        W59579  24.727  16.390  11.292
87854W        W59580  11.192  21.714   1.897
87855W        W59581  18.254  43.768   2.014
87856W        W59582  33.289  44.005  10.496
87857W        W59583  10.230  17.269  14.332
87858W        W59584  34.003  28.447  12.698
87859W        W59585  24.312  19.409  14.606
87860W        W59586  27.197  42.958  10.631
87861W        W59587  37.463  13.663  11.527
87862W        W59588  31.681  40.059  12.937
87863W        W59589  23.697  40.529  11.147
87864W        W59590  20.272   2.227   1.892
87865W        W59591  33.058   9.125  12.501
87866W        W59592  16.330  17.703   3.791
87867W        W59593   3.443   4.955   2.321
87868W        W59594  39.800  32.065  13.757
87869W        W59595  34.209  15.276  13.947
87870W        W59596  29.840  14.664   1.487
87871W        W59597  37.996   0.067   3.285
87872W        W59598   4.918  43.760  10.663
87873W        W59599  24.703  33.439  14.469
87874W        W59600  32.126  14.566  14.380
87875W        W59601  11.812   3.320   4.569
87876W        W59602   2.279  34.995   3.060
87877W        W59603  10.436  35.426   4.022
87878W        W59604  38.540   2.907  11.606
87879W        W59605  44.242  29.538  12.538
87880W        W59606   3.443   4.995  14.729
87881W        W59607  38.424  19.013   0.750
87882W        W59608  19.696   3.476  14.182
87883W        W59609   5.049  11.452   9.828
87884W        W59610   7.343  20.020   1.642
87885W        W59611  36.366  43.956   4.206
87886W        W59612  42.543  10.103  13.034
87887W        W59613  18.124   5.269   0.775
87888W        W59614  31.951  21.033  11.031
87889W        W59615  23.812  34.182   4.500
87890W        W59616   9.146  12.833  10.967
87891W        W59617  40.898   7.863   1.812
87892W        W59618  26.452  42.360  11.682
87893W        W59619  44.497  11.269  11.200
87894W        W59620   3.105  18.426   0.794
87895W        W59621  43.754   3.195   4.152
87896W        W59622  30.609  17.628   2.788
87897W        W59623  40.646   7.431   1.955
87898W        W59624  29.270   4.771  13.462
87899W        W59625  17.068  21.583  12.404
87900W        W59626  15.804  17.581  13.987
87901W        W59627  39.998  31.531  11.606
87902W        W59628  15.797  36.470   4.575
87903W        W59629  34.440   3.882  12.004
87904W        W59630  32.553  19.004   3.748
87905W        W59631  22.944   3.232  12.551
87906W        W59632  36.908  14.092   1.000
87907W        W59633  35.704   3.811  10.432
87908W        W59634  11.457   4.944   1.809
87909W        W59635  11.208  14.727   2.279
87910W        W59636  39.429  37.992  12.433
87911W        W59637   2.048  43.419   2.797
87912W        W59638  36.107  18.053   0.775
87913W        W59639  20.699  11.802   5.009
87914W        W59640  23.136  13.312   0.474
87915W        W59641  10.843  25.545  13.370
87916W        W59642  39.441  28.561   0.803
87917W        W59643  20.340  19.563  13.957
87918W        W59644  24.777  34.639   0.331
87919W        W59645   7.383   3.826   2.876
87920W        W59646  22.988  44.424  14.868
87921W        W59647  40.773  41.072   4.869
87922W        W59648   0.154  10.064  13.923
87923W        W59649   7.336  32.932  10.893
87924W        W59650   8.738  37.440   2.892
87925W        W59651  16.259  43.754   1.812
87926W        W59652  36.001  19.325  10.530
87927W        W59653   6.649  34.939   3.570
87928W        W59654  38.957  22.569   5.021
87929W        W59655   1.521  33.932   2.755
87930W        W59656  16.166   2.544   4.305
87931W        W59657   6.185  25.239   3.687
87932W        W59658  43.742  35.863   4.689
87933W        W59659  18.529  22.474  12.219
87934W        W59660   9.156  43.341  12.545
87935W        W59661  17.702  34.139  13.532
87936W        W59662  30.964  40.600  10.456
87937W        W59663  16.550   3.567   5.023
87938W        W59664  21.838  22.718  10.773
87939W        W59665  10.494  30.136   0.479
87940W        W59666  22.824  27.163   4.226
87941W        W59667  12.103  10.146  13.875
87942W        W59668  33.551  39.940   4.154
87943W        W59669  36.377   8.916  14.515
87944W        W59670  11.573   6.299  10.364
87945W        W59671   8.240  20.586  11.729
87946W        W59672  33.859  15.269   1.284
87947W        W59673  12.843  10.281   4.722
87948W        W59674   7.817   8.118  12.073
87949W        W59675  13.548  44.309  13.469
87950W        W59676  16.762  30.211   1.435
87951W        W59677  37.317  15.142  11.390
87952W        W59678   8.631  34.096  11.155
87953W        W59679  41.034  40.863   3.254
87954W        W59680   5.411  24.518   4.313
87955W        W59681   8.094   7.526   0.382
87956W        W59682  17.515  31.935   2.458
87957W        W59683  43.845  44.922  11.483
87958W        W59684  40.847   7.820  11.820
87959W        W59685  17.712  35.338   2.298
87960W        W59686  18.210   4.415  10.593
87961W        W59687   4.230  39.941  11.911
87962W        W59688   6.203  14.940  10.493
87963W        W59689  15.280  26.427  14.244
87964W        W59690   4.899  28.472   3.380
87965W        W59691  31.852  14.919   0.708
87966W        W59692   7.159  30.221   0.690
87967W        W59693   8.898  26.046   4.682
87968W        W59694   5.901  11.656   0.457
87969W        W59695  31.107  38.551  12.623
87970W        W59696  43.731   5.863  11.988
87971W        W59697  32.405  39.767   2.638
87972W        W59698  44.563  19.733   4.217
87973W        W59699  35.842  34.472  14.952
87974W        W59700  10.147  32.633   2.448
87975W        W59701  44.490  10.589   0.047
87976W        W59702  15.696  31.673   4.612
87977W        W59703   6.945  38.482   0.829
87978W        W59704  23.225  27.577   0.357
87979W        W59705  43.793  28.151   1.237
87980W        W59706  37.916  44.503  12.455
87981W        W59707  21.452   5.311   2.888
87982W        W59708  43.942  18.127   0.125
87983W        W59709  20.508  36.425  14.161
87984W        W59710  33.549  40.697   3.599
87985W        W59711  16.350  16.095  13.313
87986W        W59712  27.408   1.475  13.835
87987W        W59713   8.592  23.185   4.738
87988W        W59714  29.232  13.351  14.254
87989W        W59715  13.207  44.078   2.207
87990W        W59716  14.331  15.633  10.641
87991W        W59717  35.928  30.057   0.689
87992W        W59718  26.123  37.438  13.008
87993W        W59719   5.446  34.107  12.050
87994W        W59720  39.452  14.985  14.980
87995W        W59721  40.702  22.698  10.722
87996W        W59722  43.160  30.843   1.231
87997W        W59723  35.358  43.714  12.492
87998W        W59724  18.054  37.429   1.320
87999W        W59725  32.382  20.989   2.211
88000W        W59726  27.149  29.741  14.459
88001W        W59727  41.502  21.742   3.309
88002W        W59728  25.887   5.506   2.815
88003W        W59729   7.187  27.454  13.027
88004W        W59730  42.545  31.945   0.788
88005W        W59731  23.002  15.552   0.409
88006W        W59732  14.577  41.116   0.996
88007W        W59733   4.699  39.491   4.477
88008W        W59734  26.372   3.974   0.875
88009W        W59735  44.739   7.233   3.686
88010W        W59736   3.931   4.724   1.507
88011W        W59737  24.617  15.696   3.757
88012W        W59738   3.246   2.736   4.652
88013W        W59739  38.365  18.682  14.828
88014W        W59740  43.541  41.918  14.035
88015W        W59741  12.806  33.842  10.620
88016W        W59742  16.853  42.928   3.356
88017W        W59743   2.532  42.847   4.543
88018W        W59744  22.555  39.832  13.447
88019W        W59745  13.612  16.815  11.116
88020W        W59746  15.161  19.177   0.556
88021W        W59747  29.044  24.526   1.475
88022W        W59748  16.313  20.385   1.335
88023W        W59749  17.244   4.231   4.100
88024W        W59750  22.624  35.813   0.946
88025W        W59751  10.273  18.171   4.228
88026W        W59752  36.225   5.325   2.853
88027W        W59753  44.248  23.098  11.638
88028W        W59754   3.164  20.958   9.972
88029W        W59755  43.993  25.152   3.226
88030W        W59756  42.984   5.507  14.582
88031W        W59757  21.515  33.081   3.093
88032W        W59758  31.023  20.762  11.379
88033W        W59759  34.421  40.379  14.252
88034W        W59760  14.163  42.465  14.294
88035W        W59761  31.459  21.788  13.385
88036W        W59762  43.335  24.241   0.351
88037W        W59763   4.279  32.495  10.683
88038W        W59764  43.623  14.321   4.150
88039W        W59765  11.253  32.039  10.683
88040W        W59766  40.377   6.395  11.236
88041W        W59767  24.985  26.925   3.862
88042W        W59768  43.680  16.730  13.936
88043W        W59769  21.474  39.868  11.012
88044W        W59770  44.226  43.351   0.393
88045W        W59771  39.291  28.197  13.822
88046W        W59772  23.705   4.891   4.641
88047W        W59773   7.046   5.237   3.711
88048W        W59774   9.274   7.620  11.048
88049W        W59775  27.506  22.562  13.137
88050W        W59776  20.603   1.430   4.595
88051W        W59777  33.117  27.675  12.878
88052W        W59778  35.093   3.328   2.589
88053W        W59779  43.980  28.006   2.735
88054W        W59780  31.710  21.266  11.466
88055W        W59781  20.194  27.508   1.807
88056W        W59782  29.572  17.824  13.962
88057W        W59783  44.476  27.608  12.521
88058W        W59784  37.885   7.494  11.046
88059W        W59785  42.466   6.758   4.251
88060W        W59786  29.506  41.819  14.293
88061W        W59787  36.425  24.258  11.975
88062W        W59788  40.474   2.880  14.532
88063W        W59789   3.910  11.863   3.761
88064W        W59790   9.001  22.927  13.330
88065W        W59791  12.703  33.395   0.367
88066W        W59792  20.071  17.345  13.427
88067W        W59793  17.235  30.510  10.057
88068W        W59794  42.325  27.099   0.869
88069W        W59795  25.047  25.699  11.078
88070W        W59796  27.815  43.681  10.107
88071W        W59797  43.321  20.030   2.860
88072W        W59798  25.209  18.324   2.331
88073W        W59799   0.301  42.521  12.758
88074W        W59800   3.794  30.128   4.642
88075W        W59801  11.630  21.141  12.475
88076W        W59802  44.344  34.552   3.630
88077W        W59803  30.598   5.516  10.351
88078W        W59804  26.554  44.015  14.503
88079W        W59805  32.425  28.633   3.051
88080W        W59806  11.358  33.553   1.438
88081W        W59807  41.379  29.203   4.236
88082W        W59808  13.194  23.088   3.688
88083W        W59809  43.275   6.258  12.342
88084W        W59810   6.889   0.779  14.055
88085W        W59811   0.834  21.294   0.847
88086W        W59812  29.404  32.394  14.849
88087W        W59813   1.328  35.763   2.773
88088W        W59814  12.418  15.563   3.245
88089W        W59815  37.504  19.340   0.561
88090W        W59816  29.466   8.050  11.067
88091W        W59817  31.191  36.509  13.832
88092W        W59818   3.807  38.218   2.921
88093W        W59819   1.315  12.623  13.408
88094W        W59820  27.735  29.600   1.768
88095W        W59821  35.759   3.911  12.250
88096W        W59822  24.514  16.303   1.893
88097W        W59823  26.296  12.639  10.678
88098W        W59824  40.763  11.921   3.233
88099W        W59825  29.412  37.415  11.000
88100W        W59826   1.961  12.895   4.612
88101W        W59827  16.316  40.333  13.478
88102W        W59828  43.423  18.635   0.790
88103W        W59829  28.024  26.655  12.790
88104W        W59830  20.050  34.870  10.590
88105W        W59831  21.568   3.451  14.385
88106W        W59832  10.692   7.371  12.968
88107W        W59833  37.924   3.212  14.736
88108W        W59834   6.937  39.239   1.970
88109W        W59835  26.272   6.853   0.864
88110W        W59836  15.685   6.945   3.780
88111W        W59837  28.987  19.286  11.538
88112W        W59838  43.935   7.587  12.429
88113W        W59839  12.622  24.203   1.373
88114W        W59840  38.146  22.273   4.122
88115W        W59841  43.716   7.413   4.621
88116W        W59842  30.352  15.732   4.266
88117W        W59843   9.718  10.750   3.673
88118W        W59844  34.014  28.640  14.154
88119W        W59845   9.824  22.175   1.817
88120W        W59846  31.061  18.657  14.344
88121W        W59847  29.440  28.008  11.679
88122W        W59848  42.339  25.649   4.233
88123W        W59849  40.466  12.220   4.213
88124W        W59850  20.876  23.568  10.134
88125W        W59851  11.187  11.728   4.610
88126W        W59852  37.972   0.863   2.128
88127W        W59853  43.478   6.637   1.242
88128W        W59854  36.916  25.368  14.360
88129W        W59855  38.343  21.235   0.072
88130W        W59856  30.414  20.511  13.856
88131W        W59857  40.311  16.744  13.318
88132W        W59858  38.615  17.710   4.874
88133W        W59859  38.036  21.987   1.893
88134W        W59860  28.620  23.291  11.879
88135W        W59861  44.716   4.971   2.790
88136W        W59862   5.802  16.411   2.172
88137W        W59863  41.864  36.785  14.453
88138W        W59864  19.725  37.037  10.912
88139W        W59865  15.081   6.662   0.055
88140W        W59866  38.463  36.628   1.856
88141W        W59867  26.501  18.999   0.305
88142W        W59868  10.670  18.826   4.597
88143W        W59869  17.169  39.590  12.627
88144W        W59870   2.546  13.672   1.944
88145W        W59871   0.596   7.366   1.952
88146W        W59872   6.655  15.575   0.697
88147W        W59873   3.910  41.159  12.969
88148W        W59874   6.279   0.239   3.678
88149W        W59875  18.676  17.450  13.106
88150W        W59876   8.595  20.896  14.807
88151W        W59877  24.488  35.838  14.355
88152W        W59878  21.762  28.439   1.054
88153W        W59879   1.963  36.415   1.761
88154W        W59880  25.498  27.627   3.218
88155W        W59881  28.278  24.929   4.941
88156W        W59882  38.777  42.746   3.792
88157W        W59883  12.485  14.633   3.324
88158W        W59884  13.476   7.969  13.858
88159W        W59885   4.381  27.913   2.892
88160W        W59886  41.286  10.711  11.367
88161W        W59887  31.630  41.096   4.901
88162W        W59888  27.950   0.031  14.295
88163W        W59889  16.127   4.419   0.044
88164W        W59890   6.910   2.424  14.915
88165W        W59891  11.106  44.869   0.714
88166W        W59892  40.841  40.533   1.033
88167W        W59893   0.329  20.551  12.896
88168W        W59894   5.928  10.834   2.326
88169W        W59895   3.299  30.375  14.325
88170W        W59896  24.756   8.176   4.646
88171W        W59897  11.835  21.628   3.860
88172W        W59898   6.206  25.985  13.025
88173W        W59899   7.148   6.985   3.290
88174W        W59900  41.688  35.629  13.503
88175W        W59901  41.363  14.806   3.299
88176W        W59902   5.697  26.128   0.433
88177W        W59903   4.782  32.085   4.555
88178W        W59904  25.974  36.926   1.922
88179W        W59905  21.805  22.687   1.818
88180W        W59906  14.826   5.013   2.567
88181W        W59907  31.398  11.983   4.724
88182W        W59908  25.762  38.442   3.123
88183W        W59909  15.903   7.746   0.313
88184W        W59910  37.071  15.569  11.587
88185W        W59911  22.653  39.405  12.469
88186W        W59912  17.106  14.550   1.055
88187W        W59913  35.065   3.333  13.451
88188W        W59914  43.237  37.996  13.989
88189W        W59915  37.511   0.825  12.453
88190W        W59916   2.225  17.107  13.639
88191W        W59917  36.412  16.112   2.323
88192W        W59918   3.150  10.947   2.871
88193W        W59919  11.430  33.434   4.026
88194W        W59920  22.476  40.439  12.583
88195W        W59921  42.723  10.708  12.064
88196W        W59922  19.487  38.963   2.317
88197W        W59923  16.273  31.008   4.801
88198W        W59924  13.187  21.586   1.039
88199W        W59925  23.264  36.745   2.790
88200W        W59926  32.183  40.968  12.969
88201W        W59927   5.451  38.789   0.708
88202W        W59928   4.225  38.516   2.801
88203W        W59929  41.415  40.320  11.286
88204W        W59930  43.246  10.900   4.441
88205W        W59931  20.642  12.640  13.472
88206W        W59932  26.494  30.270  14.457
88207W        W59933   9.228  15.744  12.294
88208W        W59934  39.086  35.518  12.450
88209W        W59935  29.994  22.346  13.908
88210W        W59936   1.494  19.249   1.214
88211W        W59937  28.221  26.030  12.095
88212W        W59938   8.322  10.489  13.520
88213W        W59939  13.276  23.005  13.290
88214W        W59940  37.309  25.042  13.510
88215W        W59941   0.355  24.203   3.611
88216W        W59942  43.509  14.186   2.833
88217W        W59943  33.955   8.362   1.289
88218W        W59944  32.494  22.268   3.508
88219W        W59945  40.491  27.493  12.081
88220W        W59946  21.574  19.600   0.565
88221W        W59947  25.027  44.468   4.200
88222W        W59948   9.412  29.013   0.263
88223W        W59949  34.883  39.105   2.451
88224W        W59950  13.095   3.755   3.691
88225W        W59951  24.503  32.685   0.544
88226W        W59952  42.458  28.927   1.275
88227W        W59953  31.610  28.896  13.791
88228W        W59954  21.804  32.990   4.109
88229W        W59955  33.977   1.353  11.488
88230W        W59956  32.432  31.962  13.778
88231W        W59957  17.098  29.894   0.269
88232W        W59958  43.779  13.811   4.220
88233W        W59959   7.961   0.685   3.033
88234W        W59960  40.286  30.420  13.451
88235W        W59961  37.981  34.370   1.353
88236W        W59962  26.057  32.720  11.933
88237W        W59963  29.863  33.482  14.919
88238W        W59964  36.397  15.856   0.537
88239W        W59965  31.114  42.938   1.809
88240W        W59966  32.043  17.242   2.657
88241W        W59967   4.272   9.950   4.490
88242W        W59968  41.822  35.667  11.043
88243W        W59969  41.808  41.266  11.110
88244W        W59970  34.541   6.798   4.694
88245W        W59971  19.457  34.586   0.007
88246W        W59972  39.115   1.848  14.408
88247W        W59973  13.219   7.141   3.214
88248W        W59974  37.119  37.075   1.973
88249W        W59975   7.573  30.871   3.370
88250W        W59976  13.573  10.140   3.182
88251W        W59977  35.099  13.069   4.970
88252W        W59978  17.993  17.853  13.472
88253W        W59979   8.893  25.871   2.534
88254W        W59980  34.620  20.675  12.480
88255W        W59981  17.301  17.597  11.554
88256W        W59982  32.905  23.133   0.809
88257W        W59983  13.432  11.854  12.006
88258W        W59984   3.820  43.112   1.755
88259W        W59985  28.242  22.761   0.285
88260W        W59986  12.303  43.791   1.741
88261W        W59987   6.760  20.044  12.395
88262W        W59988   8.969  12.787  13.429
88263W        W59989   3.339  31.801   0.411
88264W        W59990  15.139   7.645  12.054
88265W        W59991  33.367   1.482   1.003
88266W        W59992  44.870  37.065  10.645
88267W        W59993   8.824  29.782   5.173
88268W        W59994   1.482   8.127   0.912
88269W        W59995  18.286  18.230   0.521
88270W        W59996  12.913  27.611  12.744
88271W        W59997  16.778   9.177  13.992
88272W        W59998  36.242   8.790  10.984
88273W        W59999  17.603  27.050  11.476
88274W        W60000  29.679  12.245   2.615
88275W        W60001  34.381  28.387  13.486
88276W        W60002   4.167  10.357  13.357
88277W        W60003   2.487   6.725  13.808
88278W        W60004  17.158  25.553  12.510
88279W        W60005  42.758  12.433   1.669
88280W        W60006  16.008  19.146   3.072
88281W        W60007   8.711  11.392  11.512
88282W        W60008  32.636  30.570  12.384
88283W        W60009  40.131   6.002   3.700
88284W        W60010   7.891  22.488  14.326
88285W        W60011  20.006   2.436   3.737
88286W        W60012  29.037   6.701   0.246
88287W        W60013   3.924  35.419  14.898
88288W        W60014  13.221  24.729  14.567
88289W        W60015  37.017  14.590   3.967
88290W        W60016   2.626  41.466   3.079
88291W        W60017  39.585  28.592  10.624
88292W        W60018   5.097  34.390  11.093
88293W        W60019  20.729  18.685  13.009
88294W        W60020  11.254  35.095  12.161
88295W        W60021  44.439   1.864   4.887
88296W        W60022  27.117  30.032   2.215
88297W        W60023   9.350  24.081  14.945
88298W        W60024  12.583  32.030   3.816
88299W        W60025  33.909   2.525  13.831
88300W        W60026  24.676  17.881  11.148
88301W        W60027  37.970  14.673  12.364
88302W        W60028  17.036   6.696  12.960
88303W        W60029   2.721  28.930   1.193
88304W        W60030  14.748  25.694   3.288
88305W        W60031  30.413  23.651   3.261
88306W        W60032  26.757  22.658  14.538
88307W        W60033  31.604   1.339   4.077
88308W        W60034   3.631  33.018  11.608
88309W        W60035  26.530   1.980   2.757
88310W        W60036  19.273  19.485   3.175
88311W        W60037  40.609  39.421   2.870
88312W        W60038  16.708  39.250   2.988
88313W        W60039  42.066  41.455  13.283
88314W        W60040  35.942  34.635  12.942
88315W        W60041  17.539   8.101   0.034
88316W        W60042  16.477  18.608   4.196
88317W        W60043   1.131  37.790   4.730
88318W        W60044  19.805  16.829  11.521
88319W        W60045  36.539   1.842  11.446
88320W        W60046  12.219  41.461   1.094
88321W        W60047  25.374  36.851  12.137
88322W        W60048   7.781   5.802   1.785
88323W        W60049   4.808  35.087   1.956
88324W        W60050  23.477  40.025  12.477
88325W        W60051  28.045  30.121   3.234
88326W        W60052  20.660   9.442   3.260
88327W        W60053  10.067  34.075   1.351
88328W        W60054   2.150  31.939   3.275
88329W        W60055  41.330   2.753   4.391
88330W        W60056  13.053   4.953   2.188
88331W        W60057   2.934  16.504   0.565
88332W        W60058  27.131  40.879   3.668
88333W        W60059  42.968  16.841  12.048
88334W        W60060  21.486  24.579  13.975
88335W        W60061  27.960  38.393  14.382
88336W        W60062  21.092   5.285   2.490
88337W        W60063  35.906  16.262  12.783
88338W        W60064  12.201   7.593  14.795
88339W        W60065   3.661   8.588   1.756
88340W        W60066  28.971   7.267   4.579
88341W        W60067  43.204   4.208   2.746
88342W        W60068  16.366  31.235   1.960
88343W        W60069  38.868  25.392   1.233
88344W        W60070  44.445   8.424  12.535
88345W        W60071  13.145  30.540  13.598
88346W        W60072  19.227  37.322  12.325
88347W        W60073  12.931  15.178  11.190
88348W        W60074  27.465  23.055  12.927
88349W        W60075   7.190  11.803   2.771
88350W        W60076  31.949  23.033  12.515
88351W        W60077  36.070  28.514   3.342
88352W        W60078  42.784  32.028  13.386
88353W        W60079  44.333  18.225   4.648
88354W        W60080  22.215  43.783   3.114
88355W        W60081  36.324   5.242   4.284
88356W        W60082  23.561  41.843  12.579
88357W        W60083  10.118  11.611   2.747
88358W        W60084  32.617  27.545  14.918
88359W        W60085  13.502  19.165  11.590
88360W        W60086  21.841  19.936   0.920
88361W        W60087  38.006  25.939  14.430
88362W        W60088  30.428  44.038  14.866
88363W        W60089  21.657  17.694   2.192
88364W        W60090  27.567  40.402  10.524
88365W        W60091  34.564  16.614  13.031
88366W        W60092  28.069  29.439   1.400
88367W        W60093  19.576  25.919   0.903
88368W        W60094  31.276   7.150  10.116
88369W        W60095   7.269  30.648   1.738
88370W        W60096  15.646  16.724   5.175
88371W        W60097  27.038   8.921  12.886
88372W        W60098  34.128  44.527  13.706
88373W        W60099   2.816  29.258  12.986
88374W        W60100  44.881  14.818   0.821
88375W        W60101  23.563  18.517  14.035
88376W        W60102   1.825  15.484   4.538
88377W        W60103  33.424  23.626   3.671
88378W        W60104  29.727  41.111   0.832
88379W        W60105   1.391  28.601  13.462
88380W        W60106   4.572   3.493  12.118
88381W        W60107  22.462  42.037   0.378
88382W        W60108  10.923   4.209  13.875
88383W        W60109  39.107   6.889   9.888
88384W        W60110  13.761   0.976  12.904
88385W        W60111  18.011  34.936  12.994
88386W        W60112  34.186   3.705   4.905
88387W        W60113  25.497  12.845  12.493
88388W        W60114  25.206  27.980   1.165
88389W        W60115  16.605  44.338   3.208
88390W        W60116  37.904  33.486   2.758
88391W        W60117   4.833  19.384   3.187
88392W        W60118   9.920  10.358  11.155
88393W        W60119   7.487  42.751  11.950
88394W        W60120   5.339  31.174   3.802
88395W        W60121  40.792   9.046  13.180
88396W        W60122  42.815  25.150   4.848
88397W        W60123   8.184  28.603   0.413
88398W        W60124   6.451  14.661  13.566
88399W        W60125  40.413  21.743  10.699
88400W        W60126  27.523  29.722  10.673
88401W        W60127   5.438  15.310  12.479
88402W        W60128  24.941  24.221   0.896
88403W        W60129   8.781   3.396   3.308
88404W        W60130  12.140  25.494  13.847
88405W        W60131   3.519   2.718   2.892
88406W        W60132  33.947  42.401   4.737
88407W        W60133  30.889  16.165  13.961
88408W        W60134  19.453  35.291  12.446
88409W        W60135  34.828  26.558   2.148
88410W        W60136  27.548  34.571   2.755
88411W        W60137  26.486  27.819   0.835
88412W        W60138  21.609  24.756   4.577
88413W        W60139  24.216   5.955   1.204
88414W        W60140   1.609  17.287  10.431
88415W        W60141  38.572   3.343   1.707
88416W        W60142  41.467  34.572  12.188
88417W        W60143  17.107  35.049   3.579
88418W        W60144  32.436  31.665   3.447
88419W        W60145  21.279  32.077  11.911
88420W        W60146  30.037  10.845  14.997
88421W        W60147  37.574  20.883   3.659
88422W        W60148   6.167   8.203   2.005
88423W        W60149  25.354   9.043   3.751
88424W        W60150  24.114  10.693   2.779
88425W        W60151  21.588  21.620   1.217
88426W        W60152   2.390  37.636   1.864
88427W        W60153  22.208  40.072  13.857
88428W        W60154  40.909  16.797  13.316
88429W        W60155  41.763   8.706  12.589
88430W        W60156  11.146  38.070  12.911
88431W        W60157  31.441  26.242  11.117
88432W        W60158  14.142  12.537  11.912
88433W        W60159  22.036  37.592  14.971
88434W        W60160  42.808  41.383  10.435
88435W        W60161  28.868  16.053  13.363
88436W        W60162  29.924  37.172   0.840
88437W        W60163  40.498  13.634   0.970
88438W        W60164  37.489  11.889   0.889
88439W        W60165   3.229  40.443   1.289
88440W        W60166  43.996   3.064  12.426
88441W        W60167  33.376   4.932   0.842
88442W        W60168  36.509  32.163  14.676
88443W        W60169  10.162  16.217  14.287
88444W        W60170  15.176   4.176  13.981
88445W        W60171  13.202  20.803   0.365
88446W        W60172   6.715   0.949  14.930
88447W        W60173  24.135   4.059  14.785
88448W        W60174   8.439  10.725  14.019
88449W        W60175  24.394   9.237   3.799
88450W        W60176   2.412   5.472  12.485
88451W        W60177  10.416  12.216   0.385
88452W        W60178  40.433  12.595  10.662
88453W        W60179  40.367   0.040  10.498
88454W        W60180  37.752   4.191  12.501
88455W        W60181  22.514  21.375  12.461
88456W        W60182  42.588  27.082  13.503
88457W        W60183  21.498  35.866   4.576
88458W        W60184  17.611  27.066  12.468
88459W        W60185  13.608   7.963   2.283
88460W        W60186  27.513  33.055   3.646
88461W        W60187  29.577  32.864   0.934
88462W        W60188  17.219  21.147  12.140
88463W        W60189  11.925  21.096  14.847
88464W        W60190  41.300   9.261  14.990
88465W        W60191  17.739  40.837  13.892
88466W        W60192  20.995  24.584  13.755
88467W        W60193  32.948  26.196   1.737
88468W        W60194  38.421  39.416   3.744
88469W        W60195  30.037  35.162   0.732
88470W        W60196  17.256  21.995   1.345
88471W        W60197  22.802  39.932  14.502
88472W        W60198  23.962  26.698  12.528
88473W        W60199  20.754  36.355  10.387
88474W        W60200  44.266  14.308  10.288
88475W        W60201  14.093  24.455   2.684
88476W        W60202   8.867  27.724  12.499
88477W        W60203  13.733  20.328  12.310
88478W        W60204  41.877  12.317  13.501
88479W        W60205  15.662  15.564  10.335
88480W        W60206   2.488  38.641  11.498
88481W        W60207  16.617  21.768   2.678
88482W        W60208  32.185   0.768  14.535
88483W        W60209  38.611  20.836   1.397
88484W        W60210  14.924  25.004  12.048
88485W        W60211  35.861   6.235   0.742
88486W        W60212  44.416  35.334   2.239
88487W        W60213   4.239   7.450  13.541
88488W        W60214  11.177  28.150  11.072
88489W        W60215  36.518  12.683   1.981
88490W        W60216   5.404  42.930   0.288
88491W        W60217   5.333  38.267   2.377
88492W        W60218  42.816  28.139   3.103
88493W        W60219  40.417   6.086   0.939
88494W        W60220  21.578  25.423  14.035
88495W        W60221  40.766  28.368   3.874
88496W        W60222  28.608  17.182   4.242
88497W        W60223  35.160   1.996  12.804
88498W        W60224  44.370  27.150   3.928
88499W        W60225  17.338  26.683  13.958
88500W        W60226  29.625  21.216  13.864
88501W        W60227  23.971  10.870   2.318
88502W        W60228   2.842   1.459   3.831
88503W        W60229  32.386  30.557   5.299
88504W        W60230  34.347  40.867  14.591
88505W        W60231  23.425   1.992   1.942
88506W        W60232  19.978  42.107   2.653
88507W        W60233  35.427  38.898  13.090
88508W        W60234  42.894  20.553  11.814
88509W        W60235  32.082  13.855   3.669
88510W        W60236  10.274  43.510   3.160
88511W        W60237  38.496   5.314  11.665
88512W        W60238  19.249  20.500   0.335
88513W        W60239  19.246   2.566   1.047
88514W        W60240  22.764  30.986  10.733
88515W        W60241  19.270  35.477   1.880
88516W        W60242   4.993  40.788  13.961
88517W        W60243  39.992   8.915  13.822
88518W        W60244   5.341  44.149   2.653
88519W        W60245  10.412  16.050   1.568
88520W        W60246  42.646  40.286  13.545
88521W        W60247  26.619  42.024   1.950
88522W        W60248  31.911  10.840  14.961
88523W        W60249  13.729   3.308   3.118
88524W        W60250  37.755   1.023  13.783
88525W        W60251  44.737  24.159   4.841
88526W        W60252  13.380   4.171  10.476
88527W        W60253  23.474  20.662   4.892
88528W        W60254  26.664  13.267  11.389
88529W        W60255  32.128  37.963   2.360
88530W        W60256  23.977  37.027   2.337
88531W        W60257  30.253  27.474  12.536
88532W        W60258   8.086  21.429   1.615
88533W        W60259  33.932  10.979   2.213
88534W        W60260  22.822  18.187  14.322
88535W        W60261  19.989  31.934   5.011
88536W        W60262  21.750  19.240   4.941
88537W        W60263  32.448  24.761   3.712
88538W        W60264  26.544   1.908  12.354
88539W        W60265   9.187  37.437  14.013
88540W        W60266  35.853  36.131  11.151
88541W        W60267  41.977  19.960   3.081
88542W        W60268  13.343  15.214  12.026
88543W        W60269  19.353  16.635   0.398
88544W        W60270  14.412   4.893   3.716
88545W        W60271  23.729  36.015   2.610
88546W        W60272  24.193  29.231   0.237
88547W        W60273   1.059  33.469   4.497
88548W        W60274   7.665  19.714   2.732
88549W        W60275  41.766   3.841  10.675
88550W        W60276  42.537  30.159  14.841
88551W        W60277  36.575  25.884  14.334
88552W        W60278  44.346  21.938   2.746
88553W        W60279   0.562  33.768  10.269
88554W        W60280  23.956  10.266  11.610
88555W        W60281  44.368  11.929   0.394
88556W        W60282  25.026  44.047  12.378
88557W        W60283  17.891  29.502   4.840
88558W        W60284  35.376  19.236   1.222
88559W        W60285  20.186  31.625   3.620
88560W        W60286  40.450  27.469   1.449
88561W        W60287  37.440   5.120   4.993
88562W        W60288  30.506  21.035  13.907
88563W        W60289   0.206  22.702  12.068
88564W        W60290   1.936  19.774  13.222
88565W        W60291   4.654  23.602   2.160
88566W        W60292  37.600  11.100  11.846
88567W        W60293  24.557  37.579  10.829
88568W        W60294  21.198   4.853   2.759
88569W        W60295  38.218  36.668  11.589
88570W        W60296  30.891  18.197  11.141
88571W        W60297  25.634   3.794   4.510
88572W        W60298  37.658  34.788   4.692
88573W        W60299  10.192  15.018   4.673
88574W        W60300  20.919  28.169   0.866
88575W        W60301  19.393   2.982  14.398
88576W        W60302   3.342  35.221   1.480
88577W        W60303  33.122  14.025   0.015
88578W        W60304  23.699   2.434  13.375
88579W        W60305  11.333  20.563   1.406
88580W        W60306  16.383   9.373   1.864
88581W        W60307  39.335  32.013   3.127
88582W        W60308  10.154   8.255   4.151
88583W        W60309  12.213  30.082   4.152
88584W        W60310  33.846  39.627   0.335
88585W        W60311  22.489   2.929  13.423
88586W        W60312  34.766  43.451   4.544
88587W        W60313   3.889   5.920   3.199
88588W        W60314  31.658  22.869  14.389
88589W        W60315  42.593  28.440  12.891
88590W        W60316  32.611  41.774  10.677
88591W        W60317  42.030  12.417   3.589
88592W        W60318  44.902  36.625   2.361
88593W        W60319  19.950   6.383  12.039
88594W        W60320  39.561  31.539   3.164
88595W        W60321  19.135   4.225  14.959
88596W        W60322  33.447  39.278   0.128
88597W        W60323  20.245  18.779   4.685
88598W        W60324  19.244  42.565  14.500
88599W        W60325  12.041   6.870  13.820
88600W        W60326  42.417  21.447  11.163
88601W        W60327  39.108  12.159  13.944
88602W        W60328   6.745  29.533  12.073
88603W        W60329   7.250   5.263   2.211
88604W        W60330  13.010  32.210  13.255
88605W        W60331  15.763  18.798   5.048
88606W        W60332  42.246   0.974  13.866
88607W        W60333  20.249   8.141   1.399
88608W        W60334  24.793   1.600   9.969
88609W        W60335   7.388   1.758  11.084
88610W        W60336  23.264  23.052   2.768
88611W        W60337  26.427  20.281   1.818
88612W        W60338  14.027  25.894  12.591
88613W        W60339  39.451   6.270  14.737
88614W        W60340  14.811  15.606   1.411
88615W        W60341   2.034  15.909   4.102
88616W        W60342  42.602  12.627  13.038
88617W        W60343   3.929  40.106  13.140
88618W        W60344   9.354  21.078   0.322
88619W        W60345  36.503  32.108  12.823
88620W        W60346  18.233  15.560  11.187
88621W        W60347  33.667  36.056  14.878
88622W        W60348   1.004  10.418  13.006
88623W        W60349  29.552  42.858   0.207
88624W        W60350   3.849  12.192  10.631
88625W        W60351  19.467  29.878   0.391
88626W        W60352  43.889  44.731   4.527
88627W        W60353  36.944  35.944  12.519
88628W        W60354   4.758  40.475   1.701
88629W        W60355  28.212  36.665   4.069
88630W        W60356  36.130   8.722   3.370
88631W        W60357   3.435  32.324   2.713
88632W        W60358  12.856  31.370   4.197
88633W        W60359  32.570  42.108   3.318
88634W        W60360  43.091  17.724  11.150
88635W        W60361  12.462  23.742   3.881
88636W        W60362  32.874  24.610  11.442
88637W        W60363  37.407  40.810   0.967
88638W        W60364  32.500  37.758   1.472
88639W        W60365  19.537  25.197   2.863
88640W        W60366   4.278  30.338   4.645
88641W        W60367  40.363   5.105  14.970
88642W        W60368  38.044   4.251   4.807
88643W        W60369  29.164  26.221  12.798
88644W        W60370  33.031   2.864  14.816
88645W        W60371  42.345  33.329   3.710
88646W        W60372   0.753  11.644   1.215
88647W        W60373  43.807  40.050  10.713
88648W        W60374  14.690  32.827  12.153
88649W        W60375  32.887  10.688  12.849
88650W        W60376  33.311  37.699  14.092
88651W        W60377  18.816  14.236   1.824
88652W        W60378   8.302   4.653   3.778
88653W        W60379  13.628  42.978   1.368
88654W        W60380  19.209  40.850  10.733
88655W        W60381  12.871  20.642  13.546
88656W        W60382  37.548  44.250   3.281
88657W        W60383  44.546  33.374   4.065
88658W        W60384   9.011   0.596  12.072
88659W        W60385   4.014  39.127   2.274
88660W        W60386  29.511  36.002  13.423
88661W        W60387  29.991   9.205  12.099
88662W        W60388   9.724   0.826   1.404
88663W        W60389  26.671   5.837   1.447
88664W        W60390  24.097  11.799  12.951
88665W        W60391  31.902  26.487  13.536
88666W        W60392  15.612  19.092   2.116
88667W        W60393   8.748  30.597  11.063
88668W        W60394  25.083  39.866  11.950
88669W        W60395  39.388  28.161  10.825
88670W        W60396  14.103  40.384   4.511
88671W        W60397  27.670  23.003  11.907
88672W        W60398  29.543  16.686  10.359
88673W        W60399  27.377  19.511   1.847
88674W        W60400  44.477  32.328  13.478
88675W        W60401  14.598  10.227   1.809
88676W        W60402   2.964  37.519   3.095
88677W        W60403  24.514  10.940  14.655
88678W        W60404  41.027  23.797  11.478
88679W        W60405  14.920   1.862  11.638
88680W        W60406  21.696  28.585   1.932
88681W        W60407  32.305  13.683  14.968
88682W        W60408   1.450  34.945   2.890
88683W        W60409  39.403  17.549  14.431
88684W        W60410  23.698  17.044  13.362
88685W        W60411   6.016  41.805  12.562
88686W        W60412   6.265  36.930  12.912
88687W        W60413  15.693  38.393   3.365
88688W        W60414  41.592  43.159  13.349
88689W        W60415  35.951  41.978   2.071
88690W        W60416   3.805  15.355   2.769
88691W        W60417  23.530  28.305   3.071
88692W        W60418  18.535  18.090  11.572
88693W        W60419  41.035  42.429  10.514
88694W        W60420  38.855   7.411   2.540
88695W        W60421  29.421  38.575  11.090
88696W        W60422  38.871  44.741   2.242
88697W        W60423  31.394  21.518  12.807
88698W        W60424   4.900  43.019   0.968
88699W        W60425   5.222  28.557  11.627
88700W        W60426   9.349  22.547   5.524
88701W        W60427  37.883  19.516  10.680
88702W        W60428  20.798  12.109   2.861
88703W        W60429   0.333  28.994   3.118
88704W        W60430  40.453  12.524   1.875
88705W        W60431  13.385  42.813   1.823
88706W        W60432   2.810  25.421  11.470
88707W        W60433  40.081  26.026  13.632
88708W        W60434  18.528   3.433   2.803
88709W        W60435  28.173  19.061   0.204
88710W        W60436   5.670  34.975   1.714
88711W        W60437  30.446  13.463   1.287
88712W        W60438  20.068  20.173   1.731
88713W        W60439  22.750  24.509   2.141
88714W        W60440  20.546  32.375  14.465
88715W        W60441   6.753  21.759  10.363
88716W        W60442  29.073  23.179  14.823
88717W        W60443   1.193  34.702   4.811
88718W        W60444  20.779  34.104  13.405
88719W        W60445  16.205  18.152   4.069
88720W        W60446  10.065   1.203   0.571
88721W        W60447   1.764  28.379   2.785
88722W        W60448  10.211  33.145  14.286
88723W        W60449  28.968  35.316   4.139
88724W        W60450  29.579  25.474  14.782
88725W        W60451  33.164  28.806   2.537
88726W        W60452  38.801  22.632   3.195
88727W        W60453  39.573   9.180  12.510
88728W        W60454  15.658  37.297  10.717
88729W        W60455  43.071  21.608  11.566
88730W        W60456  16.833  38.811   1.775
88731W        W60457  12.129  12.277  12.271
88732W        W60458  29.457  21.221  12.083
88733W        W60459  12.724  44.009  14.943
88734W        W60460  13.581   7.004  10.894
88735W        W60461   2.137  20.780   5.054
88736W        W60462  37.014  13.290  11.180
88737W        W60463   9.511  32.946   3.682
88738W        W60464  40.309  40.058  14.989
88739W        W60465  17.000  39.873   2.296
88740W        W60466  44.891  28.552  12.379
88741W        W60467  44.836  40.040  11.593
88742W        W60468  37.272  33.966   3.163
88743W        W60469   4.630  18.703  10.529
88744W        W60470   9.887  15.639   0.487
88745W        W60471  25.077  20.638   4.893
88746W        W60472  39.586   5.818  14.459
88747W        W60473   9.740  25.070  10.241
88748W        W60474   8.917  26.727  12.197
88749W        W60475  44.302   7.731  12.044
88750W        W60476   8.726  35.060   4.162
88751W        W60477  19.584  40.809   4.898
88752W        W60478  26.209  16.637  13.493
88753W        W60479  44.381  15.874   4.613
88754W        W60480  21.808   3.253  12.863
88755W        W60481  43.314  15.767   3.909
88756W        W60482   8.207  16.190   2.802
88757W        W60483  27.401  43.704  13.392
88758W        W60484  14.639  40.200  10.199
88759W        W60485  41.596  12.181   3.363
88760W        W60486  37.577  14.759   2.292
88761W        W60487   6.223   9.435  11.398
88762W        W60488   3.435  38.910  12.823
88763W        W60489   5.710   6.861  10.845
88764W        W60490  41.769  17.160   3.284
88765W        W60491   7.120   0.921  12.013
88766W        W60492   4.811  44.996   4.531
88767W        W60493  28.967  29.484   3.967
88768W        W60494  37.423  20.340  11.497
88769W        W60495   9.362  20.821  10.812
88770W        W60496  21.060   4.728   1.764
88771W        W60497  27.095  14.103  14.808
88772W        W60498   7.854  38.428   0.007
88773W        W60499  16.626   4.463  13.446
88774W        W60500  15.656  23.681  13.330
88775W        W60501   1.351  24.902   1.187
88776W        W60502   5.863  33.081   2.287
88777W        W60503   7.908   1.917  14.427
88778W        W60504  41.802   7.855  12.015
88779W        W60505  27.003  29.537  14.902
88780W        W60506  17.269  21.700  14.026
88781W        W60507  18.084  21.422   1.635
88782W        W60508   8.499  19.076   0.396
88783W        W60509  17.093  14.584   3.826
88784W        W60510  15.034   5.107  14.039
88785W        W60511  33.188  20.950  11.572
88786W        W60512   6.698  10.761   5.022
88787W        W60513   8.737  18.187  13.947
88788W        W60514  12.978  11.561  11.997
88789W        W60515  17.171  22.110   0.253
88790W        W60516   0.349   3.920   0.209
88791W        W60517  37.779  16.181  10.738
88792W        W60518  18.701   1.302   2.340
88793W        W60519  15.365  33.632   2.329
88794W        W60520  20.651  32.859   3.119
88795W        W60521  40.170   6.716  13.549
88796W        W60522  44.412  16.767  14.374
88797W        W60523  40.727  38.346   1.462
88798W        W60524   6.251  29.029   0.971
88799W        W60525  36.391  31.615  10.606
88800W        W60526  33.406  24.206   2.878
88801W        W60527  14.846   4.605   3.529
88802W        W60528  20.328  28.606  10.683
88803W        W60529   6.081  28.452   0.191
88804W        W60530  41.564  12.634  14.273
88805W        W60531  20.516  17.013   1.971
88806W        W60532  13.619  20.159  14.287
88807W        W60533  20.938  27.131  11.077
88808W        W60534  37.970  44.698   2.690
88809W        W60535  13.459  12.285   4.152
88810W        W60536  44.220  11.470  10.725
88811W        W60537  42.400  30.481  11.492
88812W        W60538  40.006  33.596   3.592
88813W        W60539   9.676  34.714  11.544
88814W        W60540  41.408  37.152   1.782
88815W        W60541  42.027  37.450   1.429
88816W        W60542   8.304  44.361  12.863
88817W        W60543  22.118  26.266  13.851
88818W        W60544  17.784   2.122   0.869
88819W        W60545  29.276  29.602   4.413
88820W        W60546  32.949  39.602   2.045
88821W        W60547  31.075  28.817   4.967
88822W        W60548  18.249  35.098  11.538
88823W        W60549  43.333   7.871   1.668
88824W        W60550   4.974  32.538   0.865
88825W        W60551  42.031  24.068   1.862
88826W        W60552  21.166  30.460   0.840
88827W        W60553  43.562  27.858   2.459
88828W        W60554  30.091  35.087   4.435
88829W        W60555  21.081  30.666  13.496
88830W        W60556   4.852  37.178  12.096
88831W        W60557   5.649  40.472  12.839
88832W        W60558  40.354  40.424   4.339
88833W        W60559  26.571  31.825   3.720
88834W        W60560  22.187  35.970   1.857
88835W        W60561  44.937  18.155  12.963
88836W        W60562   3.764  14.229   1.920
88837W        W60563  36.887  43.272  11.875
88838W        W60564  26.688  18.043   0.330
88839W        W60565  20.280  37.036   4.163
88840W        W60566  44.973   4.408   0.836
88841W        W60567  44.779  18.529  12.562
88842W        W60568  19.141  13.553   3.446
88843W        W60569  23.035  19.827  12.553
88844W        W60570  13.520  44.308  11.173
88845W        W60571  27.214  26.453   1.766
88846W        W60572  43.869  42.500   0.400
88847W        W60573   5.818  20.200   0.751
88848W        W60574  14.408   2.165   0.834
88849W        W60575  16.840  22.744   1.394
88850W        W60576   9.758  41.125   1.222
88851W        W60577  18.541   4.145  12.369
88852W        W60578   9.754   9.385   2.796
88853W        W60579   8.878  22.606  14.188
88854W        W60580  11.650   4.740   4.086
88855W        W60581  42.159   7.928   2.738
88856W        W60582  20.975  29.611   3.266
88857W        W60583  33.413   2.860   4.132
88858W        W60584  43.747  20.753   4.454
88859W        W60585   9.607   5.382   2.003
88860W        W60586  11.681  39.275   2.842
88861W        W60587  40.837  28.132   0.803
88862W        W60588  16.676  25.863   1.877
88863W        W60589  12.733   4.616  10.528
88864W        W60590  19.756  27.344   3.669
88865W        W60591  36.604  14.709  13.375
88866W        W60592  43.395  29.500   1.209
88867W        W60593  14.611  32.199   0.308
88868W        W60594  19.600  26.949   2.320
88869W        W60595  14.560  21.146   0.306
88870W        W60596  14.473  22.756  12.515
88871W        W60597   5.501  41.717  12.611
88872W        W60598   3.214  31.018  10.393
88873W        W60599  10.379  19.228  14.510
88874W        W60600  17.596  23.186   2.577
88875W        W60601  31.015  40.366   1.806
88876W        W60602   3.942   5.635   3.628
88877W        W60603  41.936  39.412  13.374
88878W        W60604  10.788  30.512   3.678
88879W        W60605  24.696   4.343  14.693
88880W        W60606  23.753  21.563  12.035
88881W        W60607  40.594  29.958   1.153
88882W        W60608  31.795  41.304  14.519
88883W        W60609   7.737  37.083   4.539
88884W        W60610  28.962  28.722  12.507
88885W        W60611  22.668  39.585   0.994
88886W        W60612  26.169  38.462  13.153
88887W        W60613  36.192  23.043  13.362
88888W        W60614  32.316   3.185  11.612
88889W        W60615   8.439   9.927  14.441
88890W        W60616  15.843  10.937  14.512
88891W        W60617  20.206  29.896   0.742
88892W        W60618  41.690  10.965   0.032
88893W        W60619  14.731  31.486  11.416
88894W        W60620   0.265  14.104  13.507
88895W        W60621  22.772  12.275   2.331
88896W        W60622  34.690  16.379  11.422
88897W        W60623  34.830  16.774  11.116
88898W        W60624  31.663  43.339  12.441
88899W        W60625  18.829   5.264   4.175
88900W        W60626  24.041  13.708   2.924
88901W        W60627  11.144  31.485  13.100
88902W        W60628  16.992  21.655  11.882
88903W        W60629   0.528  19.970   1.874
88904W        W60630  20.226  21.269  13.387
88905W        W60631   7.668  16.995  10.691
88906W        W60632   0.858  28.674  13.301
88907W        W60633  18.479  33.029  12.622
88908W        W60634  23.663   6.615   1.117
88909W        W60635  17.795  34.371  14.005
88910W        W60636  14.217  17.208  14.512
88911W        W60637  29.480   8.685  12.952
88912W        W60638  15.217  37.579  10.588
88913W        W60639   0.732  24.137  11.409
88914W        W60640  44.730  28.089  12.529
88915W        W60641  30.191  43.385  11.532
88916W        W60642   1.215  10.362   2.262
88917W        W60643  13.306   8.888  10.702
88918W        W60644  32.875  44.250   0.716
88919W        W60645  21.986   4.454   1.810
88920W        W60646  34.014  42.423  13.112
88921W        W60647  43.461  43.553   4.152
88922W        W60648   4.333  28.422   2.089
88923W        W60649  38.132  25.500   2.459
88924W        W60650   1.578  32.417   2.213
88925W        W60651  44.851  13.172   1.421
88926W        W60652  41.198  17.900  13.489
88927W        W60653  38.614  14.357  14.073
88928W        W60654  13.837  36.088   0.742
88929W        W60655  28.578  43.943   3.083
88930W        W60656   3.167  10.573  12.532
88931W        W60657   3.245   1.990   4.144
88932W        W60658  20.491  10.889   1.266
88933W        W60659  40.962  39.499  13.573
88934W        W60660  17.287  16.122   1.736
88935W        W60661  43.746  34.556   2.424
88936W        W60662  43.901  16.670   2.100
88937W        W60663  11.324  36.005  10.913
88938W        W60664  18.233   5.998  10.645
88939W        W60665  35.402  10.412   4.416
88940W        W60666  38.327  16.314  13.332
88941W        W60667  14.583  25.091   1.744
88942W        W60668  24.087  24.490  14.960
88943W        W60669  32.006  32.478  13.509
88944W        W60670  21.265   3.981   2.971
88945W        W60671  27.705   1.931   0.833
88946W        W60672  14.184   3.239   1.242
88947W        W60673  29.859  25.036  10.615
88948W        W60674  18.557   5.500   4.546
88949W        W60675  31.230  11.433  11.688
88950W        W60676  21.998  27.720   4.314
88951W        W60677   4.164  34.207  11.669
88952W        W60678  15.272   3.886  13.541
88953W        W60679  28.689  41.392   3.821
88954W        W60680  41.931  40.968   3.713
88955W        W60681  25.990  16.793  14.450
88956W        W60682  40.542  30.454  13.001
88957W        W60683   5.894  42.912   4.692
88958W        W60684  13.693  40.850  11.592
88959W        W60685  24.654  25.520  11.394
88960W        W60686  30.237  11.698   1.859
88961W        W60687  17.066  39.984   1.438
88962W        W60688   9.743   7.992   3.823
88963W        W60689  24.272  32.070  11.925
88964W        W60690   1.398  16.623   0.712
88965W        W60691  41.029  31.611  11.456
88966W        W60692   9.842  37.678   4.189
88967W        W60693  34.402  13.750   3.732
88968W        W60694  29.603   1.308   0.846
88969W        W60695  17.806  24.713   0.442
88970W        W60696  26.569  34.152   4.295
88971W        W60697   1.822   3.028  13.032
88972W        W60698  43.962  44.504   1.959
88973W        W60699  40.415  21.935   2.300
88974W        W60700  26.298  41.875  13.949
88975W        W60701  31.599   9.151  14.028
88976W        W60702  21.127  17.214  10.612
88977W        W60703  17.272  30.615   2.145
88978W        W60704  42.871  31.967  11.074
88979W        W60705  39.718  35.004   1.353
88980W        W60706  13.951  36.644  14.937
88981W        W60707  30.148  36.543  13.924
88982W        W60708  23.306  41.962   0.822
88983W        W60709  31.459  16.887  12.410
88984W        W60710  29.345  23.005   2.334
88985W        W60711  28.187   2.288   1.269
88986W        W60712  32.645  30.003  13.865
88987W        W60713  12.332  21.029   2.239
88988W        W60714  15.307  17.613  14.719
88989W        W60715   6.790  11.091   0.466
88990W        W60716   2.409  10.738   1.218
88991W        W60717   6.311   6.140  11.674
88992W        W60718  20.833  20.848   1.759
88993W        W60719  40.917   8.182  13.109
88994W        W60720  39.615   3.764   4.184
88995W        W60721  23.625  11.644  10.338
88996W        W60722  41.846  22.298   0.202
88997W        W60723   2.119  29.985   2.670
88998W        W60724  44.293  14.315   3.728
88999W        W60725  27.254  17.562  14.001
89000W        W60726  16.801  30.950   1.900
89001W        W60727  11.553  38.070  14.879
89002W        W60728  41.438  18.185   3.913
89003W        W60729  15.309  16.691  10.928
89004W        W60730  13.089  34.746   1.271
89005W        W60731  38.470  28.595   2.415
89006W        W60732  44.536  25.736   1.315
89007W        W60733  31.841  16.599  13.488
89008W        W60734   2.401  34.396  13.502
89009W        W60735   3.164  11.827   4.153
89010W        W60736   8.201  12.818  13.952
89011W        W60737   2.915  38.266   4.480
89012W        W60738   1.879   3.900   1.162
89013W        W60739   5.924  10.820   4.442
89014W        W60740  38.010  26.452  12.055
89015W        W60741   4.999  17.327   0.150
89016W        W60742  12.626  16.005   1.172
89017W        W60743  43.288   0.400  12.499
89018W        W60744  14.635  17.263   4.405
89019W        W60745   0.812   5.160   4.823
89020W        W60746   0.321  12.589  10.526
89021W        W60747  41.106  30.842   3.870
89022W        W60748  38.888   4.355   1.733
89023W        W60749  32.185   1.716   1.700
89024W        W60750   5.664  27.127   4.224
89025W        W60751  10.883   5.241  11.029
89026W        W60752  40.220  20.506   4.526
89027W        W60753  32.196   7.861  11.184
89028W        W60754  31.404  23.175   0.412
89029W        W60755  11.876  24.217   2.315
89030W        W60756  20.136   2.852   0.026
89031W        W60757  37.357  27.326  13.489
89032W        W60758  11.124  19.400   2.244
89033W        W60759  15.436  22.197  13.501
89034W        W60760  42.300  36.086   1.411
89035W        W60761   0.894   9.622   1.749
89036W        W60762  12.679  10.587  11.104
89037W        W60763  30.661  44.183   4.290
89038W        W60764   3.765   1.689   2.366
89039W        W60765  33.111  32.625  10.893
89040W        W60766   4.723   3.366   4.207
89041W        W60767  12.866  23.675   4.718
89042W        W60768  42.200  15.852  10.452
89043W        W60769  14.363  32.463   3.447
89044W        W60770  27.911   3.374   0.954
89045W        W60771  18.206  23.051   4.145
89046W        W60772  36.457  33.953   4.683
89047W        W60773  26.927  13.980   2.593
89048W        W60774   3.227  28.500   4.123
89049W        W60775   1.247  14.456   2.897
89050W        W60776  26.037  40.320   1.429
89051W        W60777  27.604  34.388  13.494
89052W        W60778  11.338  22.080   0.261
89053W        W60779  13.383  40.561  11.122
89054W        W60780  29.890  37.674   2.657
89055W        W60781  39.973  34.972   0.031
89056W        W60782  10.612  14.305   1.722
89057W        W60783  27.791  11.608   4.183
89058W        W60784   1.780  36.645   0.307
89059W        W60785  37.327  28.846  11.604
89060W        W60786  23.986  25.449  10.676
89061W        W60787   2.849  21.505   3.747
89062W        W60788  31.174  24.030  14.840
89063W        W60789   8.589  26.077   5.087
89064W        W60790  23.130   7.405  13.268
89065W        W60791  17.733   6.192  13.894
89066W        W60792  16.028  28.191  14.335
89067W        W60793   7.586  32.393   1.668
89068W        W60794  27.471   9.348   1.836
89069W        W60795  36.560  22.006  10.723
89070W        W60796  27.116  34.348  11.236
89071W        W60797  16.095  19.134  13.553
89072W        W60798   1.295  42.481   0.909
89073W        W60799  12.141  28.253  13.017
89074W        W60800  33.034  33.026  14.524
89075W        W60801   6.155  12.817  11.073
89076W        W60802  41.034  25.630  11.673
89077W        W60803  15.178  11.217   2.749
89078W        W60804  17.192  42.748   4.311
89079W        W60805  22.047  11.232   3.861
89080W        W60806  17.341  41.790   4.980
89081W        W60807   6.108  42.908  11.105
89082W        W60808  42.380  19.581   0.972
89083W        W60809  14.012  14.394   1.821
89084W        W60810  42.834  40.588   1.504
89085W        W60811  35.339  29.100   2.716
89086W        W60812   3.896  30.167   2.150
89087W        W60813   6.322  32.348   1.540
89088W        W60814   5.830   4.494   5.516
89089W        W60815  21.625  40.342   1.220
89090W        W60816  10.739   4.239   0.820
89091W        W60817  35.822  43.747   2.751
89092W        W60818  16.553   8.343   4.662
89093W        W60819  33.395  32.083   2.574
89094W        W60820  17.297   6.512  12.539
89095W        W60821  15.822  25.153  14.049
89096W        W60822  36.237  29.748   0.376
89097W        W60823  37.035  38.473  13.438
89098W        W60824  32.101  27.725   4.570
89099W        W60825   9.741  22.052  14.054
89100W        W60826  14.970  13.732  14.807
89101W        W60827  35.992  27.683  11.915
89102W        W60828  19.011  17.050   1.746
89103W        W60829  20.237  15.030  14.005
89104W        W60830  33.315   4.408  13.977
89105W        W60831  16.659   3.486  13.377
89106W        W60832  18.580  34.897   3.746
89107W        W60833  34.667  28.614   1.849
89108W        W60834   2.918  14.788   4.041
89109W        W60835  23.930  41.854   2.515
89110W        W60836  31.953  41.532   3.758
89111W        W60837  12.202  17.838  11.123
89112W        W60838   1.401   4.853  11.393
89113W        W60839  41.284  22.174  11.706
89114W        W60840  29.188  28.506   4.220
89115W        W60841  23.568  32.987   1.646
89116W        W60842  13.319  23.544  13.914
89117W        W60843   7.920  22.719  10.214
89118W        W60844  33.963  15.020   3.219
89119W        W60845  12.409  40.068  13.513
89120W        W60846   2.938   7.602  12.952
89121W        W60847  22.020  33.853   2.720
89122W        W60848  38.344  24.749  14.895
89123W        W60849  14.574  25.523   0.078
89124W        W60850   9.035  24.582   0.790
89125W        W60851  18.643  28.410   0.918
89126W        W60852  19.127  17.284  11.973
89127W        W60853  10.310  25.178  12.010
89128W        W60854  34.378  38.567  14.956
89129W        W60855  32.842  23.711  11.109
89130W        W60856   5.435  11.739  11.398
89131W        W60857  38.597  30.095  13.746
89132W        W60858  16.181   9.514   3.808
89133W        W60859   2.707  35.115   4.566
89134W        W60860  27.909  42.548   0.695
89135W        W60861  27.589  33.193  11.411
89136W        W60862  23.948  22.491   0.467
89137W        W60863  37.447  16.417   3.689
89138W        W60864  18.228  18.991   0.776
89139W        W60865  42.567  10.841   4.200
89140W        W60866   3.712  25.852  11.553
89141W        W60867   7.367   8.474   3.620
89142W        W60868   6.353  10.763   3.281
89143W        W60869  29.724   4.507  12.635
89144W        W60870  33.069  39.330  10.738
89145W        W60871  33.063   9.641  12.089
89146W        W60872   1.290  33.072  13.343
89147W        W60873  20.751  37.316  12.518
89148W        W60874  15.633  36.412   0.854
89149W        W60875   4.791  41.174  14.268
89150W        W60876   0.793  28.147  11.598
89151W        W60877  12.784  33.574   4.107
89152W        W60878  36.611   5.394   0.518
89153W        W60879  35.281  35.837  12.614
89154W        W60880  21.109   1.468  11.201
89155W        W60881  37.620   6.909   4.162
89156W        W60882  44.203  10.848  11.068
89157W        W60883  19.439   6.454   2.238
89158W        W60884  43.978  29.081  12.575
89159W        W60885  43.014   3.073  14.838
89160W        W60886   0.023  34.049  11.945
89161W        W60887  41.900  18.253   5.019
89162W        W60888  33.989  33.651   3.237
89163W        W60889  12.818  30.969   4.884
89164W        W60890  35.668  11.217   3.568
89165W        W60891   5.519   7.915  13.672
89166W        W60892  14.119  19.514  13.649
89167W        W60893  22.667  17.852   4.570
89168W        W60894  12.204  42.085   4.353
89169W        W60895   9.342  44.808   3.589
89170W        W60896  30.241  40.862   2.275
89171W        W60897   4.705  39.539   0.250
89172W        W60898   3.425   8.386  12.769
89173W        W60899  13.067  15.153   4.529
89174W        W60900   1.958  29.928  10.900
89175W        W60901  27.576  41.254  12.021
89176W        W60902  23.612  21.495   2.404
89177W        W60903  21.000  30.275  13.143
89178W        W60904  27.590  37.476  12.382
89179W        W60905  36.013  44.942  14.998
89180W        W60906  22.508  14.278   2.355
89181W        W60907   0.885  13.745   4.679
89182W        W60908   5.985   7.161  11.157
89183W        W60909  44.337   1.605   0.413
89184W        W60910  38.443  31.428   0.467
89185W        W60911  30.670  38.343  14.718
89186W        W60912  10.358   0.883  13.454
89187W        W60913  39.838   1.314  14.246
89188W        W60914  25.177   5.193  11.878
89189W        W60915  34.103  34.824  14.785
89190W        W60916  29.236  28.080   4.505
89191W        W60917  30.889  32.582  14.293
89192W        W60918  29.101  22.961  12.874
89193W        W60919   9.218  13.057  11.727
89194W        W60920  13.358  24.001  12.350
89195W        W60921   8.317  21.891   1.728
89196W        W60922  40.055  26.619   0.190
89197W        W60923  29.418  19.549   1.895
89198W        W60924  12.317  18.738  13.738
89199W        W60925   6.850  35.376   3.241
89200W        W60926  31.767  35.159  13.109
89201W        W60927  42.426   7.920  11.027
89202W        W60928  25.472  27.016   0.565
89203W        W60929  14.170  17.779   3.691
89204W        W60930  22.226   1.656   3.677
89205W        W60931   7.136  24.106  10.730
89206W        W60932  27.588   1.198   4.103
89207W        W60933  42.084  22.769   0.911
89208W        W60934  16.625  14.537  11.064
89209W        W60935  31.710  18.196   0.946
89210W        W60936  39.085   9.682   2.213
89211W        W60937  12.163  24.634   1.771
89212W        W60938  35.104   3.339   4.479
89213W        W60939  28.217  34.615  14.486
89214W        W60940  18.238  23.997   1.224
89215W        W60941   5.919   5.900  11.091
89216W        W60942   3.540   7.058   1.962
89217W        W60943  35.271  38.382   2.662
89218W        W60944  30.873  29.199   3.611
89219W        W60945  33.479  39.014  10.719
89220W        W60946  42.344  24.238   3.754
89221W        W60947   3.773  16.188   2.084
89222W        W60948  37.910   3.915   1.397
89223W        W60949  10.370  14.583   1.328
89224W        W60950  40.592  34.490  10.736
89225W        W60951  39.784  15.999   5.005
89226W        W60952  44.576  12.652   2.258
89227W        W60953  39.363  17.724  11.540
89228W        W60954  42.458  25.599  12.144
89229W        W60955  38.736  25.005   0.269
89230W        W60956  19.050  21.916   1.256
89231W        W60957  36.853  43.017   3.142
89232W        W60958   7.086  32.974  12.437
89233W        W60959  40.821  29.515   1.299
89234W        W60960  11.901   8.590  14.317
89235W        W60961  38.251  21.316   4.117
89236W        W60962   3.293  15.223   2.745
89237W        W60963  23.184  17.086   2.182
89238W        W60964   9.955  14.262   0.831
89239W        W60965  15.573  21.778   2.655
89240W        W60966   8.413  15.033   4.089
89241W        W60967  18.290  15.723   4.500
89242W        W60968  31.777  38.364   1.471
89243W        W60969  10.074  27.986  11.595
89244W        W60970  36.376  42.542   4.217
89245W        W60971  22.155  29.637   0.352
89246W        W60972  22.305  22.606   2.754
89247W        W60973  13.691  29.848  11.938
89248W        W60974  20.988  19.039  14.902
89249W        W60975   1.231   0.466  11.188
89250W        W60976  11.193   0.807   1.711
89251W        W60977   6.239  35.943   2.785
89252W        W60978  26.376  43.040  14.335
89253W        W60979  27.928  25.284   1.424
89254W        W60980  22.185   5.152  14.287
89255W        W60981  19.779  40.821   3.853
89256W        W60982  21.118  40.955   4.657
89257W        W60983   6.607  22.092  11.180
89258W        W60984  17.118  26.964  12.483
89259W        W60985   3.398  26.918  12.922
89260W        W60986   6.840  44.494  12.531
89261W        W60987  33.376  14.518  14.655
89262W        W60988  28.424  40.930  12.089
89263W        W60989  24.634   1.507   4.673
89264W        W60990   5.743   3.739  12.584
89265W        W60991  42.997  34.869  13.453
89266W        W60992   1.685  23.199   2.827
89267W        W60993  22.229  36.855   1.389
89268W        W60994  22.167   8.210   2.791
89269W        W60995  17.748  21.695  13.589
89270W        W60996  28.604  32.400  11.515
89271W        W60997  16.660  25.152  12.092
89272W        W60998  42.176  42.820  10.160
89273W        W60999  30.633  18.851  11.876
89274W        W61000  23.490  17.644   1.039
89275W        W61001  21.997  23.532   0.157
89276W        W61002   3.001  39.710   2.735
89277W        W61003  40.965   1.439  12.344
89278W        W61004  33.006   5.695  13.580
89279W        W61005  26.603  34.142   1.674
89280W        W61006  13.708   5.879   3.272
89281W        W61007  41.268   8.394   0.525
89282W        W61008   1.225  30.833  13.044
89283W        W61009  33.622  14.743   3.981
89284W        W61010  18.355  14.926  14.997
89285W        W61011  18.672  41.021  14.263
89286W        W61012  18.098   1.380   1.269
89287W        W61013  20.651   7.472   3.461
89288W        W61014  22.144  24.015  14.993
89289W        W61015  10.405  42.993  11.448
89290W        W61016  33.510   8.558  14.416
89291W        W61017  30.013  26.054   1.862
89292W        W61018  30.162  34.443   2.395
89293W        W61019  44.356  17.254  14.542
89294W        W61020  36.594  16.607  10.194
89295W        W61021  43.524  19.009  11.193
89296W        W61022  33.023  22.263  11.277
89297W        W61023  12.957  15.533   3.349
89298W        W61024  10.744   2.336  11.259
89299W        W61025  44.337  34.539   1.625
89300W        W61026  31.396   1.938  14.490
89301W        W61027  41.029  11.462   3.185
89302W        W61028  38.521  31.923  13.616
89303W        W61029   5.661   1.859  13.911
89304W        W61030  35.479  41.045   0.032
89305W        W61031  29.909  25.015   2.518
89306W        W61032   6.317  35.869  14.796
89307W        W61033   9.783  25.984  14.910
89308W        W61034  15.561   9.399  11.991
89309W        W61035  27.511  44.789  10.282
89310W        W61036  17.501  31.526   0.474
89311W        W61037  42.371   1.341  12.045
89312W        W61038  31.593  28.716   0.270
89313W        W61039  21.687  11.723   1.704
89314W        W61040  38.271  16.048  14.273
89315W        W61041  31.452   0.899  12.967
89316W        W61042   9.611  43.415  13.557
89317W        W61043   5.730  30.819   0.973
89318W        W61044  13.367  13.554  11.259
89319W        W61045  33.915  15.052   0.800
89320W        W61046  29.981  29.973   2.695
89321W        W61047   0.719   8.696   1.396
89322W        W61048  10.138   1.454  14.533
89323W        W61049  12.165   3.448  13.846
89324W        W61050  12.185  40.927   2.322
89325W        W61051   9.418  42.037   1.392
89326W        W61052  22.194  11.819  11.201
89327W        W61053  28.507  27.531   4.952
89328W        W61054  22.072  36.834   3.826
89329W        W61055  29.050  36.831  13.199
89330W        W61056  21.484  25.548   4.453
89331W        W61057  10.007  39.522   3.368
89332W        W61058  31.072  15.206   3.309
89333W        W61059  33.136  23.274   1.272
89334W        W61060   8.684  27.477  12.916
89335W        W61061  44.009  11.149   0.472
89336W        W61062  28.676  38.322   3.215
89337W        W61063  44.458  40.580   4.147
89338W        W61064  22.939  24.953   3.344
89339W        W61065  33.268  25.387  11.582
89340W        W61066   8.831   9.316   1.159
89341W        W61067  18.858  11.715  13.877
89342W        W61068   7.463  39.247  12.874
89343W        W61069  13.834   1.531  14.165
89344W        W61070  31.471  40.108   1.672
89345W        W61071  32.135  32.203  11.586
89346W        W61072  35.644  23.542  11.526
89347W        W61073  11.101  43.517   1.476
89348W        W61074  12.265  33.433   2.761
89349W        W61075  40.738   4.466  12.519
89350W        W61076   9.369  42.981  11.843
89351W        W61077  13.954  24.700  10.652
89352W        W61078  13.546  27.088   3.267
89353W        W61079  30.939   5.227   4.096
89354W        W61080  41.930  14.750   1.626
89355W        W61081  41.890  38.378   4.360
89356W        W61082  19.654  35.439  11.538
89357W        W61083  25.768  31.494   3.424
89358W        W61084  28.566  35.288  12.635
89359W        W61085  33.628  39.028  13.267
89360W        W61086  12.006  11.532   0.974
89361W        W61087   0.242   1.731  11.977
89362W        W61088  15.114  33.811   2.755
89363W        W61089  40.723  17.810   2.479
89364W        W61090  13.696  11.946  13.140
89365W        W61091  33.549  16.643   2.441
89366W        W61092  24.797   9.347  12.804
89367W        W61093  27.684  15.137  11.896
89368W        W61094  29.346  33.972  13.084
89369W        W61095  33.157   5.993   2.817
89370W        W61096  24.263   3.247  11.932
89371W        W61097  15.615  39.152   5.056
89372W        W61098  39.550  26.713   2.185
89373W        W61099  18.659  22.953  12.122
89374W        W61100  29.284  31.618  13.095
89375W        W61101  42.956  44.840  13.397
89376W        W61102  44.482  42.238  10.298
89377W        W61103  26.688  13.707  12.268
89378W        W61104  34.958  36.888  12.017
89379W        W61105  39.139  12.860   3.022
89380W        W61106  38.220  44.697   0.180
89381W        W61107  11.202   7.687   1.918
89382W        W61108  15.628  20.235  14.070
89383W        W61109  19.536  18.557   0.731
89384W        W61110   5.443  42.371   2.655
89385W        W61111  27.989  36.617   1.810
89386W        W61112  21.693   2.936   3.715
89387W        W61113  44.069  35.475   4.560
89388W        W61114  29.041  29.016   4.151
89389W        W61115  10.755   0.864   3.691
89390W        W61116  32.077  39.848  11.028
89391W        W61117  23.751  26.727   0.367
89392W        W61118  14.710  26.200   3.257
89393W        W61119  20.824  44.053  11.871
89394W        W61120  20.907  25.184   9.917
89395W        W61121  19.692  25.192   3.355
89396W        W61122  29.232  34.067  12.479
89397W        W61123  16.204  27.577   1.796
89398W        W61124  27.523  29.687   2.245
89399W        W61125  36.422  12.097  11.933
89400W        W61126  43.047  31.120   3.165
89401W        W61127  44.710  15.087   1.392
89402W        W61128  23.943  21.431  13.487
89403W        W61129   4.212  16.354  12.168
89404W        W61130  34.991  37.604  14.382
89405W        W61131  30.114  11.387   0.797
89406W        W61132  27.163  18.273  14.346
89407W        W61133  35.093  42.283   4.254
89408W        W61134   1.340  16.684   0.196
89409W        W61135  15.361  26.696  10.556
89410W        W61136  39.998  36.838   2.911
89411W        W61137  19.129  44.831  11.234
89412W        W61138  44.288  22.102   0.002
89413W        W61139  30.157  42.253   9.873
89414W        W61140  38.818  10.742  12.856
89415W        W61141  27.908  13.504   0.248
89416W        W61142  42.373  43.182   9.848
89417W        W61143  37.642   7.711   3.582
89418W        W61144  21.711   4.922  12.132
89419W        W61145  14.187  26.239   2.233
89420W        W61146  31.918  23.607  14.988
89421W        W61147  31.104   8.283   1.342
89422W        W61148  16.007  36.908  11.673
89423W        W61149  11.563   8.068   3.045
89424W        W61150   3.267  25.459  12.146
89425W        W61151  13.198  27.703   2.523
89426W        W61152  22.154  29.407   1.886
89427W        W61153  32.517  32.743  11.076
89428W        W61154  30.670  25.465  14.081
89429W        W61155   3.811   2.182  12.509
89430W        W61156  26.000   6.719   0.459
89431W        W61157  17.184  41.437  13.366
89432W        W61158  10.676  31.655  11.557
89433W        W61159  13.430  14.088   2.410
89434W        W61160  38.654  24.250  14.209
89435W        W61161   7.680   5.831  13.718
89436W        W61162  31.365  27.477   3.838
89437W        W61163  28.972  11.180   4.423
89438W        W61164  22.522  19.905  11.673
89439W        W61165  11.247  25.559  12.310
89440W        W61166  36.990  34.853   1.186
89441W        W61167  42.692  11.657   4.066
89442W        W61168  25.817  11.414  14.267
89443W        W61169  40.414  38.491   0.274
89444W        W61170  25.181  13.660  11.884
89445W        W61171  40.648  42.400  12.895
89446W        W61172  25.178  44.843  11.030
89447W        W61173   3.498   6.325  12.380
89448W        W61174  39.538  30.126   3.817
89449W        W61175  36.311   2.274   0.508
89450W        W61176  14.725  12.795   3.181
89451W        W61177  41.269   6.442  11.132
89452W        W61178  31.997  43.506  11.113
89453W        W61179   9.415  23.786   2.665
89454W        W61180  15.680  24.982   2.770
89455W        W61181  18.214  37.195   2.165
89456W        W61182  25.303  40.534   5.091
89457W        W61183   2.797  44.838   2.686
89458W        W61184  35.838  20.620  10.757
89459W        W61185  26.638   5.710   2.322
89460W        W61186  43.902  34.632   3.862
89461W        W61187  44.300  12.871  12.379
89462W        W61188  18.045   6.292   2.843
89463W        W61189  29.358  44.765  14.494
89464W        W61190   4.533  21.745  11.690
89465W        W61191  30.274  33.122  11.553
89466W        W61192  14.851  44.886  14.431
89467W        W61193   3.726  44.246  10.863
89468W        W61194   1.966  39.582  14.744
89469W        W61195  10.677   6.938   0.357
89470W        W61196  17.570  26.781  14.499
89471W        W61197  44.021  14.913  13.998
89472W        W61198   5.491   5.459  13.519
89473W        W61199   1.367  40.973  10.466
89474W        W61200  43.912   8.589   2.765
89475W        W61201  42.888  16.166   1.283
89476W        W61202  21.222  32.347   1.708
89477W        W61203   2.376  30.240  14.290
89478W        W61204  16.467  42.545  12.936
89479W        W61205  33.355  37.495  12.240
89480W        W61206  33.822  13.937  10.509
89481W        W61207  26.884   8.976  14.507
89482W        W61208  31.332  44.463  12.934
89483W        W61209  19.612  23.611  14.752
89484W        W61210  14.641  37.435  13.563
89485W        W61211  14.071  34.174   0.417
89486W        W61212  23.806  14.398  14.891
89487W        W61213  29.003  16.563   1.432
89488W        W61214  43.778  15.105  13.394
89489W        W61215  10.870  40.396   2.459
89490W        W61216  44.399   3.405  10.688
89491W        W61217  26.520  21.948   4.138
89492W        W61218  26.711  23.164  10.654
89493W        W61219   2.646   2.380  14.097
89494W        W61220  44.205  14.783   2.267
89495W        W61221  17.088  25.662   4.708
89496W        W61222  37.047  22.728   4.664
89497W        W61223  40.025  18.727  11.526
89498W        W61224   7.138   0.885   2.690
89499W        W61225  13.036  42.834  12.154
89500W        W61226  36.835  24.623  13.816
89501W        W61227  14.339  24.949   4.064
89502W        W61228  26.698  23.562   4.585
89503W        W61229  41.546   9.377  13.417
89504W        W61230  37.273  11.307  14.337
89505W        W61231   3.871  22.634   3.795
89506W        W61232  12.351  28.452  14.346
89507W        W61233   8.060  26.339  11.117
89508W        W61234  11.637  20.636  11.410
89509W        W61235  13.646   2.496  13.245
89510W        W61236  23.020  26.077  12.127
89511W        W61237  26.155  13.364  12.041
89512W        W61238  39.840  30.659   2.377
89513W        W61239  21.893  14.092  10.700
89514W        W61240  14.740  23.560   2.321
89515W        W61241  43.404   0.931   4.898
89516W        W61242  33.103  38.372   4.603
89517W        W61243   0.733  10.858   3.204
89518W        W61244  32.118  36.342  13.545
89519W        W61245  33.872  19.197  14.701
89520W        W61246  35.587   1.350  10.922
89521W        W61247  34.910   6.676  12.823
89522W        W61248  44.351  16.971  13.504
89523W        W61249   2.999  28.781   0.059
89524W        W61250  10.922  28.118   1.266
89525W        W61251  25.094  17.834   1.354
89526W        W61252  40.185  44.937   1.860
89527W        W61253  20.771   4.550   2.467
89528W        W61254  24.795  31.161  13.862
89529W        W61255  41.416  16.297   1.342
89530W        W61256  13.670  16.960   0.153
89531W        W61257  12.484  11.326   0.858
89532W        W61258  18.326  18.171   4.202
89533W        W61259  40.900  29.147  14.456
89534W        W61260  39.831   4.771   3.263
89535W        W61261  18.692  26.591   1.288
89536W        W61262   3.000  44.109   1.406
89537W        W61263  36.838  34.554  10.586
89538W        W61264   8.903  19.632   3.289
89539W        W61265  27.797  21.200  12.948
89540W        W61266  19.902   2.582   1.796
89541W        W61267  42.983   1.245  14.296
89542W        W61268  19.170  31.832  10.648
89543W        W61269  12.327  20.009   0.955
89544W        W61270  19.304  37.119   4.087
89545W        W61271  10.211   3.229   2.161
89546W        W61272   4.964  21.767  11.391
89547W        W61273  11.571   1.972  11.149
89548W        W61274  20.069  16.272   2.254
89549W        W61275  24.168   6.966   1.470
89550W        W61276  24.223  24.611  11.190
89551W        W61277  26.883  31.633  14.209
89552W        W61278   4.519  24.658  12.943
89553W        W61279  22.045   8.103  13.960
89554W        W61280   6.228  15.100  11.827
89555W        W61281  14.686   8.114   4.972
89556W        W61282  19.230   8.246  12.901
89557W        W61283  18.805   1.478  14.727
89558W        W61284  16.647   8.323  10.955
89559W        W61285  30.558  26.463  10.117
89560W        W61286   6.356  14.080   4.663
89561W        W61287  43.453  22.130  10.600
89562W        W61288   0.441   4.982  12.460
89563W        W61289  32.955  39.125  12.091
89564W        W61290  16.574  19.595   1.496
89565W        W61291  21.634  24.996  13.706
89566W        W61292  36.330  26.013  14.778
89567W        W61293  26.756  15.652   0.328
89568W        W61294  43.824  12.518  14.262
89569W        W61295  15.768  35.182  12.944
89570W        W61296  38.330  26.444   0.848
89571W        W61297  30.194  32.131  11.982
89572W        W61298   5.793  43.775  11.538
89573W        W61299   2.926  34.868   2.228
89574W        W61300  34.133  20.158   0.814
89575W        W61301  24.135  24.616   3.686
89576W        W61302  22.056   3.352  14.923
89577W        W61303  22.328  19.658   1.333
89578W        W61304  43.248  32.727  13.963
89579W        W61305  40.388  20.093  11.358
89580W        W61306  22.096  29.850  14.414
89581W        W61307   3.582   9.409   3.570
89582W        W61308   8.233   7.717  10.634
89583W        W61309   6.165  33.144  13.590
89584W        W61310  20.179  20.112  14.461
89585W        W61311  42.507  43.808   3.866
89586W        W61312  29.158  11.630  13.054
89587W        W61313  39.613  15.811  10.670
89588W        W61314  37.115  14.285   4.576
89589W        W61315   7.690  25.765   4.973
89590W        W61316   5.193  36.996  14.924
89591W        W61317  42.423   4.623  14.350
89592W        W61318  31.475  22.851  12.430
89593W        W61319  33.162   0.928  12.932
89594W        W61320  11.701  41.450   4.823
89595W        W61321  39.900  18.057  13.024
89596W        W61322  37.760  12.947   1.340
89597W        W61323  13.807   5.275   3.682
89598W        W61324  39.958  18.805  10.664
89599W        W61325  16.818   0.674   0.908
89600W        W61326  17.727  10.134  14.976
89601W        W61327  10.623  20.565  13.098
89602W        W61328  37.326  19.690   4.286
89603W        W61329  35.892  39.390  14.473
89604W        W61330  39.959  32.917   0.877
89605W        W61331  35.282  14.675   0.214
89606W        W61332   0.251  21.184   3.204
89607W        W61333   1.509  19.613   2.951
89608W        W61334  11.887  31.111  11.957
89609W        W61335  26.454  39.947  14.863
89610W        W61336  21.679  38.450   0.446
89611W        W61337  43.434  35.994  11.001
89612W        W61338  18.149   4.798  14.882
89613W        W61339  43.927  38.571  12.437
89614W        W61340  32.253  29.445   5.040
89615W        W61341  29.056  24.440  14.069
89616W        W61342   7.202  33.044  14.794
89617W        W61343  43.176   4.319  13.209
89618W        W61344  37.972  36.807   1.718
89619W        W61345  11.677  18.958   2.697
89620W        W61346  30.003  25.624  14.312
89621W        W61347  27.220  32.010  14.084
89622W        W61348  35.995  22.149  13.226
89623W        W61349  27.943  28.077   4.540
89624W        W61350  31.230   2.609  12.526
89625W        W61351  30.340  27.627  13.028
89626W        W61352  18.158  15.655   2.261
89627W        W61353  14.746   8.643   5.021
89628W        W61354  13.588  21.347  12.358
89629W        W61355  42.959   7.897   2.296
89630W        W61356   4.787  12.287  13.528
89631W        W61357  24.214  35.013  10.756
89632W        W61358  12.035  13.103  10.741
89633W        W61359  35.069  17.664   4.741
89634W        W61360  10.082  16.447  12.533
89635W        W61361  25.711  12.862  11.197
89636W        W61362  16.127  37.833   1.321
89637W        W61363  30.436  18.953  13.126
89638W        W61364   3.901  35.434  11.369
89639W        W61365  11.731  30.908   3.897
89640W        W61366  44.096  30.589  11.498
89641W        W61367  40.128  11.899   3.641
89642W        W61368  27.984   4.737  14.014
89643W        W61369  22.830  39.119   3.508
89644W        W61370  17.047  10.711  11.101
89645W        W61371   1.667  39.358   0.175
89646W        W61372  31.655   6.330   0.606
89647W        W61373   1.340  29.177   2.158
89648W        W61374  18.263  42.800   2.210
89649W        W61375  22.152  10.192  10.739
89650W        W61376  14.423  10.746  11.886
89651W        W61377   9.595  44.407  13.214
89652W        W61378  39.613  38.335   1.981
89653W        W61379  31.449   8.300  14.496
89654W        W61380  33.778  12.330  13.270
89655W        W61381   4.882  37.697  12.127
89656W        W61382  39.286  29.653  11.202
89657W        W61383  35.389  10.708   3.620
89658W        W61384  20.998  34.400   4.102
89659W        W61385   2.475  25.702  12.491
89660W        W61386  43.392  32.440   3.752
89661W        W61387  13.567  28.999   2.215
89662W        W61388   0.717  14.255  13.785
89663W        W61389   8.859  27.951   1.860
89664W        W61390  12.456  22.515   5.110
89665W        W61391  40.283  11.387  13.393
89666W        W61392  22.259  19.007  14.078
89667W        W61393   2.407  26.646  12.530
89668W        W61394  41.585   5.878   2.886
89669W        W61395  15.184  19.895   3.410
89670W        W61396   2.767  40.755  12.078
89671W        W61397   0.443  40.461  11.020
89672W        W61398  35.069  22.073   3.256
89673W        W61399  12.739  13.641   4.909
89674W        W61400  28.984   6.677   1.879
89675W        W61401  37.509  15.204  11.865
89676W        W61402  31.417   7.904  14.138
89677W        W61403  37.345  29.663  14.719
89678W        W61404  12.611  13.710   2.309
89679W        W61405  32.429  37.493  13.063
89680W        W61406   2.851  27.371   3.723
89681W        W61407  31.082  38.031   2.437
89682W        W61408  40.081   2.757  13.854
89683W        W61409  33.977  41.836  14.594
89684W        W61410  42.863  26.202   2.471
89685W        W61411  16.836  14.755   0.413
89686W        W61412  13.328  29.644  13.121
89687W        W61413   5.575  10.200   0.723
89688W        W61414  17.719  43.278  11.971
89689W        W61415  15.028  31.670   1.320
89690W        W61416  19.210   7.699  12.180
89691W        W61417  19.185  32.560  11.509
89692W        W61418  10.765  23.741   4.713
89693W        W61419  38.164  39.607   4.165
89694W        W61420  21.618  15.591  14.827
89695W        W61421  16.201  40.746  12.427
89696W        W61422  10.942   4.303  11.052
89697W        W61423  41.150  22.604  12.038
89698W        W61424   5.801  10.137   0.248
89699W        W61425   1.321  39.304  11.125
89700W        W61426  33.632  29.612  13.949
89701W        W61427  26.747  25.190  11.145
89702W        W61428  31.045  12.785  12.873
89703W        W61429  10.369  22.552  12.465
89704W        W61430  14.594  36.556   4.963
89705W        W61431  21.283  31.163  11.991
89706W        W61432  11.790  26.380  11.214
89707W        W61433  20.683  26.198  10.205
89708W        W61434   6.670   0.379  11.041
89709W        W61435   3.896  22.200   4.132
89710W        W61436  22.971  23.263  11.608
89711W        W61437  39.368   4.479  12.950
89712W        W61438  44.242  13.796  13.640
89713W        W61439   9.296  28.239   4.659
89714W        W61440  30.675  37.768  12.595
89715W        W61441  21.980  10.321   2.186
89716W        W61442  32.047   0.777   4.855
89717W        W61443  22.950  33.526  12.490
89718W        W61444   2.681   1.943  12.662
89719W        W61445  28.727  42.915   3.245
89720W        W61446  11.379  34.463   2.765
89721W        W61447  12.802  43.299  12.072
89722W        W61448  36.100  13.566   0.232
89723W        W61449  11.893  43.955  12.386
89724W        W61450   6.917   9.290  14.919
89725W        W61451  29.198   7.215   0.854
89726W        W61452  17.535  19.496   1.532
89727W        W61453  14.386  23.327   1.744
89728W        W61454  18.173  22.219   1.932
89729W        W61455  24.787  12.637   0.419
89730W        W61456  11.669   6.814   4.601
89731W        W61457  14.310   9.052   1.447
89732W        W61458  43.662  35.632  13.293
89733W        W61459  39.345  14.813  10.597
89734W        W61460  30.501   8.191   4.887
89735W        W61461  30.037  30.726   4.161
89736W        W61462  26.258  18.201   2.236
89737W        W61463  21.684  24.650  13.303
89738W        W61464  30.087  16.411  13.340
89739W        W61465  36.313  13.274   0.704
89740W        W61466  31.431  31.845  11.122
89741W        W61467  26.588  33.641   4.281
89742W        W61468  43.509   2.739   4.111
89743W        W61469  25.273   6.995   0.696
89744W        W61470   7.866  33.021   4.704
89745W        W61471  12.885  26.649   0.611
89746W        W61472  33.362   8.888   1.374
89747W        W61473  29.712  32.514  12.346
89748W        W61474  13.309  33.986  10.627
89749W        W61475  38.811  33.101  11.565
89750W        W61476  29.456  35.429   4.313
89751W        W61477  35.609  26.961  12.429
89752W        W61478  38.823  41.397  13.823
89753W        W61479  13.469   6.697   3.784
89754W        W61480   0.664  36.084   3.830
89755W        W61481   3.787   3.768   4.931
89756W        W61482  22.045  26.790   2.938
89757W        W61483  39.148   8.851  13.682
89758W        W61484   7.273  42.049   2.709
89759W        W61485  41.221  20.127  14.264
89760W        W61486   5.278  42.272  11.205
89761W        W61487  40.013  13.672  11.051
89762W        W61488  26.560  14.108  10.972
89763W        W61489  28.064  23.723   4.509
89764W        W61490  26.060  16.357   4.641
89765W        W61491  37.436  13.857   4.660
89766W        W61492  42.398  15.115  14.595
89767W        W61493  37.891  29.391  14.048
89768W        W61494  18.264  32.669  13.401
89769W        W61495  23.679  32.902   4.078
89770W        W61496  19.601   7.311  13.347
89771W        W61497   2.203  15.993  13.321
89772W        W61498  33.282  13.283   0.946
89773W        W61499  38.378  31.631   4.129
89774W        W61500  30.501   2.194  14.683
89775W        W61501   6.254  36.831  11.949
89776W        W61502  12.593  32.884   2.345
89777W        W61503  33.899  20.605  11.092
89778W        W61504  24.094  15.268   4.833
89779W        W61505  43.133  40.505   5.168
89780W        W61506  23.708  16.243  12.509
89781W        W61507  33.031   4.457   1.675
89782W        W61508  18.123  26.951  13.391
89783W        W61509  17.494  13.822   2.248
89784W        W61510  21.087  30.534   3.306
89785W        W61511  29.428  35.034  13.413
89786W        W61512  34.944   9.127  11.233
89787W        W61513   6.034  24.088   4.143
89788W        W61514  30.227  14.397  11.146
89789W        W61515  24.121  33.450  13.662
89790W        W61516  39.807  36.366  13.046
89791W        W61517  27.925   5.793   1.747
89792W        W61518   2.909  41.156   4.852
89793W        W61519  21.614  16.133   4.116
89794W        W61520   5.317  13.276   4.115
89795W        W61521   8.262  24.461   1.978
89796W        W61522  19.241  11.071  13.338
89797W        W61523  33.053   9.761   0.317
89798W        W61524  25.026  33.928  11.060
89799W        W61525   7.629  30.137  11.166
89800W        W61526  12.123  19.152   0.989
89801W        W61527  11.226  25.014  10.123
89802W        W61528  11.330   0.436   2.074
89803W        W61529  33.155  17.558  13.909
89804W        W61530   2.181  39.928  14.385
89805W        W61531  28.688  11.288  13.777
89806W        W61532  38.409  29.882  12.584
89807W        W61533  31.910  36.022  14.015
89808W        W61534  33.940  38.917  10.456
89809W        W61535  42.671  25.143   3.623
89810W        W61536   9.792  24.122   1.956
89811W        W61537  25.399  17.973  12.910
89812W        W61538   1.353  20.791  10.421
89813W        W61539  40.290  35.092   0.444
89814W        W61540   0.169  21.192  14.384
89815W        W61541   4.206   5.826  12.553
89816W        W61542  41.932  37.641  12.070
89817W        W61543  28.964   5.439   1.206
89818W        W61544  37.862  17.062   2.144
89819W        W61545  35.768   0.170   0.393
89820W        W61546  33.418  37.054   4.356
89821W        W61547   0.731  14.980  11.092
89822W        W61548  14.657  34.511  11.123
89823W        W61549  16.298  41.856  14.820
89824W        W61550  19.587  34.887  13.835
89825W        W61551  13.077  33.742  12.993
89826W        W61552  17.537  17.188  14.575
89827W        W61553  43.447  39.028  12.111
89828W        W61554   1.397  25.795  10.723
89829W        W61555  15.442  30.508  14.458
89830W        W61556  11.786   5.335   3.376
89831W        W61557  18.852   3.752  11.619
89832W        W61558  33.372  38.581   4.203
89833W        W61559  18.248  16.191  11.973
89834W        W61560   5.294  14.754   3.869
89835W        W61561  39.528  33.016   1.737
89836W        W61562  28.450   0.485  12.497
89837W        W61563  43.314  42.498  13.267
89838W        W61564  12.619  36.337  10.692
89839W        W61565   5.960  10.164  10.433
89840W        W61566  37.625   3.310  11.516
89841W        W61567  36.441   5.267  13.132
89842W        W61568   5.222  37.934   4.727
89843W        W61569   5.887  32.347   3.333
89844W        W61570  32.470  23.269   3.665
89845W        W61571  44.578  36.239   3.202
89846W        W61572  28.112  21.859   4.653
89847W        W61573  20.455   9.807   0.306
89848W        W61574  25.026  20.065   2.815
89849W        W61575  25.704   9.087  13.809
89850W        W61576   0.953  34.410  13.585
89851W        W61577  21.758  29.513  14.971
89852W        W61578  30.101   9.491  10.840
89853W        W61579  36.670  37.526   5.063
89854W        W61580  27.098  27.233   1.783
89855W        W61581  23.059   2.965   3.672
89856W        W61582  10.674  33.893  10.149
89857W        W61583  13.737  37.398   4.469
89858W        W61584  14.296  42.362  12.164
89859W        W61585  31.807  13.179  13.949
89860W        W61586   3.203  19.027   0.081
89861W        W61587  35.304   2.147  11.578
89862W        W61588  17.250  24.651   1.357
89863W        W61589  14.114  38.263   0.542
89864W        W61590  24.585  43.338   3.645
89865W        W61591  21.682   3.702   3.161
89866W        W61592  19.037  31.214  12.208
89867W        W61593  33.976  29.946   0.415
89868W        W61594  17.981   6.694   0.892
89869W        W61595  34.579   3.599   3.227
89870W        W61596  21.125   8.465   4.182
89871W        W61597  40.915  38.524  13.641
89872W        W61598   4.512  16.725   3.867
89873W        W61599  15.118  22.280   3.267
89874W        W61600  11.414  13.706   4.926
89875W        W61601  20.080  31.425  14.937
89876W        W61602  38.004  38.131   3.806
89877W        W61603  36.138   7.775  10.713
89878W        W61604  24.778  29.656  11.102
89879W        W61605  12.286  34.917   2.759
89880W        W61606   8.670  12.113  12.948
89881W        W61607  24.435  16.503  14.415
89882W        W61608  31.332  26.731  14.506
89883W        W61609   8.343  13.038   2.732
89884W        W61610  21.372  20.791   4.870
89885W        W61611   7.167  16.253  14.454
89886W        W61612  32.948  26.503  13.381
89887W        W61613   9.256  10.961  14.412
89888W        W61614   6.292  25.133  14.070
89889W        W61615  22.049  13.818   0.961
89890W        W61616  12.569  19.222   2.785
89891W        W61617  15.153  15.716   1.832
89892W        W61618  25.057  27.944  13.299
89893W        W61619   4.325  40.932  13.372
89894W        W61620   9.939  10.454   0.216
89895W        W61621  10.185   3.998  13.377
89896W        W61622   2.408  22.607  10.612
89897W        W61623  44.710  41.503   0.723
89898W        W61624  29.511  43.540   3.210
89899W        W61625  42.478  14.107  14.005
89900W        W61626  26.131  44.335  13.566
89901W        W61627   5.811  35.490  14.970
89902W        W61628  16.210   0.182  13.271
89903W        W61629  44.114  15.622   4.961
89904W        W61630  16.590  18.108  11.142
89905W        W61631  43.954  19.170  12.356
89906W        W61632  33.382  32.986   3.171
89907W        W61633  13.720  17.163  12.808
89908W        W61634  18.828  19.076   3.963
89909W        W61635  12.335  16.068  11.607
89910W        W61636  29.705  40.554   3.523
89911W        W61637  19.176  31.626  13.771
89912W        W61638  20.264  14.314  13.425
89913W        W61639  37.908   5.753  12.198
89914W        W61640  42.799  37.023   1.184
89915W        W61641  17.321  14.867  13.604
89916W        W61642  18.803  42.947   3.141
89917W        W61643  26.658  19.497  11.036
89918W        W61644   3.847  18.231  13.046
89919W        W61645  20.911  13.052  10.528
89920W        W61646  41.106   9.310  11.654
89921W        W61647  18.565  32.117   0.493
89922W        W61648  26.453   6.858  13.438
89923W        W61649   3.270  21.962   2.223
89924W        W61650  18.643   0.006   0.834
89925W        W61651  44.216  10.632  13.130
89926W        W61652  39.383  38.289  10.819
89927W        W61653   0.204  40.488  14.261
89928W        W61654  12.284  24.171  13.053
89929W        W61655  11.953  15.180  12.224
89930W        W61656   9.343  34.549   2.831
89931W        W61657  28.604  37.558   2.080
89932W        W61658  34.448  31.149  12.429
89933W        W61659  29.867  43.918  10.041
89934W        W61660  27.148  19.313   3.190
89935W        W61661  35.593  28.174   0.349
89936W        W61662  14.321  15.715  13.320
89937W        W61663  43.274  36.129   1.457
89938W        W61664  35.782   7.676   4.180
89939W        W61665  40.792  38.496  10.746
89940W        W61666  27.232   3.178  13.781
89941W        W61667  43.343  34.672   2.083
89942W        W61668  30.083  35.370  12.363
89943W        W61669  12.680  17.585  14.277
89944W        W61670  43.827  34.905   2.803
89945W        W61671  19.104   3.800  12.451
89946W        W61672  16.669  20.246  13.261
89947W        W61673  23.360  33.861   4.304
89948W        W61674  30.065  16.247   4.691
89949W        W61675  16.570  29.918  14.731
89950W        W61676   3.425   9.299   2.150
89951W        W61677  22.005   4.326  13.582
89952W        W61678   4.988   0.886  11.910
89953W        W61679  13.382  39.840   1.712
89954W        W61680  42.507  36.560   1.131
89955W        W61681   1.900  32.616   1.838
89956W        W61682  33.763  12.296   3.670
89957W        W61683  25.536  37.350  13.965
89958W        W61684  13.682   6.869   3.352
89959W        W61685  31.469  21.579  11.801
89960W        W61686  38.578  23.111   3.319
89961W        W61687  23.492  13.148   4.530
89962W        W61688  15.591  40.882  13.021
89963W        W61689  39.272  36.445  12.938
89964W        W61690   8.599  44.209  11.141
89965W        W61691  41.906  24.754  12.459
89966W        W61692   3.379  12.485  12.155
89967W        W61693  15.774   9.708  11.620
89968W        W61694  41.090  43.046  12.465
89969W        W61695  41.022  22.556   4.556
89970W        W61696  36.571  38.851   3.679
89971W        W61697   4.697  34.016  14.272
89972W        W61698  10.929   2.615  13.764
89973W        W61699  29.573  11.639   2.321
89974W        W61700  12.836  30.099  13.555
89975W        W61701  16.399  37.091   0.321
89976W        W61702  41.749  14.334  13.250
89977W        W61703  34.025  43.734   5.106
89978W        W61704  23.459  32.475   4.293
89979W        W61705  16.186   4.264   2.129
89980W        W61706  16.221  25.959   3.830
89981W        W61707   0.100  32.852  13.927
89982W        W61708   2.887  16.960   3.200
89983W        W61709  36.477  15.221  11.900
89984W        W61710  14.429  15.773   3.226
89985W        W61711  37.866  43.007   4.946
89986W        W61712  13.190  32.401  11.491
89987W        W61713   4.471  24.629  11.079
89988W        W61714  35.422   7.815  13.965
89989W        W61715  33.583   6.187  11.882
89990W        W61716  25.052   3.438  13.912
89991W        W61717  44.876   7.690   3.900
89992W        W61718  35.255  20.567  10.738
89993W        W61719  44.771   3.912  11.939
89994W        W61720   2.841  35.962   0.717
89995W        W61721   5.873  11.147   0.388
89996W        W61722  21.170  26.903  14.988
89997W        W61723  39.470  16.172  11.957
89998W        W61724  21.467   6.403  10.168
89999W        W61725  34.347  25.702  11.251
90000W        W61726  21.531  21.172  11.666
90001W        W61727  40.861  29.463  12.058
90002W        W61728  22.544   2.023   2.333
90003W        W61729  30.492  37.157   0.510
90004W        W61730  35.091  22.578   0.161
90005W        W61731  18.682  18.327   5.084
90006W        W61732  36.613  18.113   2.081
90007W        W61733  25.655  35.759   5.071
90008W        W61734  41.979  19.757  14.430
90009W        W61735   8.111  17.847  13.921
90010W        W61736  34.637   6.085  14.079
90011W        W61737   6.018  25.701   1.825
90012W        W61738  38.846  29.832   1.936
90013W        W61739   0.555  34.827  12.353
90014W        W61740  10.108   6.608  11.092
90015W        W61741  21.517  14.720   1.666
90016W        W61742  34.828  29.939  11.456
90017W        W61743  26.886  44.108  13.480
90018W        W61744  13.267  16.965  14.064
90019W        W61745  28.597  18.282   3.552
90020W        W61746  27.075  22.319   2.691
90021W        W61747  22.486   5.366   2.078
90022W        W61748  34.820  34.584   2.621
90023W        W61749  44.565   6.957   4.197
90024W        W61750  34.286  29.706   4.784
90025W        W61751   7.254  29.890   2.591
90026W        W61752  22.544   5.904   4.764
90027W        W61753   9.396   7.359   1.967
90028W        W61754  21.981  20.670   1.231
90029W        W61755  42.270  33.313   2.225
90030W        W61756   2.315  27.285   0.791
90031W        W61757  31.073  29.939  13.447
90032W        W61758  40.842   4.700   0.725
90033W        W61759  22.134  27.733   9.674
90034W        W61760   8.046   6.746   5.452
90035W        W61761   0.902  41.793   1.833
90036W        W61762  30.401  25.192   0.990
90037W        W61763  23.180  29.900  11.139
90038W        W61764  28.952   0.793  13.336
90039W        W61765  19.064  16.748   0.836
90040W        W61766  16.562  23.108   4.083
90041W        W61767  16.798  24.800   0.462
90042W        W61768   2.921  40.640   3.622
90043W        W61769  44.484   6.864  12.540
90044W        W61770  30.150  18.728   0.279
90045W        W61771  33.389  35.266  11.628
90046W        W61772  17.749  37.786  11.490
90047W        W61773  22.263   5.654   1.207
90048W        W61774  21.166  13.005   2.891
90049W        W61775  17.476  11.228  13.944
90050W        W61776  13.720   0.468   3.311
90051W        W61777  19.347  41.452   0.707
90052W        W61778  15.882  17.699  11.492
90053W        W61779  41.524  27.441   3.233
90054W        W61780  38.969  43.039   2.821
90055W        W61781  26.214  33.912  10.604
90056W        W61782   2.425  34.076   2.931
90057W        W61783   1.282  12.566   3.560
90058W        W61784   9.049  18.964   4.197
90059W        W61785  11.818   6.208  12.348
90060W        W61786  43.601  18.033   0.499
90061W        W61787   4.711  38.917  14.756
90062W        W61788  38.501   9.827  12.407
90063W        W61789  12.223  20.793   3.562
90064W        W61790  42.029  40.065  13.907
90065W        W61791  25.427  35.480   4.674
90066W        W61792   5.276  37.879  14.870
90067W        W61793  44.447   0.879   2.687
90068W        W61794  24.323  22.375  13.465
90069W        W61795  14.661  29.224   4.311
90070W        W61796  10.088   3.385  12.190
90071W        W61797  30.504  35.839  14.961
90072W        W61798  17.548  42.483  14.814
90073W        W61799   1.333  33.416   4.066
90074W        W61800  28.112  15.328   4.448
90075W        W61801   9.838  38.549   2.276
90076W        W61802   6.205  17.121  12.847
90077W        W61803   0.526  12.235   3.291
90078W        W61804  39.490  34.102   1.865
90079W        W61805  18.945  17.016   0.353
90080W        W61806  32.381  42.390  12.372
90081W        W61807  10.721  11.859  11.013
90082W        W61808  12.971  39.096  12.017
90083W        W61809  39.921  10.488   2.208
90084W        W61810  44.433  28.855  13.436
90085W        W61811  24.476  27.660   2.327
90086W        W61812  24.578  17.206  12.450
90087W        W61813   4.686  31.072   3.243
90088W        W61814   6.092  23.193   3.896
90089W        W61815   9.197  38.942  12.893
90090W        W61816  38.114  40.722  11.012
90091W        W61817  39.931  29.579  14.562
90092W        W61818   7.817  40.744  12.473
90093W        W61819  18.976  14.321  12.206
90094W        W61820  36.965  32.782   3.184
90095W        W61821  41.506  13.785  13.139
90096W        W61822  32.867  12.633  10.862
90097W        W61823  43.945   1.125  12.326
90098W        W61824  34.425   7.649  10.767
90099W        W61825  25.971  39.411   3.909
90100W        W61826   7.920  15.610  11.188
90101W        W61827  15.469  39.062   4.120
90102W        W61828  17.226   6.097   4.169
90103W        W61829  36.906  11.165  10.766
90104W        W61830   4.904  17.727   3.938
90105W        W61831  30.148  43.261  13.232
90106W        W61832  39.545   9.249   3.323
90107W        W61833  21.943  23.447  13.859
90108W        W61834  13.316  31.116   0.879
90109W        W61835  32.241  11.558  11.478
90110W        W61836  34.727  17.491  11.638
90111W        W61837  21.715   0.268   4.745
90112W        W61838  21.796  35.904  14.331
90113W        W61839   3.059  10.130  14.472
90114W        W61840  34.663   1.873   3.828
90115W        W61841  32.019  20.235   4.579
90116W        W61842  43.940  28.551  11.133
90117W        W61843   4.446   5.454   4.294
90118W        W61844   3.484  37.996   2.444
90119W        W61845  34.442  28.479   0.985
90120W        W61846  16.630  17.048  14.279
90121W        W61847  41.861  26.863   0.787
90122W        W61848   6.795  29.571  13.625
90123W        W61849   2.339  41.155   1.900
90124W        W61850   9.930  28.727   4.197
90125W        W61851  41.909  25.335   5.134
90126W        W61852  37.353  14.636  13.043
90127W        W61853  24.030  25.718  12.532
90128W        W61854  36.206  38.963  11.119
90129W        W61855  26.939  25.967   0.968
90130W        W61856  13.033  44.915   4.342
90131W        W61857  35.474  25.265   3.804
90132W        W61858  10.601  41.455   0.281
90133W        W61859  27.619  36.583  12.363
90134W        W61860  38.032  34.335   2.300
90135W        W61861   9.560  22.914   0.261
90136W        W61862  11.752  26.815   2.703
90137W        W61863  35.945  19.259  14.937
90138W        W61864  28.500  14.388  14.842
90139W        W61865   4.128   7.269  13.995
90140W        W61866  29.960  14.929   0.589
90141W        W61867  21.427  40.527  12.681
90142W        W61868  17.660   9.625  14.944
90143W        W61869  18.079   8.721  11.133
90144W        W61870  19.523  33.453   4.657
90145W        W61871  14.572  26.234  11.194
90146W        W61872   1.831  16.564  12.832
90147W        W61873  35.634  34.995   2.976
90148W        W61874  34.408  24.078   0.856
90149W        W61875  36.002  24.937  12.766
90150W        W61876  12.608   7.745  11.207
90151W        W61877  23.251   4.039  13.118
90152W        W61878  20.609  40.361  11.892
90153W        W61879   6.440  20.209   3.770
90154W        W61880  30.579  42.917  11.011
90155W        W61881  20.249  41.029  10.604
90156W        W61882  19.386  35.069   3.277
90157W        W61883  37.615   3.151  10.274
90158W        W61884  41.895  14.749  12.276
90159W        W61885  37.412   7.822   4.034
90160W        W61886   3.220  42.381  13.927
90161W        W61887  17.312  28.173   1.892
90162W        W61888  27.228  24.983   2.032
90163W        W61889  32.261   5.249  14.217
90164W        W61890  42.687  36.081   4.634
90165W        W61891   3.022   8.677   1.681
90166W        W61892  23.201  15.130   1.318
90167W        W61893  21.025  40.872  14.376
90168W        W61894  37.596  18.226  12.560
90169W        W61895  38.810  27.905   4.351
90170W        W61896  41.483  14.882   0.712
90171W        W61897  42.399  36.883   2.491
90172W        W61898   3.288  23.766  10.910
90173W        W61899   5.443  22.402  12.877
90174W        W61900  28.637  32.032   3.326
90175W        W61901  29.054   6.254  13.391
90176W        W61902   7.709  27.920   4.010
90177W        W61903   1.028  23.177   3.679
90178W        W61904  34.981  26.259  11.457
90179W        W61905  13.188  16.891   5.018
90180W        W61906  24.629   6.694  13.352
90181W        W61907  35.635  12.852   1.743
90182W        W61908   3.399   8.932   3.670
90183W        W61909  24.947  26.984   0.661
90184W        W61910   7.375  41.007   2.397
90185W        W61911  20.582  25.843   4.506
90186W        W61912  28.429  10.497   5.028
90187W        W61913   6.215   2.066   0.278
90188W        W61914  43.133  26.060   1.662
90189W        W61915   9.141  36.398   9.868
90190W        W61916   1.459  32.600   1.220
90191W        W61917  38.380  44.688   3.423
90192W        W61918   7.632   5.402   0.958
90193W        W61919  15.604  14.313   2.730
90194W        W61920  35.059  20.601   3.441
90195W        W61921  43.480  34.193   4.551
90196W        W61922  28.650  26.747   3.613
90197W        W61923  29.202  15.257   3.478
90198W        W61924   5.943  25.174   4.148
90199W        W61925  33.952  44.491  14.934
90200W        W61926  15.784  36.357   3.693
90201W        W61927  18.677  40.570   3.681
90202W        W61928  39.892  29.378   2.227
90203W        W61929  44.330  40.400  14.169
90204W        W61930   7.141  24.190   1.990
90205W        W61931  42.209  35.860  10.725
90206W        W61932  30.521  11.530  11.178
90207W        W61933  43.750  19.848  14.580
90208W        W61934  39.026  40.196  13.812
90209W        W61935   6.206  40.804   9.808
90210W        W61936  41.407  32.212   2.141
90211W        W61937  23.244  10.258  13.479
90212W        W61938  37.722  34.292  13.614
90213W        W61939  44.960  38.982  11.683
90214W        W61940   7.171  34.100   1.002
90215W        W61941   3.249  17.959  10.215
90216W        W61942  23.235  11.602   3.643
90217W        W61943   0.822  40.776  11.221
90218W        W61944  12.878   4.910   2.714
90219W        W61945  36.587  37.257  13.399
90220W        W61946   9.780  28.048   1.951
90221W        W61947  33.188  20.806   1.285
90222W        W61948  44.924  22.234   0.552
90223W        W61949  21.131  20.185  10.698
90224W        W61950   7.873  32.589   3.274
90225W        W61951  17.625   0.981  13.560
90226W        W61952  25.668   5.353  11.983
90227W        W61953   6.143  11.578  13.563
90228W        W61954  29.432   2.257  11.688
90229W        W61955  38.274  30.189   1.140
90230W        W61956  11.385  14.608  11.074
90231W        W61957  33.051  29.663   3.741
90232W        W61958  24.239  13.464   2.132
90233W        W61959  20.675  29.565  10.758
90234W        W61960   7.967  37.499   4.727
90235W        W61961  22.682   0.849   0.205
90236W        W61962   6.599   9.384  12.502
90237W        W61963  30.143   8.224  10.662
90238W        W61964  44.327  24.233  11.219
90239W        W61965  10.346  22.653  11.574
90240W        W61966  31.631  33.790   0.897
90241W        W61967   5.949   2.981  12.941
90242W        W61968  13.057   7.912   0.938
90243W        W61969  17.287   0.231  12.758
90244W        W61970  32.556  41.045  12.163
90245W        W61971   8.299  44.452  11.891
90246W        W61972  23.180  19.491   3.710
90247W        W61973  17.320  39.519  10.249
90248W        W61974  19.759  34.857  11.517
90249W        W61975   6.665  32.853   4.061
90250W        W61976  42.964   2.548  13.062
90251W        W61977  23.238  30.479  13.320
90252W        W61978  12.826   3.431  13.240
90253W        W61979  40.293  30.862   2.223
90254W        W61980  30.639  23.408   9.900
90255W        W61981  29.429  26.995  10.386
90256W        W61982   4.357  23.562   4.081
90257W        W61983  14.393  44.544   0.244
90258W        W61984  21.349  25.231   2.184
90259W        W61985  15.871  10.016   4.220
90260W        W61986  16.746  15.183   3.201
90261W        W61987  33.045   6.852  12.168
90262W        W61988  14.274  40.344  10.556
90263W        W61989   1.184  35.292   2.642
90264W        W61990   2.762  34.601  14.395
90265W        W61991  29.321   8.675   2.315
90266W        W61992  31.671  33.596   4.737
90267W        W61993  24.265  34.897  12.543
90268W        W61994   6.751   8.720   3.407
90269W        W61995  40.491  37.773  13.280
90270W        W61996   6.288  31.636  14.402
90271W        W61997  28.207  16.102  11.131
90272W        W61998  29.501  42.022  13.719
90273W        W61999  30.291  23.135   3.303
90274W        W62000  23.193  38.119   4.917
90275W        W62001   3.024   8.332  12.448
90276W        W62002  15.654  18.080   2.776
90277W        W62003  39.333  28.442  13.364
90278W        W62004   7.898  30.531   0.473
90279W        W62005  24.504  30.119  11.769
90280W        W62006  18.908   8.967  14.494
90281W        W62007  35.922  24.772   1.379
90282W        W62008  44.220  14.807  14.463
90283W        W62009  19.171  40.048   3.125
90284W        W62010  44.290   0.895  13.013
90285W        W62011  25.939   8.794  14.944
90286W        W62012  36.399  30.573   1.714
90287W        W62013  18.539  42.398  14.876
90288W        W62014  30.467  18.451  13.160
90289W        W62015  25.161   6.665   2.711
90290W        W62016   4.173   2.237   0.750
90291W        W62017  44.513  17.451  13.380
90292W        W62018   9.151   5.720   3.147
90293W        W62019   9.117  36.865  11.001
90294W        W62020  33.189  39.108   3.500
90295W        W62021   2.430  32.081   3.723
90296W        W62022  31.796   6.258   4.150
90297W        W62023  40.469  12.006   1.899
90298W        W62024  18.583  35.272  12.826
90299W        W62025  19.875  29.167  11.040
90300W        W62026   8.239  29.095   3.068
90301W        W62027  24.170  37.355   0.501
90302W        W62028  43.445  28.034   1.986
90303W        W62029  18.966  36.121   2.132
90304W        W62030   6.665   6.231   3.250
90305W        W62031  11.575  14.868   4.824
90306W        W62032  36.984  16.833  10.475
90307W        W62033  41.035  29.178   2.801
90308W        W62034  35.537   0.543   1.860
90309W        W62035   6.437   9.806  10.460
90310W        W62036  14.375   2.745  14.428
90311W        W62037  11.556  18.191   4.261
90312W        W62038  43.261  44.236   2.060
90313W        W62039  33.386   4.722  13.520
90314W        W62040   6.989  13.971  12.755
90315W        W62041  18.270  14.672  12.023
90316W        W62042  14.508  37.476   1.752
90317W        W62043  32.983  41.438   1.378
90318W        W62044  25.954  41.031  10.687
90319W        W62045  11.291  23.667   4.559
90320W        W62046   3.242  23.084   3.334
90321W        W62047  41.124  27.291   0.096
90322W        W62048  42.942  20.783  11.360
90323W        W62049  15.521  44.445   4.179
90324W        W62050  18.607  11.609  11.586
90325W        W62051   2.091  33.100   1.832
90326W        W62052  13.566   8.949  12.448
90327W        W62053  37.453   7.461  12.118
90328W        W62054  33.577  19.797  14.320
90329W        W62055  12.867  29.103  14.042
90330W        W62056  38.745  19.769   1.877
90331W        W62057  36.414  29.934   0.822
90332W        W62058  39.731   0.645  11.739
90333W        W62059  36.370  44.981   3.793
90334W        W62060  27.129  38.628  12.132
90335W        W62061  18.266  29.221  11.103
90336W        W62062  26.483   9.731  14.240
90337W        W62063  28.100  20.768  12.882
90338W        W62064  36.379   3.329  12.889
90339W        W62065   5.441   2.223   2.756
90340W        W62066  32.443   6.931  13.704
90341W        W62067   5.582  28.538   0.323
90342W        W62068   3.745  19.132  13.939
90343W        W62069  24.156   9.431   0.487
90344W        W62070  43.324  42.990  12.387
90345W        W62071  38.878  32.560   1.256
90346W        W62072  22.296  39.384   3.123
90347W        W62073  19.056  44.998   0.258
90348W        W62074  24.491  26.895   4.620
90349W        W62075  34.567  36.273   0.232
90350W        W62076  20.928  35.622   0.162
90351W        W62077  18.322   9.755  11.370
90352W        W62078  20.055  34.550  13.167
90353W        W62079   6.379  30.672   2.266
90354W        W62080   4.715  27.906  11.122
90355W        W62081  18.672  23.694  12.402
90356W        W62082  30.196  40.267  11.593
90357W        W62083   2.984  35.829  12.869
90358W        W62084  34.497  19.482   4.783
90359W        W62085  40.016  16.270  14.039
90360W        W62086  34.896  29.689  12.123
90361W        W62087  29.138  16.291  14.301
90362W        W62088  23.282   0.963   2.700
90363W        W62089  19.769  36.093  10.846
90364W        W62090   1.302  29.502   4.076
90365W        W62091  42.389   3.152   3.299
90366W        W62092  37.482  34.362   0.417
90367W        W62093   9.778  20.436  13.486
90368W        W62094  41.855   1.769  10.685
90369W        W62095  44.691  44.399   1.507
90370W        W62096  14.192   3.927  12.172
90371W        W62097  42.350  17.737   1.804
90372W        W62098  11.650  38.139   1.341
90373W        W62099  27.158  30.105  13.740
90374W        W62100   2.208  17.320   3.691
90375W        W62101  13.584  35.845  11.652
90376W        W62102  27.970   8.916  13.913
90377W        W62103   7.624  35.896  10.617
90378W        W62104  28.912  18.405   4.172
90379W        W62105  44.864   7.743   4.407
90380W        W62106  23.285   0.856  11.027
90381W        W62107  40.356  23.682   3.202
90382W        W62108  26.117  18.774   4.646
90383W        W62109  10.349  21.310  13.920
90384W        W62110  41.619  34.476  10.699
90385W        W62111  39.494  35.922  10.444
90386W        W62112  11.600  31.912  10.171
90387W        W62113  18.010  35.551  14.141
90388W        W62114   9.141  19.263  10.865
90389W        W62115  14.355  41.906   1.992
90390W        W62116   6.702  15.729   4.963
90391W        W62117   8.848  35.841   1.858
90392W        W62118   3.456  12.376  13.885
90393W        W62119  43.095   2.670   3.260
90394W        W62120  14.576  18.309  13.328
90395W        W62121   3.285  11.296  14.077
90396W        W62122   1.967  29.068   4.550
90397W        W62123  38.038  31.117   0.422
90398W        W62124  24.147  24.225   4.025
90399W        W62125  37.061  32.016   2.579
90400W        W62126   6.151   3.470   0.453
90401W        W62127  42.859   1.389   4.349
90402W        W62128  40.962  35.171  11.093
90403W        W62129   5.991   6.288  12.250
90404W        W62130  30.359  16.781   4.076
90405W        W62131   3.134  22.735   1.784
90406W        W62132  11.373  25.609  13.338
90407W        W62133   8.912  43.989   4.117
90408W        W62134  33.505  38.154   0.315
90409W        W62135  29.635  43.832  10.925
90410W        W62136   1.404  22.511   0.882
90411W        W62137   9.194  22.777  12.852
90412W        W62138  36.786   4.455  11.071
90413W        W62139  34.546  17.636  13.028
90414W        W62140  30.736   5.975  12.501
90415W        W62141  30.489   3.398   4.601
90416W        W62142   5.462  25.359  14.504
90417W        W62143  17.278   3.730   1.836
90418W        W62144  17.623  44.321  10.650
90419W        W62145  31.906   4.467  13.970
90420W        W62146  24.014  42.502   3.147
90421W        W62147  42.696  34.179   1.732
90422W        W62148   7.222  17.194  12.459
90423W        W62149  29.632  21.691  10.431
90424W        W62150  24.336  10.672  13.938
90425W        W62151   6.411  38.353  11.200
90426W        W62152   6.243  34.120  13.281
90427W        W62153   8.696   4.869   4.234
90428W        W62154  27.186  32.267   3.130
90429W        W62155   4.515  15.213   4.817
90430W        W62156  22.939   7.536   0.473
90431W        W62157  34.891  42.300  14.814
90432W        W62158  16.112  34.057  13.745
90433W        W62159   3.308  19.302  10.783
90434W        W62160  23.021  22.753  11.515
90435W        W62161  10.668  33.378   2.335
90436W        W62162  25.884  11.896  11.951
90437W        W62163  35.147  14.793   2.857
90438W        W62164  18.519  34.487  12.605
90439W        W62165  36.450   6.156   4.057
90440W        W62166   7.127  13.253   3.974
90441W        W62167  26.989   8.255  13.805
90442W        W62168   5.223  24.052   0.359
90443W        W62169  17.966  15.481   1.265
90444W        W62170   8.174  35.319   5.055
90445W        W62171   1.963   3.491   5.089
90446W        W62172  17.227   6.903   2.800
90447W        W62173  44.211  35.037  10.792
90448W        W62174  36.829  15.123  10.640
90449W        W62175  26.101  17.045  14.894
90450W        W62176  15.774   2.299  12.804
90451W        W62177  29.320  38.158   1.833
90452W        W62178  26.781   8.516   3.793
90453W        W62179   3.294  38.337  14.004
90454W        W62180   0.892  42.265  13.479
90455W        W62181   8.234   6.023   9.766
90456W        W62182  43.280  38.315  14.813
90457W        W62183  23.462  44.489   1.880
90458W        W62184  18.649  10.066  11.654
90459W        W62185  27.510  33.114   3.131
90460W        W62186  38.496  31.438  13.415
90461W        W62187  32.419  36.102   2.395
90462W        W62188  25.244   1.499   4.194
90463W        W62189  18.639  39.371   0.460
90464W        W62190  30.531   3.841  14.923
90465W        W62191  43.855  30.474   1.476
90466W        W62192  23.653   7.465  14.040
90467W        W62193   5.279   0.527  14.584
90468W        W62194  33.027  32.589  13.945
90469W        W62195   1.152  15.663   2.313
90470W        W62196  21.098  11.159  14.042
90471W        W62197   0.036  24.026  13.486
90472W        W62198  13.110   3.449   0.354
90473W        W62199  32.645  44.983   4.614
90474W        W62200  27.321   9.400   4.116
90475W        W62201   0.745  33.087   1.220
90476W        W62202   1.017  25.260   2.966
90477W        W62203  42.820  20.093   4.655
90478W        W62204   4.962  34.432  10.254
90479W        W62205  44.140  26.378   0.254
90480W        W62206  11.200  33.486  11.872
90481W        W62207  36.958  37.917  14.940
90482W        W62208  19.487  28.446   3.165
90483W        W62209  28.478  41.430  10.511
90484W        W62210  17.139  13.383   1.893
90485W        W62211  42.882  22.188   3.262
90486W        W62212  37.453  34.551  12.021
90487W        W62213  21.299  22.000   1.431
90488W        W62214   5.606  41.526  11.791
90489W        W62215  33.996   8.222  12.477
90490W        W62216   7.237   2.128  13.075
90491W        W62217  24.651  16.745   3.758
90492W        W62218  38.908  31.576  10.469
90493W        W62219  16.848  12.599  14.790
90494W        W62220  11.885  16.494  12.461
90495W        W62221   8.640   5.985   4.183
90496W        W62222  12.782  26.206   4.034
90497W        W62223  17.172   5.646   1.822
90498W        W62224  27.196  31.563   5.019
90499W        W62225  38.183  15.076   4.017
90500W        W62226  18.783  25.711   2.818
90501W        W62227  20.864   1.889   4.607
90502W        W62228  27.481  38.562  10.916
90503W        W62229   6.177  43.704   2.623
90504W        W62230  44.527  32.046   3.633
90505W        W62231   2.186   6.112  13.303
90506W        W62232  21.611  28.215   0.327
90507W        W62233  12.990  37.061   1.123
90508W        W62234  40.782  20.000  12.974
90509W        W62235  20.262  34.430  10.395
90510W        W62236  37.943  41.902  12.474
90511W        W62237  34.380  12.192   2.406
90512W        W62238  12.889  37.837   4.934
90513W        W62239  10.710  18.708   0.302
90514W        W62240  40.625   0.230  12.522
90515W        W62241   0.665  26.460   3.304
90516W        W62242  25.975  43.368  12.863
90517W        W62243  38.858  13.306   2.870
90518W        W62244  27.595   1.501   3.696
90519W        W62245  13.850   0.260   4.359
90520W        W62246  37.984  21.640  10.666
90521W        W62247   0.570  19.666   4.600
90522W        W62248  20.513  35.173   1.866
90523W        W62249  33.814  38.306   4.189
90524W        W62250   3.967   3.769   0.826
90525W        W62251  23.538  33.051  11.101
90526W        W62252  26.572   7.969   1.426
90527W        W62253  13.226  43.904  11.048
90528W        W62254   1.868  18.873   0.741
90529W        W62255  35.376  24.067  12.559
90530W        W62256   3.472  30.482   2.179
90531W        W62257  20.736  13.885  12.550
90532W        W62258  10.687  18.038   0.913
90533W        W62259  28.208  10.653   2.789
90534W        W62260  21.348  18.763   1.116
90535W        W62261   9.603  11.709  11.652
90536W        W62262  27.488  19.986  10.750
90537W        W62263  16.808  11.800  13.916
90538W        W62264  21.210  33.542   4.140
90539W        W62265  36.634   6.283   1.110
90540W        W62266   7.115   9.258   4.132
90541W        W62267  15.564  30.012   5.104
90542W        W62268  37.303  38.279  12.148
90543W        W62269   1.179  39.042  10.696
90544W        W62270  18.378  19.700  13.701
90545W        W62271  10.702  33.218   1.060
90546W        W62272  29.255  40.471   4.184
90547W        W62273  20.997   2.833   2.176
90548W        W62274  31.581  15.064  14.336
90549W        W62275  23.691  34.986   4.228
90550W        W62276  12.519   0.710   4.192
90551W        W62277  33.942   1.760  10.640
90552W        W62278  17.836  32.380   4.118
90553W        W62279  40.259  22.647  12.497
90554W        W62280  14.783  17.738   0.876
90555W        W62281  25.522  25.607  10.774
90556W        W62282  44.774  29.987  12.145
90557W        W62283  24.644   2.768  12.728
90558W        W62284   7.702   2.852   2.822
90559W        W62285   9.211  25.140   0.265
90560W        W62286   9.642   9.909   2.770
90561W        W62287  21.106  32.755   0.393
90562W        W62288  38.818  25.955  12.461
90563W        W62289   7.317  42.391   0.736
90564W        W62290  41.844  24.306  14.511
90565W        W62291   7.727  44.069  10.237
90566W        W62292  36.445  27.974  13.105
90567W        W62293   6.315  30.077  10.697
90568W        W62294  12.967  19.512  10.633
90569W        W62295  24.549  29.523  10.670
90570W        W62296  30.460   6.754   4.864
90571W        W62297   8.874   4.802  11.516
90572W        W62298  35.315  28.388  14.945
90573W        W62299  20.169  16.214   3.447
90574W        W62300  19.599  23.555  14.253
90575W        W62301  28.594  16.016   0.557
90576W        W62302  29.507  42.041  13.200
90577W        W62303  35.326  28.207  14.426
90578W        W62304   4.885  13.145   3.199
90579W        W62305  44.062  42.774  14.085
90580W        W62306  13.358   4.288  14.355
90581W        W62307  41.807  21.310  12.632
90582W        W62308  10.246  15.609   2.993
90583W        W62309  29.812  31.331  13.547
90584W        W62310  29.295  26.356   4.290
90585W        W62311  34.504   1.688  12.234
90586W        W62312  27.830  31.602   0.698
90587W        W62313  14.648  25.670   3.773
90588W        W62314   6.792  10.513  11.915
90589W        W62315  23.013   9.410  12.552
90590W        W62316  40.106  24.111  13.400
90591W        W62317  18.099  39.430   4.861
90592W        W62318   1.150  19.699  11.794
90593W        W62319  33.262  20.514   0.836
90594W        W62320  19.713  43.058  13.050
90595W        W62321  38.036   8.865   1.430
90596W        W62322  14.245   0.940   0.436
90597W        W62323   1.432  25.133  14.867
90598W        W62324  42.907  12.358  10.590
90599W        W62325  38.464  13.549  11.909
90600W        W62326  19.642  19.479   3.532
90601W        W62327   0.288  23.596   2.257
90602W        W62328   2.125  15.852  10.367
90603W        W62329  27.846  24.219   4.351
90604W        W62330  29.498   3.709   1.393
90605W        W62331  27.421   2.380   0.728
90606W        W62332   9.433   1.499   4.186
90607W        W62333  44.394  30.168   1.401
90608W        W62334   5.290   9.846   3.165
90609W        W62335  17.628  19.021   2.482
90610W        W62336  21.152  26.717  12.772
90611W        W62337   0.286   5.253   1.709
90612W        W62338  37.817   6.173   4.149
90613W        W62339  40.985  36.625  12.194
90614W        W62340  11.912  15.818   1.039
90615W        W62341   1.996  36.929  12.039
90616W        W62342  21.703  42.347   2.643
90617W        W62343   5.964  19.483   4.834
90618W        W62344  44.526  42.066  14.967
90619W        W62345  31.609  36.512   3.546
90620W        W62346  29.584  34.833  12.013
90621W        W62347  41.417  12.819   3.029
90622W        W62348  29.068   6.757  13.460
90623W        W62349  25.678  39.013   1.809
90624W        W62350   9.705  14.078  10.664
90625W        W62351   9.213  40.399  12.851
90626W        W62352   8.451  25.326   5.054
90627W        W62353  26.241   1.272  12.942
90628W        W62354  20.713  13.616   2.568
90629W        W62355  40.563   2.095  11.166
90630W        W62356   3.983  28.130  13.578
90631W        W62357  27.117   7.721   3.621
90632W        W62358  23.556  11.888  12.828
90633W        W62359  27.231   2.424   4.654
90634W        W62360  19.048  16.227  12.436
90635W        W62361  16.264  36.000  14.319
90636W        W62362  34.328  30.552   1.500
90637W        W62363  39.583  19.257  13.323
90638W        W62364  31.180  34.125  11.879
90639W        W62365   7.646  17.781   1.376
90640W        W62366  41.393  43.630  10.567
90641W        W62367  16.570   1.257  11.949
90642W        W62368  21.698   5.442  14.422
90643W        W62369  24.546  39.517   1.045
90644W        W62370   8.206  25.392  10.897
90645W        W62371   8.061   1.729   4.498
90646W        W62372  11.856  17.132  12.464
90647W        W62373  16.118  39.576   1.845
90648W        W62374   4.790   4.248   0.525
90649W        W62375  21.752  27.042  11.447
90650W        W62376   0.391  41.374   2.956
90651W        W62377  13.131  27.529   1.654
90652W        W62378  28.010   7.727  11.061
90653W        W62379  30.143  18.094  11.651
90654W        W62380   8.347  29.058   3.574
90655W        W62381  13.353  16.346  11.214
90656W        W62382  28.228  20.094   0.737
90657W        W62383  23.673  42.196  13.945
90658W        W62384  24.611   3.210   3.154
90659W        W62385  13.858  39.261  12.998
90660W        W62386  36.988  41.563   0.734
90661W        W62387  43.284  27.550   0.774
90662W        W62388  34.408  36.155  13.065
90663W        W62389  39.319   7.319   3.774
90664W        W62390  11.158  15.399  13.412
90665W        W62391  33.856  35.427   3.180
90666W        W62392  36.983   8.155   0.893
90667W        W62393  41.599  22.122   3.845
90668W        W62394  33.362  39.100  12.427
90669W        W62395  22.820  27.877  11.545
90670W        W62396  39.451  43.883   2.387
90671W        W62397  22.843  19.005   2.184
90672W        W62398   2.780  15.501  10.265
90673W        W62399  25.138  40.553   3.647
90674W        W62400   7.829  39.139  10.731
90675W        W62401  24.912  40.426  14.302
90676W        W62402  27.941  15.444  13.560
90677W        W62403  38.580  28.933   0.707
90678W        W62404  30.203  31.571  13.838
90679W        W62405  39.013  33.243  12.495
90680W        W62406   1.906  34.873  12.778
90681W        W62407  37.020  36.882   3.320
90682W        W62408  39.395  31.830   5.119
90683W        W62409  36.721  44.030   0.051
90684W        W62410  39.115  32.110   1.320
90685W        W62411   3.802  37.075   3.004
90686W        W62412  39.705  17.555   3.367
90687W        W62413  39.939  12.726  13.652
90688W        W62414  19.704  12.761  14.037
90689W        W62415   7.326  12.823   1.796
90690W        W62416  25.152  22.085  13.361
90691W        W62417  36.304   7.024  14.241
90692W        W62418  37.399  35.981  14.878
90693W        W62419  32.573  34.956  11.266
90694W        W62420  18.647  23.584   2.662
90695W        W62421   9.186  29.934   0.447
90696W        W62422  28.748  10.632   2.807
90697W        W62423  34.166  16.626   3.653
90698W        W62424  31.625   5.505   3.596
90699W        W62425  28.430  43.306   1.404
90700W        W62426  33.407  44.557   1.580
90701W        W62427  35.528  28.515   3.441
90702W        W62428   9.556   5.622  12.013
90703W        W62429   6.132  19.395   4.353
90704W        W62430  13.655  21.236  14.867
90705W        W62431  35.498  44.990   1.869
90706W        W62432   5.289  36.615  11.558
90707W        W62433  36.927  16.899  11.017
90708W        W62434  41.327  15.321   4.227
90709W        W62435  37.521  22.342   2.756
90710W        W62436  26.811  21.646   1.680
90711W        W62437  15.417  27.623  11.132
90712W        W62438  13.576  26.791   4.882
90713W        W62439  22.735  26.604  11.071
90714W        W62440  34.941  16.863  13.909
90715W        W62441  18.984   8.809   0.450
90716W        W62442  32.311  30.084  14.472
90717W        W62443  38.864  31.452   2.842
90718W        W62444  31.054  21.818  13.072
90719W        W62445  21.307   0.571   3.999
90720W        W62446  16.154  20.608   1.822
90721W        W62447  38.581  42.445  12.776
90722W        W62448   5.126  35.856  14.050
90723W        W62449  33.533  40.300  14.797
90724W        W62450  23.789  37.693   1.493
90725W        W62451   7.182  11.890   1.729
90726W        W62452   2.187   5.771  10.572
90727W        W62453  21.118  25.500  14.734
90728W        W62454  27.061   7.973   1.237
90729W        W62455  20.270  17.179   4.691
90730W        W62456   7.476  24.537  13.339
90731W        W62457  10.762  36.956  12.454
90732W        W62458  43.021  34.475   0.279
90733W        W62459  27.568  43.907   2.741
90734W        W62460  20.454   5.911   0.770
90735W        W62461  39.571  21.231  12.492
90736W        W62462   3.993  38.569  11.516
90737W        W62463  42.955  15.712   0.238
90738W        W62464  22.434  11.062   5.055
90739W        W62465  19.737  37.690   2.202
90740W        W62466  13.020  35.602  13.613
90741W        W62467   7.842  10.625   1.490
90742W        W62468  16.648  41.106   0.474
90743W        W62469  33.855  33.797   4.124
90744W        W62470   6.326  28.569  11.867
90745W        W62471   6.909   3.970  14.941
90746W        W62472  32.962  39.096   0.013
90747W        W62473  25.152   2.966  11.425
90748W        W62474  41.938  28.270   1.729
90749W        W62475  19.075   1.864  14.419
90750W        W62476  32.930   8.680  10.693
90751W        W62477   0.526  17.019   1.686
90752W        W62478   7.775  29.481   2.372
90753W        W62479  14.385   0.322   2.801
90754W        W62480  10.087  25.923  13.440
90755W        W62481  30.880  25.996   2.897
90756W        W62482  34.642  40.864  12.282
90757W        W62483  22.291  40.854   0.032
90758W        W62484  19.889  17.841  13.456
90759W        W62485  11.731  21.974  13.119
90760W        W62486   2.457  33.441  11.658
90761W        W62487   7.611  42.323  12.849
90762W        W62488  40.129  19.850  12.152
90763W        W62489  25.591  43.479   1.759
90764W        W62490  39.902  17.432   4.836
90765W        W62491  21.691  28.649  14.579
90766W        W62492  18.788   4.514   3.239
90767W        W62493   2.540  42.618  10.714
90768W        W62494  34.227  39.495   1.636
90769W        W62495  37.921  12.122   1.689
90770W        W62496   9.830  44.544  14.198
90771W        W62497  38.315  33.435  12.290
90772W        W62498  29.114  33.910  12.007
90773W        W62499  13.690  13.843  13.314
90774W        W62500  26.461   0.806  14.553
90775W        W62501  21.501  30.682  11.998
90776W        W62502  37.857  16.286   4.494
90777W        W62503  42.995  42.320  14.960
90778W        W62504  17.277   5.338   2.670
90779W        W62505  32.138  18.592  11.623
90780W        W62506   2.332   2.607   1.798
90781W        W62507  25.588  39.073   0.877
90782W        W62508  13.410   0.419   2.919
90783W        W62509  18.179   1.134   0.813
90784W        W62510  40.436   5.935  12.608
90785W        W62511  42.017  36.310   1.008
90786W        W62512   9.194  29.223   3.292
90787W        W62513  10.783  14.396  12.135
90788W        W62514  16.159   7.272   4.663
90789W        W62515   4.832   1.378  14.534
90790W        W62516  30.924  26.747   4.262
90791W        W62517  43.833   8.048  11.585
90792W        W62518  13.156  15.600   0.542
90793W        W62519   9.876  35.980  11.384
90794W        W62520  18.168  39.315  10.586
90795W        W62521  32.658  44.967   5.130
90796W        W62522  13.271  35.819   4.742
90797W        W62523  15.102  29.512  14.801
90798W        W62524  16.248  23.807   3.606
90799W        W62525  28.968  34.147   0.108
90800W        W62526  32.543  15.367   4.336
90801W        W62527  39.116  18.416  13.649
90802W        W62528  39.071  23.339  11.527
90803W        W62529   5.566  15.134  12.968
90804W        W62530  14.333  23.522   2.921
90805W        W62531  33.061  35.392  13.307
90806W        W62532  20.752   1.132  12.474
90807W        W62533  10.795   0.966  12.871
90808W        W62534  21.796  29.084  12.506
90809W        W62535  25.277  30.521  12.600
90810W        W62536  33.976  31.590   4.832
90811W        W62537  36.008  42.728  11.063
90812W        W62538  17.640  20.373   2.842
90813W        W62539   8.560  35.053  12.023
90814W        W62540   3.134  30.102   1.372
90815W        W62541  40.294  19.346  12.095
90816W        W62542  42.772  20.080  12.511
90817W        W62543  38.520  31.345  14.441
90818W        W62544   0.327  33.398  13.462
90819W        W62545  11.213  24.665  10.924
90820W        W62546   6.945   0.819   4.632
90821W        W62547  17.671   6.974   0.442
90822W        W62548  41.534   5.989   1.314
90823W        W62549   0.797  14.316   3.264
90824W        W62550  12.297   4.799  13.956
90825W        W62551  11.292   8.697  13.762
90826W        W62552   7.706  38.629   2.444
90827W        W62553   6.717   9.898  14.174
90828W        W62554  23.123  30.355   2.200
90829W        W62555  23.557  25.995   3.989
90830W        W62556  32.507  25.221  11.115
90831W        W62557  39.587  21.815   0.353
90832W        W62558  38.913   0.396  11.045
90833W        W62559   8.076  43.084   2.882
90834W        W62560  24.775   0.822   2.152
90835W        W62561  14.126  33.646   0.388
90836W        W62562  38.529  31.157  13.849
90837W        W62563  38.414  43.937   0.802
90838W        W62564  14.139  33.347  13.990
90839W        W62565  19.628  16.659   1.907
90840W        W62566   2.077  25.318   0.887
90841W        W62567  25.216  43.779  14.314
90842W        W62568  17.559  29.235  10.598
90843W        W62569  28.246  16.642  14.825
90844W        W62570   1.233  33.884  11.451
90845W        W62571  17.213  32.851  11.976
90846W        W62572  17.881   9.876   2.363
90847W        W62573  31.085   2.270   4.004
90848W        W62574  20.055  20.108  11.474
90849W        W62575  32.358  15.547  13.916
90850W        W62576  36.410  37.457  12.859
90851W        W62577  29.125  37.080  14.630
90852W        W62578  44.237  35.942   0.909
90853W        W62579  26.042  38.484  12.496
90854W        W62580  17.296  20.091   3.277
90855W        W62581  24.875  22.241  14.885
90856W        W62582  15.769  44.967  14.368
90857W        W62583  15.186   7.302  14.509
90858W        W62584  22.137  19.227   2.978
90859W        W62585  32.592  14.569   0.399
90860W        W62586   9.742  37.937   0.344
90861W        W62587  10.656  39.988  12.914
90862W        W62588  12.150  15.692   1.726
90863W        W62589  20.063  20.334   4.657
90864W        W62590  10.171  26.442   3.213
90865W        W62591  21.283  34.639   3.126
90866W        W62592  11.069  17.712  11.571
90867W        W62593  43.243  32.402  10.160
90868W        W62594  25.979  12.118   3.861
90869W        W62595  36.806  21.696   2.210
90870W        W62596   3.515  34.131   1.413
90871W        W62597  14.528  38.758  13.962
90872W        W62598  32.705  24.222  11.128
90873W        W62599  20.402  39.912   1.565
90874W        W62600   7.632  34.054  11.292
90875W        W62601  36.376  35.018   1.838
90876W        W62602  35.468  27.978   1.734
90877W        W62603  16.636  41.559  14.022
90878W        W62604  39.968  23.334  14.691
90879W        W62605  41.861  35.663   4.942
90880W        W62606  13.096   7.579   1.876
90881W        W62607   9.367   1.725   3.310
90882W        W62608  27.582   8.823  14.246
90883W        W62609  40.552  42.501   0.014
90884W        W62610  11.298  36.424   2.774
90885W        W62611  42.350  24.471  10.698
90886W        W62612  42.095  21.598  11.955
90887W        W62613  38.938  13.650  11.715
90888W        W62614  30.359  15.944  11.308
90889W        W62615   4.646   1.542  11.173
90890W        W62616  28.680  16.401  14.564
90891W        W62617   6.354  40.141  14.460
90892W        W62618   6.844  32.903   4.558
90893W        W62619  10.753  20.016  13.773
90894W        W62620   7.923  28.166   0.874
90895W        W62621  34.857  22.554   3.241
90896W        W62622  21.792   5.814   3.983
90897W        W62623  17.439   3.491   2.844
90898W        W62624  41.706  13.218  11.159
90899W        W62625  21.065  20.256  14.696
90900W        W62626   3.892  17.215   3.420
90901W        W62627   1.010  18.285   1.817
90902W        W62628   1.880   2.104  13.181
90903W        W62629   6.443   7.269   5.065
90904W        W62630  36.617   6.492  12.155
90905W        W62631   6.128  38.291   0.390
90906W        W62632  44.483  24.071  13.435
90907W        W62633  40.283  32.871  12.952
90908W        W62634  30.076  24.523  12.018
90909W        W62635  26.494  43.624   3.786
90910W        W62636  24.008  34.585   0.809
90911W        W62637  16.351  35.429   1.393
90912W        W62638  33.654  41.456  12.920
90913W        W62639  22.363  40.808   3.797
90914W        W62640  32.866   0.915   1.692
90915W        W62641  44.459  36.749   3.174
90916W        W62642  29.525  25.685  10.209
90917W        W62643  21.802  42.863   4.597
90918W        W62644  29.498  19.765  13.077
90919W        W62645  42.832  27.443  14.754
90920W        W62646  38.006   9.148   4.147
90921W        W62647  15.681   0.985   3.075
90922W        W62648  24.092  26.213  12.492
90923W        W62649  36.896  12.456   4.587
90924W        W62650   2.783   3.310  13.114
90925W        W62651  29.505  12.577  12.967
90926W        W62652   8.110   0.848  12.014
90927W        W62653   0.098  37.211  11.947
90928W        W62654  29.556  30.864  10.749
90929W        W62655  18.076  35.882  13.093
90930W        W62656  42.967  21.170  10.540
90931W        W62657  32.132  32.494   2.246
90932W        W62658  41.469   7.823   4.686
90933W        W62659  15.501  34.377  13.464
90934W        W62660  34.676   8.042  12.897
90935W        W62661  32.028  38.257  10.172
90936W        W62662  12.117   8.858   4.668
90937W        W62663   0.837  25.974  14.535
90938W        W62664   4.342   1.524   1.308
90939W        W62665  15.734  23.002   4.525
90940W        W62666   4.218  25.929   4.841
90941W        W62667  44.322  44.051  14.821
90942W        W62668  22.960  44.809   2.162
90943W        W62669  41.424   0.114   4.081
90944W        W62670  38.838  10.798  13.374
90945W        W62671  10.034  15.522   3.442
90946W        W62672  32.305  32.911  10.518
90947W        W62673  38.072  12.447  13.277
90948W        W62674  25.416  30.973   4.081
90949W        W62675  10.340  34.494   0.367
90950W        W62676  41.199  43.489  14.090
90951W        W62677  16.222  28.007   1.260
90952W        W62678  10.123  22.973   1.868
90953W        W62679  36.118  20.059  11.023
90954W        W62680  25.195  39.587   2.529
90955W        W62681  24.535   3.053   4.958
90956W        W62682  38.493  18.028   1.867
90957W        W62683   3.443  35.783  14.853
90958W        W62684  17.345  20.381  14.284
90959W        W62685   4.775  20.798  11.126
90960W        W62686  22.639  38.868  13.109
90961W        W62687  28.254  44.951   3.296
90962W        W62688  16.305  22.092  10.826
90963W        W62689   8.224  25.062   0.316
90964W        W62690  22.415   3.987   4.613
90965W        W62691  33.517  28.155   0.361
90966W        W62692  35.581   6.353  11.591
90967W        W62693  38.316   1.543   1.438
90968W        W62694  31.676  36.178   2.191
90969W        W62695  39.316   9.136  14.848
90970W        W62696  21.048  23.142  10.774
90971W        W62697   9.424  31.567  12.020
90972W        W62698  37.095  20.173   3.252
90973W        W62699  20.688  33.569   4.383
90974W        W62700  41.549  34.326  13.021
90975W        W62701   5.166  36.963   4.226
90976W        W62702  18.183  41.040   2.903
90977W        W62703  40.553  17.359  13.811
90978W        W62704  27.610  26.550   2.744
90979W        W62705  29.135  23.009   4.103
90980W        W62706  32.012  25.163  10.353
90981W        W62707  44.894   8.203  12.478
90982W        W62708  17.704   0.949  14.958
90983W        W62709  41.366  33.416   4.079
90984W        W62710  11.794  33.585  14.916
90985W        W62711  41.737   4.868  14.904
90986W        W62712   1.571   9.514  14.604
90987W        W62713  13.879  34.076   4.584
90988W        W62714  36.421  39.499   1.773
90989W        W62715  11.669  36.091   3.547
90990W        W62716   1.822  27.953  11.451
90991W        W62717  37.820  23.380  13.789
90992W        W62718   2.024   5.021   4.236
90993W        W62719  25.636  20.260   2.303
90994W        W62720  13.679   4.867  10.704
90995W        W62721  11.138  33.023  11.660
90996W        W62722  14.826  37.995   4.124
90997W        W62723  37.315  33.904  13.580
90998W        W62724  44.853  34.395   3.272
90999W        W62725   5.873  37.641   3.617
91000W        W62726  16.878  31.291   4.345
91001W        W62727  18.736  20.690  11.118
91002W        W62728  24.668  25.902   1.788
91003W        W62729  42.957  22.643  13.390
91004W        W62730  25.643  34.618   4.240
91005W        W62731  31.115  30.308   5.047
91006W        W62732   5.948  42.235   1.254
91007W        W62733  10.390   7.551   1.704
91008W        W62734  29.499  40.267  14.226
91009W        W62735  10.437  20.035  14.592
91010W        W62736  26.991   1.408   4.656
91011W        W62737  23.732  40.448  13.878
91012W        W62738  34.992   3.306   4.998
91013W        W62739  19.021  17.333  11.410
91014W        W62740  41.490  17.181   4.240
91015W        W62741   7.378  14.657  13.288
91016W        W62742  31.916  42.449  14.978
91017W        W62743   1.932  11.145   0.465
91018W        W62744  33.111  34.863   4.241
91019W        W62745  29.997   4.183  12.283
91020W        W62746  18.112  35.412   3.920
91021W        W62747  18.615  15.212   2.823
91022W        W62748   1.561   0.689   0.696
91023W        W62749  22.285  10.817  10.981
91024W        W62750  11.101  23.547  13.392
91025W        W62751  23.159  34.873  13.800
91026W        W62752  20.996  30.176  11.130
91027W        W62753  38.917   5.043   2.715
91028W        W62754  28.059  29.407   4.511
91029W        W62755  42.097   9.281   4.008
91030W        W62756   7.804  40.079   3.250
91031W        W62757   2.955  19.142   0.509
91032W        W62758  34.907  31.896   4.077
91033W        W62759  39.330  35.840  11.439
91034W        W62760  13.862  24.956   3.608
91035W        W62761  22.782   2.018  11.173
91036W        W62762  34.021   0.958  11.937
91037W        W62763  41.340  35.517   0.719
91038W        W62764  41.666  37.352   9.936
91039W        W62765   0.520   3.799  13.155
91040W        W62766  43.976  41.070   1.281
91041W        W62767  35.518  16.598  10.649
91042W        W62768  34.563  38.133  12.091
91043W        W62769  31.050  33.118  11.071
91044W        W62770   8.951  31.078   4.833
91045W        W62771  16.484   4.256  12.563
91046W        W62772   9.246  41.544   0.867
91047W        W62773  30.565  43.725  12.006
91048W        W62774  16.245  42.286  12.524
91049W        W62775  13.555  41.946   4.417
91050W        W62776  26.511  27.968  11.585
91051W        W62777  21.246  36.774   0.491
91052W        W62778  35.862  31.138  11.548
91053W        W62779  38.829  40.763   2.275
91054W        W62780  24.234  15.671  13.846
91055W        W62781   1.715  22.138  10.631
91056W        W62782  40.070  25.967   3.020
91057W        W62783   3.142   9.141   1.254
91058W        W62784  43.491  30.431   1.114
91059W        W62785  15.465   5.683   2.674
91060W        W62786  23.255  34.626   2.481
91061W        W62787  14.743  25.705  12.959
91062W        W62788  28.933   2.005   1.682
91063W        W62789  41.100  28.391   1.192
91064W        W62790  27.432   1.374   0.865
91065W        W62791  17.511   0.428   2.268
91066W        W62792  24.953  38.929   2.318
91067W        W62793  27.617  13.183   2.751
91068W        W62794  31.891  43.877   4.655
91069W        W62795  16.474  12.813   0.701
91070W        W62796  43.824  42.767  12.550
91071W        W62797  43.560   6.775   2.679
91072W        W62798   9.192  40.272   4.606
91073W        W62799  35.472  43.519  11.426
91074W        W62800  15.832  44.689   0.964
91075W        W62801  17.771  34.880  11.582
91076W        W62802  26.665  27.155   4.573
91077W        W62803  26.316  28.607   1.275
91078W        W62804  13.308  15.937  14.040
91079W        W62805  26.990   4.281   4.947
91080W        W62806   3.073  34.466  11.447
91081W        W62807   4.206  29.818   4.721
91082W        W62808  19.290  26.194  14.325
91083W        W62809   6.709  22.795  13.780
91084W        W62810  21.566   9.267   2.367
91085W        W62811   3.084  18.495  11.063
91086W        W62812  30.543   0.399   2.824
91087W        W62813  36.372  26.426  13.023
91088W        W62814  24.885   4.180  11.941
91089W        W62815  16.760  41.490   3.846
91090W        W62816  30.903  15.185   4.024
91091W        W62817  16.581  33.122  12.876
91092W        W62818  30.130  23.170   1.752
91093W        W62819  13.909   4.922   2.620
91094W        W62820  21.483   4.406   1.862
91095W        W62821  18.736  15.693  12.397
91096W        W62822  17.330  44.728  11.087
91097W        W62823  43.577  16.139   2.970
91098W        W62824  29.056   0.988   1.773
91099W        W62825  42.650  31.126  14.183
91100W        W62826  44.905  14.072   3.663
91101W        W62827   8.450   4.540   2.791
91102W        W62828  14.051  14.154   2.678
91103W        W62829  15.665  38.521  12.569
91104W        W62830  32.109  10.246  13.025
91105W        W62831   4.782  27.508   1.383
91106W        W62832  41.918  44.449  12.195
91107W        W62833   2.120   7.233   4.761
91108W        W62834  39.939   0.376  14.209
91109W        W62835  30.342  26.011  10.202
91110W        W62836   8.292  12.345   0.387
91111W        W62837  12.150   2.804   4.621
91112W        W62838   3.849  13.825   1.355
91113W        W62839  23.799  18.090  14.780
91114W        W62840  22.266  28.190  12.322
91115W        W62841   1.820   8.756   3.501
91116W        W62842   0.821  15.113   2.742
91117W        W62843   7.353  38.490   1.730
91118W        W62844   9.879  25.624   4.074
91119W        W62845  13.793  41.482   3.704
91120W        W62846  28.997   4.213  11.984
91121W        W62847  11.841  32.489   4.409
91122W        W62848   8.423  36.209   4.185
91123W        W62849  40.444  33.380  11.494
91124W        W62850  32.039  36.745  10.525
91125W        W62851   9.687  42.555   2.685
91126W        W62852  21.442  32.471   0.835
91127W        W62853  24.580  42.861  13.005
91128W        W62854  25.475  39.882  14.562
91129W        W62855   9.329  22.098   1.691
91130W        W62856   8.752  34.575  12.053
91131W        W62857  21.470  42.909  10.788
91132W        W62858  39.235   2.401  10.475
91133W        W62859   3.164  26.041   0.261
91134W        W62860   7.641  32.876   1.880
91135W        W62861   5.155  30.026   4.656
91136W        W62862   7.336   7.346  14.395
91137W        W62863  21.974  10.372  13.080
91138W        W62864  39.120  43.340  12.928
91139W        W62865  44.081  16.735  11.099
91140W        W62866   0.181   3.384   1.439
91141W        W62867   8.798  25.724  11.649
91142W        W62868  31.155  30.532  14.062
91143W        W62869  26.601  29.656   0.742
91144W        W62870  33.982  42.365   2.411
91145W        W62871  35.429   1.579   4.579
91146W        W62872   7.213  15.568   5.087
91147W        W62873  21.539  37.038  11.845
91148W        W62874  40.086  12.559   9.698
91149W        W62875  33.532  15.315   4.673
91150W        W62876  19.783  12.264  13.894
91151W        W62877  39.960  32.985  14.959
91152W        W62878  40.548  11.534   3.667
91153W        W62879  21.282  35.188  11.128
91154W        W62880  44.343  32.137   0.742
91155W        W62881  41.504  20.627   4.077
91156W        W62882   7.246  28.247  14.240
91157W        W62883  23.433  29.958   2.256
91158W        W62884  27.034  28.680   4.131
91159W        W62885  40.004  21.819  14.459
91160W        W62886   2.367  25.182  11.581
91161W        W62887  30.835  22.183   4.172
91162W        W62888  38.339   4.625  14.353
91163W        W62889   8.049  30.234   0.887
91164W        W62890   8.772  29.688   1.740
91165W        W62891  16.107  24.649   3.815
91166W        W62892  14.653   0.950   4.145
91167W        W62893  28.568  33.134  13.941
91168W        W62894  19.765  34.475   1.523
91169W        W62895  13.723  33.255  13.645
91170W        W62896   1.241  15.905   3.809
91171W        W62897   0.491  16.663   0.759
91172W        W62898   2.730  19.209  14.976
91173W        W62899  39.551  41.291  12.017
91174W        W62900  35.770  13.623   2.773
91175W        W62901  38.405  41.405   3.593
91176W        W62902   0.897  28.245   0.303
91177W        W62903  39.171  30.104   2.268
91178W        W62904  18.822  39.646  12.993
91179W        W62905   5.715  32.108  10.685
91180W        W62906  16.646  44.720  10.781
91181W        W62907   1.346   4.881  12.373
91182W        W62908  35.984   8.267   3.750
91183W        W62909  13.368  12.634  13.768
91184W        W62910  40.656  15.015   1.735
91185W        W62911   2.203  39.781  13.895
91186W        W62912  41.047  28.355  14.891
91187W        W62913  42.566   3.817   0.514
91188W        W62914  26.577  44.486  14.284
91189W        W62915  19.618  26.576  11.152
91190W        W62916  28.958  31.462   1.949
91191W        W62917  19.441  39.320   0.746
91192W        W62918  25.993  12.670   1.278
91193W        W62919  41.600  41.833   4.746
91194W        W62920  38.287  25.872   3.677
91195W        W62921  12.729  15.723  11.454
91196W        W62922  13.825   3.851   0.401
91197W        W62923   3.381  14.084   4.135
91198W        W62924  12.538  28.190   3.330
91199W        W62925  41.320   0.760  14.880
91200W        W62926  35.928  34.848  11.511
91201W        W62927   0.259  35.243   1.286
91202W        W62928  38.911  17.806   2.854
91203W        W62929  32.996   2.870   2.696
91204W        W62930  39.405   7.749  14.451
91205W        W62931   5.158  43.318  11.875
91206W        W62932   0.217  34.324  11.503
91207W        W62933  17.172  30.855   4.327
91208W        W62934  15.378   1.766  11.836
91209W        W62935  15.149  39.953   5.052
91210W        W62936  28.815   0.616   3.658
91211W        W62937   9.318  34.873   4.230
91212W        W62938  11.592   2.906  11.133
91213W        W62939  33.358  23.671   1.601
91214W        W62940  10.707  23.457   5.158
91215W        W62941  12.173  21.050  10.205
91216W        W62942  10.594   5.000  14.222
91217W        W62943   5.333  10.271  13.034
91218W        W62944  40.871  42.589  12.327
91219W        W62945  35.331  14.373   5.059
91220W        W62946  20.945  16.908   3.969
91221W        W62947  41.533  22.007  11.253
91222W        W62948  12.862  31.047  10.520
91223W        W62949  22.607   5.197   1.277
91224W        W62950  43.480  42.247   3.524
91225W        W62951  29.669  25.167   5.251
91226W        W62952  44.831  24.122  11.902
91227W        W62953  42.945  14.710   0.347
91228W        W62954  29.598  18.127   4.663
91229W        W62955  37.679   7.434   1.876
91230W        W62956  43.337   0.640   0.729
91231W        W62957  33.178   0.359   0.962
91232W        W62958  24.145  20.059   4.055
91233W        W62959  30.638  21.256  13.390
91234W        W62960  24.186   6.446  13.472
91235W        W62961  27.426  31.933   0.461
91236W        W62962  17.185  37.841   4.108
91237W        W62963  42.837  24.101   0.399
91238W        W62964  41.945  36.996  11.230
91239W        W62965  38.075  42.436  13.319
91240W        W62966  33.513  26.679  12.038
91241W        W62967  12.014   3.646  13.346
91242W        W62968  30.237   4.001  14.164
91243W        W62969  43.720  19.173  11.888
91244W        W62970  11.659   3.978  13.127
91245W        W62971  40.122  39.595  12.400
91246W        W62972  26.614  37.775  11.074
91247W        W62973  41.383  27.562  13.700
91248W        W62974  42.837  24.646   3.479
91249W        W62975  23.035  40.223   1.908
91250W        W62976  12.574   5.717   2.153
91251W        W62977  41.054  25.688  12.189
91252W        W62978  13.271   4.965   1.300
91253W        W62979   9.731  23.301   4.207
91254W        W62980  11.660   9.794  12.881
91255W        W62981  25.014  10.423   0.956
91256W        W62982  18.401  10.613   2.739
91257W        W62983  34.529  34.868  11.605
91258W        W62984  22.495  32.290   0.137
91259W        W62985  38.809  42.433  13.821
91260W        W62986  10.265  36.843  12.375
91261W        W62987  23.407  18.259   0.970
91262W        W62988   7.398   7.221  12.918
91263W        W62989  23.941  20.229  10.628
91264W        W62990  15.033   5.849   1.344
91265W        W62991  42.764   5.090  13.787
91266W        W62992  35.980  21.009   0.362
91267W        W62993  29.137  39.293   3.686
91268W        W62994  27.151  14.473  12.029
91269W        W62995  13.185  22.980   1.177
91270W        W62996  27.461   4.473  13.378
91271W        W62997   7.614  17.617   4.208
91272W        W62998   4.319  15.084   9.912
91273W        W62999   7.149  35.940   1.760
91274W        W63000  40.671  36.589  11.760
91275W        W63001   7.206   8.291   4.056
91276W        W63002   6.418  24.218  11.987
91277W        W63003  25.694  37.832  10.730
91278W        W63004  34.487  41.764  12.435
91279W        W63005  27.754  39.661   2.687
91280W        W63006   2.917  25.813  11.112
91281W        W63007  25.648  33.876   3.696
91282W        W63008  41.677  16.198  13.415
91283W        W63009  27.065   0.272  12.548
91284W        W63010   7.971  32.313   1.288
91285W        W63011  36.677  42.886  10.417
91286W        W63012   7.465   4.239   3.795
91287W        W63013  17.418  14.795  14.132
91288W        W63014  38.933  23.658  13.563
91289W        W63015  20.866  39.391  12.830
91290W        W63016  27.359  21.071  12.726
91291W        W63017  40.949  39.964  11.546
91292W        W63018  11.193   4.161  13.413
91293W        W63019  23.094  29.741  14.402
91294W        W63020  35.392  37.277   0.435
91295W        W63021  17.886  18.559   1.770
91296W        W63022  14.309   4.640   4.576
91297W        W63023  21.767  32.190   2.889
91298W        W63024  20.549  10.710  10.980
91299W        W63025   3.445   5.681  12.011
91300W        W63026  39.140  23.002   1.102
91301W        W63027   2.359   7.183  14.857
91302W        W63028  24.979  16.123   2.364
91303W        W63029   0.906  39.905  11.561
91304W        W63030  17.489  37.850   2.752
91305W        W63031  28.448  12.718  12.907
91306W        W63032  28.280  19.238  13.831
91307W        W63033   3.760   2.382  11.571
91308W        W63034  23.105  11.317  10.758
91309W        W63035  22.620   7.508  14.456
91310W        W63036  15.778  35.388   3.756
91311W        W63037  43.587  11.784  14.882
91312W        W63038  23.667  30.708  13.179
91313W        W63039  30.944   4.168  10.771
91314W        W63040   2.281  32.133  14.852
91315W        W63041   0.404  37.010  13.283
91316W        W63042  36.963   3.115   2.345
91317W        W63043   0.791  33.927   4.502
91318W        W63044  37.371  42.909  13.396
91319W        W63045  37.130  12.710  11.524
91320W        W63046  10.578  20.148   4.325
91321W        W63047  18.552  32.522   3.364
91322W        W63048  23.112  37.454   4.081
91323W        W63049   7.607   0.963  10.675
91324W        W63050  17.325  30.408  13.311
91325W        W63051  32.542  21.336  14.948
91326W        W63052  33.682  31.435   3.178
91327W        W63053  23.488  40.865   4.509
91328W        W63054  28.515  36.236   3.310
91329W        W63055  39.422  34.020  14.511
91330W        W63056  27.053  12.885   4.302
91331W        W63057  17.358  19.176  10.725
91332W        W63058  35.199   3.406   0.894
91333W        W63059  33.409  24.936  14.018
91334W        W63060  31.620  18.832   3.217
91335W        W63061  40.878   0.494   1.562
91336W        W63062  16.893  10.271  14.876
91337W        W63063  25.089   6.155   3.881
91338W        W63064  20.742   2.446   1.736
91339W        W63065  39.422  16.728   4.604
91340W        W63066  29.497  39.556  11.916
91341W        W63067  37.366  34.067   3.684
91342W        W63068  23.174  31.711  12.616
91343W        W63069   7.779  28.687   1.788
91344W        W63070  35.640  23.085  13.502
91345W        W63071  30.981  42.216  10.873
91346W        W63072  28.462  18.724   0.656
91347W        W63073  44.780  13.811   4.512
91348W        W63074  36.807  39.416  14.825
91349W        W63075  39.071  22.699   3.664
91350W        W63076  38.468  36.301   2.257
91351W        W63077  41.757  34.402  14.845
91352W        W63078  21.177  41.092  11.536
91353W        W63079  41.604  36.680   1.733
91354W        W63080  27.123  41.378  14.118
91355W        W63081  16.866  35.015   0.662
91356W        W63082  13.760  20.175   1.888
91357W        W63083  35.863  34.085   3.371
91358W        W63084   1.834   4.438   2.714
91359W        W63085  21.540  44.484   3.085
91360W        W63086  26.542  42.978   1.845
91361W        W63087  34.559  15.441  14.413
91362W        W63088  30.227  28.897   2.817
91363W        W63089  23.573  38.720  14.949
91364W        W63090  31.235   6.889   1.202
91365W        W63091  44.869  38.456   1.700
91366W        W63092  33.656  10.799  12.485
91367W        W63093  39.137  17.180  13.458
91368W        W63094  24.416  37.895   4.116
91369W        W63095   5.655   1.294   1.822
91370W        W63096  29.712  13.813  11.027
91371W        W63097  14.227  39.757  14.285
91372W        W63098  22.745  13.733  14.239
91373W        W63099  16.527  43.245  14.574
91374W        W63100  11.708  15.204   3.397
91375W        W63101  16.694   2.057   1.933
91376W        W63102  22.574   5.327   4.061
91377W        W63103  21.025  44.454  14.477
91378W        W63104  11.681  21.710  12.092
91379W        W63105   1.858  11.970   3.656
91380W        W63106  39.724  17.044   1.671
91381W        W63107  22.924  30.161   1.759
91382W        W63108  42.978  17.513   2.809
91383W        W63109  32.957  44.576  14.079
91384W        W63110  39.954  21.729   2.237
91385W        W63111  25.083  44.730   4.678
91386W        W63112  23.708  15.620  12.796
91387W        W63113  25.092  15.947   3.750
91388W        W63114   1.909  30.665   0.829
91389W        W63115  29.901  18.826   1.956
91390W        W63116  31.832  18.112  10.886
91391W        W63117  21.500  36.654  12.662
91392W        W63118  20.323  36.708  11.091
91393W        W63119  14.366  16.627  12.435
91394W        W63120  41.434  17.744   1.391
91395W        W63121  11.731  43.469   2.158
91396W        W63122  15.151  31.879   3.572
91397W        W63123  21.139  31.476  14.524
91398W        W63124  44.442  15.117  10.767
91399W        W63125  26.521   3.262   1.367
91400W        W63126  14.202   9.886   1.858
91401W        W63127  14.477   0.397   4.736
91402W        W63128   0.620  33.687   3.241
91403W        W63129  24.897  40.366  13.380
91404W        W63130   2.296  23.922  14.694
91405W        W63131  35.488  36.489  11.975
91406W        W63132  30.591  24.133   3.126
91407W        W63133   6.876   2.310   0.882
91408W        W63134  13.399   2.740  10.733
91409W        W63135  30.695  29.035   4.085
91410W        W63136  19.148   4.174  13.387
91411W        W63137  22.472  31.464   2.197
91412W        W63138  14.340  29.478  12.897
91413W        W63139  32.575   4.293  14.436
91414W        W63140  32.558   7.779  14.039
91415W        W63141  28.745  27.309  11.539
91416W        W63142  35.644  41.837   1.690
91417W        W63143  28.188  13.303  13.475
91418W        W63144  28.065   0.433  10.741
91419W        W63145  22.007  28.652  12.285
91420W        W63146  30.710   4.269   2.174
91421W        W63147   9.260  27.689   3.311
91422W        W63148  41.882  25.420   1.537
91423W        W63149  40.427  19.004   0.454
91424W        W63150  14.268  19.334  12.592
91425W        W63151  24.243  25.240   9.778
91426W        W63152  15.216  27.658   3.784
91427W        W63153  32.673  38.529   3.533
91428W        W63154  29.539   2.686   4.720
91429W        W63155   3.763  41.468  11.279
91430W        W63156  42.299  34.995   0.197
91431W        W63157  17.530  31.646  12.056
91432W        W63158  30.467  13.563   0.270
91433W        W63159  37.033  17.217   4.572
91434W        W63160   4.978  43.808   0.528
91435W        W63161  21.613  41.537  12.731
91436W        W63162  27.915  16.260  13.908
91437W        W63163  31.358   0.547   3.789
91438W        W63164  39.867  24.282  13.812
91439W        W63165  18.043  26.628   3.262
91440W        W63166  10.850  37.648   4.947
91441W        W63167  42.305   3.748   1.666
91442W        W63168  41.344   0.405   4.505
91443W        W63169  25.497  25.179   1.260
91444W        W63170  30.969  33.081   1.228
91445W        W63171   9.386  19.817   2.517
91446W        W63172   3.499  23.289  11.878
91447W        W63173  40.816   4.303   4.477
91448W        W63174   6.192  34.074   2.435
91449W        W63175   4.830  29.827   1.751
91450W        W63176  21.075  30.177   0.357
91451W        W63177  43.290  21.195  11.356
91452W        W63178   5.364  17.650  13.224
91453W        W63179  24.931  43.956   4.215
91454W        W63180  18.577  34.235  14.400
91455W        W63181  24.441  33.945   0.892
91456W        W63182  10.591  33.688   0.918
91457W        W63183  30.653   4.289  12.027
91458W        W63184  16.570  19.748  14.621
91459W        W63185  18.169  27.745  12.542
91460W        W63186   6.099   7.859   0.800
91461W        W63187  35.070  44.674  12.647
91462W        W63188  42.745  13.679  12.739
91463W        W63189  16.073  17.990  10.997
91464W        W63190  33.554  12.302  12.789
91465W        W63191  32.049  43.678  11.981
91466W        W63192  23.665  24.451   3.903
91467W        W63193   0.890  13.236   3.191
91468W        W63194  41.610  22.029   1.469
91469W        W63195   4.479  10.685   3.310
91470W        W63196  44.467   0.761   1.329
91471W        W63197  13.653  17.289  12.045
91472W        W63198  21.097  20.990  10.169
91473W        W63199  14.101  37.912  14.624
91474W        W63200  38.081  28.229   0.413
91475W        W63201  20.535  14.671  13.115
91476W        W63202  36.466   5.273   3.802
91477W        W63203  30.664  19.236   4.122
91478W        W63204  31.290  29.289   4.942
91479W        W63205  39.277  21.527   1.276
91480W        W63206   0.228   0.865   3.172
91481W        W63207   8.137  19.817   2.900
91482W        W63208  27.754  39.386   3.197
91483W        W63209  18.047  29.860   0.395
91484W        W63210   6.190  40.804  11.475
91485W        W63211  43.893  33.328   3.648
91486W        W63212  35.439   8.139   0.334
91487W        W63213  26.608  24.674   1.448
91488W        W63214  29.171  12.816  12.472
91489W        W63215  38.274  39.947  13.277
91490W        W63216  31.064   7.394   1.232
91491W        W63217  21.449  38.417  14.958
91492W        W63218  19.044  20.236  13.493
91493W        W63219   5.736  11.514   1.344
91494W        W63220  21.230   6.716   3.716
91495W        W63221  22.733   7.470  10.767
91496W        W63222  20.277  12.192   2.924
91497W        W63223  18.180   1.456   3.166
91498W        W63224   7.654  26.515  11.993
91499W        W63225   3.800  15.896   4.181
91500W        W63226   5.539   2.201   3.629
91501W        W63227   5.837  34.061   1.668
91502W        W63228   6.472   3.470  11.836
91503W        W63229  12.155  31.857  14.807
91504W        W63230  29.673  29.428   0.903
91505W        W63231  27.418   2.424   0.186
91506W        W63232  30.071  37.458  10.602
91507W        W63233   6.810  22.243  12.912
91508W        W63234  28.606  20.003   2.845
91509W        W63235  37.382  43.269  10.668
91510W        W63236  22.695  33.972   1.378
91511W        W63237  24.819   9.977  11.673
91512W        W63238  43.484  44.837  13.370
91513W        W63239  16.749  21.185  12.531
91514W        W63240   5.145  13.243  14.474
91515W        W63241   9.126  25.871  14.833
91516W        W63242  39.263  12.145   2.248
91517W        W63243   0.710  37.094   2.336
91518W        W63244  15.738  41.085  10.229
91519W        W63245  16.672   9.724   3.835
91520W        W63246  16.114  13.945  11.567
91521W        W63247  20.661  35.831   3.265
91522W        W63248  44.821   9.335   2.229
91523W        W63249  44.484  13.686   3.714
91524W        W63250   3.831  28.607   0.609
91525W        W63251  17.995  42.998  10.649
91526W        W63252   3.632  37.087   4.394
91527W        W63253  11.071  12.324   4.364
91528W        W63254   9.616   0.034  12.511
91529W        W63255  16.071  44.239   1.756
91530W        W63256  27.008  31.904   1.261
91531W        W63257  11.735  31.434   1.751
91532W        W63258  36.048  27.662   2.887
91533W        W63259   2.411  19.526   3.243
91534W        W63260   4.294  11.254  13.615
91535W        W63261   1.905   8.777  11.477
91536W        W63262   4.850  35.838   0.408
91537W        W63263   0.822  20.226  13.964
91538W        W63264  40.385  39.393  11.902
91539W        W63265  43.872  40.528  11.950
91540W        W63266  41.844  28.721  10.659
91541W        W63267  19.711  37.570   3.189
91542W        W63268  14.766  14.448   3.988
91543W        W63269  38.545  16.271   2.367
91544W        W63270  37.774  24.164   0.330
91545W        W63271  12.059  12.852   4.304
91546W        W63272  34.469  35.898   3.836
91547W        W63273  39.921  25.082  13.322
91548W        W63274  18.750  13.701  11.526
91549W        W63275  10.795   2.924  10.550
91550W        W63276  44.746  41.060   1.754
91551W        W63277   9.306  27.134   0.338
91552W        W63278  21.748  36.843   1.748
91553W        W63279  39.944  19.552  11.187
91554W        W63280  18.648  20.299  14.497
91555W        W63281  28.910   8.349  14.327
91556W        W63282  42.786  21.511   4.056
91557W        W63283  33.879  19.421   5.005
91558W        W63284  10.078  23.487   1.553
91559W        W63285   4.396  28.115  11.674
91560W        W63286   6.012  35.547  14.519
91561W        W63287   4.948  44.210  13.210
91562W        W63288  42.785   4.700   4.575
91563W        W63289  10.189  15.630  13.469
91564W        W63290  31.394  44.692  13.407
91565W        W63291  38.468  39.949  14.712
91566W        W63292  13.576  41.464   1.808
91567W        W63293  17.867  12.312  11.074
91568W        W63294  40.042  10.211   3.367
91569W        W63295   1.295  37.493  10.695
91570W        W63296  21.678  13.637  14.549
91571W        W63297  18.516  25.873  14.601
91572W        W63298  38.899  22.657  13.917
91573W        W63299  14.663  23.640   3.752
91574W        W63300  44.860  18.720  14.399
91575W        W63301  29.040   3.300  12.347
91576W        W63302  31.583  37.887  11.975
91577W        W63303  28.159  43.235  13.459
91578W        W63304  21.718  36.928   0.287
91579W        W63305   8.357  16.703   0.206
91580W        W63306  29.877   1.304  14.856
91581W        W63307   1.817  28.135  14.079
91582W        W63308  25.782  18.751   5.014
91583W        W63309  23.945  44.714   3.591
91584W        W63310  22.141  15.039   0.291
91585W        W63311   0.519  39.867  14.876
91586W        W63312   6.332  13.124   1.022
91587W        W63313  33.329  14.055   1.908
91588W        W63314  35.009  35.113   1.777
91589W        W63315  15.629  17.621   2.341
91590W        W63316  15.722  24.607   1.956
91591W        W63317  31.667  39.742   2.597
91592W        W63318   7.244  30.901  13.781
91593W        W63319  18.565  37.460  10.738
91594W        W63320  42.062  27.011  13.564
91595W        W63321  24.144  33.991  13.915
91596W        W63322  17.599   7.117   2.455
91597W        W63323  13.283  12.365   1.198
91598W        W63324  41.097  39.921  14.385
91599W        W63325  35.201  18.657   3.752
91600W        W63326  11.276  10.430  10.875
91601W        W63327  12.573   3.736   3.924
91602W        W63328  22.062  43.760  12.197
91603W        W63329   9.885   2.809   2.205
91604W        W63330  20.003   5.876   4.636
91605W        W63331  41.986  32.382  12.124
91606W        W63332  25.298  25.792  12.529
91607W        W63333   0.818  12.379  13.583
91608W        W63334   9.324  11.873  13.925
91609W        W63335  41.529  11.717   3.634
91610W        W63336   9.814  27.215  14.260
91611W        W63337  27.891  26.495   4.253
91612W        W63338  44.683   0.983  11.625
91613W        W63339  32.000  42.554  13.956
91614W        W63340  23.908  20.530   0.362
91615W        W63341  18.180   3.752  13.801
91616W        W63342  42.398  20.074  14.454
91617W        W63343   1.562  43.690  11.523
91618W        W63344  27.098   0.922  11.088
91619W        W63345  15.791  23.547   1.349
91620W        W63346   9.778  18.705  10.329
91621W        W63347   0.193  21.273   4.617
91622W        W63348  25.882   4.104   0.900
91623W        W63349  37.032   5.720   3.097
91624W        W63350  35.495  15.560   3.236
91625W        W63351  12.333  39.797  14.493
91626W        W63352  18.039  12.366   2.641
91627W        W63353  16.463  44.056  11.151
91628W        W63354   5.012  12.096   3.192
91629W        W63355  39.547   6.681  14.397
91630W        W63356  33.577  32.251  11.617
91631W        W63357  33.175  21.775   4.164
91632W        W63358  39.829  13.108  12.010
91633W        W63359  37.093  11.173   3.597
91634W        W63360  20.500  18.857   0.830
91635W        W63361  36.574  17.972   2.586
91636W        W63362   0.695  31.563   2.184
91637W        W63363  19.327   5.094   2.987
91638W        W63364  19.784   2.335  11.692
91639W        W63365  43.096  14.160  13.136
91640W        W63366  20.831   3.789  10.215
91641W        W63367  39.867  33.410  12.252
91642W        W63368  26.608  40.226  14.429
91643W        W63369  35.738   8.923  10.982
91644W        W63370   7.206   9.843  14.368
91645W        W63371  21.032   7.390   2.833
91646W        W63372  29.632  12.748  10.783
91647W        W63373  19.785   3.364  13.296
91648W        W63374  14.290  41.010  14.480
91649W        W63375  12.371   8.382  14.452
91650W        W63376   2.908  32.567   0.626
91651W        W63377  37.692  36.536  11.533
91652W        W63378  40.872  15.559   2.282
91653W        W63379  31.905  43.895   5.341
91654W        W63380  33.852   1.335   0.852
91655W        W63381  34.070   1.254  13.804
91656W        W63382  38.366  39.104   2.366
91657W        W63383  17.721  13.777   3.099
91658W        W63384  16.660  38.342   3.401
91659W        W63385   8.351  37.605   3.756
91660W        W63386  22.469  31.412  13.043
91661W        W63387  40.337  18.702   2.917
91662W        W63388   2.703  10.180   1.853
91663W        W63389   2.889  36.862  14.526
91664W        W63390  20.465  21.274  12.524
91665W        W63391  11.123  17.234  14.633
91666W        W63392  31.034  39.471   0.004
91667W        W63393  26.007  42.969   1.665
91668W        W63394   6.172  20.470   2.162
91669W        W63395  14.209  34.390  14.980
91670W        W63396   6.097  16.386  13.829
91671W        W63397   8.443  17.608   3.819
91672W        W63398  40.973  13.673  11.361
91673W        W63399  11.341  33.334  12.879
91674W        W63400  17.036  43.917   1.255
91675W        W63401   3.968  36.698  12.015
91676W        W63402  17.222  28.715   1.896
91677W        W63403   8.376  24.086  10.188
91678W        W63404  10.371  36.602   1.764
91679W        W63405  21.060  12.438  11.408
91680W        W63406   8.175  34.906   3.407
91681W        W63407   1.370  19.281  11.002
91682W        W63408  12.399  14.703  14.889
91683W        W63409  19.143  22.142  12.398
91684W        W63410  23.119  32.658   2.384
91685W        W63411  15.765  23.542   4.346
91686W        W63412  26.206   2.925  11.131
91687W        W63413  27.089  15.008  13.982
91688W        W63414  12.949  33.404  12.015
91689W        W63415  15.633  20.847   0.797
91690W        W63416  37.993  20.212   2.356
91691W        W63417  23.494  21.725   1.937
91692W        W63418  16.601  44.547  14.793
91693W        W63419   6.848  14.721   2.656
91694W        W63420  25.638  38.910   3.847
91695W        W63421  12.217  10.449  12.396
91696W        W63422  24.542  29.680  12.036
91697W        W63423  27.558  40.401   1.442
91698W        W63424  15.926  34.101  14.889
91699W        W63425  23.725  15.231   1.352
91700W        W63426  29.979  36.134   2.708
91701W        W63427  33.600  33.538  14.960
91702W        W63428  12.680  44.437  10.641
91703W        W63429  24.785   0.558   5.435
91704W        W63430  22.601  16.601   0.907
91705W        W63431  43.208  17.680  10.625
91706W        W63432  41.428  27.881  10.703
91707W        W63433   6.388   8.290   3.470
91708W        W63434  28.691  42.437   2.403
91709W        W63435   7.312  33.243   2.158
91710W        W63436  27.689  24.464  14.884
91711W        W63437  14.156  26.206   0.826
91712W        W63438  43.488   1.299  12.504
91713W        W63439   6.813  13.907   0.710
91714W        W63440   8.410  23.592  12.894
91715W        W63441  39.940  23.240  14.197
91716W        W63442  23.501  11.704  12.337
91717W        W63443  14.301   2.301  11.440
91718W        W63444  19.534   0.662   4.083
91719W        W63445  23.339  35.496   1.591
91720W        W63446  15.349  22.888  11.076
91721W        W63447  17.785  17.575   3.398
91722W        W63448  14.361   1.474  12.518
91723W        W63449  38.488  41.039   1.372
91724W        W63450  28.605  28.260   1.344
91725W        W63451  42.755  25.427  14.299
91726W        W63452   5.696  31.834   4.894
91727W        W63453   3.833   3.885  10.453
91728W        W63454  11.167  20.096  14.542
91729W        W63455  14.618   5.232  10.943
91730W        W63456  22.711  35.617  12.001
91731W        W63457  22.700  27.473  11.944
91732W        W63458   6.654   4.673   5.445
91733W        W63459  33.716  20.742   1.288
91734W        W63460  10.410  43.913  13.533
91735W        W63461   3.309  23.331  14.098
91736W        W63462   7.679  33.392  10.710
91737W        W63463  37.665  27.613  14.906
91738W        W63464  19.747  25.016  13.522
91739W        W63465  10.701   4.751  11.175
91740W        W63466  29.744   8.404   2.228
91741W        W63467  41.528  37.568   2.200
91742W        W63468  36.162   9.287   2.891
91743W        W63469  37.871  35.456  13.099
91744W        W63470  29.527  20.147   1.401
91745W        W63471  29.296  20.300  11.986
91746W        W63472  41.361   8.754  14.796
91747W        W63473   7.707  27.152   1.906
91748W        W63474  14.790  43.538  12.144
91749W        W63475  11.771  36.086   1.204
91750W        W63476  21.166  32.192  11.419
91751W        W63477  29.165  31.207  14.738
91752W        W63478  36.791   3.089   4.968
91753W        W63479   0.083  30.438  11.450
91754W        W63480  31.418  33.513  13.751
91755W        W63481   5.260   6.648  13.300
91756W        W63482  11.132  21.183  10.080
91757W        W63483   5.719   5.000  12.142
91758W        W63484  19.655  11.874   4.017
91759W        W63485   2.484   7.122  11.720
91760W        W63486  37.481  25.903   9.994
91761W        W63487  24.625  38.778  13.836
91762W        W63488  24.932   0.774  12.494
91763W        W63489   3.090  36.552  10.313
91764W        W63490  14.045  37.783   0.397
91765W        W63491  13.107  37.871   2.507
91766W        W63492  37.830  21.083   1.767
91767W        W63493  24.003   5.772  10.371
91768W        W63494  36.344  22.610  13.906
91769W        W63495  17.254  29.211   1.668
91770W        W63496  44.949  25.161  10.556
91771W        W63497  21.963  14.740  14.915
91772W        W63498  28.456   8.863  13.047
91773W        W63499  18.843  24.720   4.544
91774W        W63500  35.450  16.059  13.029
91775W        W63501  26.218  23.985  14.297
91776W        W63502  11.162   2.425  14.956
91777W        W63503  35.309  22.451   2.361
91778W        W63504  25.434  36.576  14.434
91779W        W63505  29.012  38.471   0.822
91780W        W63506  36.465   3.823   4.052
91781W        W63507   0.072  16.637   4.647
91782W        W63508  34.124  37.310  11.103
91783W        W63509   0.778  24.175  14.905
91784W        W63510  13.850  35.698   1.087
91785W        W63511  21.191  11.342   0.985
91786W        W63512  33.703   5.899   4.951
91787W        W63513  31.169   2.345   3.483
91788W        W63514  11.765  44.747   1.489
91789W        W63515   1.939  25.033  12.169
91790W        W63516  28.413   7.348   4.690
91791W        W63517  23.683  25.556  12.146
91792W        W63518  30.647  29.032  11.384
91793W        W63519   1.158  41.485   0.929
91794W        W63520   3.475  44.351   2.764
91795W        W63521  37.798  22.851   3.282
91796W        W63522   2.041   7.489  12.875
91797W        W63523   9.863  38.282  12.104
91798W        W63524  27.321   2.885  12.164
91799W        W63525   2.869  36.646  13.328
91800W        W63526  29.709  23.696   5.527
91801W        W63527  10.179   6.394   2.690
91802W        W63528  37.839  15.886  13.439
91803W        W63529  44.896   7.755   2.347
91804W        W63530  29.160  24.782  10.004
91805W        W63531  19.532  42.871   4.116
91806W        W63532  36.927   5.934  13.434
91807W        W63533  39.119  32.319   0.779
91808W        W63534   2.494  27.008   3.160
91809W        W63535   1.885  35.319  12.347
91810W        W63536   2.420  44.241  13.975
91811W        W63537  25.176   4.813   2.357
91812W        W63538  30.735  37.618   0.649
91813W        W63539   0.240  12.021  12.496
91814W        W63540   1.025  25.340  12.526
91815W        W63541  31.902  16.072  13.488
91816W        W63542  16.222  35.934  14.836
91817W        W63543   0.953  35.122  10.943
91818W        W63544  17.764  18.094  11.901
91819W        W63545   4.941  23.268   1.750
91820W        W63546  19.607  15.897   4.028
91821W        W63547  32.461  19.875   3.357
91822W        W63548  40.001  37.487   4.584
91823W        W63549  37.346  21.044  13.192
91824W        W63550  27.131  21.079  11.495
91825W        W63551   6.467  37.578   1.195
91826W        W63552  23.837   4.372   1.891
91827W        W63553  17.117  40.198   5.452
91828W        W63554  15.781  43.416   4.566
91829W        W63555  33.065  30.626   4.510
91830W        W63556  17.572  31.233  10.417
91831W        W63557  35.100  41.787  11.077
91832W        W63558   0.451  26.642  14.868
91833W        W63559   2.834  29.157   3.168
91834W        W63560  34.247  19.111   2.686
91835W        W63561  32.520  41.868   0.470
91836W        W63562   1.843  20.478   4.253
91837W        W63563  29.996  39.516   0.403
91838W        W63564  33.082  18.299  11.905
91839W        W63565  12.083  41.094  11.506
91840W        W63566  41.473   9.285   4.671
91841W        W63567  32.010  39.991   2.918
91842W        W63568  32.638  26.622   2.738
91843W        W63569  25.134  24.009   1.770
91844W        W63570   8.732  10.942   3.299
91845W        W63571  15.127  29.814   1.749
91846W        W63572  14.748  27.627   2.366
91847W        W63573   6.001  43.824   0.417
91848W        W63574  10.351  25.442  13.482
91849W        W63575  21.675  12.311   0.387
91850W        W63576  25.502  34.141   3.266
91851W        W63577  20.716  43.062  12.283
91852W        W63578  24.634  21.483  14.924
91853W        W63579  40.353  25.710   2.650
91854W        W63580  14.556  14.230   3.142
91855W        W63581  44.017  29.929   4.600
91856W        W63582   5.824  17.884   3.558
91857W        W63583  17.362  21.459   0.655
91858W        W63584   7.041   6.427   1.278
91859W        W63585  26.178  13.646  12.479
91860W        W63586  42.543  43.747   2.231
91861W        W63587  22.114  34.005  13.171
91862W        W63588  39.717  36.876   4.300
91863W        W63589  21.204  35.621   1.396
91864W        W63590  24.404  42.733   3.624
91865W        W63591  26.007   0.416   4.119
91866W        W63592  17.063   0.579  12.429
91867W        W63593  18.783   7.922  12.309
91868W        W63594   7.331   3.626   4.839
91869W        W63595  43.371  25.997   3.382
91870W        W63596  23.972   3.922  12.442
91871W        W63597  13.670  38.378   4.114
91872W        W63598   8.655   8.372  11.866
91873W        W63599   2.176  28.594  11.448
91874W        W63600   8.962  10.118   3.771
91875W        W63601  24.519  32.175  13.916
91876W        W63602  25.512  30.883   2.183
91877W        W63603  43.595  38.867   2.416
91878W        W63604   6.173  36.145   1.059
91879W        W63605  32.553  43.308   0.532
91880W        W63606  42.156  36.452  14.175
91881W        W63607  29.581  35.431   0.455
91882W        W63608  32.293  42.542   3.675
91883W        W63609   8.073  18.989   4.995
91884W        W63610   4.437  16.168   5.356
91885W        W63611   0.295  32.307   0.928
91886W        W63612  43.230  29.192   4.659
91887W        W63613  25.036   6.273  12.655
91888W        W63614  42.519  30.913  12.887
91889W        W63615  40.093  28.911  13.567
91890W        W63616  33.259  20.227  11.466
91891W        W63617  43.789  37.556   3.812
91892W        W63618  14.324  29.670   3.117
91893W        W63619  41.450  28.115   1.898
91894W        W63620   5.444  21.421  12.049
91895W        W63621  12.914  17.980   2.779
91896W        W63622  26.975  35.333   1.275
91897W        W63623  15.591  13.159   0.188
91898W        W63624  31.535  11.046  10.882
91899W        W63625   6.178   1.514  12.153
91900W        W63626   0.925  28.196   3.201
91901W        W63627  19.004  10.780  12.441
91902W        W63628  19.059  27.972  11.499
91903W        W63629  23.195   0.438   2.760
91904W        W63630  40.447   1.391   2.678
91905W        W63631  39.014  22.160  14.671
91906W        W63632   5.375  16.346  12.482
91907W        W63633   5.362  27.653   2.669
91908W        W63634   0.998  37.486  10.244
91909W        W63635  13.378   4.476  14.847
91910W        W63636  40.340  20.605   0.420
91911W        W63637  38.998  30.993  11.091
91912W        W63638  41.986  12.594  12.060
91913W        W63639  18.812  37.987  13.532
91914W        W63640  40.495   7.457  11.989
91915W        W63641  40.521  15.523  13.879
91916W        W63642  14.178   4.248   1.425
91917W        W63643  37.890   5.222   4.179
91918W        W63644  20.256  42.469  14.271
91919W        W63645  23.561  44.778   1.461
91920W        W63646   4.002   6.565  10.571
91921W        W63647  40.768  37.094   4.269
91922W        W63648  41.890  19.332  12.791
91923W        W63649  13.806  35.954   2.132
91924W        W63650  17.051  34.712  14.401
91925W        W63651  38.977   5.906   3.880
91926W        W63652  14.882  18.022   1.303
91927W        W63653  25.251  33.828  11.516
91928W        W63654  43.988   5.218  11.101
91929W        W63655  43.715  43.205   2.882
91930W        W63656  38.772  15.818   4.979
91931W        W63657  25.128  12.364   1.663
91932W        W63658   9.843   2.831  13.515
91933W        W63659   1.976  26.899  11.220
91934W        W63660   5.665  15.085   3.705
91935W        W63661  17.356  37.089   4.704
91936W        W63662  25.934  41.479  13.802
91937W        W63663  29.456  24.803  13.956
91938W        W63664  27.129  16.551   4.813
91939W        W63665   1.360  27.881  13.801
91940W        W63666   1.801   6.655  12.080
91941W        W63667  20.072  40.850  13.513
91942W        W63668  41.999  33.900   3.190
91943W        W63669  14.655   0.750   0.710
91944W        W63670  36.878  29.968  14.948
91945W        W63671   4.356  20.198   0.949
91946W        W63672   2.060   0.786  12.912
91947W        W63673   5.314  42.313  13.965
91948W        W63674  23.982   1.454   3.247
91949W        W63675  13.355   9.415  14.077
91950W        W63676  37.814  14.729  14.477
91951W        W63677  32.611  33.343   0.957
91952W        W63678  33.854  23.763   2.306
91953W        W63679  22.239  35.007  11.379
91954W        W63680  37.929  43.578   1.323
91955W        W63681  25.339  10.237  13.373
91956W        W63682   5.704  37.281  10.717
91957W        W63683  21.120  15.055  14.505
91958W        W63684   3.955  13.538   1.882
91959W        W63685   1.559  27.123   1.763
91960W        W63686  44.156   0.066   4.101
91961W        W63687  10.823  30.730   2.396
91962W        W63688  32.390  24.501   2.327
91963W        W63689  27.107  22.738   0.523
91964W        W63690  17.769  23.118  12.549
91965W        W63691  41.412  34.671   1.921
91966W        W63692  17.312  19.039   0.721
91967W        W63693  23.002  13.708  13.781
91968W        W63694  24.677  37.032  12.998
91969W        W63695  11.289  41.302  13.516
91970W        W63696  22.538  21.070   5.119
91971W        W63697  44.459  10.521   1.795
91972W        W63698  20.971   3.912   0.213
91973W        W63699   9.257  22.118   3.857
91974W        W63700  37.917  12.938   0.252
91975W        W63701  41.239  19.358  11.100
91976W        W63702  36.338  32.767  13.859
91977W        W63703  40.249  12.696   2.322
91978W        W63704  12.238  42.468  12.552
91979W        W63705  23.556   4.323  10.907
91980W        W63706  38.488  37.755   2.200
91981W        W63707  39.508  28.639  12.921
91982W        W63708  22.556   5.927  14.344
91983W        W63709  41.598   1.853   1.322
91984W        W63710  10.146  11.759   3.256
91985W        W63711  44.218   8.173   2.721
91986W        W63712  41.753   4.119   0.833
91987W        W63713  23.969   8.909  10.716
91988W        W63714  22.409  41.338   2.077
91989W        W63715   1.287  42.018   2.759
91990W        W63716   5.391   1.912  14.350
91991W        W63717  32.084  18.776   0.212
91992W        W63718   9.365  15.353  13.084
91993W        W63719   1.425  22.442   2.622
91994W        W63720  25.420  42.298  12.039
91995W        W63721  36.900   1.294  14.007
91996W        W63722   4.307   2.877  14.082
91997W        W63723  38.983  20.784   1.764
91998W        W63724   8.365   3.572  12.229
91999W        W63725  41.527  14.564   3.740
92000W        W63726  20.670  35.194   0.361
92001W        W63727   6.229  26.205  12.232
92002W        W63728  20.955   1.514   2.135
92003W        W63729  24.039  44.039   4.119
92004W        W63730  40.267  19.125   2.198
92005W        W63731  27.573  14.790   0.851
92006W        W63732  20.710  22.708  13.795
92007W        W63733   2.285   2.134  14.412
92008W        W63734   7.749  15.787  14.817
92009W        W63735  30.250  10.728   2.735
92010W        W63736  11.299  22.168  13.360
92011W        W63737  28.523   9.825   2.178
92012W        W63738  14.228  23.080   2.633
92013W        W63739   4.152  14.851  11.507
92014W        W63740  17.348  23.035   3.734
92015W        W63741  15.294  42.762   3.285
92016W        W63742  21.400   2.940   0.235
92017W        W63743  20.279  31.210   2.272
92018W        W63744  39.933  14.045  10.647
92019W        W63745  28.893   4.000   4.147
92020W        W63746  33.953  30.635  12.962
92021W        W63747  42.536  31.865   0.270
92022W        W63748  23.185  36.113   2.103
92023W        W63749  28.212  26.578   1.333
92024W        W63750  40.822   7.703   3.292
92025W        W63751   8.532  38.055  11.945
92026W        W63752  41.529  13.351   2.929
92027W        W63753  30.439  28.019   2.818
92028W        W63754   3.478  39.983   1.243
92029W        W63755  25.590   2.488  13.661
92030W        W63756  19.793  20.151   2.389
92031W        W63757  25.025  33.376  14.063
92032W        W63758  44.380  42.778   3.590
92033W        W63759   9.155   2.730  12.821
92034W        W63760  11.463  40.419   0.931
92035W        W63761  25.728  12.722   2.336
92036W        W63762  15.581   3.531   3.922
92037W        W63763   2.673  17.774   2.710
92038W        W63764  39.791  21.731   1.282
92039W        W63765  14.673  15.023  11.199
92040W        W63766  18.765  36.406   0.766
92041W        W63767  21.444  10.703  13.786
92042W        W63768   4.337  29.022   3.204
92043W        W63769  30.544  44.538   3.929
92044W        W63770  16.334  19.278  10.881
92045W        W63771  23.534  28.547   2.357
92046W        W63772  13.615  16.679   1.696
92047W        W63773   6.237  40.010  14.973
92048W        W63774  35.983   3.306  12.053
92049W        W63775  34.189  40.131   2.259
92050W        W63776  25.464  14.704  11.100
92051W        W63777  22.170  27.703  10.572
92052W        W63778   5.632  33.876   4.120
92053W        W63779   1.843  27.427   2.746
92054W        W63780   7.358  41.353  14.868
92055W        W63781  15.041   1.210   1.352
92056W        W63782   1.820  31.143   1.807
92057W        W63783  43.263  44.447   1.223
92058W        W63784  43.495  20.458   1.031
92059W        W63785   1.503  28.213   2.299
92060W        W63786  25.020   6.446   3.436
92061W        W63787  31.289  12.691  13.433
92062W        W63788  15.436  14.173   4.617
92063W        W63789  25.898   9.098  10.079
92064W        W63790  20.625   9.995  11.711
92065W        W63791  38.646  19.511   4.889
92066W        W63792  42.478  13.196   2.664
92067W        W63793  18.695  38.535  14.419
92068W        W63794   5.470   6.896   3.722
92069W        W63795  39.824  25.680  10.788
92070W        W63796   5.664   3.050  13.381
92071W        W63797  11.086  29.119   3.019
92072W        W63798  43.168  38.702  11.173
92073W        W63799  13.641  35.836   3.842
92074W        W63800  10.849  25.213  12.407
92075W        W63801  42.908   1.773   0.259
92076W        W63802  41.179  39.821   3.595
92077W        W63803  11.580  44.422   0.046
92078W        W63804   0.706   3.258   2.848
92079W        W63805  42.732  20.064   5.189
92080W        W63806  31.837   6.888  14.863
92081W        W63807  39.021   3.217   4.753
92082W        W63808  39.254  41.876  10.712
92083W        W63809   7.695   3.372   4.587
92084W        W63810  10.989  41.490  13.870
92085W        W63811  19.223  16.807   2.180
92086W        W63812  44.030  20.748  12.423
92087W        W63813  19.701   0.040  10.664
92088W        W63814  35.392   1.592  14.434
92089W        W63815  12.726   1.255   2.793
92090W        W63816  43.415  40.807  14.441
92091W        W63817  25.248  11.755  12.562
92092W        W63818  10.447   3.292   0.746
92093W        W63819  15.271  21.733  12.067
92094W        W63820  12.237  23.422  12.466
92095W        W63821  21.064  23.619  11.011
92096W        W63822  40.437  30.570  11.663
92097W        W63823   5.466  28.955   3.806
92098W        W63824  44.703  14.651  14.430
92099W        W63825   3.697   1.746   2.864
92100W        W63826  43.481  44.689   2.195
92101W        W63827  40.904  17.361   2.260
92102W        W63828   5.846  36.012   1.440
92103W        W63829  32.630  33.952  12.040
92104W        W63830  23.320  37.003   4.279
92105W        W63831   0.900   2.663  11.574
92106W        W63832  23.791   7.019  13.786
92107W        W63833  27.499  35.359  14.024
92108W        W63834   9.169   7.869   2.665
92109W        W63835  43.344  21.951   3.329
92110W        W63836   1.476   7.091  12.114
92111W        W63837  25.868   1.286   4.999
92112W        W63838  20.763   8.402  14.493
92113W        W63839  34.095   7.104  10.760
92114W        W63840  22.057   7.339   1.003
92115W        W63841   3.711   1.818  13.375
92116W        W63842  35.870  40.457   0.241
92117W        W63843  38.647  12.727   3.137
92118W        W63844  12.351  14.824  12.954
92119W        W63845  23.949  32.453   4.062
92120W        W63846  24.072  43.347  11.155
92121W        W63847  22.918  12.567   3.709
92122W        W63848  43.842  38.347   3.494
92123W        W63849  36.543  43.840   3.237
92124W        W63850  18.632  10.856  14.555
92125W        W63851  41.271  19.117  12.078
92126W        W63852  43.090  38.931   3.749
92127W        W63853  30.888  33.831  11.590
92128W        W63854  31.915  20.589  13.963
92129W        W63855   9.462   3.269   4.642
92130W        W63856  36.091  21.639   1.602
92131W        W63857  43.975  27.618   2.146
92132W        W63858  43.909  14.197  12.513
92133W        W63859  42.823  37.514   3.862
92134W        W63860  37.905  41.008   4.748
92135W        W63861  35.111  30.732  11.179
92136W        W63862  44.802  25.310  12.407
92137W        W63863  37.390  25.536   2.939
92138W        W63864   9.915  24.798   4.174
92139W        W63865   5.442   7.946  11.461
92140W        W63866  39.854  15.171   4.802
92141W        W63867  13.194   0.727   3.389
92142W        W63868  35.931  39.903   1.403
92143W        W63869   0.788   7.808  13.332
92144W        W63870  31.413  41.253  12.537
92145W        W63871  27.177  18.447  13.499
92146W        W63872  23.532  26.098   4.472
92147W        W63873   2.769  23.077   2.361
92148W        W63874  38.041  42.406   2.441
92149W        W63875   9.692   9.378  11.139
92150W        W63876  21.922  32.181  10.955
92151W        W63877   8.727  25.915   3.198
92152W        W63878  26.033   8.668   0.444
92153W        W63879  15.954   8.019   3.822
92154W        W63880  41.803  19.242  13.329
92155W        W63881  28.995  29.926   1.784
92156W        W63882  29.164   9.443   3.527
92157W        W63883   9.595   6.484  10.414
92158W        W63884   3.629   1.474   3.288
92159W        W63885  38.571   4.669   2.814
92160W        W63886  21.439  33.844   5.104
92161W        W63887  35.865   1.233  13.339
92162W        W63888  31.968  39.889  14.312
92163W        W63889  24.154  13.690  10.283
92164W        W63890  12.165   2.834   1.193
92165W        W63891  12.771  13.266  12.021
92166W        W63892  17.009  42.890   1.526
92167W        W63893  32.541  34.545   5.008
92168W        W63894  24.872  38.909  14.920
92169W        W63895  23.608  42.449  10.492
92170W        W63896  36.439  10.651   1.844
92171W        W63897  30.057  17.586  13.876
92172W        W63898  16.249  11.874  14.929
92173W        W63899   0.233   1.848   1.147
92174W        W63900  23.966  38.474   1.829
92175W        W63901  28.668  23.659  11.405
92176W        W63902   5.880  10.861  13.079
92177W        W63903  36.493  37.189  10.803
92178W        W63904  15.789  19.898  11.672
92179W        W63905   2.768  24.449  10.618
92180W        W63906  22.030  31.849   3.234
92181W        W63907  34.146  35.122  13.854
92182W        W63908  44.929  37.058  13.062
92183W        W63909   3.910  28.888  13.997
92184W        W63910   6.567   7.961  11.045
92185W        W63911  44.838  24.180   3.695
92186W        W63912  33.076   0.781  14.823
92187W        W63913   7.494  23.924  13.033
92188W        W63914   3.773  15.139  14.810
92189W        W63915  31.311  16.717   2.332
92190W        W63916  12.290  32.683   0.288
92191W        W63917  18.610  29.063  10.668
92192W        W63918   1.916  18.707  11.607
92193W        W63919  30.657  27.906  11.710
92194W        W63920  14.654   3.216  11.916
92195W        W63921  14.871   0.993   4.613
92196W        W63922   4.514  12.236  13.007
92197W        W63923   4.905  11.150   4.270
92198W        W63924   1.048  34.802   2.577
92199W        W63925  36.480  26.422   3.740
92200W        W63926  28.123  13.825   0.659
92201W        W63927  36.887  36.093  13.051
92202W        W63928  40.013  21.659   3.180
92203W        W63929  31.160  38.867   3.473
92204W        W63930  14.646  31.429  14.942
92205W        W63931  21.709  32.493   2.457
92206W        W63932  33.226  44.404  13.432
92207W        W63933   7.887   0.964   3.999
92208W        W63934  25.835  32.958   0.331
92209W        W63935  36.871  39.907   0.002
92210W        W63936  27.563  34.117   4.628
92211W        W63937  26.706  15.642   5.035
92212W        W63938   0.600  38.107   1.440
92213W        W63939  13.914  19.223  10.735
92214W        W63940  33.988   0.459   0.324
92215W        W63941   5.097  13.979   0.746
92216W        W63942  43.191  24.189  13.818
92217W        W63943  33.122   5.720  14.087
92218W        W63944  42.709  31.553   4.375
92219W        W63945   0.691  22.939   2.730
92220W        W63946  18.271  44.644  12.070
92221W        W63947   4.902  31.615  10.703
92222W        W63948   0.750  30.165  12.026
92223W        W63949   7.175  42.160   1.742
92224W        W63950   5.997   8.783  14.590
92225W        W63951  21.624  25.117   4.199
92226W        W63952  35.987   8.543   4.221
92227W        W63953  21.611  32.925   0.473
92228W        W63954  12.191  38.150  11.245
92229W        W63955  24.099  35.643  14.866
92230W        W63956  12.849  24.905  12.003
92231W        W63957  44.277   8.942   3.725
92232W        W63958  19.985   4.930   0.516
92233W        W63959  10.167  36.859   3.687
92234W        W63960  13.172  15.531   2.763
92235W        W63961  25.885  30.413   2.496
92236W        W63962  12.241  36.460   0.761
92237W        W63963  29.861  22.160   4.324
92238W        W63964  16.181  10.827   2.352
92239W        W63965  11.106  29.575   1.861
92240W        W63966   7.141  44.223   3.971
92241W        W63967   1.153  28.628  10.646
92242W        W63968  13.187   3.080  13.788
92243W        W63969  16.608  25.894   4.735
92244W        W63970  16.119  24.587  11.855
92245W        W63971  41.496   3.846  14.906
92246W        W63972   2.957  11.598   4.622
92247W        W63973   4.469  34.474   1.307
92248W        W63974   8.750  34.632  11.142
92249W        W63975  38.457   5.256  10.720
92250W        W63976  35.058   2.083  11.041
92251W        W63977  43.200  34.969   4.050
92252W        W63978  39.923   5.044  13.989
92253W        W63979  42.024  24.513   1.390
92254W        W63980  12.324  41.032  14.766
92255W        W63981  17.979  11.758   0.934
92256W        W63982  35.594  15.151  11.210
92257W        W63983  42.911  35.406   2.423
92258W        W63984  27.888   3.635  11.610
92259W        W63985  26.600  14.388   4.328
92260W        W63986  28.390   8.872  11.396
92261W        W63987  11.435  12.838  14.877
92262W        W63988  16.323   7.763   1.607
92263W        W63989  16.244   1.067  12.982
92264W        W63990  16.635  30.347  12.017
92265W        W63991  13.428  16.377   2.368
92266W        W63992  31.405  14.542   3.805
92267W        W63993  16.111   1.744  11.203
92268W        W63994  39.569  19.136  10.701
92269W        W63995  19.224   4.795  10.554
92270W        W63996   9.420  18.183   3.165
92271W        W63997  35.370   6.360   0.953
92272W        W63998   0.139   7.784  12.608
92273W        W63999  31.517  14.142   1.697
92274W        W64000  30.913  40.948   3.098
92275W        W64001  10.227   9.076   1.860
92276W        W64002  28.925  39.048   0.781
92277W        W64003  13.769  26.701  11.695
92278W        W64004   6.193  44.369  10.102
92279W        W64005  30.480  14.603   2.254
92280W        W64006  29.972  22.642   2.072
92281W        W64007   7.235  25.243   0.695
92282W        W64008   9.345  38.523  11.074
92283W        W64009  11.527  28.575   0.901
92284W        W64010  43.078   9.123   0.609
92285W        W64011   1.512  13.893   3.665
92286W        W64012  10.367  31.653  11.147
92287W        W64013   7.272  37.640   4.307
92288W        W64014  15.630   7.450   1.659
92289W        W64015  17.835  28.879   0.779
92290W        W64016  19.901   0.791   0.866
92291W        W64017  35.546  15.143   4.803
92292W        W64018  22.103  17.745  11.978
92293W        W64019  35.544   5.619  11.117
92294W        W64020  15.827  24.005  12.505
92295W        W64021  20.825  19.688  11.676
92296W        W64022  27.596  41.214   1.433
92297W        W64023   7.644  35.964  13.795
92298W        W64024  14.629  39.825  13.923
92299W        W64025  20.010   8.452  11.090
92300W        W64026  36.872  41.550   3.275
92301W        W64027  33.044   8.048   3.661
92302W        W64028  35.001  15.730   3.114
92303W        W64029  13.654  37.971  12.834
92304W        W64030   1.357   0.962   4.587
92305W        W64031   9.425  11.610   1.208
92306W        W64032  17.215  34.102  12.426
92307W        W64033  39.420  38.500   2.439
92308W        W64034  17.687  17.800   3.846
92309W        W64035  28.415  17.276  13.532
92310W        W64036  35.587  22.638   0.311
92311W        W64037  21.655  18.674   0.701
92312W        W64038  22.513   8.760  12.355
92313W        W64039   0.521  28.507   3.150
92314W        W64040  26.742   8.107  12.812
92315W        W64041  20.167  13.274   3.844
92316W        W64042  24.713  26.436   1.785
92317W        W64043  27.283   3.822   1.524
92318W        W64044   0.782  14.679  13.451
92319W        W64045  21.436  15.299  10.128
92320W        W64046  40.006  27.648   2.854
92321W        W64047  18.910  37.488  11.152
92322W        W64048  28.669   2.194  14.508
92323W        W64049  26.396  34.429   0.111
92324W        W64050  25.315  37.815  13.968
92325W        W64051  31.660  16.706  10.382
92326W        W64052  14.365   4.959  13.454
92327W        W64053  30.870   0.911  13.860
92328W        W64054  25.497   2.445   2.202
92329W        W64055   3.977  14.896  10.781
92330W        W64056  35.258  19.636  10.750
92331W        W64057  31.814  10.574  12.715
92332W        W64058  35.912  24.764   2.266
92333W        W64059  39.562  20.471   2.349
92334W        W64060  43.972   8.599  12.526
92335W        W64061   5.722  15.839   4.732
92336W        W64062  33.388   8.733   4.296
92337W        W64063  43.089  29.049   3.764
92338W        W64064  37.681  10.161  13.689
92339W        W64065  17.556  14.514   1.456
92340W        W64066   8.642  35.908  12.645
92341W        W64067   5.949  31.210  11.104
92342W        W64068  27.183  23.466  11.572
92343W        W64069   6.245  16.701   2.124
92344W        W64070   3.147   1.541  10.658
92345W        W64071  21.635  44.595   4.069
92346W        W64072   9.191  18.997   2.910
92347W        W64073  43.436  16.579  10.520
92348W        W64074  29.223  28.122   2.284
92349W        W64075   7.780   9.404   1.305
92350W        W64076  10.384  31.404   4.123
92351W        W64077  27.621  34.631  10.416
92352W        W64078  38.337  39.528  11.542
92353W        W64079  28.652  11.736   0.847
92354W        W64080  41.284  34.851   2.733
92355W        W64081  18.323  18.114  14.336
92356W        W64082  30.998  25.041  12.347
92357W        W64083   1.753  42.554   2.873
92358W        W64084  36.956  41.543   1.344
92359W        W64085  12.312  16.350   0.374
92360W        W64086  21.718   9.460  13.013
92361W        W64087  20.776  42.572  11.041
92362W        W64088  35.937  44.534  13.837
92363W        W64089   6.441  25.627  13.392
92364W        W64090  33.290  19.213  13.391
92365W        W64091   7.510  33.166  11.631
92366W        W64092  36.030  29.458   3.610
92367W        W64093  36.140  36.943   3.626
92368W        W64094  35.782   8.364  13.921
92369W        W64095  24.175  29.717   3.583
92370W        W64096   1.516  11.639  14.357
92371W        W64097  43.104  16.211   0.241
92372W        W64098  10.249  16.283  12.082
92373W        W64099  29.061  31.593   2.438
92374W        W64100  44.012  10.711   0.244
92375W        W64101  11.520  19.510   3.109
92376W        W64102   7.955  24.220   2.375
92377W        W64103  40.341   5.641   4.108
92378W        W64104  35.591  37.393   3.194
92379W        W64105   0.904  17.543  12.499
92380W        W64106  40.922  18.557  14.956
92381W        W64107  12.723  24.963   0.747
92382W        W64108   2.921  41.711   4.822
92383W        W64109  40.510  40.428  12.490
92384W        W64110   1.331  22.590  11.970
92385W        W64111   5.932  15.522   3.793
92386W        W64112  24.700  36.348   0.696
92387W        W64113   3.932  16.555  10.662
92388W        W64114   9.944  15.886   0.921
92389W        W64115  38.332  29.890   1.976
92390W        W64116   3.874  13.903   0.450
92391W        W64117  42.898  23.676   1.698
92392W        W64118  27.730  20.198   2.669
92393W        W64119  22.041  36.319  14.930
92394W        W64120  38.269  30.952   3.456
92395W        W64121  28.662  24.549   4.887
92396W        W64122  15.824  40.352   4.519
92397W        W64123   5.684  20.211  13.994
92398W        W64124  31.480  14.028   3.749
92399W        W64125  41.717  22.666  10.551
92400W        W64126  41.236   2.280  11.777
92401W        W64127  41.799   8.319   2.795
92402W        W64128  19.944  20.066  12.998
92403W        W64129   5.769  37.028   2.807
92404W        W64130   7.628  15.333  14.607
92405W        W64131  34.617  38.887   1.989
92406W        W64132  27.330  27.995   2.091
92407W        W64133  23.707  22.071   3.402
92408W        W64134   4.964  12.645   1.244
92409W        W64135  39.848   5.013   3.743
92410W        W64136  25.191   8.137  11.143
92411W        W64137  11.234  25.929   0.946
92412W        W64138  10.838  40.476  14.847
92413W        W64139  20.081  11.750   3.723
92414W        W64140  33.125  41.410   2.838
92415W        W64141  17.084   5.288   3.150
92416W        W64142   5.796  34.611  13.765
92417W        W64143  10.639  24.012  12.792
92418W        W64144  39.053  16.332  13.002
92419W        W64145  13.334   6.265  12.940
92420W        W64146  15.732  35.010  12.447
92421W        W64147  34.045  23.580   4.122
92422W        W64148  15.328  27.670   0.840
92423W        W64149  44.241  44.900  14.963
92424W        W64150  24.090  19.617   3.758
92425W        W64151  30.992  21.821  11.087
92426W        W64152  29.217  26.576  10.635
92427W        W64153   7.056   6.457   5.043
92428W        W64154  44.393   1.190  12.571
92429W        W64155  44.451  15.842  11.548
92430W        W64156   1.747  39.934   4.448
92431W        W64157  13.682  17.280   2.471
92432W        W64158  14.150   9.224  12.102
92433W        W64159  16.207  23.573  10.959
92434W        W64160  13.632  13.608   2.374
92435W        W64161  42.112   3.457   4.090
92436W        W64162  41.256  37.023   4.642
92437W        W64163  24.597  23.270  12.140
92438W        W64164  23.592   8.835   0.536
92439W        W64165  30.991  14.787   3.634
92440W        W64166  28.758  35.813  12.741
92441W        W64167  16.794  37.082  14.999
92442W        W64168  36.460  15.368   3.737
92443W        W64169   4.853   0.310   2.701
92444W        W64170  13.172  15.282   0.975
92445W        W64171  37.404  27.160   4.991
92446W        W64172  37.739   8.226   4.007
92447W        W64173   0.825   9.343  11.680
92448W        W64174  29.276  33.439   1.713
92449W        W64175  37.078   2.734   1.799
92450W        W64176  32.687  40.104  12.055
92451W        W64177  41.787  27.193  12.851
92452W        W64178  40.415  11.977   2.833
92453W        W64179  36.894  19.036  12.908
92454W        W64180  18.267  31.628   4.137
92455W        W64181  22.225  18.665   1.323
92456W        W64182  38.463   9.520  11.102
92457W        W64183  23.473  39.197  12.820
92458W        W64184   3.691  22.760  11.644
92459W        W64185  32.041   8.430   1.710
92460W        W64186   2.847  37.946   1.656
92461W        W64187   0.074  41.985   4.777
92462W        W64188  44.377  16.026   1.325
92463W        W64189   6.933   8.836   1.167
92464W        W64190  37.474   0.878   1.948
92465W        W64191  17.244  22.625   5.098
92466W        W64192  26.664  35.493  10.682
92467W        W64193  12.900  39.941   4.655
92468W        W64194   1.831  19.729  13.962
92469W        W64195  43.281  27.316  12.519
92470W        W64196  35.476  37.773  14.517
92471W        W64197   5.450   9.201  13.794
92472W        W64198  27.194  28.466   1.249
92473W        W64199  35.929  26.578  12.517
92474W        W64200  33.888   3.910   2.402
92475W        W64201   3.020  19.094   1.396
92476W        W64202   5.936   8.091   3.325
92477W        W64203  40.412  33.088  10.993
92478W        W64204   9.793  30.523   3.378
92479W        W64205   4.389  25.498  13.190
92480W        W64206  32.433  30.434  13.636
92481W        W64207  27.202  15.362  10.950
92482W        W64208  36.956   9.212  10.788
92483W        W64209  19.067   3.082   3.309
92484W        W64210  24.863  35.940  13.879
92485W        W64211   9.582   8.361   0.665
92486W        W64212   6.473  15.069   4.214
92487W        W64213  12.342  13.667   2.752
92488W        W64214  32.870  17.956   3.502
92489W        W64215  42.475  41.987  12.020
92490W        W64216  40.924  13.737   4.633
92491W        W64217  28.630  34.935  13.071
92492W        W64218   2.030  19.228   0.389
92493W        W64219  10.022  25.487   3.044
92494W        W64220  13.743  39.363  11.615
92495W        W64221   8.859  33.949  14.900
92496W        W64222   6.288   5.793   0.303
92497W        W64223  41.427  22.271  10.807
92498W        W64224  37.597  18.646  14.368
92499W        W64225  18.800   9.139   2.629
92500W        W64226  30.912  21.494   4.586
92501W        W64227  30.934   1.317   3.591
92502W        W64228  41.779  36.984   4.654
92503W        W64229  21.233   0.805   2.585
92504W        W64230  36.908   5.666  14.916
92505W        W64231   3.901  32.511   2.680
92506W        W64232  36.732  14.218   3.697
92507W        W64233  31.495  37.479   4.222
92508W        W64234  33.603   1.091   0.447
92509W        W64235  35.407  24.508  13.258
92510W        W64236   5.226  24.558   3.242
92511W        W64237  41.963  22.282  10.299
92512W        W64238  27.437  18.002  14.858
92513W        W64239  15.262  19.618   1.467
92514W        W64240   6.952  22.963  11.112
92515W        W64241  23.578  31.550   0.521
92516W        W64242  24.188   8.655   4.502
92517W        W64243  17.079  10.770   4.824
92518W        W64244  35.330  26.264  14.047
92519W        W64245  31.396  22.335  12.519
92520W        W64246  13.807  25.782   3.315
92521W        W64247  28.421   0.815  14.771
92522W        W64248  14.752  22.329   3.868
92523W        W64249   2.336  26.174   4.091
92524W        W64250  16.288  39.093  14.428
92525W        W64251   4.068   8.273  10.521
92526W        W64252  44.724  25.193   5.023
92527W        W64253  22.624  42.923   0.441
92528W        W64254  23.076   0.346   3.407
92529W        W64255   6.213  40.086  12.268
92530W        W64256  21.064   8.104  14.761
92531W        W64257  11.880   1.300   4.664
92532W        W64258  33.089  19.189   4.804
92533W        W64259  13.463   5.378   4.090
92534W        W64260  25.134  27.138  11.433
92535W        W64261   8.709  18.492  12.405
92536W        W64262  36.592  32.568  12.617
92537W        W64263   1.471  30.217  11.112
92538W        W64264  13.771  19.545   3.663
92539W        W64265   0.957   0.623   5.027
92540W        W64266   2.419   0.447   4.277
92541W        W64267  31.216  13.373  12.850
92542W        W64268  44.697  28.037   0.879
92543W        W64269   1.839  25.849  13.079
92544W        W64270  18.972  30.956   4.712
92545W        W64271  31.481  19.048   3.701
92546W        W64272  39.209  24.111   0.981
92547W        W64273  42.432  27.905   0.470
92548W        W64274  16.203  15.195   4.696
92549W        W64275  13.301   4.203  13.832
92550W        W64276  12.068   1.930   0.873
92551W        W64277  41.393  13.103   1.775
92552W        W64278   0.932  14.108   0.925
92553W        W64279  24.977  43.986   2.241
92554W        W64280  16.462  15.669   0.873
92555W        W64281   0.919  30.195   1.714
92556W        W64282   6.130  24.144  10.457
92557W        W64283  25.556  40.805  12.068
92558W        W64284  26.437  26.058  10.781
92559W        W64285  41.792  29.589   3.811
92560W        W64286  32.843  33.017   3.199
92561W        W64287  41.424  29.704  11.967
92562W        W64288  13.275  39.038   4.148
92563W        W64289  40.475  25.220   1.770
92564W        W64290  31.457  25.422  13.496
92565W        W64291  28.406   2.999  13.094
92566W        W64292  10.122  39.781  11.382
92567W        W64293  16.120  19.516   4.494
92568W        W64294  34.122  32.057  10.684
92569W        W64295  31.892  10.660  10.895
92570W        W64296  33.509   2.454  11.950
92571W        W64297  38.308  32.135   4.267
92572W        W64298  11.198  36.512  11.102
92573W        W64299  21.333   2.515   3.802
92574W        W64300  13.200  34.273  12.509
92575W        W64301  17.058  16.085   0.411
92576W        W64302  25.653  43.476  13.275
92577W        W64303  33.010  32.949   4.661
92578W        W64304  15.523   2.965   4.137
92579W        W64305  13.251  34.305  13.733
92580W        W64306  16.079  44.725  13.494
92581W        W64307  37.293  23.031  12.484
92582W        W64308  44.262  38.029  14.280
92583W        W64309  34.015  37.518   0.964
92584W        W64310  33.424   5.654  14.511
92585W        W64311  11.343  25.016   2.021
92586W        W64312  29.922  30.852  11.110
92587W        W64313  43.276  29.522  11.514
92588W        W64314   4.921   1.946  11.543
92589W        W64315  21.499  19.134  11.958
92590W        W64316  34.023   9.096   0.817
92591W        W64317  36.070  39.441  10.665
92592W        W64318  40.991  32.365  14.305
92593W        W64319  17.195  39.545   3.624
92594W        W64320  31.562   0.797   2.318
92595W        W64321   8.310   7.458   2.180
92596W        W64322  38.116  37.878  14.030
92597W        W64323  10.864  33.364   0.595
92598W        W64324  38.502  11.138   2.193
92599W        W64325  31.969  26.663  12.562
92600W        W64326  17.086   1.752  12.014
92601W        W64327   0.332  25.002  11.687
92602W        W64328  10.842  19.582   2.659
92603W        W64329  29.372  34.301   3.246
92604W        W64330  42.848  28.755   3.426
92605W        W64331   7.819  31.688   0.305
92606W        W64332  32.086   4.619   1.997
92607W        W64333  41.368  14.127   3.552
92608W        W64334  18.656  44.309   3.710
92609W        W64335  11.967  21.676  10.704
92610W        W64336   9.416   1.155  12.871
92611W        W64337   3.895  34.893   4.290
92612W        W64338   3.965  24.087  10.021
92613W        W64339  11.088  37.915   2.396
92614W        W64340  20.200  32.919  11.205
92615W        W64341   6.356  11.356   0.343
92616W        W64342  28.048  39.371   1.704
92617W        W64343  31.738   2.164   1.224
92618W        W64344  27.367  14.572   1.842
92619W        W64345   3.878  38.921  12.536
92620W        W64346  18.771  26.265  14.292
92621W        W64347  29.412  16.176   2.439
92622W        W64348  32.904  38.657  13.028
92623W        W64349  30.047  24.645  13.854
92624W        W64350  22.062  24.876   4.311
92625W        W64351  12.156  38.295   1.303
92626W        W64352  17.217  28.447  10.364
92627W        W64353  20.325  24.276   0.752
92628W        W64354   5.193  25.294  10.998
92629W        W64355  43.819  12.232   4.041
92630W        W64356  21.539  20.733   3.707
92631W        W64357  39.344  43.524  12.340
92632W        W64358  18.476   6.405   1.330
92633W        W64359   2.196  37.986   2.226
92634W        W64360  14.220  44.312   4.581
92635W        W64361  15.871  44.125   5.204
92636W        W64362   7.729  17.285  12.519
92637W        W64363  19.760  44.505   1.439
92638W        W64364  19.437   3.692  12.824
92639W        W64365  42.785  29.879  14.461
92640W        W64366  35.012  19.594   3.748
92641W        W64367  34.911  26.002  13.852
92642W        W64368  18.810   9.613   2.903
92643W        W64369  11.700   8.713  11.495
92644W        W64370  23.091  33.364   2.914
92645W        W64371  17.663  35.400   3.631
92646W        W64372  34.078   1.271  12.887
92647W        W64373   4.984  32.938  12.756
92648W        W64374  25.766  11.950  11.077
92649W        W64375  31.576  32.947   1.229
92650W        W64376   9.810  27.549  14.669
92651W        W64377  44.815  36.465  13.877
92652W        W64378  43.850  11.943   0.319
92653W        W64379  43.886   0.834  14.123
92654W        W64380  44.452  17.713   4.588
92655W        W64381  36.181  30.849  13.204
92656W        W64382  32.934  37.657  13.722
92657W        W64383  20.703  23.749   0.426
92658W        W64384  23.421  29.351   5.002
92659W        W64385  40.702  38.005  10.931
92660W        W64386   8.277  34.512  14.451
92661W        W64387  31.886  42.971   2.309
92662W        W64388  12.435  37.661  13.185
92663W        W64389  31.389  24.522   0.146
92664W        W64390  30.709  15.586  10.597
92665W        W64391  36.984   0.737  11.124
92666W        W64392   7.862   0.300  14.695
92667W        W64393   0.847  23.676   0.031
92668W        W64394  42.109  42.541   4.258
92669W        W64395   2.209  34.785   0.367
92670W        W64396  31.405   5.010  10.686
92671W        W64397   7.447   9.977  13.359
92672W        W64398  14.842  37.919  13.432
92673W        W64399  10.313  37.955   2.805
92674W        W64400  14.789  39.202  10.235
92675W        W64401   9.380  12.597  11.990
92676W        W64402   5.613   7.545  10.281
92677W        W64403  35.968   8.258   4.651
92678W        W64404  17.793  23.347  11.192
92679W        W64405  35.171  20.280  14.323
92680W        W64406  42.853  42.550   0.416
92681W        W64407  31.105  12.339   2.641
92682W        W64408  44.837   9.777   0.221
92683W        W64409  21.702  41.896  14.711
92684W        W64410   8.305  44.573  14.340
92685W        W64411  44.005  11.602   3.604
92686W        W64412  41.384  31.074   4.262
92687W        W64413  11.855  41.483   1.454
92688W        W64414  35.141  18.888  13.789
92689W        W64415   9.777  21.024   3.381
92690W        W64416  41.399  32.030   2.680
92691W        W64417   7.679  39.948  11.874
92692W        W64418  11.613   1.223  12.480
92693W        W64419   3.954  12.799   3.763
92694W        W64420  26.706  10.737   4.162
92695W        W64421  24.937   5.662  11.891
92696W        W64422   7.267  13.194  14.888
92697W        W64423  19.120  18.522   4.173
92698W        W64424  27.063  29.403  11.572
92699W        W64425  12.291  33.130   0.543
92700W        W64426  20.155  15.918  14.763
92701W        W64427   9.757  43.485  13.035
92702W        W64428   7.622  19.540   1.742
92703W        W64429  43.942  23.946  14.439
92704W        W64430  15.773  24.674  14.371
92705W        W64431  29.792  36.925   1.557
92706W        W64432  18.324  35.512  11.852
92707W        W64433  10.316  31.362  13.481
92708W        W64434   7.351   4.210  10.996
92709W        W64435   0.142  21.059  12.940
92710W        W64436  22.789  13.573   3.422
92711W        W64437  34.585  41.389  12.842
92712W        W64438  10.473  16.165  13.869
92713W        W64439  31.629  26.693  10.915
92714W        W64440   6.142  21.749  14.750
92715W        W64441  25.160  30.976  14.204
92716W        W64442  18.548  20.696  12.011
92717W        W64443  32.640  14.861   1.829
92718W        W64444  20.634  34.724  14.599
92719W        W64445  26.052   2.757  13.812
92720W        W64446  17.151  24.532  12.421
92721W        W64447  12.194  38.905  10.728
92722W        W64448  35.907  38.887  13.299
92723W        W64449   4.652   4.200  13.285
92724W        W64450   8.863  26.000   5.529
92725W        W64451  17.383  39.304  14.094
92726W        W64452  29.243  42.229  14.102
92727W        W64453  25.361  11.662  14.036
92728W        W64454  29.921  34.177  10.731
92729W        W64455  11.655  20.048  14.785
92730W        W64456  41.518  23.704  11.087
92731W        W64457   2.589  38.372  11.937
92732W        W64458  10.236  16.254   4.066
92733W        W64459  31.884  20.012  11.208
92734W        W64460  26.283  19.808   0.929
92735W        W64461   2.500  13.226  12.015
92736W        W64462  43.282  24.515   3.240
92737W        W64463  33.547  19.758  11.441
92738W        W64464  12.368   1.538   3.718
92739W        W64465  15.558  18.247  13.288
92740W        W64466  22.627  42.446   0.653
92741W        W64467  39.471  18.106   0.912
92742W        W64468  11.263   6.792  11.359
92743W        W64469  40.806   2.558  11.576
92744W        W64470  40.156  27.453  14.803
92745W        W64471  14.466  12.245   2.265
92746W        W64472  11.588  14.588   3.785
92747W        W64473  30.695  36.454   4.585
92748W        W64474   4.194   9.422   1.373
92749W        W64475  28.223  15.867  13.405
92750W        W64476  42.025  35.922   3.732
92751W        W64477  19.528   2.376   4.548
92752W        W64478   0.939   6.982  11.264
92753W        W64479  17.273  11.716  10.972
92754W        W64480  28.023  43.259   3.727
92755W        W64481  21.537  44.234  14.997
92756W        W64482  36.320  24.799  11.095
92757W        W64483  14.975  43.408   3.288
92758W        W64484  39.609  43.387  11.103
92759W        W64485  40.928  25.975   3.080
92760W        W64486  32.507  23.250   2.693
92761W        W64487  37.954  39.364  13.743
92762W        W64488  43.559  43.019   1.893
92763W        W64489  16.246   4.674   1.817
92764W        W64490  12.183  43.674  14.308
92765W        W64491  20.268  37.465   1.183
92766W        W64492   6.897  38.266   1.847
92767W        W64493  16.304   2.738   0.369
92768W        W64494  39.381  23.144   1.903
92769W        W64495  21.321  38.529   2.384
92770W        W64496  40.515  16.645  12.033
92771W        W64497  27.822  26.216  13.964
92772W        W64498   6.249  16.818   0.708
92773W        W64499  13.815  27.523  11.043
92774W        W64500  18.512  39.845   0.300
92775W        W64501  40.346  24.209   4.547
92776W        W64502  27.181   9.450   1.433
92777W        W64503  41.882  23.152  12.993
92778W        W64504  44.438  17.494  11.087
92779W        W64505  17.053  30.108  14.796
92780W        W64506   5.456   5.696  10.977
92781W        W64507  43.717   6.590  14.474
92782W        W64508  38.016  18.295   5.224
92783W        W64509  40.599  25.726   1.724
92784W        W64510  29.102   1.023  12.860
92785W        W64511  43.834   8.168  11.086
92786W        W64512  40.886  17.401  11.592
92787W        W64513  30.185   9.815  11.215
92788W        W64514   1.246   6.625   2.851
92789W        W64515   8.841  34.361  11.590
92790W        W64516   4.432   8.857   3.840
92791W        W64517   8.391   6.841  12.560
92792W        W64518  35.405  43.340   0.839
92793W        W64519  21.948  28.379   4.585
92794W        W64520  35.859  29.637  12.943
92795W        W64521  16.617  39.887  14.868
92796W        W64522  34.463  23.270   1.883
92797W        W64523  10.287  33.380   3.156
92798W        W64524  17.350   2.544  11.229
92799W        W64525  39.343   2.874   3.093
92800W        W64526   2.932  32.157  14.103
92801W        W64527  29.552  24.534  12.543
92802W        W64528  34.916  11.326  14.000
92803W        W64529   4.836  40.999  12.487
92804W        W64530  20.239  39.323  13.424
92805W        W64531  15.162  11.585  10.771
92806W        W64532  43.395  20.021   0.296
92807W        W64533  34.274  16.433   3.123
92808W        W64534  11.377  11.201   4.534
92809W        W64535  26.458  11.141   1.257
92810W        W64536   4.321  41.493   4.395
92811W        W64537  39.883  13.187   1.823
92812W        W64538   5.463   8.866  11.956
92813W        W64539   5.310   4.902   2.842
92814W        W64540  37.472   4.371  13.035
92815W        W64541  14.654  18.435   2.759
92816W        W64542  14.711  35.416   3.366
92817W        W64543   3.758  39.715  14.934
92818W        W64544  38.834  14.792   0.784
92819W        W64545  36.030  25.770  14.377
92820W        W64546  17.237   7.555   1.316
92821W        W64547  10.833  31.722   3.235
92822W        W64548  22.191  10.724  13.395
92823W        W64549  13.522  37.934   3.857
92824W        W64550  25.033   8.147  14.714
92825W        W64551   1.395  38.841  14.277
92826W        W64552  13.079  40.223   3.118
92827W        W64553   4.599   5.489   5.376
92828W        W64554  35.643  27.064  10.531
92829W        W64555  13.286  14.545  13.999
92830W        W64556  39.799  36.372  12.097
92831W        W64557   8.823  37.117  13.003
92832W        W64558  25.887  34.745   2.030
92833W        W64559  16.676  16.677   3.193
92834W        W64560  10.704   6.837   4.338
92835W        W64561  33.955  29.979   3.390
92836W        W64562  19.295  24.089   3.829
92837W        W64563  36.922  12.987   3.194
92838W        W64564   4.472   6.240  10.687
92839W        W64565   0.857  15.408  12.547
92840W        W64566  31.061  32.824  12.841
92841W        W64567  31.908  28.439   2.198
92842W        W64568  44.574   5.737   0.782
92843W        W64569  18.617  16.299   3.146
92844W        W64570   3.938  36.866   1.911
92845W        W64571  11.888  18.797  11.081
92846W        W64572  26.249  42.965  10.707
92847W        W64573   8.293  10.333   2.462
92848W        W64574   1.349  41.607   1.699
92849W        W64575  42.341  20.206   4.862
92850W        W64576  18.701  29.480  13.194
92851W        W64577   0.334  15.625  13.869
92852W        W64578  23.872  38.409  14.449
92853W        W64579  24.248  34.558   1.722
92854W        W64580  41.468  13.909   1.015
92855W        W64581  13.629  34.525   2.283
92856W        W64582  32.534  38.821  11.821
92857W        W64583  10.615  20.685   0.955
92858W        W64584  36.153  41.082  11.571
92859W        W64585   0.343  21.227   0.945
92860W        W64586  38.050  33.808  14.304
92861W        W64587   3.974   7.842   4.704
92862W        W64588  19.847  37.418   1.779
92863W        W64589  13.593  19.045   1.622
92864W        W64590  39.812  18.991  12.014
92865W        W64591   4.490  18.832   1.138
92866W        W64592   4.705  14.446   0.709
92867W        W64593  23.323  44.469   0.351
92868W        W64594  18.091  39.875  14.976
92869W        W64595   8.203   9.692   1.231
92870W        W64596  21.306  25.653   1.827
92871W        W64597  19.034  14.531  12.908
92872W        W64598  23.572  27.701   3.719
92873W        W64599  30.746  13.667   4.206
92874W        W64600  21.048  38.832  14.415
92875W        W64601   3.654   2.431   0.649
92876W        W64602  33.451  15.643   3.685
92877W        W64603  39.949  23.785   1.455
92878W        W64604   6.380  24.647   3.669
92879W        W64605  10.698  34.878   2.365
92880W        W64606  16.835   2.322   1.274
92881W        W64607  40.828  35.889  11.457
92882W        W64608   4.547  26.476   2.707
92883W        W64609  36.007  14.138  12.084
92884W        W64610  43.865  34.914  11.642
92885W        W64611  11.775  15.765  12.374
92886W        W64612  44.892   4.464   4.203
92887W        W64613   6.585   4.838  11.809
92888W        W64614   6.851  39.536   4.589
92889W        W64615   1.416  13.756   4.574
92890W        W64616  11.214  19.082   3.212
92891W        W64617  26.197  16.115   1.736
92892W        W64618  29.504  42.927   1.715
92893W        W64619   5.512  35.353   4.095
92894W        W64620  17.784  40.907  11.055
92895W        W64621   5.734  28.886  12.418
92896W        W64622  10.787  32.099  12.517
92897W        W64623  34.900  29.459   1.628
92898W        W64624  39.892  43.276   0.088
92899W        W64625   7.754  31.979   4.920
92900W        W64626  44.494  11.800   2.681
92901W        W64627  21.557  40.493   3.210
92902W        W64628  40.521  14.973  11.153
92903W        W64629   8.367   5.214  13.229
92904W        W64630  32.898  21.153   2.347
92905W        W64631  10.679  21.973  11.219
92906W        W64632  17.711  17.153   0.936
92907W        W64633  30.876  16.054   2.363
92908W        W64634   0.288   6.292   2.327
92909W        W64635   6.277  31.130  13.104
92910W        W64636  31.907   2.290  10.601
92911W        W64637   7.490  40.385  11.699
92912W        W64638  43.258  11.228   0.482
92913W        W64639  28.153  30.090  13.935
92914W        W64640   7.557  14.825  11.501
92915W        W64641  19.588  44.399   2.881
92916W        W64642  42.977  22.567  11.867
92917W        W64643  18.006  19.791  11.111
92918W        W64644   1.288   2.978  11.697
92919W        W64645  29.344  13.857   3.186
92920W        W64646  41.940  28.080   5.075
92921W        W64647  14.884  33.369  10.079
92922W        W64648  22.196  10.146   0.687
92923W        W64649  43.235   2.310   4.074
92924W        W64650  20.606  24.184  14.964
92925W        W64651  22.086  29.074  12.961
92926W        W64652  36.681  24.955   1.405
92927W        W64653  40.477  21.611  14.352
92928W        W64654   6.241   0.268   2.644
92929W        W64655  15.810   1.525   1.842
92930W        W64656  28.696  22.138  12.888
92931W        W64657  12.091  30.636  14.231
92932W        W64658  42.286  36.845   4.645
92933W        W64659   3.915  40.001   2.271
92934W        W64660  20.121  26.200  12.825
92935W        W64661  10.581   3.182  11.511
92936W        W64662  27.678  34.147  11.116
92937W        W64663  29.497  43.072  14.737
92938W        W64664  13.307  23.002  14.735
92939W        W64665  25.060  35.626  12.486
92940W        W64666   4.491  22.624   1.533
92941W        W64667  32.566  16.555   3.588
92942W        W64668  33.868  35.540  11.483
92943W        W64669  21.162  22.001   0.189
92944W        W64670   4.286  31.008   1.461
92945W        W64671   3.478  17.675   5.086
92946W        W64672   8.176  33.437   4.517
92947W        W64673   6.196   8.424   4.269
92948W        W64674  16.924  34.613   1.458
92949W        W64675  14.732   6.203  12.208
92950W        W64676  30.566  39.101  10.459
92951W        W64677  30.388  13.334  12.514
92952W        W64678  28.322   6.606   5.066
92953W        W64679  30.724  17.094   3.645
92954W        W64680  11.942  33.909  12.180
92955W        W64681  26.123  32.341   4.340
92956W        W64682   5.984  30.450   1.998
92957W        W64683   8.400   9.180  14.895
92958W        W64684   0.460  42.989   3.748
92959W        W64685  15.207  18.548  12.090
92960W        W64686  18.286  20.253  11.997
92961W        W64687  18.209  24.145  11.150
92962W        W64688  34.803  29.848   0.502
92963W        W64689  17.364  35.042   0.831
92964W        W64690  14.595  29.576   3.931
92965W        W64691  27.250  27.173   3.817
92966W        W64692  12.652  25.476   0.777
92967W        W64693  24.231  10.369  12.578
92968W        W64694  36.887  28.475  14.869
92969W        W64695  28.374  28.206  13.482
92970W        W64696   4.412   6.379  10.207
92971W        W64697  28.034  20.576  11.584
92972W        W64698  23.238  36.993  14.854
92973W        W64699   8.852  32.154  14.595
92974W        W64700  41.054  21.264   3.733
92975W        W64701  31.828  39.279   1.926
92976W        W64702  11.335   6.317   2.074
92977W        W64703   4.664  18.286   0.379
92978W        W64704  13.011   0.869  11.516
92979W        W64705   4.440  17.536   4.204
92980W        W64706  23.717  28.596   1.863
92981W        W64707   3.433  42.452   2.421
92982W        W64708  17.605  30.123   0.243
92983W        W64709   0.755   6.892  10.789
92984W        W64710  34.539  37.015  13.933
92985W        W64711   6.856  26.006  12.402
92986W        W64712  38.735   6.082   4.600
92987W        W64713  29.900   8.143  11.945
92988W        W64714  12.844  36.144  12.496
92989W        W64715  20.409  22.676  12.456
92990W        W64716  30.596   4.269   4.848
92991W        W64717  24.140  34.593   4.306
92992W        W64718   2.389  24.435   3.767
92993W        W64719  40.519  16.202  14.405
92994W        W64720  19.918  28.826   2.809
92995W        W64721  41.396  17.146  12.982
92996W        W64722  19.269  36.156   0.118
92997W        W64723  12.631  12.929   1.315
92998W        W64724  22.187  11.523   1.781
92999W        W64725  25.295  44.417   0.214
93000W        W64726  27.144  12.253   2.169
93001W        W64727  17.077  24.263   2.318
93002W        W64728  23.984  44.359  13.039
93003W        W64729   8.401  12.863   4.871
93004W        W64730  40.971   1.242   4.268
93005W        W64731   1.685  39.855   0.378
93006W        W64732   3.709  10.415  11.631
93007W        W64733  26.539   4.803   4.710
93008W        W64734  40.314  33.036   4.375
93009W        W64735  36.267  11.427  14.157
93010W        W64736   9.649   0.837   2.335
93011W        W64737   0.944  25.037   1.937
93012W        W64738  40.765  40.923  11.366
93013W        W64739  40.841  12.323  12.493
93014W        W64740   4.393  25.200  14.499
93015W        W64741  24.149  17.138  14.566
93016W        W64742   7.727  34.764   2.663
93017W        W64743  28.104   4.995   2.857
93018W        W64744   0.615  30.936  12.499
93019W        W64745  13.306  40.681  12.612
93020W        W64746  36.087  33.073  14.800
93021W        W64747   7.351  40.707  14.371
93022W        W64748  34.017   4.874   4.509
93023W        W64749  32.185   6.889   1.922
93024W        W64750  13.189  35.671  12.051
93025W        W64751  22.697  39.041   9.995
93026W        W64752  31.486  17.898  11.237
93027W        W64753   5.520  19.582  11.199
93028W        W64754  31.185  35.948  10.707
93029W        W64755  15.339   5.102  12.687
93030W        W64756  41.875  40.328  12.898
93031W        W64757  15.002  24.710   2.749
93032W        W64758   3.324  28.412   0.334
93033W        W64759  25.572  42.331  11.564
93034W        W64760  37.390  19.793  13.755
93035W        W64761  28.065  31.114  12.401
93036W        W64762  34.440  43.997  13.032
93037W        W64763  23.983  36.520  14.303
93038W        W64764  23.110   2.753   0.698
93039W        W64765  27.675   2.752  14.534
93040W        W64766   0.295  36.997   4.117
93041W        W64767  29.188  41.934  12.071
93042W        W64768  28.931  42.007   4.186
93043W        W64769  28.693  34.888   1.339
93044W        W64770  43.843  40.481  14.436
93045W        W64771   4.901  12.994   0.855
93046W        W64772  16.370   2.748  13.291
93047W        W64773  37.585  32.268  13.325
93048W        W64774   2.927   9.432  14.542
93049W        W64775  25.461   5.766  14.014
93050W        W64776  11.133  21.666  11.980
93051W        W64777  33.554  31.752  11.657
93052W        W64778   9.852  21.748   3.896
93053W        W64779  23.809  41.749  14.897
93054W        W64780  17.883  23.794   0.458
93055W        W64781   8.744   1.232   4.861
93056W        W64782  26.325  43.519  14.581
93057W        W64783  23.597  43.741  14.814
93058W        W64784  33.502   4.453   4.277
93059W        W64785  10.546  44.325  14.888
93060W        W64786  18.832  13.164  13.347
93061W        W64787  25.740  26.150   0.968
93062W        W64788  11.188   8.316   2.769
93063W        W64789  18.614   6.162   1.780
93064W        W64790  32.432  25.783   3.856
93065W        W64791  16.629   0.011   1.369
93066W        W64792   9.844  39.270   0.897
93067W        W64793   6.074  37.051  13.410
93068W        W64794   6.603  23.001   1.375
93069W        W64795  25.558  26.197  12.780
93070W        W64796  10.673  11.596  14.044
93071W        W64797  25.103  37.132   0.258
93072W        W64798   3.046  14.730  10.515
93073W        W64799  21.544  32.439  11.672
93074W        W64800   5.783  20.512  12.870
93075W        W64801  27.543  23.317   0.814
93076W        W64802   4.118  37.330   3.822
93077W        W64803  11.112  11.888   0.727
93078W        W64804  36.690  11.208   0.173
93079W        W64805   3.774  38.701   3.095
93080W        W64806  35.861  27.188  11.914
93081W        W64807  23.599  15.638  11.071
93082W        W64808  43.500   7.734   3.173
93083W        W64809  40.079  12.287  12.975
93084W        W64810  40.349  27.216   2.806
93085W        W64811  44.798   7.371  13.292
93086W        W64812  23.931  12.163  10.920
93087W        W64813  41.478  15.656  11.942
93088W        W64814   5.210  39.462   0.344
93089W        W64815  23.455  34.388  13.880
93090W        W64816  31.150  27.241  14.362
93091W        W64817  32.120  18.094  11.874
93092W        W64818   8.695  24.091  10.605
93093W        W64819   4.319  11.833   1.019
93094W        W64820  10.705  23.675   1.769
93095W        W64821  21.245   4.717  14.623
93096W        W64822  30.643  40.557   4.082
93097W        W64823  22.781   8.611  11.074
93098W        W64824  26.074  41.698  12.051
93099W        W64825  12.036  22.833   2.903
93100W        W64826  23.198  32.863   2.836
93101W        W64827  11.545  42.459  13.303
93102W        W64828  35.368  24.276   1.765
93103W        W64829  44.247  20.685   2.264
93104W        W64830  23.397   4.137   1.784
93105W        W64831  15.255  28.077   0.291
93106W        W64832  12.818   6.654   2.326
93107W        W64833  10.992  44.383   3.822
93108W        W64834  37.540  28.615   2.139
93109W        W64835   2.066  14.243   4.961
93110W        W64836  10.557  27.006   2.399
93111W        W64837  12.384  26.574   1.373
93112W        W64838  24.551   4.734  14.356
93113W        W64839   3.249   0.895   2.390
93114W        W64840   2.256  21.488   4.390
93115W        W64841  41.407  42.041  14.985
93116W        W64842  35.385  24.197  14.905
93117W        W64843  36.524  26.708   0.345
93118W        W64844  25.664   2.736  12.874
93119W        W64845  15.017   4.176  12.624
93120W        W64846  31.643   9.818  11.983
93121W        W64847  32.194  20.204  13.328
93122W        W64848  13.698  12.850  11.999
93123W        W64849  27.615  18.020   0.923
93124W        W64850  19.138  35.973   3.540
93125W        W64851  22.019   3.752   0.290
93126W        W64852  27.980  42.891  14.387
93127W        W64853  22.523  20.722   4.724
93128W        W64854  30.439  22.946   0.790
93129W        W64855  25.942  43.594   3.421
93130W        W64856  39.928  43.450  14.070
93131W        W64857  34.063  24.519   2.871
93132W        W64858  29.765   4.879   3.842
93133W        W64859   7.871  37.905  13.771
93134W        W64860  23.326  29.499  13.249
93135W        W64861  37.823  20.416  10.153
93136W        W64862  30.920  35.618  13.122
93137W        W64863  40.089  43.594  11.108
93138W        W64864  44.978   9.584  12.129
93139W        W64865   4.251  27.363   3.567
93140W        W64866  27.298  32.665   4.670
93141W        W64867  36.043  27.698   3.779
93142W        W64868  23.560  29.292  10.625
93143W        W64869   9.092   1.056  11.152
93144W        W64870   0.329  38.934  13.500
93145W        W64871  13.823   3.823   0.915
93146W        W64872  23.712  22.755   2.748
93147W        W64873  18.212   9.114  10.785
93148W        W64874   2.953  30.597   2.778
93149W        W64875   9.736  42.223   0.624
93150W        W64876  34.897  32.174   2.683
93151W        W64877  43.017  41.987   3.425
93152W        W64878  35.765  43.702   0.964
93153W        W64879  16.241  40.478   0.356
93154W        W64880  34.363   1.309   0.756
93155W        W64881  36.762  32.521  11.006
93156W        W64882   9.872  44.760  13.479
93157W        W64883  22.791  44.523  10.202
93158W        W64884  39.971  11.633   4.846
93159W        W64885  37.351  43.838   1.784
93160W        W64886   9.354  31.819   0.090
93161W        W64887  19.453  19.023   3.348
93162W        W64888  35.841  30.980  12.855
93163W        W64889  38.933   6.156   5.101
93164W        W64890  31.983  19.698   4.065
93165W        W64891  23.112   4.251  14.922
93166W        W64892  21.181   9.645   3.424
93167W        W64893   7.374  39.409   0.182
93168W        W64894  40.165  31.774  14.457
93169W        W64895  30.250  21.359  13.065
93170W        W64896  44.770   3.893   2.205
93171W        W64897  31.874  26.646   0.409
93172W        W64898  31.107  16.178   0.847
93173W        W64899  28.015   7.404   0.634
93174W        W64900  23.595   5.505  13.892
93175W        W64901  43.539  22.210   0.415
93176W        W64902   2.787   4.236  13.287
93177W        W64903  41.371   8.158   1.910
93178W        W64904  37.484  15.350   3.630
93179W        W64905  16.412  16.701   2.743
93180W        W64906  43.284  43.675  10.513
93181W        W64907  32.090   0.822   1.267
93182W        W64908  29.368  15.877   3.274
93183W        W64909  39.896  35.927  14.933
93184W        W64910  19.477  12.494   2.745
93185W        W64911   3.924  41.756   2.884
93186W        W64912  44.449  44.533   0.659
93187W        W64913   4.355  35.209   4.815
93188W        W64914  33.639  20.222   0.324
93189W        W64915   1.235  19.547   3.392
93190W        W64916   8.405  22.554  12.533
93191W        W64917  29.246  26.214   2.172
93192W        W64918  15.681  20.840   4.205
93193W        W64919  35.217  12.326  11.968
93194W        W64920  16.745  26.924  11.555
93195W        W64921  19.198  24.634   3.194
93196W        W64922  35.882  21.461  13.925
93197W        W64923  25.043  23.433  12.832
93198W        W64924  24.943  27.885  12.436
93199W        W64925  26.348  34.558  13.897
93200W        W64926  42.354  23.329   4.085
93201W        W64927  21.273  15.307  10.653
93202W        W64928  40.054  39.984   2.262
93203W        W64929  33.206  28.599  11.093
93204W        W64930  16.229  18.274  14.927
93205W        W64931  28.911  37.352   0.882
93206W        W64932  27.218  29.383  13.046
93207W        W64933   6.150   0.399  14.396
93208W        W64934  14.785  15.142   0.662
93209W        W64935  32.191  27.984   2.394
93210W        W64936   3.704  20.626  13.081
93211W        W64937   6.883  40.673   0.169
93212W        W64938   1.392   8.458   3.338
93213W        W64939  22.517  32.565  10.377
93214W        W64940  41.568  24.343  14.096
93215W        W64941  28.575  21.477  12.546
93216W        W64942  30.421   1.919   3.923
93217W        W64943  25.509  30.796   0.688
93218W        W64944  38.256   4.818   1.099
93219W        W64945  39.875  30.968  11.697
93220W        W64946   4.918   4.797   0.050
93221W        W64947  37.526  41.378  14.364
93222W        W64948  40.358  10.682  11.343
93223W        W64949   8.785  16.980   0.332
93224W        W64950  26.533  29.668   0.188
93225W        W64951  24.421  14.874   1.039
93226W        W64952  25.042  15.022   1.738
93227W        W64953  21.231   7.177   1.288
93228W        W64954  35.513   9.217   4.008
93229W        W64955  31.883  13.696  12.596
93230W        W64956  32.388  32.133  12.402
93231W        W64957  13.524  41.900  12.065
93232W        W64958  42.763  23.083  13.109
93233W        W64959   8.960  35.225   4.588
93234W        W64960  36.959   0.231  11.161
93235W        W64961  32.131  27.421  10.682
93236W        W64962  23.925  20.584   1.228
93237W        W64963  41.391  26.686   2.822
93238W        W64964  29.442  17.855  14.527
93239W        W64965   5.167   2.932  14.139
93240W        W64966  37.890  29.141  10.700
93241W        W64967  25.665  35.235   2.674
93242W        W64968  21.471  22.652   0.463
93243W        W64969  18.600  11.437   0.226
93244W        W64970   2.232  32.634  13.995
93245W        W64971   2.220   4.348   4.828
93246W        W64972  15.353  31.155  12.805
93247W        W64973  27.984  25.304  14.073
93248W        W64974  21.144   3.517  13.280
93249W        W64975   7.321  38.322   3.287
93250W        W64976  35.630   7.174  13.236
93251W        W64977   8.120   3.411   1.239
93252W        W64978  42.097  18.401  12.568
93253W        W64979  43.573   6.909  14.879
93254W        W64980  43.889  23.958  11.365
93255W        W64981  42.020  37.024  14.901
93256W        W64982  37.888  12.650   4.477
93257W        W64983  25.004  36.573   4.284
93258W        W64984  18.730  38.074   2.297
93259W        W64985  39.331   3.991   0.951
93260W        W64986  28.075  42.522   4.436
93261W        W64987  25.553   4.839  14.336
93262W        W64988  11.678  19.699  12.891
93263W        W64989  12.591  18.093   4.161
93264W        W64990  28.058  18.786   1.587
93265W        W64991  31.136  38.147  14.797
93266W        W64992  28.890  32.391  11.096
93267W        W64993   0.913  40.137   0.914
93268W        W64994   2.939   0.098   1.303
93269W        W64995  44.491  21.178  14.909
93270W        W64996  29.792  14.243  12.838
93271W        W64997  17.523  17.660   0.872
93272W        W64998  24.144  10.374   2.328
93273W        W64999  28.063   4.678   2.437
93274W        W65000   4.767  37.980  14.915
93275W        W65001  34.771  40.275   3.703
93276W        W65002  38.764  41.033   1.822
93277W        W65003  39.537  43.395  14.721
93278W        W65004  14.119   9.908  12.934
93279W        W65005   5.698  12.939  14.033
93280W        W65006  13.820  18.785  13.932
93281W        W65007  36.451  28.782   1.216
93282W        W65008  27.057  20.827  11.008
93283W        W65009   5.971  40.290   1.165
93284W        W65010   5.174   3.927   0.718
93285W        W65011  12.607   1.776   0.892
93286W        W65012   7.668  12.085  13.572
93287W        W65013  34.953   1.438   3.769
93288W        W65014  14.531  12.338   3.389
93289W        W65015  32.131   1.216  12.025
93290W        W65016  25.323   7.852  14.393
93291W        W65017  15.244  28.625   0.064
93292W        W65018  42.740  20.729  10.361
93293W        W65019  25.670  10.171  10.746
93294W        W65020  21.177  22.700   5.203
93295W        W65021  37.460  23.661   4.878
93296W        W65022  15.102  13.546  11.602
93297W        W65023   7.332  42.818   3.187
93298W        W65024   5.872   3.697  13.935
93299W        W65025   8.920  15.057  13.945
93300W        W65026  28.141  13.428  12.020
93301W        W65027  17.542  28.409  12.048
93302W        W65028  42.083  30.957   4.035
93303W        W65029  15.233  13.617  12.877
93304W        W65030  40.400  24.866  10.772
93305W        W65031  32.684  42.257   3.861
93306W        W65032  31.200  40.169   3.244
93307W        W65033  28.119  20.462  13.297
93308W        W65034  28.233  22.782  11.421
93309W        W65035   0.983  40.998  13.908
93310W        W65036  17.201  26.776  14.857
93311W        W65037  44.182  18.490   1.295
93312W        W65038  18.269  36.288  13.369
93313W        W65039  13.906  13.607   1.720
93314W        W65040  12.585  18.081   0.002
93315W        W65041   2.127   6.232  11.921
93316W        W65042  37.812  12.841   2.242
93317W        W65043  11.174  37.772   0.288
93318W        W65044   4.169   8.644   1.719
93319W        W65045   8.226  18.096   0.876
93320W        W65046  26.931  23.685  14.968
93321W        W65047  26.687  29.448  12.451
93322W        W65048  17.498  32.051   3.835
93323W        W65049  35.506  33.932  12.421
93324W        W65050   2.541  28.670   2.504
93325W        W65051  40.364  41.986  14.287
93326W        W65052   7.700  34.602   0.816
93327W        W65053  42.978   9.728   3.742
93328W        W65054  38.323  40.611   2.248
93329W        W65055  28.492  29.502   3.722
93330W        W65056  32.938  24.548  10.808
93331W        W65057  38.665  24.703  11.118
93332W        W65058  11.285  22.726   2.893
93333W        W65059  26.587   3.925  13.983
93334W        W65060  27.553  36.449   3.341
93335W        W65061  19.271  25.650   2.976
93336W        W65062  15.628  28.191  14.001
93337W        W65063   6.223  20.428  11.956
93338W        W65064   7.449  24.528   1.324
93339W        W65065  16.565  21.950   3.422
93340W        W65066  31.364  37.304   3.332
93341W        W65067  16.137   1.546   2.254
93342W        W65068   7.143  17.701  12.473
93343W        W65069   7.135  16.161   1.907
93344W        W65070   3.331  35.700   3.307
93345W        W65071  22.986  38.362   4.070
93346W        W65072  17.365   8.167   2.397
93347W        W65073  26.822  20.924  10.145
93348W        W65074   2.950  16.112  14.357
93349W        W65075  43.109   7.917   4.022
93350W        W65076  36.358  33.347   4.596
93351W        W65077  25.920  21.236  10.908
93352W        W65078   2.471  37.538   2.372
93353W        W65079  33.024  30.794  12.622
93354W        W65080  36.631  36.854   3.716
93355W        W65081  43.437   8.867   4.039
93356W        W65082  36.960  44.276  11.965
93357W        W65083  34.427  15.606   2.236
93358W        W65084  36.538  13.341   3.157
93359W        W65085  44.795  20.535   3.632
93360W        W65086  21.654  16.103   2.423
93361W        W65087  31.156   5.842  11.436
93362W        W65088   6.183  22.697  14.692
93363W        W65089  21.474  36.458  11.598
93364W        W65090  30.220  29.226   4.190
93365W        W65091   1.807  34.502  10.569
93366W        W65092  32.914  23.980  14.026
93367W        W65093   5.091  14.059  14.820
93368W        W65094  26.598  18.715  11.684
93369W        W65095  26.038   8.828   4.216
93370W        W65096   0.042  25.102   4.613
93371W        W65097   0.072  26.594  14.238
93372W        W65098  14.831   9.890  13.435
93373W        W65099  17.610  38.299   0.373
93374W        W65100   7.439   3.835  11.986
93375W        W65101  14.000   9.368   4.140
93376W        W65102   8.878  22.285   4.154
93377W        W65103  12.415  35.597   3.385
93378W        W65104  35.573   5.397   2.093
93379W        W65105  36.191  12.111  12.887
93380W        W65106   3.664  30.999   3.767
93381W        W65107  13.844  38.497  10.113
93382W        W65108  37.922  30.664  10.670
93383W        W65109  32.401   1.230  14.487
93384W        W65110  27.895  20.607   0.349
93385W        W65111  21.515  19.163  12.975
93386W        W65112  41.568  13.259  12.948
93387W        W65113  44.697  44.902   1.634
93388W        W65114  27.109  40.305  10.764
93389W        W65115   4.677  31.073  11.520
93390W        W65116  30.196  37.602   0.688
93391W        W65117  14.727  21.053  11.783
93392W        W65118   9.825   6.864   4.234
93393W        W65119  42.796  21.434   2.714
93394W        W65120  29.258   7.643  10.795
93395W        W65121  18.683  30.126   3.426
93396W        W65122  30.661  42.532  13.987
93397W        W65123   8.659  37.067  12.000
93398W        W65124  42.532  34.675   4.454
93399W        W65125   8.372   3.497  13.088
93400W        W65126  27.938  27.714   1.859
93401W        W65127   6.766  38.261   3.775
93402W        W65128  32.820   6.957  11.322
93403W        W65129  19.774  11.194   2.256
93404W        W65130  28.524  26.384  10.018
93405W        W65131  10.111   1.412  12.459
93406W        W65132   3.181  44.737  14.429
93407W        W65133  13.557   2.964   4.365
93408W        W65134   7.916   9.404   4.597
93409W        W65135  24.510  12.364  13.100
93410W        W65136  38.818  20.629   0.377
93411W        W65137  38.923  26.451  10.473
93412W        W65138  40.219   0.718   3.835
93413W        W65139  43.272  43.880   1.349
93414W        W65140  31.899   9.672   0.420
93415W        W65141   4.283  12.157  13.453
93416W        W65142   2.467   2.726   3.659
93417W        W65143  20.306  37.497   3.585
93418W        W65144  13.681  11.278  10.567
93419W        W65145  33.873  32.936   0.497
93420W        W65146  14.301  28.367  10.823
93421W        W65147  12.880  32.083  12.782
93422W        W65148  11.154  27.829  13.131
93423W        W65149   0.384  13.040   1.764
93424W        W65150  34.548  24.411  12.332
93425W        W65151  44.199  31.959  12.925
93426W        W65152  38.091  13.616   2.657
93427W        W65153  13.708  29.466   1.881
93428W        W65154  30.792   3.962  13.285
93429W        W65155  36.131  19.404  12.920
93430W        W65156   0.198  35.330  14.313
93431W        W65157  18.713   4.780   4.930
93432W        W65158   3.811  39.875  13.584
93433W        W65159  29.817  44.298   1.753
93434W        W65160  16.878  19.670   3.172
93435W        W65161  33.845   8.197   4.599
93436W        W65162  35.374  36.647   1.173
93437W        W65163  22.241  36.405  12.951
93438W        W65164   8.723  26.090  14.563
93439W        W65165  41.004  30.154  14.783
93440W        W65166  26.564  16.697   3.540
93441W        W65167   0.916  36.767  11.973
93442W        W65168  14.405  37.026   5.065
93443W        W65169  22.999  15.168   0.753
93444W        W65170  27.642  41.547   3.132
93445W        W65171  17.248  22.079   2.382
93446W        W65172   0.381  10.178   2.262
93447W        W65173  18.508  13.649   1.804
93448W        W65174  22.589  13.826   3.860
93449W        W65175  28.540  26.603  12.859
93450W        W65176  35.074  10.599  11.446
93451W        W65177   9.603  36.682   0.982
93452W        W65178  25.191  19.166   4.882
93453W        W65179   3.224   4.629  11.170
93454W        W65180  40.605  16.573   3.193
93455W        W65181  24.066  15.738  13.356
93456W        W65182  25.243   4.696  11.091
93457W        W65183   2.999  34.235  12.412
93458W        W65184  40.751  26.516   3.679
93459W        W65185  25.208   1.796   1.417
93460W        W65186  32.636  39.394  13.454
93461W        W65187  19.684  20.052  12.409
93462W        W65188  32.718  26.441   1.319
93463W        W65189  39.341  13.766   3.288
93464W        W65190  13.927  31.352   3.621
93465W        W65191  32.288  22.075   3.996
93466W        W65192  37.842   0.722  12.836
93467W        W65193  33.696  16.529   0.435
93468W        W65194  17.654   4.996   4.700
93469W        W65195  22.420  17.285  11.103
93470W        W65196  44.227  24.057   1.123
93471W        W65197  30.987  15.367   1.388
93472W        W65198  37.823   2.777   2.680
93473W        W65199  37.556  11.578   1.327
93474W        W65200  33.695  29.538   3.255
93475W        W65201   3.914  34.501  13.799
93476W        W65202  11.631  13.928   2.237
93477W        W65203   2.999  32.506   4.294
93478W        W65204  21.210   3.911   4.703
93479W        W65205  20.569  16.182   4.794
93480W        W65206  42.302   8.260  14.104
93481W        W65207  18.746  42.496  11.920
93482W        W65208  36.912  43.711  11.553
93483W        W65209  28.966  10.220  10.033
93484W        W65210  30.597  29.629   0.003
93485W        W65211  33.951  30.878   1.723
93486W        W65212  13.560  23.872  10.984
93487W        W65213   6.391   7.838  13.368
93488W        W65214  18.569  17.791   4.951
93489W        W65215  17.033   5.234  14.361
93490W        W65216  24.960   8.181   4.002
93491W        W65217   5.323  16.375  10.155
93492W        W65218  28.321  34.370  12.146
93493W        W65219  26.098   4.475   3.965
93494W        W65220  33.355  43.062  12.070
93495W        W65221  33.098   2.731  12.894
93496W        W65222  15.549   5.281   3.261
93497W        W65223  34.025   3.026  13.917
93498W        W65224  27.607  10.276  11.741
93499W        W65225   7.318  23.549   4.574
93500W        W65226  28.747  25.596  13.105
93501W        W65227   1.953  14.751   1.870
93502W        W65228  14.848  16.248  13.747
93503W        W65229  19.227   2.380  12.838
93504W        W65230  10.759  24.028  11.881
93505W        W65231  29.967  40.445  14.434
93506W        W65232   0.840  33.547  13.837
93507W        W65233  38.760   4.920  13.379
93508W        W65234   7.398  37.655  13.444
93509W        W65235  43.873  32.410   3.547
93510W        W65236  29.905   2.007  11.598
93511W        W65237  44.856   6.118  10.616
93512W        W65238  14.063  32.303   0.676
93513W        W65239   0.324  29.895  14.420
93514W        W65240  29.514  34.465   1.073
93515W        W65241  28.501  39.458  11.378
93516W        W65242  43.202  10.665   3.075
93517W        W65243  37.031   5.959   1.794
93518W        W65244   3.403  42.271   0.542
93519W        W65245  19.303  41.800   0.311
93520W        W65246  15.902  30.085   3.611
93521W        W65247  44.749  28.568   2.687
93522W        W65248  25.472  11.419  13.211
93523W        W65249   0.263  44.861  14.761
93524W        W65250  22.014  13.594   2.691
93525W        W65251   6.112   6.637   4.235
93526W        W65252  21.400  22.168  12.092
93527W        W65253  42.005  28.052   3.971
93528W        W65254  28.919   9.352  14.464
93529W        W65255  20.886  17.848   1.110
93530W        W65256  40.322  21.486   0.897
93531W        W65257  14.239  18.572  13.044
93532W        W65258   0.280  19.979  13.856
93533W        W65259  42.379  10.337   2.370
93534W        W65260  16.603  11.760  12.119
93535W        W65261  40.607   4.842  13.357
93536W        W65262  10.681  27.884   2.765
93537W        W65263  12.957  16.526   2.241
93538W        W65264  18.687  20.752   1.487
93539W        W65265  15.729  15.803  13.512
93540W        W65266   5.869   7.877  12.741
93541W        W65267   0.552  33.460   4.533
93542W        W65268  16.978  19.518  14.846
93543W        W65269  14.105  36.655   4.219
93544W        W65270   6.411  29.185   0.496
93545W        W65271   3.663   4.607   3.669
93546W        W65272  38.423  32.493  12.437
93547W        W65273  12.818  41.036   4.443
93548W        W65274  38.499  21.713   1.772
93549W        W65275  38.094  27.573   2.457
93550W        W65276   9.235  23.601  11.131
93551W        W65277  43.955  11.897   2.148
93552W        W65278  12.615   9.793   4.629
93553W        W65279  34.381  36.429   0.683
93554W        W65280   0.933  14.616   3.698
93555W        W65281  14.875   8.796  13.927
93556W        W65282  18.618  15.312  12.065
93557W        W65283  11.379   1.436  12.902
93558W        W65284  36.504  24.640   3.674
93559W        W65285  32.533  23.381   9.717
93560W        W65286  32.179  35.150  14.079
93561W        W65287   4.878  31.851   0.692
93562W        W65288   4.743  10.766   0.234
93563W        W65289  23.249  22.123   0.670
93564W        W65290  21.131  33.092  10.611
93565W        W65291   1.975  22.860  14.581
93566W        W65292   6.792  30.676  11.229
93567W        W65293  37.488  11.527   3.717
93568W        W65294  37.167  38.041  12.614
93569W        W65295   8.670   4.393   4.610
93570W        W65296  24.709   6.471   4.193
93571W        W65297  38.724  31.178   3.274
93572W        W65298  20.750  38.935   4.538
93573W        W65299  32.131   2.600  12.722
93574W        W65300  36.144  32.218   2.416
93575W        W65301   9.273  40.253   3.752
93576W        W65302   6.775  15.863  10.221
93577W        W65303  31.616  17.090  13.086
93578W        W65304  26.662  23.579  11.400
93579W        W65305  18.068  20.799  12.691
93580W        W65306  43.020   4.531   0.048
93581W        W65307   5.253  15.560   1.932
93582W        W65308  25.046  34.673   2.122
93583W        W65309  25.267  41.823   4.221
93584W        W65310   9.301   2.666   3.216
93585W        W65311  24.473  36.883  13.479
93586W        W65312   0.784  18.602  12.658
93587W        W65313  24.367  40.233   2.761
93588W        W65314  38.948  37.579   4.510
93589W        W65315  17.919  25.225  14.386
93590W        W65316  40.436  14.115   2.378
93591W        W65317  28.934  41.018  12.069
93592W        W65318  32.032  42.896  11.458
93593W        W65319  36.422  30.426  13.382
93594W        W65320  41.560  41.800   3.918
93595W        W65321   6.861  36.556   0.083
93596W        W65322  12.209  23.371  11.138
93597W        W65323   4.344  28.894   4.553
93598W        W65324   1.392  21.703  10.693
93599W        W65325  10.339  37.554   4.100
93600W        W65326  32.461  39.883  13.403
93601W        W65327  21.750  17.513  14.887
93602W        W65328   3.828  34.546  11.478
93603W        W65329  14.652  30.700  10.528
93604W        W65330   6.178  43.732  12.618
93605W        W65331   9.787   6.371   0.209
93606W        W65332   1.848   9.618   1.482
93607W        W65333  16.703  18.826  12.981
93608W        W65334  40.791  40.411   0.505
93609W        W65335  22.219  37.881  14.550
93610W        W65336  18.589   7.188   4.284
93611W        W65337  33.228  39.952  12.945
93612W        W65338  26.598  30.948  12.608
93613W        W65339  36.479   8.068   4.568
93614W        W65340  29.649  24.956   0.280
93615W        W65341  23.000  44.545  12.749
93616W        W65342  34.404  34.466   3.940
93617W        W65343  14.094  27.011  12.936
93618W        W65344  13.293   6.429  11.967
93619W        W65345   8.565   5.250  11.582
93620W        W65346  41.934   5.241  11.165
93621W        W65347   7.799  36.315   3.749
93622W        W65348  14.285  10.107   1.396
93623W        W65349  19.636  37.926  10.928
93624W        W65350  16.076  35.979  11.216
93625W        W65351   4.739  14.511  13.962
93626W        W65352   3.161   8.179   3.960
93627W        W65353  23.509   9.256  12.571
93628W        W65354   8.892  26.171  12.826
93629W        W65355   8.352   1.757   0.939
93630W        W65356  36.825   6.753  11.718
93631W        W65357  19.310  37.355  10.203
93632W        W65358  38.895   4.657   4.618
93633W        W65359  24.273  15.045  14.344
93634W        W65360  17.602  38.055  14.636
93635W        W65361  32.606  17.101   3.322
93636W        W65362  26.173   2.515  12.913
93637W        W65363   1.950   7.829   1.813
93638W        W65364  19.680  39.985   3.180
93639W        W65365  23.059  20.312  13.842
93640W        W65366   9.322  13.736  14.997
93641W        W65367  37.371  21.218  12.720
93642W        W65368  33.569   4.592   2.877
93643W        W65369  26.455   7.409  14.950
93644W        W65370   6.975   7.339  14.879
93645W        W65371  35.849  24.610  13.495
93646W        W65372  19.938  33.428  12.506
93647W        W65373  28.017  39.027   4.707
93648W        W65374  10.658   3.932   0.238
93649W        W65375  22.435  43.039  12.114
93650W        W65376  17.842  36.996   4.791
93651W        W65377  28.472   0.390  10.416
93652W        W65378  33.557   8.898  12.514
93653W        W65379  10.280  21.639   1.301
93654W        W65380   4.305  34.740   2.624
93655W        W65381  28.161  19.196   0.703
93656W        W65382  13.171  43.845  12.403
93657W        W65383   3.499   9.600  13.888
93658W        W65384  32.115   3.232   3.710
93659W        W65385  15.261  11.783   0.382
93660W        W65386  25.112  10.623  13.601
93661W        W65387  38.106  18.248  13.477
93662W        W65388  11.403  28.039   0.406
93663W        W65389   6.879  39.999   4.333
93664W        W65390  38.949  30.489   4.370
93665W        W65391   4.282   9.460   4.670
93666W        W65392  38.333  15.877  11.045
93667W        W65393   9.706  18.058   0.399
93668W        W65394  43.031  14.905  14.881
93669W        W65395  36.444  11.294  11.610
93670W        W65396   7.469  44.897   4.564
93671W        W65397  34.373   2.192  12.433
93672W        W65398  23.012  25.235  12.464
93673W        W65399  32.641  32.502   2.354
93674W        W65400  32.133  43.262   0.215
93675W        W65401  33.098  43.173  13.990
93676W        W65402   3.697   4.376   4.931
93677W        W65403  10.344  26.207  13.009
93678W        W65404   9.501  44.819   0.983
93679W        W65405  12.126  41.389   0.576
93680W        W65406  25.221  31.152  13.571
93681W        W65407  11.829   5.969   0.897
93682W        W65408  38.922  35.305   4.042
93683W        W65409  42.798  33.629   3.760
93684W        W65410   1.692  43.402   3.718
93685W        W65411   9.632  39.050  11.589
93686W        W65412  38.519  34.546  11.050
93687W        W65413  13.209  13.846   4.952
93688W        W65414  32.511  20.664   1.743
93689W        W65415  35.083  18.664   1.135
93690W        W65416  12.142  14.333  13.818
93691W        W65417  29.038   1.772  14.469
93692W        W65418  33.461  18.247  13.610
93693W        W65419   9.686  20.223  14.959
93694W        W65420   8.385  10.886  12.122
93695W        W65421  15.243   2.123  10.905
93696W        W65422  40.020   6.077   1.362
93697W        W65423  29.258   8.328   1.523
93698W        W65424   6.781   3.278   2.337
93699W        W65425   1.583  20.343  10.632
93700W        W65426  38.007  11.930   0.344
93701W        W65427  35.497  29.850   3.338
93702W        W65428  43.830   6.916  13.930
93703W        W65429  31.149  20.554  13.473
93704W        W65430  18.008  31.221  10.976
93705W        W65431  24.112  35.996  11.092
93706W        W65432   3.001  33.620   3.556
93707W        W65433  25.224  26.557   0.826
93708W        W65434  42.100   1.289   1.747
93709W        W65435  39.946  43.364   1.492
93710W        W65436  23.596  26.541   2.824
93711W        W65437  17.327  40.837  10.123
93712W        W65438  32.140  38.640   4.404
93713W        W65439   0.603   9.244   3.280
93714W        W65440  12.158  39.282  10.377
93715W        W65441  18.687  41.428  14.573
93716W        W65442  21.375  36.177   2.193
93717W        W65443  10.183  41.102  12.407
93718W        W65444  14.109  13.804  10.787
93719W        W65445   8.341  14.837  12.863
93720W        W65446   7.643   1.500  12.051
93721W        W65447  32.743   9.542  12.501
93722W        W65448   1.405   5.969   1.678
93723W        W65449  38.067  21.255   3.259
93724W        W65450   3.174  36.035  13.780
93725W        W65451  16.075   0.498   3.690
93726W        W65452   4.615  28.588  14.178
93727W        W65453  42.946  12.813   3.823
93728W        W65454  36.304  11.847   1.377
93729W        W65455   1.984  21.125   1.407
93730W        W65456   5.161   8.631   5.168
93731W        W65457  22.078  26.599   3.848
93732W        W65458  14.117  31.466   0.977
93733W        W65459  12.592   3.461   0.412
93734W        W65460  26.866  40.787  11.950
93735W        W65461  28.683   1.475   2.335
93736W        W65462  32.513  36.784   3.415
93737W        W65463   9.117   1.146  13.382
93738W        W65464  13.690  35.612  14.281
93739W        W65465  18.165   5.437  13.027
93740W        W65466   9.822   0.524  13.929
93741W        W65467  38.602  11.149  13.994
93742W        W65468  31.571  35.896   2.853
93743W        W65469  17.915  14.417  14.363
93744W        W65470  13.536   4.187   0.702
93745W        W65471  20.994  22.497   2.260
93746W        W65472  34.088  19.076   0.158
93747W        W65473  14.567  19.247   3.272
93748W        W65474  40.743  42.100  14.737
93749W        W65475  25.596  36.633  13.092
93750W        W65476  10.842   9.113  13.907
93751W        W65477  34.735  27.268   1.449
93752W        W65478  18.066   5.776  11.586
93753W        W65479  13.090  24.462   4.846
93754W        W65480  30.680   6.425   0.481
93755W        W65481  23.108  15.025   2.297
93756W        W65482  35.723  22.267  14.975
93757W        W65483  23.805  33.541  10.389
93758W        W65484  36.471  19.671  13.888
93759W        W65485   3.904  43.770  12.428
93760W        W65486   0.717   5.333   0.283
93761W        W65487  14.197   5.363  10.615
93762W        W65488   2.471  41.090  11.660
93763W        W65489  43.257  37.202   2.867
93764W        W65490  13.713  44.715   2.233
93765W        W65491  28.774  15.029   1.802
93766W        W65492  13.169  29.217   4.993
93767W        W65493  12.142  14.254   0.637
93768W        W65494   7.794  10.737   4.246
93769W        W65495  16.086  16.339  14.200
93770W        W65496  11.828   6.409   2.286
93771W        W65497   3.938  24.921   1.469
93772W        W65498  27.760  30.025  12.927
93773W        W65499   2.890  41.143   3.832
93774W        W65500  31.093  27.169  12.809
93775W        W65501  34.143   7.448  13.444
93776W        W65502  22.928  13.183   2.816
93777W        W65503  20.722  21.280   1.397
93778W        W65504   2.418   1.528  13.561
93779W        W65505   7.712  21.064  14.468
93780W        W65506   8.116  16.752  12.036
93781W        W65507  19.426  28.772   2.778
93782W        W65508  34.146  14.559   0.726
93783W        W65509  43.496  44.472   0.287
93784W        W65510  19.715  14.337   4.819
93785W        W65511   2.928  26.431   3.741
93786W        W65512  13.662   1.866   1.781
93787W        W65513  28.737   7.994   3.687
93788W        W65514  33.092  16.656  12.133
93789W        W65515  34.472  41.741   5.004
93790W        W65516  31.947  37.014   2.653
93791W        W65517   1.860  42.967   1.636
93792W        W65518  42.980   1.056   2.507
93793W        W65519   0.791   2.348   2.841
93794W        W65520  14.868  42.084  13.331
93795W        W65521  17.458  21.670   3.083
93796W        W65522  19.245  38.346   3.790
93797W        W65523  19.288   8.283   3.933
93798W        W65524   2.451  15.497  11.562
93799W        W65525  28.527  43.354   3.727
93800W        W65526  38.119   2.930   3.737
93801W        W65527  13.746   4.762   1.280
93802W        W65528  25.025  19.544   2.712
93803W        W65529  25.478  41.470   2.664
93804W        W65530  43.207  14.854  14.401
93805W        W65531  44.282  21.327  14.445
93806W        W65532  30.330  19.242   3.218
93807W        W65533  22.572  28.096  13.765
93808W        W65534  31.901  23.485  11.943
93809W        W65535   1.402   3.750   1.024
93810W        W65536  24.515  44.216   0.806
93811W        W65537  19.296  21.056  10.712
93812W        W65538  42.578  21.999   4.053
93813W        W65539   0.194  18.740   2.792
93814W        W65540  19.204  22.522  13.532
93815W        W65541  20.488  18.140   4.049
93816W        W65542   5.311   8.894   0.461
93817W        W65543  21.535   3.197   3.215
93818W        W65544   3.234  29.543  11.704
93819W        W65545  22.588   7.334  11.920
93820W        W65546   1.785  11.343   0.925
93821W        W65547  40.350   5.440  14.036
93822W        W65548   7.620  16.592  12.055
93823W        W65549  36.205  30.824  13.718
93824W        W65550  10.936  12.712  14.067
93825W        W65551  23.659  21.289  11.608
93826W        W65552  26.326  21.271   0.286
93827W        W65553   7.537  26.736  11.151
93828W        W65554  33.655   2.009   0.202
93829W        W65555  16.223   4.302   3.682
93830W        W65556  36.882  26.911  12.682
93831W        W65557  14.074  23.285  13.502
93832W        W65558  31.647  41.002  12.964
93833W        W65559  17.620  16.281  10.597
93834W        W65560   3.628   9.674  12.977
93835W        W65561   2.491  23.970  11.109
93836W        W65562   4.144  11.907   3.009
93837W        W65563   2.195  21.207  11.518
93838W        W65564  30.972  18.000  13.794
93839W        W65565   8.076  38.089   1.713
93840W        W65566  16.142  20.821  11.740
93841W        W65567   5.307  43.608  11.494
93842W        W65568   9.280  23.467   3.970
93843W        W65569  18.498  22.478  14.574
93844W        W65570   1.463  39.035  11.534
93845W        W65571  41.229  17.163   1.886
93846W        W65572   7.446  26.412  10.426
93847W        W65573  10.769  19.735  14.314
93848W        W65574  12.617  41.543   3.740
93849W        W65575  15.015  26.563   2.439
93850W        W65576  31.956  11.375   2.708
93851W        W65577  39.043  31.182   4.679
93852W        W65578  35.220   0.777   3.576
93853W        W65579  28.795  14.498   5.046
93854W        W65580  31.865  17.672  13.115
93855W        W65581   5.384  44.391  12.973
93856W        W65582  26.591  42.351   0.506
93857W        W65583  36.766   7.184  12.272
93858W        W65584  43.387  34.547  12.039
93859W        W65585  26.544  10.817  14.805
93860W        W65586   1.128  25.555  14.536
93861W        W65587  35.724  41.782  14.009
93862W        W65588   8.024  40.588  13.168
93863W        W65589  15.132  35.208   3.142
93864W        W65590  17.714  10.674   0.056
93865W        W65591  29.920  19.639   4.481
93866W        W65592  12.352  33.528   4.369
93867W        W65593  26.065  44.368  10.281
93868W        W65594  32.848  15.346  12.115
93869W        W65595   1.437  41.859  12.975
93870W        W65596  16.163  36.927   5.523
93871W        W65597  25.305   1.426   1.840
93872W        W65598  12.879  26.654   1.136
93873W        W65599   2.662  42.060   3.859
93874W        W65600  40.844   7.312  11.304
93875W        W65601  36.588  21.414  10.702
93876W        W65602  29.415  11.339   0.003
93877W        W65603  26.879  32.492   1.165
93878W        W65604   1.422  14.145  13.398
93879W        W65605  44.993  38.437   4.689
93880W        W65606  15.670  21.712  12.420
93881W        W65607   6.457   1.020   3.336
93882W        W65608  41.116  43.328   3.152
93883W        W65609   1.406  14.623  11.669
93884W        W65610  17.799  18.447   3.322
93885W        W65611  42.520  25.215   4.429
93886W        W65612  38.892   1.640   4.127
93887W        W65613  34.467  14.157   1.466
93888W        W65614  10.169  36.240   4.556
93889W        W65615  34.892   0.034   2.317
93890W        W65616  29.211  44.811  11.193
93891W        W65617  25.926  43.390   1.367
93892W        W65618   7.513  11.156   0.976
93893W        W65619   5.071  19.730   3.640
93894W        W65620  28.149  33.917   2.905
93895W        W65621  24.035   7.906  11.571
93896W        W65622  24.552  16.647   1.242
93897W        W65623  10.212  10.239   0.861
93898W        W65624  15.665  16.083   0.424
93899W        W65625  27.992   5.459  13.368
93900W        W65626  43.393   4.853  10.020
93901W        W65627  36.893  28.547  11.711
93902W        W65628  37.169  20.510  13.017
93903W        W65629  26.874   2.345   0.918
93904W        W65630  40.149  27.533   0.683
93905W        W65631  14.383  33.879  14.971
93906W        W65632  25.769  43.931   0.315
93907W        W65633  25.970  42.331   4.102
93908W        W65634  26.158  40.040   1.887
93909W        W65635  39.536  11.182  11.168
93910W        W65636  31.533   8.277  10.833
93911W        W65637  28.243  29.124  14.334
93912W        W65638  11.681  35.982   0.212
93913W        W65639  14.114  20.293   3.762
93914W        W65640  26.936  20.439   0.852
93915W        W65641  34.490  42.407   4.663
93916W        W65642   8.039  38.523   4.110
93917W        W65643  31.097  15.650   0.899
93918W        W65644   7.879  35.567   3.160
93919W        W65645  23.613  14.855  11.475
93920W        W65646  25.525   7.700  12.063
93921W        W65647  17.570   2.586   2.704
93922W        W65648   0.777  28.578   2.711
93923W        W65649  12.264  11.136  13.617
93924W        W65650  31.453  32.533   2.991
93925W        W65651  31.498  27.147  13.574
93926W        W65652  22.922  19.582   3.281
93927W        W65653  20.574   0.853   3.771
93928W        W65654  19.058  11.091  12.852
93929W        W65655  26.997  11.823   1.350
93930W        W65656  35.407  39.323  12.802
93931W        W65657  35.584  17.763   4.710
93932W        W65658  18.373  17.970   2.299
93933W        W65659  26.452  36.654  14.356
93934W        W65660  22.631  20.076   2.259
93935W        W65661  27.515  13.419  11.628
93936W        W65662  32.517  15.366  12.854
93937W        W65663   3.815  28.072  12.429
93938W        W65664   4.518  10.195   2.563
93939W        W65665  24.330  30.841   2.729
93940W        W65666  39.794  40.448  11.194
93941W        W65667  23.683  43.828  12.586
93942W        W65668  40.861  35.437   4.591
93943W        W65669   9.051   6.057  11.143
93944W        W65670   6.912  37.343   2.201
93945W        W65671  15.038  15.000  11.562
93946W        W65672  24.236  15.658   1.917
93947W        W65673  17.719   4.422  10.319
93948W        W65674   7.104  18.089  13.433
93949W        W65675   0.001  33.422   2.343
93950W        W65676  43.693  18.062  13.447
93951W        W65677  27.365  41.898  13.040
93952W        W65678  43.306  35.153   0.493
93953W        W65679  35.497  41.768   2.189
93954W        W65680  42.762  39.997   3.236
93955W        W65681  42.565  14.229   0.015
93956W        W65682   7.905  29.545  10.590
93957W        W65683  36.542  39.430   0.706
93958W        W65684   0.318   0.980  10.718
93959W        W65685   6.986  15.879  12.857
93960W        W65686   4.676  12.833   2.165
93961W        W65687  18.227   1.826  10.675
93962W        W65688  31.530  22.690   4.405
93963W        W65689  29.627  33.198  11.139
93964W        W65690   0.296   9.989   0.287
93965W        W65691  32.544  34.797  14.070
93966W        W65692   2.254  16.307  13.822
93967W        W65693  16.656   9.812   4.692
93968W        W65694   2.220  29.078   3.365
93969W        W65695  44.425  36.492  14.214
93970W        W65696  22.996  40.022   3.692
93971W        W65697  40.414  22.987   1.304
93972W        W65698  25.062  18.030   3.754
93973W        W65699  17.083  22.680   4.621
93974W        W65700   3.970   1.470  12.482
93975W        W65701  23.955  15.096   3.197
93976W        W65702   3.157  37.911  14.916
93977W        W65703  27.310  14.894  10.720
93978W        W65704  34.909  38.925  10.714
93979W        W65705  28.656  28.599   0.961
93980W        W65706  35.111  21.706   1.376
93981W        W65707  41.534  24.275   2.836
93982W        W65708  11.934   6.875   0.994
93983W        W65709  39.970  42.811  11.550
93984W        W65710  32.910  21.184  13.298
93985W        W65711  10.684  19.136   2.446
93986W        W65712  25.773  20.140  13.582
93987W        W65713  31.193  43.767   3.245
93988W        W65714  26.584   0.417  14.233
93989W        W65715  39.106  40.969   0.213
93990W        W65716   0.799  44.691  12.600
93991W        W65717  14.139  29.954   0.776
93992W        W65718  13.296   2.418   0.032
93993W        W65719   9.232  26.783   4.893
93994W        W65720  23.235  42.396  14.971
93995W        W65721  12.495   0.269   2.606
93996W        W65722  25.687  35.606  11.441
93997W        W65723   3.251   5.368   2.639
93998W        W65724   8.157  37.724   1.317
93999W        W65725  25.980   0.486   2.650
94000W        W65726  28.333  29.037   2.926
94001W        W65727  39.642  19.480  14.860
94002W        W65728  28.960  25.551   2.759
94003W        W65729  40.375  16.219  11.769
94004W        W65730  15.797  34.025  12.996
94005W        W65731  11.738  36.870  10.669
94006W        W65732  17.795  33.807   2.217
94007W        W65733  10.010  21.185   4.634
94008W        W65734   1.073  22.470  10.293
94009W        W65735   8.285  39.390   3.130
94010W        W65736  20.549   7.279  14.960
94011W        W65737   4.624  10.246  11.495
94012W        W65738  31.909  32.088  10.147
94013W        W65739  20.699   2.411   2.249
94014W        W65740  31.638  19.273  13.839
94015W        W65741  32.957  25.122  14.765
94016W        W65742   2.470  37.209   5.013
94017W        W65743  44.561  20.135  12.004
94018W        W65744  20.929   9.718   1.423
94019W        W65745   1.916  31.847  11.559
94020W        W65746  43.376  35.032  11.565
94021W        W65747  12.156  22.705  12.975
94022W        W65748  34.360  13.315  13.071
94023W        W65749  26.291   3.807  11.135
94024W        W65750  35.963   1.481  12.376
94025W        W65751   0.180   7.965  14.454
94026W        W65752   5.707  17.391   3.655
94027W        W65753   0.406  24.480   1.248
94028W        W65754  14.861  13.067   0.513
94029W        W65755   7.948  21.052  14.931
94030W        W65756  34.940  19.941   4.135
94031W        W65757  34.903  24.046   1.809
94032W        W65758  14.044  34.520   0.790
94033W        W65759  19.050  40.438   0.636
94034W        W65760   4.857  29.939   0.746
94035W        W65761  43.852  16.545  12.968
94036W        W65762  17.199  33.865  11.949
94037W        W65763  22.621   5.284  13.006
94038W        W65764  38.604  21.102   2.411
94039W        W65765  27.511   9.273   2.733
94040W        W65766  25.080  34.473   0.839
94041W        W65767  18.980   8.417  11.095
94042W        W65768  35.664  34.911  14.008
94043W        W65769   4.770  11.263  12.406
94044W        W65770  36.955   6.066  13.944
94045W        W65771  19.554  32.929   4.584
94046W        W65772  10.533  21.282  11.702
94047W        W65773  42.950  30.495   1.954
94048W        W65774  43.036  19.448   1.340
94049W        W65775  40.934  11.612   0.327
94050W        W65776  30.633   3.669   0.895
94051W        W65777  26.733  43.813  13.030
94052W        W65778  25.735  17.883  14.289
94053W        W65779  24.501  43.203   4.133
94054W        W65780   5.054  12.875   1.690
94055W        W65781  42.335   1.380   4.444
94056W        W65782   3.237  35.902  12.426
94057W        W65783  30.033  35.565   4.721
94058W        W65784  22.119  31.945  12.404
94059W        W65785  41.055   7.457   0.846
94060W        W65786   9.813  20.886   1.958
94061W        W65787  24.273  18.050   0.011
94062W        W65788  18.937  18.188  10.358
94063W        W65789  20.054  17.279  11.607
94064W        W65790  15.000  22.458   2.794
94065W        W65791  24.719   4.045   4.714
94066W        W65792   5.374   6.412  14.953
94067W        W65793  39.559  44.449  13.881
94068W        W65794  20.131  33.871   2.788
94069W        W65795  40.884  22.510   3.204
94070W        W65796   1.791  22.243  12.503
94071W        W65797  24.635  22.579   2.925
94072W        W65798  41.953   1.519   4.109
94073W        W65799   6.357  44.276   3.304
94074W        W65800  12.287  41.413  14.053
94075W        W65801  22.455   5.371   2.632
94076W        W65802   7.951  27.923   1.371
94077W        W65803   9.769   1.005   3.656
94078W        W65804  38.434  38.751  13.058
94079W        W65805  39.386   2.082   2.435
94080W        W65806  40.676  20.128   1.217
94081W        W65807  14.071  30.211  11.065
94082W        W65808  35.158  20.085  11.017
94083W        W65809  13.735   6.358  13.299
94084W        W65810  32.050  33.507   3.240
94085W        W65811  12.135   0.387   4.352
94086W        W65812  26.119  40.175   3.295
94087W        W65813  31.027  35.827  14.361
94088W        W65814  17.816  31.108  13.261
94089W        W65815  42.031  22.692   1.775
94090W        W65816  36.847  22.477  13.083
94091W        W65817   8.114   0.302   2.725
94092W        W65818   6.686  20.130  13.921
94093W        W65819   7.355  26.139   1.471
94094W        W65820  25.687  44.424  13.359
94095W        W65821  25.722  41.795   4.900
94096W        W65822  29.848  42.966   3.692
94097W        W65823  11.760  12.839  12.201
94098W        W65824  17.629   1.497  13.791
94099W        W65825  28.563  27.628   2.414
94100W        W65826   9.330  43.455  12.060
94101W        W65827  36.625  18.821  11.607
94102W        W65828  42.825  36.141  14.709
94103W        W65829  25.274  13.332   0.648
94104W        W65830  23.554  21.572   3.389
94105W        W65831  27.850  11.889  10.629
94106W        W65832   5.456  27.539  14.298
94107W        W65833  22.736  21.620  11.992
94108W        W65834  30.451  19.464  13.067
94109W        W65835   4.871  42.756  13.007
94110W        W65836   4.366  17.674  13.699
94111W        W65837  44.523  36.337   0.748
94112W        W65838  38.473   1.818   4.367
94113W        W65839  15.109  18.311   3.676
94114W        W65840  13.181  24.377   2.342
94115W        W65841   5.961  31.841  13.478
94116W        W65842  19.703  10.938   0.754
94117W        W65843  24.470  36.592  14.180
94118W        W65844  31.184   7.368   4.390
94119W        W65845   2.974  17.766   3.637
94120W        W65846   5.329   3.767  13.913
94121W        W65847   6.650   7.773   1.473
94122W        W65848  37.972  14.411  11.923
94123W        W65849  40.973  31.007  14.879
94124W        W65850  31.524   2.537   3.872
94125W        W65851  18.054  21.798   4.550
94126W        W65852  18.312  25.594   4.414
94127W        W65853   7.111  13.580   5.109
94128W        W65854   5.969   4.896   4.737
94129W        W65855  15.518  12.913  13.475
94130W        W65856   0.968  19.930  14.407
94131W        W65857  34.569  43.215   2.424
94132W        W65858  34.146  29.943   1.855
94133W        W65859  32.311  22.285   1.211
94134W        W65860  44.816  40.050   4.304
94135W        W65861  11.820   4.538  10.113
94136W        W65862  21.809  35.312  10.280
94137W        W65863  27.140  35.090  12.469
94138W        W65864  41.526  13.792  12.154
94139W        W65865  40.540   4.721   2.944
94140W        W65866  37.418  27.109  14.077
94141W        W65867  22.914  20.639  10.898
94142W        W65868  39.450  40.337   3.415
94143W        W65869  32.205  40.479   4.639
94144W        W65870  44.440  12.159   2.216
94145W        W65871  33.559  18.109   3.697
94146W        W65872  13.554  17.618   2.102
94147W        W65873  34.969  19.658   4.581
94148W        W65874  15.172  40.873  11.529
94149W        W65875  31.592  37.473  14.061
94150W        W65876  11.154   6.669   2.867
94151W        W65877  43.381   1.501   4.334
94152W        W65878  39.980   3.682  14.967
94153W        W65879  24.470  20.194   4.899
94154W        W65880  38.913  14.114   4.300
94155W        W65881  10.142  40.289   1.166
94156W        W65882   3.318  37.868   4.288
94157W        W65883  23.598  25.184  11.021
94158W        W65884  14.436  30.075   3.734
94159W        W65885  35.951  25.023   1.817
94160W        W65886   3.390  21.751   3.592
94161W        W65887  27.695  40.367  12.035
94162W        W65888  36.350  39.854   4.731
94163W        W65889  42.405  15.073  11.976
94164W        W65890  20.209  40.030  13.962
94165W        W65891  41.077   5.835   2.172
94166W        W65892  26.058   1.506   0.296
94167W        W65893  21.948  10.736  13.890
94168W        W65894  28.430  17.389  11.521
94169W        W65895   6.758  40.470   3.178
94170W        W65896  30.042  32.948   0.735
94171W        W65897   2.925   5.442  13.824
94172W        W65898   1.799  16.546   0.368
94173W        W65899   5.786  18.405  13.023
94174W        W65900  12.742  22.158   2.668
94175W        W65901   5.734  32.702   1.372
94176W        W65902   2.757  13.152  14.332
94177W        W65903  24.113  43.982  13.912
94178W        W65904  15.629  40.588  10.206
94179W        W65905   1.423  25.579   2.738
94180W        W65906   9.710   2.819   4.502
94181W        W65907   0.538  26.948   1.174
94182W        W65908  19.223  29.867  13.964
94183W        W65909  13.330  38.225  14.381
94184W        W65910  11.320  13.800   1.863
94185W        W65911   7.274  21.550  14.020
94186W        W65912  38.531  15.528   2.745
94187W        W65913   4.386   0.997  13.927
94188W        W65914  12.267  35.846  11.376
94189W        W65915   5.012   2.223   3.617
94190W        W65916  24.164   4.694  11.121
94191W        W65917  39.297  16.683  14.364
94192W        W65918  14.158  15.086  13.935
94193W        W65919  22.385  38.520  14.328
94194W        W65920  34.811   5.269  12.068
94195W        W65921  31.213  43.281   2.913
94196W        W65922  27.193  32.097  13.520
94197W        W65923   4.890   3.812  13.046
94198W        W65924  38.562   2.714  14.511
94199W        W65925  28.116   6.317   0.381
94200W        W65926  14.832  28.214   1.258
94201W        W65927  38.335  25.525   3.300
94202W        W65928  11.813   8.964  11.930
94203W        W65929   8.323  38.554   0.242
94204W        W65930  12.739   2.500   3.096
94205W        W65931  32.202   4.955  11.605
94206W        W65932   2.797  11.410  12.531
94207W        W65933  39.773  23.696  10.407
94208W        W65934   9.896  41.479   3.633
94209W        W65935  39.435  26.526   3.113
94210W        W65936  23.434  33.395  10.739
94211W        W65937  32.946   8.945  11.561
94212W        W65938   8.452   6.291  14.162
94213W        W65939   3.910  25.618   3.839
94214W        W65940  14.192   3.708  11.122
94215W        W65941  11.689  32.269  10.892
94216W        W65942  43.377  26.475  13.757
94217W        W65943  19.662  10.246   2.141
94218W        W65944  28.119  35.237   4.107
94219W        W65945   9.224  19.246   4.600
94220W        W65946  19.583   5.255   0.539
94221W        W65947  41.643  22.620   3.694
94222W        W65948  17.839   9.546   1.883
94223W        W65949   0.767  43.456   4.464
94224W        W65950  23.330  39.958   2.260
94225W        W65951  31.148   8.866  13.891
94226W        W65952  44.847   2.810   1.307
94227W        W65953  23.075   7.406  12.766
94228W        W65954  24.100  18.242   2.230
94229W        W65955   4.129  26.124   2.558
94230W        W65956  24.142   8.250   0.099
94231W        W65957  44.365  24.172  12.127
94232W        W65958  41.904  41.931  13.416
94233W        W65959  17.654  36.623  13.502
94234W        W65960  14.644  30.085   0.924
94235W        W65961  37.843   6.305  13.782
94236W        W65962  39.026  30.339  13.919
94237W        W65963   6.593  43.081  11.117
94238W        W65964   0.347  14.393   2.434
94239W        W65965  20.655   9.739  12.663
94240W        W65966   0.506  29.146   0.325
94241W        W65967   7.220  19.707   2.061
94242W        W65968  30.783  21.548   0.875
94243W        W65969  34.420  10.761   3.281
94244W        W65970  13.646  11.205   3.343
94245W        W65971  23.485  14.960  14.004
94246W        W65972  18.211  18.852  14.836
94247W        W65973  29.585  26.609   4.620
94248W        W65974  24.992  35.364  13.023
94249W        W65975  26.937  30.762  11.164
94250W        W65976   5.495   3.289  13.936
94251W        W65977  44.008  35.337  10.423
94252W        W65978  15.247   1.338  11.610
94253W        W65979  27.000  29.901   3.212
94254W        W65980  41.890  23.712   3.241
94255W        W65981   4.845  15.230   3.173
94256W        W65982  29.907  21.702   4.641
94257W        W65983  11.410   4.396   3.703
94258W        W65984  34.400   3.319   1.909
94259W        W65985   7.148  30.709  12.096
94260W        W65986   1.535  11.224   1.361
94261W        W65987  40.437  41.043   2.433
94262W        W65988  27.408  36.697   1.150
94263W        W65989  42.983  28.211  13.567
94264W        W65990  43.663  12.883   4.568
94265W        W65991  34.848  42.984  11.033
94266W        W65992  25.611  24.488  12.495
94267W        W65993   9.173  34.256  13.382
94268W        W65994  27.202  11.796  11.702
94269W        W65995  26.218  26.438  12.680
94270W        W65996  20.069  22.536   0.369
94271W        W65997  22.067  43.083  13.511
94272W        W65998  20.065  37.641  12.904
94273W        W65999  16.539   3.028  12.726
94274W        W66000  32.350   1.539   3.722
94275W        W66001  24.077  20.500  13.498
94276W        W66002  22.618  24.497  11.155
94277W        W66003   4.892  31.010  14.698
94278W        W66004  39.411  31.975  12.525
94279W        W66005  32.037  34.912   1.404
94280W        W66006  13.347  13.554  13.799
94281W        W66007  37.431  14.371  14.647
94282W        W66008  44.895  34.594  11.176
94283W        W66009  31.135  42.053  12.137
94284W        W66010   6.219  21.048   0.577
94285W        W66011  15.117  17.358  13.012
94286W        W66012  31.091  10.091   4.743
94287W        W66013  38.870  18.803  11.992
94288W        W66014  37.058  32.611   0.447
94289W        W66015  30.201  37.537  14.326
94290W        W66016  37.517  12.794   4.157
94291W        W66017  36.867  39.933  13.533
94292W        W66018  32.072  30.955   1.217
94293W        W66019  41.105  20.335   2.168
94294W        W66020  17.547  13.408   0.393
94295W        W66021  27.747  17.141  10.316
94296W        W66022  34.778  39.110   0.267
94297W        W66023  38.827   6.632   1.339
94298W        W66024   4.333  34.524  10.737
94299W        W66025  17.225  36.405   4.202
94300W        W66026  34.182   0.965  14.547
94301W        W66027  35.996  10.203  14.036
94302W        W66028  35.985   0.292   0.845
94303W        W66029  38.425  32.333  11.360
94304W        W66030  44.050  21.771  11.236
94305W        W66031   1.694  31.635   1.850
94306W        W66032  24.962  42.061  11.872
94307W        W66033  18.501  10.359  14.379
94308W        W66034  38.069  12.538  13.780
94309W        W66035  26.081  31.094  14.570
94310W        W66036  39.624  33.858   2.719
94311W        W66037   9.621  28.070  13.436
94312W        W66038   6.938  30.518  11.691
94313W        W66039  29.543  29.079  13.906
94314W        W66040  25.063  23.620   1.387
94315W        W66041  37.856   0.232  11.072
94316W        W66042  20.231   7.768   0.761
94317W        W66043   8.431  17.557  11.881
94318W        W66044  12.256   1.018  13.909
94319W        W66045  32.497  18.922  14.469
94320W        W66046  40.816  36.010   2.413
94321W        W66047   3.505  30.984  14.939
94322W        W66048  32.242  35.350  13.257
94323W        W66049  39.993  38.563  11.775
94324W        W66050   0.040  22.226  12.322
94325W        W66051   8.956   7.366   0.801
94326W        W66052  12.136  26.118   0.735
94327W        W66053  41.725  43.649   2.543
94328W        W66054   4.936  43.417  14.788
94329W        W66055  16.048  14.181   2.958
94330W        W66056   3.046  37.828  13.028
94331W        W66057  40.410  31.846   1.306
94332W        W66058  37.810  10.292  14.554
94333W        W66059   6.357  12.228   4.102
94334W        W66060   1.664  24.949  11.159
94335W        W66061  26.203  41.037   0.734
94336W        W66062  19.355   4.643   2.322
94337W        W66063   4.702  28.073  12.510
94338W        W66064  29.905  13.964  11.996
94339W        W66065  36.320  33.851  12.034
94340W        W66066   6.903  32.454  12.364
94341W        W66067  16.882  30.319   2.391
94342W        W66068  17.837  15.670  14.529
94343W        W66069  44.500  19.539   0.804
94344W        W66070  24.230   2.943  14.951
94345W        W66071  36.575  21.770   3.687
94346W        W66072  37.861  34.451   9.977
94347W        W66073  39.365  36.074   3.906
94348W        W66074  36.518  29.440   3.823
94349W        W66075  38.294  16.902   3.749
94350W        W66076   5.666  10.236  11.473
94351W        W66077  40.961  42.299   4.111
94352W        W66078   2.863  14.809  11.032
94353W        W66079  12.391  11.343  14.490
94354W        W66080  11.673  16.554  13.084
94355W        W66081  14.226  13.053  11.929
94356W        W66082   9.205  37.616   2.704
94357W        W66083  28.901  44.295  12.529
94358W        W66084  34.871   6.955  12.023
94359W        W66085  17.770  25.336   2.219
94360W        W66086   5.154   4.314  13.075
94361W        W66087  17.549  39.678   5.027
94362W        W66088   0.218  32.468  10.770
94363W        W66089  13.168  34.546  12.035
94364W        W66090  33.427  44.436  12.157
94365W        W66091  13.384  34.275   3.115
94366W        W66092   3.161  22.467  10.319
94367W        W66093  31.370  44.255   2.162
94368W        W66094   0.698  16.069   3.148
94369W        W66095  42.880   1.232   3.021
94370W        W66096  26.541  32.114   4.157
94371W        W66097  35.978  20.772  13.579
94372W        W66098  36.649  15.878   3.700
94373W        W66099  14.781  19.460  12.339
94374W        W66100   1.815   6.840   2.742
94375W        W66101   9.277   8.622  14.741
94376W        W66102  34.445  35.582  13.770
94377W        W66103   0.592  20.904   1.290
94378W        W66104  42.016  35.358  14.911
94379W        W66105  39.150  40.044  13.060
94380W        W66106  18.084  37.444  10.524
94381W        W66107   1.760  28.388  12.011
94382W        W66108   2.350  25.396  12.086
94383W        W66109  42.246  35.879   0.341
94384W        W66110   6.939  18.579  13.372
94385W        W66111  39.826  26.720  10.775
94386W        W66112  20.780  33.550   3.847
94387W        W66113  43.928   5.783   4.671
94388W        W66114  34.118  35.981   1.002
94389W        W66115  37.382  32.526  14.707
94390W        W66116  35.560  42.249  12.937
94391W        W66117  25.620  24.211   3.534
94392W        W66118  33.473  42.922  10.147
94393W        W66119  21.152  41.928   0.376
94394W        W66120   4.713  33.533  14.054
94395W        W66121  24.770  32.933   3.857
94396W        W66122  33.035  38.362   0.285
94397W        W66123  42.801  24.161   2.284
94398W        W66124  44.942   4.677  13.458
94399W        W66125  17.051  18.098  12.858
94400W        W66126  26.943  24.041  10.740
94401W        W66127  43.383  13.072   0.893
94402W        W66128  23.202  18.139  11.466
94403W        W66129  26.102  27.190  11.127
94404W        W66130  44.065  18.410   3.123
94405W        W66131  20.984   6.916  10.657
94406W        W66132   5.377  23.112   0.386
94407W        W66133  26.463  39.042  14.003
94408W        W66134  37.034  19.295  10.971
94409W        W66135  42.433  14.678   0.450
94410W        W66136  33.554  10.401  14.398
94411W        W66137   4.427   9.758  11.689
94412W        W66138   8.420   0.002  11.575
94413W        W66139  21.870  30.398   2.657
94414W        W66140  27.361  31.504  12.842
94415W        W66141   9.924  15.648   1.741
94416W        W66142  24.517   3.338  11.183
94417W        W66143  32.409   0.041   2.825
94418W        W66144  19.113  42.078   3.742
94419W        W66145  19.083  29.551  11.874
94420W        W66146  30.262  31.290  12.884
94421W        W66147  41.863  42.926  14.728
94422W        W66148   3.823   1.674   4.591
94423W        W66149  40.386   0.948   0.317
94424W        W66150  18.179  28.932   2.688
94425W        W66151  39.111   8.730   0.719
94426W        W66152   1.135  36.946  11.109
94427W        W66153  33.143  18.131  10.364
94428W        W66154  36.537  36.620  14.775
94429W        W66155   4.323  11.368  14.955
94430W        W66156  40.822  40.869   2.152
94431W        W66157  30.440  43.723   0.259
94432W        W66158   0.950  12.054   0.135
94433W        W66159  31.676  20.180  12.424
94434W        W66160  21.756  34.410  11.608
94435W        W66161  21.584  19.493   2.292
94436W        W66162   7.731  37.609   2.254
94437W        W66163  26.046  41.202  11.946
94438W        W66164  21.326  11.008   1.951
94439W        W66165   4.724   4.177   1.885
94440W        W66166  39.971  21.552   4.450
94441W        W66167  28.851  44.761  14.443
94442W        W66168  40.123   1.969  14.422
94443W        W66169   8.336  17.101   1.328
94444W        W66170  11.719  35.791  13.629
94445W        W66171  38.919  30.898   2.828
94446W        W66172  41.556   1.942   4.479
94447W        W66173   2.605  32.952   4.086
94448W        W66174  27.201  14.029   0.814
94449W        W66175   5.682  13.820   1.430
94450W        W66176  29.685  23.067  12.422
94451W        W66177  17.491  20.685  12.150
94452W        W66178  27.587  25.302  13.370
94453W        W66179  37.480  34.502   1.283
94454W        W66180  23.011  22.048  12.086
94455W        W66181   5.908  44.340  13.732
94456W        W66182  22.608  27.831   4.888
94457W        W66183   8.118  37.948  14.441
94458W        W66184  35.450  24.506  11.321
94459W        W66185  19.742  34.484  14.131
94460W        W66186   8.916  42.906   0.962
94461W        W66187  36.381   3.531  14.387
94462W        W66188  22.664  23.708   4.695
94463W        W66189  42.124  36.829   3.329
94464W        W66190  31.013  33.670   0.506
94465W        W66191  38.422  40.000  12.465
94466W        W66192  21.447  14.388  10.670
94467W        W66193   0.376  38.513   0.362
94468W        W66194  19.921  15.313  10.791
94469W        W66195  20.580  26.057   0.311
94470W        W66196  16.906  31.356  13.418
94471W        W66197  42.975  42.892  13.132
94472W        W66198  11.484  29.450   4.196
94473W        W66199   1.015  24.079   0.363
94474W        W66200  36.417  39.488   0.209
94475W        W66201  36.554  20.787   2.599
94476W        W66202  24.528  14.394   5.455
94477W        W66203  21.774  26.234   2.204
94478W        W66204  31.189  44.244  11.031
94479W        W66205  27.452  27.025  14.747
94480W        W66206  36.597  16.572   0.017
94481W        W66207   9.792  21.143  14.553
94482W        W66208  31.338  14.313   2.220
94483W        W66209  13.742  39.931  11.655
94484W        W66210  23.430  34.048   1.853
94485W        W66211  27.638  22.738  14.432
94486W        W66212   8.412   4.023   4.374
94487W        W66213  31.611  20.358   0.307
94488W        W66214  29.099   8.671  10.686
94489W        W66215  15.842  13.183   3.181
94490W        W66216   8.897   7.693  12.581
94491W        W66217   1.951  13.904   4.577
94492W        W66218  19.511  44.308  13.496
94493W        W66219   1.056  15.794   1.407
94494W        W66220  34.047  29.490   4.325
94495W        W66221  28.545  24.268  14.379
94496W        W66222  13.355   9.521   1.012
94497W        W66223   6.878  21.288  10.590
94498W        W66224  16.855  32.718   3.306
94499W        W66225  41.654  32.254  11.325
94500W        W66226  42.718  39.587  11.185
94501W        W66227  11.824   2.530  13.450
94502W        W66228  28.019  40.336  10.776
94503W        W66229  21.738  26.358   3.019
94504W        W66230  26.316  34.655   2.333
94505W        W66231   0.018  23.632  13.059
94506W        W66232  37.305  41.378  11.035
94507W        W66233  34.618  25.973   0.509
94508W        W66234   9.131  23.795   0.320
94509W        W66235   9.502  21.604   0.273
94510W        W66236   9.169  32.894  14.147
94511W        W66237   8.843  32.822  11.584
94512W        W66238  28.170   9.862  14.266
94513W        W66239  23.355  18.508   1.433
94514W        W66240  16.964  43.337  11.920
94515W        W66241  14.624  20.108   1.209
94516W        W66242   2.199  26.454  10.721
94517W        W66243  25.284   0.497   2.372
94518W        W66244  24.573   4.223  11.476
94519W        W66245  22.223   3.385  11.105
94520W        W66246  14.805   3.226  12.944
94521W        W66247  10.921  16.657  14.734
94522W        W66248   5.720  33.440  13.831
94523W        W66249  15.122  29.884   0.781
94524W        W66250  26.748  23.415  12.347
94525W        W66251  22.496  18.107  12.843
94526W        W66252  22.895  27.657  13.561
94527W        W66253   6.714  38.576  12.410
94528W        W66254  16.331   3.742  12.463
94529W        W66255  13.975   6.815   2.913
94530W        W66256   4.988   5.407  13.443
94531W        W66257   3.487   3.769   4.530
94532W        W66258  28.755  37.032  11.888
94533W        W66259  32.797  41.287   3.209
94534W        W66260   4.778  30.369   2.981
94535W        W66261  14.703   7.315  10.247
94536W        W66262  19.783  33.123  13.884
94537W        W66263  42.038  25.002   0.252
94538W        W66264  14.666  38.392   3.196
94539W        W66265  21.283   5.759   2.656
94540W        W66266   2.408  24.377   4.702
94541W        W66267  40.780  11.701  13.062
94542W        W66268  10.298  28.184   2.515
94543W        W66269  43.795   9.518   1.861
94544W        W66270  33.785  42.921   3.197
94545W        W66271  25.004  42.553   4.489
94546W        W66272  34.467  27.936  14.459
94547W        W66273  15.716  42.288  14.335
94548W        W66274  23.709  41.074   1.880
94549W        W66275   2.755  20.313   3.172
94550W        W66276  32.268   4.409  14.820
94551W        W66277  26.954  13.074  14.917
94552W        W66278  36.896   8.947   0.473
94553W        W66279  33.847   7.365  11.118
94554W        W66280  10.122  30.394  12.419
94555W        W66281   8.313  44.246   4.633
94556W        W66282  22.596  28.894  11.594
94557W        W66283  31.433  22.471  11.618
94558W        W66284  34.452   1.969   1.483
94559W        W66285  36.820  17.684   4.093
94560W        W66286  17.840  37.929  11.983
94561W        W66287  32.161  18.936   1.146
94562W        W66288  39.808  40.224  14.890
94563W        W66289  11.473  10.871  12.047
94564W        W66290  23.452  24.604  12.932
94565W        W66291  32.069   6.556   0.845
94566W        W66292  10.393  36.482  11.997
94567W        W66293  15.128  30.022   4.567
94568W        W66294  37.362   0.772   1.440
94569W        W66295  40.371  29.117   0.255
94570W        W66296  23.537  37.303   3.384
94571W        W66297  41.108  40.501   1.487
94572W        W66298  18.091   9.506  12.187
94573W        W66299  20.305  17.755  10.496
94574W        W66300   4.491  38.994  13.469
94575W        W66301  25.649  13.734  13.111
94576W        W66302  38.820  36.098   4.953
94577W        W66303   5.688  42.005   0.833
94578W        W66304   1.531  29.708  11.088
94579W        W66305   2.459  21.740  12.046
94580W        W66306  10.228  14.305  14.934
94581W        W66307  32.729  10.655   4.488
94582W        W66308  23.352  43.883   1.385
94583W        W66309  36.243  41.807  13.114
94584W        W66310  11.627  37.855  10.480
94585W        W66311  14.349  18.783  11.584
94586W        W66312  24.524  33.889  14.296
94587W        W66313   4.783  33.919   2.576
94588W        W66314  15.764  30.620  14.065
94589W        W66315  28.240   9.067  14.836
94590W        W66316   4.785  28.045   1.344
94591W        W66317   6.640  21.708  14.863
94592W        W66318  29.317  29.857  14.913
94593W        W66319  31.109  26.666  12.905
94594W        W66320   0.312  42.803  14.973
94595W        W66321  18.598  27.450  14.781
94596W        W66322  12.945  30.103   2.697
94597W        W66323   7.420  39.788  13.993
94598W        W66324   3.014  29.254   0.268
94599W        W66325  15.240  42.468  10.947
94600W        W66326  35.848  27.920   4.224
94601W        W66327  21.117   8.116   1.701
94602W        W66328  24.874  32.006  10.723
94603W        W66329  31.503  13.832  12.900
94604W        W66330  28.913  18.921   4.201
94605W        W66331  43.458  12.725   0.266
94606W        W66332   6.232  27.321   0.771
94607W        W66333  14.827  21.884  12.404
94608W        W66334   0.274  32.832  14.918
94609W        W66335  37.772   5.135   3.165
94610W        W66336  37.755  37.027  14.447
94611W        W66337   5.885   8.180  11.562
94612W        W66338  20.401   9.828   2.179
94613W        W66339  14.179  18.830  12.598
94614W        W66340  24.310  12.801   0.330
94615W        W66341   0.588  23.482   1.352
94616W        W66342  33.608  25.703   0.920
94617W        W66343  34.307  40.253  10.836
94618W        W66344   2.880  33.736  12.414
94619W        W66345  41.533  34.778   3.199
94620W        W66346  44.310  12.648   2.706
94621W        W66347  36.652  36.269   9.740
94622W        W66348  10.201  20.175  13.607
94623W        W66349  28.691  38.910  14.482
94624W        W66350  11.669  23.301  14.912
94625W        W66351  15.459  13.911  11.108
94626W        W66352  16.259   2.929   3.001
94627W        W66353  27.740   2.399   4.764
94628W        W66354   2.361  35.771  11.549
94629W        W66355   4.164  39.458   3.220
94630W        W66356  10.089  41.468   1.836
94631W        W66357  31.555  25.510   4.730
94632W        W66358   0.966  35.944  10.662
94633W        W66359   9.383  14.203   3.207
94634W        W66360   9.999  12.553  13.272
94635W        W66361  25.508   6.721   0.316
94636W        W66362   2.325  29.523   3.684
94637W        W66363  17.706  43.015   0.938
94638W        W66364  21.559  43.398  10.670
94639W        W66365  22.637  16.319   4.601
94640W        W66366  35.112  36.400  14.500
94641W        W66367   3.478   1.899  14.299
94642W        W66368  25.450  22.126   4.829
94643W        W66369  18.158   6.288  11.433
94644W        W66370  10.324  31.601   0.463
94645W        W66371  26.882  32.576  12.066
94646W        W66372  35.463  18.991  13.402
94647W        W66373  37.125  12.758  13.514
94648W        W66374   0.351   5.659   4.601
94649W        W66375  38.802  32.091   3.173
94650W        W66376  11.113  22.492   3.309
94651W        W66377  33.963  39.818  13.425
94652W        W66378  28.193  17.774   2.194
94653W        W66379  17.077  19.563  12.078
94654W        W66380  40.847   9.503  12.967
94655W        W66381  35.902  20.419  12.898
94656W        W66382   9.557  20.705   2.810
94657W        W66383  10.166  22.165   3.770
94658W        W66384  36.120  41.299  14.429
94659W        W66385  44.483  13.557   3.201
94660W        W66386  10.641  14.146   2.602
94661W        W66387  15.287  39.571  10.953
94662W        W66388  16.386  24.300  14.812
94663W        W66389  37.845  39.318   4.455
94664W        W66390  22.067  22.823   3.168
94665W        W66391  11.435  10.874  10.685
94666W        W66392  16.774   6.958  11.529
94667W        W66393  44.560  42.898   1.782
94668W        W66394   6.218  20.081  12.369
94669W        W66395   7.887  23.221  12.091
94670W        W66396  20.704  44.793   0.490
94671W        W66397  12.607  21.114   3.358
94672W        W66398  18.212  25.611   3.232
94673W        W66399   9.191  27.115   1.607
94674W        W66400   9.459  13.608  13.016
94675W        W66401  35.346   1.474   0.513
94676W        W66402   6.726  15.578   9.763
94677W        W66403  33.423  17.087  10.258
94678W        W66404  21.848  23.761   2.952
94679W        W66405   4.323  31.465  11.501
94680W        W66406  38.524   9.980   1.130
94681W        W66407  42.907  24.740   2.968
94682W        W66408   1.408  39.234   2.361
94683W        W66409  24.935  30.012  14.369
94684W        W66410  16.883  44.513   1.836
94685W        W66411   7.704  37.933   4.875
94686W        W66412  39.345  11.690  14.038
94687W        W66413  38.665  21.541  13.406
94688W        W66414   8.712  24.891   5.200
94689W        W66415   8.585  31.947  10.593
94690W        W66416  16.026  37.641   1.808
94691W        W66417  35.369  40.520   0.281
94692W        W66418  28.972  10.128   2.878
94693W        W66419   9.776  32.993   0.836
94694W        W66420  23.623   4.440  14.302
94695W        W66421  30.966  38.854   1.826
94696W        W66422  10.799  16.841  13.352
94697W        W66423   3.128  30.531  13.053
94698W        W66424  28.449  12.841   0.891
94699W        W66425   3.236  43.379   4.983
94700W        W66426  21.528   0.767   4.814
94701W        W66427  32.574  22.597  14.422
94702W        W66428  31.454  13.062  11.181
94703W        W66429  36.304   5.928   1.296
94704W        W66430  24.683  44.297   1.314
94705W        W66431  21.920  12.200   4.952
94706W        W66432  13.787  38.037   1.790
94707W        W66433   3.474  34.718   1.464
94708W        W66434   5.426  11.154   3.059
94709W        W66435  21.622  33.889   4.113
94710W        W66436  14.993  20.191  10.718
94711W        W66437  17.661  36.430   3.914
94712W        W66438  15.698  21.256   2.659
94713W        W66439  17.237  18.678   3.207
94714W        W66440  29.880  28.923   1.549
94715W        W66441  38.011  30.731  13.932
94716W        W66442  12.917   4.418  14.626
94717W        W66443  41.463  16.215  12.939
94718W        W66444  27.305  36.647  10.999
94719W        W66445  19.793  32.520  13.210
94720W        W66446  19.445  18.205  12.615
94721W        W66447  33.367  18.743  13.650
94722W        W66448   9.970   0.215  12.039
94723W        W66449  20.594  27.498  10.946
94724W        W66450  13.894  41.548   1.390
94725W        W66451  28.967  13.064   1.337
94726W        W66452  34.460  29.076   3.289
94727W        W66453  22.451  14.588  12.088
94728W        W66454   6.015  30.194  11.923
94729W        W66455  39.239  37.568   4.085
94730W        W66456   9.671  11.610  10.709
94731W        W66457  24.405   3.948  10.598
94732W        W66458  36.035  37.791  14.952
94733W        W66459  16.737  38.581  11.146
94734W        W66460  33.891  17.142  10.505
94735W        W66461   2.744  27.663  14.542
94736W        W66462  15.359  10.721   2.802
94737W        W66463  36.581  18.265   3.686
94738W        W66464  22.056  40.476  13.101
94739W        W66465  32.894  27.151   1.852
94740W        W66466  36.101  30.894  11.137
94741W        W66467  33.177  16.210   4.848
94742W        W66468   8.280   0.716  12.509
94743W        W66469  40.013  14.591  14.466
94744W        W66470  36.903  17.462   0.366
94745W        W66471  37.506   7.235  13.388
94746W        W66472  35.015  43.473   2.381
94747W        W66473  24.633   8.215  11.290
94748W        W66474   5.601   5.021  11.626
94749W        W66475  43.488  26.376  11.840
94750W        W66476  17.669  37.890   4.284
94751W        W66477  43.299   9.360  12.161
94752W        W66478  41.303   4.186   3.700
94753W        W66479  15.409  35.453   4.565
94754W        W66480  11.793  20.002  13.944
94755W        W66481  14.253  25.575   3.169
94756W        W66482  28.005  35.626   4.476
94757W        W66483  38.546   2.784   0.048
94758W        W66484  12.564  35.694   1.844
94759W        W66485  15.672  16.987  11.168
94760W        W66486  31.854   2.040  14.811
94761W        W66487  29.030  19.570  13.366
94762W        W66488  21.216  39.681  12.157
94763W        W66489  29.951  29.899  10.787
94764W        W66490  18.162  43.627  11.973
94765W        W66491  15.208  21.038  11.973
94766W        W66492   8.231   5.798   1.449
94767W        W66493  11.236   4.717   0.122
94768W        W66494   2.337  39.241   0.559
94769W        W66495   6.431  30.841   2.749
94770W        W66496   1.780  17.679  10.711
94771W        W66497  38.463   2.115  12.134
94772W        W66498   4.850  14.517  10.426
94773W        W66499  20.599  25.005  11.894
94774W        W66500   6.932  35.511  12.629
94775W        W66501  39.065  17.535  11.064
94776W        W66502  20.527  43.310   3.174
94777W        W66503  19.624  35.342   3.657
94778W        W66504  36.789  29.018   3.662
94779W        W66505  28.976  30.945   1.735
94780W        W66506  10.186  40.385   0.198
94781W        W66507   2.489  13.919  12.324
94782W        W66508  42.438  44.812  13.524
94783W        W66509  19.540  19.114   1.389
94784W        W66510   4.443  44.418  11.178
94785W        W66511   9.162  19.179   3.374
94786W        W66512  10.791  40.492  11.962
94787W        W66513  24.415  30.111   2.088
94788W        W66514   1.741   3.830  11.724
94789W        W66515  18.758  36.283   2.658
94790W        W66516  35.908   6.894  10.673
94791W        W66517  36.595   7.164   0.555
94792W        W66518  19.625  21.737   3.202
94793W        W66519  40.360  42.516  11.667
94794W        W66520  19.846  21.578  13.889
94795W        W66521  19.960   0.975   0.372
94796W        W66522  17.370  13.646   2.734
94797W        W66523   4.449  24.199   0.382
94798W        W66524  38.984  22.949   2.816
94799W        W66525  33.370  23.564   4.593
94800W        W66526   4.779  39.203   0.629
94801W        W66527  32.176  36.156  12.926
94802W        W66528  31.143   8.828   4.022
94803W        W66529  41.287  22.185   3.410
94804W        W66530  18.266  39.054  12.458
94805W        W66531   6.818  16.140   2.329
94806W        W66532   7.363  27.732   0.284
94807W        W66533   2.154  26.930   0.350
94808W        W66534  26.116  15.709  13.567
94809W        W66535  44.801   7.263   3.142
94810W        W66536  37.369  14.706   0.351
94811W        W66537  36.051   3.072  12.503
94812W        W66538  40.531  37.459   0.403
94813W        W66539  26.687  19.914  12.953
94814W        W66540  15.215  10.175  14.156
94815W        W66541  27.702  11.273   3.316
94816W        W66542  25.410  29.048   3.407
94817W        W66543  39.281  13.365  12.862
94818W        W66544  28.016  18.168  11.725
94819W        W66545  15.845  15.574   4.596
94820W        W66546  36.747   9.275   1.844
94821W        W66547  41.394  25.161   3.566
94822W        W66548  35.552   2.750   0.244
94823W        W66549   4.050  26.624  12.562
94824W        W66550  30.151  10.886   0.849
94825W        W66551  18.578  27.137   0.237
94826W        W66552  14.855  32.959  13.401
94827W        W66553  20.798   8.609   4.892
94828W        W66554  42.975  41.487   4.668
94829W        W66555  29.458   7.998   4.370
94830W        W66556  32.696  38.776   1.259
94831W        W66557  24.422   6.121   2.304
94832W        W66558   2.890   2.434   3.649
94833W        W66559   1.551  14.150   4.904
94834W        W66560   3.546   3.224   3.751
94835W        W66561  32.992   3.764  10.775
94836W        W66562  27.653  23.000   2.656
94837W        W66563   8.524  13.833  12.467
94838W        W66564  20.487  36.086  12.071
94839W        W66565  14.264   1.297   4.125
94840W        W66566  16.233  14.151  12.428
94841W        W66567  30.485  12.576  11.997
94842W        W66568  28.683  19.240  14.288
94843W        W66569  42.914   5.041   2.493
94844W        W66570  11.506   8.840  10.211
94845W        W66571   2.594  21.628  14.806
94846W        W66572  13.139  18.710   1.607
94847W        W66573  27.955  24.450   0.825
94848W        W66574  35.893  33.133  13.952
94849W        W66575  37.603  26.120   0.481
94850W        W66576  16.270  36.426  11.442
94851W        W66577  26.214  27.373   2.140
94852W        W66578  37.952  19.655   1.267
94853W        W66579  26.325  43.873  11.153
94854W        W66580  37.070  34.971  14.333
94855W        W66581  25.660  36.367   2.674
94856W        W66582  13.929  19.660   1.913
94857W        W66583  31.363   2.374  13.938
94858W        W66584  23.269  30.034  14.018
94859W        W66585  38.876  14.600  13.361
94860W        W66586  42.119  30.566   3.644
94861W        W66587  34.429  36.767   0.279
94862W        W66588  13.606  11.372  11.879
94863W        W66589  33.458  16.377   0.865
94864W        W66590   5.667   4.497  10.035
94865W        W66591  14.601  27.049   3.690
94866W        W66592  13.469  19.540  10.733
94867W        W66593  28.626  10.955   4.102
94868W        W66594  13.178  36.489   1.643
94869W        W66595   5.737  26.026  10.598
94870W        W66596  19.309  11.364   4.537
94871W        W66597  24.698  37.002   3.864
94872W        W66598  16.776  14.100   2.351
94873W        W66599  24.433  28.966  13.888
94874W        W66600  34.022  37.872   1.863
94875W        W66601   1.502  33.410   3.593
94876W        W66602   2.161  39.274  13.917
94877W        W66603  38.145   8.720  13.959
94878W        W66604  28.644  30.144   0.349
94879W        W66605  42.443  16.941  11.986
94880W        W66606  33.475  31.740  13.388
94881W        W66607  16.841  14.138   0.910
94882W        W66608  30.958  31.787  11.448
94883W        W66609  35.041  25.937   4.601
94884W        W66610  28.379  26.686   2.620
94885W        W66611  25.138  31.491   1.148
94886W        W66612  17.691   5.704  12.573
94887W        W66613  27.081  43.730   1.768
94888W        W66614   8.908  28.046   2.832
94889W        W66615  42.336  32.734   1.837
94890W        W66616  37.895  24.172  13.190
94891W        W66617  15.512  37.569   1.781
94892W        W66618   9.274  16.875  13.905
94893W        W66619  11.695  32.793  10.817
94894W        W66620  43.407   1.006   4.205
94895W        W66621  16.445  38.439  13.804
94896W        W66622   9.164  44.805  12.361
94897W        W66623  26.116  26.916   1.218
94898W        W66624  26.020  17.548  13.940
94899W        W66625   8.309  25.566  12.363
94900W        W66626  32.427  37.458   4.170
94901W        W66627  24.199  19.403  12.565
94902W        W66628   6.346   2.528  12.136
94903W        W66629  20.543   8.843  12.471
94904W        W66630   5.229  26.033  12.104
94905W        W66631  14.580  26.109   4.645
94906W        W66632   9.237  31.800  14.580
94907W        W66633  12.852  34.089  11.066
94908W        W66634  11.905  43.886   2.418
94909W        W66635  14.552  10.705   0.943
94910W        W66636  28.951  21.484  10.674
94911W        W66637  26.118  39.969   2.403
94912W        W66638  40.082  37.479   2.217
94913W        W66639   8.330  27.076  14.342
94914W        W66640  20.792   3.191  12.342
94915W        W66641   7.389   9.108  12.929
94916W        W66642  11.073  15.735  11.185
94917W        W66643   3.469   5.294   4.023
94918W        W66644  13.209  30.686   2.750
94919W        W66645  15.343  32.948   4.720
94920W        W66646  23.444  44.518  12.032
94921W        W66647  35.963  12.940   3.674
94922W        W66648  25.968   4.671   2.476
94923W        W66649  38.515  10.957   0.789
94924W        W66650  24.640   2.234   0.829
94925W        W66651  10.181   1.701   4.440
94926W        W66652   2.102  34.509   4.546
94927W        W66653  43.731  24.760   1.637
94928W        W66654  28.218  10.175  11.083
94929W        W66655  31.592  41.053  11.191
94930W        W66656   0.042  13.751   2.138
94931W        W66657  15.379  13.835   3.714
94932W        W66658   0.872  36.316  11.718
94933W        W66659   4.298  14.374  12.381
94934W        W66660  16.003  26.925  14.081
94935W        W66661  11.821  36.172   1.714
94936W        W66662  31.603  32.033   3.158
94937W        W66663  15.070  16.213  12.348
94938W        W66664  42.717  18.117   1.655
94939W        W66665  28.047  13.785  13.367
94940W        W66666   2.026  39.459   2.909
94941W        W66667  32.081  41.545  13.607
94942W        W66668  23.712  30.537   1.422
94943W        W66669  30.191   6.665   1.004
94944W        W66670  26.754  38.128  12.982
94945W        W66671  12.839  25.957  12.814
94946W        W66672   9.703  38.321   1.841
94947W        W66673  28.630  18.439  12.482
94948W        W66674  16.190  29.756   0.713
94949W        W66675  41.091   6.812  10.472
94950W        W66676   2.909   9.210  13.798
94951W        W66677  43.916  27.735   3.194
94952W        W66678  28.044  31.944   5.067
94953W        W66679  20.858  29.611   4.124
94954W        W66680  31.014  13.124   4.812
94955W        W66681  27.558  11.745  12.899
94956W        W66682  42.938  36.889  12.507
94957W        W66683  43.765  21.500   0.283
94958W        W66684   9.886   9.345   0.664
94959W        W66685   6.634  35.108  14.754
94960W        W66686   2.194  35.415   2.749
94961W        W66687   8.657   8.469  11.090
94962W        W66688   4.362  32.076  10.019
94963W        W66689  40.106  27.997  12.582
94964W        W66690  20.941  37.369   4.784
94965W        W66691  33.555  15.221   4.152
94966W        W66692  40.913  22.703  12.885
94967W        W66693  35.230  36.781  12.418
94968W        W66694  31.629  40.749  12.504
94969W        W66695  34.980  23.236   0.827
94970W        W66696  13.259  30.863   4.667
94971W        W66697   1.275  10.126   1.714
94972W        W66698   6.408  16.533  11.608
94973W        W66699  32.987  31.894  12.542
94974W        W66700   1.421  33.990   3.269
94975W        W66701  14.548  37.859   3.710
94976W        W66702  28.558  42.786   2.766
94977W        W66703   8.730  16.068   4.417
94978W        W66704  31.916  38.740   1.813
94979W        W66705  20.640  19.301   2.726
94980W        W66706  15.816  12.432  12.962
94981W        W66707  30.574  42.179  11.925
94982W        W66708   2.530  21.784   0.946
94983W        W66709  36.383  24.541   1.360
94984W        W66710  22.757  22.444   1.355
94985W        W66711  34.164   6.629  12.885
94986W        W66712  25.575  37.047  13.531
94987W        W66713  25.586  19.538   2.726
94988W        W66714   0.665  11.879  10.830
94989W        W66715  28.794  33.631  14.416
94990W        W66716  21.161   3.797   0.682
94991W        W66717  14.261  28.085   3.268
94992W        W66718  39.906  25.724   1.224
94993W        W66719   9.301  31.404   0.421
94994W        W66720  16.694  20.366   3.817
94995W        W66721  34.448  18.748  14.341
94996W        W66722  18.068  24.706   1.933
94997W        W66723  43.045  21.305  12.853
94998W        W66724   6.366  16.611  14.319
94999W        W66725  21.090  21.690   3.301
95000W        W66726  43.474   0.181   2.340
95001W        W66727  13.316  24.007   4.132
95002W        W66728  33.076   4.221   0.348
95003W        W66729  29.898  23.643  11.097
95004W        W66730  31.174  40.961  12.162
95005W        W66731   6.973  23.654   4.191
95006W        W66732  33.129  23.538  10.603
95007W        W66733  41.836  39.891  12.596
95008W        W66734  11.794   5.395  14.065
95009W        W66735  15.296  34.783  14.405
95010W        W66736   9.267  22.621  14.524
95011W        W66737  42.030  26.074   4.931
95012W        W66738  36.153  34.488   3.813
95013W        W66739  16.609  38.882  12.451
95014W        W66740   5.825  41.037  11.735
95015W        W66741  13.715  36.973  14.564
95016W        W66742   0.723  39.501   0.269
95017W        W66743  29.034  21.291   9.860
95018W        W66744   4.427  18.853  12.609
95019W        W66745   7.066  12.123   0.814
95020W        W66746  39.986  43.965   1.019
95021W        W66747  11.607   0.219  13.002
95022W        W66748  13.351  13.204   2.222
95023W        W66749  14.830  34.897  10.791
95024W        W66750  10.285  41.573   4.028
95025W        W66751  35.133  17.276   0.766
95026W        W66752  29.505  20.995   2.683
95027W        W66753  27.077  42.873   0.294
95028W        W66754  30.476  37.905   0.989
95029W        W66755  35.883  40.201  13.034
95030W        W66756  19.298  18.757  12.391
95031W        W66757   0.868  28.338   9.602
95032W        W66758  19.449   2.989   2.710
95033W        W66759   6.907   9.863   4.362
95034W        W66760  24.044  36.708  13.262
95035W        W66761  36.102  37.399   3.250
95036W        W66762   7.434   5.356  13.587
95037W        W66763   8.643  14.416   2.761
95038W        W66764  22.215  28.172   4.994
95039W        W66765  17.280  13.840   0.292
95040W        W66766  20.269   6.719  10.509
95041W        W66767   9.298  12.064   4.679
95042W        W66768  38.831  24.444   1.158
95043W        W66769   0.613  20.953   5.162
95044W        W66770  12.779  29.368   2.357
95045W        W66771   7.866  25.735  13.032
95046W        W66772   4.225  16.048  14.027
95047W        W66773   9.512  11.677   3.309
95048W        W66774  34.436  35.395   1.361
95049W        W66775  25.677  23.487   4.673
95050W        W66776  22.028  32.784  14.701
95051W        W66777   3.680  19.564   2.186
95052W        W66778   9.141  12.357   4.259
95053W        W66779  23.691   3.475  12.373
95054W        W66780  21.096  29.109   4.391
95055W        W66781  25.605  41.001   4.556
95056W        W66782  41.355   9.601   2.546
95057W        W66783  14.299  43.434  10.704
95058W        W66784  44.860  44.676   2.561
95059W        W66785  41.076  10.156   4.287
95060W        W66786  40.372   3.689   2.721
95061W        W66787  25.416  14.826   0.776
95062W        W66788   3.654  43.234   0.832
95063W        W66789  25.218  37.557   5.071
95064W        W66790   3.616  19.478  11.706
95065W        W66791  30.573  42.432   4.566
95066W        W66792  41.394   8.301   2.436
95067W        W66793   9.884   2.965  11.608
95068W        W66794   9.424  15.704   0.802
95069W        W66795  43.106  44.890  13.950
95070W        W66796  41.794  37.929  11.676
95071W        W66797  44.426  35.815  11.120
95072W        W66798  30.528   1.753   0.898
95073W        W66799   5.391  31.683   3.746
95074W        W66800   8.836  20.273  14.427
95075W        W66801  36.915  44.861  14.494
95076W        W66802  25.043   6.921   1.150
95077W        W66803  31.258  44.754  10.254
95078W        W66804  34.997  18.584   2.676
95079W        W66805  25.220   0.421   1.861
95080W        W66806  11.412  29.347  12.864
95081W        W66807  36.815  19.110   1.349
95082W        W66808  22.597  23.752   9.898
95083W        W66809   7.629   5.106   9.714
95084W        W66810  39.381  35.762  10.917
95085W        W66811   0.801  13.471  12.608
95086W        W66812  42.378  18.809  11.631
95087W        W66813  14.792  20.121  12.876
95088W        W66814  30.473  15.130   2.298
95089W        W66815  25.088  41.812   2.877
95090W        W66816  37.072  17.493  14.839
95091W        W66817  10.033  17.575  13.661
95092W        W66818  24.768   8.640  11.699
95093W        W66819  27.451   7.652   1.317
95094W        W66820   8.922   3.448   1.871
95095W        W66821  11.314  24.166   0.335
95096W        W66822  34.480  34.894   1.204
95097W        W66823  37.940  21.115  10.731
95098W        W66824  10.146  30.527   4.388
95099W        W66825   6.602  19.650   0.206
95100W        W66826  39.544  16.827  13.387
95101W        W66827  29.706  12.292   1.268
95102W        W66828  37.119  22.215   2.403
95103W        W66829  11.175   1.073   5.118
95104W        W66830  37.942   1.238  12.900
95105W        W66831   7.799  23.241  14.750
95106W        W66832   3.237  41.707  13.626
95107W        W66833  19.101  14.219   2.902
95108W        W66834  40.281  39.795   0.874
95109W        W66835  25.306  24.718  11.140
95110W        W66836  36.273  12.403   2.930
95111W        W66837  43.928  36.521   1.534
95112W        W66838  34.749  21.204  12.959
95113W        W66839  44.671  19.298   1.231
95114W        W66840  29.270  20.230   3.869
95115W        W66841  15.773   8.297   4.206
95116W        W66842   7.358  30.052  13.565
95117W        W66843  14.650   1.391  12.084
95118W        W66844  22.026   4.766  13.887
95119W        W66845  41.872  43.831   0.713
95120W        W66846  41.524  36.108   3.673
95121W        W66847  22.194  31.987  14.855
95122W        W66848   2.155  31.611   2.697
95123W        W66849  24.105  10.336  10.652
95124W        W66850  24.107  12.218  11.397
95125W        W66851  28.555   6.612  13.462
95126W        W66852   9.773  39.886  14.304
95127W        W66853  33.883   6.031  11.458
95128W        W66854  15.734  44.018   2.858
95129W        W66855  44.112  20.998   1.736
95130W        W66856  44.313  39.442   3.270
95131W        W66857  15.411  25.128   5.071
95132W        W66858  12.202   2.228  11.624
95133W        W66859   5.478  25.554   1.884
95134W        W66860  17.068  42.996   2.419
95135W        W66861  25.117  41.027  11.959
95136W        W66862  20.556   8.147  14.918
95137W        W66863  25.150  23.749   0.888
95138W        W66864  33.932  21.608  14.002
95139W        W66865  11.985   4.165  14.243
95140W        W66866  13.937  16.566  12.928
95141W        W66867  42.498  29.833  12.806
95142W        W66868  38.534  14.171   2.328
95143W        W66869  23.932  33.055  14.784
95144W        W66870  34.082  16.858   0.295
95145W        W66871  28.265  20.991   0.303
95146W        W66872  40.842  23.726   1.307
95147W        W66873  23.602   0.811  14.957
95148W        W66874  30.175  36.385   1.234
95149W        W66875   2.992   4.650  13.588
95150W        W66876  13.762   7.720  14.662
95151W        W66877  38.496   5.828   3.668
95152W        W66878  36.456  44.896  13.721
95153W        W66879  14.317   3.958  14.436
95154W        W66880  16.289  24.916   1.381
95155W        W66881  17.053   7.752   2.298
95156W        W66882  33.471  24.061  12.029
95157W        W66883  15.778  28.181  14.849
95158W        W66884  36.040  18.096  13.308
95159W        W66885   0.968  40.993   3.285
95160W        W66886  42.408  40.330   1.349
95161W        W66887  17.786  18.104  14.364
95162W        W66888  39.887  21.159   3.373
95163W        W66889  36.613  37.539   3.303
95164W        W66890  25.109  29.402  14.882
95165W        W66891  25.554  10.269  13.856
95166W        W66892  12.413  19.535   0.750
95167W        W66893  14.589  20.737  13.528
95168W        W66894  37.862  14.628   0.544
95169W        W66895  38.968  42.990   0.714
95170W        W66896   0.368  42.318  14.777
95171W        W66897   9.812  32.955   5.594
95172W        W66898  37.030  10.633  13.939
95173W        W66899  17.607  12.650   3.600
95174W        W66900   9.938   3.617  13.131
95175W        W66901  27.225  28.575  14.834
95176W        W66902   4.178  18.595   0.785
95177W        W66903  19.741  40.526   1.773
95178W        W66904  25.263  43.152  13.424
95179W        W66905  12.738  39.969  11.258
95180W        W66906  18.081  39.146   2.007
95181W        W66907   6.887  39.544  12.438
95182W        W66908  23.308  42.005   1.716
95183W        W66909  15.760   9.751  10.735
95184W        W66910  18.094  28.879   0.333
95185W        W66911  10.471  43.402   2.245
95186W        W66912  38.052  38.308  10.408
95187W        W66913  41.627   9.157   4.177
95188W        W66914  18.760   5.921   3.251
95189W        W66915   6.238  14.030  11.667
95190W        W66916  25.214   9.346   2.364
95191W        W66917  30.115   1.063   2.881
95192W        W66918  11.802  33.565   4.995
95193W        W66919  24.458  19.223   0.061
95194W        W66920  19.830  21.549  12.687
95195W        W66921  13.194  17.324  12.280
95196W        W66922  26.715  35.112   1.659
95197W        W66923  30.628  38.778  12.438
95198W        W66924  34.864  14.778  12.936
95199W        W66925  17.171  22.532   2.105
95200W        W66926  24.924  14.239  10.735
95201W        W66927  17.105  14.319   1.595
95202W        W66928  31.441  13.342  10.702
95203W        W66929  39.246  34.231   2.699
95204W        W66930  14.397   1.440  13.375
95205W        W66931   0.978  17.312   4.126
95206W        W66932  40.118  22.778  12.003
95207W        W66933  12.870   4.588   1.866
95208W        W66934   5.399  16.121   0.282
95209W        W66935   3.498   8.416  11.703
95210W        W66936  43.307  29.019  13.467
95211W        W66937  10.771  41.934   0.536
95212W        W66938  22.787  10.331   1.727
95213W        W66939  10.671  17.463   4.919
95214W        W66940  16.748  28.546  10.633
95215W        W66941   4.936   1.677   0.965
95216W        W66942  16.595  40.544  14.463
95217W        W66943  36.085  12.487   3.443
95218W        W66944  28.146   7.840   0.380
95219W        W66945  26.453  32.085  10.725
95220W        W66946  33.368  10.936  12.905
95221W        W66947  42.447  18.220  10.870
95222W        W66948  40.377  39.344   4.119
95223W        W66949  24.118  14.469   3.860
95224W        W66950  27.638  30.561  12.515
95225W        W66951  44.679  32.592  13.853
95226W        W66952  21.980  43.242  11.090
95227W        W66953  34.528  41.390   1.331
95228W        W66954  14.056  16.302   0.092
95229W        W66955  27.164   3.360   2.602
95230W        W66956  18.682  20.120   1.384
95231W        W66957  21.060  35.019   1.262
95232W        W66958   0.575  27.291  12.031
95233W        W66959  39.495   7.080  13.092
95234W        W66960  16.625  28.611  14.982
95235W        W66961  33.977  40.907  14.985
95236W        W66962  17.213   2.654  13.722
95237W        W66963  33.054  23.737   4.217
95238W        W66964  28.400  24.842  12.013
95239W        W66965  38.145  31.416   4.589
95240W        W66966  19.535  41.850   2.781
95241W        W66967  32.937  24.908   4.985
95242W        W66968  20.814  19.779  13.957
95243W        W66969  12.214  39.599  13.370
95244W        W66970  14.037  11.242   0.467
95245W        W66971  32.144  37.959  11.455
95246W        W66972  20.497  10.725   4.583
95247W        W66973   9.604  39.404  14.296
95248W        W66974  14.179   0.005   2.368
95249W        W66975   7.687  20.289   0.178
95250W        W66976  22.283   0.967   2.757
95251W        W66977  24.131  15.238  12.608
95252W        W66978  10.242  41.032   4.039
95253W        W66979  39.591  38.327  12.012
95254W        W66980   0.852  31.094  12.084
95255W        W66981  15.112  25.504   3.615
95256W        W66982  27.898  14.648   3.366
95257W        W66983  30.317  25.465   2.320
95258W        W66984  20.533   8.954   3.349
95259W        W66985  29.545  31.403   4.549
95260W        W66986  12.079  20.160   4.504
95261W        W66987  24.666  15.115   1.394
95262W        W66988  17.845  41.323   2.204
95263W        W66989   0.943  35.619   0.228
95264W        W66990  15.577  10.460  14.443
95265W        W66991  34.253  37.560   1.449
95266W        W66992  28.000  33.433   1.217
95267W        W66993  30.883  18.768   2.171
95268W        W66994  25.652   4.302   4.660
95269W        W66995  24.509  30.024   2.611
95270W        W66996   7.189   7.214  11.071
95271W        W66997  33.928  18.622   2.627
95272W        W66998  40.639  22.678   2.764
95273W        W66999  40.784  11.747   4.280
95274W        W67000  33.599  40.336   1.785
95275W        W67001  42.421  24.735   2.752
95276W        W67002   3.542  28.082   4.954
95277W        W67003  22.721   5.866   1.314
95278W        W67004  34.937  22.703  10.325
95279W        W67005   7.248  19.674   3.937
95280W        W67006  26.469  23.264   4.201
95281W        W67007  17.816  33.795  14.760
95282W        W67008  39.331  29.079  10.645
95283W        W67009  43.560  28.099   4.287
95284W        W67010  28.160  29.609  12.022
95285W        W67011   9.684   8.723   2.418
95286W        W67012  37.901  31.621   1.356
95287W        W67013  22.689   8.760  14.934
95288W        W67014  13.390  40.370   0.927
95289W        W67015  41.820  10.534  12.689
95290W        W67016  15.589  20.368   0.967
95291W        W67017  32.916  12.237  12.169
95292W        W67018  11.713  15.204   1.875
95293W        W67019   1.479   5.319   4.080
95294W        W67020  37.391  28.604  12.046
95295W        W67021  35.590  41.188  10.601
95296W        W67022  19.317  22.110   4.171
95297W        W67023  23.208  11.931  14.858
95298W        W67024  10.267  20.327   3.019
95299W        W67025  33.040   5.484  14.846
95300W        W67026  31.515  32.043   4.274
95301W        W67027  14.579  22.884  11.587
95302W        W67028  20.516   7.420   4.263
95303W        W67029  27.557  37.941   3.431
95304W        W67030   8.998  17.668   3.837
95305W        W67031   0.440  29.613   0.557
95306W        W67032  21.096  12.933   3.701
95307W        W67033  38.017  18.664   4.870
95308W        W67034  22.057  37.431  10.443
95309W        W67035   0.739   0.194   2.228
95310W        W67036   9.026  36.834   0.393
95311W        W67037  34.465  14.297   0.259
95312W        W67038  40.550   7.900  12.338
95313W        W67039  16.355  32.042   1.209
95314W        W67040  31.089  36.097  11.961
95315W        W67041   3.263  22.526  14.296
95316W        W67042  22.963  32.472  10.652
95317W        W67043   0.313  33.597  12.008
95318W        W67044  28.854   5.622  11.644
95319W        W67045  27.806  28.978   0.458
95320W        W67046   1.845  16.328  10.801
95321W        W67047  36.707   5.831   4.942
95322W        W67048   5.998  32.552   1.961
95323W        W67049  18.046  18.586   4.081
95324W        W67050   0.483  43.855  10.709
95325W        W67051   5.453  30.893   1.439
95326W        W67052  16.850  10.369  11.973
95327W        W67053  36.612  14.015  14.147
95328W        W67054  43.284  16.303   3.932
95329W        W67055  26.156  28.173  14.357
95330W        W67056  25.404  36.047  11.615
95331W        W67057  43.402   2.380   2.748
95332W        W67058  29.032  36.405  12.825
95333W        W67059  34.535  29.628   4.170
95334W        W67060   8.696  37.945   2.248
95335W        W67061   4.895  15.670  14.714
95336W        W67062  19.504  10.958   4.242
95337W        W67063  36.872  16.314   2.988
95338W        W67064  16.812  14.650   3.207
95339W        W67065  43.487   8.307  10.705
95340W        W67066  26.901  43.424  14.027
95341W        W67067  31.447  41.529   3.591
95342W        W67068  19.978  25.481  12.299
95343W        W67069  31.357  33.496   1.902
95344W        W67070   7.114  28.898  12.572
95345W        W67071  32.495  13.854  10.376
95346W        W67072  18.324  24.280   2.934
95347W        W67073   0.212  43.455  11.558
95348W        W67074  10.976  10.683   3.116
95349W        W67075  15.794   1.191   0.703
95350W        W67076   6.278  38.101   1.884
95351W        W67077  42.047  34.411   1.453
95352W        W67078  13.602  16.711  11.978
95353W        W67079  38.399  43.282  10.686
95354W        W67080  30.190  34.314   0.459
95355W        W67081  10.300  41.822   3.604
95356W        W67082   6.750  32.153   1.779
95357W        W67083   9.321   4.202  10.573
95358W        W67084  21.541  17.781   3.253
95359W        W67085  26.181  13.330  12.886
95360W        W67086  43.900  26.529   2.803
95361W        W67087  18.672  39.144  13.012
95362W        W67088  37.392  30.201   4.620
95363W        W67089  24.541  42.438   2.807
95364W        W67090  18.732  43.415  10.865
95365W        W67091  10.363   4.741   4.892
95366W        W67092  14.582  13.224   3.686
95367W        W67093  21.313  34.620   1.489
95368W        W67094  28.910  31.043   0.193
95369W        W67095  33.473   5.211  14.784
95370W        W67096  32.571  14.564  14.044
95371W        W67097  30.417   8.844   1.414
95372W        W67098  41.468   3.229  12.475
95373W        W67099   9.698   9.478  14.689
95374W        W67100  18.299  24.784   1.434
95375W        W67101   8.472  25.488  13.358
95376W        W67102  28.983  13.563   0.457
95377W        W67103   2.075   4.886  13.391
95378W        W67104  38.948  12.859   1.696
95379W        W67105   0.185  33.967   0.965
95380W        W67106  14.328   1.008   2.417
95381W        W67107  31.611  25.290  13.030
95382W        W67108  40.441  28.661   4.139
95383W        W67109  20.827  16.290  11.092
95384W        W67110  14.815  12.706  13.989
95385W        W67111  19.081  26.497  14.883
95386W        W67112   0.319  42.410  13.277
95387W        W67113   7.593  36.810  14.363
95388W        W67114  33.901  15.689  14.910
95389W        W67115   2.897  20.064   0.424
95390W        W67116   0.512  43.582  12.001
95391W        W67117  40.571  12.419   3.318
95392W        W67118  41.974  18.397   2.288
95393W        W67119   3.499   1.217  12.509
95394W        W67120  37.266   9.888   3.165
95395W        W67121   8.100  20.596  12.615
95396W        W67122  17.079  35.859   2.604
95397W        W67123  31.218  36.088  10.179
95398W        W67124  32.099  35.520  13.732
95399W        W67125  16.740  10.583   4.214
95400W        W67126  27.169  39.491  14.680
95401W        W67127  12.435  22.159   3.345
95402W        W67128  18.653   6.887  10.713
95403W        W67129  40.946  10.074  11.167
95404W        W67130  38.501  41.518   1.160
95405W        W67131  17.240  42.231   3.001
95406W        W67132   3.498  15.142   4.613
95407W        W67133   4.762  26.506  11.562
95408W        W67134  27.115  39.036   3.736
95409W        W67135  14.305  13.160  13.082
95410W        W67136  32.456   3.915  12.024
95411W        W67137  19.075  44.286  12.525
95412W        W67138  21.217  38.200   0.570
95413W        W67139  12.075  40.676   3.768
95414W        W67140  26.007   6.473  13.528
95415W        W67141  41.801  36.612  10.891
95416W        W67142  13.289  13.328   0.834
95417W        W67143   6.665   8.090   2.222
95418W        W67144  33.161  25.031   1.259
95419W        W67145  14.832  33.023  11.652
95420W        W67146  11.227  15.013   3.671
95421W        W67147  34.140  10.753   1.754
95422W        W67148  17.556  19.352  13.550
95423W        W67149  17.141  21.715   3.603
95424W        W67150  15.536  37.193   4.083
95425W        W67151   3.058  28.164   4.651
95426W        W67152  39.132  43.693   1.434
95427W        W67153  25.468  17.055  11.180
95428W        W67154  34.516  15.554  13.091
95429W        W67155  26.396  20.963  13.585
95430W        W67156  26.037  17.325  14.425
95431W        W67157  16.787  26.902   3.009
95432W        W67158   4.248   7.533   4.228
95433W        W67159  13.247  44.230   3.365
95434W        W67160  15.557  40.513  11.052
95435W        W67161  31.575  27.051   4.026
95436W        W67162  30.034  14.624   0.025
95437W        W67163  23.119  22.275   2.298
95438W        W67164   7.138  14.067   4.898
95439W        W67165  23.563   7.164  11.087
95440W        W67166  25.631  12.820  14.316
95441W        W67167  40.669   3.477  11.169
95442W        W67168  31.662  37.715   4.641
95443W        W67169  44.485  43.289   3.143
95444W        W67170  23.944  36.529  14.846
95445W        W67171  34.533  33.948  11.946
95446W        W67172  21.082  25.808   4.600
95447W        W67173  20.252  23.990   0.302
95448W        W67174  13.091  23.554  10.336
95449W        W67175  34.241   1.568   1.184
95450W        W67176  37.425  30.674   2.763
95451W        W67177  11.721  10.350  11.065
95452W        W67178  31.152  20.019   1.724
95453W        W67179  26.707  10.728  12.790
95454W        W67180   0.243  14.490   3.608
95455W        W67181  36.959  43.526   3.138
95456W        W67182  42.208  34.085   1.830
95457W        W67183  24.162  38.957   3.896
95458W        W67184  36.590  29.861   4.899
95459W        W67185   0.250  17.750  12.843
95460W        W67186  42.989  35.525   0.341
95461W        W67187  20.261  28.445   2.725
95462W        W67188   3.941  17.261  14.974
95463W        W67189  24.514  26.069  12.194
95464W        W67190  19.167  39.023  14.000
95465W        W67191  41.888  41.999   3.578
95466W        W67192  30.895  14.312  11.940
95467W        W67193  43.374  14.327   0.361
95468W        W67194   0.532  20.221   4.646
95469W        W67195  17.634  12.280  13.131
95470W        W67196   9.863   1.917  13.144
95471W        W67197  27.090  35.721   2.212
95472W        W67198  33.073  39.946  11.501
95473W        W67199  15.462  18.232   2.313
95474W        W67200  41.873  15.355  13.120
95475W        W67201  43.813  18.694  13.902
95476W        W67202  11.655  41.842  12.602
95477W        W67203  31.171   1.900   5.113
95478W        W67204  37.147   5.885  11.176
95479W        W67205  32.967  32.928  12.598
95480W        W67206   1.961  40.384   4.590
95481W        W67207   2.895  27.184  12.951
95482W        W67208  14.504  10.306   3.595
95483W        W67209  42.091  17.479  11.523
95484W        W67210  25.109  25.585  12.057
95485W        W67211   9.993  29.725  13.881
95486W        W67212  20.026  20.337   3.818
95487W        W67213  33.470  14.127  10.877
95488W        W67214   0.279   3.885   2.234
95489W        W67215  39.832  23.508   4.107
95490W        W67216  43.931  35.549   2.328
95491W        W67217  37.168  11.265   4.105
95492W        W67218   9.327  42.926  13.322
95493W        W67219  20.870   9.135   0.755
95494W        W67220  40.245   8.425  10.400
95495W        W67221  10.701  42.589  11.849
95496W        W67222  15.602  43.447  14.473
95497W        W67223  32.517  31.132   2.689
95498W        W67224  36.006  42.868  11.546
95499W        W67225  23.919   8.132  12.045
95500W        W67226  37.008  38.562  10.967
95501W        W67227  40.835  20.836   2.825
95502W        W67228  31.739  35.931  11.642
95503W        W67229  32.126  10.906   0.921
95504W        W67230  36.862  38.129   0.416
95505W        W67231  34.029  43.724  10.141
95506W        W67232  10.756  29.232  12.017
95507W        W67233   1.707  15.235   0.255
95508W        W67234  32.135  16.828  14.777
95509W        W67235  17.105   1.346   2.060
95510W        W67236  41.987   0.391  11.877
95511W        W67237   5.243  18.041   1.357
95512W        W67238  11.355  32.921  13.984
95513W        W67239  35.276  40.937  14.035
95514W        W67240  33.147  33.097  13.996
95515W        W67241  16.208  27.245   3.759
95516W        W67242  17.112  37.482  12.059
95517W        W67243  19.059  14.030   4.257
95518W        W67244  41.534  17.013   0.854
95519W        W67245   9.239   8.262  12.538
95520W        W67246   7.213   8.434   0.848
95521W        W67247  39.756   4.875  13.006
95522W        W67248   8.161   4.806  10.004
95523W        W67249  19.845  32.019   3.554
95524W        W67250  11.049  28.732   0.896
95525W        W67251   6.207  38.039  13.541
95526W        W67252   4.186  42.339   1.961
95527W        W67253  29.858  43.556   2.834
95528W        W67254  23.638   2.455   1.814
95529W        W67255  13.321   0.667   1.520
95530W        W67256  27.877  18.670  10.945
95531W        W67257  32.138   8.338   3.287
95532W        W67258   5.604   2.792  13.839
95533W        W67259  29.918  16.668   4.413
95534W        W67260  34.579  21.193  14.043
95535W        W67261  25.239   9.541  14.935
95536W        W67262  25.966  12.625  12.489
95537W        W67263   6.633   4.206  10.134
95538W        W67264  36.512  24.156   3.162
95539W        W67265  33.120  11.794   2.725
95540W        W67266  41.913  17.342   2.322
95541W        W67267  23.240  30.127   3.794
95542W        W67268  31.616  15.100   0.305
95543W        W67269  34.783  19.138  14.379
95544W        W67270  33.569  38.176  12.584
95545W        W67271  18.569  34.038   3.843
95546W        W67272  41.410  28.248   2.871
95547W        W67273  19.809  31.542  10.655
95548W        W67274   4.167  25.154   2.850
95549W        W67275  41.612  11.153  13.844
95550W        W67276  37.409  33.612  11.901
95551W        W67277   4.175   1.471   3.259
95552W        W67278  43.907  16.968   2.659
95553W        W67279  16.604  23.296  13.569
95554W        W67280  13.065  42.734  13.031
95555W        W67281  37.842  33.403  12.072
95556W        W67282  43.301  35.601   0.762
95557W        W67283   8.724  26.937   2.324
95558W        W67284  37.088  13.104  14.364
95559W        W67285  38.438  16.707  11.657
95560W        W67286  38.055  26.998   1.523
95561W        W67287  44.269  18.755  12.451
95562W        W67288  27.220  29.756  11.092
95563W        W67289  19.250  19.519   0.415
95564W        W67290  26.034  10.117  14.890
95565W        W67291  36.825  26.120  14.721
95566W        W67292  31.632  34.595   2.155
95567W        W67293  42.989   1.948   3.620
95568W        W67294  25.053  10.763  11.214
95569W        W67295  41.815  44.198   0.304
95570W        W67296  12.338  11.302   0.017
95571W        W67297   5.389  21.365   1.468
95572W        W67298  32.119   1.406  14.045
95573W        W67299   0.301  16.885  13.352
95574W        W67300  12.833  26.141  14.923
95575W        W67301  35.454   8.863  11.395
95576W        W67302  37.576   6.162  11.160
95577W        W67303   4.238  40.129   3.807
95578W        W67304  10.803  42.307  14.762
95579W        W67305  27.118  38.411  12.655
95580W        W67306  12.231  14.705   2.274
95581W        W67307   5.548   0.661   1.760
95582W        W67308   3.601  29.906   1.289
95583W        W67309  27.122  32.829   2.258
95584W        W67310   4.746  11.759  11.172
95585W        W67311  18.072  44.531   3.398
95586W        W67312  29.162  26.794  14.962
95587W        W67313  25.457  28.586  12.823
95588W        W67314  41.294   8.911  12.548
95589W        W67315  36.890  44.795  12.036
95590W        W67316  27.012  39.519   3.770
95591W        W67317  25.518  13.594   1.277
95592W        W67318   8.093  32.418   1.778
95593W        W67319  43.988  11.755  12.398
95594W        W67320  25.556  21.037   1.880
95595W        W67321  27.034  29.910   1.332
95596W        W67322   7.778  38.008  13.273
95597W        W67323  33.105  35.344  12.426
95598W        W67324  13.313  11.826   0.859
95599W        W67325  37.547  26.155  11.184
95600W        W67326  44.684  39.021   0.858
95601W        W67327  12.582  44.224  13.171
95602W        W67328   4.054  44.444   3.608
95603W        W67329  40.378  18.367  13.805
95604W        W67330  15.095  33.601   0.816
95605W        W67331  31.582  39.100  10.683
95606W        W67332   1.508  31.103   3.146
95607W        W67333  14.352   3.761   0.469
95608W        W67334  39.319  34.842   2.846
95609W        W67335  44.559  34.097  14.506
95610W        W67336   6.187  23.308   1.278
95611W        W67337   3.806   8.622  12.527
95612W        W67338  35.452  28.485  10.758
95613W        W67339  15.275  38.866   1.166
95614W        W67340   8.116  35.615   0.943
95615W        W67341  33.961   8.872  11.508
95616W        W67342  16.259   1.650  12.170
95617W        W67343  23.003  17.829   2.759
95618W        W67344   0.740  27.410  10.416
95619W        W67345  38.537  35.010   0.501
95620W        W67346  43.950  42.525  14.525
95621W        W67347  25.622  27.552  12.625
95622W        W67348  21.735  20.322  13.508
95623W        W67349  11.774   5.248  11.135
95624W        W67350  24.115  30.542  13.410
95625W        W67351  20.041  26.316  10.985
95626W        W67352  10.639  39.600   1.236
95627W        W67353  25.488  17.790   3.598
95628W        W67354   5.922  17.737  13.858
95629W        W67355  36.067  35.974  13.030
95630W        W67356  36.193   1.273   2.755
95631W        W67357   3.986  12.218  12.992
95632W        W67358  28.476   1.971  12.794
95633W        W67359  20.588  24.043   4.205
95634W        W67360  28.590   4.761  14.713
95635W        W67361  37.147  31.711  13.067
95636W        W67362  30.567  18.310  13.645
95637W        W67363  42.695  44.110  14.444
95638W        W67364   1.496  22.337  12.920
95639W        W67365  24.988   4.248  11.054
95640W        W67366  18.292  12.584   3.129
95641W        W67367  38.550  29.568  10.750
95642W        W67368  17.367  13.858  11.944
95643W        W67369  26.411  19.034   2.620
95644W        W67370   6.131  16.390  10.519
95645W        W67371  32.063  13.401   3.345
95646W        W67372  14.406  37.490  14.510
95647W        W67373  15.697  30.952   3.128
95648W        W67374  40.923  12.400   1.254
95649W        W67375  16.818  29.869  10.680
95650W        W67376  42.047   0.849   2.521
95651W        W67377  44.993  22.230  13.819
95652W        W67378  26.928   7.352  14.752
95653W        W67379  30.209  41.855   4.923
95654W        W67380  14.613  40.596  14.428
95655W        W67381  26.185  15.622  10.493
95656W        W67382  14.649  36.750   0.659
95657W        W67383  38.830  36.473   0.991
95658W        W67384  38.175   1.941   3.480
95659W        W67385   1.304   3.950  11.463
95660W        W67386  15.146  29.417   2.119
95661W        W67387  17.022  37.814   1.932
95662W        W67388  32.068   6.310   3.716
95663W        W67389   4.473   7.553   2.128
95664W        W67390  43.752  19.325   0.879
95665W        W67391  22.686  34.080   0.494
95666W        W67392  41.597  25.675  14.426
95667W        W67393  32.711  11.640  14.870
95668W        W67394  30.591  34.773  14.948
95669W        W67395  42.456  30.940   3.156
95670W        W67396  31.497   9.287  13.025
95671W        W67397  17.424   8.866   0.303
95672W        W67398  13.756  35.678  14.789
95673W        W67399  17.683   9.429  11.107
95674W        W67400   1.801  19.380   0.810
95675W        W67401  33.591   1.702   0.598
95676W        W67402  10.765   8.391  12.639
95677W        W67403   9.403  41.735   3.142
95678W        W67404  20.768  17.604  14.818
95679W        W67405  30.938   2.490   1.305
95680W        W67406   5.220  26.870  11.577
95681W        W67407  29.188  36.087  11.947
95682W        W67408  40.255  37.765   4.961
95683W        W67409  21.039   9.576   3.918
95684W        W67410  36.899   7.690   3.189
95685W        W67411  10.346   9.403  11.613
95686W        W67412   9.168  36.441   0.832
95687W        W67413  44.463  32.164  14.368
95688W        W67414   7.895  34.628  10.679
95689W        W67415  18.647  10.393   3.616
95690W        W67416  13.979  35.457   2.212
95691W        W67417  15.530  15.170   2.844
95692W        W67418  14.342  43.018  11.591
95693W        W67419  42.801  11.820  14.443
95694W        W67420  17.740  11.913  12.088
95695W        W67421  23.085  41.347  11.050
95696W        W67422  25.513  32.896   2.927
95697W        W67423   8.620  35.582   5.033
95698W        W67424  41.791  17.733   3.203
95699W        W67425  21.986  43.216   1.824
95700W        W67426  11.097  38.484   0.858
95701W        W67427  35.857  14.209   0.803
95702W        W67428  29.012  22.791  11.513
95703W        W67429   4.941  35.568   1.779
95704W        W67430  11.287  18.341  12.374
95705W        W67431  18.359  25.242   3.555
95706W        W67432   1.426  37.876   0.972
95707W        W67433   6.409  37.616  13.280
95708W        W67434  34.871  12.467  10.682
95709W        W67435  11.836   8.755  14.800
95710W        W67436  28.884  30.037   1.288
95711W        W67437  17.576  44.296   3.209
95712W        W67438  27.611  14.175  14.048
95713W        W67439  18.140   4.052  12.690
95714W        W67440  24.884  24.528   1.693
95715W        W67441  24.765  31.638  14.752
95716W        W67442  17.679  11.947   2.289
95717W        W67443   6.864   7.208   2.634
95718W        W67444  12.079   5.979   1.363
95719W        W67445   4.977  10.382  14.405
95720W        W67446  33.992  32.638   2.589
95721W        W67447  20.732  10.223  10.869
95722W        W67448  26.216  42.499  10.386
95723W        W67449  19.327  12.255   1.747
95724W        W67450  33.642   1.257   4.211
95725W        W67451  36.861  31.553  13.504
95726W        W67452  10.591   5.991   4.429
95727W        W67453   0.190   2.762   0.914
95728W        W67454  43.027   8.902   3.063
95729W        W67455  12.222  44.060   4.282
95730W        W67456  26.013  30.777   0.517
95731W        W67457  10.395  13.703  14.034
95732W        W67458  34.329  26.723  13.890
95733W        W67459  34.252   2.869  14.394
95734W        W67460  33.390   2.328   3.674
95735W        W67461  26.978   6.919  14.387
95736W        W67462  21.041  35.747   2.244
95737W        W67463  20.645  26.658   2.013
95738W        W67464  33.176  22.232  14.969
95739W        W67465  35.570  38.825   4.703
95740W        W67466   5.602   4.467   2.728
95741W        W67467   5.689  37.401  13.474
95742W        W67468  15.756   4.695   2.646
95743W        W67469  25.185  30.495  10.776
95744W        W67470   5.765  28.169  14.876
95745W        W67471  22.995   3.790  14.062
95746W        W67472  16.994  32.889  12.456
95747W        W67473  11.390  31.009  13.832
95748W        W67474  44.397  42.247   1.260
95749W        W67475  29.448  19.100  11.568
95750W        W67476  28.533  16.197   2.885
95751W        W67477  15.256  18.523   1.684
95752W        W67478  15.294  35.825   4.243
95753W        W67479  25.917  32.635   4.698
95754W        W67480  14.304  29.984  13.818
95755W        W67481  15.229  36.808   4.284
95756W        W67482  20.586  40.001   3.674
95757W        W67483  43.686  13.951   1.852
95758W        W67484   1.423   8.685  11.708
95759W        W67485  43.439  18.675   4.683
95760W        W67486  28.078  29.493   2.841
95761W        W67487  35.936   3.190  13.653
95762W        W67488   5.173  32.509   2.762
95763W        W67489  11.119   3.651  13.402
95764W        W67490  34.135  12.693  13.401
95765W        W67491  24.456   8.517   4.935
95766W        W67492  11.070   7.571  11.009
95767W        W67493   4.812  25.989   1.397
95768W        W67494  43.525  10.618   4.103
95769W        W67495  27.484  44.518   2.936
95770W        W67496  26.069  20.473  11.525
95771W        W67497  32.483   6.065  14.384
95772W        W67498  14.360   1.353   1.788
95773W        W67499  30.881  11.082  14.029
95774W        W67500   3.738  42.825   2.677
95775W        W67501  35.961  29.501  10.739
95776W        W67502  42.966  14.299  10.783
95777W        W67503   2.847   1.979   3.377
95778W        W67504  36.080  17.191   1.711
95779W        W67505  36.582  42.110  11.154
95780W        W67506  18.010   2.661   3.807
95781W        W67507  20.787  28.157  14.532
95782W        W67508  32.367  42.441   0.753
95783W        W67509   1.525  27.638  10.669
95784W        W67510   1.236  24.408  11.970
95785W        W67511  23.175  23.605   0.962
95786W        W67512  31.195  16.380  12.515
95787W        W67513   7.753  12.701   1.455
95788W        W67514  23.575  16.757  12.555
95789W        W67515  19.160  36.140  11.513
95790W        W67516  25.149  25.505  11.561
95791W        W67517  25.113   1.494   2.780
95792W        W67518  34.574  31.104   0.275
95793W        W67519   9.582  17.764  13.911
95794W        W67520   1.508   1.005  12.655
95795W        W67521   4.450  21.680   0.078
95796W        W67522  24.347  33.184   3.694
95797W        W67523  44.030  14.323   2.155
95798W        W67524  21.633   7.005   0.206
95799W        W67525  19.167   5.383  14.289
95800W        W67526   9.389   8.701  13.897
95801W        W67527   0.760   1.984   4.672
95802W        W67528  33.587  43.331  12.882
95803W        W67529  30.716  36.584   3.682
95804W        W67530   6.489   6.355  12.094
95805W        W67531   1.030  25.031   0.813
95806W        W67532  16.310   4.389  13.048
95807W        W67533  37.769  27.449  11.089
95808W        W67534  20.515  37.766  12.661
95809W        W67535   6.823   7.726  11.502
95810W        W67536  11.215  37.743   1.165
95811W        W67537  37.778   2.056  10.685
95812W        W67538   1.285  21.362  13.780
95813W        W67539  37.079   1.658   1.595
95814W        W67540  37.084   3.765   1.792
95815W        W67541  29.650  38.347  10.653
95816W        W67542  37.254   9.634  10.754
95817W        W67543   1.487  36.788  14.012
95818W        W67544   2.169   0.817  14.894
95819W        W67545   3.293   3.914   1.615
95820W        W67546  42.843   3.826  10.539
95821W        W67547  42.359  12.085  14.556
95822W        W67548  17.511  41.844  12.841
95823W        W67549  27.800  37.768  13.984
95824W        W67550   2.262  44.315   4.755
95825W        W67551  10.205  22.286  14.246
95826W        W67552   3.813  11.908   1.155
95827W        W67553  15.255  25.906  13.408
95828W        W67554  20.483  23.648  14.955
95829W        W67555   1.238   9.894   3.255
95830W        W67556  21.113  42.443  11.656
95831W        W67557  22.393  32.371  12.719
95832W        W67558  14.045  12.400   3.538
95833W        W67559  22.289  15.908   2.758
95834W        W67560  18.719   8.960   5.084
95835W        W67561  39.437  40.392   4.911
95836W        W67562  18.870  34.099   4.847
95837W        W67563  24.074  13.069   1.841
95838W        W67564  41.115  22.888  14.796
95839W        W67565   8.922  40.002  14.196
95840W        W67566  10.745  14.945   2.112
95841W        W67567   1.761  26.251   0.458
95842W        W67568  36.041  44.503  12.902
95843W        W67569  42.126   6.943  12.526
95844W        W67570  39.978  26.236  11.738
95845W        W67571  28.028  35.387  11.494
95846W        W67572  26.441  34.426   3.321
95847W        W67573   6.615   7.849   0.444
95848W        W67574  39.930  13.066   4.117
95849W        W67575  23.615  18.809  10.794
95850W        W67576  36.374  43.510  13.270
95851W        W67577  32.495  22.777   1.731
95852W        W67578  43.386   7.876  11.956
95853W        W67579  38.368  44.133   1.749
95854W        W67580   5.932  27.135  13.019
95855W        W67581  19.288  28.658   0.160
95856W        W67582  43.887   3.950  10.645
95857W        W67583   7.532  29.387   5.126
95858W        W67584  18.291   6.657  14.955
95859W        W67585  39.925  23.023   2.818
95860W        W67586  25.679  19.946  11.102
95861W        W67587   2.952   1.009  14.337
95862W        W67588  30.187   9.440   0.010
95863W        W67589  23.611  26.652  10.682
95864W        W67590  37.863  17.544   2.317
95865W        W67591  17.641  33.870   3.609
95866W        W67592  27.533   7.450   2.287
95867W        W67593  33.714  30.060   2.337
95868W        W67594  14.765  24.505  11.859
95869W        W67595  38.358  44.540   1.413
95870W        W67596   7.904  20.691   4.551
95871W        W67597   5.577  27.536  11.389
95872W        W67598  23.499  11.171  14.562
95873W        W67599  39.609  15.455  11.465
95874W        W67600   7.086  22.922  14.539
95875W        W67601   4.878   6.845   1.026
95876W        W67602  38.479  25.042  11.543
95877W        W67603  11.707  18.872   3.738
95878W        W67604  16.233  13.247   0.899
95879W        W67605  10.653  41.749   2.795
95880W        W67606  18.026  25.150  14.891
95881W        W67607  26.046  28.536   3.165
95882W        W67608  18.202   9.895  11.857
95883W        W67609  15.582  18.590  12.465
95884W        W67610  27.839  12.855   9.912
95885W        W67611  36.163  19.884   3.151
95886W        W67612  28.257  11.203   0.874
95887W        W67613  16.642  31.100  11.207
95888W        W67614  34.906   2.154  10.557
95889W        W67615   7.842  38.057  10.565
95890W        W67616  10.183  42.421   1.815
95891W        W67617  16.835  18.301  10.734
95892W        W67618  19.544  36.606  13.036
95893W        W67619  36.028  39.857  10.942
95894W        W67620  27.511  11.556  14.361
95895W        W67621  33.677  11.916   0.979
95896W        W67622  36.550  34.676   0.975
95897W        W67623   6.395  23.902   3.355
95898W        W67624   2.993  15.674  14.982
95899W        W67625   1.440   3.174   4.286
95900W        W67626   3.219  21.185  11.393
95901W        W67627  39.320  22.550   3.237
95902W        W67628  20.330  28.540  14.380
95903W        W67629  32.545  27.487   4.616
95904W        W67630   1.409   3.322  13.150
95905W        W67631  11.198  14.886  11.477
95906W        W67632  42.336  40.134  14.397
95907W        W67633  39.096  13.628   0.511
95908W        W67634   6.903  43.278   3.788
95909W        W67635  35.892  35.855   1.128
95910W        W67636  21.983  29.915   0.822
95911W        W67637  13.711   6.943  13.843
95912W        W67638  38.421   4.008  13.119
95913W        W67639   9.704  27.198   1.345
95914W        W67640  33.804  44.353   3.324
95915W        W67641   2.749  10.446   3.617
95916W        W67642   9.794  42.615  12.496
95917W        W67643   6.275  14.629   4.039
95918W        W67644  13.807   3.365  12.888
95919W        W67645  41.603  44.292  11.316
95920W        W67646  28.954  22.253   2.971
95921W        W67647  44.394  40.253   4.549
95922W        W67648  25.048  10.076  14.954
95923W        W67649  31.689  25.183   1.390
95924W        W67650   8.193   2.235  13.498
95925W        W67651  40.866  11.614  11.193
95926W        W67652   9.708   4.783  12.942
95927W        W67653  18.619  20.807  14.463
95928W        W67654  18.264  23.665  10.625
95929W        W67655   2.517  40.277   3.273
95930W        W67656  24.106  42.817   2.200
95931W        W67657  25.091  38.706  11.435
95932W        W67658  18.650  29.610   1.774
95933W        W67659   3.310  28.216   2.901
95934W        W67660  28.439  32.360  14.824
95935W        W67661   3.664  34.980  11.228
95936W        W67662  36.545  39.795  12.571
95937W        W67663   9.177  34.417   2.327
95938W        W67664  15.098  41.270  14.845
95939W        W67665  44.045  28.346  12.855
95940W        W67666  14.315  20.491   3.073
95941W        W67667  38.851  31.708  11.472
95942W        W67668  35.467   5.525  13.917
95943W        W67669  24.478   3.033  10.762
95944W        W67670  22.215  43.418   3.921
95945W        W67671  32.946  34.110   0.478
95946W        W67672  38.519  11.771   1.358
95947W        W67673  34.356  34.849  12.606
95948W        W67674  16.418  30.569   2.399
95949W        W67675  10.439  43.936   3.929
95950W        W67676  10.191   3.596   4.187
95951W        W67677  34.139  31.616   3.356
95952W        W67678  34.814   8.237   0.401
95953W        W67679   1.459  41.344   2.158
95954W        W67680  18.694  23.071  11.556
95955W        W67681   6.342  16.675   5.037
95956W        W67682  42.805  21.143   2.285
95957W        W67683  37.598  42.442  11.066
95958W        W67684   8.626  23.887   0.206
95959W        W67685   0.085  25.647  11.438
95960W        W67686  44.070  12.654  11.148
95961W        W67687   2.705   2.428   0.211
95962W        W67688  39.977  36.635  10.735
95963W        W67689   2.465   5.340  10.651
95964W        W67690  17.386  39.004   0.463
95965W        W67691  30.060  24.046   3.302
95966W        W67692  33.608   0.077   0.826
95967W        W67693  43.429   1.278  10.528
95968W        W67694  19.859  34.388  10.726
95969W        W67695  42.276  19.159   3.005
95970W        W67696  11.225  25.921   2.757
95971W        W67697   8.477  15.439   5.097
95972W        W67698  22.679  44.034   3.957
95973W        W67699  33.973  35.922   5.114
95974W        W67700  16.148  31.845  14.137
95975W        W67701  20.958  35.580  11.081
95976W        W67702  25.835  22.727  13.315
95977W        W67703  11.607  24.126   0.783
95978W        W67704  19.188   9.855   2.606
95979W        W67705   9.745  15.586   4.224
95980W        W67706  17.330  36.169  11.947
95981W        W67707  18.043  31.092   1.659
95982W        W67708   9.429  13.575  12.068
95983W        W67709  11.786  25.551   1.833
95984W        W67710  39.720  39.339   3.508
95985W        W67711  37.138   7.026  14.496
95986W        W67712   3.502  10.253   3.259
95987W        W67713  42.972   8.598  11.545
95988W        W67714   0.765  40.796  14.735
95989W        W67715   5.612  11.233   3.552
95990W        W67716   5.845  21.697   2.424
95991W        W67717   1.237  42.347   3.732
95992W        W67718  18.819  14.361  10.914
95993W        W67719  14.271  23.519  13.938
95994W        W67720   4.307   8.340  14.664
95995W        W67721  22.971   8.271   4.151
95996W        W67722  27.528  43.783   0.337
95997W        W67723  41.535  20.607  13.044
95998W        W67724  25.578  10.734   3.388
95999W        W67725   9.500  17.728   3.642
96000W        W67726   3.617  32.075   0.870
96001W        W67727   9.397   5.405   0.165
96002W        W67728  11.280  41.946  14.782
96003W        W67729   7.150  16.323   5.001
96004W        W67730  18.190  24.184   0.756
96005W        W67731  32.556  11.279  14.503
96006W        W67732  32.526  24.918  10.629
96007W        W67733  20.571  19.378   0.831
96008W        W67734  35.399  37.047  10.781
96009W        W67735   7.452  25.601   2.174
96010W        W67736  28.776  39.067  10.607
96011W        W67737  22.241  12.242  12.310
96012W        W67738  13.444   1.355  14.909
96013W        W67739  28.950  33.668  14.935
96014W        W67740   1.769  32.463  12.320
96015W        W67741  29.951  40.238   2.985
96016W        W67742  19.596  41.372  14.998
96017W        W67743  11.291  42.053   4.324
96018W        W67744  37.493  32.519   3.894
96019W        W67745  23.056   9.824   3.037
96020W        W67746  41.008   7.373  12.068
96021W        W67747  41.077  35.066  14.943
96022W        W67748   7.348   0.450   0.418
96023W        W67749  13.169  33.680   9.953
96024W        W67750  12.133  18.801  13.246
96025W        W67751  32.193  31.642  14.925
96026W        W67752  17.106  37.644  13.796
96027W        W67753  10.242   0.945   3.872
96028W        W67754  11.299  36.532  11.725
96029W        W67755  39.865  30.577   4.398
96030W        W67756  42.441  40.030   0.346
96031W        W67757   8.605   5.143   3.783
96032W        W67758  38.987  26.307   5.022
96033W        W67759  39.400  16.352   4.241
96034W        W67760  13.525  28.600   0.871
96035W        W67761  21.007  33.595   3.130
96036W        W67762  34.095  18.677  10.497
96037W        W67763  21.817  25.310  10.207
96038W        W67764   6.300  27.263   2.140
96039W        W67765  21.713   6.288   3.208
96040W        W67766   5.820   8.360  10.959
96041W        W67767  16.121   1.970  14.842
96042W        W67768  40.926  18.832   0.965
96043W        W67769   8.179  31.320   0.229
96044W        W67770  18.116  29.044   4.787
96045W        W67771  25.732  16.815  13.565
96046W        W67772   1.444   0.235   3.203
96047W        W67773  19.495   8.953  12.212
96048W        W67774   1.483  39.738  14.899
96049W        W67775  15.548  41.052   2.647
96050W        W67776  42.505  24.162  14.927
96051W        W67777  15.531  28.535   3.390
96052W        W67778  26.159  18.694   1.445
96053W        W67779   5.874   1.111  13.382
96054W        W67780  34.456  17.524   1.272
96055W        W67781   9.655  31.642   3.683
96056W        W67782   0.704  38.794   4.034
96057W        W67783  26.717  41.084  11.164
96058W        W67784  26.124  34.404   4.265
96059W        W67785  29.516  25.874   1.880
96060W        W67786  22.605  19.185  14.461
96061W        W67787   6.259  35.644   2.323
96062W        W67788  43.280  23.242   2.743
96063W        W67789   4.903  27.441   0.470
96064W        W67790   7.826  38.509  11.860
96065W        W67791  12.535  26.169   1.709
96066W        W67792  36.523  17.628  12.958
96067W        W67793  11.239   1.986  12.032
96068W        W67794  43.487  38.739  14.582
96069W        W67795  11.413  16.159   0.485
96070W        W67796   5.521  13.079   1.820
96071W        W67797  12.812  25.172  12.472
96072W        W67798  30.401   4.410   1.170
96073W        W67799  15.547   4.656   1.447
96074W        W67800  40.831   6.200  11.172
96075W        W67801  22.600  23.726   0.743
96076W        W67802  27.966  44.611   4.983
96077W        W67803   0.987  31.635   3.937
96078W        W67804  40.862  12.277  10.586
96079W        W67805  18.092  28.984   1.269
96080W        W67806  24.530  19.315   1.911
96081W        W67807   6.208  12.682  12.810
96082W        W67808  33.632   7.115  10.522
96083W        W67809  11.319  20.963   3.118
96084W        W67810  10.101  27.852  13.381
96085W        W67811   0.837  13.609   1.895
96086W        W67812  41.737  38.004   1.978
96087W        W67813   8.705   3.470   2.352
96088W        W67814  14.942   5.929  13.448
96089W        W67815  23.473  26.028   2.203
96090W        W67816  38.767   0.307  12.939
96091W        W67817  16.021  41.934   0.258
96092W        W67818  24.625  38.305  14.023
96093W        W67819  43.459  14.663   0.767
96094W        W67820  13.615  37.520   0.295
96095W        W67821  37.129  35.395  10.834
96096W        W67822  42.998   8.775   4.292
96097W        W67823  17.740  16.147   2.674
96098W        W67824  25.270  24.667  13.495
96099W        W67825  27.915   0.039   2.929
96100W        W67826   1.419  13.067   2.250
96101W        W67827  36.352   5.623  12.776
96102W        W67828  14.675  36.797  11.922
96103W        W67829  12.322  18.528  12.385
96104W        W67830  24.242  18.041  14.488
96105W        W67831  28.431  31.934   4.243
96106W        W67832   5.644   6.377   1.871
96107W        W67833  44.616   3.527   5.092
96108W        W67834  27.100  17.222   1.330
96109W        W67835  18.225  39.282  11.969
96110W        W67836  10.596  10.568   0.970
96111W        W67837  25.955  15.194  10.749
96112W        W67838  21.558  43.516   1.358
96113W        W67839  15.704  26.955   1.497
96114W        W67840  15.222  34.282  14.326
96115W        W67841  39.598  28.829   4.531
96116W        W67842  10.165  21.458   4.224
96117W        W67843  11.836  22.421   0.915
96118W        W67844  19.215   4.380   0.438
96119W        W67845   7.950  23.727  14.796
96120W        W67846   2.727  17.633  12.660
96121W        W67847  17.141   1.040   3.803
96122W        W67848  41.945   0.488  12.384
96123W        W67849  20.187   7.614   1.278
96124W        W67850  21.801  21.659   0.326
96125W        W67851  44.502  28.034   4.450
96126W        W67852   4.210  44.161  12.151
96127W        W67853   6.311  22.470  12.077
96128W        W67854  37.041  32.752  10.654
96129W        W67855  43.726  13.843  12.923
96130W        W67856  31.103   0.954   2.586
96131W        W67857  23.938  10.328   3.832
96132W        W67858  37.116  37.884   3.626
96133W        W67859  17.114  27.675  11.997
96134W        W67860  18.560  17.292  12.642
96135W        W67861   0.360  14.287   2.935
96136W        W67862  36.364  25.627   1.841
96137W        W67863   1.483  36.842  11.970
96138W        W67864  28.977  22.499   4.082
96139W        W67865  29.117  36.843  11.422
96140W        W67866  32.232  14.245   1.169
96141W        W67867  25.155   0.718   3.747
96142W        W67868  22.261  38.842  10.263
96143W        W67869  28.965  37.252   2.358
96144W        W67870   3.283   7.642   4.590
96145W        W67871   2.858   0.969   1.133
96146W        W67872  21.706  12.211   1.935
96147W        W67873  22.498   4.699  12.930
96148W        W67874   7.957  42.244   2.135
96149W        W67875  32.650   0.859  12.988
96150W        W67876   8.965  26.549   9.984
96151W        W67877  23.329  41.491  12.881
96152W        W67878  16.573  40.128   4.033
96153W        W67879  10.797  28.671   3.026
96154W        W67880  33.707  40.614  11.435
96155W        W67881   6.323  44.892   1.791
96156W        W67882  34.899  43.787   4.183
96157W        W67883  11.255  42.024  11.088
96158W        W67884  19.148  35.589  11.527
96159W        W67885   4.435  23.652   4.597
96160W        W67886  21.037  23.470  12.664
96161W        W67887  41.346  37.569   3.287
96162W        W67888  24.273  11.687   3.663
96163W        W67889   5.871   1.677  11.450
96164W        W67890  43.199  28.006  10.817
96165W        W67891  21.416   7.841  14.498
96166W        W67892  43.807  42.551  13.089
96167W        W67893  38.411  10.383   1.473
96168W        W67894   9.649  30.205  12.018
96169W        W67895  29.904   3.397   2.494
96170W        W67896  24.561  33.103  11.866
96171W        W67897   0.833  32.798   3.826
96172W        W67898  26.018  43.795  10.771
96173W        W67899  44.126   1.850  11.345
96174W        W67900  34.400  21.315   3.456
96175W        W67901  41.643  31.714   5.078
96176W        W67902  35.486  28.914  11.949
96177W        W67903  30.440   7.281   3.740
96178W        W67904  32.385   1.146  12.556
96179W        W67905  24.728  25.452   3.147
96180W        W67906  10.700   9.804   0.495
96181W        W67907  35.344  11.835   4.159
96182W        W67908  36.409  33.589  12.877
96183W        W67909  26.840  15.948   2.459
96184W        W67910  20.674   1.452  11.473
96185W        W67911  29.174  17.146   4.518
96186W        W67912  33.998  19.312   4.145
96187W        W67913   0.053  44.549   3.176
96188W        W67914  42.963   4.126  12.032
96189W        W67915   6.395  19.741  13.110
96190W        W67916  16.879  19.704  14.185
96191W        W67917  26.993  26.780  13.727
96192W        W67918  34.584  35.757   1.001
96193W        W67919  18.697  22.638  13.597
96194W        W67920   7.756   6.143  11.555
96195W        W67921   7.849   8.444  14.005
96196W        W67922  19.031   2.788   2.904
96197W        W67923   2.164   1.496   3.241
96198W        W67924   2.251  39.510  13.439
96199W        W67925  29.631  32.916   4.185
96200W        W67926  37.745   9.412   4.556
96201W        W67927  22.783  23.583  13.507
96202W        W67928  27.163  12.705  10.495
96203W        W67929  36.062   2.685   2.335
96204W        W67930  18.318  11.524  14.783
96205W        W67931  37.526  35.350  11.531
96206W        W67932  21.299  37.074   1.484
96207W        W67933   8.345  30.489  12.144
96208W        W67934  20.255  10.154  12.140
96209W        W67935   4.779  14.718   3.097
96210W        W67936  14.664  44.216   3.258
96211W        W67937  12.132  43.332   3.451
96212W        W67938  23.607  33.171   0.634
96213W        W67939  15.928  35.372   0.453
96214W        W67940  22.067  36.834  11.687
96215W        W67941   3.758  43.214   0.321
96216W        W67942  10.654  30.047   1.339
96217W        W67943   6.334   7.342   9.807
96218W        W67944  22.516  20.371   0.955
96219W        W67945  13.286  29.425   2.224
96220W        W67946  19.626  31.719  14.905
96221W        W67947   4.242  35.860  11.021
96222W        W67948  27.445   2.281   2.441
96223W        W67949  38.583  34.919  11.434
96224W        W67950  16.560  41.651  13.006
96225W        W67951  21.078  42.828   3.360
96226W        W67952  23.671   6.648  11.204
96227W        W67953  44.189   7.209   4.486
96228W        W67954   4.325  37.322   1.011
96229W        W67955   3.815  31.488  11.515
96230W        W67956  18.976  28.639  12.665
96231W        W67957  12.138   2.891   0.700
96232W        W67958  36.974   5.913   2.630
96233W        W67959  16.501  34.025  11.718
96234W        W67960  23.904  39.405  12.992
96235W        W67961  18.307  22.957   1.438
96236W        W67962  26.013   3.480   1.943
96237W        W67963   4.933  18.436  13.728
96238W        W67964  18.545  11.268   1.432
96239W        W67965  18.684  44.782  11.508
96240W        W67966  23.525  12.816  14.029
96241W        W67967  14.712  26.441   1.664
96242W        W67968  33.021  40.907   2.813
96243W        W67969  43.224  39.708  11.165
96244W        W67970  27.444   6.310   1.259
96245W        W67971  43.300   9.355  11.157
96246W        W67972  12.221  10.162   1.728
96247W        W67973  40.500  29.707  13.857
96248W        W67974  19.177   3.111  11.589
96249W        W67975  23.580   3.265  14.707
96250W        W67976   3.929  31.197  11.957
96251W        W67977  44.467   9.684   4.547
96252W        W67978   5.912  26.016  11.361
96253W        W67979  16.683  13.311  11.919
96254W        W67980  25.034  39.097  13.605
96255W        W67981   0.528  43.433  13.502
96256W        W67982  38.009   5.625   5.055
96257W        W67983  33.964  13.797   2.442
96258W        W67984  26.936  38.369   4.034
96259W        W67985  39.617  13.225  11.542
96260W        W67986  14.805  27.427   4.701
96261W        W67987  32.043  11.311  12.149
96262W        W67988   7.802  28.434   1.316
96263W        W67989  25.559   1.584   3.211
96264W        W67990  23.705   8.147   0.360
96265W        W67991  18.705  23.960  11.152
96266W        W67992  39.384  41.014  11.600
96267W        W67993   6.498  14.522   1.401
96268W        W67994   1.715   1.849  12.187
96269W        W67995  15.775  31.468   0.897
96270W        W67996  12.167  15.270   3.934
96271W        W67997  27.212   7.371  14.305
96272W        W67998  14.630  44.674   2.352
96273W        W67999   0.894  38.392   1.802
96274W        W68000   2.330  22.089   2.665
96275W        W68001   1.710  42.571  11.178
96276W        W68002  39.074   2.066  13.530
96277W        W68003  37.526  29.214  14.943
96278W        W68004  14.382   8.650   4.109
96279W        W68005  15.191  28.132  13.435
96280W        W68006  44.925  20.231  12.346
96281W        W68007  24.697   6.767  11.191
96282W        W68008  44.236  11.780   1.291
96283W        W68009  32.289  41.210   3.115
96284W        W68010   2.232  14.706  11.103
96285W        W68011  34.375  27.656   1.514
96286W        W68012   0.073   0.852  13.347
96287W        W68013  37.794  29.437   1.370
96288W        W68014   9.333   0.172   2.294
96289W        W68015  14.746   3.534  14.359
96290W        W68016  36.616  36.367  13.453
96291W        W68017  42.366  42.527   4.706
96292W        W68018  21.188  30.088  14.839
96293W        W68019  43.561  11.734  11.957
96294W        W68020  31.941  24.682  11.506
96295W        W68021  22.410  26.633  10.679
96296W        W68022  12.307  20.056   3.260
96297W        W68023  23.422  35.728   4.609
96298W        W68024   4.127   5.148   1.283
96299W        W68025  39.316  24.062   3.672
96300W        W68026  19.780   7.356   4.762
96301W        W68027  15.529  40.096  10.206
96302W        W68028  18.817  16.156   2.685
96303W        W68029  39.320  41.002   2.291
96304W        W68030  34.185   3.929   3.245
96305W        W68031   8.233  18.529  14.702
96306W        W68032   1.755  22.739  12.722
96307W        W68033  40.568  19.683  13.378
96308W        W68034  30.268  26.478   1.334
96309W        W68035  14.176   6.685  13.927
96310W        W68036  33.602   3.413   2.395
96311W        W68037  27.694  12.587  13.471
96312W        W68038  13.361   5.921  11.997
96313W        W68039  38.858  35.027  12.445
96314W        W68040  32.382  37.888   2.813
96315W        W68041  32.619  28.926   3.411
96316W        W68042  41.421  18.116   4.774
96317W        W68043  33.175  43.286  11.650
96318W        W68044  30.848   5.041  11.083
96319W        W68045   0.650  40.981  12.945
96320W        W68046  25.786  38.774  12.020
96321W        W68047  20.534  34.253  12.966
96322W        W68048  18.622  44.196   1.928
96323W        W68049  24.428  43.746   5.039
96324W        W68050  10.112  44.823  14.565
96325W        W68051   7.858  42.993   4.087
96326W        W68052   6.871   4.367   1.873
96327W        W68053   9.742  38.626   3.258
96328W        W68054  32.555   6.077   4.345
96329W        W68055  30.041   1.983   2.486
96330W        W68056   1.257  44.753   1.441
96331W        W68057  23.223   7.447  13.759
96332W        W68058  38.528  35.829   3.240
96333W        W68059  24.908   9.913  10.570
96334W        W68060  23.061   2.666   4.091
96335W        W68061  30.377  41.717  14.303
96336W        W68062  31.535  39.972   4.630
96337W        W68063   8.735  35.057  13.945
96338W        W68064  42.689  30.086  11.976
96339W        W68065  40.507  31.364   3.680
96340W        W68066  30.584  40.045  13.752
96341W        W68067  19.008   6.834  11.092
96342W        W68068  43.272  41.991  13.388
96343W        W68069  43.983  26.117  12.578
96344W        W68070  41.047  15.905   4.531
96345W        W68071  33.032  31.672  11.506
96346W        W68072  31.301   6.071   4.194
96347W        W68073  32.835   3.754   0.480
96348W        W68074   2.889  15.681  12.496
96349W        W68075   0.792  18.809  11.347
96350W        W68076  23.306  19.725  11.237
96351W        W68077   3.049  17.149  14.050
96352W        W68078  33.524  42.504  13.422
96353W        W68079  29.607   0.228   2.003
96354W        W68080   6.933   8.593  12.197
96355W        W68081  32.904  39.932   4.789
96356W        W68082  33.529  43.289   1.885
96357W        W68083  24.091  17.731  11.138
96358W        W68084  34.574  42.039   0.279
96359W        W68085  28.844  37.030   3.646
96360W        W68086  30.222   3.383   5.052
96361W        W68087  29.110  20.344  14.152
96362W        W68088  17.871  11.888   4.573
96363W        W68089  23.220  27.925   2.861
96364W        W68090  13.568  38.773   2.482
96365W        W68091  24.608  44.094  14.042
96366W        W68092  43.517  23.045   2.227
96367W        W68093  13.130  35.705  14.419
96368W        W68094  30.982   8.589  10.125
96369W        W68095  28.046   5.883  11.640
96370W        W68096  23.101   5.326   0.669
96371W        W68097  38.291  15.126  13.043
96372W        W68098  13.134   6.366   2.758
96373W        W68099  12.099  40.513  10.203
96374W        W68100  20.759   3.453   1.050
96375W        W68101  30.213  44.375   2.082
96376W        W68102  19.282   6.015  14.889
96377W        W68103   8.252  19.702  10.546
96378W        W68104  39.433  11.183   1.684
96379W        W68105  41.936  28.113   2.237
96380W        W68106  21.172  35.155   0.250
96381W        W68107  23.229  21.487  11.140
96382W        W68108  44.753  11.711   1.307
96383W        W68109  33.998  40.057  14.355
96384W        W68110  44.017  40.785  14.037
96385W        W68111  25.031  10.323   3.148
96386W        W68112  19.662  20.214  13.826
96387W        W68113  43.196  21.623  11.058
96388W        W68114  19.705   0.908   1.856
96389W        W68115   9.131  30.877  13.005
96390W        W68116   6.601   1.020   2.804
96391W        W68117  17.598  31.191  12.272
96392W        W68118   0.366   1.544  12.444
96393W        W68119  25.713   1.758  10.770
96394W        W68120  19.194  25.115   1.207
96395W        W68121  39.706   0.035   2.759
96396W        W68122  18.286   3.875  10.501
96397W        W68123  16.589  15.253   4.342
96398W        W68124   1.509  34.408   3.937
96399W        W68125  34.826   6.460  11.727
96400W        W68126  40.563  39.049   3.724
96401W        W68127   1.467  28.147   4.612
96402W        W68128  15.018  14.384   1.701
96403W        W68129  24.959   8.803  14.117
96404W        W68130  33.003   8.395   1.449
96405W        W68131  18.421  33.054   1.731
96406W        W68132  14.192  25.920  11.686
96407W        W68133  37.491  29.459  12.418
96408W        W68134  23.651  28.729   3.362
96409W        W68135  19.619   5.535   3.230
96410W        W68136  22.488  33.916  10.224
96411W        W68137  43.565  32.133  13.466
96412W        W68138  26.099  33.971   0.061
96413W        W68139  33.913  44.293  14.157
96414W        W68140   7.932   9.867  11.566
96415W        W68141   6.185  40.559  13.012
96416W        W68142  44.898  15.597   3.728
96417W        W68143  34.460  23.083  11.752
96418W        W68144  25.033  36.993   0.805
96419W        W68145  28.036  28.140   4.020
96420W        W68146   7.636   0.380  11.496
96421W        W68147   3.229   1.293  13.769
96422W        W68148   9.946  26.574  14.961
96423W        W68149   1.348  23.139   1.788
96424W        W68150   0.098  44.858   0.246
96425W        W68151   8.713  23.263  11.631
96426W        W68152  21.611  42.951  13.756
96427W        W68153  19.034  42.457   1.982
96428W        W68154  32.937  24.357  10.332
96429W        W68155  36.858  25.078   2.324
96430W        W68156  31.402  33.856  12.524
96431W        W68157   3.462  23.170  12.434
96432W        W68158  22.267  28.364   2.821
96433W        W68159   9.696   2.297   2.219
96434W        W68160  26.960  16.723   1.405
96435W        W68161  15.189  23.952   1.685
96436W        W68162  15.310  11.305   4.166
96437W        W68163   8.871  43.031  12.018
96438W        W68164  36.221  34.139   2.885
96439W        W68165  28.049  39.298  11.115
96440W        W68166  43.300  36.432   3.242
96441W        W68167  36.507   7.158  13.594
96442W        W68168   1.491  16.745  13.384
96443W        W68169   9.632  11.467   2.834
96444W        W68170  41.829  31.871  13.011
96445W        W68171  39.293  37.890   0.613
96446W        W68172   8.909  31.043  12.555
96447W        W68173   3.851   5.885   2.349
96448W        W68174  35.462  16.137  10.931
96449W        W68175  39.548  13.563  13.260
96450W        W68176  36.182  42.014  14.125
96451W        W68177  22.259  29.193   4.151
96452W        W68178  13.644   7.800   4.063
96453W        W68179  12.337   9.643   2.373
96454W        W68180  16.079   2.438   0.830
96455W        W68181  20.173  17.667  13.017
96456W        W68182  31.461  31.829  10.208
96457W        W68183  31.643  21.787   4.181
96458W        W68184  37.116  35.522   4.533
96459W        W68185   1.321  31.328  12.888
96460W        W68186  36.348  34.357   1.321
96461W        W68187  32.574   4.210  12.405
96462W        W68188  36.110  35.423  10.694
96463W        W68189  23.491  29.427  11.637
96464W        W68190  31.494   2.302   0.782
96465W        W68191  27.039   3.948   0.354
96466W        W68192  38.767   5.503   2.548
96467W        W68193   9.854  37.191   3.360
96468W        W68194   5.321  44.776   0.682
96469W        W68195  17.498   7.696  13.349
96470W        W68196  29.533   3.470  10.537
96471W        W68197  37.988  40.900  11.468
96472W        W68198  23.171  35.134   2.402
96473W        W68199  34.518   4.835  13.049
96474W        W68200   8.021  21.237   4.568
96475W        W68201  11.746  40.281  14.411
96476W        W68202  18.412  24.612  11.070
96477W        W68203  19.317   8.185  13.884
96478W        W68204  17.830  28.079   1.901
96479W        W68205  44.801  16.152  11.332
96480W        W68206  35.404   3.329  14.916
96481W        W68207  35.808  24.448   4.328
96482W        W68208  22.282  44.067  12.535
96483W        W68209  18.511   2.193  12.069
96484W        W68210   6.715  27.696  14.921
96485W        W68211  44.905   2.766  12.333
96486W        W68212  44.503  29.076  12.553
96487W        W68213   9.232   7.891   3.668
96488W        W68214  10.350   3.202   1.651
96489W        W68215  10.411  37.098  12.856
96490W        W68216  40.322  21.097  14.984
96491W        W68217  10.094  39.783   1.210
96492W        W68218   7.589   8.882  12.420
96493W        W68219  43.265  43.238  11.923
96494W        W68220  33.147  35.837   3.224
96495W        W68221   2.548  15.894  10.013
96496W        W68222   7.898  36.257   1.915
96497W        W68223  37.102  41.003  13.471
96498W        W68224   7.348  27.523  10.748
96499W        W68225   7.784  22.199  12.133
96500W        W68226  32.874  26.680  12.503
96501W        W68227   0.268  31.876  12.437
96502W        W68228  41.772  44.934  11.974
96503W        W68229  41.190  33.131   1.352
96504W        W68230  15.278  40.447   3.857
96505W        W68231  22.522   4.768  10.112
96506W        W68232  21.738  24.067  14.511
96507W        W68233  31.387  36.054  14.028
96508W        W68234  37.508  25.209   0.972
96509W        W68235   1.871  14.676  14.928
96510W        W68236  42.561  14.188   4.361
96511W        W68237  22.056   8.185  14.896
96512W        W68238  23.997   7.303  14.851
96513W        W68239  39.759  14.783   0.485
96514W        W68240  24.253  16.744   2.624
96515W        W68241  24.582  25.034  10.720
96516W        W68242  43.461  34.883   0.900
96517W        W68243  36.783   7.780  12.913
96518W        W68244   8.234  22.178   3.239
96519W        W68245  26.051  27.390  12.390
96520W        W68246  28.006  43.556  14.790
96521W        W68247  24.643  29.229   0.893
96522W        W68248   1.828   9.240  13.907
96523W        W68249   6.433  23.585  10.738
96524W        W68250  32.122   1.290   0.411
96525W        W68251   1.851  14.168   0.035
96526W        W68252  23.806  32.462  14.313
96527W        W68253  40.014  43.761   4.580
96528W        W68254   4.738  12.546   2.718
96529W        W68255  40.518   0.043  14.844
96530W        W68256  39.537  41.381  10.636
96531W        W68257  10.796  17.559  11.992
96532W        W68258   3.954  36.470  12.468
96533W        W68259  20.756  34.681  13.323
96534W        W68260  35.938   6.905  11.202
96535W        W68261  35.074  21.233   3.079
96536W        W68262  14.169   9.906   3.737
96537W        W68263   0.893   7.348   0.712
96538W        W68264  30.446  34.266  14.995
96539W        W68265  29.164  44.203  13.547
96540W        W68266  12.603  44.148   3.943
96541W        W68267  22.250  35.064  10.882
96542W        W68268  33.178  22.125  13.965
96543W        W68269  37.871  30.192  11.587
96544W        W68270   7.262  14.719   4.316
96545W        W68271  40.004  27.964  13.454
96546W        W68272   3.937  36.157  12.860
96547W        W68273  27.614  41.460  14.328
96548W        W68274  14.983  24.641  10.588
96549W        W68275  28.899  12.357  12.476
96550W        W68276  28.005  18.074   3.828
96551W        W68277   1.401  43.374   1.130
96552W        W68278   7.480  21.288  14.888
96553W        W68279  16.245  35.939   2.177
96554W        W68280  21.656   5.320   3.900
96555W        W68281  21.912   5.794   1.688
96556W        W68282   3.760   8.496   0.907
96557W        W68283  31.983   6.686  10.610
96558W        W68284  28.619  10.726   0.814
96559W        W68285  34.866  43.847   2.739
96560W        W68286   0.270  27.024   2.061
96561W        W68287  36.087  22.614   3.584
96562W        W68288  35.905  33.065   0.681
96563W        W68289  23.666  30.969   2.326
96564W        W68290  26.100  21.562  10.569
96565W        W68291   5.887  39.948  13.530
96566W        W68292  41.787  14.953   2.098
96567W        W68293  30.908  33.993  14.036
96568W        W68294  18.730  38.774   1.934
96569W        W68295  12.806  20.258  13.879
96570W        W68296   3.945  28.229   4.163
96571W        W68297  31.995  35.331  10.651
96572W        W68298  25.655  43.285  13.764
96573W        W68299  22.513  18.291   1.550
96574W        W68300   3.734  42.755   2.136
96575W        W68301  33.963  39.860  12.500
96576W        W68302  26.167  25.204   2.765
96577W        W68303  26.472   6.034  14.792
96578W        W68304  41.884  39.066  13.790
96579W        W68305  31.222  14.494  13.455
96580W        W68306  32.416  22.902   0.759
96581W        W68307  28.216  17.672  11.917
96582W        W68308  36.393  35.539   2.677
96583W        W68309  30.129  41.438  14.691
96584W        W68310  26.714  35.199  11.096
96585W        W68311  31.787  28.052  11.130
96586W        W68312  30.963   8.564  13.256
96587W        W68313   3.407   3.845  12.070
96588W        W68314  42.995   6.849  13.794
96589W        W68315  40.883  37.354  13.626
96590W        W68316  23.417  35.339  12.040
96591W        W68317  28.362   4.192   3.809
96592W        W68318  42.876  34.409   2.154
96593W        W68319   6.891  36.861  12.604
96594W        W68320  28.944  17.259  13.532
96595W        W68321  37.452  20.568  11.009
96596W        W68322  10.633  36.180   2.203
96597W        W68323   7.758   5.017   0.336
96598W        W68324  18.186  26.084   4.336
96599W        W68325  35.772   8.365  14.740
96600W        W68326  16.997  34.369  10.105
96601W        W68327  35.638  19.268  12.955
96602W        W68328   1.799   1.504   2.303
96603W        W68329  41.430   7.923   1.230
96604W        W68330  32.832  26.675   4.181
96605W        W68331  12.770   6.504  11.831
96606W        W68332  43.320  32.220  13.899
96607W        W68333  20.962  22.705   1.383
96608W        W68334  25.249   6.879  12.075
96609W        W68335  26.263  10.719   1.536
96610W        W68336  39.392  35.029  14.766
96611W        W68337  38.307  11.866  12.710
96612W        W68338  39.843  23.616   3.183
96613W        W68339  22.537  24.252   0.831
96614W        W68340  28.398  43.964  12.437
96615W        W68341  13.156  24.387  12.659
96616W        W68342  21.228  38.337  13.587
96617W        W68343   0.444  20.743   4.692
96618W        W68344  42.347  42.108  10.704
96619W        W68345   7.663  18.962  14.536
96620W        W68346  30.102   4.408  14.456
96621W        W68347  43.804  26.243  10.592
96622W        W68348  31.913  22.384   1.924
96623W        W68349  14.207   8.944   0.551
96624W        W68350  11.715   9.845  14.039
96625W        W68351  30.064  25.608  14.862
96626W        W68352   3.250  12.237   1.751
96627W        W68353  28.479  20.503  13.806
96628W        W68354  43.909  20.809   0.803
96629W        W68355  12.378  24.581   0.788
96630W        W68356   3.217  24.591  11.504
96631W        W68357  35.098   6.710  11.346
96632W        W68358  43.477  24.843   1.197
96633W        W68359   3.073   3.252   0.823
96634W        W68360  11.815   8.201  11.496
96635W        W68361  32.511  38.872   4.682
96636W        W68362  27.993  44.800   3.734
96637W        W68363  36.667  43.445   4.373
96638W        W68364  14.454   5.867  13.541
96639W        W68365  10.564  14.875  13.389
96640W        W68366  16.317  38.780   4.453
96641W        W68367  24.669  17.692  12.316
96642W        W68368  18.193  25.694   1.626
96643W        W68369   5.583  26.029  13.376
96644W        W68370  19.740  15.278   4.930
96645W        W68371  24.938  26.393  13.472
96646W        W68372   4.757  10.581  13.955
96647W        W68373  23.813  29.633  13.296
96648W        W68374  22.577  24.916  13.301
96649W        W68375   4.445  40.234  14.318
96650W        W68376   9.729   6.811  12.807
96651W        W68377  42.306   7.101  11.574
96652W        W68378   7.148  26.624  10.784
96653W        W68379  33.993  33.417  13.406
96654W        W68380   0.244  28.062   3.262
96655W        W68381  42.753  35.046   2.764
96656W        W68382  28.085  14.446  11.809
96657W        W68383   4.194  18.669   3.700
96658W        W68384   7.344  37.273  10.582
96659W        W68385  21.054  16.144  11.739
96660W        W68386  24.185  42.051  13.127
96661W        W68387  23.184  35.595  14.205
96662W        W68388  24.691  19.186   0.517
96663W        W68389  27.501   0.046  12.385
96664W        W68390   7.329  16.354   0.500
96665W        W68391  41.086  35.590   3.671
96666W        W68392   5.798   0.477   2.428
96667W        W68393  35.697  42.317   0.974
96668W        W68394  10.166  21.791  11.842
96669W        W68395  42.329   2.688  12.364
96670W        W68396  25.718   1.181  11.592
96671W        W68397  18.745  18.263   0.260
96672W        W68398  41.264  12.905  12.694
96673W        W68399  35.287   2.452   1.010
96674W        W68400  13.512  35.464   0.680
96675W        W68401   8.363  22.809  10.456
96676W        W68402  10.588  10.074  13.849
96677W        W68403  17.580  28.138  14.278
96678W        W68404   1.321  21.878   4.220
96679W        W68405  27.937  38.337   1.184
96680W        W68406  44.304  17.650  13.840
96681W        W68407   3.880  32.884   1.430
96682W        W68408   2.279   4.902  10.881
96683W        W68409  34.818  25.491  11.089
96684W        W68410  17.608  34.498  12.382
96685W        W68411  26.992  37.377  11.580
96686W        W68412  31.033  11.349   2.623
96687W        W68413  21.128  37.753   0.293
96688W        W68414  33.339  25.978   2.731
96689W        W68415   2.514  29.019   1.650
96690W        W68416   5.227  41.769   0.891
96691W        W68417  21.702  21.546  14.003
96692W        W68418  43.413  27.109   1.026
96693W        W68419   0.841   9.847   1.260
96694W        W68420  18.258  44.851  13.945
96695W        W68421  30.519  10.091   4.086
96696W        W68422   8.878  27.121   3.826
96697W        W68423   0.199  37.591   0.727
96698W        W68424   5.526  13.698   0.670
96699W        W68425  22.728   9.316  11.582
96700W        W68426   1.216  37.522   3.576
96701W        W68427  23.669  14.769   3.741
96702W        W68428  32.961  11.752  11.965
96703W        W68429  27.144  28.207   3.915
96704W        W68430  11.639  21.183  13.395
96705W        W68431  29.616   4.485   3.166
96706W        W68432  38.922  41.497  14.322
96707W        W68433   2.569  42.334  11.945
96708W        W68434  30.896   2.278   1.853
96709W        W68435  20.555  13.327  11.425
96710W        W68436   0.878   0.961  14.506
96711W        W68437  35.396  33.235  12.045
96712W        W68438  26.586  19.101  12.501
96713W        W68439   6.427   0.221  13.870
96714W        W68440  20.718  21.189  10.738
96715W        W68441  30.268   9.763   1.783
96716W        W68442  36.454  41.546  10.325
96717W        W68443  36.994  37.915   2.300
96718W        W68444   0.059  23.715   3.660
96719W        W68445  42.815  39.325  12.836
96720W        W68446  27.789  43.663  11.085
96721W        W68447  20.458  29.147   0.092
96722W        W68448  29.734  40.540   4.039
96723W        W68449  26.194  40.569  10.663
96724W        W68450  17.767   5.216   2.496
96725W        W68451  28.606   0.841   2.770
96726W        W68452  42.507  21.309  12.020
96727W        W68453  40.945  26.285   2.299
96728W        W68454  15.664   7.259   2.144
96729W        W68455  14.281  31.070  12.048
96730W        W68456  30.798  31.391   4.266
96731W        W68457  44.280   1.723  14.503
96732W        W68458  21.505  17.858   1.184
96733W        W68459  31.549  39.315   0.303
96734W        W68460  21.262   4.614  11.528
96735W        W68461  11.360  22.406  13.843
96736W        W68462  32.078  17.646   1.345
96737W        W68463  21.474   8.074   3.381
96738W        W68464  42.814  16.492   2.913
96739W        W68465  28.529  14.649  12.082
96740W        W68466  19.945  13.528  10.433
96741W        W68467  35.264  16.754  12.500
96742W        W68468  20.945  30.438  14.541
96743W        W68469  21.479   9.813   0.244
96744W        W68470  42.293  14.225  11.592
96745W        W68471   3.033  42.490  14.830
96746W        W68472  21.415  25.975   4.137
96747W        W68473  17.732  28.994   2.938
96748W        W68474   2.314  27.677   1.808
96749W        W68475   9.241   0.197  14.801
96750W        W68476  10.918  35.532   4.205
96751W        W68477  44.113  32.863   3.676
96752W        W68478  20.784   2.143  13.303
96753W        W68479  41.078   1.501  14.752
96754W        W68480  26.425  32.433  12.211
96755W        W68481  13.524  30.085   2.382
96756W        W68482  18.730   3.658  11.126
96757W        W68483   5.888   3.075  11.140
96758W        W68484   2.400   4.818   4.543
96759W        W68485  37.539  11.247   3.254
96760W        W68486  17.896  36.968   3.058
96761W        W68487  44.985  13.165  11.778
96762W        W68488  37.458   6.007   4.468
96763W        W68489   7.394  38.435  14.763
96764W        W68490   7.038   6.827  12.859
96765W        W68491  23.583   2.833  11.499
96766W        W68492  22.024  22.602   4.172
96767W        W68493  30.051  36.107   4.760
96768W        W68494  31.635  29.401  13.827
96769W        W68495  33.965  12.199   4.127
96770W        W68496  35.553  40.171   4.564
96771W        W68497  34.830  17.168   1.213
96772W        W68498  12.429  17.317   4.622
96773W        W68499  44.870  32.816  12.448
96774W        W68500  35.020  21.938  11.431
96775W        W68501  13.729  16.177   4.150
96776W        W68502   8.253   7.783  12.968
96777W        W68503   6.853  36.432   2.320
96778W        W68504  24.607  43.936  12.636
96779W        W68505  13.369  33.108  12.067
96780W        W68506  15.523  18.607   1.236
96781W        W68507  32.296  14.766   3.703
96782W        W68508  11.948  33.043   4.945
96783W        W68509   0.728  34.130  10.618
96784W        W68510   5.382  14.735  14.085
96785W        W68511  18.044  35.489   2.697
96786W        W68512   7.795  18.303   2.840
96787W        W68513   9.777  43.951   2.009
96788W        W68514  23.574  17.730   2.830
96789W        W68515  24.974  27.053   4.730
96790W        W68516  17.772   6.166  14.983
96791W        W68517  11.076  20.093   4.194
96792W        W68518  23.224  24.965  10.664
96793W        W68519  22.180  20.997  14.776
96794W        W68520   2.795  24.973  10.631
96795W        W68521  40.270  30.063  11.610
96796W        W68522  20.933   3.122   5.171
96797W        W68523   1.034  43.197  12.448
96798W        W68524  35.279  18.471  13.468
96799W        W68525  31.591  21.178   0.952
96800W        W68526  38.268  38.006   0.358
96801W        W68527  39.399  16.008   1.882
96802W        W68528  42.935  24.614   0.367
96803W        W68529  24.076  26.603   1.923
96804W        W68530  36.901  34.888   3.376
96805W        W68531  36.414   8.640  11.435
96806W        W68532  36.629  16.186  11.452
96807W        W68533  32.681  27.840  11.130
96808W        W68534   7.196   4.793   1.644
96809W        W68535  33.175  33.165  13.003
96810W        W68536  34.936  44.229   1.831
96811W        W68537   3.986  13.954  10.554
96812W        W68538  41.015  27.633   0.999
96813W        W68539  19.019  13.764   1.681
96814W        W68540  43.960   8.783   4.282
96815W        W68541   6.290   5.831   0.833
96816W        W68542  12.029  14.739   0.797
96817W        W68543  33.894  20.026   3.598
96818W        W68544   4.957   7.183   1.415
96819W        W68545  43.921   9.850   2.275
96820W        W68546  19.129   2.945   1.930
96821W        W68547  11.673   8.281  14.913
96822W        W68548  26.793  39.363   2.868
96823W        W68549   5.192  31.154  11.570
96824W        W68550  27.641   4.375   2.359
96825W        W68551  30.994  14.326  14.870
96826W        W68552   0.491  34.814   2.213
96827W        W68553   8.230  31.833   3.740
96828W        W68554  23.056  26.601   2.921
96829W        W68555  12.109   6.561   4.606
96830W        W68556   7.079  24.662  10.175
96831W        W68557  31.341  37.142   3.847
96832W        W68558  12.818  10.627  14.497
96833W        W68559  28.806  40.024   3.617
96834W        W68560  39.823  40.542  12.273
96835W        W68561  39.372  30.693  13.815
96836W        W68562   1.560  20.057   4.764
96837W        W68563  29.081  18.163   4.800
96838W        W68564  44.908   0.246   1.950
96839W        W68565  21.978  26.118   4.050
96840W        W68566   9.643  17.258  13.746
96841W        W68567   6.275  37.285   0.335
96842W        W68568  43.812  30.438  12.311
96843W        W68569  16.201  23.247  14.872
96844W        W68570  20.182   3.878  14.874
96845W        W68571  32.126  44.153  12.895
96846W        W68572  39.802  27.499  11.930
96847W        W68573  15.034  41.911   2.804
96848W        W68574  31.120  26.635   0.965
96849W        W68575  44.342   3.937  12.662
96850W        W68576  26.782  12.571  10.816
96851W        W68577  12.634  13.612   4.401
96852W        W68578  17.539  27.453  11.782
96853W        W68579  16.040  27.012   0.172
96854W        W68580   2.005  18.512  14.803
96855W        W68581  35.301  18.274  10.724
96856W        W68582  16.528  28.145   0.834
96857W        W68583  29.181  31.939  14.553
96858W        W68584   6.819  28.444  14.467
96859W        W68585   4.688  29.959  12.419
96860W        W68586  29.093  23.663  13.462
96861W        W68587  27.941  24.605  11.866
96862W        W68588  44.093  23.517   1.415
96863W        W68589  26.555  20.094   4.610
96864W        W68590  13.116  16.819  13.592
96865W        W68591  39.988   7.404   4.124
96866W        W68592   5.754  35.797   3.488
96867W        W68593  21.994  35.277  12.505
96868W        W68594  16.606   9.460   0.546
96869W        W68595  20.245  42.396   3.128
96870W        W68596  17.212  22.150  12.697
96871W        W68597   5.730  33.666  10.573
96872W        W68598  25.789  20.236  14.109
96873W        W68599  14.635  41.530  11.579
96874W        W68600  11.060  29.739  14.258
96875W        W68601  11.873   4.140   2.331
96876W        W68602   1.056   8.663  14.106
96877W        W68603   5.919  16.130   9.796
96878W        W68604  16.752  10.645  11.538
96879W        W68605   8.874  36.015   0.822
96880W        W68606  16.286  17.388   0.272
96881W        W68607  43.265  43.402   2.695
96882W        W68608  24.483  17.110   0.997
96883W        W68609  26.054  23.488  12.794
96884W        W68610  43.852  18.833   1.098
96885W        W68611  43.479  43.021  13.288
96886W        W68612   7.716   3.621  13.500
96887W        W68613  21.290  33.660  13.651
96888W        W68614  44.256  42.854  12.059
96889W        W68615  23.377  25.051   2.343
96890W        W68616  22.547  37.634  11.666
96891W        W68617  36.592  41.068   2.723
96892W        W68618  15.720  40.371   0.378
96893W        W68619  15.847   8.599  13.527
96894W        W68620  14.140  38.683   4.161
96895W        W68621  20.676  41.540   2.838
96896W        W68622   4.745   6.431  14.051
96897W        W68623   3.032  36.921  11.988
96898W        W68624  11.624  33.633   0.886
96899W        W68625   8.099  10.795   0.441
96900W        W68626  35.308   5.743   0.292
96901W        W68627   8.614  17.166   1.769
96902W        W68628  20.473  12.235   2.455
96903W        W68629  19.233  22.225   0.881
96904W        W68630  18.544  36.468   3.094
96905W        W68631   9.161  38.987   1.599
96906W        W68632   9.865  22.407   2.766
96907W        W68633  36.441   3.469  11.739
96908W        W68634   7.254  35.540  14.506
96909W        W68635  26.249  43.072   9.795
96910W        W68636  38.817  10.429   1.789
96911W        W68637  23.634  27.654   1.796
96912W        W68638  25.628  20.738   0.842
96913W        W68639  14.147  11.174   2.461
96914W        W68640  11.833  34.633  12.409
96915W        W68641  22.058   7.902  11.354
96916W        W68642   6.358  21.016  10.693
96917W        W68643   8.660  29.887  10.706
96918W        W68644  42.701  21.175   0.450
96919W        W68645  27.979   1.329   4.431
96920W        W68646  31.165  34.856   1.986
96921W        W68647  13.628   7.427   0.243
96922W        W68648  26.029  38.538   3.786
96923W        W68649  38.255  36.957  13.499
96924W        W68650  29.505  37.113  14.250
96925W        W68651  37.072  26.058   4.342
96926W        W68652  12.297   2.109  12.633
96927W        W68653   8.428  20.511   2.404
96928W        W68654  26.184  28.727   4.573
96929W        W68655  34.470  42.848  13.721
96930W        W68656   6.986   4.717  13.067
96931W        W68657  35.512  11.353   4.044
96932W        W68658  27.543   0.647   0.849
96933W        W68659   1.253  40.015  10.655
96934W        W68660  12.676  41.552   2.777
96935W        W68661  15.610  31.973  13.388
96936W        W68662  32.109  21.589  13.518
96937W        W68663   4.897  14.319   4.567
96938W        W68664  32.942   6.231   3.270
96939W        W68665  44.470  26.733   1.081
96940W        W68666  39.611   8.550   1.587
96941W        W68667   7.684  41.474   3.655
96942W        W68668  32.463  39.243   1.294
96943W        W68669   5.240  35.920   0.054
96944W        W68670  30.773  35.983   1.711
96945W        W68671   1.941   8.378   0.837
96946W        W68672  15.732   3.782  14.975
96947W        W68673  28.611  36.509  10.641
96948W        W68674   9.952  36.138  10.336
96949W        W68675   2.989   6.256  10.692
96950W        W68676   5.772  37.916   1.156
96951W        W68677  37.554  36.507   4.387
96952W        W68678   6.776  40.178   0.245
96953W        W68679  34.416  30.367   2.801
96954W        W68680  12.130  13.244  14.113
96955W        W68681  36.067  35.084   0.991
96956W        W68682   7.419   2.149   0.883
96957W        W68683  33.869  41.357   0.254
96958W        W68684  23.233  27.565  13.936
96959W        W68685  28.462  29.640  14.402
96960W        W68686  24.575   6.445   2.794
96961W        W68687  41.020  28.887  14.905
96962W        W68688  14.645   6.315   3.297
96963W        W68689   1.584  29.911  13.735
96964W        W68690   9.665  19.203   3.615
96965W        W68691  27.245   1.441   5.098
96966W        W68692   2.806  26.521   1.798
96967W        W68693   7.582  24.620  11.913
96968W        W68694   2.322  23.327   2.347
96969W        W68695  32.646  11.212  13.528
96970W        W68696   2.588  31.212   4.018
96971W        W68697  12.877  18.723   1.159
96972W        W68698  22.501  38.317  10.560
96973W        W68699  11.650  31.705   1.307
96974W        W68700  33.271   0.020  13.979
96975W        W68701  25.025  21.045   4.540
96976W        W68702  11.359   4.876   4.966
96977W        W68703  32.225  36.984   1.154
96978W        W68704   6.798  36.207   2.907
96979W        W68705  12.473   8.312  13.486
96980W        W68706  11.768  11.917  12.450
96981W        W68707  23.266   9.581   2.143
96982W        W68708   1.305   7.975   2.258
96983W        W68709  14.756  37.971   1.826
96984W        W68710  38.536  36.303  13.403
96985W        W68711  32.025  27.138   0.405
96986W        W68712   2.225  37.627   4.207
96987W        W68713   1.450   3.229   1.795
96988W        W68714  22.313   1.072  11.146
96989W        W68715  17.234  23.952  13.791
96990W        W68716  36.867   7.294  12.777
96991W        W68717  17.080   6.233  12.157
96992W        W68718   0.213  25.576   0.073
96993W        W68719   0.219  29.244   3.619
96994W        W68720  28.419  38.920  14.034
96995W        W68721   6.377  12.231  10.666
96996W        W68722  27.126  23.001   4.662
96997W        W68723   7.033   5.487   2.905
96998W        W68724  35.633  44.883   1.386
96999W        W68725  23.570  43.313  12.422
97000W        W68726  12.999   1.490  13.020
97001W        W68727  12.640   9.426  12.921
97002W        W68728  15.659  22.721   1.878
97003W        W68729  32.088   8.269  12.975
97004W        W68730  32.313  16.198   1.783
97005W        W68731  23.473  40.531  12.588
97006W        W68732  21.842  27.106  13.225
97007W        W68733  13.191  35.068   0.441
97008W        W68734  19.318   0.445   0.440
97009W        W68735  33.126   6.988   1.980
97010W        W68736  32.859   0.725  11.730
97011W        W68737  29.018   0.413   4.155
97012W        W68738  18.772   8.443  12.371
97013W        W68739  30.807   2.190   3.147
97014W        W68740  26.649  17.089   3.165
97015W        W68741  41.083  23.004  12.416
97016W        W68742   1.733  33.592   3.154
97017W        W68743  13.506  35.556   1.979
97018W        W68744  16.988   7.957  10.740
97019W        W68745   5.653   0.344   4.470
97020W        W68746  18.027   5.388  13.870
97021W        W68747  18.015   6.962   2.161
97022W        W68748  27.441  41.270   0.343
97023W        W68749   9.131  23.707  12.459
97024W        W68750  36.538   5.986  12.024
97025W        W68751  32.488   3.252   4.114
97026W        W68752  34.718  43.113   4.150
97027W        W68753  10.622  32.170  10.745
97028W        W68754   9.303  14.867   0.404
97029W        W68755  34.966  34.670  14.884
97030W        W68756   4.130  44.739  12.455
97031W        W68757   8.828   1.115  10.722
97032W        W68758   9.994   3.735   4.982
97033W        W68759   5.017  35.115   2.929
97034W        W68760  30.318  42.858   5.253
97035W        W68761  35.651  26.009   2.366
97036W        W68762  25.061   2.750  14.393
97037W        W68763  16.295  23.779  14.840
97038W        W68764   5.357  28.374   2.174
97039W        W68765   9.872  16.288   3.720
97040W        W68766  18.169  10.711   2.256
97041W        W68767  19.008  24.369  14.397
97042W        W68768  42.729  21.035   4.627
97043W        W68769   1.503  29.555   3.062
97044W        W68770  32.431  26.165   1.663
97045W        W68771  19.957  43.756   2.547
97046W        W68772  44.762  37.902   0.858
97047W        W68773  26.508   6.679   0.358
97048W        W68774  19.505  31.950  14.460
97049W        W68775   9.801  21.191   0.070
97050W        W68776  35.120  27.509  12.609
97051W        W68777  33.635  11.781   2.819
97052W        W68778  34.033   9.539  10.966
97053W        W68779  40.563  35.464   1.257
97054W        W68780   6.847   2.341   3.503
97055W        W68781  22.101  22.738  11.211
97056W        W68782   5.671  44.770  13.879
97057W        W68783  23.687   7.180  10.558
97058W        W68784  32.455  40.490  12.981
97059W        W68785  36.238  43.733  10.816
97060W        W68786  21.259   6.464  13.089
97061W        W68787  24.449  31.492   3.693
97062W        W68788  15.276  44.797   2.878
97063W        W68789  38.465  36.879  12.009
97064W        W68790   9.618   9.324   4.645
97065W        W68791  35.514  25.757  14.995
97066W        W68792   2.225  10.146  12.436
97067W        W68793  39.667  31.477  12.544
97068W        W68794  40.591   5.363   4.653
97069W        W68795  28.516  39.914  12.997
97070W        W68796  43.396  33.075  10.522
97071W        W68797   0.299  15.656   4.548
97072W        W68798  16.116  32.077   4.125
97073W        W68799   3.715  35.511  12.241
97074W        W68800  30.892   0.341  10.991
97075W        W68801  29.086   1.323  13.315
97076W        W68802   4.675  43.798  12.852
97077W        W68803  28.751  14.742  12.539
97078W        W68804  15.954  44.849  12.950
97079W        W68805  41.332  36.387  10.918
97080W        W68806   8.235  41.093  12.467
97081W        W68807  27.614  27.016   4.185
97082W        W68808   4.736   6.687   0.233
97083W        W68809  13.571  25.252   4.581
97084W        W68810  27.680  28.533   0.113
97085W        W68811  23.449  21.153  14.538
97086W        W68812  34.562  26.173  10.604
97087W        W68813  38.808  32.591   0.351
97088W        W68814  13.801   1.976  14.436
97089W        W68815   4.913   9.595  11.911
97090W        W68816   7.171  30.103  14.906
97091W        W68817  40.213  24.248   0.553
97092W        W68818  41.969  26.038   4.310
97093W        W68819  36.166   2.836  14.868
97094W        W68820  26.535  37.630  11.552
97095W        W68821   7.830  13.543   0.378
97096W        W68822  25.698   3.003   0.985
97097W        W68823  27.912  19.141   1.205
97098W        W68824  18.809  34.485   2.805
97099W        W68825   6.223  15.528  11.391
97100W        W68826  29.946  40.999  14.475
97101W        W68827  32.204  40.212   3.345
97102W        W68828  34.575  43.731   2.303
97103W        W68829  11.231  44.959   3.186
97104W        W68830  34.863  28.512   0.680
97105W        W68831  23.408  22.140   0.034
97106W        W68832   8.317   7.618   1.242
97107W        W68833  44.773  15.454   2.798
97108W        W68834  23.146  22.103   1.721
97109W        W68835  18.071  13.981   4.404
97110W        W68836  24.965  17.234   0.827
97111W        W68837  14.160  10.794   0.267
97112W        W68838  22.186  17.594   2.180
97113W        W68839  20.613  40.336  14.901
97114W        W68840  14.318  25.006  10.882
97115W        W68841  44.902  10.794   0.761
97116W        W68842   0.965  34.399  13.059
97117W        W68843  18.053  40.050   0.471
97118W        W68844  15.717  26.634  11.506
97119W        W68845   6.361   5.747   1.841
97120W        W68846  22.957   0.788   4.515
97121W        W68847  24.516   3.598  13.046
97122W        W68848   3.930  15.701  11.451
97123W        W68849  42.282   1.016  11.626
97124W        W68850  25.696  27.462  14.763
97125W        W68851  35.014  18.539  12.938
97126W        W68852  34.351  16.984   1.137
97127W        W68853   7.684  35.809  14.310
97128W        W68854  37.218  31.048   3.652
97129W        W68855  44.339  26.683   3.046
97130W        W68856  42.807   0.311  14.913
97131W        W68857   6.224   7.752   2.303
97132W        W68858   9.931  35.448   1.456
97133W        W68859  27.741  35.772   1.370
97134W        W68860  20.087  30.745  11.942
97135W        W68861  11.251   6.588   4.823
97136W        W68862  42.035  25.107  13.913
97137W        W68863  17.033  27.648   4.202
97138W        W68864  34.937  40.512  14.038
97139W        W68865  39.675  42.384   4.978
97140W        W68866   4.897  37.929   2.266
97141W        W68867   8.645  36.739   1.301
97142W        W68868  29.108  16.824   1.865
97143W        W68869   5.399   4.777   4.639
97144W        W68870   2.030  40.295   1.896
97145W        W68871  32.114  10.861  12.415
97146W        W68872   6.211   2.875   1.663
97147W        W68873   2.788   3.522  12.550
97148W        W68874  39.842  10.110  11.945
97149W        W68875  29.508   3.044  12.389
97150W        W68876  39.647  24.725  13.575
97151W        W68877   9.000  44.427   1.972
97152W        W68878  12.400  40.444   4.158
97153W        W68879  12.240  25.128   1.507
97154W        W68880  19.089  33.405  11.392
97155W        W68881  35.999   9.575  12.549
97156W        W68882   3.832  23.958   3.606
97157W        W68883  28.590  38.471   2.352
97158W        W68884  18.361  19.805   4.056
97159W        W68885  17.536  27.104  10.455
97160W        W68886   1.742  27.124   3.759
97161W        W68887  11.885  23.866   1.144
97162W        W68888   7.755  18.164  14.096
97163W        W68889  20.440  14.436   4.143
97164W        W68890  17.128  43.772   2.815
97165W        W68891  10.291   5.486   2.709
97166W        W68892   1.274  11.161  11.705
97167W        W68893   0.727  26.809  13.496
97168W        W68894  11.256  42.647  12.385
97169W        W68895  17.627  18.633  10.754
97170W        W68896  39.473  25.486  11.977
97171W        W68897  15.805   7.045   2.611
97172W        W68898  34.186  30.920  13.387
97173W        W68899  25.274  40.276  12.858
97174W        W68900   0.549  14.009  11.491
97175W        W68901  22.227  26.453  10.213
97176W        W68902  19.357  11.215   1.934
97177W        W68903  36.594  31.386   4.091
97178W        W68904  19.736  36.060  11.351
97179W        W68905  15.119  37.256  13.411
97180W        W68906  36.082  40.211  12.511
97181W        W68907   7.837  26.656  10.718
97182W        W68908  44.695   8.364  11.627
97183W        W68909   6.417  13.210  14.949
97184W        W68910  12.450   6.856  12.449
97185W        W68911  33.431   5.447  12.903
97186W        W68912  13.650  18.058  13.400
97187W        W68913  17.620  25.139  13.393
97188W        W68914  39.113   9.611  14.412
97189W        W68915   5.782  17.489  14.285
97190W        W68916  42.778  11.428   0.406
97191W        W68917  19.629  34.144   0.495
97192W        W68918   8.616   9.207  11.625
97193W        W68919  27.814  29.304   3.244
97194W        W68920   2.821  23.944  10.683
97195W        W68921  30.094  13.262   3.457
97196W        W68922  10.143  36.948  13.277
97197W        W68923  37.071  42.571   3.274
97198W        W68924  33.586  41.899  13.967
97199W        W68925  43.432  36.054   0.434
97200W        W68926   8.768  41.418   0.985
97201W        W68927  31.274  11.713  13.655
97202W        W68928  41.085  37.442  14.483
97203W        W68929  25.060   0.554  11.508
97204W        W68930  42.892  12.342   4.068
97205W        W68931  29.651  36.043  10.342
97206W        W68932   1.967  37.458   4.620
97207W        W68933  44.513   5.245  11.134
97208W        W68934   1.204  16.471   2.656
97209W        W68935  36.374   5.374   1.982
97210W        W68936  15.241  29.641   3.222
97211W        W68937  28.621  35.597  10.770
97212W        W68938   5.321  24.619  11.860
97213W        W68939  10.227   2.230  11.412
97214W        W68940  10.202   4.535  12.957
97215W        W68941  29.597  40.568  13.283
97216W        W68942  38.176  19.131   3.766
97217W        W68943  10.168  24.532  11.570
97218W        W68944   0.191  12.532  12.488
97219W        W68945  37.850  40.165  10.300
97220W        W68946  13.907  13.159   2.254
97221W        W68947   1.184  25.981   1.781
97222W        W68948   2.034  18.472  13.967
97223W        W68949   6.440   2.882  14.289
97224W        W68950  18.577  14.610  12.599
97225W        W68951   9.548  15.062  14.997
97226W        W68952  32.730  22.171   3.076
97227W        W68953  19.131  32.643   1.488
97228W        W68954  28.200  35.853   3.470
97229W        W68955  39.269  15.268  12.225
97230W        W68956  34.562  40.552  14.930
97231W        W68957   4.313  10.270   4.879
97232W        W68958   5.265   9.788   0.833
97233W        W68959   4.016  23.126   1.770
97234W        W68960   9.182  31.980  12.495
97235W        W68961  21.796  14.752  13.571
97236W        W68962  13.165  16.597  14.398
97237W        W68963  28.040  42.351  14.413
97238W        W68964  26.989  21.634  14.776
97239W        W68965   0.775  21.242   0.322
97240W        W68966   6.682  27.310  13.313
97241W        W68967   5.150  12.359   0.326
97242W        W68968  37.126  30.977  13.528
97243W        W68969  26.543  11.177  11.447
97244W        W68970  28.255  24.999   1.791
97245W        W68971  20.626   6.366  14.477
97246W        W68972  29.625   9.507   2.861
97247W        W68973  27.455  18.106  12.829
97248W        W68974   8.695  18.776   2.897
97249W        W68975  14.807   1.823   3.220
97250W        W68976  35.896  40.515   2.643
97251W        W68977  44.370  31.114  12.997
97252W        W68978  13.581  21.744   4.057
97253W        W68979   7.655  37.311  13.029
97254W        W68980  38.961  20.174   3.289
97255W        W68981  26.408  26.733   2.185
97256W        W68982  26.578   2.348   0.028
97257W        W68983   0.128  41.203  11.593
97258W        W68984  35.440   8.380  11.244
97259W        W68985  39.418  38.059  14.302
97260W        W68986  33.434  10.203  10.428
97261W        W68987  36.316  36.822   2.225
97262W        W68988   7.826  39.946  12.378
97263W        W68989  17.676  29.157  13.557
97264W        W68990  34.715  40.223  10.511
97265W        W68991  23.752  36.931   2.838
97266W        W68992  29.123  30.931   0.685
97267W        W68993  30.604  15.141  11.878
97268W        W68994  12.703   3.890   2.720
97269W        W68995  43.952  38.577   2.659
97270W        W68996   0.866   1.634   4.311
97271W        W68997  17.556  21.092   4.641
97272W        W68998   9.162  27.632   0.280
97273W        W68999  30.864  24.168  14.445
97274W        W69000  40.398  26.180   3.820
97275W        W69001  34.541  37.318  11.441
97276W        W69002  30.860  31.212   2.774
97277W        W69003   4.367  14.180   4.534
97278W        W69004  28.409  15.753   4.309
97279W        W69005  24.922  18.046  12.034
97280W        W69006  33.338  16.227  14.285
97281W        W69007  26.480  43.962   1.804
97282W        W69008  41.910   9.640   0.279
97283W        W69009   1.444  36.449  13.466
97284W        W69010  29.286  16.557   0.362
97285W        W69011  15.885  38.537   1.905
97286W        W69012  21.702  33.377  11.558
97287W        W69013  24.169  25.119   2.782
97288W        W69014   4.585  32.629  14.094
97289W        W69015  16.092  31.154   2.886
97290W        W69016  32.961  13.324  13.367
97291W        W69017  10.724  25.726   4.772
97292W        W69018  13.300  40.302   4.646
97293W        W69019   3.453   7.736   0.314
97294W        W69020  29.739  34.716  11.097
97295W        W69021  21.101  15.369   0.877
97296W        W69022  35.100  19.724  11.675
97297W        W69023  19.058  12.828   2.701
97298W        W69024  17.744  22.784  14.331
97299W        W69025  18.233   3.759  10.996
97300W        W69026  33.013   8.573  14.576
97301W        W69027  43.786  25.643   3.851
97302W        W69028  43.296  21.119   3.682
97303W        W69029  21.300  14.834  10.932
97304W        W69030  32.582  12.615   2.708
97305W        W69031   8.890   4.819   2.686
97306W        W69032  15.778  22.557   2.345
97307W        W69033   4.967  19.244  11.573
97308W        W69034   3.011  35.670  11.526
97309W        W69035  42.704   6.755  13.311
97310W        W69036  36.593  23.079   0.908
97311W        W69037  27.427  44.798   0.013
97312W        W69038  20.356  32.156   3.716
97313W        W69039  27.701  18.900   0.366
97314W        W69040  36.873   7.634  11.964
97315W        W69041  28.971  16.772  11.136
97316W        W69042  27.996  23.055  12.600
97317W        W69043   0.813  21.684  11.906
97318W        W69044  31.100  44.213   2.622
97319W        W69045  30.182  41.002  12.326
97320W        W69046  34.813  15.016   1.215
97321W        W69047   2.814  35.139   3.735
97322W        W69048  14.133  20.475  13.293
97323W        W69049  23.087   3.246  13.443
97324W        W69050  41.497  41.478   3.314
97325W        W69051  23.989  42.498   1.754
97326W        W69052   4.365  14.049  13.360
97327W        W69053  26.879  19.138   2.788
97328W        W69054   4.038  25.140   4.318
97329W        W69055  29.920   7.684  13.058
97330W        W69056  34.997  36.349  12.116
97331W        W69057  31.023  25.469   0.220
97332W        W69058  12.569  32.168  12.395
97333W        W69059  25.930   0.440  10.570
97334W        W69060   9.348   3.714  12.418
97335W        W69061  23.124  33.520  13.503
97336W        W69062  42.295  13.632   1.444
97337W        W69063  28.503  30.626   4.834
97338W        W69064  35.324  30.683  12.908
97339W        W69065   0.374  19.036  10.678
97340W        W69066  29.369  34.893   1.879
97341W        W69067  35.470  33.941   2.131
97342W        W69068  34.989   8.925  12.808
97343W        W69069   7.076  31.066   0.612
97344W        W69070  25.696  35.595   4.246
97345W        W69071  34.191  27.054   2.170
97346W        W69072  30.341  22.257   2.155
97347W        W69073  23.804  41.373  12.650
97348W        W69074  40.445  38.803   0.691
97349W        W69075  29.609   4.464   0.338
97350W        W69076  39.598  41.828   1.782
97351W        W69077  42.852  41.328   4.165
97352W        W69078  32.942  32.650  11.910
97353W        W69079  32.949  40.955   0.715
97354W        W69080  18.851  24.925  11.126
97355W        W69081  42.947   4.390  12.479
97356W        W69082   3.772   9.424  13.470
97357W        W69083  31.965  29.382   4.618
97358W        W69084  27.919  29.286   0.036
97359W        W69085  15.057  24.953   3.317
97360W        W69086  22.436   1.459  11.960
97361W        W69087   8.547  42.465  12.723
97362W        W69088  24.647  15.335   4.145
97363W        W69089  28.419  34.037   3.635
97364W        W69090  31.517  34.569  13.915
97365W        W69091  16.298  26.559   1.927
97366W        W69092  17.576  19.930  14.235
97367W        W69093   0.456  22.983  12.644
97368W        W69094  31.393   2.239  14.920
97369W        W69095   5.853  15.145   1.218
97370W        W69096   7.934  28.670  12.924
97371W        W69097  28.121  31.792   1.121
97372W        W69098  20.841  33.031   4.649
97373W        W69099  20.459  30.932   2.666
97374W        W69100  25.596  18.347   0.770
97375W        W69101  20.611   2.388  11.265
97376W        W69102   4.265  32.004   3.209
97377W        W69103  11.764  17.132   1.779
97378W        W69104  30.917  11.859   2.602
97379W        W69105  31.868   9.159  12.121
97380W        W69106   0.806  23.716   2.384
97381W        W69107  16.037  38.353   4.692
97382W        W69108   4.967   8.557  10.693
97383W        W69109  30.482  20.511   0.394
97384W        W69110  39.987  38.090   0.953
97385W        W69111  25.584   8.582  12.897
97386W        W69112  17.108   7.208  13.105
97387W        W69113  15.008   8.037   3.790
97388W        W69114  34.884   9.640   1.700
97389W        W69115  34.018   6.430  13.506
97390W        W69116  31.573   7.613  13.747
97391W        W69117  16.279   4.857   0.308
97392W        W69118   5.212  38.756   3.389
97393W        W69119   3.410  20.097   0.964
97394W        W69120  23.764  28.297   1.061
97395W        W69121  23.059  36.551   4.107
97396W        W69122  24.036  29.423   1.860
97397W        W69123   3.954  37.477   3.336
97398W        W69124  15.162  41.845   1.894
97399W        W69125  14.838   6.693  12.927
97400W        W69126  31.892   4.161  14.488
97401W        W69127   1.826   2.604   4.243
97402W        W69128  21.647  21.610   2.307
97403W        W69129  32.234  14.083  12.615
97404W        W69130  42.855  14.999   2.279
97405W        W69131  40.738  17.663  13.402
97406W        W69132  33.144  37.372   0.402
97407W        W69133   2.150  22.943   1.455
97408W        W69134  40.967  17.868   0.774
97409W        W69135  37.887  32.376   3.579
97410W        W69136   0.286  10.122   3.080
97411W        W69137  17.681  32.651  10.544
97412W        W69138  29.121  41.429  11.170
97413W        W69139   2.940  40.531   3.098
97414W        W69140  14.169   1.817  12.996
97415W        W69141   2.921  29.901  13.495
97416W        W69142  18.626  35.125   4.574
97417W        W69143  25.239  31.370   3.376
97418W        W69144  40.548  30.860  10.539
97419W        W69145  18.725  18.562  10.667
97420W        W69146  44.784  39.603   3.109
97421W        W69147  11.664   8.712  12.381
97422W        W69148   2.672  39.413   4.985
97423W        W69149  16.566  42.035   0.243
97424W        W69150  28.750  21.330   3.317
97425W        W69151  36.024  34.573   0.948
97426W        W69152   4.671  20.297  12.464
97427W        W69153  39.332  23.803   2.668
97428W        W69154  22.785  24.921   3.818
97429W        W69155  17.314  40.455  10.491
97430W        W69156  20.509  12.947   4.113
97431W        W69157  16.686  35.557   2.856
97432W        W69158  35.896  10.777  11.008
97433W        W69159  18.278   0.955  14.810
97434W        W69160  15.940  12.084   1.412
97435W        W69161  26.525  43.526   2.745
97436W        W69162  22.676  36.931   1.667
97437W        W69163  19.460   7.264   1.683
97438W        W69164   0.486  21.575  11.042
97439W        W69165   7.359  12.038   1.235
97440W        W69166  35.169   1.286   9.699
97441W        W69167   8.842   8.202   4.743
97442W        W69168  20.580  44.535  10.411
97443W        W69169  26.415  23.285   3.355
97444W        W69170  16.341  13.815   3.426
97445W        W69171  11.130   1.743   0.857
97446W        W69172  19.109  43.725   0.815
97447W        W69173  44.415  20.173   2.203
97448W        W69174  26.942  22.556  12.618
97449W        W69175   9.028  28.193   4.160
97450W        W69176  25.993  18.217   2.809
97451W        W69177   7.924  14.142  11.125
97452W        W69178   0.939  21.885   1.560
97453W        W69179   9.197  24.940   1.651
97454W        W69180   3.728  11.020  13.891
97455W        W69181  42.487  11.213   2.898
97456W        W69182   4.285  15.315   1.364
97457W        W69183  16.375   5.783   1.192
97458W        W69184  18.691  21.250  13.363
97459W        W69185   0.525  39.290   0.948
97460W        W69186   8.653  16.508  12.918
97461W        W69187  15.007  27.639   0.376
97462W        W69188  16.215   9.345  13.319
97463W        W69189  20.369  21.078   4.125
97464W        W69190  16.198  30.957  11.568
97465W        W69191  40.731  36.446  13.553
97466W        W69192   7.433  17.784   3.742
97467W        W69193  34.418  44.429   0.749
97468W        W69194  11.991  26.508  13.522
97469W        W69195   1.374  38.809   0.814
97470W        W69196   6.758   7.484  11.052
97471W        W69197  36.644  36.113  13.913
97472W        W69198  28.192  25.902  14.826
97473W        W69199   3.372  25.872  13.870
97474W        W69200  20.637  31.164  13.350
97475W        W69201  10.412  12.851   2.136
97476W        W69202  13.712  34.065  12.465
97477W        W69203  30.752  43.398  11.630
97478W        W69204  29.358  14.095  14.886
97479W        W69205  14.770  43.205  14.755
97480W        W69206  25.477  43.370   4.669
97481W        W69207  39.768  41.520  13.830
97482W        W69208  31.379  28.509  11.575
97483W        W69209  43.488  20.806   2.775
97484W        W69210   0.517   1.763   3.637
97485W        W69211   9.457  41.544   3.931
97486W        W69212   7.965   6.817   3.643
97487W        W69213  40.459  29.983   0.167
97488W        W69214  16.098  27.184  10.332
97489W        W69215  21.384  13.282   0.550
97490W        W69216  43.874   1.443   4.495
97491W        W69217  27.092  27.701   3.025
97492W        W69218  15.622  39.681  14.465
97493W        W69219  43.848   4.036  12.540
97494W        W69220   4.699  15.019   1.290
97495W        W69221   4.848  28.143  13.916
97496W        W69222  26.377  39.915   1.383
97497W        W69223  33.112  13.345   2.379
97498W        W69224   8.671  25.559   1.258
97499W        W69225   3.181  39.552   2.195
97500W        W69226   2.205   2.318  13.801
97501W        W69227  29.976  43.535   2.319
97502W        W69228  39.957  25.121  12.298
97503W        W69229  16.301  43.299  10.759
97504W        W69230   9.592   1.349  13.343
97505W        W69231  37.986   5.245   4.701
97506W        W69232  25.787  33.598  12.982
97507W        W69233  18.364  42.382  12.646
97508W        W69234  22.129   5.304  13.292
97509W        W69235  39.750  14.157  11.939
97510W        W69236   2.853  16.755  11.075
97511W        W69237  37.024  27.262   0.300
97512W        W69238   7.350   4.383  13.738
97513W        W69239   8.092  10.133   3.481
97514W        W69240   1.850   4.421  13.506
97515W        W69241  38.643  31.167  10.706
97516W        W69242  15.735  12.225   0.969
97517W        W69243  18.182  36.920   1.238
97518W        W69244  17.693  31.115   3.301
97519W        W69245  10.290  13.093   4.784
97520W        W69246  29.861   0.983  10.538
97521W        W69247  33.864   4.864   1.637
97522W        W69248   3.198  41.412   1.935
97523W        W69249  37.604  36.151  14.380
97524W        W69250  25.038  42.840   1.217
97525W        W69251  23.678  15.302  10.233
97526W        W69252  37.382   8.162   3.617
97527W        W69253  24.293  32.340  14.353
97528W        W69254  13.129   5.424  14.739
97529W        W69255  16.648  24.081  11.995
97530W        W69256  36.563  28.719   3.253
97531W        W69257  28.328   3.424  11.762
97532W        W69258  39.714   4.505  13.402
97533W        W69259   9.134  32.454   4.671
97534W        W69260  43.957  21.543   3.371
97535W        W69261   5.861  12.597  11.455
97536W        W69262  36.964  42.041   1.213
97537W        W69263  13.369  29.379  10.767
97538W        W69264  16.113   3.229  12.498
97539W        W69265   8.177  25.776   5.149
97540W        W69266  35.953  12.303  11.880
97541W        W69267  15.540   0.952   0.309
97542W        W69268  12.157  20.741  14.497
97543W        W69269  20.297  19.792  14.906
97544W        W69270   1.192  31.611   2.346
97545W        W69271  10.358   6.058  14.575
97546W        W69272  16.913  24.365  13.840
97547W        W69273  41.768  14.648  11.026
97548W        W69274  40.062  12.225   2.121
97549W        W69275  21.503  27.167  12.325
97550W        W69276  10.308  17.395   5.288
97551W        W69277  32.444   7.080  14.711
97552W        W69278   5.504  26.577   4.252
97553W        W69279  41.814  32.648   0.970
97554W        W69280  37.673  15.208   4.069
97555W        W69281   4.242  29.829   1.931
97556W        W69282  44.502  12.076  12.047
97557W        W69283  28.217  26.096   4.159
97558W        W69284  26.432  10.322   0.908
97559W        W69285  36.613  26.585   1.442
97560W        W69286  42.814  32.266   0.450
97561W        W69287  26.473  15.206  10.685
97562W        W69288  36.572  43.185   0.040
97563W        W69289  24.027   3.397   1.381
97564W        W69290  32.047  15.827  11.191
97565W        W69291  42.873   2.056  14.792
97566W        W69292  15.258   5.153   3.668
97567W        W69293  40.405  25.248  12.679
97568W        W69294  31.534  12.037  13.344
97569W        W69295  39.739  10.920   2.397
97570W        W69296  31.003  41.852   0.773
97571W        W69297   7.407   7.440   2.294
97572W        W69298   4.733   3.900   0.991
97573W        W69299  40.040  33.468  10.964
97574W        W69300  33.593  21.824   1.348
97575W        W69301  44.500  27.115   2.815
97576W        W69302  30.578  22.010   1.191
97577W        W69303   9.458   2.010   4.295
97578W        W69304  35.096   2.461   4.429
97579W        W69305  25.539  39.756  14.043
97580W        W69306  40.700  20.702   4.607
97581W        W69307  27.488  37.314   0.459
97582W        W69308  28.438  32.076  12.461
97583W        W69309  29.861  32.623   1.354
97584W        W69310  21.113  39.022   0.851
97585W        W69311  17.945  10.646   3.679
97586W        W69312  43.183  38.814   0.968
97587W        W69313  17.298  22.180  11.030
97588W        W69314  36.707  44.306   0.576
97589W        W69315   7.459  14.923   0.324
97590W        W69316  37.454   7.926  11.917
97591W        W69317  29.030   4.375   1.356
97592W        W69318  27.940   5.174  10.925
97593W        W69319  30.419  32.516   3.847
97594W        W69320  19.085  36.651  11.426
97595W        W69321  36.321  35.386  14.308
97596W        W69322  35.879  16.253   2.384
97597W        W69323  24.726  33.037  12.372
97598W        W69324  38.971  20.456  12.629
97599W        W69325   3.034  23.525   4.471
97600W        W69326  29.010  22.257  11.481
97601W        W69327  13.534   2.574   2.761
97602W        W69328  30.205   5.790   2.450
97603W        W69329  15.084  31.103   4.250
97604W        W69330  21.995   3.330  11.982
97605W        W69331   4.180  17.202   0.610
97606W        W69332  43.987   7.861   3.354
97607W        W69333  13.018   5.507  10.347
97608W        W69334  22.112  33.387   0.353
97609W        W69335  39.854  39.962  14.085
97610W        W69336   5.534  35.790  14.619
97611W        W69337  18.670   4.611  12.133
97612W        W69338  14.331  35.981   2.773
97613W        W69339   6.612  18.266   0.292
97614W        W69340  14.030  14.678  11.620
97615W        W69341  28.355  36.529  11.088
97616W        W69342  14.116  44.887   4.078
97617W        W69343  14.710  22.919   1.847
97618W        W69344  27.035   3.801   4.133
97619W        W69345  37.549   0.757  10.671
97620W        W69346  29.429  44.318  13.110
97621W        W69347  32.041  13.084  10.582
97622W        W69348  16.680  42.054  12.272
97623W        W69349   8.296  41.533  14.813
97624W        W69350  13.333  36.970   1.515
97625W        W69351  33.808   7.398  11.974
97626W        W69352  44.966  11.188   2.862
97627W        W69353  17.644   3.961  12.962
97628W        W69354  26.011  31.016   1.851
97629W        W69355   6.178  30.226  14.024
97630W        W69356  13.982  42.412   0.159
97631W        W69357  22.062  27.121   3.710
97632W        W69358  43.523  32.692   0.281
97633W        W69359  36.252  31.806  11.104
97634W        W69360  25.152   1.930   3.880
97635W        W69361  41.477  41.045  10.796
97636W        W69362  39.637  43.528   3.371
97637W        W69363  26.762   7.097  12.989
97638W        W69364  21.963   9.321  13.491
97639W        W69365  12.731  10.445  13.128
97640W        W69366  10.903  33.526   2.778
97641W        W69367  34.397  14.417  14.313
97642W        W69368  26.669  37.860   0.478
97643W        W69369  30.919  43.886   0.808
97644W        W69370   8.872  16.716  10.708
97645W        W69371  40.228  32.318  10.169
97646W        W69372   5.329  39.745   1.824
97647W        W69373  22.055   1.485   4.339
97648W        W69374  36.463   9.585   3.752
97649W        W69375  33.736  16.144  10.460
97650W        W69376   4.414  19.264   1.844
97651W        W69377  33.715  37.475   9.899
97652W        W69378  30.621   6.387   0.998
97653W        W69379  41.369  40.141  11.781
97654W        W69380  37.078  13.585   4.253
97655W        W69381  40.945   8.559   4.761
97656W        W69382   4.160  43.417  13.962
97657W        W69383  42.561  31.616  14.068
97658W        W69384  22.112  40.450   1.911
97659W        W69385  19.740   1.635   1.778
97660W        W69386  43.740  25.022   2.793
97661W        W69387   5.825  37.921   1.686
97662W        W69388  12.573   6.717  13.067
97663W        W69389  43.306  37.645  12.023
97664W        W69390  12.253   9.118  14.735
97665W        W69391  33.451  42.995   3.673
97666W        W69392  21.772  11.747   3.072
97667W        W69393  40.493  22.044  11.107
97668W        W69394  23.946  25.190  14.315
97669W        W69395  22.535  10.011  13.869
97670W        W69396  33.405  10.248   5.069
97671W        W69397  38.485  26.219   1.289
97672W        W69398  37.586  25.932  14.090
97673W        W69399   7.774   7.569  13.007
97674W        W69400  25.598  19.327   4.074
97675W        W69401  18.629  39.559   1.004
97676W        W69402   1.102  29.077  13.546
97677W        W69403  38.032  40.314  13.542
97678W        W69404  33.297  12.253  13.453
97679W        W69405  20.978  20.045  12.854
97680W        W69406   0.387  43.484  14.378
97681W        W69407  22.929  38.977   2.143
97682W        W69408   2.669  16.327   3.704
97683W        W69409  17.109  14.674  10.906
97684W        W69410  37.480  23.409   0.737
97685W        W69411  15.600   1.462   0.308
97686W        W69412  42.308  28.403  12.413
97687W        W69413  28.203  43.658   2.176
97688W        W69414  24.143  17.595   2.747
97689W        W69415  12.379  19.141   4.086
97690W        W69416  25.702  19.830   4.068
97691W        W69417  21.265  33.527  10.890
97692W        W69418  19.666   6.419   1.779
97693W        W69419   7.436  18.708   3.622
97694W        W69420  15.672  39.340  10.391
97695W        W69421  44.336  31.222  13.928
97696W        W69422   0.063  11.825  13.286
97697W        W69423  28.283  27.631   0.659
97698W        W69424   9.072  22.349  10.286
97699W        W69425  36.018  41.860   3.740
97700W        W69426  23.697   2.302   4.358
97701W        W69427  22.015  35.941   1.335
97702W        W69428   4.363  33.180   2.410
97703W        W69429  18.643  35.673  11.077
97704W        W69430  31.904  16.222  11.967
97705W        W69431  41.330  16.336   1.872
97706W        W69432  23.008   0.127  13.365
97707W        W69433   3.296  11.574  12.575
97708W        W69434  28.708  43.817  11.033
97709W        W69435  36.252  34.115  14.915
97710W        W69436  34.048  18.177   0.299
97711W        W69437   1.790   8.605   4.503
97712W        W69438  27.279  42.720   1.803
97713W        W69439  39.008  17.406  12.896
97714W        W69440   9.062  30.440  14.668
97715W        W69441  14.326  28.499   0.759
97716W        W69442  30.094  37.860   2.218
97717W        W69443  42.893  37.601   2.831
97718W        W69444  15.833  18.322  12.867
97719W        W69445  39.971  37.008  11.095
97720W        W69446  27.957   2.337  13.971
97721W        W69447  42.811  22.719   4.523
97722W        W69448  35.935  27.497  10.578
97723W        W69449   9.676  22.866   2.887
97724W        W69450  17.498   4.717   4.223
97725W        W69451   3.956  36.652  14.843
97726W        W69452  27.937  29.051   4.164
97727W        W69453  14.236  35.163   3.310
97728W        W69454   0.488  31.539  12.779
97729W        W69455   9.757  38.844  13.555
97730W        W69456  24.109  39.133  10.665
97731W        W69457  24.068  42.997  12.875
97732W        W69458  26.938   3.624   3.658
97733W        W69459  12.976  23.326  13.588
97734W        W69460   5.008  39.755  10.656
97735W        W69461   1.163  22.656   1.809
97736W        W69462  19.128  15.639  11.604
97737W        W69463   8.092  12.304   4.048
97738W        W69464  35.455  32.837   0.837
97739W        W69465  21.452  27.769  14.752
97740W        W69466  25.291  34.896  12.150
97741W        W69467  23.110  14.678  11.542
97742W        W69468  36.870  38.931   2.294
97743W        W69469   0.936  13.579   2.799
97744W        W69470  44.505  16.867   3.346
97745W        W69471  41.140  32.470  12.726
97746W        W69472  27.435  20.023   1.769
97747W        W69473  23.476  35.550   2.436
97748W        W69474  18.110  44.538  10.703
97749W        W69475   9.591  37.637   3.304
97750W        W69476  32.031  20.473   0.722
97751W        W69477  27.526  44.426  11.424
97752W        W69478  18.407  42.133  11.734
97753W        W69479  32.088  44.012   3.213
97754W        W69480  28.699  35.562   1.716
97755W        W69481  17.610  33.938  12.689
97756W        W69482  25.053  32.443  10.505
97757W        W69483  43.265  35.003   3.554
97758W        W69484  21.154  16.010   4.297
97759W        W69485  23.712  14.861  12.378
97760W        W69486  32.344   1.084   2.949
97761W        W69487  13.803  41.259  10.857
97762W        W69488  16.016  41.862   2.587
97763W        W69489  34.094  10.689   2.631
97764W        W69490  18.158  29.833  13.517
97765W        W69491  28.526  30.392   2.200
97766W        W69492  20.658   2.884   4.339
97767W        W69493   2.715   0.946   3.062
97768W        W69494  17.285  20.244   4.823
97769W        W69495  10.121  10.331   3.224
97770W        W69496  15.546   7.965   5.172
97771W        W69497  41.112  34.461  10.656
97772W        W69498  28.130   0.406   2.204
97773W        W69499   9.414   2.403  10.612
97774W        W69500  43.091  28.070   4.562
97775W        W69501  42.512  34.779   3.204
97776W        W69502  26.584  27.571   0.388
97777W        W69503  18.458  20.455  12.564
97778W        W69504  42.018  44.471   0.705
97779W        W69505  19.522   5.309   1.037
97780W        W69506  26.902  15.707   1.326
97781W        W69507  34.091  17.305   0.825
97782W        W69508  29.082  39.952  13.424
97783W        W69509  21.569  11.660   1.179
97784W        W69510  42.757  18.658   0.511
97785W        W69511  30.939  23.551   2.403
97786W        W69512  24.551   8.719   0.839
97787W        W69513  34.951  30.978  14.926
97788W        W69514  38.611  28.133  11.546
97789W        W69515   8.059  25.084   3.263
97790W        W69516  43.014  10.312  13.080
97791W        W69517  40.224   9.320   1.829
97792W        W69518  30.230  43.253  13.763
97793W        W69519   6.477  44.876  11.285
97794W        W69520  41.274  28.929   4.659
97795W        W69521   5.790  21.532   3.755
97796W        W69522  44.758  11.189   3.769
97797W        W69523  21.280  28.907   1.705
97798W        W69524   0.385  21.507  13.065
97799W        W69525   5.200   8.930   4.740
97800W        W69526  39.817  37.540  11.563
97801W        W69527  10.088  33.705   0.803
97802W        W69528  27.657  40.955  11.573
97803W        W69529  24.587   5.674  14.546
97804W        W69530  18.541  42.529  11.409
97805W        W69531  10.068  41.824  11.881
97806W        W69532   6.263  20.450   2.689
97807W        W69533  17.585  18.107   1.849
97808W        W69534  13.331  35.426   3.815
97809W        W69535  40.446  17.718   0.019
97810W        W69536   1.867  23.111   2.351
97811W        W69537  42.455  33.861   2.901
97812W        W69538  26.357  18.173   1.216
97813W        W69539  10.192  44.411   0.260
97814W        W69540  37.908   2.921   0.343
97815W        W69541  22.019   0.800  12.962
97816W        W69542  22.755   1.836   1.020
97817W        W69543   2.330  18.007   4.726
97818W        W69544  20.185  20.983  11.205
97819W        W69545  11.152  16.647   3.048
97820W        W69546  27.916  43.293   1.253
97821W        W69547  12.493  27.960   1.414
97822W        W69548  35.094  27.492  13.131
97823W        W69549  11.270   7.621   0.342
97824W        W69550   0.007  21.779  11.027
97825W        W69551  39.292  27.796   0.268
97826W        W69552  10.464  29.433   3.348
97827W        W69553  29.533  11.372   1.356
97828W        W69554   6.641   7.295  10.221
97829W        W69555  37.372  38.606   2.801
97830W        W69556  17.749  23.986  13.816
97831W        W69557  20.560   4.411   0.974
97832W        W69558  30.066   7.715  13.556
97833W        W69559  20.628   8.859   3.846
97834W        W69560  16.602  17.615   2.890
97835W        W69561  12.678   8.821  12.074
97836W        W69562  24.090  15.118  12.085
97837W        W69563  26.246  19.748   3.383
97838W        W69564  26.726  25.460   0.327
97839W        W69565  27.594  34.140  10.618
97840W        W69566  36.903  12.320  10.753
97841W        W69567  39.688   7.336  12.386
97842W        W69568  18.736  10.534   2.370
97843W        W69569  10.802  19.499  12.110
97844W        W69570  19.803  15.644   1.281
97845W        W69571   1.970  35.940  14.483
97846W        W69572  11.347  39.293   3.252
97847W        W69573   6.668  38.756  11.027
97848W        W69574  12.533  11.451  13.985
97849W        W69575  31.988  27.889  13.328
97850W        W69576  26.552  32.625   4.213
97851W        W69577  27.501  38.341   1.810
97852W        W69578  41.974  25.145  13.028
97853W        W69579   2.971  24.137   0.012
97854W        W69580  36.126  16.688   2.312
97855W        W69581   6.467   9.854   0.373
97856W        W69582  14.531  21.064   4.769
97857W        W69583  33.260  37.051   1.223
97858W        W69584  36.798  32.291   3.950
97859W        W69585   7.011  25.779   4.199
97860W        W69586  22.734  39.636   3.223
97861W        W69587  21.249  29.569  14.830
97862W        W69588  37.920   3.920   3.612
97863W        W69589  32.427  30.079   4.403
97864W        W69590  26.892  25.663  11.025
97865W        W69591  14.040  33.979  13.090
97866W        W69592  22.150  30.997  12.946
97867W        W69593  21.027  43.293   3.129
97868W        W69594  20.670  19.575   4.519
97869W        W69595  24.443  10.403   3.752
97870W        W69596  12.261  32.582  10.521
97871W        W69597  25.753  38.293  10.985
97872W        W69598  35.603   6.891   3.706
97873W        W69599  36.799  16.546  13.353
97874W        W69600  19.474  12.669  12.939
97875W        W69601  12.706   1.269   0.934
97876W        W69602  44.898  11.796  12.795
97877W        W69603  10.383  42.891   0.650
97878W        W69604   8.969  20.476   0.440
97879W        W69605  43.373  40.116   2.158
97880W        W69606   2.730  35.046  14.761
97881W        W69607  11.634  29.141   3.081
97882W        W69608  17.634  19.244   2.003
97883W        W69609   6.117  44.011   1.301
97884W        W69610  38.647   8.639   0.931
97885W        W69611  39.026  12.768  13.425
97886W        W69612  37.581   5.249  10.833
97887W        W69613   7.439  29.592   0.811
97888W        W69614  31.886  22.737  14.845
97889W        W69615  17.540  14.175   1.864
97890W        W69616  40.563  24.358  13.330
97891W        W69617  38.281   9.743   0.273
97892W        W69618  20.200   4.815  10.207
97893W        W69619  40.927  19.706  10.722
97894W        W69620  23.228  25.433   3.323
97895W        W69621   5.415   9.636   1.750
97896W        W69622  35.472  31.431  10.873
97897W        W69623  32.676   0.834   2.632
97898W        W69624   5.161   3.159  11.137
97899W        W69625  30.449   5.519   2.105
97900W        W69626  12.331  39.417   4.075
97901W        W69627  18.702  39.940   4.058
97902W        W69628  31.068  22.013   0.993
97903W        W69629  18.777  19.285  13.417
97904W        W69630  42.316  15.818   1.196
97905W        W69631  43.948   1.756   0.725
97906W        W69632  28.158  35.605   1.696
97907W        W69633  15.499  34.376   4.759
97908W        W69634   3.738  39.078  13.993
97909W        W69635  39.404  33.484  13.984
97910W        W69636  16.509  31.927  11.576
97911W        W69637   4.213  12.352   3.875
97912W        W69638  16.566   7.883  13.369
97913W        W69639  22.826  37.679   4.887
97914W        W69640  37.348  43.545   2.223
97915W        W69641  39.557  27.720   2.158
97916W        W69642  28.110  34.206  14.901
97917W        W69643  23.527  13.788   1.447
97918W        W69644  14.603  25.417  12.052
97919W        W69645  14.038  20.018  11.897
97920W        W69646  42.963  44.885   1.323
97921W        W69647  12.732  43.843   4.409
97922W        W69648  41.163   4.747  14.013
97923W        W69649  15.573  23.200  13.531
97924W        W69650  42.833   1.705  13.037
97925W        W69651  18.670  26.739  11.640
97926W        W69652  22.693  31.021   2.047
97927W        W69653  19.302  13.169   1.724
97928W        W69654  23.199  24.277  12.581
97929W        W69655  31.602  34.876   1.710
97930W        W69656  27.470   4.742   0.851
97931W        W69657  34.888  12.399   1.716
97932W        W69658  36.029  13.125  12.028
97933W        W69659   6.272  32.701   2.397
97934W        W69660  31.211   1.833  10.311
97935W        W69661   8.191  16.252  12.858
97936W        W69662  32.423  37.098  10.644
97937W        W69663  14.129  16.766  11.154
97938W        W69664  44.299  17.021  10.345
97939W        W69665  29.968  13.746   0.360
97940W        W69666  23.105  16.394  13.575
97941W        W69667  24.158  23.792   0.716
97942W        W69668  15.847  30.985  14.409
97943W        W69669  11.309  16.118   1.902
97944W        W69670   0.719  15.221   3.271
97945W        W69671  23.771   8.357   4.553
97946W        W69672   9.990  25.300   9.837
97947W        W69673   4.514   1.457  12.456
97948W        W69674  12.856  25.761   1.779
97949W        W69675  40.507   2.560   4.499
97950W        W69676   1.835   3.256  10.597
97951W        W69677  29.481   6.174  11.174
97952W        W69678  43.245  16.479   3.182
97953W        W69679  34.680   8.218  11.535
97954W        W69680  20.810   7.263  13.907
97955W        W69681  10.214  31.465  12.482
97956W        W69682   6.945   3.272  10.318
97957W        W69683   0.263   7.456  14.426
97958W        W69684  18.338   4.286   1.040
97959W        W69685   6.982  27.653   2.558
97960W        W69686   5.828  14.676  12.361
97961W        W69687  34.607  31.106   4.181
97962W        W69688  11.853  32.462   2.693
97963W        W69689  35.897   0.936  13.806
97964W        W69690  39.063  16.900  12.968
97965W        W69691  36.523  26.000   2.233
97966W        W69692  22.205  37.367  11.957
97967W        W69693  19.010  43.083  14.286
97968W        W69694  15.787   9.176  14.950
97969W        W69695   6.798  41.535   3.340
97970W        W69696  35.558  25.465  14.463
97971W        W69697  26.350   4.958  13.000
97972W        W69698   8.412  38.578  12.022
97973W        W69699  11.356  37.586  14.834
97974W        W69700  26.593   5.188   4.103
97975W        W69701  38.495  23.671   2.540
97976W        W69702  27.631  13.640  11.091
97977W        W69703   6.490  40.362  11.148
97978W        W69704  36.471  19.125   4.524
97979W        W69705   7.366  12.766   2.367
97980W        W69706   0.954  35.324  12.611
97981W        W69707  24.530  42.408  13.504
97982W        W69708   3.659   9.587  14.804
97983W        W69709   3.958  37.733   2.260
97984W        W69710  11.613   9.654   0.996
97985W        W69711   2.647  38.892   4.853
97986W        W69712  23.099  27.067   3.219
97987W        W69713  12.687  38.109   0.199
97988W        W69714  17.526  14.324  12.080
97989W        W69715  42.207  11.942  13.372
97990W        W69716   1.017   9.767  13.940
97991W        W69717  37.887   0.200   2.792
97992W        W69718   5.446  28.702  11.097
97993W        W69719  41.837   8.398  13.371
97994W        W69720  37.611  16.933   3.788
97995W        W69721  30.099  34.063   2.731
97996W        W69722   1.724   0.449   2.198
97997W        W69723  32.443  39.797   2.132
97998W        W69724  38.477  38.956  14.808
97999W        W69725   5.213  24.578  12.370
98000W        W69726  33.855   5.912   4.457
98001W        W69727   0.469   3.067   0.577
98002W        W69728  41.053  33.683  10.991
98003W        W69729  13.103   2.695   0.750
98004W        W69730  23.046  33.439   4.436
98005W        W69731  17.483  16.689   0.941
98006W        W69732  33.907  20.086  10.510
98007W        W69733  14.761  39.920   1.742
98008W        W69734  22.261   1.937   0.841
98009W        W69735  17.508   9.524   2.275
98010W        W69736  22.062  30.980   0.922
98011W        W69737   8.062  39.008  11.173
98012W        W69738  11.812  34.737   2.597
98013W        W69739  10.207  15.644  12.186
98014W        W69740  30.122  40.507  12.529
98015W        W69741   4.885  33.990   2.075
98016W        W69742  13.673  29.593   3.778
98017W        W69743  34.604  26.167   4.424
98018W        W69744  12.217   6.894   2.863
98019W        W69745  20.565   6.827  12.072
98020W        W69746  22.542  22.725   3.848
98021W        W69747  22.227  11.931  14.800
98022W        W69748  29.603  23.507  13.501
98023W        W69749  22.408  26.287  13.395
98024W        W69750  38.834  12.505  10.824
98025W        W69751  22.940  11.218  13.931
98026W        W69752  29.653  35.804  14.646
98027W        W69753   9.267  17.630  10.450
98028W        W69754   4.816  30.440  12.556
98029W        W69755  43.405  16.094   2.478
98030W        W69756  15.046   4.444  11.889
98031W        W69757   6.079  14.165   1.378
98032W        W69758  13.017  30.443   1.391
98033W        W69759   3.879  16.361   0.391
98034W        W69760  31.087  12.416   3.652
98035W        W69761  10.837  22.063   4.027
98036W        W69762  29.175   8.919  13.336
98037W        W69763  34.855  31.409   3.804
98038W        W69764  25.615  20.625  12.995
98039W        W69765  29.546  12.649   3.889
98040W        W69766  28.624  19.242  11.926
98041W        W69767   2.552  14.313  11.081
98042W        W69768   9.233   0.562   0.362
98043W        W69769  12.233   9.123  13.837
98044W        W69770   0.108   6.157  11.987
98045W        W69771   9.899  13.846   4.946
98046W        W69772  15.259  12.593   1.212
98047W        W69773   6.142  25.055   2.811
98048W        W69774  22.024  21.537  10.518
98049W        W69775   0.208  36.421   1.378
98050W        W69776  43.871  17.190   1.301
98051W        W69777  37.400  42.382   1.854
98052W        W69778  30.944  42.917   3.246
98053W        W69779  13.786   2.307   0.227
98054W        W69780  37.463  34.026  12.180
98055W        W69781  44.259  23.628  14.823
98056W        W69782  13.470  32.471  11.054
98057W        W69783  21.318   7.218   4.698
98058W        W69784  28.822  17.664   2.784
98059W        W69785  25.311  38.553  11.011
98060W        W69786   0.504  36.640   0.790
98061W        W69787   3.965  28.774   1.948
98062W        W69788   2.815  28.004  12.624
98063W        W69789   9.417  25.034  12.122
98064W        W69790  35.563   0.939  12.142
98065W        W69791  34.634  40.653  13.276
98066W        W69792  21.748   7.205   3.243
98067W        W69793  25.005  13.369  10.618
98068W        W69794  34.074  15.192   4.070
98069W        W69795  22.064  27.013   0.571
98070W        W69796  32.317  30.891  14.389
98071W        W69797  18.705  29.838  11.007
98072W        W69798  29.915  33.197  10.703
98073W        W69799   1.926  42.479   1.462
98074W        W69800  15.160   3.476   2.786
98075W        W69801   9.679   2.675  13.997
98076W        W69802  17.157  36.856  13.347
98077W        W69803  29.432   3.315   2.246
98078W        W69804   2.304  11.630   2.843
98079W        W69805  39.340  15.817   4.309
98080W        W69806   2.660  16.161   0.897
98081W        W69807  25.239  25.841   4.069
98082W        W69808  27.880  10.361  13.080
98083W        W69809   7.328  23.552   1.803
98084W        W69810  21.802  44.053  11.442
98085W        W69811  37.398  16.528   0.895
98086W        W69812   3.977  34.590   3.489
98087W        W69813  33.564  39.621   2.707
98088W        W69814  23.070  37.874  14.900
98089W        W69815  10.269  23.526   3.577
98090W        W69816  14.323  19.567  10.656
98091W        W69817  29.649  27.513   0.774
98092W        W69818  31.325   5.383   3.158
98093W        W69819  43.573   3.919  11.061
98094W        W69820  41.887  10.182   0.376
98095W        W69821   4.728  18.961  14.000
98096W        W69822  21.242   2.075   2.860
98097W        W69823   1.544  29.002   0.360
98098W        W69824  27.644   8.465   3.168
98099W        W69825  40.418  13.597   4.668
98100W        W69826  16.862  20.589  14.488
98101W        W69827   5.843   5.476  10.334
98102W        W69828  41.442   6.713  11.563
98103W        W69829  13.302   0.480  10.384
98104W        W69830  34.146  20.305   3.943
98105W        W69831  30.300  26.836   2.633
98106W        W69832  16.238  44.344   0.237
98107W        W69833   2.418  16.590   0.742
98108W        W69834  38.875  22.513  12.552
98109W        W69835   6.877  33.531   2.082
98110W        W69836  17.278  39.826  11.990
98111W        W69837  26.202  38.309   2.881
98112W        W69838  44.455  32.448   4.387
98113W        W69839   2.697   5.028  11.619
98114W        W69840  11.953  41.510  13.017
98115W        W69841  40.515  32.333  14.870
98116W        W69842  22.626  28.045   2.178
98117W        W69843  28.128   8.475  13.017
98118W        W69844  35.009  43.459  10.655
98119W        W69845  13.858  10.290  13.794
98120W        W69846   2.184  23.090   0.503
98121W        W69847  15.181  20.046   2.903
98122W        W69848   8.460  43.870  13.521
98123W        W69849   0.209   1.263   1.860
98124W        W69850  40.952   1.937  12.536
98125W        W69851  38.320  29.592  11.219
98126W        W69852  39.577  11.702  10.364
98127W        W69853  35.532  11.393   0.077
98128W        W69854  37.880   7.725  12.207
98129W        W69855  36.785  34.497   4.750
98130W        W69856  25.132  29.465   3.263
98131W        W69857  31.505  36.554   1.252
98132W        W69858  21.948  41.547  14.401
98133W        W69859  28.581  29.630  12.828
98134W        W69860  35.318  21.600   3.340
98135W        W69861  11.466  21.550  10.644
98136W        W69862  33.874   3.843  11.044
98137W        W69863   5.197   7.484  13.807
98138W        W69864  21.099   1.575   3.943
98139W        W69865  26.952   5.773  12.969
98140W        W69866   8.773  10.688   0.989
98141W        W69867  17.268  20.337  11.084
98142W        W69868  19.108  33.030   0.672
98143W        W69869  21.152  25.525   3.090
98144W        W69870  24.465  26.230   4.003
98145W        W69871   8.188  43.375  13.064
98146W        W69872  31.034  16.381   1.324
98147W        W69873  41.294  21.905  14.015
98148W        W69874  21.775  24.526  10.605
98149W        W69875  23.768  43.041  13.607
98150W        W69876   4.755   0.441  12.027
98151W        W69877   0.808  13.234  10.834
98152W        W69878  14.178  29.912   1.787
98153W        W69879  44.771   1.080  12.958
98154W        W69880  19.755  29.720   0.977
98155W        W69881  38.799   1.967   1.834
98156W        W69882  39.119  38.371   0.703
98157W        W69883  22.228  39.554  11.037
98158W        W69884  19.795  31.582  11.166
98159W        W69885  20.606  20.765  10.461
98160W        W69886  17.529  27.696   2.080
98161W        W69887   9.397  33.802  14.020
98162W        W69888  27.528  37.919   2.391
98163W        W69889   9.297  22.552   4.648
98164W        W69890  17.576   8.600  14.884
98165W        W69891   8.996  42.341   0.314
98166W        W69892   9.869  14.355   2.213
98167W        W69893   6.641  24.236  14.352
98168W        W69894  44.751  40.662   3.727
98169W        W69895  26.092  20.928   1.210
98170W        W69896  10.795   9.581   4.137
98171W        W69897  27.902  13.401  14.320
98172W        W69898  15.213  29.805  13.462
98173W        W69899  10.234   2.265   9.975
98174W        W69900   6.350   3.456  13.467
98175W        W69901  41.431   8.412   4.876
98176W        W69902  14.584   6.958  13.830
98177W        W69903   8.329  12.209  14.528
98178W        W69904  38.642   8.706  13.772
98179W        W69905   7.612  29.697   2.916
98180W        W69906  37.019  25.077  10.604
98181W        W69907   3.373  24.005   5.043
98182W        W69908   2.701   6.736   2.153
98183W        W69909  31.209   1.749  12.057
98184W        W69910  37.953  22.193   4.599
98185W        W69911   1.470  33.603  14.685
98186W        W69912  33.062   3.787  14.994
98187W        W69913   0.759  21.490   1.869
98188W        W69914   1.755  14.676   4.156
98189W        W69915  28.462   2.784   4.653
98190W        W69916  39.552  41.866  11.122
98191W        W69917  18.784   2.719   0.317
98192W        W69918  25.904  14.613   4.582
98193W        W69919  22.996  13.700   2.796
98194W        W69920   5.760  34.622   3.746
98195W        W69921  18.228  40.963   0.761
98196W        W69922  19.588   8.945   4.150
98197W        W69923  35.339  10.117   0.389
98198W        W69924  15.516  42.593  13.978
98199W        W69925  19.564  20.203   4.481
98200W        W69926  41.921  21.142  11.201
98201W        W69927  43.249  16.723   0.360
98202W        W69928  43.437   7.102   3.344
98203W        W69929  42.285  24.595   1.820
98204W        W69930  36.036  40.970  13.396
98205W        W69931   8.305  17.654  12.444
98206W        W69932  34.358  11.834  11.960
98207W        W69933  43.532  41.834   1.576
98208W        W69934  12.826  25.623   4.143
98209W        W69935   2.019  11.876   1.733
98210W        W69936  31.075  16.542   3.669
98211W        W69937  13.670  10.154   3.714
98212W        W69938  26.734  24.521  10.879
98213W        W69939  23.330  18.094  14.560
98214W        W69940   9.665  26.797  14.591
98215W        W69941  14.342   1.012   4.564
98216W        W69942  34.837  28.236  14.248
98217W        W69943   1.361  11.800   4.732
98218W        W69944   3.851  21.746  13.975
98219W        W69945  20.806   5.701  11.154
98220W        W69946  38.010  12.666  12.487
98221W        W69947   7.761  36.483   3.259
98222W        W69948   8.758  42.778   0.465
98223W        W69949  24.156   8.719   2.821
98224W        W69950  28.683  39.486  12.392
98225W        W69951  31.177  25.568   2.906
98226W        W69952   8.914  38.084   4.305
98227W        W69953   3.887  19.516  11.273
98228W        W69954  21.637  29.898  11.586
98229W        W69955  43.991   9.330   2.283
98230W        W69956  43.405  41.948   1.076
98231W        W69957  42.301  31.510  11.508
98232W        W69958  27.226   9.297   2.303
98233W        W69959  31.457   5.263   4.160
98234W        W69960  34.152   8.479   3.037
98235W        W69961  13.701  43.522   3.965
98236W        W69962  41.761   0.808  13.969
98237W        W69963  40.137   1.086  11.210
98238W        W69964  34.684  20.512   0.969
98239W        W69965  18.554  34.182  12.196
98240W        W69966  35.225   7.260  13.533
98241W        W69967   9.329  44.049   0.389
98242W        W69968  29.195   2.000  10.474
98243W        W69969  31.855  34.691   3.708
98244W        W69970  42.528  17.135  14.415
98245W        W69971  44.785  21.182   0.341
98246W        W69972  29.845  12.395   1.996
98247W        W69973  41.306  32.984   3.328
98248W        W69974  16.334  41.841   0.650
98249W        W69975  32.989   9.167  10.540
98250W        W69976  28.232  23.574   0.041
98251W        W69977  22.564  30.466  10.729
98252W        W69978   9.983  37.776   0.918
98253W        W69979  16.233  42.015  11.106
98254W        W69980  37.992   3.855   1.917
98255W        W69981  23.650  38.797  11.504
98256W        W69982  28.063   8.389  12.507
98257W        W69983  43.908   6.374  10.562
98258W        W69984  21.433  34.324   4.355
98259W        W69985  30.959  29.454  11.530
98260W        W69986  41.915   5.272  11.684
98261W        W69987  24.940  41.614   4.621
98262W        W69988  16.390  35.656  12.476
98263W        W69989  33.374  20.524   4.416
98264W        W69990  12.555  20.687   1.779
98265W        W69991  41.792  10.254  10.622
98266W        W69992  39.254  39.123   2.434
98267W        W69993   7.824  20.212   2.749
98268W        W69994  10.131   5.928  12.820
98269W        W69995  22.590  32.469   2.340
98270W        W69996  19.547  41.465   4.293
98271W        W69997  25.695  11.166  10.280
98272W        W69998   3.970  11.772   4.677
98273W        W69999  44.252  30.364  13.492
98274W        W70000  34.688   4.835  13.944
98275W        W70001  18.079  42.930   4.810
98276W        W70002   8.174  35.525  11.624
98277W        W70003  41.753  32.958  14.371
98278W        W70004  10.661   5.926   0.477
98279W        W70005  31.414  16.578   0.365
98280W        W70006  36.015   3.757  11.837
98281W        W70007  37.727  15.243  13.760
98282W        W70008  16.073  12.826  14.372
98283W        W70009  24.026  37.134  13.606
98284W        W70010  35.605  14.042  12.917
98285W        W70011  22.109  41.306  10.647
98286W        W70012  28.163  17.120   4.546
98287W        W70013  27.914  25.042  12.147
98288W        W70014   7.951  34.290  14.961
98289W        W70015  33.635  13.575   4.144
98290W        W70016  31.876   0.248  10.652
98291W        W70017  19.312  16.020   2.925
98292W        W70018   0.752  30.687  11.182
98293W        W70019  29.756  24.486   3.260
98294W        W70020  31.062   2.800  11.539
98295W        W70021  26.771   0.359  10.210
98296W        W70022   1.235  23.726   3.175
98297W        W70023  38.954  43.797   2.318
98298W        W70024  28.227  35.649  11.097
98299W        W70025  44.656   9.187   4.686
98300W        W70026  10.197   1.739  11.548
98301W        W70027  31.909  20.641  12.023
98302W        W70028  30.934  37.437   0.218
98303W        W70029  12.906  33.514  14.333
98304W        W70030  10.573   9.131  13.034
98305W        W70031  21.732  20.825   1.844
98306W        W70032  23.428  24.114  10.965
98307W        W70033  22.156   7.031   4.034
98308W        W70034  43.396  37.659   2.650
98309W        W70035  36.510  22.761  12.815
98310W        W70036  17.988   1.049  10.776
98311W        W70037  36.428  26.996  13.032
98312W        W70038   4.824  38.842  11.685
98313W        W70039  32.787   4.430  13.989
98314W        W70040  33.470  10.069  14.841
98315W        W70041  44.439  44.638  11.073
98316W        W70042  11.338  32.006   2.245
98317W        W70043  14.106  22.392  12.394
98318W        W70044  30.088  26.634  13.832
98319W        W70045  15.049  11.822  13.369
98320W        W70046  41.052  24.532  12.569
98321W        W70047  17.903  31.712   2.792
98322W        W70048  39.449   5.729  10.636
98323W        W70049   3.809   8.418  11.212
98324W        W70050   5.076  17.728  11.416
98325W        W70051  11.686  13.343  12.368
98326W        W70052   4.874  23.504  14.348
98327W        W70053  24.688  22.470  12.570
98328W        W70054  17.503  32.466   2.383
98329W        W70055  37.359  43.180  14.912
98330W        W70056   2.330   9.124   2.789
98331W        W70057  11.119  24.257   3.829
98332W        W70058  20.759   6.964   3.333
98333W        W70059  23.115  42.149  11.622
98334W        W70060  17.878  40.273  12.886
98335W        W70061  18.319  19.547  14.265
98336W        W70062  20.563   6.391   1.988
98337W        W70063  41.110  16.132  12.541
98338W        W70064  32.099  22.266  13.907
98339W        W70065  37.457   7.129   0.518
98340W        W70066  35.465   4.426  12.864
98341W        W70067  24.253  13.299  13.942
98342W        W70068  19.658   0.801  11.976
98343W        W70069  24.590  41.633   1.670
98344W        W70070   7.747  16.865  13.357
98345W        W70071  43.170   8.947  14.469
98346W        W70072  26.752   1.028   4.959
98347W        W70073  17.331   2.194   0.392
98348W        W70074  13.683  23.746   3.145
98349W        W70075  10.129   7.855   1.309
98350W        W70076  21.938  27.669   3.407
98351W        W70077  34.721  35.415  12.010
98352W        W70078   5.860  19.948  10.821
98353W        W70079  33.847  26.684  14.079
98354W        W70080  12.370  39.476   2.694
98355W        W70081  36.583  16.492   1.377
98356W        W70082  18.543  15.082   0.455
98357W        W70083   8.617  44.808   1.874
98358W        W70084  14.161   8.548   1.488
98359W        W70085  23.022  23.111  12.893
98360W        W70086  28.489  38.941  13.047
98361W        W70087  39.803   6.317  12.185
98362W        W70088  38.957  43.413   4.627
98363W        W70089  28.914  40.914   4.210
98364W        W70090  23.170  16.619   4.570
98365W        W70091   8.588  15.721  10.666
98366W        W70092  31.184  23.105   3.889
98367W        W70093  41.205   6.708   0.828
98368W        W70094   2.835  37.126   0.004
98369W        W70095  33.923  17.340  10.987
98370W        W70096  37.897  33.947   0.957
98371W        W70097  43.337  20.630   0.090
98372W        W70098  39.409  34.090   0.041
98373W        W70099  14.728  25.032  14.537
98374W        W70100   5.530   3.334   1.274
98375W        W70101  13.165  19.272  14.480
98376W        W70102  23.237  43.330  14.857
98377W        W70103  19.618  43.533   0.935
98378W        W70104   7.806   5.931   2.752
98379W        W70105   3.900   7.706  10.511
98380W        W70106   4.354  13.840   9.754
98381W        W70107   0.836   6.333   4.054
98382W        W70108  43.865   5.316  13.494
98383W        W70109  22.963   1.404  11.986
98384W        W70110   7.131  37.063  14.350
98385W        W70111  30.132  33.468  14.436
98386W        W70112  15.614   1.491  14.420
98387W        W70113   3.739  16.145  10.385
98388W        W70114   2.215  40.382  12.373
98389W        W70115  44.737  28.782   1.667
98390W        W70116  27.920  43.176  10.104
98391W        W70117  21.707  24.805  10.152
98392W        W70118   5.663  16.334   3.435
98393W        W70119  40.237  18.256  11.323
98394W        W70120  30.347   2.410   3.242
98395W        W70121   3.849   7.168  13.308
98396W        W70122  43.508  24.813  12.799
98397W        W70123  21.634  34.223  11.142
98398W        W70124  40.357  17.566  14.336
98399W        W70125  24.250  38.640  11.651
98400W        W70126   2.441  20.119   0.748
98401W        W70127  29.940   4.194   4.057
98402W        W70128   4.375  11.579  14.509
98403W        W70129   6.284  42.539  12.982
98404W        W70130   6.301  16.259  14.745
98405W        W70131  42.062  27.207   1.759
98406W        W70132   5.783  10.271   1.619
98407W        W70133   5.435   0.849  13.223
98408W        W70134   8.474   2.839   0.285
98409W        W70135  36.352  15.630   0.996
98410W        W70136   8.835  25.627  10.283
98411W        W70137  14.640   8.638   1.693
98412W        W70138  42.146   9.021  11.740
98413W        W70139  32.955  40.919   0.206
98414W        W70140  13.791  42.356  12.062
98415W        W70141  19.458  30.929   4.464
98416W        W70142  16.639  19.680  13.301
98417W        W70143   7.353  13.979  14.052
98418W        W70144   9.226   6.545  11.139
98419W        W70145  40.032  38.344  13.304
98420W        W70146  44.753  20.020   3.662
98421W        W70147  11.662  30.192   5.038
98422W        W70148  15.217  16.341   2.655
98423W        W70149   7.400  34.341  13.006
98424W        W70150  15.623  27.934  10.707
98425W        W70151  20.302   7.765   1.756
98426W        W70152  30.070  34.443  12.797
98427W        W70153  34.992  33.816   0.315
98428W        W70154   6.187  24.100  10.979
98429W        W70155  13.860  25.603   4.833
98430W        W70156   6.738  39.888  12.907
98431W        W70157  37.629   3.733  14.205
98432W        W70158  27.591   4.334  12.430
98433W        W70159  15.777   0.186  12.070
98434W        W70160  44.700  10.872  10.899
98435W        W70161  13.833  22.126  11.455
98436W        W70162  24.740  24.098  14.497
98437W        W70163   5.689  12.379   1.039
98438W        W70164  33.427  20.436  11.041
98439W        W70165   3.266  28.888  10.555
98440W        W70166  10.855  22.572  13.805
98441W        W70167  40.775  15.333   0.748
98442W        W70168  35.484  44.103   2.547
98443W        W70169  30.749  27.582  12.712
98444W        W70170  38.225  41.224  11.113
98445W        W70171  19.555  12.672   0.954
98446W        W70172  10.581  10.790   3.424
98447W        W70173  23.975  32.935  14.268
98448W        W70174  13.971  36.951   3.169
98449W        W70175  14.263  37.905   1.926
98450W        W70176  20.720  41.933   1.765
98451W        W70177  12.111   1.360   0.253
98452W        W70178  38.337   9.002  11.850
98453W        W70179  44.568  22.234  13.008
98454W        W70180  42.866  40.068   1.489
98455W        W70181  31.564  21.338  10.926
98456W        W70182  21.676  44.766   0.840
98457W        W70183  35.431  18.521  13.981
98458W        W70184  20.583  24.541   4.294
98459W        W70185   9.341  43.961   3.821
98460W        W70186  43.526  25.772   2.695
98461W        W70187  43.073  20.321  11.169
98462W        W70188   8.531  13.229   0.835
98463W        W70189  21.062  12.232   3.304
98464W        W70190  33.560   4.888  11.678
98465W        W70191   8.255  10.772  11.084
98466W        W70192   2.938  28.634  12.606
98467W        W70193   0.698  25.950   3.175
98468W        W70194  26.493  34.147   1.123
98469W        W70195  11.051  40.884  12.223
98470W        W70196   5.257  21.133   4.517
98471W        W70197   4.305  35.133  11.504
98472W        W70198  26.460  35.602   0.328
98473W        W70199   6.616  15.375   4.588
98474W        W70200  40.881  14.524   2.308
98475W        W70201  18.493  27.018   1.060
98476W        W70202  42.041  30.658  13.714
98477W        W70203  10.504  44.359   3.663
98478W        W70204   8.188  22.723  14.862
98479W        W70205  13.441  28.934   4.636
98480W        W70206  13.801  40.322  12.751
98481W        W70207  10.779   2.274  12.621
98482W        W70208  35.336  43.565   2.784
98483W        W70209  33.628   5.004  13.087
98484W        W70210  10.928  18.749   2.197
98485W        W70211  27.518  32.896  12.414
98486W        W70212  42.439   0.161   3.065
98487W        W70213  40.828  11.468  12.349
98488W        W70214  36.383  40.556  12.035
98489W        W70215  12.435  40.307  14.495
98490W        W70216   2.214   1.460  11.046
98491W        W70217  36.622   6.710  10.459
98492W        W70218  12.258  41.856  10.383
98493W        W70219   2.290  28.668  12.374
98494W        W70220  34.307  13.270   4.576
98495W        W70221  27.176  14.302  14.308
98496W        W70222  18.583  34.539  11.228
98497W        W70223  40.611  42.551  10.778
98498W        W70224  43.402  12.318  12.555
98499W        W70225  19.193  11.807   4.269
98500W        W70226  28.657  22.638  10.616
98501W        W70227   5.716  42.380  11.516
98502W        W70228   8.865   5.531   0.239
98503W        W70229  35.551  40.185  10.664
98504W        W70230  27.970  10.272   1.458
98505W        W70231  30.527  21.131   0.666
98506W        W70232  24.998   7.713   4.535
98507W        W70233  36.098  10.402   2.437
98508W        W70234  27.048   7.682  12.468
98509W        W70235   9.895  35.573  14.080
98510W        W70236   0.476  43.852   4.678
98511W        W70237  13.798  33.468   1.313
98512W        W70238  29.536  43.054  13.854
98513W        W70239  37.304  15.673   0.407
98514W        W70240   5.479  30.537   0.308
98515W        W70241  41.537  24.539   4.673
98516W        W70242  10.320   1.187   1.964
98517W        W70243  20.272  12.196   4.208
98518W        W70244  24.780   1.250   4.243
98519W        W70245  19.325  33.882  11.491
98520W        W70246  40.279  42.377   0.531
98521W        W70247  23.214  14.185  11.651
98522W        W70248  31.908   6.198  10.355
98523W        W70249   2.353  31.526   0.768
98524W        W70250  44.349   1.352  13.534
98525W        W70251  39.898  16.514   4.537
98526W        W70252  18.278  39.806  13.340
98527W        W70253  26.715  35.572   4.306
98528W        W70254  38.858  36.090  12.087
98529W        W70255  35.937   9.963  13.351
98530W        W70256  32.090  39.919  11.563
98531W        W70257   7.728   8.207   3.371
98532W        W70258  17.598   1.947  13.361
98533W        W70259   4.812  22.756  12.983
98534W        W70260   7.178  10.204   1.412
98535W        W70261  38.067  32.989   2.742
98536W        W70262  23.209   1.908   3.633
98537W        W70263  14.078  17.985  14.869
98538W        W70264  35.556  15.839   0.454
98539W        W70265  26.989  34.797  11.530
98540W        W70266  31.598  31.173  13.187
98541W        W70267   5.907  34.525   0.993
98542W        W70268   4.149   0.466   1.908
98543W        W70269  19.987  35.326  12.477
98544W        W70270   2.586   7.714   2.745
98545W        W70271  15.213  35.476   3.597
98546W        W70272  21.441  28.438   1.481
98547W        W70273   2.923  21.602   2.158
98548W        W70274  41.772  35.900  11.512
98549W        W70275  44.791  24.680   5.138
98550W        W70276   8.746  22.247   3.656
98551W        W70277  12.188   7.057   4.712
98552W        W70278   8.271   3.712   4.773
98553W        W70279  32.519  27.068   4.928
98554W        W70280  34.812  30.388   3.622
98555W        W70281  18.546   4.910  13.067
98556W        W70282   0.469  10.274   4.116
98557W        W70283   2.723  18.006   3.187
98558W        W70284   1.180  28.235   3.661
98559W        W70285   0.532  29.061  13.466
98560W        W70286   7.217  37.349   3.365
98561W        W70287  13.502   1.974   3.607
98562W        W70288   8.222   8.644  10.483
98563W        W70289  23.929  28.415  12.964
98564W        W70290  36.815  18.084  12.939
98565W        W70291  41.951  39.577   1.495
98566W        W70292  10.384   0.716  10.831
98567W        W70293  44.525  19.478   1.694
98568W        W70294  10.838  30.533   1.898
98569W        W70295  39.728   2.388  12.541
98570W        W70296  20.585  16.615   0.989
98571W        W70297   6.449   9.954   4.147
98572W        W70298  32.554  17.192  13.631
98573W        W70299  42.184  21.995   2.175
98574W        W70300  39.084  41.012  14.309
98575W        W70301  40.076   5.399  11.215
98576W        W70302  16.265  25.590  13.980
98577W        W70303  23.515   0.757   1.392
98578W        W70304   4.870  31.067   2.351
98579W        W70305  16.497  16.118  12.798
98580W        W70306  26.506   3.483  11.664
98581W        W70307  21.689   7.396   2.193
98582W        W70308   7.808   0.268   0.225
98583W        W70309  17.783  22.053  11.913
98584W        W70310   2.961  34.992   2.756
98585W        W70311  15.194  26.441  11.499
98586W        W70312   6.246  27.521   1.283
98587W        W70313  38.386   0.379   2.855
98588W        W70314  30.940  10.268   5.346
98589W        W70315  10.743  21.971  10.718
98590W        W70316  14.352  23.186  12.065
98591W        W70317  14.222  20.964  13.210
98592W        W70318  27.538  40.821   0.109
98593W        W70319  41.801  27.187  10.684
98594W        W70320  29.892  29.062   4.558
98595W        W70321  24.239  31.630  14.780
98596W        W70322  15.804  39.994   0.930
98597W        W70323   8.728  12.673  11.226
98598W        W70324   4.046  39.280  12.200
98599W        W70325   5.682  24.369   2.316
98600W        W70326  39.547   6.845   0.388
98601W        W70327  31.683   1.350  12.861
98602W        W70328  16.252  12.140  12.278
98603W        W70329  32.684  36.954   0.852
98604W        W70330   4.732   8.835  14.096
98605W        W70331  22.957  34.976   4.893
98606W        W70332   5.167  24.997  14.758
98607W        W70333  34.598  21.563   4.772
98608W        W70334  27.504  18.528   0.927
98609W        W70335   1.354   9.759  11.508
98610W        W70336  42.046  10.435  11.480
98611W        W70337   7.102  32.917  11.891
98612W        W70338   8.377  13.025  10.635
98613W        W70339  37.059  29.059  12.615
98614W        W70340  17.624  34.384   3.598
98615W        W70341  41.237  26.167  12.218
98616W        W70342  42.587  10.821   3.669
98617W        W70343  35.480  43.378  10.918
98618W        W70344  43.042   7.572   2.695
98619W        W70345  13.091   7.551  13.004
98620W        W70346  31.563  16.139  12.800
98621W        W70347   1.427   3.027   0.316
98622W        W70348  14.397   0.902   2.903
98623W        W70349  25.052   7.657   5.030
98624W        W70350  26.144  12.713  14.399
98625W        W70351  39.803  41.398  11.136
98626W        W70352   0.018   4.415   2.736
98627W        W70353  18.258  40.926  10.505
98628W        W70354  17.339  29.115  11.571
98629W        W70355  33.337  26.633   4.056
98630W        W70356  40.093  14.701   1.855
98631W        W70357  28.912  38.453  14.575
98632W        W70358  27.888  34.985  14.280
98633W        W70359  27.205  35.306   4.250
98634W        W70360   2.852   3.316   3.220
98635W        W70361  37.472  25.605   4.718
98636W        W70362  25.209   8.321   4.434
98637W        W70363  35.392  26.480   1.011
98638W        W70364  10.368  30.961  11.160
98639W        W70365  26.490  23.042  11.139
98640W        W70366  29.622  38.974   4.661
98641W        W70367  32.010  22.460   4.655
98642W        W70368  12.163  44.716  11.153
98643W        W70369  11.181  42.008   0.868
98644W        W70370  29.745   9.683  14.188
98645W        W70371  39.790   4.382   1.756
98646W        W70372  42.938  11.144  11.921
98647W        W70373  15.068  16.224   1.737
98648W        W70374  37.119  37.397   1.502
98649W        W70375  22.001  26.815  14.966
98650W        W70376  16.283  25.984   0.901
98651W        W70377   4.603  28.700  10.637
98652W        W70378  41.946  41.792  12.888
98653W        W70379  39.818  30.623  13.559
98654W        W70380  27.209  32.851   1.353
98655W        W70381  40.926  29.115   0.398
98656W        W70382  15.693  21.177   3.823
98657W        W70383  24.126  43.020  13.998
98658W        W70384  14.716   6.249   1.345
98659W        W70385  29.073   3.799  10.687
98660W        W70386  39.485  36.758  12.572
98661W        W70387   2.018  14.998   4.477
98662W        W70388   3.520  23.777  11.706
98663W        W70389  27.247  10.477  11.458
98664W        W70390   8.730   0.497   3.207
98665W        W70391  21.102   5.891  13.926
98666W        W70392  21.662  37.590  10.961
98667W        W70393  22.115  37.343  11.461
98668W        W70394  20.769  36.985   4.233
98669W        W70395  23.816  10.347  13.481
98670W        W70396  17.163  26.260  14.892
98671W        W70397   0.499  19.195   4.884
98672W        W70398  14.461  20.685   0.934
98673W        W70399  26.879   8.983   3.188
98674W        W70400  32.675  21.492   1.251
98675W        W70401   2.471  25.595   1.705
98676W        W70402  16.258  32.555   4.618
98677W        W70403   5.451  24.182  11.631
98678W        W70404  10.479  22.759  10.667
98679W        W70405  43.315   5.195   1.823
98680W        W70406  44.961   5.719  12.422
98681W        W70407  12.946   5.268  12.890
98682W        W70408  28.967  19.148  14.923
98683W        W70409   9.121  14.188   2.620
98684W        W70410  23.263  37.833  10.692
98685W        W70411  14.214  40.379  12.354
98686W        W70412  31.025  33.084   1.769
98687W        W70413  44.747   3.030  10.854
98688W        W70414  18.035   5.551   2.183
98689W        W70415  42.511  31.491   4.864
98690W        W70416  33.553   2.258   2.711
98691W        W70417  27.873  12.958   4.187
98692W        W70418  11.368  31.488  13.583
98693W        W70419  29.532  32.976   4.683
98694W        W70420  19.283   7.535   0.339
98695W        W70421   7.751  15.570   1.901
98696W        W70422  33.854  15.464  10.753
98697W        W70423  27.021  18.655  10.755
98698W        W70424  33.675  28.934  14.460
98699W        W70425  25.016  18.085   4.277
98700W        W70426  34.123  16.926   3.245
98701W        W70427  14.302  15.331  14.377
98702W        W70428   1.952  21.090  13.389
98703W        W70429   2.083  37.380   9.642
98704W        W70430  22.107  23.767  12.472
98705W        W70431  20.649  20.994  11.713
98706W        W70432  40.299  33.674   0.977
98707W        W70433  35.481  18.773  12.919
98708W        W70434  34.628  31.440  12.850
98709W        W70435  42.401  43.017  11.919
98710W        W70436  42.312  34.352   4.110
98711W        W70437  36.764  41.934   2.713
98712W        W70438  20.459  35.233  11.146
98713W        W70439  14.041  11.893   1.319
98714W        W70440  42.862   1.968  10.479
98715W        W70441  18.647   0.397  14.382
98716W        W70442  15.277  33.386  10.449
98717W        W70443  13.760  39.939   0.007
98718W        W70444  27.698  11.682   1.687
98719W        W70445  29.766   3.351   1.131
98720W        W70446   3.435  10.675  11.272
98721W        W70447   4.376  30.135   3.803
98722W        W70448   8.385  13.367   2.178
98723W        W70449  31.525  39.760   3.082
98724W        W70450  13.886  22.315   2.132
98725W        W70451  34.132  32.347  12.456
98726W        W70452  11.630  21.012  10.137
98727W        W70453   9.910   1.445  11.238
98728W        W70454  14.574  14.534   4.477
98729W        W70455  19.805  36.780  14.610
98730W        W70456  29.357  27.600  12.094
98731W        W70457  19.208  42.860  12.349
98732W        W70458   7.237  19.245  13.952
98733W        W70459  32.670   5.000  11.038
98734W        W70460  25.242  17.279  10.493
98735W        W70461  31.921   8.433   0.775
98736W        W70462  27.243  11.884   1.819
98737W        W70463  15.170  20.932   4.106
98738W        W70464   4.747  33.156  11.881
98739W        W70465  43.279  12.428   1.771
98740W        W70466  43.757  28.449   3.912
98741W        W70467  26.632  30.404  12.536
98742W        W70468  24.238  33.622   1.506
98743W        W70469  18.190  31.829  13.466
98744W        W70470  13.066   6.847  13.637
98745W        W70471   8.609  18.942  14.898
98746W        W70472  41.145   6.897  13.289
98747W        W70473  29.734  19.091   0.783
98748W        W70474  21.592   1.989   5.115
98749W        W70475   0.591  10.812  14.221
98750W        W70476   1.001  20.193   1.811
98751W        W70477  31.414  41.155   1.766
98752W        W70478   9.185   0.730   3.220
98753W        W70479  16.843  13.085   3.187
98754W        W70480  21.024  31.161  12.894
98755W        W70481  29.536   6.282   5.080
98756W        W70482  10.762  24.231   9.942
98757W        W70483  13.388  21.948   1.341
98758W        W70484  31.286  13.865  10.358
98759W        W70485  37.109  44.371  14.403
98760W        W70486  14.345  35.545  10.621
98761W        W70487  16.635  39.572   4.779
98762W        W70488  34.483  18.064  12.113
98763W        W70489  22.206  35.464   1.542
98764W        W70490  35.527  28.987  11.073
98765W        W70491  26.421  24.659  14.987
98766W        W70492  36.790  12.356   2.893
98767W        W70493  23.090  30.069  14.819
98768W        W70494  31.649  43.360   4.724
98769W        W70495   3.166  26.562  12.084
98770W        W70496  14.561  20.027  11.902
98771W        W70497  10.730  31.060   3.655
98772W        W70498  23.166   0.880  12.005
98773W        W70499  26.632  36.361   1.473
98774W        W70500  35.499  28.379  12.112
98775W        W70501  36.656  44.751   3.195
98776W        W70502  42.430   8.433  11.149
98777W        W70503  28.867  25.299   1.258
98778W        W70504  17.530  27.873   4.152
98779W        W70505  31.461  41.637   5.576
98780W        W70506  26.660  19.014   2.133
98781W        W70507   7.936  17.261  14.351
98782W        W70508  15.594  20.979  14.411
98783W        W70509   8.360  32.660   1.258
98784W        W70510  44.608   8.715  12.960
98785W        W70511  14.883   8.829  10.808
98786W        W70512  11.650   5.769  13.106
98787W        W70513  32.992  13.314   3.328
98788W        W70514  44.799  34.317   3.778
98789W        W70515  40.357   0.390  10.873
98790W        W70516  10.595  39.999  11.168
98791W        W70517  13.123  12.812   1.416
98792W        W70518  34.528  34.467   1.479
98793W        W70519  24.203  23.425  14.799
98794W        W70520  25.973  26.237  10.932
98795W        W70521  30.768  26.658   2.454
98796W        W70522  16.098  39.302   1.405
98797W        W70523   4.809  33.049   3.362
98798W        W70524   8.319  35.442  10.367
98799W        W70525  35.044   8.215  14.394
98800W        W70526  19.618  16.135   0.400
98801W        W70527  22.064  17.000  14.219
98802W        W70528  27.112  19.642   3.644
98803W        W70529  21.192  42.825  13.072
98804W        W70530   4.283   6.758   2.311
98805W        W70531  30.014  10.801  12.062
98806W        W70532   2.493  27.660  12.401
98807W        W70533  27.154  38.791   9.841
98808W        W70534  28.619  30.570  11.293
98809W        W70535  39.506   2.459   2.782
98810W        W70536  11.218  41.157  12.647
98811W        W70537  24.278  10.473  14.495
98812W        W70538  36.424  32.032   3.235
98813W        W70539  13.704   3.761  12.091
98814W        W70540   5.660  30.393  14.248
98815W        W70541  10.850  41.798   4.196
98816W        W70542  20.612   6.429   5.057
98817W        W70543  11.039  21.602   1.356
98818W        W70544   5.670  41.464   4.594
98819W        W70545  44.013  22.155  13.986
98820W        W70546  25.632  42.714   3.879
98821W        W70547  41.030  38.066  10.521
98822W        W70548  20.174  39.474   4.797
98823W        W70549  17.403   9.338   3.189
98824W        W70550   7.594  15.203  11.156
98825W        W70551  35.508  41.758  11.976
98826W        W70552  18.593  30.087  11.439
98827W        W70553  35.384  39.337   3.337
98828W        W70554   3.864  40.331   4.634
98829W        W70555   7.869  27.501   3.719
98830W        W70556  38.309  29.105   3.120
98831W        W70557  40.566  27.478  14.460
98832W        W70558  26.506  34.741  13.093
98833W        W70559  23.486  42.711   2.597
98834W        W70560   3.821  10.162  12.948
98835W        W70561  35.943   5.464   4.572
98836W        W70562  29.237  43.950   1.241
98837W        W70563  13.216  29.570   0.930
98838W        W70564  13.338  31.031  12.797
98839W        W70565  44.948  33.318  12.493
98840W        W70566  38.951   6.479   2.752
98841W        W70567  37.597  17.881  11.218
98842W        W70568  24.539   2.495   4.749
98843W        W70569  33.594  44.123   4.184
98844W        W70570  24.017   1.446   3.848
98845W        W70571   8.333  34.841   2.203
98846W        W70572   7.624  17.144   1.876
98847W        W70573   1.463  20.096  13.481
98848W        W70574   5.789  15.162  12.103
98849W        W70575  35.343  26.647  10.596
98850W        W70576   3.218  17.841   2.331
98851W        W70577  25.599  21.133  13.174
98852W        W70578  28.939  35.315  11.673
98853W        W70579   7.279  21.284   0.761
98854W        W70580   1.287  29.360   0.739
98855W        W70581   5.560  23.617   3.007
98856W        W70582   8.282  26.504   0.051
98857W        W70583   2.449   1.257  14.911
98858W        W70584  31.684  40.084   0.824
98859W        W70585  40.581   0.513   0.541
98860W        W70586  11.312  42.896  13.407
98861W        W70587  17.350  38.788   4.243
98862W        W70588  41.267   7.311  10.442
98863W        W70589  29.108  37.776  12.081
98864W        W70590  35.504   0.833  13.441
98865W        W70591  44.779   1.532  14.286
98866W        W70592   4.860  28.719   4.642
98867W        W70593   3.734   7.854   0.822
98868W        W70594  19.340  26.455  12.358
98869W        W70595  15.551  26.950  13.518
98870W        W70596  43.922   4.292   3.585
98871W        W70597   3.445   7.332   0.643
98872W        W70598  12.318   8.616  14.930
98873W        W70599   9.623   2.161  14.865
98874W        W70600  27.976  12.933   1.216
98875W        W70601  13.114  41.710  14.812
98876W        W70602   2.634  42.526  11.473
98877W        W70603  35.062  34.040   4.894
98878W        W70604  25.901  44.787   0.817
98879W        W70605  41.010   8.478   1.756
98880W        W70606   9.215  21.657   4.089
98881W        W70607  16.585  20.036  13.729
98882W        W70608   2.445  20.517   1.072
98883W        W70609  33.108  44.827  10.723
98884W        W70610  11.589  27.087   1.359
98885W        W70611  24.787  13.529  12.477
98886W        W70612  21.608  27.075   0.792
98887W        W70613   0.716  25.510   0.281
98888W        W70614   1.993  28.442  10.677
98889W        W70615  29.924  24.470  12.911
98890W        W70616  28.568  17.708   4.170
98891W        W70617  18.800  32.885  14.819
98892W        W70618   8.878  16.654  12.451
98893W        W70619  27.204  39.546   1.414
98894W        W70620  31.847  11.220  13.873
98895W        W70621  35.993  39.853   3.853
98896W        W70622  18.184  11.337  11.641
98897W        W70623  35.132   5.571   4.595
98898W        W70624   4.363   5.832  14.071
98899W        W70625  30.058  37.990  10.794
98900W        W70626  34.267  22.684  12.839
98901W        W70627  22.282   1.988  11.104
98902W        W70628  42.841  12.265  12.338
98903W        W70629   3.503  44.513  14.779
98904W        W70630  26.332  16.719  11.062
98905W        W70631  10.446  37.344   1.322
98906W        W70632  42.859  43.038  12.159
98907W        W70633   0.994  22.817  11.137
98908W        W70634   5.419  30.983  13.083
98909W        W70635  13.411  28.950  12.111
98910W        W70636  10.780  29.384  13.865
98911W        W70637   8.476  13.250   3.226
98912W        W70638   8.462   0.995  13.041
98913W        W70639  42.976  20.235   2.015
98914W        W70640   0.612   6.226  13.223
98915W        W70641   2.828  43.303   4.556
98916W        W70642  35.793  12.692  14.540
98917W        W70643  41.829  21.799  12.534
98918W        W70644  40.251   1.899  13.005
98919W        W70645   6.288  26.390  14.761
98920W        W70646  44.013  23.378  13.036
98921W        W70647   9.139  22.575   0.035
98922W        W70648  20.538  18.727  12.024
98923W        W70649  30.107  42.223  13.042
98924W        W70650  31.940  40.798  13.387
98925W        W70651  14.786   4.863  13.134
98926W        W70652   4.162  11.896   4.213
98927W        W70653   7.342   2.798   4.204
98928W        W70654  18.663  16.104  13.311
98929W        W70655  12.825  42.933   0.274
98930W        W70656  37.656  23.675   1.388
98931W        W70657   9.168  44.971  14.301
98932W        W70658  23.430  28.605  12.082
98933W        W70659   6.351  37.305   4.113
98934W        W70660  44.257  15.102   4.207
98935W        W70661  11.400   8.480  11.134
98936W        W70662  13.065  28.599  11.178
98937W        W70663  20.808  17.544   0.705
98938W        W70664  28.051  19.462  11.072
98939W        W70665  27.536   2.751  13.068
98940W        W70666  16.569   3.217   3.366
98941W        W70667   9.838  37.394   0.049
98942W        W70668   3.882   0.727   2.265
98943W        W70669  23.465  32.400   3.227
98944W        W70670  16.151  12.118   0.438
98945W        W70671  26.401   5.907   1.909
98946W        W70672  12.349   9.701  10.732
98947W        W70673  11.589  37.455   0.277
98948W        W70674  12.020  26.397   0.291
98949W        W70675   7.576  21.622  13.581
98950W        W70676  21.286  41.683  13.865
98951W        W70677  37.816  32.925   3.810
98952W        W70678  26.547  22.064  12.062
98953W        W70679   6.808  29.074   0.841
98954W        W70680  29.988  19.648   3.969
98955W        W70681   9.425  26.366  14.899
98956W        W70682  41.904  31.530   3.698
98957W        W70683  35.907  37.259  11.638
98958W        W70684  39.399  32.312  13.960
98959W        W70685   2.736  32.373   1.610
98960W        W70686  22.326   3.487  11.604
98961W        W70687  26.908  22.186  14.753
98962W        W70688  23.598  27.740   4.250
98963W        W70689  26.988   0.444   3.350
98964W        W70690  30.879  16.866   1.387
98965W        W70691  28.949  10.699  13.473
98966W        W70692  13.647   6.308  10.768
98967W        W70693   8.710  36.124  10.070
98968W        W70694  33.617   2.996   4.581
98969W        W70695   3.831  12.658   4.257
98970W        W70696  31.348  43.390   1.977
98971W        W70697   4.844  44.407   1.266
98972W        W70698  23.752  41.763  13.060
98973W        W70699  43.221  16.558  13.727
98974W        W70700  37.595  12.966   5.228
98975W        W70701  36.959   2.015   1.226
98976W        W70702  30.158   2.669  14.305
98977W        W70703  21.460  25.922  11.991
98978W        W70704   3.120  15.355  14.246
98979W        W70705  28.944  21.275   1.816
98980W        W70706  42.905  25.057   1.788
98981W        W70707  31.896  40.320   1.893
98982W        W70708  16.798  30.388  13.406
98983W        W70709  23.894  24.965   2.360
98984W        W70710  34.075  21.512   4.735
98985W        W70711  31.512  20.469  13.135
98986W        W70712  36.375  36.915   0.198
98987W        W70713  37.558  32.335   0.701
98988W        W70714  12.350  25.024  14.593
98989W        W70715  11.127  21.169  13.462
98990W        W70716   6.756  36.151  14.793
98991W        W70717  23.876  15.644  11.899
98992W        W70718   4.649  18.676   3.927
98993W        W70719  28.141   3.264  13.541
98994W        W70720  10.723  33.071  10.850
98995W        W70721  38.408  31.617   1.360
98996W        W70722  37.382   4.893  12.939
98997W        W70723  36.411  12.393   3.851
98998W        W70724  32.141  26.788   0.830
98999W        W70725  13.525  31.123   4.322
99000W        W70726  34.586  27.173  13.244
99001W        W70727   5.998  13.552  10.589
99002W        W70728  38.412  18.153   4.633
99003W        W70729  41.858  33.933  10.673
99004W        W70730   9.453  28.214  11.102
99005W        W70731  35.033  25.477   3.817
99006W        W70732  42.457   2.273   2.327
99007W        W70733  18.219   8.072   0.341
99008W        W70734  32.204  43.379  13.352
99009W        W70735  23.893  34.883   0.348
99010W        W70736  16.868  15.345   1.424
99011W        W70737  17.738  37.292   0.401
99012W        W70738  20.692  16.257  13.088
99013W        W70739  36.521   4.881  14.530
99014W        W70740  42.765  13.660   2.157
99015W        W70741   4.466  31.532   3.194
99016W        W70742  41.440   9.684  14.024
99017W        W70743   9.766  20.978   0.981
99018W        W70744  20.077  29.752   4.536
99019W        W70745  12.179   4.436  10.482
99020W        W70746  31.349   5.397   2.642
99021W        W70747   3.875  22.507  13.531
99022W        W70748  33.500  23.028   0.967
99023W        W70749  29.023  40.121  14.891
99024W        W70750   0.826  28.219   4.048
99025W        W70751  28.461  38.381  14.312
99026W        W70752  21.703  12.384   1.460
99027W        W70753  31.225   8.378  14.032
99028W        W70754   3.212   5.778   1.360
99029W        W70755  27.923  25.265   2.765
99030W        W70756  14.044   6.218   4.146
99031W        W70757  27.866   9.240  14.404
99032W        W70758  40.112  34.123   3.608
99033W        W70759  37.706  21.298  11.975
99034W        W70760  10.453  20.676   5.030
99035W        W70761  35.390  24.994   5.035
99036W        W70762  40.913  22.015   3.074
99037W        W70763  29.515  17.095  11.760
99038W        W70764   1.910  22.647   3.694
99039W        W70765  33.017  41.791   3.224
99040W        W70766  40.982   0.244   0.731
99041W        W70767  13.752  10.408   2.217
99042W        W70768  24.728  20.716  14.068
99043W        W70769  28.757  41.740  14.871
99044W        W70770  24.359  36.442  11.003
99045W        W70771   3.425   7.403  11.627
99046W        W70772  36.491  14.708   2.466
99047W        W70773  13.103  44.442  14.520
99048W        W70774  24.634  34.168   3.631
99049W        W70775   7.509  24.459  14.467
99050W        W70776  25.219   1.343  12.919
99051W        W70777  16.539   9.716  11.099
99052W        W70778  35.851  17.890  12.844
99053W        W70779  29.597  23.289   3.964
99054W        W70780  19.213   7.341   2.994
99055W        W70781  41.774  22.724   2.221
99056W        W70782   6.493  22.600  11.236
99057W        W70783  11.703  28.151  14.951
99058W        W70784  18.766  11.673  14.390
99059W        W70785   0.183   4.225  13.477
99060W        W70786  28.398   9.917   3.274
99061W        W70787  28.628  36.683  11.505
99062W        W70788  39.671  43.811  11.456
99063W        W70789   7.335   9.652  14.863
99064W        W70790  19.213   1.371  10.728
99065W        W70791  22.537  44.088   0.724
99066W        W70792  36.886  39.489   2.469
99067W        W70793  25.050   1.418   3.295
99068W        W70794  35.043   1.970   0.803
99069W        W70795   2.676   3.528   1.012
99070W        W70796  13.881  38.850   3.363
99071W        W70797  30.054   3.270  14.117
99072W        W70798  19.120  39.305   4.462
99073W        W70799  34.113   8.999   2.175
99074W        W70800   5.688  13.767  11.842
99075W        W70801  20.723  25.162   3.807
99076W        W70802  34.141  23.119  13.102
99077W        W70803  28.555   1.200  13.281
99078W        W70804  26.597   0.027  12.487
99079W        W70805  41.526   2.249   1.660
99080W        W70806  43.456  25.024   3.224
99081W        W70807   4.934   2.680   2.789
99082W        W70808  28.646  13.832   0.738
99083W        W70809  44.671  40.022   3.369
99084W        W70810  40.518  23.104  12.461
99085W        W70811  25.705  16.827   2.461
99086W        W70812  12.269  11.231  11.529
99087W        W70813  13.794  20.320  11.549
99088W        W70814  24.691  21.072   4.960
99089W        W70815  36.221  11.091   3.661
99090W        W70816  18.092   2.726  12.497
99091W        W70817  37.768  25.748  10.954
99092W        W70818  38.519  14.105  10.639
99093W        W70819  39.578  30.461  14.237
99094W        W70820  31.384  43.550   0.980
99095W        W70821  20.495   4.865  14.314
99096W        W70822  14.382   1.564  14.889
99097W        W70823  23.241  35.817   3.341
99098W        W70824  26.073  35.658   0.673
99099W        W70825  17.260  10.561  11.534
99100W        W70826  27.444   6.877  13.347
99101W        W70827  20.003  22.487   1.365
99102W        W70828  13.079  11.412  13.007
99103W        W70829  18.977  28.468  13.901
99104W        W70830  30.066  17.301   0.046
99105W        W70831  27.935  41.848  12.939
99106W        W70832   8.006   4.816   2.751
99107W        W70833   8.142  18.989   3.292
99108W        W70834  33.334  44.081  13.038
99109W        W70835   1.228  22.224  10.731
99110W        W70836  25.484  36.888   0.533
99111W        W70837   9.825   5.328   0.466
99112W        W70838   2.262  29.388   1.919
99113W        W70839   8.346  16.719  10.734
99114W        W70840  10.960   0.625  12.041
99115W        W70841  10.593  38.326  12.473
99116W        W70842  19.593  23.028  11.628
99117W        W70843  27.194   7.738  10.736
99118W        W70844  42.668  25.630   4.690
99119W        W70845  24.475  15.568  14.398
99120W        W70846  22.061  26.247  10.668
99121W        W70847  35.105  12.214   2.197
99122W        W70848  25.525  14.015  12.016
99123W        W70849  43.431  39.987  12.220
99124W        W70850   0.684   2.266   3.672
99125W        W70851   0.525  23.171  12.163
99126W        W70852  40.187  14.566  10.728
99127W        W70853  42.753  18.605   5.195
99128W        W70854  24.727  24.616   1.186
99129W        W70855  11.875   6.346  14.952
99130W        W70856   1.149  25.491   1.020
99131W        W70857  19.643  30.011   2.379
99132W        W70858  10.680  29.984   4.123
99133W        W70859  15.243   4.544  14.924
99134W        W70860  42.859   5.759   0.726
99135W        W70861  17.969  41.826   2.234
99136W        W70862  22.459  27.930  11.914
99137W        W70863  16.144  32.341   2.446
99138W        W70864  36.440  16.127   3.217
99139W        W70865  44.453  29.155   4.194
99140W        W70866   1.650  29.894   1.210
99141W        W70867  31.627  30.433  13.905
99142W        W70868  18.602  31.671  14.610
99143W        W70869  20.247  30.532   3.798
99144W        W70870  24.246  21.083   1.869
99145W        W70871  13.555  24.164  11.416
99146W        W70872  27.118  15.187   4.444
99147W        W70873  17.568  44.950  13.523
99148W        W70874   4.150  37.065   4.330
99149W        W70875  14.297  11.496   4.518
99150W        W70876   3.972   6.945  14.801
99151W        W70877  33.074  35.469  13.801
99152W        W70878   2.849  42.759  11.089
99153W        W70879  42.307  27.856  10.784
99154W        W70880  16.333  40.636   5.427
99155W        W70881  27.404   6.730  11.559
99156W        W70882  41.495  37.722   2.819
99157W        W70883  10.192  12.727   3.062
99158W        W70884  20.812  33.811  14.199
99159W        W70885   1.963  31.546  14.484
99160W        W70886  32.959  19.495   2.902
99161W        W70887  29.558  35.797   2.615
99162W        W70888  25.466  30.054   0.264
99163W        W70889  15.224   8.792  12.503
99164W        W70890   8.697   2.179  14.818
99165W        W70891  31.559   7.829  13.282
99166W        W70892  34.370  17.302   0.280
99167W        W70893  43.153  40.137  13.368
99168W        W70894  20.319  28.176   3.784
99169W        W70895  23.977  30.110   1.268
99170W        W70896  42.768   3.624  12.055
99171W        W70897  38.416  21.348  10.711
99172W        W70898  23.458  42.775   1.261
99173W        W70899  26.966  19.036  11.486
99174W        W70900  40.288  28.690  12.663
99175W        W70901   4.381   9.180   4.259
99176W        W70902  19.805   8.186   4.817
99177W        W70903   1.262  38.849   3.617
99178W        W70904  20.014   9.262   3.440
99179W        W70905  12.116  12.918  13.116
99180W        W70906  21.064   4.887  11.146
99181W        W70907  44.548  10.766   4.024
99182W        W70908  20.070  27.408  13.596
99183W        W70909  31.460  23.643   1.218
99184W        W70910   9.768   1.884   3.017
99185W        W70911  15.301  44.306   3.664
99186W        W70912  11.812  26.276  12.275
99187W        W70913   7.411  44.411   2.376
99188W        W70914  11.264  36.849  13.578
99189W        W70915  12.148   6.372  14.351
99190W        W70916   1.906  10.614   1.371
99191W        W70917  19.539  10.710  14.789
99192W        W70918  19.577  32.919  13.454
99193W        W70919  18.068  33.426  11.043
99194W        W70920  34.044  35.290  12.480
99195W        W70921  28.169  30.949  11.391
99196W        W70922  11.092  21.512  12.937
99197W        W70923  11.265   4.233  12.894
99198W        W70924  22.297   6.311   5.112
99199W        W70925  10.561  23.184   1.777
99200W        W70926  15.058  44.000   1.127
99201W        W70927  35.818  33.062   3.628
99202W        W70928  37.991  38.878   0.976
99203W        W70929  37.491   6.433  12.104
99204W        W70930  34.340  40.582   2.494
99205W        W70931  13.704   3.006  13.337
99206W        W70932  12.393  36.605  11.103
99207W        W70933   6.375   8.648  12.880
99208W        W70934  36.452   3.299  13.919
99209W        W70935  38.305  30.933  12.530
99210W        W70936  32.997  13.682  11.593
99211W        W70937  17.658   6.184  12.702
99212W        W70938  35.158  15.720  10.652
99213W        W70939  25.278  27.415   1.954
99214W        W70940  41.250  19.024   1.965
99215W        W70941  28.034  24.276  11.472
99216W        W70942  26.462   2.702   0.375
99217W        W70943  18.047  14.895  11.607
99218W        W70944   7.281  15.679   4.142
99219W        W70945  12.831  11.761   3.565
99220W        W70946  34.099  22.085   4.187
99221W        W70947  22.249  12.151  13.375
99222W        W70948  14.737  18.301   4.734
99223W        W70949  22.283  33.099   1.177
99224W        W70950  38.409  12.804   0.097
99225W        W70951  27.506   3.894  10.668
99226W        W70952  37.341  34.679   0.812
99227W        W70953   9.701  18.573   3.713
99228W        W70954  18.522  28.596  12.938
99229W        W70955  36.515  29.047   2.872
99230W        W70956  41.476  29.378  11.561
99231W        W70957  35.922  35.069  11.025
99232W        W70958   1.746  13.181   1.726
99233W        W70959   9.123  39.294   3.679
99234W        W70960  35.324   8.848   3.700
99235W        W70961  11.091   7.744   1.318
99236W        W70962   6.636  32.866  12.209
99237W        W70963   6.320   0.726  13.141
99238W        W70964  31.415  28.149   0.997
99239W        W70965  16.396  43.546  11.214
99240W        W70966  26.486  12.152  10.671
99241W        W70967  24.666  28.840  14.469
99242W        W70968   3.158  39.798   4.182
99243W        W70969  44.532   0.118  11.189
99244W        W70970  26.217   6.965  10.571
99245W        W70971  41.021  25.549   0.387
99246W        W70972  26.747  37.712   3.743
99247W        W70973  34.408  12.768  12.095
99248W        W70974  13.661  10.776  14.540
99249W        W70975   4.242  38.846   4.955
99250W        W70976  34.441  18.596   0.924
99251W        W70977  32.877   1.461   3.743
99252W        W70978  42.382   2.722  14.157
99253W        W70979  42.501   4.633   3.334
99254W        W70980  10.452  12.966   3.695
99255W        W70981  44.665  44.986   4.120
99256W        W70982  15.345  23.447   1.696
99257W        W70983  27.289   9.830  14.493
99258W        W70984   4.939  15.904   4.522
99259W        W70985  44.222  12.830  13.355
99260W        W70986  23.778  34.599  13.250
99261W        W70987   1.878  43.865   2.443
99262W        W70988  31.824  21.221   9.981
99263W        W70989  24.759  19.562  12.950
99264W        W70990  29.584  39.632   2.908
99265W        W70991  19.714  18.400   2.659
99266W        W70992  40.009  26.236  12.268
99267W        W70993  15.018  33.547  11.609
99268W        W70994  36.909  20.280  14.400
99269W        W70995  23.655   9.957  12.839
99270W        W70996  42.035  28.000  13.578
99271W        W70997  35.904  33.887   2.461
99272W        W70998   2.680   2.421   2.162
99273W        W70999  14.641  30.571   3.661
99274W        W71000  35.976  15.312  10.660
99275W        W71001   0.361  18.169  13.242
99276W        W71002  35.699   2.330   1.896
99277W        W71003   4.251  22.204   1.288
99278W        W71004  33.015  44.233   2.648
99279W        W71005   0.987   0.316   4.118
99280W        W71006  22.261  23.639  13.477
99281W        W71007  10.730  44.962  11.445
99282W        W71008  40.086  23.664   4.542
99283W        W71009  17.314  32.952   2.176
99284W        W71010  37.071  35.053   2.926
99285W        W71011  25.959   1.757  13.105
99286W        W71012  14.772  31.177  14.492
99287W        W71013  31.844  12.625   4.323
99288W        W71014   1.346   0.358   3.720
99289W        W71015  12.109  24.638   4.717
99290W        W71016  34.480   1.535  13.080
99291W        W71017  24.259   2.916   1.339
99292W        W71018  14.206  14.043  12.486
99293W        W71019  13.170  13.330  14.285
99294W        W71020   3.454  16.251  14.453
99295W        W71021   0.688  35.966   1.656
99296W        W71022   0.514  20.223  14.378
99297W        W71023  24.558  39.256   3.678
99298W        W71024  43.492  11.814  12.467
99299W        W71025  14.296  41.534  13.723
99300W        W71026  38.816  16.189  10.836
99301W        W71027  30.485   2.803  14.886
99302W        W71028  14.622   1.398   2.256
99303W        W71029  19.554  20.196  11.469
99304W        W71030  14.331   0.364   4.238
99305W        W71031  28.170  28.663   0.257
99306W        W71032   0.239  17.113   0.770
99307W        W71033  22.585  24.900   4.269
99308W        W71034  28.127  18.554   0.292
99309W        W71035  28.234   3.902  14.246
99310W        W71036  34.398   6.830  11.104
99311W        W71037  44.821  10.403   3.362
99312W        W71038  30.978  30.164  10.930
99313W        W71039  28.648  43.858   0.412
99314W        W71040  34.995  41.541   4.628
99315W        W71041  37.001  41.166  12.453
99316W        W71042   7.421  19.825  12.770
99317W        W71043  13.254  15.825  13.240
99318W        W71044  30.189   7.907  12.296
99319W        W71045  23.301  31.333   2.366
99320W        W71046  38.562  22.147   1.473
99321W        W71047  14.763  24.544   1.983
99322W        W71048  34.466  39.836  14.295
99323W        W71049  13.715  13.349  13.490
99324W        W71050  33.600  43.756   2.222
99325W        W71051  25.885  19.081   2.714
99326W        W71052  24.907  37.069   4.361
99327W        W71053   7.134  29.896   1.734
99328W        W71054   2.747   3.756  13.460
99329W        W71055  22.560  35.551  13.981
99330W        W71056  42.764  23.010  14.114
99331W        W71057  12.769   2.890   1.898
99332W        W71058   1.842  35.368   2.333
99333W        W71059  24.016  35.036   4.652
99334W        W71060  18.695  15.802  11.362
99335W        W71061   1.414   6.388   3.299
99336W        W71062  28.615  39.515  14.795
99337W        W71063  41.179   4.481  13.543
99338W        W71064  14.372   4.779  12.425
99339W        W71065  43.382  31.806  14.229
99340W        W71066  32.681  10.321   2.953
99341W        W71067  44.752  44.290   4.627
99342W        W71068  31.791  37.590   0.442
99343W        W71069  30.546  20.632  11.585
99344W        W71070  40.006   8.378  12.931
99345W        W71071  44.030   5.280  12.055
99346W        W71072   1.753  18.663  14.372
99347W        W71073   1.703  20.161  12.983
99348W        W71074  32.989  28.543  12.918
99349W        W71075   1.773  11.692  12.542
99350W        W71076  42.886  42.326  11.459
99351W        W71077   1.751  13.601   1.195
99352W        W71078  37.037   4.826   4.260
99353W        W71079   7.159  21.699  14.946
99354W        W71080  24.239  24.676   0.977
99355W        W71081  15.800  15.724   9.857
99356W        W71082  23.178   6.827   1.244
99357W        W71083  27.668  11.642   3.678
99358W        W71084  12.155  39.316   3.586
99359W        W71085  35.075  18.163   3.873
99360W        W71086  18.996  32.516  11.046
99361W        W71087  16.559   1.763   3.647
99362W        W71088  21.245  36.102  13.439
99363W        W71089  37.149  27.480  14.850
99364W        W71090   4.470  18.146  12.049
99365W        W71091  21.795  37.358   1.722
99366W        W71092  33.036  10.954   2.377
99367W        W71093  30.687  14.771  14.404
99368W        W71094  18.505  31.889   2.257
99369W        W71095  17.654  44.803   3.279
99370W        W71096  37.078  36.370   2.415
99371W        W71097   0.290  35.097  11.986
99372W        W71098   4.266  42.141  13.927
99373W        W71099  43.049  44.689   4.447
99374W        W71100  32.648  26.615  14.931
99375W        W71101  37.301  27.205  11.400
99376W        W71102  28.956  38.116  13.444
99377W        W71103  33.430  13.564   3.181
99378W        W71104   6.413  42.922   4.799
99379W        W71105  35.380  41.429  13.873
99380W        W71106  10.377  31.951   1.960
99381W        W71107  29.276  29.471   1.733
99382W        W71108  19.236  41.489   4.734
99383W        W71109  33.568  42.190  14.438
99384W        W71110   0.738  20.691  10.317
99385W        W71111  35.593  11.721   3.685
99386W        W71112  12.196  26.729  11.129
99387W        W71113  30.538   8.127   4.361
99388W        W71114  25.267  27.586  14.482
99389W        W71115  29.008  26.142  10.260
99390W        W71116  24.901   4.576   2.751
99391W        W71117   0.765  19.285  14.736
99392W        W71118  15.293   2.209  11.530
99393W        W71119   7.674   6.363   1.819
99394W        W71120  34.968  44.752  11.071
99395W        W71121  16.487   2.547   2.770
99396W        W71122  38.807   2.530  12.126
99397W        W71123  36.964  10.725   0.946
99398W        W71124  11.890  44.005  13.894
99399W        W71125  16.322   6.217  12.516
99400W        W71126  15.283  19.063   1.606
99401W        W71127  29.133  18.805   1.663
99402W        W71128  11.755  36.049  11.257
99403W        W71129  15.188   8.883   0.797
99404W        W71130  20.709  40.483   2.775
99405W        W71131  36.865   6.914  14.952
99406W        W71132  16.080  40.175   5.388
99407W        W71133  35.119  20.089   1.664
99408W        W71134  17.385   0.825  12.127
99409W        W71135  15.757  32.838  13.342
99410W        W71136  23.694  19.734   2.860
99411W        W71137  36.038  12.730   1.267
99412W        W71138  22.144   0.607   3.118
99413W        W71139   1.033  41.807   5.150
99414W        W71140  43.668   5.397  11.448
99415W        W71141   4.884  26.981   1.395
99416W        W71142   7.839  14.123   1.713
99417W        W71143  26.220   1.885  13.531
99418W        W71144   8.578  31.055  12.165
99419W        W71145  20.154  25.564   3.393
99420W        W71146   0.203  33.219   3.242
99421W        W71147  10.111  19.492   3.784
99422W        W71148  40.939  28.196  10.672
99423W        W71149  40.941  13.754  10.861
99424W        W71150  28.030   6.401   2.661
99425W        W71151   6.914   1.818   2.105
99426W        W71152  28.136  27.673   2.738
99427W        W71153  16.271  29.180   2.113
99428W        W71154  41.217  11.243   1.224
99429W        W71155  27.500  43.340  10.839
99430W        W71156  32.483  25.336   4.701
99431W        W71157   0.325   7.737   4.634
99432W        W71158   8.239   5.968   4.989
99433W        W71159   5.833  21.509  14.388
99434W        W71160  28.750  36.570   4.181
99435W        W71161  25.243  38.461  14.807
99436W        W71162  17.335  18.319   9.587
99437W        W71163  36.936  19.790   2.326
99438W        W71164  40.055  18.700   0.267
99439W        W71165  18.996   3.717  13.195
99440W        W71166  34.832  35.839   0.259
99441W        W71167  20.559  41.467   3.874
99442W        W71168   3.971  39.108   0.595
99443W        W71169  38.032   7.237  14.489
99444W        W71170  30.994  17.218  10.670
99445W        W71171  11.288  42.994   0.227
99446W        W71172   5.732  25.248  12.922
99447W        W71173  19.592  17.243  13.701
99448W        W71174  32.294  21.732  12.125
99449W        W71175  30.074   0.924  12.404
99450W        W71176  12.407  32.014   0.810
99451W        W71177  25.535  34.652   1.137
99452W        W71178  15.725  31.105  11.475
99453W        W71179  12.182  24.499  12.226
99454W        W71180   1.815  16.025  12.047
99455W        W71181  26.262  43.747   1.228
99456W        W71182  33.409  15.061  13.019
99457W        W71183  29.654  10.382  11.663
99458W        W71184   7.380  33.314  12.931
99459W        W71185  17.191  17.200   2.299
99460W        W71186  30.924  40.980  11.717
99461W        W71187   1.756  20.534  14.933
99462W        W71188  30.865  20.497   4.732
99463W        W71189  35.982  19.624   2.280
99464W        W71190  32.668  19.894  14.396
99465W        W71191  10.209   5.631  11.155
99466W        W71192  37.389   7.377  12.892
99467W        W71193  35.446  41.489   1.340
99468W        W71194  39.100  35.894   4.557
99469W        W71195   7.842  32.443  12.274
99470W        W71196  30.643  41.814  12.286
99471W        W71197  38.551  20.385  11.882
99472W        W71198  43.672   4.727  14.366
99473W        W71199   4.845  28.103  10.671
99474W        W71200   2.018   3.838  14.688
99475W        W71201  38.804  17.653   2.357
99476W        W71202  36.520   0.792   0.266
99477W        W71203   9.676  27.663  11.109
99478W        W71204  21.029  36.964   3.797
99479W        W71205   9.672  37.186   4.252
99480W        W71206  23.787   3.766  13.723
99481W        W71207  42.442  12.085   3.934
99482W        W71208  28.708  33.546   2.839
99483W        W71209   1.241  26.491   4.181
99484W        W71210  40.426  27.940  14.739
99485W        W71211  17.877  31.188   4.189
99486W        W71212  39.942   2.787  14.808
99487W        W71213  39.484  17.284   4.237
99488W        W71214  13.772   6.690  12.113
99489W        W71215   7.668   3.267  14.779
99490W        W71216  18.782   5.678  14.128
99491W        W71217  12.516  23.019   4.933
99492W        W71218   7.929  35.353  14.433
99493W        W71219  19.630  40.834  14.961
99494W        W71220  42.983  38.789  10.299
99495W        W71221  29.669  41.014  13.999
99496W        W71222  12.237   0.208  10.720
99497W        W71223   3.779  41.360  13.762
99498W        W71224  33.717  40.846  14.028
99499W        W71225  13.252  20.884  14.817
99500W        W71226   0.858  26.114   2.362
99501W        W71227   8.143  37.447  13.908
99502W        W71228  36.706   8.171   3.222
99503W        W71229   0.054   0.461   2.899
99504W        W71230  30.939  42.506  12.310
99505W        W71231  27.868   6.781  10.142
99506W        W71232   7.851  21.444   4.108
99507W        W71233   0.564  39.855   1.219
99508W        W71234  38.361   3.543  12.108
99509W        W71235   1.933   5.830   4.508
99510W        W71236  35.172  29.871   1.810
99511W        W71237   3.781  23.930  10.570
99512W        W71238   2.541  41.585  14.235
99513W        W71239   9.697  40.704  11.209
99514W        W71240   0.221  27.450   4.351
99515W        W71241  25.245   0.006  14.770
99516W        W71242  37.489  39.426  13.526
99517W        W71243   2.276  29.469  14.872
99518W        W71244  12.666  33.134  11.641
99519W        W71245   1.981  27.061  11.753
99520W        W71246  18.664  24.025  12.019
99521W        W71247  33.476  15.401  13.559
99522W        W71248  28.071  27.746   3.659
99523W        W71249  29.252   3.764  13.379
99524W        W71250  13.759   0.806   3.686
99525W        W71251  21.514  10.043  13.277
99526W        W71252  26.183  21.779   0.425
99527W        W71253   0.900  23.997   2.852
99528W        W71254  13.511   4.773  13.219
99529W        W71255  35.833   3.831  13.486
99530W        W71256  43.462  16.280  12.710
99531W        W71257   2.698   2.392  13.571
99532W        W71258  42.012   9.574   2.284
99533W        W71259  31.443  39.045   1.692
99534W        W71260  40.080  14.764   2.747
99535W        W71261   6.323  25.551  10.613
99536W        W71262  30.047   5.309   3.672
99537W        W71263   3.791  30.060   2.667
99538W        W71264  18.094  10.050  10.592
99539W        W71265   9.746  21.124  10.639
99540W        W71266  24.543  31.129  12.949
99541W        W71267  24.525  13.200   4.163
99542W        W71268  28.651   7.412  11.928
99543W        W71269  24.042   2.292   4.760
99544W        W71270  36.461   4.006  11.636
99545W        W71271  29.024  42.971   0.278
99546W        W71272  44.241  43.078  12.575
99547W        W71273  10.196  24.624   0.006
99548W        W71274  40.820  38.533   0.965
99549W        W71275  33.696  22.985  12.907
99550W        W71276  25.174  37.890  10.849
99551W        W71277  25.074   4.185   3.331
99552W        W71278  40.199  24.377  12.958
99553W        W71279  22.050  10.744   4.259
99554W        W71280  43.271   3.789  11.467
99555W        W71281   2.354  10.914   4.793
99556W        W71282  21.940  26.811  10.475
99557W        W71283   9.259  25.235   4.585
99558W        W71284  40.838   6.270   4.288
99559W        W71285  29.536  19.295  12.841
99560W        W71286  31.614  23.250   3.103
99561W        W71287  25.159   1.137   0.256
99562W        W71288  18.935  14.235  14.323
99563W        W71289  13.725  31.589  12.492
99564W        W71290  34.956  28.687  10.511
99565W        W71291   5.872  25.532  11.614
99566W        W71292   0.328  25.946  10.508
99567W        W71293   6.171   2.955  13.397
99568W        W71294  22.504  34.060   2.773
99569W        W71295  41.587  23.835  14.359
99570W        W71296  20.750  18.304  14.431
99571W        W71297  13.692  14.065   1.555
99572W        W71298   7.177  21.963  13.720
99573W        W71299  42.044  22.928  12.099
99574W        W71300   4.713  41.081   3.382
99575W        W71301   4.267  43.712   3.642
99576W        W71302  18.253  26.206  14.315
99577W        W71303  30.250  14.903   1.872
99578W        W71304  41.540  28.417   0.440
99579W        W71305  14.786  21.926  11.907
99580W        W71306  42.035  13.082  13.064
99581W        W71307  43.960  33.059   2.830
99582W        W71308  25.009  39.479  13.960
99583W        W71309  19.712  21.177  13.339
99584W        W71310   5.513  37.985  10.845
99585W        W71311  40.964   9.809   1.672
99586W        W71312  20.009  35.666   2.388
99587W        W71313  21.200  41.507   2.833
99588W        W71314   1.396  11.189   2.906
99589W        W71315  35.341  26.471  14.766
99590W        W71316   8.892  18.176   3.187
99591W        W71317   9.768  40.084  11.581
99592W        W71318   5.434  36.846   1.794
99593W        W71319  37.393  14.286   2.299
99594W        W71320   3.956  39.395  14.542
99595W        W71321  11.060   5.629   3.787
99596W        W71322  40.724  43.736   0.404
99597W        W71323   4.639   1.724  14.985
99598W        W71324  19.290   1.394  14.505
99599W        W71325  31.534  15.906   0.741
99600W        W71326  35.807  10.047  12.433
99601W        W71327  32.070  15.091  14.528
99602W        W71328  10.318  21.627  11.370
99603W        W71329  14.312   0.819  12.900
99604W        W71330  14.268  39.008  12.849
99605W        W71331  22.739  21.673  14.036
99606W        W71332  41.568   9.925  14.515
99607W        W71333   3.364  10.374  10.851
99608W        W71334   1.834   3.918   1.695
99609W        W71335  32.890  27.634   3.815
99610W        W71336  18.526  34.081  10.561
99611W        W71337  23.944   4.729   5.060
99612W        W71338  21.709   4.369  11.370
99613W        W71339  17.039  35.067  14.037
99614W        W71340  42.786  11.253  14.594
99615W        W71341   8.864   5.889  12.386
99616W        W71342  13.220  41.870   3.218
99617W        W71343  11.203   4.031   1.421
99618W        W71344   1.970  38.968  11.550
99619W        W71345  33.524  13.059  10.674
99620W        W71346  21.624  34.889   4.101
99621W        W71347   7.138  19.536   1.564
99622W        W71348  18.586   4.007  13.085
99623W        W71349  37.584  40.479   0.158
99624W        W71350  15.552  33.087   4.264
99625W        W71351  28.978  20.074  14.578
99626W        W71352  13.384  21.912   3.238
99627W        W71353  27.897  15.572  10.098
99628W        W71354   0.012  29.154  13.415
99629W        W71355  43.223  11.372  12.545
99630W        W71356  16.297  36.157   3.719
99631W        W71357  26.917  38.883  12.602
99632W        W71358  16.753  14.112  12.454
99633W        W71359   2.530  38.445   2.140
99634W        W71360  29.182   6.459  14.258
99635W        W71361   4.904  44.439   3.718
99636W        W71362  41.409  39.086  13.545
99637W        W71363  34.334  25.216   2.471
99638W        W71364  38.128  30.074   3.395
99639W        W71365  26.438  36.354  11.140
99640W        W71366   8.909  29.717   0.852
99641W        W71367  34.953  32.210   1.481
99642W        W71368  39.895  21.672  13.093
99643W        W71369  24.955  38.485   4.020
99644W        W71370   6.275  29.689   1.388
99645W        W71371  38.604   0.282  10.640
99646W        W71372   1.636  25.633  14.741
99647W        W71373   9.675  23.469   0.345
99648W        W71374  38.469   8.024  11.450
99649W        W71375  16.505  31.555  12.860
99650W        W71376   2.263  38.377  12.846
99651W        W71377  32.244  31.441  12.054
99652W        W71378  22.838   4.290  13.990
99653W        W71379   2.814  32.839   1.390
99654W        W71380   8.129  35.361   1.387
99655W        W71381  40.349   6.705   1.531
99656W        W71382   0.545  19.523  10.587
99657W        W71383   4.626   4.305   2.747
99658W        W71384  11.346  19.654   2.654
99659W        W71385  18.719  30.524  12.431
99660W        W71386  23.052  42.333   3.943
99661W        W71387  36.841  12.701   3.602
99662W        W71388  32.631  29.231   4.226
99663W        W71389  41.699  10.622  11.006
99664W        W71390  22.054  11.307   3.334
99665W        W71391  12.866   6.705   0.720
99666W        W71392  24.165  32.567  14.831
99667W        W71393  25.185  31.314  11.172
99668W        W71394  32.307   7.895   1.507
99669W        W71395  38.473  41.122  11.567
99670W        W71396  43.425  21.679   4.609
99671W        W71397  39.543  40.113   2.295
99672W        W71398   6.871  18.170   2.387
99673W        W71399  24.520  26.481   1.296
99674W        W71400  17.523   0.157   3.647
99675W        W71401  24.880  10.620  12.681
99676W        W71402  18.756  44.983  14.004
99677W        W71403  25.783  20.012   3.275
99678W        W71404  39.954  20.763   2.572
99679W        W71405  21.768  12.918   4.232
99680W        W71406  14.531  28.034   0.871
99681W        W71407   6.586  30.525   5.077
99682W        W71408  37.012  27.194  13.101
99683W        W71409  36.039  23.762   2.228
99684W        W71410  10.886   4.874   1.433
99685W        W71411  14.597  28.269   5.065
99686W        W71412  29.723  19.854   0.114
99687W        W71413  39.898  33.200  14.121
99688W        W71414  18.248   8.775   1.794
99689W        W71415  33.212   5.308   4.821
99690W        W71416   3.769  25.583  14.031
99691W        W71417  21.743   7.925   2.121
99692W        W71418  31.861  26.073   3.711
99693W        W71419  16.853  40.771  10.341
99694W        W71420   6.299   4.323  14.374
99695W        W71421  19.586  40.582  14.410
99696W        W71422  37.396  27.061   1.929
99697W        W71423  18.181  39.856  12.845
99698W        W71424  38.528  11.814   0.348
99699W        W71425   9.856  39.383  11.194
99700W        W71426  13.417  12.673  11.571
99701W        W71427  12.204   1.217   3.327
99702W        W71428  36.210  29.241  10.361
99703W        W71429   7.343  26.434   2.778
99704W        W71430   9.122   2.578  13.345
99705W        W71431  15.761  40.579   5.436
99706W        W71432  14.116  36.557   5.103
99707W        W71433  32.495  29.704   4.053
99708W        W71434  38.648  33.500  12.744
99709W        W71435  15.891  21.784   1.013
99710W        W71436   3.481  23.517  10.479
99711W        W71437  42.546   0.835   4.199
99712W        W71438  24.940  26.155   1.384
99713W        W71439   1.723  31.847   2.874
99714W        W71440  32.124  31.085   2.367
99715W        W71441  26.579  15.775  13.884
99716W        W71442  13.117  23.819  13.508
99717W        W71443   0.327   0.974   2.293
99718W        W71444  28.707  17.499  11.983
99719W        W71445  28.501  19.950   4.605
99720W        W71446  42.809   9.087   5.067
99721W        W71447  40.860  40.384   1.953
99722W        W71448   5.147  33.160   4.833
99723W        W71449  20.683   5.285   4.557
99724W        W71450  22.217  34.520   3.216
99725W        W71451  32.526   3.425  12.994
99726W        W71452  41.315  39.611  11.838
99727W        W71453  43.090  35.498   2.895
99728W        W71454  12.698  35.963   0.124
99729W        W71455  44.539  16.583  12.951
99730W        W71456  11.217   9.271   2.654
99731W        W71457  28.085   3.254  10.727
99732W        W71458  16.136  32.361  13.050
99733W        W71459  35.482  29.448  13.277
99734W        W71460  14.255  28.707  12.023
99735W        W71461  36.387  20.270   2.883
99736W        W71462  29.298  17.617  10.656
99737W        W71463  34.941  25.890   4.104
99738W        W71464  39.425  10.103   0.082
99739W        W71465  16.668  42.298  10.946
99740W        W71466  17.921  10.511  10.405
99741W        W71467  21.627   8.767  14.776
99742W        W71468   9.287  26.851   3.631
99743W        W71469  16.568   7.917   2.283
99744W        W71470  12.596  32.591   4.583
99745W        W71471   9.331  24.933   3.585
99746W        W71472  42.504  41.693   0.532
99747W        W71473  26.826  19.187   4.530
99748W        W71474  40.566  32.012  10.446
99749W        W71475  39.842  25.542   2.791
99750W        W71476  12.752  10.804  13.521
99751W        W71477  15.021  38.553  13.952
99752W        W71478  16.866  28.418   2.907
99753W        W71479   3.291  39.503  10.550
99754W        W71480  22.529  10.981  13.712
99755W        W71481   2.623  14.291   9.983
99756W        W71482   3.048  39.121  14.068
99757W        W71483  12.110  16.641   1.700
99758W        W71484   2.946  20.364  10.741
99759W        W71485  18.765  27.885  10.144
99760W        W71486  17.258  34.302   2.714
99761W        W71487   6.493  20.129   2.345
99762W        W71488  20.062  38.589  10.673
99763W        W71489   8.674  29.443   3.400
99764W        W71490  41.773  34.468  14.324
99765W        W71491  29.162  32.940  13.016
99766W        W71492  44.958   2.962  11.832
99767W        W71493  27.424  10.461   0.239
99768W        W71494  14.274  38.996   0.185
99769W        W71495  38.317  12.121   2.398
99770W        W71496  10.392  34.554  12.344
99771W        W71497  27.326  10.295   0.800
99772W        W71498  40.696   4.760   3.644
99773W        W71499  33.573  33.685  12.129
99774W        W71500   5.444  15.378  10.219
99775W        W71501   3.004  16.186  11.443
99776W        W71502  11.923  31.552   2.726
99777W        W71503   5.383  12.526  12.386
99778W        W71504  37.668  12.309   4.126
99779W        W71505  31.016  37.924   3.300
99780W        W71506   0.806  40.767   1.707
99781W        W71507  41.401  17.333   2.322
99782W        W71508  38.499  42.659   4.210
99783W        W71509  22.009  38.837  12.552
99784W        W71510  38.089  18.548  13.931
99785W        W71511  24.799   5.205  14.329
99786W        W71512   7.605   0.795  13.289
99787W        W71513  26.584   2.975  11.615
99788W        W71514   4.125  44.708  14.043
99789W        W71515  43.404  28.263  12.402
99790W        W71516  28.192  10.321  14.512
99791W        W71517  28.461  41.715   4.234
99792W        W71518  19.074   3.199   4.628
99793W        W71519  31.342  24.116  12.333
99794W        W71520   6.199  23.812   1.188
99795W        W71521  34.885   8.332   2.358
99796W        W71522  41.053  27.049   4.160
99797W        W71523  16.180  28.014  12.931
99798W        W71524  41.598  25.920   3.273
99799W        W71525  39.759   8.969  12.079
99800W        W71526   4.687   8.764  10.265
99801W        W71527  40.801   8.748  11.849
99802W        W71528  42.983   9.247   3.483
99803W        W71529  43.465  18.556   2.443
99804W        W71530   6.081  32.146   4.570
99805W        W71531  18.607  10.908   2.061
99806W        W71532   3.023  17.817  13.033
99807W        W71533   2.814   7.710  13.874
99808W        W71534  20.241   5.313   0.271
99809W        W71535  33.599  30.641  11.202
99810W        W71536  28.151  24.584  12.524
99811W        W71537  37.878  31.606   0.394
99812W        W71538  12.828  43.773   2.448
99813W        W71539  27.446  15.871   4.158
99814W        W71540  24.325  37.908  13.804
99815W        W71541  43.224  20.919   3.209
99816W        W71542  15.670  36.760   5.413
99817W        W71543  17.774  12.133   1.779
99818W        W71544  43.715   1.846  11.045
99819W        W71545  37.875  21.492   2.846
99820W        W71546   6.130  15.378   2.650
99821W        W71547  24.150  28.355   4.200
99822W        W71548  31.575  42.844   2.732
99823W        W71549  11.753   2.022   4.155
99824W        W71550  14.743  18.482  14.417
99825W        W71551  20.013  20.563   2.863
99826W        W71552  42.468  35.171   1.348
99827W        W71553  23.708  11.641  13.265
99828W        W71554  24.468   8.098  10.805
99829W        W71555  27.110  13.305   2.197
99830W        W71556  38.075  25.368   3.769
99831W        W71557   7.904  25.122  12.074
99832W        W71558   5.636  19.216  13.978
99833W        W71559  37.631  12.806  11.739
99834W        W71560  31.372  21.556  13.899
99835W        W71561   3.646   6.171   2.803
99836W        W71562   9.374   8.249   4.782
99837W        W71563   9.416   4.314   2.298
99838W        W71564  17.774  25.869   4.584
99839W        W71565  16.639  44.258  13.431
99840W        W71566  14.214  19.293  14.442
99841W        W71567   9.204  28.456   0.866
99842W        W71568  42.089  12.001  12.877
99843W        W71569  30.547  34.543   3.382
99844W        W71570   9.857  14.861   2.242
99845W        W71571  24.562  16.103  11.713
99846W        W71572  27.721   8.657  13.278
99847W        W71573  37.096  32.993   2.709
99848W        W71574  12.284  44.990  12.549
99849W        W71575  31.030  44.994  13.651
99850W        W71576   8.883  33.854  11.550
99851W        W71577   7.438  13.608   2.335
99852W        W71578  14.388  38.480   1.377
99853W        W71579  43.790  20.756  14.834
99854W        W71580  19.740   9.554   2.980
99855W        W71581  18.693  36.389  11.636
99856W        W71582  41.249  30.213  13.933
99857W        W71583  42.931  24.639  10.757
99858W        W71584  14.158  21.574   1.887
99859W        W71585   9.125  43.462  10.697
99860W        W71586   7.271  40.332   3.238
99861W        W71587  21.020  36.354   0.263
99862W        W71588  14.815  44.538   2.856
99863W        W71589  24.127  39.426  12.110
99864W        W71590  35.586  38.358  11.256
99865W        W71591  42.920  18.839   1.937
99866W        W71592   0.127  29.714   2.712
99867W        W71593  17.824  11.860   0.438
99868W        W71594  28.050  25.600   2.394
99869W        W71595  17.659  29.566  12.418
99870W        W71596  27.079   1.789  12.554
99871W        W71597  26.522  16.177  12.270
99872W        W71598  18.757  19.991  12.537
99873W        W71599   7.734   1.073   2.668
99874W        W71600   1.777  43.018   2.623
99875W        W71601  43.337  25.535   3.631
99876W        W71602  28.100  37.447  12.396
99877W        W71603  35.582  23.037  11.501
99878W        W71604   0.469  38.055   0.649
99879W        W71605   8.666  26.110   1.582
99880W        W71606   0.648   3.423  11.094
99881W        W71607  38.339  42.063  13.047
99882W        W71608  11.135  20.621   0.929
99883W        W71609   7.774  29.225   2.902
99884W        W71610  25.742  39.311  12.011
99885W        W71611  40.750  24.673  12.170
99886W        W71612  15.652  44.033  12.614
99887W        W71613  20.205  23.172  12.592
99888W        W71614  34.628  11.244  11.203
99889W        W71615  40.112  34.103  12.933
99890W        W71616  23.177   1.081   4.892
99891W        W71617  30.696  40.757   0.839
99892W        W71618   3.837  20.145   2.240
99893W        W71619  24.679  35.052   1.271
99894W        W71620  33.053  17.786   0.470
99895W        W71621  35.404  43.276  10.395
99896W        W71622   4.823  22.031  10.431
99897W        W71623  36.396  15.630   3.286
99898W        W71624  33.805   6.135   1.327
99899W        W71625   3.255  13.836  11.234
99900W        W71626  18.861  28.118   4.120
99901W        W71627  32.699  19.232   0.744
99902W        W71628  35.549  39.579   4.338
99903W        W71629  14.012  23.972  11.683
99904W        W71630   7.306  32.436  12.005
99905W        W71631  27.251  36.551   2.549
99906W        W71632  33.472   0.223   5.113
99907W        W71633  19.308  22.458  14.990
99908W        W71634   3.505   9.631  12.397
99909W        W71635  43.890  33.345   0.733
99910W        W71636  33.468  38.087  11.692
99911W        W71637  18.537  29.032  13.409
99912W        W71638  27.623  26.170   2.403
99913W        W71639  38.422  43.865   3.007
99914W        W71640  20.451  17.722  13.472
99915W        W71641  26.093  10.109   3.336
99916W        W71642   2.956  21.123  13.563
99917W        W71643  23.111   7.057   0.367
99918W        W71644  34.108   1.918   4.618
99919W        W71645  20.034  18.904  14.549
99920W        W71646  17.617  27.957   3.287
99921W        W71647  29.006  43.053  10.626
99922W        W71648  41.506  18.184   2.304
99923W        W71649  42.220  31.715   4.351
99924W        W71650  17.357  14.752   1.858
99925W        W71651   7.137  18.341   0.316
99926W        W71652  17.358  44.205  11.076
99927W        W71653  37.334  23.632   2.252
99928W        W71654  28.122   7.294  11.680
99929W        W71655  17.719  38.002   4.802
99930W        W71656  29.561  14.558  14.812
99931W        W71657   5.979  15.210   4.199
99932W        W71658   3.257   9.952  12.042
99933W        W71659  42.726  14.812  11.639
99934W        W71660  43.526   3.430  11.201
99935W        W71661  36.129   1.255  11.205
99936W        W71662  33.365  13.640  14.799
99937W        W71663   0.755  32.640  14.732
99938W        W71664  13.214  12.823  14.215
99939W        W71665  33.824   6.301  14.421
99940W        W71666   5.192  16.731   3.294
99941W        W71667  39.872  39.257   4.006
99942W        W71668  22.081  21.127  14.282
99943W        W71669  40.350  13.006   1.714
99944W        W71670  37.992   2.724   1.737
99945W        W71671  37.865  16.526   4.013
99946W        W71672   5.251  15.604  12.914
99947W        W71673  36.184   4.710   2.314
99948W        W71674  12.056  15.093   0.029
99949W        W71675  34.225  39.935  13.004
99950W        W71676  34.780  10.460  11.851
99951W        W71677  34.706  15.695   2.679
99952W        W71678  31.548  39.463  11.091
99953W        W71679  38.135  16.152  13.792
99954W        W71680  40.314   9.329  10.576
99955W        W71681  21.074  14.379  11.018
99956W        W71682   5.669  42.445   4.591
99957W        W71683  38.335  27.445   0.342
99958W        W71684  22.906  43.382  14.012
99959W        W71685  26.020  28.019   2.935
99960W        W71686  44.056  20.077  12.068
99961W        W71687   9.693  16.233   0.067
99962W        W71688   4.535  31.470   1.377
99963W        W71689   0.961  37.511  11.688
99964W        W71690   7.840   8.064   2.491
99965W        W71691  40.527  17.783  11.181
99966W        W71692  31.197  22.644  14.355
99967W        W71693  40.493  13.859  12.123
99968W        W71694  11.147  12.620  14.510
99969W        W71695  30.176  25.144  14.341
99970W        W71696  25.954   5.736  13.673
99971W        W71697  24.884  37.474   0.706
99972W        W71698   3.246  28.972  12.888
99973W        W71699  32.124  19.924   2.572
99974W        W71700   0.889  16.421  12.967
99975W        W71701   7.654  29.096  10.714
99976W        W71702  32.976   6.520   3.695
99977W        W71703  33.321  10.637  11.119
99978W        W71704  30.687  32.514   2.389
99979W        W71705   7.712  36.653  14.869
99980W        W71706  16.284   9.855  13.480
99981W        W71707  13.644  12.771   1.463
99982W        W71708  23.178   4.448   3.612
99983W        W71709  12.815  31.550   3.719
99984W        W71710  34.839  11.983   4.146
99985W        W71711  33.459   8.381   1.230
99986W        W71712  26.890  10.567   0.795
99987W        W71713   3.702  37.865   1.783
99988W        W71714  12.747  26.669   0.133
99989W        W71715  10.153  39.861   2.446
99990W        W71716  14.845  39.508  13.469
99991W        W71717  25.725  23.116  12.627
99992W        W71718  33.608  38.312   1.426
99993W        W71719  17.276   3.845  14.276
99994W        W71720   1.128  14.192   4.594
99995W        W71721  38.397  15.206   2.388
99996W        W71722  33.628   4.946   4.184
99997W        W71723   5.704  13.626   0.197
99998W        W71724  31.376  25.960  14.034
99999W        W71725  17.823   3.399  14.789
    0W        W71726  10.586  20.510  13.614
    1W        W71727  15.714  43.719   3.287
    2W        W71728  31.113  29.892  11.340
    3W        W71729  20.685  43.284  14.734
    4W        W71730  11.794   2.405   1.798
    5W        W71731   1.902  29.569   0.389
    6W        W71732  11.367   6.315  14.919
    7W        W71733   0.394  34.290   2.275
    8W        W71734  13.813  30.045  13.971
    9W        W71735  21.793   2.387   3.632
   10W        W71736  10.896  21.279  14.845
   11W        W71737  39.170  39.763  12.400
   12W        W71738  15.882   1.741   4.151
   13W        W71739  40.681  30.725  11.020
   14W        W71740  37.399  37.879   1.114
   15W        W71741   5.985  34.944   0.678
   16W        W71742  43.767  22.384   4.653
   17W        W71743  22.639   7.822  12.103
   18W        W71744  33.881  32.175   2.750
   19W        W71745  40.808  23.696  13.938
   20W        W71746  19.601  10.586   3.120
   21W        W71747  14.817  23.075   3.343
   22W        W71748  37.245  29.595   1.282
   23W        W71749  38.505  19.046   1.615
   24W        W71750  35.109  27.055  13.400
   25W        W71751  39.300   6.205  10.769
   26W        W71752  25.502  27.583   1.351
   27W        W71753   4.449  17.601   2.383
   28W        W71754  24.164  44.905  12.052
   29W        W71755  26.955  23.795  13.931
   30W        W71756  41.724   8.771   1.217
   31W        W71757  12.835  34.839   2.758
   32W        W71758   7.918  32.617  14.801
   33W        W71759  42.372   6.255   3.285
   34W        W71760  18.210  30.912  14.499
   35W        W71761  42.725  23.773   0.840
   36W        W71762  26.972  23.289  14.071
   37W        W71763  43.881  20.087  11.569
   38W        W71764  10.087  28.404   1.706
   39W        W71765  37.874  33.020  11.492
   40W        W71766  36.930  17.890   3.057
   41W        W71767  14.579   0.826  11.533
   42W        W71768   9.563  37.717  14.759
   43W        W71769  40.839  43.705  13.285
   44W        W71770   5.847  18.713   2.184
   45W        W71771   3.095  37.620   1.292
   46W        W71772  24.411   1.050   4.589
   47W        W71773  31.602  10.739   3.726
   48W        W71774  27.131  18.853  12.550
   49W        W71775  28.207  23.066  13.060
   50W        W71776  14.169   8.426  11.632
   51W        W71777  31.053  36.851  11.495
   52W        W71778  14.703  14.559   0.470
   53W        W71779  23.210  16.924  12.255
   54W        W71780  32.025  21.215   1.883
   55W        W71781  37.855   5.475   0.919
   56W        W71782  25.253  30.625   3.743
   57W        W71783  43.798   5.045   1.940
   58W        W71784  43.822  35.365   1.456
   59W        W71785   2.140  33.656  13.960
   60W        W71786   7.810  20.437   3.223
   61W        W71787  23.419  12.412   1.458
   62W        W71788  17.177  26.971   0.982
   63W        W71789  12.350   3.212   2.014
   64W        W71790  33.438   1.233  13.401
   65W        W71791   8.781  19.605  10.015
   66W        W71792   7.415  15.301   3.256
   67W        W71793   5.604  43.610   1.795
   68W        W71794  10.306  15.613   2.491
   69W        W71795  19.579   4.847  11.904
   70W        W71796   8.773  18.739  11.395
   71W        W71797  12.630  11.896   2.231
   72W        W71798  26.356   7.178  11.025
   73W        W71799  32.440   0.498   4.575
   74W        W71800  12.662  35.964  11.029
   75W        W71801  34.952   2.620  10.321
   76W        W71802   7.921   7.613  12.091
   77W        W71803  11.176  40.933  11.269
   78W        W71804  17.361  43.422  11.615
   79W        W71805  24.838  27.365  14.684
   80W        W71806  40.847   9.589  11.192
   81W        W71807  43.923  34.266   3.484
   82W        W71808  28.923  27.645   4.454
   83W        W71809  44.429  27.738  13.864
   84W        W71810  19.910  31.069  11.036
   85W        W71811  11.569  28.940   4.165
   86W        W71812  14.100  41.308   0.948
   87W        W71813  15.734   7.992   2.898
   88W        W71814   7.906   6.279   3.329
   89W        W71815   1.106   7.922  12.941
   90W        W71816  11.648  10.161   0.869
   91W        W71817  15.743   5.491  12.950
   92W        W71818  34.985   7.141  13.095
   93W        W71819  11.197  10.177   3.099
   94W        W71820  35.479  24.469  11.824
   95W        W71821  27.592  31.088  14.466
   96W        W71822   0.251  39.453   1.378
   97W        W71823  31.881  31.043  12.134
   98W        W71824   4.875  37.309  11.534
   99W        W71825  39.194  19.964   3.700
  100W        W71826  15.779  32.244  14.842
  101W        W71827  10.053  43.320   3.605
  102W        W71828  10.554  18.605  14.026
  103W        W71829  34.473  20.408   0.522
  104W        W71830  42.789  37.495  14.747
  105W        W71831  38.341   9.810   2.606
  106W        W71832  26.555  29.487   1.250
  107W        W71833   4.218  11.458   3.929
  108W        W71834  44.814  33.079  12.942
  109W        W71835  34.500  28.991  10.633
  110W        W71836  41.328  12.519  13.302
  111W        W71837  18.668  41.036   2.268
  112W        W71838  39.719  19.985   0.908
  113W        W71839  17.553  25.655   3.715
  114W        W71840   4.717   3.689  12.585
  115W        W71841  40.817  42.414   0.440
  116W        W71842   8.222  24.290   0.938
  117W        W71843   0.405   3.425   0.971
  118W        W71844  18.603  10.714   4.136
  119W        W71845  17.669   0.514  12.976
  120W        W71846  29.223  11.786  11.608
  121W        W71847  36.129  40.587   0.691
  122W        W71848  11.897  15.238  12.800
  123W        W71849  43.721  15.437   1.275
  124W        W71850   8.583  15.077  11.298
  125W        W71851  16.720  35.107   4.482
  126W        W71852  21.236  44.271   2.233
  127W        W71853  27.208  30.796   5.050
  128W        W71854  25.180   3.685   0.900
  129W        W71855  20.596  23.107  13.412
  130W        W71856  41.029  28.122   4.544
  131W        W71857   5.424   0.261   0.805
  132W        W71858  34.820  18.044   2.668
  133W        W71859  40.571  25.053  11.697
  134W        W71860  43.333   5.243  14.316
  135W        W71861   3.733  14.660   4.583
  136W        W71862  42.517  23.074  10.659
  137W        W71863  37.512  21.483   0.401
  138W        W71864  22.071  23.598   1.487
  139W        W71865  32.638  24.078   4.162
  140W        W71866  28.242  14.244   3.257
  141W        W71867  28.475  15.338  10.318
  142W        W71868  21.615  29.558   1.876
  143W        W71869  14.700  33.684  12.486
  144W        W71870   4.367  27.075  13.173
  145W        W71871  35.257  30.675   3.619
  146W        W71872   1.921   4.253  14.393
  147W        W71873   5.478  43.765   0.369
  148W        W71874  38.767  28.591   2.844
  149W        W71875  27.704   6.333  11.716
  150W        W71876  21.210   1.071   3.905
  151W        W71877   6.029   9.904  11.266
  152W        W71878  23.967  20.191  11.466
  153W        W71879  22.395  26.750   2.541
  154W        W71880   1.241  42.395   4.729
  155W        W71881  36.914  28.181  13.093
  156W        W71882  15.608  29.746  11.344
  157W        W71883  41.907  29.880   3.295
  158W        W71884  30.499  28.590  10.587
  159W        W71885  21.087   8.864  11.531
  160W        W71886  23.478  35.189   0.430
  161W        W71887   6.705  12.554  12.900
  162W        W71888  34.409  14.744  10.961
  163W        W71889   0.238  38.136  11.565
  164W        W71890  16.699  23.835   0.702
  165W        W71891   2.916  25.571   0.394
  166W        W71892  23.254  40.255  14.508
  167W        W71893  25.086   1.859  13.492
  168W        W71894  10.106  21.584   0.803
  169W        W71895  38.117  23.299  13.355
  170W        W71896  15.625  38.509  13.115
  171W        W71897  24.220  42.550  14.937
  172W        W71898   4.295   2.491   0.315
  173W        W71899  32.426  13.844  10.879
  174W        W71900  43.534  37.069   0.189
  175W        W71901  35.799  30.577  14.505
  176W        W71902  19.524   1.647  11.060
  177W        W71903   8.095  13.978   5.073
  178W        W71904  27.896  28.630  11.886
  179W        W71905   6.348   1.739  12.624
  180W        W71906   2.881   9.485  13.345
  181W        W71907  28.121  30.954  11.911
  182W        W71908  37.582   6.218   0.515
  183W        W71909   4.791  27.132   2.890
  184W        W71910  24.296  23.664  13.372
  185W        W71911   4.390   3.929   0.569
  186W        W71912  33.240  25.247   1.823
  187W        W71913  22.419  18.056   2.882
  188W        W71914  17.187  43.932  11.590
  189W        W71915  24.708  21.669  13.075
  190W        W71916  10.326   1.059  12.108
  191W        W71917  21.841  27.309  11.011
  192W        W71918  43.800  15.644   4.040
  193W        W71919  32.291   0.785   3.380
  194W        W71920  37.266  15.195   0.185
  195W        W71921  43.059  13.689   3.617
  196W        W71922  22.750  12.958   5.005
  197W        W71923   7.419   7.685  14.774
  198W        W71924  14.693  36.339  10.489
  199W        W71925  40.931  36.036  14.062
  200W        W71926  26.510   3.205  14.507
  201W        W71927  14.669  21.729   3.096
  202W        W71928  29.189  38.281  13.889
  203W        W71929  26.501  41.969  14.598
  204W        W71930  28.739  30.145  11.586
  205W        W71931  38.818   5.952   2.814
  206W        W71932  35.855  34.457  13.453
  207W        W71933  16.218  11.335   4.185
  208W        W71934  16.086  25.931   2.422
  209W        W71935  15.078  42.512  11.433
  210W        W71936  10.815  44.276  14.423
  211W        W71937   1.231   6.480  11.260
  212W        W71938  29.671  35.181  14.446
  213W        W71939  24.109  20.773   0.788
  214W        W71940  18.191   7.264  12.773
  215W        W71941  37.289  13.805  11.989
  216W        W71942  38.598  30.418  14.274
  217W        W71943   2.543   9.082  13.383
  218W        W71944  27.220  20.611  12.475
  219W        W71945  19.400   3.443   3.449
  220W        W71946  36.807  11.296  12.884
  221W        W71947  21.891   0.281  10.576
  222W        W71948  35.137  13.844  11.172
  223W        W71949  29.212   0.464  13.995
  224W        W71950   8.687  44.789   1.360
  225W        W71951   7.350  16.713  12.469
  226W        W71952  32.802  11.643  13.019
  227W        W71953  27.265  42.016   1.311
  228W        W71954  34.691  36.394   2.752
  229W        W71955   1.507   8.437  14.322
  230W        W71956  24.112  43.913  12.327
  231W        W71957   8.880  36.131  13.038
  232W        W71958  21.982  24.589  13.731
  233W        W71959  16.119   1.245  11.152
  234W        W71960   8.318  42.539   0.872
  235W        W71961  21.160  10.534   1.814
  236W        W71962   9.128   0.500  14.397
  237W        W71963  30.081   1.963   1.075
  238W        W71964  17.105  44.537   2.297
  239W        W71965  20.755   3.392  10.552
  240W        W71966  12.782  18.053  14.509
  241W        W71967  16.855  33.403  11.546
  242W        W71968  43.055  34.866   5.413
  243W        W71969  38.388  25.532  11.767
  244W        W71970  29.285  32.108  13.604
  245W        W71971  27.543  35.415  12.520
  246W        W71972  34.988  15.423   3.702
  247W        W71973  38.461  44.706  14.582
  248W        W71974  25.091   5.850  10.575
  249W        W71975  27.504  35.637  12.989
  250W        W71976  28.941  27.024  14.528
  251W        W71977  21.165  26.991   4.156
  252W        W71978  26.254  13.634   0.939
  253W        W71979  34.120  22.509   0.385
  254W        W71980   6.783  12.334  11.519
  255W        W71981  42.785  41.857  10.645
  256W        W71982  29.228  42.905  12.875
  257W        W71983  33.985  33.047   4.592
  258W        W71984  34.575   0.242  14.857
  259W        W71985  37.063   4.344   2.742
  260W        W71986  30.193  20.670   0.829
  261W        W71987   9.740  22.220   4.089
  262W        W71988  32.462  27.679   0.843
  263W        W71989  43.048  44.912  12.469
  264W        W71990   7.478   8.612  14.904
  265W        W71991   6.657  28.345   3.233
  266W        W71992  28.978  15.478   4.222
  267W        W71993   7.843   4.325   1.473
  268W        W71994  35.974   0.845   1.869
  269W        W71995  36.896  40.544  14.369
  270W        W71996   4.792  23.444  12.064
  271W        W71997  35.667  43.442   4.299
  272W        W71998   1.474  42.488   4.263
  273W        W71999  21.933   2.913   0.190
  274W        W72000  38.801   6.717  14.855
  275W        W72001  31.797  31.363   0.229
  276W        W72002   6.699  11.196  13.760
  277W        W72003  37.963  42.304   1.403
  278W        W72004  18.908  26.638  12.505
  279W        W72005  42.031  17.015   2.843
  280W        W72006   5.835  20.091   2.153
  281W        W72007  13.295  21.756  10.902
  282W        W72008   4.019   2.714   2.745
  283W        W72009  38.404   2.398   1.876
  284W        W72010  24.163  36.075   2.338
  285W        W72011  22.215  36.874   0.442
  286W        W72012   8.734   7.867   1.437
  287W        W72013   2.763  36.403  13.777
  288W        W72014  22.829  18.172   4.940
  289W        W72015  17.037  15.654   2.641
  290W        W72016  26.162   2.888   1.206
  291W        W72017  40.961  12.550  12.932
  292W        W72018  22.657   0.997  12.021
  293W        W72019  18.360   5.465  10.681
  294W        W72020  15.690  35.156   4.210
  295W        W72021   6.845   5.254  10.291
  296W        W72022   6.373   7.265  10.683
  297W        W72023  28.665  28.631   0.396
  298W        W72024  25.560   1.204   2.865
  299W        W72025  39.532   8.860   4.550
  300W        W72026  31.905   0.510   3.135
  301W        W72027  26.478  43.421   5.043
  302W        W72028  41.099  41.870  12.954
  303W        W72029  33.004  11.284   4.115
  304W        W72030  23.523  34.844  12.072
  305W        W72031   7.703  18.056   0.912
  306W        W72032   6.371  12.193  14.101
  307W        W72033  31.600  32.598   0.807
  308W        W72034  41.879  10.488  10.101
  309W        W72035   7.155   4.225   4.210
  310W        W72036  11.467  39.802  13.394
  311W        W72037  18.951   6.832   3.213
  312W        W72038   6.284  29.404  12.889
  313W        W72039  29.928  38.544  11.027
  314W        W72040  26.193   4.282  13.941
  315W        W72041  10.092  36.493   0.888
  316W        W72042  11.166   0.484   4.693
  317W        W72043   5.448   4.501  13.447
  318W        W72044  21.503  42.839   2.690
  319W        W72045  43.787   0.310  14.828
  320W        W72046  36.833  33.249  14.018
  321W        W72047  27.929  15.899   1.287
  322W        W72048  27.251  17.770  12.133
  323W        W72049  40.622  41.876   3.974
  324W        W72050  22.458   6.003   0.867
  325W        W72051  17.623  22.347   0.289
  326W        W72052  15.290  32.390  13.920
  327W        W72053  20.107  10.005  11.030
  328W        W72054  39.918  26.636   1.183
  329W        W72055  24.580  32.405   0.116
  330W        W72056  10.399  24.265  14.214
  331W        W72057  43.342  22.466  14.019
  332W        W72058  24.274  44.358   0.373
  333W        W72059  17.561  17.175  11.403
  334W        W72060  35.739  19.636   1.199
  335W        W72061  34.757  33.058  11.546
  336W        W72062   8.412  11.541   2.679
  337W        W72063  23.915  26.666  11.143
  338W        W72064  27.515  27.129   0.245
  339W        W72065  30.914  36.627  11.053
  340W        W72066   5.934  21.724  12.877
  341W        W72067  38.853  41.492   3.186
  342W        W72068  12.633  31.814  11.159
  343W        W72069   6.927  15.081   3.263
  344W        W72070  28.714  10.823  13.043
  345W        W72071   6.675  30.885   3.285
  346W        W72072  43.974   9.800   4.423
  347W        W72073  24.984  23.488  10.733
  348W        W72074  25.546   6.285  11.364
  349W        W72075  40.610  12.236  13.899
  350W        W72076  33.067   6.817  10.881
  351W        W72077  37.082  41.907  11.869
  352W        W72078  15.599   1.805   3.691
  353W        W72079   5.946  10.006  14.230
  354W        W72080   0.250  20.732   0.894
  355W        W72081  15.585   1.712   4.589
  356W        W72082  44.307  37.386  14.911
  357W        W72083  32.373  25.504  11.538
  358W        W72084  25.462  26.936   1.874
  359W        W72085   7.191  27.163  12.581
  360W        W72086  13.114   0.520   2.516
  361W        W72087   0.914  10.361  14.393
  362W        W72088  13.120  28.555   3.573
  363W        W72089  28.310  33.325  14.453
  364W        W72090  15.823  23.652  14.292
  365W        W72091  33.425   6.360   2.576
  366W        W72092  13.402  32.042   3.315
  367W        W72093  28.159  30.660   0.408
  368W        W72094  38.024  38.699   2.301
  369W        W72095   3.283   3.743  12.564
  370W        W72096  20.074  36.876  11.882
  371W        W72097  24.139  29.199  13.465
  372W        W72098  39.278   9.326   4.695
  373W        W72099  38.104  27.922   1.343
  374W        W72100  11.525  28.664   0.007
  375W        W72101  27.404  23.427   3.949
  376W        W72102  21.791  11.105  11.114
  377W        W72103  19.194   5.666  13.385
  378W        W72104  15.101  37.818   1.212
  379W        W72105  20.753   2.725   3.293
  380W        W72106  11.792  19.712  11.102
  381W        W72107  27.105  10.219  12.531
  382W        W72108   2.668   8.376   4.091
  383W        W72109   7.641  18.338   0.456
  384W        W72110  41.746   4.944   0.414
  385W        W72111   9.831  17.162  11.929
  386W        W72112   0.726  12.848  13.347
  387W        W72113  38.345  21.227   1.596
  388W        W72114   8.947   2.107  11.264
  389W        W72115  21.644   2.228   0.745
  390W        W72116  14.774  41.276   3.674
  391W        W72117  27.266  18.886  14.942
  392W        W72118  32.010  28.911   1.398
  393W        W72119  17.822  28.164  11.023
  394W        W72120  24.283  11.140   0.240
  395W        W72121  24.506  21.917  11.805
  396W        W72122  20.314  33.508  13.832
  397W        W72123   8.406   7.976   0.389
  398W        W72124   2.322  18.139  13.200
  399W        W72125   7.703   6.263   4.321
  400W        W72126  25.709  16.605   0.970
  401W        W72127  12.249  19.828   3.733
  402W        W72128  25.068  11.311  12.377
  403W        W72129  43.043  32.593   1.369
  404W        W72130  39.457  29.076   0.671
  405W        W72131  34.943   7.652  12.595
  406W        W72132  41.845  29.778   5.316
  407W        W72133  28.023  16.191   4.293
  408W        W72134  18.785   3.169   4.208
  409W        W72135  12.117  43.173  13.755
  410W        W72136  32.966   2.442  12.491
  411W        W72137  35.378   6.932  12.861
  412W        W72138  38.120  33.876   1.432
  413W        W72139  14.814  38.576  12.517
  414W        W72140  41.518  14.412  13.745
  415W        W72141  44.741  31.157  12.059
  416W        W72142   5.155  12.608  13.380
  417W        W72143  22.101  43.810   0.824
  418W        W72144  43.971  43.270   0.885
  419W        W72145   8.821  22.719   4.880
  420W        W72146  26.383  17.264   0.822
  421W        W72147  27.650  28.620   1.475
  422W        W72148  27.183  11.300   4.738
  423W        W72149   6.395  15.645  12.988
  424W        W72150  37.775  22.683   1.455
  425W        W72151  15.583  41.727   2.269
  426W        W72152  27.461  43.430   1.973
  427W        W72153  35.496   7.907  11.424
  428W        W72154  27.028   4.037   2.388
  429W        W72155  39.328  37.274  10.295
  430W        W72156  21.083  40.209  12.906
  431W        W72157   1.930  28.618  14.287
  432W        W72158  17.672  42.031   0.876
  433W        W72159   9.177   4.637   9.819
  434W        W72160  25.411  36.532  11.158
  435W        W72161  17.774  32.338   0.861
  436W        W72162   2.177  33.079  14.894
  437W        W72163  19.368  29.262  11.079
  438W        W72164   1.922  23.640  11.827
  439W        W72165   0.360  10.557  13.816
  440W        W72166  39.641   4.240  12.005
  441W        W72167   7.322  16.359  11.162
  442W        W72168  22.648   7.195   3.140
  443W        W72169   1.322  17.569  14.313
  444W        W72170  36.554  35.802   3.741
  445W        W72171  39.327   7.420  11.038
  446W        W72172  10.847  14.576  13.088
  447W        W72173  28.738  14.129   3.390
  448W        W72174  32.477  35.300   3.581
  449W        W72175  37.323  16.506   2.763
  450W        W72176  41.622  43.871   3.855
  451W        W72177  28.087  44.969  10.162
  452W        W72178  24.015  39.469   1.228
  453W        W72179  19.219   8.656  12.530
  454W        W72180   2.394  26.187  14.899
  455W        W72181  41.954  36.911  13.953
  456W        W72182  11.031   7.201  14.032
  457W        W72183  37.050  21.646  10.637
  458W        W72184  28.346   6.652   3.670
  459W        W72185  38.972  30.180   4.803
  460W        W72186  36.502  15.499  13.979
  461W        W72187   3.033  36.047  10.195
  462W        W72188  31.713  12.095  11.963
  463W        W72189  34.307  41.973  13.289
  464W        W72190  16.095  11.078   4.633
  465W        W72191  10.387  30.315  10.737
  466W        W72192  24.446  14.367   0.949
  467W        W72193  44.360  25.524  10.713
  468W        W72194  32.867  14.852  11.259
  469W        W72195  28.342  21.653   3.321
  470W        W72196  35.159  34.465   9.796
  471W        W72197  30.120  34.804  14.342
  472W        W72198  36.135  24.987  11.549
  473W        W72199  11.713  35.456  10.505
  474W        W72200  36.076   9.863  12.027
  475W        W72201  22.612  20.813   2.940
  476W        W72202   9.821   1.042   1.891
  477W        W72203  12.971  37.830   3.828
  478W        W72204  41.917  38.345   3.242
  479W        W72205   5.108  15.301  14.300
  480W        W72206  25.066   4.664  13.471
  481W        W72207  24.575  10.556  10.460
  482W        W72208  39.428   0.967  12.050
  483W        W72209  44.941  41.327   2.674
  484W        W72210   1.564  37.464   2.623
  485W        W72211   2.313  13.841   3.267
  486W        W72212  14.606  20.313   2.213
  487W        W72213  28.993  33.400   3.724
  488W        W72214   3.369   0.448  11.690
  489W        W72215  34.304  34.972   0.733
  490W        W72216  12.252  21.463  14.036
  491W        W72217  14.824  22.791  12.103
  492W        W72218   7.360  16.363   2.998
  493W        W72219  28.407   5.114  13.365
  494W        W72220  11.403  16.431  11.554
  495W        W72221  42.893   6.340  12.669
  496W        W72222   3.890   7.694  12.947
  497W        W72223   9.928  44.811   0.056
  498W        W72224  41.492  20.408  13.920
  499W        W72225   7.273  38.885  14.481
  500W        W72226   6.652  10.675  14.670
  501W        W72227  26.661   5.766  11.023
  502W        W72228  36.478  20.983  12.423
  503W        W72229  40.781  12.686   2.272
  504W        W72230   9.753   0.448  11.597
  505W        W72231  15.694  27.417   3.712
  506W        W72232  30.053  36.428   1.728
  507W        W72233  31.350  21.978  14.293
  508W        W72234  36.010  33.697   3.016
  509W        W72235  11.681   7.373   3.695
  510W        W72236   1.125  42.944  11.994
  511W        W72237  21.609  12.007  11.213
  512W        W72238  21.875  27.857   0.707
  513W        W72239  24.488  34.173  11.119
  514W        W72240  19.671  25.642   3.608
  515W        W72241  35.366   7.268   2.842
  516W        W72242   9.328  23.899   3.309
  517W        W72243  36.592  22.681   3.656
  518W        W72244   7.383  24.280   3.307
  519W        W72245  29.147   8.438  13.886
  520W        W72246  27.054  42.686   2.631
  521W        W72247  16.057  15.242  10.494
  522W        W72248  10.552  39.555   2.630
  523W        W72249  20.061  40.835   4.710
  524W        W72250  26.067  32.607   3.622
  525W        W72251   2.883  20.775  10.419
  526W        W72252  22.095  28.174   4.071
  527W        W72253  40.348  43.989   0.151
  528W        W72254  15.762  34.475   0.218
  529W        W72255  11.150   2.975   2.867
  530W        W72256  21.169   0.375  14.967
  531W        W72257  38.846  26.947  10.599
  532W        W72258  11.715  36.417  10.891
  533W        W72259   5.850  21.290  10.716
  534W        W72260  32.373   1.833  13.445
  535W        W72261  44.421  38.759   3.903
  536W        W72262  18.495  21.067   4.625
  537W        W72263  12.115  24.088  12.542
  538W        W72264   0.781  19.092   2.403
  539W        W72265  30.433  41.280  10.997
  540W        W72266   3.021  21.729   1.676
  541W        W72267  36.048  29.965  10.946
  542W        W72268  29.681  23.493  12.770
  543W        W72269  22.677  11.869  13.223
  544W        W72270  36.395  25.591   3.850
  545W        W72271  21.061   7.912  12.983
  546W        W72272  41.507  15.826  10.924
  547W        W72273  33.846  12.809  14.359
  548W        W72274  44.732  31.468  11.161
  549W        W72275   2.349  18.222   3.714
  550W        W72276  39.912  13.617  13.603
  551W        W72277  43.802  21.039  11.577
  552W        W72278   2.787  19.295   0.977
  553W        W72279   3.032   1.782  11.525
  554W        W72280   1.795  33.601  11.044
  555W        W72281   3.736  44.873  13.616
  556W        W72282  30.013  13.130  11.631
  557W        W72283  14.763  27.459  10.571
  558W        W72284  11.128  19.219  11.832
  559W        W72285  34.058  40.101   0.395
  560W        W72286  22.782  35.094   2.748
  561W        W72287   7.931   1.520  13.837
  562W        W72288  37.631  14.643  13.478
  563W        W72289  26.971   2.235   2.676
  564W        W72290  30.645   7.317  10.710
  565W        W72291  24.433  44.629   3.355
  566W        W72292  21.516  25.934  13.807
  567W        W72293  29.743  33.378   0.881
  568W        W72294   5.823  21.830   4.174
  569W        W72295  17.220   2.473  12.481
  570W        W72296  19.608   8.045  11.114
  571W        W72297  15.032   9.242  14.723
  572W        W72298  36.387  13.107  12.462
  573W        W72299   0.457   0.414  13.940
  574W        W72300  21.731  20.143  13.989
  575W        W72301  31.678   4.271   4.411
  576W        W72302  39.537  21.509   3.253
  577W        W72303   7.368  41.951  10.738
  578W        W72304  30.449  34.146  11.564
  579W        W72305   5.532  36.814   0.504
  580W        W72306   9.243  29.213   1.496
  581W        W72307  37.429   7.603   2.299
  582W        W72308  26.595   0.199   3.123
  583W        W72309  21.311  31.033   4.127
  584W        W72310  21.120  31.873  14.203
  585W        W72311  42.907  22.494   0.818
  586W        W72312  42.034  35.807   0.878
  587W        W72313  43.949  32.942   1.606
  588W        W72314   6.514  31.732  12.841
  589W        W72315  19.635  38.592  11.996
  590W        W72316  29.501   2.530  12.139
  591W        W72317  43.210  35.555  12.098
  592W        W72318  44.046  38.825   2.182
  593W        W72319  44.015   9.385  14.482
  594W        W72320  37.753  35.145   2.318
  595W        W72321   1.515  12.785  13.934
  596W        W72322   9.151  26.808  14.933
  597W        W72323  43.578  33.492  11.470
  598W        W72324  21.178   5.622  12.074
  599W        W72325  42.258  16.000  14.800
  600W        W72326  33.960  32.120   3.254
  601W        W72327  10.057  24.222  13.789
  602W        W72328  26.396  38.129  12.608
  603W        W72329  44.665  17.800   4.098
  604W        W72330  29.615   4.766  14.923
  605W        W72331  24.448  25.596  12.823
  606W        W72332  28.012  35.432  14.029
  607W        W72333  16.666  43.058   2.890
  608W        W72334  44.517  25.013   4.127
  609W        W72335   2.745  43.029   3.665
  610W        W72336  36.538   4.797   4.085
  611W        W72337  33.463  44.600   4.333
  612W        W72338  11.644  10.745   4.517
  613W        W72339  28.578  37.394   1.591
  614W        W72340  41.048  27.242  11.104
  615W        W72341   6.680   4.458   4.200
  616W        W72342  15.623  22.435  13.032
  617W        W72343   2.910  21.509  12.145
  618W        W72344   0.963  14.719  13.938
  619W        W72345   8.953  31.972  11.603
  620W        W72346   4.421  43.873   0.447
  621W        W72347  31.520  30.160  13.353
  622W        W72348  10.258  21.930  14.929
  623W        W72349  20.291  25.501  12.757
  624W        W72350   7.267   6.079  10.695
  625W        W72351  31.746  29.080  10.638
  626W        W72352  18.827  25.953   3.292
  627W        W72353  41.771   8.443   1.774
  628W        W72354  39.025  11.611   1.128
  629W        W72355   6.680  16.033  11.154
  630W        W72356  34.360  11.758  11.140
  631W        W72357  10.490  39.043   1.667
  632W        W72358   1.400  23.662  11.775
  633W        W72359  15.439  41.844  14.485
  634W        W72360   4.322  16.730  13.314
  635W        W72361  43.697  29.931  12.157
  636W        W72362  25.162  17.016   0.389
  637W        W72363  12.782   4.401   2.790
  638W        W72364  41.026  35.415  11.540
  639W        W72365  13.682  26.520  14.929
  640W        W72366  21.738  29.757   1.409
  641W        W72367   9.843  38.838   2.712
  642W        W72368  42.423  29.430  12.432
  643W        W72369   1.300  33.523  13.085
  644W        W72370   1.834  37.663  14.719
  645W        W72371  25.200  40.388   4.610
  646W        W72372  40.856  27.666  10.873
  647W        W72373  33.580  37.123  11.948
  648W        W72374  16.559  29.475   2.455
  649W        W72375  33.982   1.789  14.520
  650W        W72376   2.443  15.187   3.313
  651W        W72377  23.286  39.419  12.400
  652W        W72378  14.677  25.191  13.028
  653W        W72379  40.609  34.350  13.669
  654W        W72380  18.517   6.975   2.316
  655W        W72381  23.433  10.057   1.693
  656W        W72382   6.772  29.082  13.354
  657W        W72383  10.305  17.084   3.776
  658W        W72384  10.081  13.568  14.448
  659W        W72385  12.114  38.624   4.587
  660W        W72386  23.978   6.216  13.036
  661W        W72387  43.739   0.779   0.015
  662W        W72388  21.556  13.901   2.781
  663W        W72389  18.995   1.689   1.466
  664W        W72390  44.339  25.491  14.038
  665W        W72391  21.316   0.960  13.471
  666W        W72392  14.321  17.469   0.932
  667W        W72393  25.137  40.279  10.718
  668W        W72394  16.584  10.717   3.250
  669W        W72395  21.706  20.534   2.295
  670W        W72396  12.627  38.357   1.044
  671W        W72397  41.827  26.425   2.726
  672W        W72398  29.974  34.047   4.520
  673W        W72399   3.064   6.593  11.082
  674W        W72400  15.853  34.043   0.801
  675W        W72401  44.804   5.152   0.403
  676W        W72402  29.912  35.848   0.484
  677W        W72403  28.842  29.167   3.072
  678W        W72404  25.675  35.067   4.497
  679W        W72405  10.090  30.478   2.491
  680W        W72406  21.154  39.040  14.894
  681W        W72407  18.226  26.129   3.807
  682W        W72408  36.283   5.780   2.355
  683W        W72409  31.088   3.935   2.422
  684W        W72410  32.998  41.937   1.599
  685W        W72411  12.054  33.695  11.020
  686W        W72412  36.650  11.071  11.206
  687W        W72413   0.354  41.971   0.585
  688W        W72414   7.014   5.629  12.613
  689W        W72415  27.807  25.191  11.061
  690W        W72416  32.148  24.548  14.023
  691W        W72417   0.421  10.909   2.776
  692W        W72418  32.122  18.126  10.470
  693W        W72419  34.850  35.899   9.887
  694W        W72420  17.716   8.639  13.780
  695W        W72421  32.946  28.609  11.549
  696W        W72422  26.981   0.512   2.418
  697W        W72423   6.825  32.835  14.406
  698W        W72424  12.662  30.557  10.568
  699W        W72425  24.707  10.418  14.780
  700W        W72426   8.862  17.616   1.785
  701W        W72427   2.376  19.055  12.873
  702W        W72428   8.204  24.546  10.958
  703W        W72429  25.391   6.947  14.866
  704W        W72430  28.610  21.426  11.654
  705W        W72431  14.535  17.015  12.105
  706W        W72432  38.333  39.247   0.754
  707W        W72433  24.412  10.271   1.866
  708W        W72434  10.324  12.152  14.514
  709W        W72435  27.159   2.256  12.366
  710W        W72436   9.871  36.743   1.408
  711W        W72437  30.995  30.390  13.174
  712W        W72438  41.037  27.592  11.915
  713W        W72439  25.930   7.470  13.800
  714W        W72440  25.746  14.062   3.728
  715W        W72441  40.306  29.479   2.838
  716W        W72442  11.340  30.631  10.928
  717W        W72443  41.899  40.245  12.025
  718W        W72444  40.313   1.403   1.030
  719W        W72445  34.861  23.805   2.844
  720W        W72446  13.926  21.188  12.850
  721W        W72447  19.676  36.177   4.202
  722W        W72448  41.445  34.831  14.078
  723W        W72449   9.513  14.846   2.658
  724W        W72450  20.836  29.465   1.400
  725W        W72451  27.103  31.926  14.600
  726W        W72452  11.392  33.371   2.770
  727W        W72453  25.155  14.157  11.691
  728W        W72454  40.777  37.539   3.221
  729W        W72455  25.324  38.386  11.750
  730W        W72456  36.062   3.961   1.870
  731W        W72457  19.547  20.641   3.647
  732W        W72458  15.432  40.754   4.699
  733W        W72459  26.107  13.607  14.532
  734W        W72460  17.783   5.454   0.368
  735W        W72461  11.229   4.688  13.556
  736W        W72462  42.479  27.765  12.196
  737W        W72463   4.455   4.314   0.954
  738W        W72464  13.227  10.813  14.242
  739W        W72465  27.878  21.594  11.083
  740W        W72466  22.737   3.673   1.681
  741W        W72467  32.229  21.287  11.367
  742W        W72468   7.838  12.728   3.388
  743W        W72469   7.388  17.134   3.171
  744W        W72470  27.930  32.407   1.793
  745W        W72471  34.341  23.712   3.609
  746W        W72472  37.874  37.336   1.906
  747W        W72473  12.122  40.582   4.593
  748W        W72474  26.446  17.369   1.694
  749W        W72475  13.260   0.167   4.761
  750W        W72476  43.385  13.105  10.778
  751W        W72477   1.464   2.537  11.010
  752W        W72478  36.398  16.299  13.546
  753W        W72479  33.131  19.992  10.984
  754W        W72480  42.778   4.440   1.070
  755W        W72481  20.178  14.260  12.908
  756W        W72482  35.466  21.192   3.763
  757W        W72483  31.104   1.406  13.858
  758W        W72484  12.080  36.351   2.322
  759W        W72485  26.842  12.321   1.253
  760W        W72486   5.925   7.654  11.456
  761W        W72487  27.493  20.169   4.473
  762W        W72488  28.457  22.056   2.960
  763W        W72489  33.376   4.648   3.821
  764W        W72490  28.318   4.400   4.629
  765W        W72491  11.638  30.006   3.196
  766W        W72492  36.833  25.905  12.541
  767W        W72493  16.154   7.597  13.570
  768W        W72494  25.125  10.862   3.124
  769W        W72495   3.257  24.592   1.067
  770W        W72496  17.812  22.351   3.097
  771W        W72497   6.800   0.398  12.571
  772W        W72498  13.771  26.220  12.041
  773W        W72499  24.251  26.658  11.571
  774W        W72500  28.972  38.276  11.114
  775W        W72501  21.525   0.285   0.882
  776W        W72502   0.078  34.814  11.613
  777W        W72503  22.527  17.421   0.357
  778W        W72504   1.977  15.265   0.766
  779W        W72505   9.308  25.465  14.395
  780W        W72506  12.757  22.507  14.935
  781W        W72507   9.395  29.641   4.158
  782W        W72508  22.748  33.220   1.397
  783W        W72509   7.028   6.320  14.469
  784W        W72510  29.032   6.203   0.457
  785W        W72511  41.580   1.880   3.978
  786W        W72512  15.917  11.575   2.083
  787W        W72513  39.756  42.327   0.485
  788W        W72514   0.801   6.715  14.247
  789W        W72515   0.089  23.618   1.220
  790W        W72516   7.179  37.895   4.758
  791W        W72517   4.437  20.093   1.497
  792W        W72518  43.799  32.620   2.575
  793W        W72519  42.017  29.960   4.264
  794W        W72520  20.840  27.087   3.762
  795W        W72521   8.612  12.138   3.411
  796W        W72522   4.490  12.171  13.939
  797W        W72523  41.349  29.389  14.329
  798W        W72524   3.281  38.626   0.416
  799W        W72525   0.716  27.693   1.601
  800W        W72526  37.417  10.329   2.868
  801W        W72527  15.759  20.129  14.973
  802W        W72528  43.633  33.946   1.740
  803W        W72529   6.195   6.817   5.022
  804W        W72530  43.003  16.482  12.897
  805W        W72531  41.119  22.373  14.932
  806W        W72532  23.787  40.461   4.672
  807W        W72533  41.574  31.847  11.627
  808W        W72534  24.045  15.680   2.443
  809W        W72535  32.062   0.087  12.861
  810W        W72536  12.870  11.074  11.134
  811W        W72537   7.974  23.766  13.095
  812W        W72538  28.305  21.231  12.907
  813W        W72539  24.179   3.347   4.605
  814W        W72540   6.912  44.012  10.681
  815W        W72541  27.614  33.192  12.847
  816W        W72542  37.977  37.697   2.291
  817W        W72543  42.216  40.976  10.898
  818W        W72544  40.733  24.473   2.789
  819W        W72545  38.994   1.970   2.736
  820W        W72546  15.635   0.759   2.089
  821W        W72547  39.275  24.438   1.448
  822W        W72548  40.445  43.658   2.570
  823W        W72549  30.653   6.795  10.800
  824W        W72550   0.753  42.877   0.715
  825W        W72551  10.046  18.819  12.476
  826W        W72552   7.828  36.078   0.931
  827W        W72553   8.643  10.073  12.790
  828W        W72554  15.101  13.084   3.687
  829W        W72555   8.716  29.086  11.202
  830W        W72556  10.115  14.847  11.654
  831W        W72557  10.723   9.446   0.156
  832W        W72558  10.026   8.566  13.555
  833W        W72559  43.332   3.598  12.499
  834W        W72560  15.704   5.487   0.336
  835W        W72561   3.495  22.713   2.706
  836W        W72562   8.865  16.083   3.903
  837W        W72563   3.899  36.956  13.328
  838W        W72564  22.833  42.806   4.509
  839W        W72565  43.317  10.103   1.357
  840W        W72566  32.624   8.239   3.452
  841W        W72567   0.972  41.677  14.464
  842W        W72568  28.680  44.284   0.721
  843W        W72569  19.635  40.562  12.011
  844W        W72570   0.537   2.712   1.802
  845W        W72571  13.118  25.630   0.543
  846W        W72572  22.074   3.844  12.950
  847W        W72573  43.693  15.789  11.988
  848W        W72574  29.671  28.579  14.693
  849W        W72575  30.476   9.166  14.445
  850W        W72576  32.071   7.562  10.782
  851W        W72577   2.660  41.421   4.480
  852W        W72578   0.711  32.053   0.756
  853W        W72579   7.660  37.610  11.192
  854W        W72580  13.164  23.828  11.319
  855W        W72581  41.884  13.880  11.780
  856W        W72582  13.163  25.662  11.989
  857W        W72583  25.653  15.742  11.387
  858W        W72584  36.212  14.310   4.985
  859W        W72585  27.638  24.770  13.359
  860W        W72586  38.001  21.592   0.218
  861W        W72587  29.078  12.861   3.824
  862W        W72588   4.287  14.587  11.064
  863W        W72589  27.455  28.282   4.647
  864W        W72590  18.312  42.456   4.918
  865W        W72591   7.335  36.561   3.618
  866W        W72592  14.608  14.781  13.065
  867W        W72593  43.665  11.766  13.590
  868W        W72594  13.315  43.723  12.939
  869W        W72595  23.166  39.728   1.825
  870W        W72596   4.813   9.067  10.682
  871W        W72597   0.301  24.218  12.165
  872W        W72598  24.483   7.761   3.723
  873W        W72599   3.301  22.153  14.632
  874W        W72600  12.164  26.025  12.565
  875W        W72601  10.677  30.415  11.156
  876W        W72602  29.385   1.951   0.377
  877W        W72603  40.593  25.693  14.523
  878W        W72604   9.087  23.586   1.177
  879W        W72605  29.616  35.555   3.826
  880W        W72606  20.017  37.482   4.602
  881W        W72607   4.919  41.301   1.402
  882W        W72608  11.588  35.498   2.786
  883W        W72609  36.045  17.143  12.302
  884W        W72610  36.288  22.125   2.905
  885W        W72611  22.787   7.729  14.982
  886W        W72612  40.065  44.862   4.768
  887W        W72613  30.121   0.488   0.436
  888W        W72614  23.005  28.367   9.681
  889W        W72615   9.359  26.751  13.973
  890W        W72616   5.914  13.267  14.899
  891W        W72617  39.319  26.646  12.109
  892W        W72618   3.983  27.210  14.507
  893W        W72619  35.774  26.040  11.412
  894W        W72620  10.240   0.362   0.290
  895W        W72621  19.630  40.918   4.367
  896W        W72622  10.493  24.985   5.006
  897W        W72623  34.623  33.217   1.987
  898W        W72624  28.933   7.838   2.336
  899W        W72625  38.108  39.873   0.543
  900W        W72626  29.575  35.516  10.455
  901W        W72627  29.363  21.980  14.460
  902W        W72628  18.492   6.114  11.096
  903W        W72629   9.844  17.661  14.830
  904W        W72630  29.253  40.320   3.683
  905W        W72631  37.302   6.950  14.011
  906W        W72632  27.637  28.894   3.712
  907W        W72633  43.810   6.369   3.215
  908W        W72634  12.720   7.264   3.344
  909W        W72635  42.073   1.923   1.145
  910W        W72636  38.542   0.456   0.306
  911W        W72637  14.687   1.449  14.366
  912W        W72638   2.830  33.204  11.108
  913W        W72639  10.415  12.316  10.790
  914W        W72640  26.950  17.259   1.835
  915W        W72641  20.139   7.822  14.027
  916W        W72642  31.103  25.791   3.340
  917W        W72643  35.601  19.142   4.252
  918W        W72644  18.748  14.088   0.770
  919W        W72645  41.914  15.173   3.082
  920W        W72646  24.460  11.734   4.181
  921W        W72647   4.724  32.944   4.595
  922W        W72648  39.445  17.193  10.722
  923W        W72649  16.581  23.446   0.305
  924W        W72650   9.558  23.050   3.777
  925W        W72651   9.352  32.950  11.541
  926W        W72652  27.438  19.269  11.537
  927W        W72653  25.206  40.129  12.368
  928W        W72654  37.984   1.914   3.980
  929W        W72655  39.966  40.629   0.807
  930W        W72656   9.393  35.405  10.859
  931W        W72657  38.086  36.479  13.313
  932W        W72658  10.391   3.410   3.751
  933W        W72659  17.370  15.812   3.416
  934W        W72660   4.189   3.408   4.135
  935W        W72661  42.388  16.335  12.562
  936W        W72662  40.895  41.385   2.229
  937W        W72663  42.243  14.170   0.430
  938W        W72664  19.756  30.178   0.721
  939W        W72665  40.036  32.844   1.758
  940W        W72666  25.616  14.604   2.755
  941W        W72667  37.054  12.598  12.580
  942W        W72668  14.146  36.826  11.058
  943W        W72669  12.861   2.511  11.047
  944W        W72670  16.862  43.125   4.186
  945W        W72671  32.641  44.490   5.824
  946W        W72672  28.613  17.748   0.234
  947W        W72673  13.804  32.619  12.795
  948W        W72674  42.851  41.592   1.749
  949W        W72675   1.783  38.498  13.122
  950W        W72676  34.346  19.698   0.546
  951W        W72677  12.186  30.321   2.355
  952W        W72678  33.464  15.001   3.132
  953W        W72679   5.014  32.091   3.684
  954W        W72680  25.652   1.989  12.182
  955W        W72681  40.871  10.757  13.313
  956W        W72682   6.934  25.970  14.556
  957W        W72683  26.230  38.478  14.973
  958W        W72684   6.976  14.724   5.170
  959W        W72685  27.520   5.457   4.729
  960W        W72686   3.108   7.753   2.591
  961W        W72687  18.043  11.166   0.045
  962W        W72688   1.826   3.923   2.701
  963W        W72689  21.485  18.251  12.039
  964W        W72690  23.241  11.840   2.651
  965W        W72691  20.776  21.675  11.145
  966W        W72692  34.155  32.518  11.968
  967W        W72693  44.894  15.821  14.347
  968W        W72694   3.197  44.942  10.424
  969W        W72695   5.369  20.049   1.919
  970W        W72696  11.142  28.207   0.818
  971W        W72697   9.390  33.120  12.053
  972W        W72698   6.525  15.135  13.797
  973W        W72699  41.928  28.917  13.881
  974W        W72700   1.506  20.641   3.251
  975W        W72701  24.536  23.455   2.232
  976W        W72702   6.734  15.784   1.938
  977W        W72703  10.609   3.273  12.398
  978W        W72704  37.821  15.246  12.816
  979W        W72705  16.179   6.295  13.925
  980W        W72706   1.902  16.544  12.084
  981W        W72707   9.402  21.224  13.776
  982W        W72708  11.196  32.112  14.442
  983W        W72709  18.530  34.813  13.013
  984W        W72710  41.561  42.500  12.105
  985W        W72711  42.978  13.446  10.689
  986W        W72712  10.116   6.154   0.530
  987W        W72713  35.073  11.548   0.837
  988W        W72714  31.647  32.650  14.910
  989W        W72715   3.438  35.627   1.778
  990W        W72716   1.444   7.950  12.344
  991W        W72717  15.639  41.923   1.747
  992W        W72718  34.928  15.252   2.851
  993W        W72719  28.738  22.752   0.388
  994W        W72720  16.720   6.536   4.595
  995W        W72721  14.066   2.212  11.906
  996W        W72722  40.604   1.547   1.906
  997W        W72723   9.608  12.614   4.239
  998W        W72724  38.981  24.146  13.785
  999W        W72725  41.979  40.904  14.408
 1000W        W72726  37.186  40.339  11.153
 1001W        W72727  31.403  40.291   0.425
 1002W        W72728  12.955   4.188  10.772
 1003W        W72729   6.192  32.665   1.113
 1004W        W72730  14.674  22.612  10.150
 1005W        W72731  13.740  20.786   4.308
 1006W        W72732  25.985  36.945   0.321
 1007W        W72733   4.499  17.643  10.874
 1008W        W72734  23.222  19.268   4.562
 1009W        W72735  31.199   2.809  13.717
 1010W        W72736  11.757  22.984   4.838
 1011W        W72737  19.475  38.774  11.095
 1012W        W72738  23.541  37.686  14.813
 1013W        W72739  10.092   6.358  10.636
 1014W        W72740  34.386  42.895  14.220
 1015W        W72741  31.220   7.249  13.914
 1016W        W72742   0.833  21.284  10.065
 1017W        W72743   5.188  41.434   0.331
 1018W        W72744  15.577  31.160  10.473
 1019W        W72745  36.502  44.821   2.694
 1020W        W72746  24.225  32.432  11.132
 1021W        W72747  29.005  21.746   4.646
 1022W        W72748  19.114   0.580  12.486
 1023W        W72749  25.609  19.151   0.339
 1024W        W72750  23.173  15.177   4.100
 1025W        W72751  10.329  39.584   0.803
 1026W        W72752  44.311  34.669  11.705
 1027W        W72753  42.831  38.006   3.146
 1028W        W72754  31.737  19.078   0.867
 1029W        W72755  21.726  21.808  14.438
 1030W        W72756  39.138  11.315  12.088
 1031W        W72757  29.846  23.058   2.373
 1032W        W72758  38.149   2.715   0.797
 1033W        W72759  34.367   7.325  11.155
 1034W        W72760  36.331  41.586  11.915
 1035W        W72761  15.079  44.748   4.198
 1036W        W72762  25.372  19.032   1.126
 1037W        W72763   5.947   2.015  12.902
 1038W        W72764  25.893   6.288   4.508
 1039W        W72765  31.646  38.613  10.879
 1040W        W72766  32.930   6.459  11.433
 1041W        W72767  14.348  41.124   3.445
 1042W        W72768  28.351  37.514  13.234
 1043W        W72769  43.955  41.506   4.888
 1044W        W72770  30.239  16.790  11.805
 1045W        W72771  22.129  42.987  14.485
 1046W        W72772   6.451  35.447   2.765
 1047W        W72773  29.060  33.179   4.554
 1048W        W72774  38.884  10.330   1.282
 1049W        W72775  13.610   0.971   3.134
 1050W        W72776  41.973  16.035  12.608
 1051W        W72777  33.472  31.755   4.916
 1052W        W72778  23.029   4.620   3.024
 1053W        W72779  44.414  38.677  12.101
 1054W        W72780   0.569  16.269  12.598
 1055W        W72781  15.236  25.174   2.570
 1056W        W72782  20.777   6.370  14.999
 1057W        W72783  35.276   6.646  11.914
 1058W        W72784  26.086  13.084   2.215
 1059W        W72785   0.455  32.314  13.368
 1060W        W72786  31.454  31.914  13.846
 1061W        W72787  43.991  32.445   0.264
 1062W        W72788  43.268  21.603  12.454
 1063W        W72789  37.400   7.210   1.502
 1064W        W72790  43.296  37.676   3.687
 1065W        W72791   8.583  19.205  13.865
 1066W        W72792  31.405   9.889   0.718
 1067W        W72793  35.096   5.261   0.826
 1068W        W72794  22.505   9.655   2.575
 1069W        W72795  22.495  40.979   2.449
 1070W        W72796  41.827  12.415   0.795
 1071W        W72797  36.424   1.883   2.396
 1072W        W72798  19.353  30.711  11.397
 1073W        W72799  20.637  20.239   0.494
 1074W        W72800   0.489  24.794   4.669
 1075W        W72801   1.116  43.758  13.768
 1076W        W72802  27.410  40.071  14.171
 1077W        W72803   6.190  43.645  12.118
 1078W        W72804  12.089  16.435   2.716
 1079W        W72805  26.154  27.925   4.278
 1080W        W72806   4.706  38.055   3.386
 1081W        W72807  40.339   9.902   4.868
 1082W        W72808  15.073  21.167   0.364
 1083W        W72809  15.200  39.482   4.399
 1084W        W72810  43.452  27.728  14.553
 1085W        W72811  13.024  18.612  14.834
 1086W        W72812  42.050   9.578  12.466
 1087W        W72813  26.690  20.714   2.303
 1088W        W72814  31.656  36.393  11.406
 1089W        W72815   7.313  41.308   1.317
 1090W        W72816  11.851  44.453   1.920
 1091W        W72817  33.636  24.620   0.792
 1092W        W72818  27.019   0.697  12.152
 1093W        W72819   6.247   1.357   1.764
 1094W        W72820  27.618  36.090  13.390
 1095W        W72821  26.755  38.562  14.948
 1096W        W72822  14.552  28.506   3.216
 1097W        W72823  25.032  37.044   1.754
 1098W        W72824  23.100  12.906  14.774
 1099W        W72825  12.707   5.742   4.466
 1100W        W72826   1.753  24.197  14.432
 1101W        W72827  16.577   3.954  12.065
 1102W        W72828  19.957   6.354   3.641
 1103W        W72829   0.779  44.175  12.520
 1104W        W72830  14.321  37.599  10.547
 1105W        W72831  27.999   5.686   2.254
 1106W        W72832  36.657  10.885  12.535
 1107W        W72833  16.553  36.863  12.569
 1108W        W72834  43.085  18.983   4.963
 1109W        W72835  44.506  44.258   3.428
 1110W        W72836  38.053   4.360  11.548
 1111W        W72837  41.019  21.315  14.448
 1112W        W72838  32.020  35.829  10.964
 1113W        W72839   4.966  21.743   0.005
 1114W        W72840  37.356  17.296  11.174
 1115W        W72841   0.771  31.502   2.722
 1116W        W72842  37.032   8.975   1.365
 1117W        W72843  15.839   4.658  10.618
 1118W        W72844  10.780  25.757  10.145
 1119W        W72845  21.515  39.422   0.303
 1120W        W72846  30.147  28.021   3.254
 1121W        W72847  19.794  38.186   2.262
 1122W        W72848   5.572   3.470  11.139
 1123W        W72849  44.543  33.666  12.493
 1124W        W72850  36.488  33.636   0.766
 1125W        W72851  23.646  22.247   2.910
 1126W        W72852  19.696  13.279   4.701
 1127W        W72853  34.532   8.422  14.419
 1128W        W72854  30.345  34.000   1.304
 1129W        W72855  18.080  38.996   1.185
 1130W        W72856  30.109  29.698  11.958
 1131W        W72857  12.123   2.339   1.381
 1132W        W72858  21.768  25.246   0.758
 1133W        W72859   1.980   4.297   3.997
 1134W        W72860  16.049  23.864   2.419
 1135W        W72861  27.484   3.728   4.419
 1136W        W72862  25.964  39.066  11.628
 1137W        W72863  42.462  17.115  11.481
 1138W        W72864   7.878   7.694   4.055
 1139W        W72865  35.577   5.818  11.908
 1140W        W72866  44.368  40.417   2.383
 1141W        W72867  33.355   8.229  11.200
 1142W        W72868  18.069  28.594  11.232
 1143W        W72869  28.690  36.374  14.027
 1144W        W72870  24.904   0.157  10.077
 1145W        W72871  28.829  38.585   1.344
 1146W        W72872  35.757  14.850  10.711
 1147W        W72873  12.556   8.608  12.525
 1148W        W72874  37.918  27.286  12.295
 1149W        W72875  42.895  16.259  11.394
 1150W        W72876  24.349  31.817  14.288
 1151W        W72877  44.946   8.139   3.688
 1152W        W72878   7.629   1.846   3.739
 1153W        W72879   8.698  11.871   2.975
 1154W        W72880  36.517  12.222  14.709
 1155W        W72881  37.524   5.417  12.044
 1156W        W72882  18.706  17.258   1.325
 1157W        W72883  17.622  24.997   1.882
 1158W        W72884   1.904  35.410  12.864
 1159W        W72885  23.731  10.697   4.152
 1160W        W72886  20.125  30.465  13.932
 1161W        W72887  14.770  11.720  12.474
 1162W        W72888  42.192  18.177   3.137
 1163W        W72889  31.919  20.043  11.996
 1164W        W72890  25.477   8.225  14.979
 1165W        W72891  14.033  35.614  11.915
 1166W        W72892  19.726  31.564   4.410
 1167W        W72893   3.360   1.900  11.143
 1168W        W72894  32.374  42.755  11.987
 1169W        W72895   0.563   1.819  13.851
 1170W        W72896   5.586  12.879  12.014
 1171W        W72897   2.893  35.054  10.771
 1172W        W72898   5.179   0.080  14.359
 1173W        W72899  37.923  25.456  11.964
 1174W        W72900  43.806  43.999   1.283
 1175W        W72901   8.894  35.810  12.227
 1176W        W72902  19.245  18.235   0.420
 1177W        W72903  27.393  35.116  13.564
 1178W        W72904  13.543  10.306  10.909
 1179W        W72905  44.723  22.819   4.099
 1180W        W72906   6.089  10.653  10.577
 1181W        W72907  13.711  17.754   1.208
 1182W        W72908  23.552  36.344   4.852
 1183W        W72909  18.795  18.672   3.621
 1184W        W72910  23.986  27.496   3.996
 1185W        W72911  22.646   2.514  10.560
 1186W        W72912   6.982  23.160   1.717
 1187W        W72913  41.832   7.075  14.568
 1188W        W72914  13.950  37.395  14.293
 1189W        W72915  15.724   7.313  13.772
 1190W        W72916   2.296  24.194  14.236
 1191W        W72917  10.377  37.138   2.180
 1192W        W72918   9.153  11.839   0.772
 1193W        W72919  25.662  21.645   4.868
 1194W        W72920   5.421   7.813  14.162
 1195W        W72921  29.502  28.863   0.393
 1196W        W72922  26.641  35.617  12.996
 1197W        W72923  23.758  34.570   2.640
 1198W        W72924  21.578  15.722   5.174
 1199W        W72925  43.498   7.940  12.454
 1200W        W72926  42.000  44.385  10.346
 1201W        W72927  11.829  28.709   1.822
 1202W        W72928  17.634   6.195  10.908
 1203W        W72929  34.631  15.096  14.811
 1204W        W72930   3.476   6.403   0.699
 1205W        W72931  21.236  28.175  14.977
 1206W        W72932   2.953  23.226   1.874
 1207W        W72933   5.281  40.403   3.060
 1208W        W72934  20.248  30.387  14.869
 1209W        W72935  26.160  35.900   1.269
 1210W        W72936  20.056  13.561   0.811
 1211W        W72937  10.193  23.029   1.356
 1212W        W72938  24.128   7.489   2.257
 1213W        W72939  42.496  29.216   2.778
 1214W        W72940  26.658   5.286   4.589
 1215W        W72941   4.833  34.100  13.394
 1216W        W72942  27.621  26.370   3.687
 1217W        W72943  23.515  21.643   0.846
 1218W        W72944  17.359  12.268  11.194
 1219W        W72945   7.614  40.862   1.369
 1220W        W72946  22.700  43.916  14.708
 1221W        W72947   6.810   8.126  14.848
 1222W        W72948  22.345   1.749   4.716
 1223W        W72949  15.529  25.950   3.700
 1224W        W72950  37.564   5.948   1.796
 1225W        W72951   4.904   8.689  13.535
 1226W        W72952  30.616  33.951   2.745
 1227W        W72953  12.676  42.911   2.692
 1228W        W72954  18.894  40.103   3.573
 1229W        W72955  44.396  37.966  10.902
 1230W        W72956   5.302  21.490  11.114
 1231W        W72957  34.486  34.129  14.270
 1232W        W72958  29.168  17.820  12.738
 1233W        W72959  26.488  39.614   2.087
 1234W        W72960   7.197   5.934  11.801
 1235W        W72961  12.387  10.911  12.324
 1236W        W72962  17.157  11.945   0.318
 1237W        W72963  33.091  22.814  13.385
 1238W        W72964   8.700  20.119  13.034
 1239W        W72965  33.539  23.563  11.470
 1240W        W72966  16.014  22.621   0.892
 1241W        W72967  22.161  44.091   1.254
 1242W        W72968   1.953  39.780   1.950
 1243W        W72969  42.806  34.807   3.647
 1244W        W72970   8.868  36.409  14.537
 1245W        W72971  40.875   0.927   1.236
 1246W        W72972   5.954  26.842   2.995
 1247W        W72973   1.192  42.676  12.423
 1248W        W72974   7.421  26.563   0.778
 1249W        W72975  36.486  34.818   3.093
 1250W        W72976  20.486  23.286   4.728
 1251W        W72977  15.101  21.580  11.121
 1252W        W72978   8.452   1.801  13.614
 1253W        W72979  15.771   4.058  11.631
 1254W        W72980  23.480  10.367   3.105
 1255W        W72981  35.815  14.126   1.305
 1256W        W72982  32.187  19.744  14.465
 1257W        W72983  43.511  25.643  12.368
 1258W        W72984  18.003   7.699  12.550
 1259W        W72985  23.394   4.859   0.709
 1260W        W72986  30.193  37.937  11.637
 1261W        W72987   8.213   5.676  10.153
 1262W        W72988  17.287  33.673   3.912
 1263W        W72989  30.536  20.839   3.307
 1264W        W72990  15.908   5.113   0.053
 1265W        W72991   8.308  13.095  14.406
 1266W        W72992  24.616   1.123   9.796
 1267W        W72993  12.181   7.338   4.295
 1268W        W72994   9.221  36.562  10.598
 1269W        W72995   6.127  27.453   2.606
 1270W        W72996   8.750  36.560  11.896
 1271W        W72997  29.649  42.478   3.571
 1272W        W72998  13.314  35.914  13.029
 1273W        W72999  22.597  30.899  11.619
 1274W        W73000   8.288  13.366  13.930
 1275W        W73001   1.303  29.928  10.677
 1276W        W73002  20.025  41.600  13.972
 1277W        W73003   7.290  35.485   2.014
 1278W        W73004  12.089  28.923   1.334
 1279W        W73005  20.822   6.195  12.906
 1280W        W73006  24.967  20.270  10.723
 1281W        W73007   2.579  30.030   4.738
 1282W        W73008  17.219   4.874   0.340
 1283W        W73009   9.393  41.883  13.355
 1284W        W73010  41.749   4.373   2.716
 1285W        W73011  34.121  11.142   0.758
 1286W        W73012  23.693  38.937  13.207
 1287W        W73013  19.959  15.383  12.080
 1288W        W73014  19.099  27.604  13.920
 1289W        W73015   3.647  16.388   4.276
 1290W        W73016  34.596  10.287   2.344
 1291W        W73017  11.732   6.744   2.653
 1292W        W73018  41.049   1.863  12.038
 1293W        W73019  36.602  20.835   1.217
 1294W        W73020  16.877  30.138   3.861
 1295W        W73021  32.540  17.571  11.344
 1296W        W73022  23.261  34.024  13.423
 1297W        W73023  30.815  25.636   4.577
 1298W        W73024   7.396  22.142  13.301
 1299W        W73025  12.939  43.294  13.991
 1300W        W73026  29.608   4.012  12.578
 1301W        W73027  39.604   4.019   1.385
 1302W        W73028  39.519  14.810   4.408
 1303W        W73029   8.732   6.090  10.653
 1304W        W73030  28.683  36.037   2.876
 1305W        W73031  18.074  37.388  11.030
 1306W        W73032   1.811  17.692  14.442
 1307W        W73033  14.085  10.859   0.802
 1308W        W73034  10.242  31.255   3.618
 1309W        W73035  36.361  17.051  14.959
 1310W        W73036  31.895   3.296   4.596
 1311W        W73037  33.101  15.269   3.767
 1312W        W73038   8.290  43.869   4.998
 1313W        W73039  24.105  41.043   2.793
 1314W        W73040  26.603  27.642   4.446
 1315W        W73041   8.262  25.552   0.928
 1316W        W73042  15.512  20.679   5.081
 1317W        W73043  20.502  26.147   1.775
 1318W        W73044   3.302  20.054  12.427
 1319W        W73045  20.951  30.930   4.624
 1320W        W73046   2.601   8.616  14.709
 1321W        W73047  16.033  22.566   4.599
 1322W        W73048  27.065   0.186  12.031
 1323W        W73049  31.264  25.544  12.420
 1324W        W73050   4.924  43.381   2.236
 1325W        W73051  35.373  30.108   2.895
 1326W        W73052  19.036   8.777  12.040
 1327W        W73053  30.908  10.325  14.537
 1328W        W73054  22.985   0.737   2.322
 1329W        W73055   6.859   1.735  11.163
 1330W        W73056   0.790  31.241   1.730
 1331W        W73057   1.745  25.218   1.281
 1332W        W73058  23.101  32.055   0.974
 1333W        W73059   4.304  40.183  12.809
 1334W        W73060   7.360  14.196  13.039
 1335W        W73061   4.403  22.859  12.703
 1336W        W73062  43.305  28.506   0.667
 1337W        W73063   9.767  23.993   0.478
 1338W        W73064  18.743  37.839  10.397
 1339W        W73065  23.068  19.976   3.847
 1340W        W73066   5.179  22.435  12.043
 1341W        W73067  16.830   6.242  14.818
 1342W        W73068  12.216  31.037   4.687
 1343W        W73069   4.612   1.503   4.517
 1344W        W73070  25.767  15.199   4.265
 1345W        W73071  31.092  34.004   0.872
 1346W        W73072  14.860   1.430  10.708
 1347W        W73073   8.869  32.320  10.331
 1348W        W73074   2.438  35.319  10.700
 1349W        W73075  16.282   8.244   3.349
 1350W        W73076  38.993  40.449  13.370
 1351W        W73077  42.441  32.020  13.775
 1352W        W73078  26.515  23.570  14.168
 1353W        W73079   9.036  32.156   1.397
 1354W        W73080  25.177  14.324   1.330
 1355W        W73081   3.037  34.352   0.014
 1356W        W73082  31.902  26.795   3.289
 1357W        W73083  22.982  26.578  11.504
 1358W        W73084  21.110  24.803   0.848
 1359W        W73085  20.262   7.721  14.835
 1360W        W73086  15.278  16.833   3.410
 1361W        W73087  12.352  31.090  10.573
 1362W        W73088   7.667  15.064   2.039
 1363W        W73089  43.114  32.762  11.672
 1364W        W73090  31.187   3.530  13.289
 1365W        W73091  25.159   2.068   2.799
 1366W        W73092  34.089   3.118  14.861
 1367W        W73093   0.999  17.752   3.675
 1368W        W73094   0.358   6.975  14.256
 1369W        W73095  13.314  11.398   2.633
 1370W        W73096  22.267  34.498  11.538
 1371W        W73097  19.613  41.088  14.516
 1372W        W73098  20.267   1.870  10.104
 1373W        W73099  14.889  12.484   2.451
 1374W        W73100   5.205  11.675   0.897
 1375W        W73101  10.994  14.422   0.801
 1376W        W73102  16.107  14.168   4.753
 1377W        W73103   8.134  22.761  12.149
 1378W        W73104   4.712  20.288  11.081
 1379W        W73105  15.992  33.040  12.484
 1380W        W73106  34.144   9.098   4.187
 1381W        W73107  22.979  23.526   1.913
 1382W        W73108  30.150   8.450   1.873
 1383W        W73109   3.682   0.262   4.594
 1384W        W73110  34.047  40.784  13.583
 1385W        W73111  35.293  44.214  13.216
 1386W        W73112  36.837  18.576   2.229
 1387W        W73113   6.761  39.673   0.293
 1388W        W73114  36.973   7.421  14.772
 1389W        W73115  30.511  11.960   4.759
 1390W        W73116  29.124  20.006   2.323
 1391W        W73117  14.519  33.037   2.258
 1392W        W73118  18.645  26.028   4.612
 1393W        W73119  29.450  10.625  11.252
 1394W        W73120  35.612  13.679   0.064
 1395W        W73121   4.726  17.131   2.565
 1396W        W73122  22.379   0.074   2.183
 1397W        W73123   2.514  11.067   2.213
 1398W        W73124  43.205  27.430   4.569
 1399W        W73125  31.607  28.170  12.090
 1400W        W73126   4.035   6.766   5.416
 1401W        W73127  30.440  41.935  12.756
 1402W        W73128  30.704  32.023   0.762
 1403W        W73129  32.201  28.146  13.760
 1404W        W73130   3.624  41.578  12.783
 1405W        W73131   7.438  29.140  14.536
 1406W        W73132   1.279  36.567  14.428
 1407W        W73133  26.037  31.078   4.678
 1408W        W73134  24.041   3.201  10.176
 1409W        W73135  24.880  10.044   2.723
 1410W        W73136  18.013  14.395   1.864
 1411W        W73137  13.306  32.168   4.194
 1412W        W73138  19.786  35.070   0.702
 1413W        W73139  21.539  38.799   4.138
 1414W        W73140  22.073   3.365  13.607
 1415W        W73141  25.000  20.130  11.630
 1416W        W73142  11.276   8.170   0.233
 1417W        W73143  23.151   1.311  14.523
 1418W        W73144  37.024  17.642  13.818
 1419W        W73145   3.417  38.356   3.271
 1420W        W73146   2.250  18.587  12.642
 1421W        W73147  33.826  33.750   1.357
 1422W        W73148  44.578  22.449  12.503
 1423W        W73149  37.863  30.174  12.519
 1424W        W73150  17.312  41.579  12.436
 1425W        W73151   4.434  28.668  12.845
 1426W        W73152  13.363  42.309   0.954
 1427W        W73153  25.581  29.716   1.173
 1428W        W73154  29.110  44.416   0.990
 1429W        W73155  32.652  15.790   1.776
 1430W        W73156  39.592  30.423   0.757
 1431W        W73157  11.576  14.750   4.301
 1432W        W73158  33.624   3.453  11.983
 1433W        W73159  29.914  44.069   2.845
 1434W        W73160  23.515  30.603   3.106
 1435W        W73161  21.046  42.498   3.816
 1436W        W73162   7.900  34.549   2.222
 1437W        W73163  32.857  16.682   3.140
 1438W        W73164  36.547  40.460   1.327
 1439W        W73165  35.953  40.960  14.784
 1440W        W73166   9.691  34.459  13.173
 1441W        W73167  39.063  21.070   0.492
 1442W        W73168  10.555  40.442   1.971
 1443W        W73169  19.572  13.282  14.151
 1444W        W73170  23.328  25.190  12.051
 1445W        W73171  22.641  22.516  10.181
 1446W        W73172  24.992  31.222   4.276
 1447W        W73173  35.530  32.843  14.837
 1448W        W73174  31.942  23.678   0.996
 1449W        W73175   8.935  11.382   0.947
 1450W        W73176  20.325  41.795  13.039
 1451W        W73177  31.427  14.309  10.655
 1452W        W73178   1.343   7.416   4.264
 1453W        W73179  34.418  12.398   1.918
 1454W        W73180  39.346  39.853   0.876
 1455W        W73181  42.466  28.185  14.924
 1456W        W73182  16.693  26.254   1.052
 1457W        W73183  39.089   1.536   1.747
 1458W        W73184   3.493  16.635   2.819
 1459W        W73185  18.563  17.163  11.576
 1460W        W73186  37.319  18.075  12.979
 1461W        W73187  16.571  27.657   1.423
 1462W        W73188  36.848  40.811  12.020
 1463W        W73189  31.576   4.838  12.968
 1464W        W73190  12.746   0.252   3.992
 1465W        W73191  25.395  37.962   0.933
 1466W        W73192  32.602  33.256   4.510
 1467W        W73193   9.290  27.525   1.316
 1468W        W73194   5.501  13.775  10.610
 1469W        W73195   9.768   2.786  12.617
 1470W        W73196  15.500  36.959  11.598
 1471W        W73197   6.471   3.892   3.354
 1472W        W73198  11.056  11.916  13.778
 1473W        W73199  44.754  29.082  12.103
 1474W        W73200  38.228  34.041  10.993
 1475W        W73201  43.772  10.489   4.541
 1476W        W73202  32.430   2.946   1.323
 1477W        W73203  43.409  13.859   4.565
 1478W        W73204  37.279  43.284  14.171
 1479W        W73205   0.786  37.774   4.358
 1480W        W73206  39.854  20.304   1.300
 1481W        W73207  19.818  39.347   2.234
 1482W        W73208  27.207  44.004  13.023
 1483W        W73209  28.549  35.090   2.886
 1484W        W73210  37.667   6.205  14.267
 1485W        W73211   7.709  43.358  10.733
 1486W        W73212  11.744  13.093   2.760
 1487W        W73213  38.421   0.903   1.772
 1488W        W73214  12.315  38.101   4.512
 1489W        W73215   5.661   2.688   2.791
 1490W        W73216   7.183   4.841   5.417
 1491W        W73217   6.052  15.582  11.858
 1492W        W73218  14.230   7.689  13.805
 1493W        W73219  16.116  29.646   2.660
 1494W        W73220  24.625  14.264   1.812
 1495W        W73221  40.090  41.307   2.144
 1496W        W73222  22.063  39.988   2.620
 1497W        W73223  33.625   2.727   0.566
 1498W        W73224   5.815  34.504   0.466
 1499W        W73225  28.963  20.470  13.659
 1500W        W73226  25.596  16.369   2.682
 1501W        W73227  32.514  12.866  10.596
 1502W        W73228   9.246  29.545  14.366
 1503W        W73229  35.995  38.351  13.440
 1504W        W73230  20.043  26.822  10.881
 1505W        W73231   2.764  14.231   0.151
 1506W        W73232   7.824  30.069  10.697
 1507W        W73233   1.595  28.108  13.375
 1508W        W73234  34.062  43.217   1.879
 1509W        W73235  34.981   5.657  14.885
 1510W        W73236   0.265  17.375  13.600
 1511W        W73237  26.510  34.443  10.560
 1512W        W73238  27.130   0.404   1.034
 1513W        W73239  43.332   7.103   4.398
 1514W        W73240  22.228  29.098  13.461
 1515W        W73241  34.424  41.506  11.075
 1516W        W73242  29.127  16.143   3.700
 1517W        W73243  15.771  23.806   4.829
 1518W        W73244  42.612  32.660  11.564
 1519W        W73245  40.903   0.058   1.264
 1520W        W73246   5.479  17.151  13.342
 1521W        W73247  29.481  37.775   0.504
 1522W        W73248  13.595  42.798  13.872
 1523W        W73249  30.980   7.357  11.534
 1524W        W73250  42.454  43.392  12.308
 1525W        W73251  23.477  27.041  13.539
 1526W        W73252   3.924  11.932   0.657
 1527W        W73253  17.991  35.479   4.891
 1528W        W73254   3.211   8.819   2.136
 1529W        W73255  21.799  43.869   4.561
 1530W        W73256  30.045  40.476  14.956
 1531W        W73257  35.500  42.604  11.121
 1532W        W73258  15.643  24.394  11.883
 1533W        W73259  39.528  44.485   0.439
 1534W        W73260  31.112  23.711  14.384
 1535W        W73261  15.887  35.932   3.424
 1536W        W73262  15.277  43.500   1.194
 1537W        W73263  19.976   6.573   2.240
 1538W        W73264  25.687   5.545   2.287
 1539W        W73265  11.594  39.993  14.850
 1540W        W73266  33.886   5.290  11.999
 1541W        W73267  43.678   0.416   1.269
 1542W        W73268  13.647  12.153  12.507
 1543W        W73269   5.744  27.223   3.363
 1544W        W73270   1.407  34.555  14.323
 1545W        W73271   8.915  12.699  12.169
 1546W        W73272  27.561  25.814  13.460
 1547W        W73273  17.212  43.406  10.622
 1548W        W73274   7.778  37.507  14.445
 1549W        W73275  15.219   4.412  13.525
 1550W        W73276  25.123   0.929  13.495
 1551W        W73277   4.505  28.885  13.316
 1552W        W73278  25.275  11.719  11.022
 1553W        W73279  39.489   8.251  12.193
 1554W        W73280  24.079  27.472   0.979
 1555W        W73281  37.836   0.298  14.332
 1556W        W73282   2.527  33.482   3.633
 1557W        W73283  36.904  27.973  11.605
 1558W        W73284  22.105  28.723   0.300
 1559W        W73285  21.422  20.541  13.868
 1560W        W73286  23.689  14.025   0.244
 1561W        W73287  36.354  24.765  13.595
 1562W        W73288  17.846  37.519  12.351
 1563W        W73289  37.008   7.519   4.271
 1564W        W73290  18.491  20.990  12.448
 1565W        W73291  16.854   7.055   3.947
 1566W        W73292   6.858  16.330   2.809
 1567W        W73293  20.537  10.864   4.075
 1568W        W73294  18.298   1.118   2.073
 1569W        W73295  22.997  17.623   0.410
 1570W        W73296   1.705   9.073  11.846
 1571W        W73297  44.341   7.101   3.367
 1572W        W73298  22.666   2.921  10.968
 1573W        W73299   7.656  12.681  13.817
 1574W        W73300  24.652  18.287  11.614
 1575W        W73301  14.118   9.800   2.777
 1576W        W73302  37.586   5.330   0.192
 1577W        W73303  42.307  35.329  11.917
 1578W        W73304   2.747  40.527  11.603
 1579W        W73305  30.255   6.999   2.377
 1580W        W73306  30.061  13.478  12.009
 1581W        W73307   8.437  24.647  14.524
 1582W        W73308  22.288  44.520   1.488
 1583W        W73309  42.436  23.722   2.847
 1584W        W73310   2.742  19.617   2.406
 1585W        W73311  26.134  34.855  14.922
 1586W        W73312  39.444  24.080  14.025
 1587W        W73313  24.118  37.013   4.718
 1588W        W73314  19.984   3.004  11.130
 1589W        W73315  41.521  15.705   0.608
 1590W        W73316  10.050  22.718   3.217
 1591W        W73317   6.895   3.159  14.101
 1592W        W73318  44.906   4.274   3.233
 1593W        W73319  25.680  28.328  14.528
 1594W        W73320  40.930  32.085   2.395
 1595W        W73321  25.727  38.078  13.145
 1596W        W73322  39.976  38.831  13.465
 1597W        W73323  40.589  31.580   0.898
 1598W        W73324  16.685  29.531   0.876
 1599W        W73325  25.895  19.542   3.692
 1600W        W73326  30.937  27.131   0.196
 1601W        W73327  18.271  27.522   3.174
 1602W        W73328  13.273  17.193   0.906
 1603W        W73329  25.185  37.136  14.349
 1604W        W73330  13.548  33.605  11.344
 1605W        W73331   3.455   4.787   3.242
 1606W        W73332  27.141  29.586  13.941
 1607W        W73333  17.027   8.199   0.912
 1608W        W73334   5.246  28.488   3.009
 1609W        W73335  22.874  41.557  13.106
 1610W        W73336  31.429  20.627   3.856
 1611W        W73337  25.717  39.824   2.121
 1612W        W73338  26.628  24.068  11.605
 1613W        W73339  10.919  13.723  14.934
 1614W        W73340  41.314  13.744  12.624
 1615W        W73341  19.259  13.740   0.377
 1616W        W73342  37.345   5.664  13.405
 1617W        W73343  37.294   9.964   0.409
 1618W        W73344  27.241  39.427  10.539
 1619W        W73345  35.090  13.690   1.442
 1620W        W73346  41.561  31.546  14.901
 1621W        W73347  35.204  19.203   4.581
 1622W        W73348  26.590  36.015  13.305
 1623W        W73349  17.996   5.928  13.021
 1624W        W73350  36.352  18.203  12.015
 1625W        W73351   1.289  42.103   0.265
 1626W        W73352  39.360  33.777  12.300
 1627W        W73353  32.901  22.586  12.964
 1628W        W73354  44.563  33.102   3.606
 1629W        W73355  16.034  15.258   1.820
 1630W        W73356  21.988  42.816  12.218
 1631W        W73357  34.011   7.119  14.791
 1632W        W73358   2.746  17.660  12.146
 1633W        W73359  39.575  15.163   3.308
 1634W        W73360  32.898  14.686   1.401
 1635W        W73361  21.301  11.923   2.827
 1636W        W73362  37.578  34.750  13.352
 1637W        W73363  15.854  17.608  14.498
 1638W        W73364  19.635  31.893   4.017
 1639W        W73365  37.565  19.950   3.887
 1640W        W73366  18.053  24.064   2.126
 1641W        W73367  41.002  41.484   1.343
 1642W        W73368  24.074   1.050  12.439
 1643W        W73369   9.698   0.998   0.886
 1644W        W73370  35.258  26.021   3.289
 1645W        W73371  44.944  30.659  10.590
 1646W        W73372  27.634  23.513  10.583
 1647W        W73373   8.127  18.091   1.819
 1648W        W73374  31.824  38.138  11.047
 1649W        W73375  38.902  33.986   4.391
 1650W        W73376  35.465  39.804   3.125
 1651W        W73377  20.881   2.835   2.680
 1652W        W73378  23.696  20.010   2.224
 1653W        W73379   1.190  21.156   2.474
 1654W        W73380  30.923  16.051   3.700
 1655W        W73381  43.724  16.646  14.472
 1656W        W73382  36.486   0.420   4.188
 1657W        W73383  34.899  24.974  10.247
 1658W        W73384   7.034  40.674  11.108
 1659W        W73385  20.178  14.569   2.957
 1660W        W73386  31.711  43.233   3.060
 1661W        W73387  10.684  24.771   1.319
 1662W        W73388  28.164  26.627  11.424
 1663W        W73389  44.475  20.481  12.406
 1664W        W73390  35.317   9.945   1.698
 1665W        W73391  37.521  21.536   3.328
 1666W        W73392  15.867   9.670   1.284
 1667W        W73393  10.822  13.097  14.412
 1668W        W73394   8.226  42.936  13.332
 1669W        W73395  41.855   7.434   0.409
 1670W        W73396  31.040  40.487   3.638
 1671W        W73397  11.107  10.939   4.105
 1672W        W73398  15.698  32.396   1.708
 1673W        W73399   5.162  43.842  11.948
 1674W        W73400  19.218   6.821   4.253
 1675W        W73401   3.418  27.855  10.789
 1676W        W73402  38.932  32.081  10.655
 1677W        W73403  42.027   0.450  11.372
 1678W        W73404   5.371  25.591   3.636
 1679W        W73405   6.527  29.036  11.756
 1680W        W73406   9.822   9.335  13.834
 1681W        W73407  23.925   2.220   3.702
 1682W        W73408  14.164   1.463  10.855
 1683W        W73409  31.108  29.812  11.887
 1684W        W73410  34.431  44.708   2.422
 1685W        W73411  43.469  26.249   1.274
 1686W        W73412  19.726  29.614  14.545
 1687W        W73413  28.368  43.898   0.910
 1688W        W73414   8.246  29.495  12.420
 1689W        W73415  15.091   9.379   0.712
 1690W        W73416  22.611   5.368   0.400
 1691W        W73417   8.460  23.696  14.759
 1692W        W73418  23.204   1.140   1.174
 1693W        W73419  24.015   7.917  10.980
 1694W        W73420  33.576  36.120  13.539
 1695W        W73421  29.896   3.570   2.986
 1696W        W73422  37.369  30.138   2.165
 1697W        W73423  20.019  39.817   1.243
 1698W        W73424   8.315  35.632   0.436
 1699W        W73425  35.453  22.757   1.933
 1700W        W73426  29.395  19.795  12.006
 1701W        W73427  22.930  35.648   4.129
 1702W        W73428  35.651  17.515   4.226
 1703W        W73429  42.399  27.976   3.333
 1704W        W73430  12.394  37.942  14.072
 1705W        W73431  21.741  10.832  14.381
 1706W        W73432  19.085  37.484  10.673
 1707W        W73433  23.936   1.968  11.625
 1708W        W73434  13.637  21.667  14.476
 1709W        W73435   8.274  33.628   0.991
 1710W        W73436  39.557  38.013   4.222
 1711W        W73437  44.404  28.479  14.667
 1712W        W73438  38.546  18.719   0.352
 1713W        W73439  22.339  15.019   1.920
 1714W        W73440  22.494  12.112  10.920
 1715W        W73441   4.782  36.673  12.308
 1716W        W73442   6.336  29.890  12.161
 1717W        W73443  31.063  13.140  13.278
 1718W        W73444  10.778  37.848  10.610
 1719W        W73445   7.475   7.755  11.902
 1720W        W73446  28.239  18.845  11.639
 1721W        W73447  14.770  17.924   2.764
 1722W        W73448  24.828  16.894  12.843
 1723W        W73449  26.866   1.839   0.434
 1724W        W73450  26.503  39.153   0.771
 1725W        W73451  42.716  32.982   3.244
 1726W        W73452  15.834  22.052  10.593
 1727W        W73453   3.429  22.807  11.191
 1728W        W73454  21.906  38.777  12.036
 1729W        W73455  12.080  21.635  14.514
 1730W        W73456   8.232  42.261   3.969
 1731W        W73457   6.990  18.082   2.944
 1732W        W73458  26.790  43.220   3.540
 1733W        W73459   6.604  29.142   1.333
 1734W        W73460  22.076  15.322  14.076
 1735W        W73461  32.608  35.015   4.791
 1736W        W73462  21.176  20.482  11.115
 1737W        W73463  10.208  34.052   3.368
 1738W        W73464  21.748  22.813   4.582
 1739W        W73465   0.804  26.297  13.564
 1740W        W73466  36.006  37.190   1.320
 1741W        W73467  10.056   0.683   0.657
 1742W        W73468  19.112  35.874   2.560
 1743W        W73469  40.815  23.292  12.078
 1744W        W73470   1.750  28.084  14.952
 1745W        W73471  18.989   1.888  10.847
 1746W        W73472   3.901  36.925  14.369
 1747W        W73473  11.497  27.758   2.904
 1748W        W73474   9.820  16.183  13.126
 1749W        W73475  19.197   2.021   3.300
 1750W        W73476   5.201  20.099  13.887
 1751W        W73477  40.385   5.190   1.352
 1752W        W73478  32.376  34.408  12.005
 1753W        W73479  17.809  22.654   4.298
 1754W        W73480  40.902  34.165  11.028
 1755W        W73481  36.972   3.969  11.024
 1756W        W73482  23.500  35.246  13.982
 1757W        W73483  20.520  38.896   4.090
 1758W        W73484  44.981  38.491  10.423
 1759W        W73485   5.354   3.508   5.098
 1760W        W73486  10.627  17.091   2.383
 1761W        W73487   1.893  11.635   4.147
 1762W        W73488  17.653  10.854   0.550
 1763W        W73489  38.940  12.114   1.286
 1764W        W73490  35.951  28.197  11.948
 1765W        W73491  32.374  15.854   4.196
 1766W        W73492  39.286   0.418  12.068
 1767W        W73493  19.439   8.567   0.433
 1768W        W73494  14.789   0.727  14.713
 1769W        W73495  36.981  11.147  11.630
 1770W        W73496  10.576  39.809   4.127
 1771W        W73497  21.999  29.890   2.770
 1772W        W73498  42.492  27.974  12.664
 1773W        W73499   6.799  16.758  10.979
 1774W        W73500   1.975  42.373   4.258
 1775W        W73501  40.449   9.619   2.286
 1776W        W73502  12.247  15.848  10.337
 1777W        W73503  33.670   2.532  11.074
 1778W        W73504  24.157   7.964   1.380
 1779W        W73505  16.787  28.952   1.719
 1780W        W73506  24.993  42.308  10.533
 1781W        W73507  42.945   9.219   4.000
 1782W        W73508  15.830  10.295  11.187
 1783W        W73509  22.993  21.256  13.836
 1784W        W73510  35.630   8.174   4.167
 1785W        W73511  28.342  20.564   0.582
 1786W        W73512  13.224  10.417   1.575
 1787W        W73513  26.901  10.093   1.983
 1788W        W73514   1.356  17.223  11.662
 1789W        W73515  38.961  40.285   1.346
 1790W        W73516  17.794  39.552  13.294
 1791W        W73517  10.680  23.275  11.484
 1792W        W73518  21.973  29.391   0.806
 1793W        W73519  38.348  12.315   0.327
 1794W        W73520  10.642   9.367  13.500
 1795W        W73521   3.459  33.372  13.797
 1796W        W73522  15.527  11.090   3.319
 1797W        W73523  14.185  26.483  14.020
 1798W        W73524  25.969  29.933   0.264
 1799W        W73525  37.646  36.418  10.536
 1800W        W73526  11.253  34.630  11.869
 1801W        W73527   2.220   7.415   4.022
 1802W        W73528  20.272  27.166  14.523
 1803W        W73529  43.350  23.683  13.880
 1804W        W73530  25.303  39.551  13.558
 1805W        W73531  43.937  16.322   1.254
 1806W        W73532  24.674  24.772  11.931
 1807W        W73533   9.267  12.590   3.821
 1808W        W73534  24.669  14.256  11.861
 1809W        W73535  16.709  40.323   3.278
 1810W        W73536   5.536  30.468  10.617
 1811W        W73537  16.200  31.035   2.408
 1812W        W73538  15.662  12.159  11.133
 1813W        W73539   5.771  22.065  11.552
 1814W        W73540  33.817  38.825   2.783
 1815W        W73541  41.939  11.637  11.022
 1816W        W73542  30.023  34.411  11.426
 1817W        W73543   7.336   4.261   2.202
 1818W        W73544  22.768  35.525   3.634
 1819W        W73545  21.695   4.894  11.618
 1820W        W73546  13.550   0.580  13.926
 1821W        W73547   9.137  36.159   3.683
 1822W        W73548  41.250  39.692   4.485
 1823W        W73549  19.295  37.014  10.597
 1824W        W73550  36.330  44.357   2.584
 1825W        W73551  20.118  40.018   2.899
 1826W        W73552   9.529  40.738  14.423
 1827W        W73553  37.405  17.800   2.253
 1828W        W73554  38.284  13.804   0.729
 1829W        W73555   6.734  20.673   2.746
 1830W        W73556  37.083  25.745   1.238
 1831W        W73557  44.225   9.478  11.187
 1832W        W73558  44.519  36.094  13.544
 1833W        W73559  23.904  28.967  13.862
 1834W        W73560  34.438  17.808  12.549
 1835W        W73561  44.413  20.433   2.679
 1836W        W73562  31.042  10.866  11.070
 1837W        W73563  18.280  43.841  12.969
 1838W        W73564  13.594  20.877   1.021
 1839W        W73565  36.790  14.206  13.693
 1840W        W73566  31.342  25.485  11.565
 1841W        W73567  25.032  26.632  14.836
 1842W        W73568  27.893  34.037  12.979
 1843W        W73569  17.199  39.998   2.761
 1844W        W73570  20.511  40.088  14.444
 1845W        W73571  18.507  28.694  13.801
 1846W        W73572  17.171  16.878  14.375
 1847W        W73573  40.356  21.275   3.203
 1848W        W73574  35.444  10.585  13.509
 1849W        W73575  18.263  27.507  12.079
 1850W        W73576   1.448  33.965  11.889
 1851W        W73577   6.431  18.057  11.917
 1852W        W73578   0.931  28.690   0.012
 1853W        W73579  29.624  43.203   4.170
 1854W        W73580  16.779  42.787  14.773
 1855W        W73581  42.385  39.580   3.987
 1856W        W73582   2.692  13.242   2.633
 1857W        W73583  38.944   0.667  13.327
 1858W        W73584  36.909  31.483   4.501
 1859W        W73585  10.036  35.072  10.292
 1860W        W73586  30.999  40.619   1.303
 1861W        W73587  32.560   9.825   0.158
 1862W        W73588  42.053   3.960  11.096
 1863W        W73589  37.375  11.626  12.422
 1864W        W73590  17.599   1.538  14.332
 1865W        W73591  39.046  37.052  12.519
 1866W        W73592  24.936  21.620   1.595
 1867W        W73593  14.150  31.567   1.970
 1868W        W73594   2.090  28.662   3.087
 1869W        W73595  15.877  19.798   0.778
 1870W        W73596  38.937  35.783   3.891
 1871W        W73597  32.231  22.129   2.211
 1872W        W73598  14.408   2.303   1.977
 1873W        W73599   7.104  38.040  11.723
 1874W        W73600  33.074  42.523  10.987
 1875W        W73601  44.964  10.887  13.718
 1876W        W73602  39.651  18.691   2.315
 1877W        W73603  21.740  28.706   3.822
 1878W        W73604  27.202  37.531   1.717
 1879W        W73605  22.184  20.697   4.337
 1880W        W73606  35.851  21.457   3.518
 1881W        W73607  41.268  34.338   3.372
 1882W        W73608   3.034  38.866  13.175
 1883W        W73609  40.369  31.542  13.657
 1884W        W73610  24.217  30.971  12.153
 1885W        W73611  42.493  20.277  13.947
 1886W        W73612  28.119   0.980  13.032
 1887W        W73613  33.561   9.330   3.524
 1888W        W73614  38.440  27.456   3.816
 1889W        W73615   7.578  10.531  12.980
 1890W        W73616  19.663  30.846   3.076
 1891W        W73617  13.070   2.995   4.143
 1892W        W73618  29.034  40.913  11.240
 1893W        W73619   7.213  17.589  14.502
 1894W        W73620   8.403  15.523   3.160
 1895W        W73621  20.282   0.215  11.070
 1896W        W73622  30.977  23.031  14.614
 1897W        W73623   5.835  41.752  10.529
 1898W        W73624   8.052  43.820  12.522
 1899W        W73625   9.242  15.603   1.573
 1900W        W73626  15.331  11.577  13.767
 1901W        W73627  27.779   0.488  13.947
 1902W        W73628  33.180  20.079   1.757
 1903W        W73629  22.312   8.870   1.376
 1904W        W73630  19.896  27.173  11.243
 1905W        W73631  40.256  18.046   1.310
 1906W        W73632  10.293  34.271  10.177
 1907W        W73633  24.121  30.567  10.638
 1908W        W73634  37.521   8.112  14.917
 1909W        W73635  32.938   6.387   4.171
 1910W        W73636  36.054  18.305   3.571
 1911W        W73637  30.114  15.145  11.622
 1912W        W73638  35.134  39.240  10.269
 1913W        W73639  22.262  19.811  11.221
 1914W        W73640  43.326  19.475  11.993
 1915W        W73641  43.856  43.799  12.545
 1916W        W73642  18.692   2.018   1.716
 1917W        W73643  16.378   6.334  11.188
 1918W        W73644  38.505   3.055   0.970
 1919W        W73645  14.156  10.748  14.767
 1920W        W73646  32.070  24.003   4.691
 1921W        W73647  18.678   0.362   3.535
 1922W        W73648  24.334  37.488  10.358
 1923W        W73649  42.077  27.208  11.110
 1924W        W73650  30.023  20.882   2.737
 1925W        W73651  13.689  32.399  13.242
 1926W        W73652   7.481  13.900  10.914
 1927W        W73653   7.647  20.914   0.810
 1928W        W73654  32.109  31.172  13.051
 1929W        W73655   3.405  19.679   1.771
 1930W        W73656  31.042  24.685  13.261
 1931W        W73657  16.530   8.279  11.448
 1932W        W73658  33.559  12.803   0.919
 1933W        W73659  13.404  41.078  14.098
 1934W        W73660  42.187  31.382  11.024
 1935W        W73661  30.422  41.445   2.650
 1936W        W73662   3.429  25.545   3.216
 1937W        W73663  40.800   6.596  11.963
 1938W        W73664  36.971  44.793  12.975
 1939W        W73665  23.540  21.891   1.430
 1940W        W73666  15.633   4.279   4.415
 1941W        W73667  34.121   6.886   4.405
 1942W        W73668  36.014  40.349   4.663
 1943W        W73669  17.470   9.735   0.926
 1944W        W73670  40.357  33.244   0.695
 1945W        W73671  18.090  34.718  11.220
 1946W        W73672  12.791   3.692   0.838
 1947W        W73673  38.101  34.582   4.548
 1948W        W73674  22.876  26.566   5.048
 1949W        W73675  12.874  29.537  10.637
 1950W        W73676  41.978  30.318  13.359
 1951W        W73677   4.924   1.038  13.307
 1952W        W73678  11.429  37.014  12.987
 1953W        W73679  33.145  43.804   4.950
 1954W        W73680  17.680  12.085  14.456
 1955W        W73681  38.355  29.071   2.202
 1956W        W73682  10.719  28.058  10.440
 1957W        W73683  21.152   8.134   1.201
 1958W        W73684  33.243   7.406   2.903
 1959W        W73685   9.537  12.423  11.077
 1960W        W73686  34.660  42.593   4.229
 1961W        W73687  34.314  38.417  12.883
 1962W        W73688   4.252   3.805  12.422
 1963W        W73689  18.107   4.886  11.199
 1964W        W73690  21.560   3.804   4.076
 1965W        W73691   8.281  37.124  13.501
 1966W        W73692   8.124  19.084  14.778
 1967W        W73693  36.738   4.673   0.853
 1968W        W73694   1.361  35.683  11.583
 1969W        W73695  11.801  24.901  12.041
 1970W        W73696  43.545  41.864   4.870
 1971W        W73697  12.802  42.344  11.934
 1972W        W73698  19.248  10.761  14.299
 1973W        W73699   6.897  23.503  12.482
 1974W        W73700  12.732  29.984   4.186
 1975W        W73701  11.731  44.059   3.334
 1976W        W73702  26.949   2.264  13.792
 1977W        W73703  24.590   0.828   5.027
 1978W        W73704   9.297  20.689  13.414
 1979W        W73705  16.881  41.294   2.979
 1980W        W73706   5.472  39.292  13.429
 1981W        W73707  12.763   0.772   3.729
 1982W        W73708  19.300  17.148   2.907
 1983W        W73709  42.902   3.876  12.500
 1984W        W73710  12.283   2.814  12.107
 1985W        W73711   6.252  25.086   1.302
 1986W        W73712  28.468  26.009   0.291
 1987W        W73713  22.012  28.652   3.272
 1988W        W73714  42.936  23.091  12.621
 1989W        W73715  35.578  42.980   4.499
 1990W        W73716   8.363  26.683   2.805
 1991W        W73717  44.698  38.564  14.776
 1992W        W73718  27.420  36.788  14.133
 1993W        W73719   7.108  30.350  14.403
 1994W        W73720  40.784   7.273   2.800
 1995W        W73721  18.637  11.109  11.663
 1996W        W73722  24.989  24.862   2.112
 1997W        W73723  37.121  13.786  13.793
 1998W        W73724  40.801  22.340  11.713
 1999W        W73725  10.350  39.871   4.905
 2000W        W73726  27.906  39.873  12.015
 2001W        W73727  41.298  31.933  14.030
 2002W        W73728  27.417   2.449  13.729
 2003W        W73729  15.582  16.028   4.546
 2004W        W73730   4.533  38.689  14.332
 2005W        W73731  35.904   8.580  11.319
 2006W        W73732   3.719  20.672   0.486
 2007W        W73733   4.208  40.736  12.900
 2008W        W73734  16.550  33.214  13.829
 2009W        W73735  26.922  29.592  12.021
 2010W        W73736  32.553  31.641  12.417
 2011W        W73737   3.747  39.631  13.129
 2012W        W73738  43.905  34.527   4.387
 2013W        W73739  30.904   0.381  12.593
 2014W        W73740   5.204  32.005  14.728
 2015W        W73741  40.365   3.916  11.070
 2016W        W73742  31.451  40.834  14.541
 2017W        W73743  43.071   5.165   4.653
 2018W        W73744   8.798  35.828   0.343
 2019W        W73745  10.776  14.457   2.219
 2020W        W73746  21.448  30.663   0.417
 2021W        W73747   8.177  23.648   3.195
 2022W        W73748  20.799  20.578  11.464
 2023W        W73749  42.141  41.370  14.603
 2024W        W73750   0.341  44.806  13.445
 2025W        W73751  30.540  33.847  11.973
 2026W        W73752  17.697  43.501   0.786
 2027W        W73753  40.711  17.717   3.139
 2028W        W73754  11.246  42.590  11.111
 2029W        W73755   8.575  14.843  10.471
 2030W        W73756  21.728  43.921  12.910
 2031W        W73757  25.318  13.839   0.747
 2032W        W73758  23.677   8.853  12.896
 2033W        W73759  36.889  34.184  13.869
 2034W        W73760   6.426  42.765   0.749
 2035W        W73761  19.235  27.645   4.822
 2036W        W73762  43.514  36.013   2.383
 2037W        W73763  27.696  37.767   3.892
 2038W        W73764  44.464  38.110   0.479
 2039W        W73765   5.859  29.656  12.896
 2040W        W73766  24.408  11.197   1.308
 2041W        W73767   1.762   9.335   2.783
 2042W        W73768  41.094   2.213  14.234
 2043W        W73769  17.705  43.744  11.756
 2044W        W73770  25.955   8.857  11.083
 2045W        W73771  39.027   3.800  12.517
 2046W        W73772  21.816   8.726   1.659
 2047W        W73773  32.107  38.924  10.662
 2048W        W73774  38.837  36.545   1.500
 2049W        W73775  29.300  33.511  11.456
 2050W        W73776   9.773  27.605   1.644
 2051W        W73777  20.803  29.679   2.273
 2052W        W73778   8.901  21.163   2.183
 2053W        W73779  10.211  29.462   4.612
 2054W        W73780   2.374  14.879  14.052
 2055W        W73781  40.547  23.520   0.390
 2056W        W73782   9.678  17.615  12.756
 2057W        W73783   9.378  25.601   0.635
 2058W        W73784  17.165  12.746   1.246
 2059W        W73785  36.533  11.830  11.485
 2060W        W73786  44.220  17.644   2.207
 2061W        W73787  21.177  27.001   3.264
 2062W        W73788  31.041   2.533   0.678
 2063W        W73789   6.953  20.023  14.377
 2064W        W73790  42.412  43.465   0.221
 2065W        W73791  21.980  23.460   5.189
 2066W        W73792   9.579   8.424  11.128
 2067W        W73793  31.138  34.414  14.249
 2068W        W73794   2.518   0.728  14.303
 2069W        W73795  36.079   7.377   1.285
 2070W        W73796  27.713  41.619  12.366
 2071W        W73797  44.269  37.518   3.612
 2072W        W73798  24.593  13.391  11.090
 2073W        W73799   3.720   9.125   2.710
 2074W        W73800  35.024   5.646   3.236
 2075W        W73801  10.378  33.850   4.868
 2076W        W73802  21.231   7.868  11.581
 2077W        W73803  34.449   1.707   2.374
 2078W        W73804  37.039  44.976   1.291
 2079W        W73805  27.893  28.059  13.524
 2080W        W73806   7.766   4.710   4.064
 2081W        W73807   2.266   7.360   0.420
 2082W        W73808  42.302   3.348  13.604
 2083W        W73809  18.818  27.470  10.456
 2084W        W73810  38.477  27.279   3.188
 2085W        W73811  28.164  37.415   2.912
 2086W        W73812  38.980   0.741   0.230
 2087W        W73813   7.440  28.419  12.690
 2088W        W73814  43.201  19.048  12.763
 2089W        W73815  41.037  14.718  12.079
 2090W        W73816  29.661  19.743  10.755
 2091W        W73817  33.629   8.761  13.950
 2092W        W73818  16.542   4.622   2.950
 2093W        W73819   8.172  38.938  14.868
 2094W        W73820  28.748  37.565  14.687
 2095W        W73821   1.375   2.633   5.022
 2096W        W73822  10.694   9.449  12.642
 2097W        W73823  27.013  33.012   3.730
 2098W        W73824  39.170  27.959   4.753
 2099W        W73825  29.045  42.903  14.370
 2100W        W73826   9.138  14.003  13.076
 2101W        W73827  20.118  23.290   0.883
 2102W        W73828  19.053  36.555  10.734
 2103W        W73829   3.699  25.748  13.471
 2104W        W73830  29.414  37.658   1.722
 2105W        W73831   4.907  25.260   1.704
 2106W        W73832   9.879   2.797   0.352
 2107W        W73833  17.792   7.358  14.297
 2108W        W73834  38.551  15.668   0.872
 2109W        W73835  15.227  40.507  13.728
 2110W        W73836  28.430  15.582   4.797
 2111W        W73837  28.237  13.192   4.590
 2112W        W73838  22.961  33.449  13.004
 2113W        W73839  20.772  30.435   4.685
 2114W        W73840  26.863  20.556   1.808
 2115W        W73841  25.050  14.525   1.801
 2116W        W73842  21.171  31.069   0.195
 2117W        W73843  24.472  44.914   1.996
 2118W        W73844  18.729  10.097   2.656
 2119W        W73845   1.936  17.320   3.151
 2120W        W73846  18.249  25.472  12.899
 2121W        W73847   5.770  14.611  10.506
 2122W        W73848  44.213  40.109   1.430
 2123W        W73849   5.751  29.910  11.542
 2124W        W73850  36.542   8.174  10.399
 2125W        W73851  21.781  18.693  11.875
 2126W        W73852  13.287   7.783  13.415
 2127W        W73853  26.558  10.350  10.307
 2128W        W73854  26.998   3.387  12.824
 2129W        W73855  41.888  19.816  12.667
 2130W        W73856   0.799  42.521  12.074
 2131W        W73857  28.816   9.226  13.103
 2132W        W73858  11.432  24.073   2.044
 2133W        W73859  18.316  26.081   2.357
 2134W        W73860   3.328  43.488   4.488
 2135W        W73861  15.382   0.540  12.066
 2136W        W73862   6.037  18.163   2.847
 2137W        W73863  40.330  41.231  10.266
 2138W        W73864  33.865  11.875  11.195
 2139W        W73865   5.975  13.764   3.581
 2140W        W73866   4.680   1.820   4.114
 2141W        W73867  25.424  43.463  12.811
 2142W        W73868   6.235  33.890  11.636
 2143W        W73869  33.003   7.686  12.131
 2144W        W73870  30.947  19.277  11.631
 2145W        W73871   9.296  11.489  14.290
 2146W        W73872  15.574  43.901  13.091
 2147W        W73873   5.805  34.639  10.605
 2148W        W73874  34.633  13.261   2.326
 2149W        W73875   8.740  32.379  11.846
 2150W        W73876  18.484  44.641   2.280
 2151W        W73877  16.186  44.812   4.067
 2152W        W73878   2.984  14.652   0.343
 2153W        W73879  35.893  10.874  10.512
 2154W        W73880  38.483  27.757   3.404
 2155W        W73881  14.314  14.613  11.202
 2156W        W73882   5.995  27.960  13.465
 2157W        W73883  44.519  40.015  14.892
 2158W        W73884  30.574   5.438  10.867
 2159W        W73885  23.167   9.381  10.859
 2160W        W73886  24.609  40.517   0.958
 2161W        W73887  39.503  33.562   1.864
 2162W        W73888   8.194   1.278  13.422
 2163W        W73889   9.029  21.592   1.910
 2164W        W73890  42.824  10.996   3.235
 2165W        W73891  18.119  29.062  13.836
 2166W        W73892  36.075  36.485   3.386
 2167W        W73893  38.069  11.756  14.450
 2168W        W73894  26.858  41.246  14.530
 2169W        W73895   0.960  18.543   0.759
 2170W        W73896  19.155  30.075   4.486
 2171W        W73897   8.327   8.134   4.584
 2172W        W73898  14.784  34.699   4.132
 2173W        W73899  23.609   9.399   4.620
 2174W        W73900  27.192  38.580   2.536
 2175W        W73901  12.361  32.896  13.738
 2176W        W73902  21.137   9.840  14.839
 2177W        W73903   5.701   9.321  10.649
 2178W        W73904  28.013   8.677  12.063
 2179W        W73905  16.763  40.256   1.787
 2180W        W73906  36.292   8.275  13.851
 2181W        W73907   9.004  30.184   1.836
 2182W        W73908  43.652   3.354  12.191
 2183W        W73909   2.071  23.791   1.693
 2184W        W73910  25.509  25.390  11.231
 2185W        W73911  18.375   6.899   3.893
 2186W        W73912  21.486   7.729   2.550
 2187W        W73913  23.446  34.257   0.936
 2188W        W73914  28.420   5.322   4.692
 2189W        W73915  35.614  41.229   3.242
 2190W        W73916  27.997  38.520   4.575
 2191W        W73917  33.979  29.523   3.766
 2192W        W73918  41.458  11.200   3.867
 2193W        W73919  18.199  39.494   3.839
 2194W        W73920  24.505  35.116  13.934
 2195W        W73921  27.665   8.480   4.066
 2196W        W73922   8.923  10.226  11.582
 2197W        W73923  32.574  16.716   4.228
 2198W        W73924   1.897  41.372  14.279
 2199W        W73925  22.652  24.487  13.592
 2200W        W73926   8.827  36.484   1.748
 2201W        W73927  42.299  28.004   1.432
 2202W        W73928  10.959  23.802   3.605
 2203W        W73929  26.120  26.926  12.576
 2204W        W73930  10.776  24.787   9.960
 2205W        W73931  33.679  40.424   4.342
 2206W        W73932  37.945   6.482  10.970
 2207W        W73933  44.794  11.136  12.108
 2208W        W73934   5.226  32.443   1.366
 2209W        W73935   6.802  10.210  12.374
 2210W        W73936  36.792  15.507   0.362
 2211W        W73937   2.490  32.514   4.328
 2212W        W73938  13.938  27.216  10.667
 2213W        W73939  15.865  43.891  14.507
 2214W        W73940  30.620  22.765  14.916
 2215W        W73941  18.283  16.077  11.141
 2216W        W73942  25.125   3.753   1.927
 2217W        W73943  34.694  27.037   2.318
 2218W        W73944   3.763  34.655   1.912
 2219W        W73945  41.757  38.690   0.833
 2220W        W73946   7.383  33.366   3.381
 2221W        W73947  26.833   4.661  12.421
 2222W        W73948  19.622   7.800  10.656
 2223W        W73949   9.812  23.253   0.806
 2224W        W73950  37.420  36.655  14.340
 2225W        W73951  38.927  42.844  13.490
 2226W        W73952  43.801  17.336   3.005
 2227W        W73953  19.629   8.562  13.570
 2228W        W73954  13.534  20.723   4.790
 2229W        W73955  23.275  27.008   4.108
 2230W        W73956  42.413  23.208   2.851
 2231W        W73957  12.732  22.110  14.596
 2232W        W73958  10.363   3.368  14.087
 2233W        W73959  30.455  38.854   4.627
 2234W        W73960  26.093  11.499  10.409
 2235W        W73961  33.910  13.475  10.738
 2236W        W73962  24.704  26.937  13.893
 2237W        W73963  25.881  37.516  11.088
 2238W        W73964  23.145  34.663  10.734
 2239W        W73965  42.698  41.537   1.240
 2240W        W73966   2.197  14.196   2.884
 2241W        W73967  27.667  22.240  11.253
 2242W        W73968  42.584  13.281  12.421
 2243W        W73969  35.964  36.528   4.389
 2244W        W73970  28.878  22.534   1.232
 2245W        W73971  33.626  11.829  14.079
 2246W        W73972  16.091   7.947   2.070
 2247W        W73973  36.599  20.101   3.321
 2248W        W73974  36.442   5.141  12.614
 2249W        W73975  24.684  35.599   2.668
 2250W        W73976   5.311   2.865   4.758
 2251W        W73977  28.712   6.957  13.844
 2252W        W73978   4.479   6.881  13.908
 2253W        W73979  36.771   5.729   2.186
 2254W        W73980  27.360  10.291  14.760
 2255W        W73981   6.275  22.477   1.572
 2256W        W73982  33.398  35.108   2.254
 2257W        W73983  20.994  23.193   2.649
 2258W        W73984   2.432  14.479  14.384
 2259W        W73985   1.168   3.299  14.703
 2260W        W73986  27.455  24.637   1.716
 2261W        W73987  18.759  23.444  11.185
 2262W        W73988   2.163  33.917  13.477
 2263W        W73989  22.757  18.923  10.912
 2264W        W73990   7.942  24.957  11.119
 2265W        W73991  23.607  20.140   5.026
 2266W        W73992  20.579  32.007  12.880
 2267W        W73993  14.553  18.536  10.720
 2268W        W73994  27.030  24.264  11.205
 2269W        W73995  15.084  23.189  10.740
 2270W        W73996   0.900  23.422   4.554
 2271W        W73997  22.601  41.517  11.243
 2272W        W73998  11.286   2.230   1.742
 2273W        W73999  42.821  26.556   0.197
 2274W        W74000  16.253  37.939  12.004
 2275W        W74001  24.636   4.778   0.537
 2276W        W74002  41.041  17.641   1.741
 2277W        W74003   7.379   3.574  10.340
 2278W        W74004  41.598   1.365   1.638
 2279W        W74005   0.026   5.894   0.043
 2280W        W74006  26.839  41.399   1.017
 2281W        W74007  21.094   3.201   1.398
 2282W        W74008  37.093  42.409  13.044
 2283W        W74009  14.216   7.617   3.142
 2284W        W74010  24.609  43.625   3.153
 2285W        W74011  35.965  37.922  13.773
 2286W        W74012  44.261   4.713   3.707
 2287W        W74013  16.622  25.018   4.156
 2288W        W74014   5.352  25.561   3.135
 2289W        W74015   0.242  41.316   3.880
 2290W        W74016  22.130  34.959  11.867
 2291W        W74017  16.292  25.400   3.236
 2292W        W74018  23.040  19.246  10.650
 2293W        W74019  35.350  26.604  11.515
 2294W        W74020  37.972   3.536  11.149
 2295W        W74021  40.797  25.672  14.014
 2296W        W74022  34.118  27.552   3.356
 2297W        W74023  15.701  18.283   1.812
 2298W        W74024  25.212  21.988   4.026
 2299W        W74025  35.320  28.619   0.415
 2300W        W74026   8.868  23.541  13.844
 2301W        W74027  32.625  23.206   1.257
 2302W        W74028  21.089   1.809   3.312
 2303W        W74029  29.819  29.611   3.734
 2304W        W74030  29.192  25.114   3.035
 2305W        W74031  20.012   5.096   1.008
 2306W        W74032  26.530  41.364  13.250
 2307W        W74033  17.241   5.000   0.838
 2308W        W74034   1.372  20.036   0.255
 2309W        W74035  10.390  26.146  12.161
 2310W        W74036   8.258  15.672  13.486
 2311W        W74037  23.024  28.717   4.042
 2312W        W74038  13.646  43.488   2.933
 2313W        W74039   4.210   7.934  13.299
 2314W        W74040  11.866  40.402   4.157
 2315W        W74041  15.799  36.446  13.785
 2316W        W74042  21.050  35.459  11.564
 2317W        W74043   1.291  25.864   5.099
 2318W        W74044  22.131  11.497   4.290
 2319W        W74045   5.176  30.982   3.337
 2320W        W74046  10.809  34.146   4.994
 2321W        W74047  23.077  30.581  10.650
 2322W        W74048  15.119  40.587   1.427
 2323W        W74049   3.819   2.416   2.353
 2324W        W74050   4.903  37.352   0.237
 2325W        W74051  12.160  32.886  14.773
 2326W        W74052  14.853  26.579   3.599
 2327W        W74053  30.388   2.361  11.970
 2328W        W74054  40.317   8.325  10.903
 2329W        W74055  36.878  41.740  14.783
 2330W        W74056  32.030  41.272  10.955
 2331W        W74057  25.317  20.401  13.985
 2332W        W74058  42.809  25.934  11.433
 2333W        W74059  30.364  38.087  13.534
 2334W        W74060   2.816  23.684   0.273
 2335W        W74061  10.900  20.917   2.787
 2336W        W74062   2.997  24.566   2.373
 2337W        W74063  28.431  39.417  12.866
 2338W        W74064  39.063   5.939  12.539
 2339W        W74065  30.046  23.744  12.483
 2340W        W74066  35.807  39.064   3.237
 2341W        W74067   8.926  19.245  14.276
 2342W        W74068  11.966  11.338  11.077
 2343W        W74069  24.999  44.223   4.652
 2344W        W74070  27.014  17.525  11.000
 2345W        W74071  35.310  32.193  11.146
 2346W        W74072  13.098  12.144   3.787
 2347W        W74073  14.158  42.510   0.640
 2348W        W74074  35.452  24.464  14.301
 2349W        W74075   4.933   0.183  14.813
 2350W        W74076   6.146  31.901  14.848
 2351W        W74077  44.925   1.894  12.526
 2352W        W74078  36.027  10.711  14.811
 2353W        W74079  39.538   6.267   1.606
 2354W        W74080  25.856  41.981  12.965
 2355W        W74081  27.014  34.502   2.729
 2356W        W74082  36.528  44.695  10.795
 2357W        W74083  26.461  39.809  11.978
 2358W        W74084  20.706   5.852   0.280
 2359W        W74085  38.489   4.746  11.614
 2360W        W74086   5.471  24.113   1.862
 2361W        W74087  38.379  21.555   0.690
 2362W        W74088  14.730  21.248  10.819
 2363W        W74089  26.402  43.930  13.410
 2364W        W74090  27.826  24.296  10.494
 2365W        W74091   2.497  40.423  13.670
 2366W        W74092  43.795   2.351   3.899
 2367W        W74093  42.719  18.224  13.355
 2368W        W74094  12.677   9.094  11.084
 2369W        W74095   2.868  25.531   2.706
 2370W        W74096  38.664  43.448   2.790
 2371W        W74097  17.992  36.565  14.271
 2372W        W74098  42.993   0.504   2.409
 2373W        W74099  38.851  11.564   4.133
 2374W        W74100  38.390   9.761  14.308
 2375W        W74101   9.876  18.527  13.398
 2376W        W74102  14.166  25.971   2.669
 2377W        W74103  36.357  25.898  12.977
 2378W        W74104  13.280   6.372  13.550
 2379W        W74105  21.622   3.220   1.420
 2380W        W74106   7.103  22.266   3.276
 2381W        W74107  41.715  31.007   2.505
 2382W        W74108   8.318  10.456  14.450
 2383W        W74109  20.062  10.143   3.788
 2384W        W74110  25.831  21.412   0.365
 2385W        W74111   8.569   2.144   5.107
 2386W        W74112  43.411  30.644  12.571
 2387W        W74113  37.299  24.583   3.280
 2388W        W74114   9.335  31.643   4.170
 2389W        W74115  15.376   7.234   2.790
 2390W        W74116  43.713  22.581  10.638
 2391W        W74117   5.246  36.845  12.036
 2392W        W74118   1.459  36.083  10.720
 2393W        W74119   8.291  41.111   1.611
 2394W        W74120   1.014  25.132  11.964
 2395W        W74121  21.771   6.554   1.450
 2396W        W74122  44.893  21.156   1.822
 2397W        W74123  38.433  35.364  10.674
 2398W        W74124  21.500  12.777   0.486
 2399W        W74125  15.243  14.398   3.636
 2400W        W74126  38.108  15.747  11.496
 2401W        W74127  36.386   7.744   3.292
 2402W        W74128  33.938  36.334  13.843
 2403W        W74129  32.087  30.150   3.426
 2404W        W74130  36.865   0.368   0.347
 2405W        W74131   5.780  31.891  11.595
 2406W        W74132   7.682   8.710   3.249
 2407W        W74133   2.679  40.127   0.848
 2408W        W74134  40.490  39.834   1.347
 2409W        W74135  39.985  17.049   4.488
 2410W        W74136   1.369  28.619  11.129
 2411W        W74137  40.819  13.727   3.323
 2412W        W74138  19.651  15.106  11.236
 2413W        W74139  38.429  41.221  14.118
 2414W        W74140  14.724   1.324  11.568
 2415W        W74141  41.362  24.230   3.721
 2416W        W74142  26.825   4.831   1.922
 2417W        W74143  10.286  34.440   4.167
 2418W        W74144   8.777  23.141   2.655
 2419W        W74145  30.666  22.752   3.262
 2420W        W74146  43.293  17.566   4.524
 2421W        W74147  18.747  22.949   4.388
 2422W        W74148   1.339  37.616   1.713
 2423W        W74149  14.787  41.505   4.766
 2424W        W74150  42.913  33.935  13.444
 2425W        W74151  27.111  24.191   2.907
 2426W        W74152  13.628  31.037  13.235
 2427W        W74153  31.590  27.665   0.283
 2428W        W74154  19.327  41.284   1.695
 2429W        W74155  43.839  37.039  11.612
 2430W        W74156  30.114  25.069   2.043
 2431W        W74157  37.526  24.960  10.674
 2432W        W74158  43.975  40.511   1.750
 2433W        W74159  31.003  25.011  10.842
 2434W        W74160   3.418   4.739   5.235
 2435W        W74161  31.659   5.811  11.304
 2436W        W74162   8.441   0.792  10.679
 2437W        W74163  21.562  13.590   3.196
 2438W        W74164  17.788  44.480  11.994
 2439W        W74165  40.896  34.585  14.880
 2440W        W74166  29.505  26.524  10.164
 2441W        W74167  41.974  25.440  13.501
 2442W        W74168  12.248  13.172   2.908
 2443W        W74169   6.684  37.102   1.338
 2444W        W74170  10.203   6.754  12.571
 2445W        W74171  12.346  25.598   1.702
 2446W        W74172  44.425  24.533   0.955
 2447W        W74173  20.937  14.454   4.140
 2448W        W74174  25.570  31.349  12.361
 2449W        W74175  19.730   4.900  10.450
 2450W        W74176  31.430  21.989  12.140
 2451W        W74177  11.870  10.747   2.217
 2452W        W74178  38.440  17.039   2.878
 2453W        W74179  22.235  42.529   3.376
 2454W        W74180  29.497  28.447  14.170
 2455W        W74181  25.188  27.639  11.401
 2456W        W74182  34.087  24.360  14.908
 2457W        W74183  32.562   0.026   1.700
 2458W        W74184  26.547  25.975  11.784
 2459W        W74185  24.281  17.571   0.245
 2460W        W74186  11.386  37.915  12.468
 2461W        W74187  35.536  27.896   0.798
 2462W        W74188  39.059  29.661   0.492
 2463W        W74189  39.899  13.696  10.256
 2464W        W74190  17.552   8.839   1.236
 2465W        W74191   7.829  38.487   0.504
 2466W        W74192   6.502   8.079   3.936
 2467W        W74193   6.392  13.088   4.621
 2468W        W74194   3.498   3.729  11.195
 2469W        W74195  31.883  20.107  14.843
 2470W        W74196  36.886   0.297  12.101
 2471W        W74197  26.511  28.605  12.002
 2472W        W74198  25.883  26.546  13.519
 2473W        W74199  38.266   8.691   3.272
 2474W        W74200  19.654   7.250  13.930
 2475W        W74201   4.271  21.741   3.307
 2476W        W74202  20.505  17.160  14.841
 2477W        W74203  12.656   7.157   0.787
 2478W        W74204  41.928  13.131   0.880
 2479W        W74205  25.486  16.392  13.361
 2480W        W74206  26.728   2.900   4.007
 2481W        W74207  29.544  18.318  13.799
 2482W        W74208   7.786  31.604  10.585
 2483W        W74209   5.282  19.841  11.578
 2484W        W74210  42.067  28.519   1.233
 2485W        W74211   8.762   1.809  12.629
 2486W        W74212  10.754  16.786   3.785
 2487W        W74213  39.105  43.159  13.842
 2488W        W74214  28.505  15.669   2.941
 2489W        W74215  10.026  20.757  11.505
 2490W        W74216  30.001  10.229   4.095
 2491W        W74217  22.806  31.864  13.031
 2492W        W74218  26.540  40.824   3.719
 2493W        W74219  12.023   3.576   2.327
 2494W        W74220   5.195  17.499   4.306
 2495W        W74221  25.482  21.320  10.672
 2496W        W74222  20.203   6.395   0.825
 2497W        W74223  33.620  21.480  14.436
 2498W        W74224  20.004   0.650  14.979
 2499W        W74225  32.523   6.678  10.491
 2500W        W74226  16.644  37.928   1.428
 2501W        W74227   8.148   7.843   0.807
 2502W        W74228   7.829  29.100  14.865
 2503W        W74229   3.291  10.816   1.946
 2504W        W74230  15.829  33.495  14.308
 2505W        W74231  30.511  12.190  13.256
 2506W        W74232  11.263  20.029  11.489
 2507W        W74233  22.763  27.955   3.495
 2508W        W74234  31.201  16.313   4.120
 2509W        W74235  23.421   6.201   0.912
 2510W        W74236  29.015   1.810   2.588
 2511W        W74237  11.289   9.186  11.050
 2512W        W74238  37.569  25.539  11.395
 2513W        W74239  16.379  39.861  12.244
 2514W        W74240  20.294   3.457  11.172
 2515W        W74241  33.455  37.543   4.125
 2516W        W74242   6.171  18.015   9.888
 2517W        W74243  27.116  26.735  11.521
 2518W        W74244  32.437  38.397   0.915
 2519W        W74245  14.251   8.242  13.096
 2520W        W74246  20.593   2.220   2.718
 2521W        W74247  22.773  33.140  13.492
 2522W        W74248   0.846  15.799  14.541
 2523W        W74249   0.301  21.488   0.510
 2524W        W74250  22.440  24.618   5.175
 2525W        W74251  38.332  39.068   4.113
 2526W        W74252  11.321  18.812  12.086
 2527W        W74253  30.009  41.337   1.228
 2528W        W74254  22.538  28.786  12.997
 2529W        W74255  43.414  25.632   1.888
 2530W        W74256  26.481  30.675   0.328
 2531W        W74257  12.629  19.643   4.458
 2532W        W74258  17.071  36.635  11.888
 2533W        W74259   2.479   7.284   3.068
 2534W        W74260  22.047   2.135   4.907
 2535W        W74261  34.628  28.037  13.764
 2536W        W74262  42.797  22.427   2.816
 2537W        W74263  37.156  40.470  14.848
 2538W        W74264   5.789  30.635  12.853
 2539W        W74265   4.625  42.726   5.160
 2540W        W74266  27.848  21.075  14.461
 2541W        W74267   3.777  34.585   5.048
 2542W        W74268  25.713  13.248   2.622
 2543W        W74269  39.510  29.552   4.092
 2544W        W74270  21.206  28.452   1.950
 2545W        W74271  28.845  26.593  12.055
 2546W        W74272  31.015  20.670   0.434
 2547W        W74273  33.963  12.892  13.855
 2548W        W74274  41.938   1.244   0.272
 2549W        W74275  34.621  39.784   3.599
 2550W        W74276  40.163  35.911  10.427
 2551W        W74277  11.931  30.155  13.481
 2552W        W74278  24.960  20.622   2.836
 2553W        W74279  15.997  19.246  14.935
 2554W        W74280  36.826  16.844  13.786
 2555W        W74281  35.399  16.729  13.351
 2556W        W74282  41.977  25.317  14.395
 2557W        W74283   1.316   1.373  14.854
 2558W        W74284  19.055  23.700  14.124
 2559W        W74285   2.424  20.632   1.570
 2560W        W74286  10.678  39.307   4.408
 2561W        W74287  35.306  29.883  13.508
 2562W        W74288  33.886  20.543   4.363
 2563W        W74289  39.043  19.728  13.074
 2564W        W74290  43.140  36.101   2.738
 2565W        W74291  20.317  24.207   3.777
 2566W        W74292  18.565   4.894   2.771
 2567W        W74293  23.638   6.371   0.466
 2568W        W74294  38.951  28.013  13.411
 2569W        W74295  27.134   5.633  12.518
 2570W        W74296  29.943  22.204   4.826
 2571W        W74297  43.184  22.522  10.865
 2572W        W74298   1.270  24.254   3.183
 2573W        W74299  20.306   1.473  14.446
 2574W        W74300   0.160  34.160  14.065
 2575W        W74301  13.228   2.283  12.467
 2576W        W74302   2.713  22.758  12.195
 2577W        W74303  11.870  34.057  10.702
 2578W        W74304  24.740  12.183   3.281
 2579W        W74305  22.680  41.554   2.456
 2580W        W74306  19.121  44.963   1.667
 2581W        W74307  23.493  32.474  10.587
 2582W        W74308  21.805  29.434  10.781
 2583W        W74309   0.878   6.644  13.385
 2584W        W74310  24.935  37.594  14.399
 2585W        W74311   5.718  27.553   4.541
 2586W        W74312  30.910  39.841  11.970
 2587W        W74313  18.758  34.683   3.297
 2588W        W74314  35.610  33.695  12.885
 2589W        W74315   1.753  11.995   2.677
 2590W        W74316  44.736  44.305  14.614
 2591W        W74317   9.357   5.243  11.170
 2592W        W74318   9.829  32.575   0.301
 2593W        W74319   4.371  16.211   2.789
 2594W        W74320  36.054   1.852  12.024
 2595W        W74321  37.388  18.034   2.738
 2596W        W74322   4.766  13.806  10.088
 2597W        W74323  43.341  28.588   1.928
 2598W        W74324  21.304  16.864   0.840
 2599W        W74325  10.745  22.241   0.269
 2600W        W74326   6.684  14.342   4.974
 2601W        W74327   2.840  22.187  12.955
 2602W        W74328  10.134  42.808  14.245
 2603W        W74329  18.801  19.231   4.887
 2604W        W74330  13.891  12.457   4.531
 2605W        W74331  41.878  26.777  13.143
 2606W        W74332  16.684  32.147  12.007
 2607W        W74333  28.072   1.268   0.241
 2608W        W74334  13.171  36.595  13.410
 2609W        W74335  43.017   9.166  10.712
 2610W        W74336  18.031  31.524  12.119
 2611W        W74337   6.964  26.207  12.859
 2612W        W74338  43.949  39.350  11.059
 2613W        W74339  41.926  38.817   2.293
 2614W        W74340  10.480  28.987  14.549
 2615W        W74341   5.727  32.013  14.478
 2616W        W74342  40.889  14.673   1.389
 2617W        W74343  27.531  17.578  13.517
 2618W        W74344  36.566  39.446   1.252
 2619W        W74345  38.608  44.230   2.208
 2620W        W74346  36.416  14.437  11.220
 2621W        W74347  18.762  30.403   0.618
 2622W        W74348  13.101  15.936   0.939
 2623W        W74349   7.275  17.076  13.326
 2624W        W74350  27.673  17.650   4.014
 2625W        W74351  35.344  24.781  12.799
 2626W        W74352  28.520  35.486   4.327
 2627W        W74353  13.806  28.430   2.625
 2628W        W74354  11.198   7.856   3.360
 2629W        W74355  16.046  39.153  13.967
 2630W        W74356  39.251   2.341  12.325
 2631W        W74357  19.926  22.715   2.110
 2632W        W74358   0.425  24.542  11.444
 2633W        W74359  20.380  21.142   3.605
 2634W        W74360   8.824   5.753   3.758
 2635W        W74361  31.646  24.176  11.882
 2636W        W74362  25.315   0.770  11.082
 2637W        W74363  26.210  34.126  11.468
 2638W        W74364   8.144  31.596   0.686
 2639W        W74365  36.913  29.079  11.456
 2640W        W74366  31.536   9.425  10.721
 2641W        W74367  41.254  10.269  10.762
 2642W        W74368  10.912  29.086  14.240
 2643W        W74369   8.631  24.150   4.564
 2644W        W74370   2.480   3.388  13.981
 2645W        W74371  20.879  28.983   3.527
 2646W        W74372  38.187  23.754  11.993
 2647W        W74373  16.923  27.457  14.227
 2648W        W74374  11.426  30.431  12.212
 2649W        W74375  22.707  37.503   2.547
 2650W        W74376  40.050  10.290   1.286
 2651W        W74377  32.126   3.981   4.108
 2652W        W74378  20.272  17.473   2.677
 2653W        W74379  33.900  40.467   3.881
 2654W        W74380  15.662  37.828  10.669
 2655W        W74381  24.083   8.373   4.068
 2656W        W74382  11.719  25.758  12.436
 2657W        W74383  28.782  40.873   3.710
 2658W        W74384   5.845  31.139  12.833
 2659W        W74385  11.085  34.922  14.036
 2660W        W74386  20.542  32.646  11.956
 2661W        W74387  32.007  12.053  11.507
 2662W        W74388  13.079  42.429  14.302
 2663W        W74389  42.980  37.424   4.876
 2664W        W74390  26.665  19.651   4.315
 2665W        W74391  44.263  22.003  11.673
 2666W        W74392  25.952  44.285   0.961
 2667W        W74393   2.306  21.615  10.567
 2668W        W74394  11.279  13.109   2.431
 2669W        W74395  12.127  35.872   2.071
 2670W        W74396  22.016  11.564   0.863
 2671W        W74397   3.196   1.751  14.699
 2672W        W74398   6.425  11.904   2.302
 2673W        W74399   8.456  10.307  10.786
 2674W        W74400  30.463  31.250  14.153
 2675W        W74401  30.242  26.809  10.539
 2676W        W74402  19.217   8.227   3.427
 2677W        W74403  25.410  25.018  11.567
 2678W        W74404  11.874  31.939  11.688
 2679W        W74405  22.617  14.805   2.307
 2680W        W74406  27.554  26.132  10.835
 2681W        W74407   5.641  12.301  11.045
 2682W        W74408   1.232  11.148   0.034
 2683W        W74409  15.748  18.136  14.280
 2684W        W74410  42.214  35.383  14.373
 2685W        W74411   1.345  24.725   4.608
 2686W        W74412  12.652  18.577   0.214
 2687W        W74413  43.202  40.533  14.813
 2688W        W74414  12.191  13.281   2.370
 2689W        W74415   7.591  11.440   3.723
 2690W        W74416   3.565  20.183   2.705
 2691W        W74417  33.119  26.417   4.517
 2692W        W74418  29.194  14.714   4.804
 2693W        W74419  34.288  31.877  12.900
 2694W        W74420   1.759   2.675   3.104
 2695W        W74421  11.744  35.761  14.127
 2696W        W74422  26.533  27.097   2.721
 2697W        W74423  39.127  23.830  11.598
 2698W        W74424   1.984  10.884  11.171
 2699W        W74425  38.856  28.613  13.478
 2700W        W74426   8.619  31.525   0.997
 2701W        W74427  15.142  27.171   0.164
 2702W        W74428  11.232  18.217  13.377
 2703W        W74429  16.698  15.700   4.098
 2704W        W74430  17.264   7.187   4.249
 2705W        W74431   0.523   0.891   0.913
 2706W        W74432  21.574  29.220  12.944
 2707W        W74433  19.655  17.070   2.277
 2708W        W74434   0.768  24.030  10.508
 2709W        W74435   7.754   2.799   1.840
 2710W        W74436  13.191  19.835   5.115
 2711W        W74437  40.889  43.011   1.476
 2712W        W74438  32.296   2.194  13.062
 2713W        W74439  39.421   5.119   2.933
 2714W        W74440  24.276  31.075  10.557
 2715W        W74441   1.175  13.806  14.963
 2716W        W74442   7.772  41.854   2.736
 2717W        W74443   5.703  41.510  13.828
 2718W        W74444  32.458  22.016  12.566
 2719W        W74445   6.419  37.081  11.526
 2720W        W74446  29.426   5.743  11.961
 2721W        W74447   0.916  23.585   9.874
 2722W        W74448  44.993   1.776   2.140
 2723W        W74449   6.814   6.009   1.048
 2724W        W74450   8.042   4.777  13.966
 2725W        W74451  27.016  20.306  11.052
 2726W        W74452  37.345  19.774  14.269
 2727W        W74453  40.977  13.236  11.606
 2728W        W74454  37.939  14.210  14.643
 2729W        W74455  29.996  39.341   3.096
 2730W        W74456  23.795  27.867   3.230
 2731W        W74457  33.155  42.236  10.242
 2732W        W74458  29.690  24.720  13.450
 2733W        W74459  34.857  30.588   1.691
 2734W        W74460  29.786  33.662   2.588
 2735W        W74461   6.257  27.147  12.029
 2736W        W74462  23.060   6.101   2.777
 2737W        W74463   6.991  13.160   5.476
 2738W        W74464  44.449  14.193   1.372
 2739W        W74465   0.464  19.186   2.822
 2740W        W74466  42.096  29.180  10.614
 2741W        W74467  20.620  41.415   1.017
 2742W        W74468   3.956  39.976   0.370
 2743W        W74469  25.870  41.566   1.663
 2744W        W74470   6.662  23.640  13.869
 2745W        W74471  26.534  44.862   0.458
 2746W        W74472   6.400  26.566   2.922
 2747W        W74473  24.186  27.684  13.556
 2748W        W74474  35.896  34.392   0.455
 2749W        W74475  23.793   3.430   4.202
 2750W        W74476   1.956   8.402   2.615
 2751W        W74477  25.010  13.627   0.268
 2752W        W74478  39.869  30.610   3.848
 2753W        W74479   3.818  16.827   0.604
 2754W        W74480  25.602  41.907   2.382
 2755W        W74481  39.783  32.603   3.982
 2756W        W74482   9.181  14.328   0.316
 2757W        W74483   3.360  12.347  14.826
 2758W        W74484  38.077  17.593  12.835
 2759W        W74485  14.563   8.250  12.098
 2760W        W74486   8.327  10.997  13.494
 2761W        W74487   6.466  37.576  14.961
 2762W        W74488  20.458  34.751  12.897
 2763W        W74489  11.268  43.963   4.562
 2764W        W74490   1.346   0.352   0.007
 2765W        W74491  16.247   3.430   4.246
 2766W        W74492  10.170  31.068  12.057
 2767W        W74493  19.663   7.401   3.288
 2768W        W74494  44.951  44.302  12.137
 2769W        W74495  33.656  44.485  13.173
 2770W        W74496   7.781  39.815  12.910
 2771W        W74497  35.906  32.377  13.386
 2772W        W74498  44.373   0.059   4.578
 2773W        W74499  24.719  14.578   2.215
 2774W        W74500  18.278  31.103  13.036
 2775W        W74501   8.704  30.063   0.255
 2776W        W74502  41.023  38.873   3.915
 2777W        W74503  12.579  27.071   2.277
 2778W        W74504  10.681  30.177  11.872
 2779W        W74505  38.538  35.517   3.707
 2780W        W74506  41.968  22.203  11.432
 2781W        W74507   0.572  39.060  13.051
 2782W        W74508  10.150  21.100   1.306
 2783W        W74509  26.016  41.291   4.331
 2784W        W74510  20.862  25.681   0.978
 2785W        W74511  35.310  16.939  11.000
 2786W        W74512   0.078  11.998   3.273
 2787W        W74513  18.560  44.733   3.361
 2788W        W74514  40.440  32.070   2.839
 2789W        W74515  20.060  16.805   2.119
 2790W        W74516  23.499  29.710   2.731
 2791W        W74517   2.223  15.698  11.976
 2792W        W74518  22.034   7.815   0.288
 2793W        W74519  21.116  24.282   0.853
 2794W        W74520   8.373  33.995   4.962
 2795W        W74521  26.036   6.380  12.962
 2796W        W74522   7.424  44.773  12.926
 2797W        W74523  40.510  23.783  13.527
 2798W        W74524  34.520  18.867  11.690
 2799W        W74525  40.545  21.266  10.865
 2800W        W74526  22.053   3.791  10.845
 2801W        W74527  27.206  44.439   1.036
 2802W        W74528  16.460  35.032  14.763
 2803W        W74529  38.680  39.504   4.193
 2804W        W74530  12.324  33.218  10.972
 2805W        W74531  21.567   6.214   2.713
 2806W        W74532  25.430  16.736  10.723
 2807W        W74533   1.218   6.084   2.881
 2808W        W74534  13.986  33.428  11.655
 2809W        W74535   8.557  28.997  10.728
 2810W        W74536  43.920  12.263  13.798
 2811W        W74537  10.417   1.692   1.864
 2812W        W74538  40.535  37.995  14.478
 2813W        W74539   3.449  18.026  12.588
 2814W        W74540  10.838  31.897  11.117
 2815W        W74541  43.743  35.858   0.816
 2816W        W74542  15.813   9.218  10.590
 2817W        W74543  15.740  34.546  12.016
 2818W        W74544  34.131  38.880  13.093
 2819W        W74545   2.765  10.636   4.608
 2820W        W74546  38.470  36.483   4.813
 2821W        W74547   4.467  17.370  12.433
 2822W        W74548   0.428  44.039  14.246
 2823W        W74549  20.021  32.598  12.002
 2824W        W74550  26.755  18.788  14.894
 2825W        W74551   6.755  12.157   1.927
 2826W        W74552  31.564   2.736  11.667
 2827W        W74553  31.518   4.931   3.300
 2828W        W74554  11.806  30.030  12.448
 2829W        W74555  30.381   3.604  10.249
 2830W        W74556   2.277  25.831   2.192
 2831W        W74557  25.474  41.910   3.406
 2832W        W74558   8.901   1.663   3.613
 2833W        W74559  37.786   2.189   0.071
 2834W        W74560  37.434  18.325   0.331
 2835W        W74561  42.042   4.007   2.900
 2836W        W74562  31.836  16.719   3.122
 2837W        W74563  12.097   5.751   0.497
 2838W        W74564  41.588   7.358   3.018
 2839W        W74565  34.546  34.439  10.683
 2840W        W74566   1.801  27.010  14.977
 2841W        W74567  21.639  26.391   3.702
 2842W        W74568  24.182  13.864  13.062
 2843W        W74569  38.652  39.526  12.469
 2844W        W74570  31.362  39.799   0.248
 2845W        W74571  21.354  36.950  13.078
 2846W        W74572  17.285   2.780   3.070
 2847W        W74573  31.137   3.759   0.679
 2848W        W74574  17.555  42.030  10.735
 2849W        W74575   5.167   1.215   0.965
 2850W        W74576   5.389   9.827  11.267
 2851W        W74577   5.990  26.705   4.357
 2852W        W74578  29.323   0.447   3.755
 2853W        W74579  26.782  33.087  10.714
 2854W        W74580  16.995   4.393  12.489
 2855W        W74581  13.786  34.667   2.797
 2856W        W74582   0.983  17.181  12.834
 2857W        W74583  14.650  10.833  13.070
 2858W        W74584   2.855   2.796   3.261
 2859W        W74585  40.961  31.844  14.402
 2860W        W74586  18.604  33.998   2.721
 2861W        W74587  24.149   3.791   4.304
 2862W        W74588  15.001   0.544   4.867
 2863W        W74589   4.844  41.131  13.426
 2864W        W74590  11.725  17.190  10.511
 2865W        W74591  28.904  37.962   4.554
 2866W        W74592  36.996  20.566  13.967
 2867W        W74593   0.499  23.798   1.796
 2868W        W74594  44.783  20.130  13.790
 2869W        W74595  15.236  37.300  10.166
 2870W        W74596   9.138   9.701   1.276
 2871W        W74597   9.521  21.229  11.512
 2872W        W74598  15.761  22.102   0.370
 2873W        W74599   0.361  37.684  11.906
 2874W        W74600   7.062  12.946  12.914
 2875W        W74601   3.747  20.241  12.093
 2876W        W74602  19.536  33.920   0.015
 2877W        W74603  33.585  44.357  14.577
 2878W        W74604   0.471  27.005   3.310
 2879W        W74605   6.131  17.626   3.859
 2880W        W74606  22.729  13.397   0.764
 2881W        W74607  14.138  16.668  14.640
 2882W        W74608  20.250  14.913   0.425
 2883W        W74609  40.999  12.179   4.097
 2884W        W74610  37.859  18.748   3.582
 2885W        W74611  29.273  10.115   0.435
 2886W        W74612   4.778  22.505  14.572
 2887W        W74613  21.552   7.955  14.026
 2888W        W74614  20.342  21.132   2.632
 2889W        W74615  44.306   0.308   3.213
 2890W        W74616  34.635  31.488  11.168
 2891W        W74617  10.167  20.811   3.667
 2892W        W74618  37.487  15.841   4.586
 2893W        W74619  19.143   2.105   0.880
 2894W        W74620  30.127  23.517   0.287
 2895W        W74621  17.106  33.208   3.762
 2896W        W74622   4.388  24.098  13.607
 2897W        W74623   1.649  18.730   2.720
 2898W        W74624   1.545   2.941  14.805
 2899W        W74625  30.449  44.719   4.917
 2900W        W74626  21.311   4.205   9.919
 2901W        W74627  27.627  44.176  13.373
 2902W        W74628  41.752  43.639   1.359
 2903W        W74629  31.546   9.817   2.216
 2904W        W74630  12.278   5.655  14.038
 2905W        W74631  34.789  12.908   1.971
 2906W        W74632  26.221  25.978   0.992
 2907W        W74633  21.869  14.641   5.102
 2908W        W74634  24.702  40.446  10.437
 2909W        W74635  10.219  41.958  11.403
 2910W        W74636  41.529  25.224  13.612
 2911W        W74637  12.114  32.338   1.860
 2912W        W74638  40.544  18.779   3.936
 2913W        W74639  31.935  40.568   1.268
 2914W        W74640  26.712   8.556  11.866
 2915W        W74641  11.252  16.581   3.536
 2916W        W74642  32.627  44.042  13.942
 2917W        W74643  15.629  40.377  12.841
 2918W        W74644   8.806  29.406   2.407
 2919W        W74645  16.609  20.244   0.931
 2920W        W74646  36.468  39.372  13.338
 2921W        W74647  16.112   0.457  10.702
 2922W        W74648  29.785  11.180   3.181
 2923W        W74649  30.511  30.474  12.459
 2924W        W74650  15.249  43.329  14.867
 2925W        W74651  20.656  12.023  11.991
 2926W        W74652   2.968  31.899  10.754
 2927W        W74653  21.117   6.150   0.891
 2928W        W74654  28.579  23.094   0.006
 2929W        W74655  37.781  21.835  12.028
 2930W        W74656  24.062   6.391  10.744
 2931W        W74657   0.402  23.003  14.059
 2932W        W74658  17.784  38.619  10.147
 2933W        W74659   8.813  11.146   0.495
 2934W        W74660   4.243  23.823   3.073
 2935W        W74661  11.714   5.464   1.776
 2936W        W74662  28.364   4.768  12.390
 2937W        W74663   8.131  37.528   4.231
 2938W        W74664  26.828   2.775  12.034
 2939W        W74665  43.134  19.563  10.584
 2940W        W74666   4.475   2.209   3.626
 2941W        W74667   6.713  40.566  10.716
 2942W        W74668  15.312  28.089  12.556
 2943W        W74669   4.210  28.570   0.950
 2944W        W74670   9.706  42.557  14.413
 2945W        W74671  26.145   2.653   3.144
 2946W        W74672  34.908  20.051  14.743
 2947W        W74673  29.060  11.824   2.374
 2948W        W74674  27.735  23.033   1.194
 2949W        W74675  40.804  44.512   3.516
 2950W        W74676  34.615  26.883  12.354
 2951W        W74677  30.344  11.197  12.182
 2952W        W74678  31.052  16.832   2.773
 2953W        W74679   9.974   5.763  14.787
 2954W        W74680  42.564  13.593   3.786
 2955W        W74681   9.690  12.893   3.597
 2956W        W74682  38.262   5.781  11.735
 2957W        W74683  26.584   7.886  12.371
 2958W        W74684   9.600  42.939   0.499
 2959W        W74685  39.248  12.073  12.663
 2960W        W74686  21.757  24.543   1.346
 2961W        W74687  39.336  42.626   0.690
 2962W        W74688  17.872  33.805   4.686
 2963W        W74689   2.282  41.796  10.454
 2964W        W74690  29.790  39.235   2.106
 2965W        W74691   5.503  40.286  12.381
 2966W        W74692  28.810  31.592  14.642
 2967W        W74693   7.164  31.357  14.110
 2968W        W74694  15.856   6.415   5.099
 2969W        W74695   7.732  39.627  10.661
 2970W        W74696   3.520  15.139   0.737
 2971W        W74697  43.296  20.757  10.556
 2972W        W74698  23.776  37.017   0.599
 2973W        W74699  43.961  11.346   1.342
 2974W        W74700  40.734  43.519   4.841
 2975W        W74701  20.345  24.210  14.506
 2976W        W74702  44.236  33.372  13.332
 2977W        W74703  26.082   3.035  12.911
 2978W        W74704  27.408  26.533  13.922
 2979W        W74705   4.718  35.259  12.618
 2980W        W74706  35.335  33.129  13.506
 2981W        W74707  33.131  26.763  11.563
 2982W        W74708  26.580  44.447   2.696
 2983W        W74709  17.439   3.205   3.306
 2984W        W74710   2.013  28.710   2.485
 2985W        W74711   1.710  26.760  13.365
 2986W        W74712  11.836  41.268  13.819
 2987W        W74713  11.761  12.645   3.451
 2988W        W74714  33.724   0.381  10.335
 2989W        W74715  24.995   5.588  13.866
 2990W        W74716  17.117   3.268   1.164
 2991W        W74717  24.667   4.341  12.371
 2992W        W74718  39.343  19.685   3.275
 2993W        W74719  39.874  37.871   1.911
 2994W        W74720   2.176  29.556  11.558
 2995W        W74721  30.966  21.844  13.967
 2996W        W74722  42.984  44.499   1.705
 2997W        W74723  26.213   4.030   0.377
 2998W        W74724  41.575  34.660   0.580
 2999W        W74725  38.411  33.172   3.126
 3000W        W74726  36.071  35.040   0.484
 3001W        W74727  17.114  42.996  11.535
 3002W        W74728  39.526   7.301   1.182
 3003W        W74729  27.901  12.195  11.523
 3004W        W74730  37.946  13.268   3.590
 3005W        W74731   0.800  12.599   1.970
 3006W        W74732  24.099  36.579  10.589
 3007W        W74733  22.217  10.316   0.209
 3008W        W74734  35.915  31.454  12.635
 3009W        W74735  41.620   7.821   2.753
 3010W        W74736  32.813   6.849  14.038
 3011W        W74737  31.879  23.112  10.686
 3012W        W74738  16.888  42.881  13.789
 3013W        W74739  34.223  19.219  14.292
 3014W        W74740   5.278  35.405  14.362
 3015W        W74741  22.571  26.625  12.539
 3016W        W74742   5.411  29.543  10.697
 3017W        W74743   9.648  11.556   4.155
 3018W        W74744  16.022  44.310   4.152
 3019W        W74745  18.883  17.234   0.841
 3020W        W74746  27.451  41.505   4.685
 3021W        W74747  13.627  44.410  12.085
 3022W        W74748   5.807  21.775  10.903
 3023W        W74749   2.351  43.049  14.504
 3024W        W74750  10.301  42.538  12.372
 3025W        W74751  14.585   0.255   0.812
 3026W        W74752  19.351  34.470   3.834
 3027W        W74753  35.466  26.061  12.626
 3028W        W74754  28.107   7.972  13.049
 3029W        W74755  44.914  13.012   4.152
 3030W        W74756  20.827  17.633  13.822
 3031W        W74757  23.072  29.829   0.281
 3032W        W74758  22.262  20.812  11.679
 3033W        W74759  10.815  16.095  10.944
 3034W        W74760   6.775   1.106   1.797
 3035W        W74761  17.265  41.516  14.773
 3036W        W74762  28.070  31.350  13.419
 3037W        W74763  31.639  30.179   4.891
 3038W        W74764  11.202  17.885  11.082
 3039W        W74765  15.716   0.685  14.901
 3040W        W74766  44.973  29.466   4.068
 3041W        W74767  33.005   4.281  10.749
 3042W        W74768  20.984  13.034  12.327
 3043W        W74769   2.473   2.677  12.908
 3044W        W74770  16.566  23.197   1.309
 3045W        W74771  19.960  39.797  11.169
 3046W        W74772  12.244  19.197  12.882
 3047W        W74773   4.864  16.831   0.196
 3048W        W74774   1.246  35.936  14.928
 3049W        W74775  38.025  27.774   1.981
 3050W        W74776  35.425   7.994   2.277
 3051W        W74777  37.891  11.268  13.334
 3052W        W74778   6.932   6.668  13.709
 3053W        W74779  44.938  42.782  14.284
 3054W        W74780  14.290  11.545   1.611
 3055W        W74781   6.130   2.862  14.750
 3056W        W74782   3.238   7.262   0.189
 3057W        W74783  17.322  27.565  10.651
 3058W        W74784   5.549  35.695  12.514
 3059W        W74785  39.584   5.952  12.492
 3060W        W74786   9.175  13.407   4.255
 3061W        W74787  35.057  26.548   0.232
 3062W        W74788   6.331  25.881  14.751
 3063W        W74789  43.217   2.904   3.704
 3064W        W74790  23.673   3.548  10.331
 3065W        W74791   7.769   9.749   3.266
 3066W        W74792  21.770  34.488   0.244
 3067W        W74793  23.613  39.911  14.743
 3068W        W74794  33.002  17.058  14.411
 3069W        W74795  23.552  27.623   5.328
 3070W        W74796   6.966   4.563   4.631
 3071W        W74797   7.842   7.680   2.158
 3072W        W74798  28.119   4.506  11.520
 3073W        W74799  41.950  16.526   3.784
 3074W        W74800   9.639   1.335  14.379
 3075W        W74801  19.023   5.914   3.689
 3076W        W74802  38.438  19.258  14.218
 3077W        W74803   5.293  21.056   1.919
 3078W        W74804  20.228  32.794  13.171
 3079W        W74805  27.050  31.986   4.117
 3080W        W74806   1.227  15.303   4.211
 3081W        W74807  21.852  30.019   3.272
 3082W        W74808  20.575  18.527   2.224
 3083W        W74809   5.324  37.834   1.962
 3084W        W74810  20.450  42.887   1.083
 3085W        W74811   7.078   9.233  10.720
 3086W        W74812  26.005   4.256  13.459
 3087W        W74813  11.794   9.408  11.050
 3088W        W74814   2.223   3.419   2.829
 3089W        W74815  35.905  25.586  13.888
 3090W        W74816  24.563   9.283  11.184
 3091W        W74817  40.760  20.543   3.253
 3092W        W74818  22.060  42.803  13.978
 3093W        W74819  28.174   3.449  14.042
 3094W        W74820  25.623   3.220   5.084
 3095W        W74821   6.714  40.858  11.455
 3096W        W74822  43.142  12.301  14.301
 3097W        W74823  28.022   5.175   2.338
 3098W        W74824  13.226   5.439  13.294
 3099W        W74825  29.748  10.183  11.193
 3100W        W74826  33.558  31.270   4.809
 3101W        W74827  39.189  18.957  12.397
 3102W        W74828  32.050   0.077   4.096
 3103W        W74829   5.037   0.685  10.053
 3104W        W74830  44.970  19.538  13.058
 3105W        W74831   6.220  27.699  12.035
 3106W        W74832  36.921  18.336   3.319
 3107W        W74833  41.723  23.109  11.719
 3108W        W74834  30.166  22.250   3.688
 3109W        W74835   6.623   4.199   0.444
 3110W        W74836  12.898  38.057  11.070
 3111W        W74837   2.654  36.858  12.923
 3112W        W74838  42.076  34.829  14.765
 3113W        W74839  23.943  11.756   4.550
 3114W        W74840  22.435  23.995  11.074
 3115W        W74841  21.676   3.786   0.709
 3116W        W74842  23.773  34.368   0.366
 3117W        W74843   2.292  28.354  14.004
 3118W        W74844  20.069  20.270  13.461
 3119W        W74845  19.588  26.045   2.833
 3120W        W74846  30.584   2.774   3.515
 3121W        W74847   3.022  14.337  10.922
 3122W        W74848   0.790  23.097  13.492
 3123W        W74849  24.631  37.778  11.396
 3124W        W74850  25.084  17.550  13.645
 3125W        W74851  34.539  32.263  11.642
 3126W        W74852  33.919  25.831  12.137
 3127W        W74853  36.069   4.197   0.923
 3128W        W74854  21.766  39.596   4.720
 3129W        W74855  29.847  25.666   4.597
 3130W        W74856  10.606  29.068   3.891
 3131W        W74857  36.849  40.261  12.000
 3132W        W74858   9.382  18.310   2.327
 3133W        W74859  21.977  13.319  13.429
 3134W        W74860  39.356   1.442   0.765
 3135W        W74861  26.453  24.141  10.621
 3136W        W74862  39.314  37.473  12.235
 3137W        W74863  12.195  43.300   4.759
 3138W        W74864   5.644  12.849   2.340
 3139W        W74865  24.039  25.983  11.222
 3140W        W74866  18.548   7.599  11.317
 3141W        W74867  44.785  13.036   0.903
 3142W        W74868  13.676   1.095  13.888
 3143W        W74869  13.300   4.006   4.117
 3144W        W74870  41.900  24.009  13.561
 3145W        W74871  26.797   9.281   4.071
 3146W        W74872  14.383  30.694   1.428
 3147W        W74873   5.261   4.271   1.391
 3148W        W74874   8.119  38.463  13.840
 3149W        W74875  44.488   4.398   0.670
 3150W        W74876  37.764  42.906   3.666
 3151W        W74877  31.673  41.620   1.722
 3152W        W74878   8.697  40.601  14.847
 3153W        W74879  35.338  14.150   1.489
 3154W        W74880  14.304  29.065  14.824
 3155W        W74881  29.055   6.254   3.226
 3156W        W74882  26.026  12.692  11.648
 3157W        W74883  34.571  18.332   0.286
 3158W        W74884  14.641   8.772  10.358
 3159W        W74885   5.600  17.249   4.530
 3160W        W74886  15.320  15.588   4.591
 3161W        W74887  16.996  31.630  12.966
 3162W        W74888   3.855  35.043   4.786
 3163W        W74889   6.669  18.593   4.178
 3164W        W74890  21.242  37.629  10.252
 3165W        W74891  20.272  26.608   1.681
 3166W        W74892  34.606   7.148  10.710
 3167W        W74893  36.145  19.002  11.496
 3168W        W74894  25.192  42.951   4.751
 3169W        W74895  12.025  16.826  12.847
 3170W        W74896   5.117   5.311   4.606
 3171W        W74897  25.256  17.039   2.301
 3172W        W74898  18.997  37.475   4.325
 3173W        W74899  41.765   0.482   4.206
 3174W        W74900  12.542  21.794   2.358
 3175W        W74901  26.806   0.226   4.681
 3176W        W74902  42.412  22.409   4.777
 3177W        W74903  34.126  39.524  10.621
 3178W        W74904  35.580  21.571   4.105
 3179W        W74905  27.637  18.659  12.648
 3180W        W74906  21.788  24.454   3.640
 3181W        W74907  26.580  43.712   4.274
 3182W        W74908  20.540  33.398   3.229
 3183W        W74909   6.260   6.750   0.442
 3184W        W74910  26.080  37.071  14.833
 3185W        W74911   8.416  36.367  12.694
 3186W        W74912   5.877  31.173  13.794
 3187W        W74913  26.692  20.574  14.471
 3188W        W74914  12.329  13.339  12.897
 3189W        W74915   1.260   9.668   2.750
 3190W        W74916  37.277  37.193  10.452
 3191W        W74917   3.002   5.274  14.876
 3192W        W74918  44.333  35.302   3.203
 3193W        W74919  25.637  24.025  11.248
 3194W        W74920   9.957  37.837  13.899
 3195W        W74921  16.172  36.655   3.898
 3196W        W74922  30.524  18.693  12.334
 3197W        W74923   9.656  16.303  10.767
 3198W        W74924  24.222  21.165   4.582
 3199W        W74925  30.348  19.961  13.033
 3200W        W74926  38.768   3.634  12.981
 3201W        W74927  18.246  23.473   1.360
 3202W        W74928  22.024  44.719   2.969
 3203W        W74929  26.005  11.249  12.077
 3204W        W74930   2.929  23.641  12.880
 3205W        W74931  43.413  44.384  11.045
 3206W        W74932  11.396   9.265   3.619
 3207W        W74933  27.045  18.735  13.066
 3208W        W74934  39.593   1.282  13.315
 3209W        W74935  38.520  22.184   0.440
 3210W        W74936  24.028  21.252   5.228
 3211W        W74937  11.931  37.950   0.937
 3212W        W74938  19.211  44.796  13.849
 3213W        W74939  35.057   4.250  13.292
 3214W        W74940  34.878  42.346   1.891
 3215W        W74941   9.701  23.330   2.628
 3216W        W74942  37.144   2.147  13.488
 3217W        W74943  40.870  41.901   2.312
 3218W        W74944  35.841  34.991   5.326
 3219W        W74945  37.263  37.763   0.309
 3220W        W74946  37.115   1.903  11.989
 3221W        W74947  27.038  19.926   4.571
 3222W        W74948  17.367  22.681  11.189
 3223W        W74949  28.650  28.436  14.909
 3224W        W74950  40.426   3.851   3.658
 3225W        W74951  26.103  18.303  14.410
 3226W        W74952  34.502   2.471  11.593
 3227W        W74953   5.868  31.192   1.392
 3228W        W74954  11.848  25.484   0.232
 3229W        W74955   4.916  44.343  12.717
 3230W        W74956  19.631   9.531  13.614
 3231W        W74957   3.056  13.213  11.996
 3232W        W74958  38.626  18.476  13.842
 3233W        W74959  33.957  41.857   5.057
 3234W        W74960  21.086  38.082   1.667
 3235W        W74961  13.136  31.001  13.316
 3236W        W74962  27.479  13.644  10.274
 3237W        W74963   3.899  14.653   1.656
 3238W        W74964  12.210  38.384  13.936
 3239W        W74965   4.681  35.403   3.301
 3240W        W74966  22.283  25.587  12.172
 3241W        W74967  29.169   5.374  12.824
 3242W        W74968  28.682  34.993   4.471
 3243W        W74969  18.159  28.113  11.429
 3244W        W74970  39.485  33.514  11.000
 3245W        W74971  21.983  12.656   9.883
 3246W        W74972  43.925  34.149   4.027
 3247W        W74973  30.944  38.063   0.417
 3248W        W74974  16.827  10.950  12.564
 3249W        W74975  27.018  19.615   2.713
 3250W        W74976  28.221  31.624   0.314
 3251W        W74977  23.188  32.993   0.390
 3252W        W74978  21.680  25.877   3.701
 3253W        W74979  29.153  21.827  11.023
 3254W        W74980  16.234  37.655   3.591
 3255W        W74981  32.058  11.521  10.604
 3256W        W74982  42.063  36.970   4.205
 3257W        W74983  27.346  40.482   2.399
 3258W        W74984  16.538  41.506  11.981
 3259W        W74985  36.272  30.916   4.604
 3260W        W74986  18.481   3.905   4.555
 3261W        W74987  15.477  20.088  10.793
 3262W        W74988   4.905   7.308   4.651
 3263W        W74989   6.005  11.830  14.007
 3264W        W74990  42.497  17.843  13.087
 3265W        W74991   1.811  36.582  10.784
 3266W        W74992  25.129  14.723  10.659
 3267W        W74993  30.625  21.756  14.767
 3268W        W74994   0.005   4.894   2.299
 3269W        W74995  40.862  37.952  11.412
 3270W        W74996  37.239  40.120   0.963
 3271W        W74997  20.950  24.331  11.071
 3272W        W74998  18.300  25.155  11.744
 3273W        W74999   7.445  28.745  14.105
 3274W        W75000  26.919   6.273   1.240
 3275W        W75001   6.258   2.026  12.195
 3276W        W75002  25.224  40.396  14.733
 3277W        W75003  36.830   6.748  11.127
 3278W        W75004  13.354   9.809  12.354
 3279W        W75005  28.415   0.861   3.318
 3280W        W75006  15.906  27.134  13.128
 3281W        W75007  32.498   7.972   4.077
 3282W        W75008   5.139  16.297  10.618
 3283W        W75009  13.748  34.575   3.314
 3284W        W75010  32.329  26.140   3.514
 3285W        W75011   2.945  39.364  11.092
 3286W        W75012  22.208  40.059  12.830
 3287W        W75013  32.781  42.788   3.667
 3288W        W75014  13.389   4.671  12.390
 3289W        W75015  36.099   0.287  12.427
 3290W        W75016  42.897  43.758  13.556
 3291W        W75017   6.361  37.999   2.432
 3292W        W75018  16.780  18.794  11.642
 3293W        W75019  17.452  16.402   3.639
 3294W        W75020   9.610  30.093   0.015
 3295W        W75021  13.123  24.092   1.198
 3296W        W75022  37.773  43.394  11.968
 3297W        W75023  32.916  28.565  10.669
 3298W        W75024   3.671  27.630   2.270
 3299W        W75025  12.299  23.724  11.546
 3300W        W75026  44.725  27.566   2.726
 3301W        W75027  32.229  43.393  10.660
 3302W        W75028  19.511   6.067   2.765
 3303W        W75029  11.053  15.659   4.208
 3304W        W75030  24.082   6.932  10.746
 3305W        W75031  34.062  34.055  10.594
 3306W        W75032  21.748  10.830  11.969
 3307W        W75033  20.129  30.496  12.411
 3308W        W75034   4.396   3.488   0.886
 3309W        W75035  30.626  42.465   5.434
 3310W        W75036  38.324   3.877  11.353
 3311W        W75037  28.131  14.598   3.865
 3312W        W75038  40.068  41.280  10.714
 3313W        W75039  14.515   3.871   1.416
 3314W        W75040  34.546  12.732   0.977
 3315W        W75041  37.178  42.000   3.744
 3316W        W75042  13.079  28.028   5.146
 3317W        W75043   3.797  43.175  14.811
 3318W        W75044   4.366  29.158   1.333
 3319W        W75045  30.209   2.833  12.034
 3320W        W75046  23.047  43.775  10.547
 3321W        W75047   5.976  35.058  12.003
 3322W        W75048  39.494  26.787   0.367
 3323W        W75049  17.484  32.566  11.015
 3324W        W75050   7.742  43.743   2.277
 3325W        W75051  44.993   5.822   2.336
 3326W        W75052  24.697  23.474  11.656
 3327W        W75053  31.511   4.510  14.348
 3328W        W75054  24.694   6.396  13.980
 3329W        W75055  40.314  34.484  14.977
 3330W        W75056  22.444  16.679   2.280
 3331W        W75057  24.745   3.173  14.267
 3332W        W75058  19.063  33.546  11.901
 3333W        W75059  34.644  16.443   1.039
 3334W        W75060  39.595  28.002  12.632
 3335W        W75061  14.118  16.811   1.906
 3336W        W75062   2.451  16.687  14.733
 3337W        W75063  36.984   9.868  11.118
 3338W        W75064  25.433  23.610  10.515
 3339W        W75065  35.900  11.166  11.646
 3340W        W75066  42.507   9.658  10.652
 3341W        W75067   3.033  38.062  11.359
 3342W        W75068   7.274  22.524   1.327
 3343W        W75069  15.046  18.519   4.337
 3344W        W75070  17.273  28.040   0.045
 3345W        W75071  36.811   5.425   1.741
 3346W        W75072   8.794  11.606   3.837
 3347W        W75073  34.555  18.736   2.948
 3348W        W75074  17.849  20.555   2.233
 3349W        W75075  29.029   6.288  12.838
 3350W        W75076  36.393  27.965  13.980
 3351W        W75077   0.251  18.523  10.776
 3352W        W75078  42.096  28.541  11.964
 3353W        W75079  24.736  21.165  12.342
 3354W        W75080  11.856  26.573   1.304
 3355W        W75081   3.874  16.612  14.595
 3356W        W75082  21.775   4.794  10.087
 3357W        W75083  22.344  11.732   0.447
 3358W        W75084  11.078  32.373   3.088
 3359W        W75085  13.780  35.177   1.067
 3360W        W75086   6.795   5.774  13.563
 3361W        W75087  34.059   6.641   1.916
 3362W        W75088  15.685  12.925  12.968
 3363W        W75089  17.605  43.467   2.768
 3364W        W75090  38.601  13.664  13.362
 3365W        W75091   3.867   7.720  14.009
 3366W        W75092  21.094  12.075   4.813
 3367W        W75093  44.908   8.843  10.714
 3368W        W75094  38.055   7.989  12.615
 3369W        W75095  15.226  34.766  13.244
 3370W        W75096   5.624   7.462  13.450
 3371W        W75097   9.847   1.803   4.031
 3372W        W75098  24.019   4.716  12.011
 3373W        W75099  18.600  39.898   1.405
 3374W        W75100  44.163  38.368   0.955
 3375W        W75101  12.916  37.791  10.621
 3376W        W75102   3.974  10.869   3.191
 3377W        W75103  15.004  33.101   2.455
 3378W        W75104  41.815  30.092  12.577
 3379W        W75105   8.193  37.019   4.783
 3380W        W75106  36.558   0.288   1.446
 3381W        W75107  10.384  39.556   1.677
 3382W        W75108  10.588   5.808  11.948
 3383W        W75109   7.987  33.367  11.524
 3384W        W75110  42.892  16.194  13.400
 3385W        W75111   0.581  34.618  11.696
 3386W        W75112  18.294   7.834  11.718
 3387W        W75113  32.057  21.079  13.831
 3388W        W75114  36.005  11.834  12.137
 3389W        W75115  35.603  37.063   0.900
 3390W        W75116  34.982  32.987  12.547
 3391W        W75117  18.312   6.145  14.973
 3392W        W75118  36.080  43.019  13.983
 3393W        W75119  20.496  11.865   1.207
 3394W        W75120  24.573  12.414  12.188
 3395W        W75121  23.868  18.560   1.341
 3396W        W75122   3.523  30.247   3.673
 3397W        W75123  28.094  35.388   2.705
 3398W        W75124  24.395  39.822   1.474
 3399W        W75125   0.465   0.376  12.894
 3400W        W75126  35.636  24.508   2.630
 3401W        W75127   5.355  20.285  13.430
 3402W        W75128   8.331  19.264   3.690
 3403W        W75129  14.723  32.462   4.795
 3404W        W75130  22.457  12.036   5.110
 3405W        W75131  17.108   7.904   3.850
 3406W        W75132   6.267   5.935   3.228
 3407W        W75133   1.249  13.282  14.848
 3408W        W75134  18.773  30.805  11.991
 3409W        W75135  24.708  43.740  11.160
 3410W        W75136   0.294  14.426   1.414
 3411W        W75137  40.015  40.826  10.927
 3412W        W75138   0.988  34.169   4.089
 3413W        W75139  24.261  26.336  10.908
 3414W        W75140  25.108  20.693  13.171
 3415W        W75141  41.936  22.198   4.637
 3416W        W75142  27.107  11.032   0.883
 3417W        W75143  26.943  40.741  10.524
 3418W        W75144   6.812  24.566  11.486
 3419W        W75145  10.192  11.335  13.903
 3420W        W75146   0.957   3.863   0.791
 3421W        W75147  16.845  20.993  10.656
 3422W        W75148   7.761  14.039   0.289
 3423W        W75149  24.476   1.229  11.850
 3424W        W75150   4.066   9.398   3.429
 3425W        W75151   8.290  12.767   4.264
 3426W        W75152  38.067  35.362   3.889
 3427W        W75153  42.934  37.777   0.486
 3428W        W75154  22.902  25.448   0.984
 3429W        W75155   5.626  40.891   3.891
 3430W        W75156  40.630  33.323  12.796
 3431W        W75157  17.498  26.410   9.979
 3432W        W75158  40.057  16.980  11.196
 3433W        W75159  20.489   3.933   1.293
 3434W        W75160  31.866   8.783  12.980
 3435W        W75161  25.145  36.770   3.791
 3436W        W75162   4.890   5.259   4.073
 3437W        W75163   1.070  39.801   1.266
 3438W        W75164   2.383   3.113   1.778
 3439W        W75165  21.068  14.779  14.932
 3440W        W75166   7.416  24.539   4.315
 3441W        W75167  19.639  43.593   3.506
 3442W        W75168  23.144  31.659  13.370
 3443W        W75169  23.746   2.931   1.991
 3444W        W75170  35.440   1.785  11.216
 3445W        W75171  41.893  44.069   1.692
 3446W        W75172   9.546  30.885  13.390
 3447W        W75173  36.610  41.298  11.589
 3448W        W75174   5.407  22.882  11.927
 3449W        W75175   5.731  35.105  13.818
 3450W        W75176   9.235  15.514   4.534
 3451W        W75177  44.483   4.919  13.903
 3452W        W75178   9.213  10.296  13.259
 3453W        W75179  40.010  18.518  14.796
 3454W        W75180  25.517  41.550   1.294
 3455W        W75181  17.886  31.397   3.718
 3456W        W75182  41.685   6.341   3.761
 3457W        W75183  31.111  17.489  11.968
 3458W        W75184   6.193  11.161  10.622
 3459W        W75185  32.164  34.092   4.497
 3460W        W75186  37.070  14.175  12.903
 3461W        W75187  17.069  17.161  14.814
 3462W        W75188  42.829  33.420   4.602
 3463W        W75189  34.524  41.938   1.245
 3464W        W75190   7.357  43.310   3.095
 3465W        W75191  43.089  32.924   1.768
 3466W        W75192  33.965  35.174   1.347
 3467W        W75193  17.256  19.098   1.229
 3468W        W75194  20.951  23.102  14.433
 3469W        W75195  19.642  22.829   1.245
 3470W        W75196  27.135  14.312   2.243
 3471W        W75197  12.189  39.942  12.959
 3472W        W75198  13.568  32.911   3.916
 3473W        W75199  37.059  40.075  14.515
 3474W        W75200  41.015  17.562  13.824
 3475W        W75201  36.015  11.471  12.535
 3476W        W75202  26.392   6.418  12.463
 3477W        W75203  39.528  21.317  10.185
 3478W        W75204  41.587  38.987  11.099
 3479W        W75205   2.690   8.382   0.283
 3480W        W75206  19.969   4.455  12.009
 3481W        W75207  11.567  26.161   4.003
 3482W        W75208   0.688   1.440   0.415
 3483W        W75209  27.131  44.575  10.619
 3484W        W75210  19.653  16.811  12.794
 3485W        W75211  43.452   0.802  10.993
 3486W        W75212  11.652  34.463   0.948
 3487W        W75213  19.115  35.313   2.374
 3488W        W75214  41.923   5.189   3.318
 3489W        W75215  22.207   2.902  11.256
 3490W        W75216  18.313  33.433  13.901
 3491W        W75217  30.620   1.775  12.829
 3492W        W75218  44.375   0.529   2.302
 3493W        W75219  42.823  18.283   2.138
 3494W        W75220  35.588  38.015   2.842
 3495W        W75221   5.326  11.441   4.161
 3496W        W75222   7.409  14.197   3.053
 3497W        W75223  24.270  28.923  13.009
 3498W        W75224  32.048  33.891  14.790
 3499W        W75225  18.670  42.235  14.311
 3500W        W75226  31.101  31.981  14.841
 3501W        W75227  30.107  18.410   1.708
 3502W        W75228   6.510  40.299   1.316
 3503W        W75229  39.021  20.137   0.398
 3504W        W75230  39.846  30.057   3.405
 3505W        W75231  13.302  14.500  12.576
 3506W        W75232  28.096   0.469  12.121
 3507W        W75233  41.443   9.308  11.257
 3508W        W75234  11.315   4.533   1.506
 3509W        W75235  38.325  28.496  12.738
 3510W        W75236   7.782   8.827  10.698
 3511W        W75237  24.649  34.916   4.344
 3512W        W75238   9.747   4.447  14.241
 3513W        W75239  29.164  23.905  13.924
 3514W        W75240  10.715  22.113   3.069
 3515W        W75241   6.255   0.765   3.731
 3516W        W75242   1.272   4.392   1.722
 3517W        W75243   8.820  31.111   4.317
 3518W        W75244  24.744  31.144  12.035
 3519W        W75245  37.635  12.297   3.157
 3520W        W75246  40.840  10.567  11.115
 3521W        W75247  11.150  34.912  14.926
 3522W        W75248   3.252  20.373  12.025
 3523W        W75249   6.753  15.843  13.308
 3524W        W75250  43.965  43.952  14.471
 3525W        W75251  10.132   9.718   2.790
 3526W        W75252  10.649  17.292  11.564
 3527W        W75253  42.336  10.111   0.577
 3528W        W75254  26.996  17.549  12.557
 3529W        W75255   7.966  12.655   2.904
 3530W        W75256   2.538  10.378   2.302
 3531W        W75257  27.066   5.893  14.355
 3532W        W75258   1.194   5.667  10.728
 3533W        W75259  29.118  42.965  12.144
 3534W        W75260  19.648  13.153   1.193
 3535W        W75261  35.113   2.852  13.078
 3536W        W75262  29.531   8.689  14.289
 3537W        W75263  28.966  12.171   1.963
 3538W        W75264  44.023  33.875  13.907
 3539W        W75265  10.773  27.911  11.964
 3540W        W75266  39.796   2.877   4.899
 3541W        W75267  22.261  12.250  10.064
 3542W        W75268  11.357   7.365  13.645
 3543W        W75269  37.608  34.057  13.174
 3544W        W75270  24.176  37.539   2.300
 3545W        W75271  36.521  25.272   2.894
 3546W        W75272  16.765  31.667   3.427
 3547W        W75273  40.032   5.352  13.600
 3548W        W75274  29.999  37.618   3.159
 3549W        W75275  18.275  15.946   4.060
 3550W        W75276   6.384  14.244  14.508
 3551W        W75277  12.389   6.930  10.646
 3552W        W75278   4.281  38.881  12.977
 3553W        W75279   9.792   6.643   4.692
 3554W        W75280   3.896  39.252  10.976
 3555W        W75281  19.491  10.720   2.307
 3556W        W75282   2.830  13.664  11.571
 3557W        W75283  26.566   8.817   4.170
 3558W        W75284  30.415  30.156   3.238
 3559W        W75285  14.590  44.913  13.432
 3560W        W75286   4.838   5.422  12.113
 3561W        W75287  26.773  23.278   1.177
 3562W        W75288  26.605  23.527  13.658
 3563W        W75289  23.450   9.418  14.878
 3564W        W75290  15.681  44.686  11.616
 3565W        W75291  25.448  30.140  14.396
 3566W        W75292  37.490  34.037  14.938
 3567W        W75293  26.966  36.047   4.378
 3568W        W75294   4.951   6.901   3.708
 3569W        W75295   9.179  14.400  12.749
 3570W        W75296  19.961  15.365   0.402
 3571W        W75297  26.080  31.972  13.071
 3572W        W75298  11.887  43.399  12.850
 3573W        W75299   0.345   4.892  14.298
 3574W        W75300  44.396  21.687  13.079
 3575W        W75301  29.296  39.876  14.525
 3576W        W75302  12.688   6.460   0.295
 3577W        W75303  37.072  43.959   2.272
 3578W        W75304  21.485  27.647   2.576
 3579W        W75305   8.695   6.232   1.997
 3580W        W75306   9.172  37.377   3.160
 3581W        W75307  31.039  43.748  11.139
 3582W        W75308  26.210   9.844   0.863
 3583W        W75309   6.162   7.201  12.055
 3584W        W75310  14.256  30.002  12.948
 3585W        W75311   3.168  36.580   3.656
 3586W        W75312  32.882   8.151  11.933
 3587W        W75313  39.520  12.140  10.672
 3588W        W75314   5.727  38.120  11.891
 3589W        W75315   1.683  23.659   2.605
 3590W        W75316  26.836  19.086   3.591
 3591W        W75317   3.844   2.789   1.434
 3592W        W75318  36.201  37.860  12.560
 3593W        W75319  22.793  44.459   2.699
 3594W        W75320  18.110  30.307   3.404
 3595W        W75321  42.824  19.975  14.777
 3596W        W75322   9.001  29.010  14.273
 3597W        W75323   3.391   7.161   1.126
 3598W        W75324  27.918  35.882  10.741
 3599W        W75325   5.384  32.938   2.549
 3600W        W75326  27.630  25.762   2.108
 3601W        W75327  43.491  11.830  13.049
 3602W        W75328  38.588  23.708   0.443
 3603W        W75329   8.010   5.987  12.807
 3604W        W75330  44.984  39.487  11.895
 3605W        W75331  10.222  18.766  11.619
 3606W        W75332  40.372  19.718  12.881
 3607W        W75333   5.394  12.561  14.894
 3608W        W75334  19.316  13.858  13.431
 3609W        W75335   0.914  17.176   2.347
 3610W        W75336  31.576  35.033   3.113
 3611W        W75337  20.666   9.337   1.194
 3612W        W75338  39.373  38.908   3.268
 3613W        W75339  33.089  28.133  10.376
 3614W        W75340  24.822  40.637   4.909
 3615W        W75341  16.579  40.465  11.152
 3616W        W75342  39.877   1.902  11.565
 3617W        W75343  42.853  28.387  14.549
 3618W        W75344  26.074   3.223  12.432
 3619W        W75345  25.665   7.617  10.744
 3620W        W75346  16.310  28.716   3.471
 3621W        W75347   8.304  17.563   2.799
 3622W        W75348  12.625  20.129  13.419
 3623W        W75349  32.087   5.849  13.571
 3624W        W75350   4.267  18.801   1.615
 3625W        W75351  31.063  39.440   2.819
 3626W        W75352  19.959  36.331   2.443
 3627W        W75353  12.935   7.662   4.738
 3628W        W75354   4.490  15.560   5.461
 3629W        W75355  25.676  35.098   1.347
 3630W        W75356   3.341   9.300  13.237
 3631W        W75357   1.823  29.103  13.052
 3632W        W75358   2.817   7.946  13.375
 3633W        W75359   5.957  26.920  11.651
 3634W        W75360  18.111   9.251  13.004
 3635W        W75361  34.751   5.907   4.551
 3636W        W75362  27.238  25.683  11.405
 3637W        W75363  24.166  14.514  14.302
 3638W        W75364  26.561  40.476  12.441
 3639W        W75365   7.424  40.334  12.490
 3640W        W75366  39.477  20.661   1.323
 3641W        W75367   7.375   8.262  10.761
 3642W        W75368  32.040   9.330  11.381
 3643W        W75369   8.489  24.526  13.575
 3644W        W75370  33.921  18.821  10.960
 3645W        W75371  29.518  13.368   3.163
 3646W        W75372  15.679  25.746   0.405
 3647W        W75373  28.701  28.714  11.473
 3648W        W75374  28.529   6.321  11.119
 3649W        W75375  20.502  16.596   3.650
 3650W        W75376  35.546   4.737   2.993
 3651W        W75377  23.238  27.126  14.766
 3652W        W75378  42.847  17.658   3.655
 3653W        W75379  37.531  44.263  11.091
 3654W        W75380   3.329  36.789  11.598
 3655W        W75381  35.417   3.360   4.045
 3656W        W75382  22.997  14.235   0.890
 3657W        W75383  34.154   6.373  11.100
 3658W        W75384  16.501  23.001  14.521
 3659W        W75385  18.344  16.612   2.210
 3660W        W75386   1.843   4.753  11.123
 3661W        W75387  10.805   8.584  13.929
 3662W        W75388  38.604  37.564   1.234
 3663W        W75389  30.479  11.145  13.648
 3664W        W75390   6.301   5.183  12.079
 3665W        W75391  11.701  25.887  11.099
 3666W        W75392  34.822   2.891  12.141
 3667W        W75393  16.579   8.723   3.632
 3668W        W75394  37.961   3.908   0.423
 3669W        W75395  30.693  30.002  11.654
 3670W        W75396  37.273  33.526   2.841
 3671W        W75397  44.707   0.419   4.746
 3672W        W75398  15.751  22.950   3.243
 3673W        W75399  11.196  29.667  13.773
 3674W        W75400  21.755  39.901  11.469
 3675W        W75401  24.828   2.279   1.771
 3676W        W75402  17.548   5.664  14.943
 3677W        W75403  27.900   9.322   0.127
 3678W        W75404  11.948  29.336  14.310
 3679W        W75405  15.691  31.731  14.905
 3680W        W75406  29.667  18.223   0.957
 3681W        W75407  40.250  42.534   2.146
 3682W        W75408  33.606  43.360  13.810
 3683W        W75409  30.663  24.181  14.915
 3684W        W75410   9.104   8.425  13.034
 3685W        W75411  33.112   9.202   0.938
 3686W        W75412  18.057  37.812   3.659
 3687W        W75413   0.005  37.058   0.604
 3688W        W75414   5.719   7.436  13.950
 3689W        W75415  42.251  29.205   0.847
 3690W        W75416  25.194  28.880  14.825
 3691W        W75417  11.005  29.604   4.107
 3692W        W75418  25.534  30.475   3.322
 3693W        W75419  19.279  10.138   4.282
 3694W        W75420  42.834  27.944   1.344
 3695W        W75421  13.788  31.986  10.403
 3696W        W75422  11.934   5.919   1.865
 3697W        W75423   1.227  10.613   0.206
 3698W        W75424  14.120  32.161   0.180
 3699W        W75425  31.278  19.023  14.923
 3700W        W75426  34.161   1.823   3.755
 3701W        W75427  19.803  33.836   3.736
 3702W        W75428   4.877  38.890   2.444
 3703W        W75429   1.215  13.162  12.494
 3704W        W75430  38.893  23.070  14.726
 3705W        W75431   3.755  26.509  12.953
 3706W        W75432   8.194   1.371   4.142
 3707W        W75433  33.998   4.935  12.463
 3708W        W75434  32.896   8.734   1.820
 3709W        W75435  42.542  31.791  11.858
 3710W        W75436  29.403  22.485  14.827
 3711W        W75437  25.635  36.331  10.726
 3712W        W75438  32.873  27.086   0.020
 3713W        W75439  24.998  18.811   1.396
 3714W        W75440  43.695  29.045  12.142
 3715W        W75441  29.042  31.335  11.003
 3716W        W75442   6.677  26.776   3.305
 3717W        W75443  31.082  25.739   1.263
 3718W        W75444  18.173  44.008   4.570
 3719W        W75445   7.875  24.224  14.929
 3720W        W75446   4.746  13.312  11.751
 3721W        W75447   1.360  37.162  12.857
 3722W        W75448  15.820   1.983  14.418
 3723W        W75449  15.181  13.088  13.055
 3724W        W75450  27.070   5.436  12.049
 3725W        W75451   7.174   2.986   1.846
 3726W        W75452  12.827  10.386  11.721
 3727W        W75453  36.568  42.413   3.325
 3728W        W75454  20.551   8.920  10.866
 3729W        W75455   2.972  27.452   0.391
 3730W        W75456  40.440   6.690  13.088
 3731W        W75457  35.159  28.559   1.689
 3732W        W75458  27.698  13.324   4.521
 3733W        W75459  30.210  41.876   2.934
 3734W        W75460  23.200   6.342   3.213
 3735W        W75461  38.231   3.414   1.278
 3736W        W75462  17.593  15.832   1.415
 3737W        W75463   0.235  39.850  11.363
 3738W        W75464  29.406  41.457   4.989
 3739W        W75465  32.173  22.762   5.049
 3740W        W75466   8.863   6.799  11.375
 3741W        W75467  29.933  43.577  11.921
 3742W        W75468  28.922  16.951   0.402
 3743W        W75469  40.315   4.616  14.818
 3744W        W75470  17.173   0.075   4.012
 3745W        W75471   3.039  41.737   2.960
 3746W        W75472  25.830   9.139  14.336
 3747W        W75473  37.885  20.798  12.021
 3748W        W75474  26.981  29.556   3.607
 3749W        W75475  35.652  44.204   0.430
 3750W        W75476  35.132  11.367   2.823
 3751W        W75477  34.032  43.213   4.994
 3752W        W75478  25.014   0.049  11.487
 3753W        W75479   3.573   6.735  11.163
 3754W        W75480  29.138  11.734  14.838
 3755W        W75481  33.341  31.961   1.097
 3756W        W75482  24.273  18.516  13.697
 3757W        W75483   1.887  30.039   2.212
 3758W        W75484  34.757  19.741  10.728
 3759W        W75485  22.052  41.300  14.848
 3760W        W75486  34.642  38.117  14.920
 3761W        W75487   8.981  19.069   2.183
 3762W        W75488   4.174  35.296  12.626
 3763W        W75489  22.222  22.991  13.852
 3764W        W75490  20.193  37.543  11.466
 3765W        W75491  36.106  33.400  11.890
 3766W        W75492  31.152  13.709   0.851
 3767W        W75493   7.913  17.280  13.064
 3768W        W75494  11.540  42.500  11.945
 3769W        W75495   4.802  28.979   0.319
 3770W        W75496  43.223   6.940  10.969
 3771W        W75497  37.566  21.896   0.716
 3772W        W75498  24.995  44.918  12.355
 3773W        W75499  37.629   3.380   0.541
 3774W        W75500  37.657   0.911   4.717
 3775W        W75501  25.939   6.547   1.220
 3776W        W75502  32.128  41.583  10.572
 3777W        W75503   8.721   2.707  14.816
 3778W        W75504   6.902  43.782  13.744
 3779W        W75505   8.919  24.982  11.947
 3780W        W75506  43.265  28.671  14.744
 3781W        W75507   7.178  39.309  11.483
 3782W        W75508  36.515  29.453  10.726
 3783W        W75509   0.885   6.705  12.717
 3784W        W75510  24.291   5.779  12.453
 3785W        W75511  30.739  39.858   0.920
 3786W        W75512  35.418  12.358   1.631
 3787W        W75513  29.399  13.801  14.469
 3788W        W75514   4.705  40.937   3.880
 3789W        W75515  29.921  36.581  14.967
 3790W        W75516  17.344  37.605   2.289
 3791W        W75517  20.137  38.053  10.739
 3792W        W75518  27.271  43.292   3.414
 3793W        W75519  38.590  43.838  11.648
 3794W        W75520  24.985  17.397  12.740
 3795W        W75521   3.142  27.699  13.840
 3796W        W75522  29.998  37.177   4.684
 3797W        W75523  13.405  22.873   1.649
 3798W        W75524  11.016  34.566   9.675
 3799W        W75525  38.989  27.605  12.407
 3800W        W75526  30.142  12.358   0.020
 3801W        W75527  22.052  15.617  13.475
 3802W        W75528  30.624  28.275  12.056
 3803W        W75529  27.978  19.643   0.899
 3804W        W75530  32.494  10.421  10.545
 3805W        W75531  21.980  31.982  14.368
 3806W        W75532  13.631  44.049  10.739
 3807W        W75533  18.813   9.101  11.692
 3808W        W75534   6.763  38.374  11.937
 3809W        W75535   4.145  27.946  10.085
 3810W        W75536  39.394   8.609   3.244
 3811W        W75537   7.998  12.605  14.368
 3812W        W75538  32.943  14.290  12.042
 3813W        W75539   2.064   0.277   2.575
 3814W        W75540  19.047  42.259  13.458
 3815W        W75541  18.204  29.267  12.433
 3816W        W75542  43.934   3.462   1.180
 3817W        W75543  35.023  22.844  11.177
 3818W        W75544  42.319  25.495   1.242
 3819W        W75545  10.782   9.070   4.101
 3820W        W75546   4.208   8.472  13.530
 3821W        W75547  37.342   7.119   0.002
 3822W        W75548  10.242  28.689  12.978
 3823W        W75549  28.485   5.261  11.512
 3824W        W75550  32.358   0.559   2.906
 3825W        W75551   2.250  17.103   4.607
 3826W        W75552   8.849  33.153  11.987
 3827W        W75553  29.584  39.411   3.392
 3828W        W75554  18.139   4.421  13.934
 3829W        W75555  14.570   3.459   9.921
 3830W        W75556  25.046   9.396  14.148
 3831W        W75557  30.070  38.069  13.969
 3832W        W75558   1.222  28.271  14.894
 3833W        W75559  24.199  24.973  13.948
 3834W        W75560  42.771  44.844  11.623
 3835W        W75561  34.369   9.327  13.997
 3836W        W75562  18.092  43.471   4.737
 3837W        W75563   5.807  29.114   1.850
 3838W        W75564  41.224  23.089  11.848
 3839W        W75565  41.828  22.462   4.187
 3840W        W75566  29.978  34.910  12.559
 3841W        W75567  18.706  38.519  12.160
 3842W        W75568  29.887  29.981  14.044
 3843W        W75569   5.835  23.528  13.428
 3844W        W75570  16.604  37.996  10.304
 3845W        W75571  16.766   2.029  12.521
 3846W        W75572  20.142  42.976   3.432
 3847W        W75573   3.765  11.038   2.736
 3848W        W75574  28.769  14.277  11.362
 3849W        W75575  32.592  36.895  12.024
 3850W        W75576  12.550   7.083   2.504
 3851W        W75577  13.119  10.053   2.542
 3852W        W75578  41.831  19.201   1.264
 3853W        W75579  32.794  19.593   4.618
 3854W        W75580  27.077  44.668  13.664
 3855W        W75581   4.995  37.428  13.889
 3856W        W75582  15.296  24.519  14.451
 3857W        W75583  10.590  21.565   2.142
 3858W        W75584   6.393  28.115   0.401
 3859W        W75585  20.654   7.346   2.373
 3860W        W75586  27.999  36.184   2.168
 3861W        W75587  18.605  25.011  14.923
 3862W        W75588  25.068  21.479   4.190
 3863W        W75589  23.618   7.379  11.595
 3864W        W75590  29.918  15.913  13.374
 3865W        W75591  25.214   8.032  12.352
 3866W        W75592  30.596  42.001  14.670
 3867W        W75593  39.865  16.221  11.570
 3868W        W75594   2.950  36.015   3.612
 3869W        W75595   3.971  34.312  13.142
 3870W        W75596   7.122  14.329   2.230
 3871W        W75597  18.789   3.746  10.619
 3872W        W75598  31.597  39.197  11.548
 3873W        W75599  28.668   9.283  11.153
 3874W        W75600  39.377  27.203   2.208
 3875W        W75601  31.113  44.943   2.638
 3876W        W75602  26.379  11.120  12.814
 3877W        W75603   0.319  40.579  12.894
 3878W        W75604   1.772  21.757   0.800
 3879W        W75605  44.444  32.195   0.223
 3880W        W75606  36.604  20.886  11.510
 3881W        W75607  14.877  20.033   4.722
 3882W        W75608   9.284  12.764  13.844
 3883W        W75609  22.029   7.475   3.844
 3884W        W75610  12.080  28.724   0.179
 3885W        W75611  26.085  11.937   2.984
 3886W        W75612  10.551  21.939  12.840
 3887W        W75613   7.440  17.102  14.334
 3888W        W75614  32.770  19.120  11.477
 3889W        W75615  43.757   8.108   1.380
 3890W        W75616  38.342   5.801   0.511
 3891W        W75617  29.847   6.689   2.286
 3892W        W75618  10.191  29.300   1.865
 3893W        W75619  14.720   3.773  11.071
 3894W        W75620   2.766  19.371  12.959
 3895W        W75621  32.549   9.325   4.261
 3896W        W75622  44.350  41.801   0.378
 3897W        W75623  28.221  30.597  13.956
 3898W        W75624  15.048   9.221  12.313
 3899W        W75625  24.491   1.924  11.519
 3900W        W75626  25.942   9.742  10.630
 3901W        W75627   8.619  25.512  13.894
 3902W        W75628  31.207  15.188  10.440
 3903W        W75629  12.145  11.671   4.234
 3904W        W75630  16.081  21.100  10.976
 3905W        W75631  44.016  38.594  11.514
 3906W        W75632  40.960  13.979   2.223
 3907W        W75633  13.754  33.756   1.868
 3908W        W75634   7.167  31.358  11.084
 3909W        W75635   8.238  33.347  12.516
 3910W        W75636  26.988  35.953  12.403
 3911W        W75637  37.988  19.799  11.107
 3912W        W75638  42.454  13.550  12.001
 3913W        W75639   9.175  16.106  11.492
 3914W        W75640  35.034  28.522   2.194
 3915W        W75641  13.785   0.630   1.797
 3916W        W75642  16.674  37.888   3.832
 3917W        W75643  22.590  22.687   0.830
 3918W        W75644  33.362   3.753   0.480
 3919W        W75645  32.884   1.912   2.269
 3920W        W75646   3.433  31.528   4.018
 3921W        W75647   6.307  20.287   4.695
 3922W        W75648  25.663  34.395  12.451
 3923W        W75649  27.928  44.247   1.038
 3924W        W75650  28.572   7.309  11.428
 3925W        W75651  30.745  27.840   1.686
 3926W        W75652   5.162  25.650  12.883
 3927W        W75653   2.253   7.114  13.518
 3928W        W75654  21.954  29.044  14.916
 3929W        W75655  32.633  42.270   1.356
 3930W        W75656   8.406  40.804   4.630
 3931W        W75657  41.974  40.056   1.209
 3932W        W75658  11.838  18.531   2.930
 3933W        W75659  17.495  42.436  11.518
 3934W        W75660  20.319   0.755  13.876
 3935W        W75661  16.044  16.717  14.951
 3936W        W75662  20.123  13.389   2.417
 3937W        W75663  22.484  31.190  14.295
 3938W        W75664  43.938   4.278  14.343
 3939W        W75665  42.976  32.546   3.420
 3940W        W75666  37.209  11.054   0.208
 3941W        W75667   4.180  29.516  11.968
 3942W        W75668  40.103  31.446  14.986
 3943W        W75669  33.994  21.698   1.044
 3944W        W75670   3.946  26.512   0.310
 3945W        W75671  25.669  37.812   0.258
 3946W        W75672  23.130  44.813   4.211
 3947W        W75673   6.793  20.347   3.244
 3948W        W75674  15.176  25.300   4.298
 3949W        W75675   0.423  21.015  14.831
 3950W        W75676   9.152  26.171   4.230
 3951W        W75677  34.842  26.649   4.588
 3952W        W75678  10.433   7.374   4.671
 3953W        W75679  33.387  22.238  12.546
 3954W        W75680  12.784  44.708   4.727
 3955W        W75681   1.640  23.942   3.389
 3956W        W75682  27.901  13.361  12.485
 3957W        W75683  32.499  15.306  14.737
 3958W        W75684  36.648  28.940   0.777
 3959W        W75685  29.751  10.317  13.396
 3960W        W75686  11.358  10.236   4.586
 3961W        W75687  13.276  24.015   4.658
 3962W        W75688  34.545  36.345   1.715
 3963W        W75689  10.668   6.594   2.663
 3964W        W75690  41.893  42.358  10.685
 3965W        W75691  13.163  14.705   0.311
 3966W        W75692  10.732  34.178  14.550
 3967W        W75693  21.616  33.472   0.435
 3968W        W75694  26.372   6.894  11.548
 3969W        W75695  42.024  33.602  10.299
 3970W        W75696  39.748  37.002  13.407
 3971W        W75697   6.560   3.431   1.514
 3972W        W75698  28.411  26.847   0.212
 3973W        W75699  35.004  12.350   2.828
 3974W        W75700  16.077  15.838   1.258
 3975W        W75701  15.786  14.388  14.734
 3976W        W75702  40.847   8.598  13.427
 3977W        W75703  25.517   4.883  13.624
 3978W        W75704  17.687  29.984   3.414
 3979W        W75705  43.528  20.646  12.606
 3980W        W75706  21.463  23.122  14.510
 3981W        W75707   8.221   8.148   3.186
 3982W        W75708  11.750  37.928  11.475
 3983W        W75709  23.467  39.240   1.313
 3984W        W75710  34.742  10.001  14.469
 3985W        W75711  37.529  20.232  13.997
 3986W        W75712  18.000  29.352   0.473
 3987W        W75713  35.592   9.504   3.575
 3988W        W75714  41.384  30.059   2.074
 3989W        W75715   1.417  14.957   3.436
 3990W        W75716  14.803  14.626   3.492
 3991W        W75717  18.313   1.735  14.008
 3992W        W75718  42.475  40.750   2.423
 3993W        W75719  38.409  33.885   4.266
 3994W        W75720  24.435  38.466   0.261
 3995W        W75721  22.739  32.001  10.619
 3996W        W75722  43.345  34.219   2.323
 3997W        W75723   9.793  44.971   4.637
 3998W        W75724  43.050  28.992  10.976
 3999W        W75725   0.053   9.363  14.448
 4000W        W75726  39.791  18.125   1.665
 4001W        W75727  31.433  31.465  10.604
 4002W        W75728  11.920  35.532   3.223
 4003W        W75729  23.068   6.461  12.528
 4004W        W75730  14.182  11.861  12.972
 4005W        W75731  40.355   1.831  14.887
 4006W        W75732  10.310  22.153   2.744
 4007W        W75733  10.695   0.066   0.427
 4008W        W75734  20.065  16.371   3.932
 4009W        W75735  38.865  11.966   0.763
 4010W        W75736  30.596  31.484   0.685
 4011W        W75737  36.614  21.097  13.924
 4012W        W75738  34.583  20.914   0.505
 4013W        W75739   2.064  39.020   1.392
 4014W        W75740  38.986   1.589   3.091
 4015W        W75741  29.711  13.142  12.137
 4016W        W75742  38.478  32.898  10.593
 4017W        W75743   2.453  38.923   2.315
 4018W        W75744  44.759   0.836  12.450
 4019W        W75745  24.045  28.067  14.881
 4020W        W75746  10.862  29.096   4.884
 4021W        W75747  11.222  32.523  10.929
 4022W        W75748  24.028  20.948   3.120
 4023W        W75749  14.529   2.386   1.469
 4024W        W75750  19.319  44.483   2.427
 4025W        W75751  17.228   5.811   4.622
 4026W        W75752  20.341  22.672  10.615
 4027W        W75753   5.344  37.743  14.377
 4028W        W75754   6.228  14.540  11.591
 4029W        W75755  23.643   5.945   4.786
 4030W        W75756  14.054  37.985   2.395
 4031W        W75757   6.637  14.842  11.595
 4032W        W75758  26.945  26.300  13.949
 4033W        W75759  25.597   2.948   2.365
 4034W        W75760  35.834  17.401  14.108
 4035W        W75761  22.182  13.590  10.651
 4036W        W75762  42.270  11.390  12.502
 4037W        W75763   4.819  11.325  13.434
 4038W        W75764  41.515  32.051  14.985
 4039W        W75765  11.404   6.232   0.750
 4040W        W75766   9.147  42.720  10.405
 4041W        W75767  43.564  17.548  13.418
 4042W        W75768  40.794   9.051   2.811
 4043W        W75769   0.548  37.691  13.821
 4044W        W75770  38.604  15.271   3.757
 4045W        W75771   7.699  36.307  14.465
 4046W        W75772  38.358   8.476   1.319
 4047W        W75773   5.922  23.075   0.833
 4048W        W75774  44.618  19.768   4.761
 4049W        W75775  30.563  30.380  10.715
 4050W        W75776  28.493  17.526   1.848
 4051W        W75777  21.677  40.395  13.508
 4052W        W75778  38.394  38.785   3.185
 4053W        W75779  34.419  24.736  10.954
 4054W        W75780  34.065  10.267  13.141
 4055W        W75781  22.436   9.246   0.871
 4056W        W75782  43.855  13.897   1.342
 4057W        W75783  16.408   6.854  11.133
 4058W        W75784  30.645  32.910  13.466
 4059W        W75785  10.841  16.277   3.738
 4060W        W75786  40.846  40.387   3.223
 4061W        W75787  37.989  21.584  11.612
 4062W        W75788  21.043  10.178  12.990
 4063W        W75789   3.686  32.147   2.191
 4064W        W75790  31.368  36.083   1.502
 4065W        W75791  35.128  31.388   0.738
 4066W        W75792  16.177  22.008  14.474
 4067W        W75793  30.477  20.727  14.369
 4068W        W75794  14.768  25.083  10.665
 4069W        W75795  14.341  16.611   3.315
 4070W        W75796  26.419  35.454  12.569
 4071W        W75797  16.875  23.150  11.559
 4072W        W75798  39.436   3.357  13.341
 4073W        W75799  19.303  40.055   3.878
 4074W        W75800  20.136  34.846   2.836
 4075W        W75801  21.713  17.854  12.318
 4076W        W75802  21.816  28.031   2.654
 4077W        W75803  29.903  34.426  11.928
 4078W        W75804  38.624  41.762   3.917
 4079W        W75805  14.864  37.765  12.133
 4080W        W75806  11.294  38.778   0.473
 4081W        W75807  15.862  38.678  11.812
 4082W        W75808   7.160  29.050   4.918
 4083W        W75809  44.786   6.306   2.372
 4084W        W75810   9.520  33.078   9.472
 4085W        W75811   5.753  33.354  13.323
 4086W        W75812  13.261  38.155   1.753
 4087W        W75813   4.031  42.188  10.655
 4088W        W75814  21.233  24.125  12.960
 4089W        W75815  41.838   4.743   3.090
 4090W        W75816   8.274  30.160   2.149
 4091W        W75817  42.640  42.799   3.261
 4092W        W75818   6.634  17.339   0.328
 4093W        W75819  29.335  27.368  13.911
 4094W        W75820  12.287   7.241   0.415
 4095W        W75821  36.017  26.876   3.189
 4096W        W75822   1.457  43.770   4.354
 4097W        W75823  11.410  26.616  11.927
 4098W        W75824  24.667  42.818  14.890
 4099W        W75825  13.905  38.442  12.910
 4100W        W75826  25.667  24.744   1.033
 4101W        W75827  19.980  43.107   0.973
 4102W        W75828  34.688  28.928  14.293
 4103W        W75829  33.089  26.875   0.437
 4104W        W75830  16.290  11.528  11.624
 4105W        W75831  25.501  24.201  14.878
 4106W        W75832   6.435   9.849  13.386
 4107W        W75833  22.683  29.664  12.448
 4108W        W75834  29.054  30.838   4.646
 4109W        W75835   2.912   0.158   4.267
 4110W        W75836  13.284  43.204   3.209
 4111W        W75837  26.634  41.314   3.807
 4112W        W75838  15.760  24.313   4.684
 4113W        W75839  43.367  22.242  11.621
 4114W        W75840  40.255  11.795  13.069
 4115W        W75841  35.377   0.382  14.487
 4116W        W75842   5.389  18.472  13.467
 4117W        W75843  11.111   8.094  10.950
 4118W        W75844   5.862  22.637   2.854
 4119W        W75845   5.317  34.873  11.485
 4120W        W75846  37.118   6.158   4.845
 4121W        W75847  27.639  21.440  12.477
 4122W        W75848  24.640  32.454  12.566
 4123W        W75849   5.711  30.967  10.684
 4124W        W75850   3.968  36.293   2.360
 4125W        W75851  13.790  41.567  12.397
 4126W        W75852  44.910   3.307   3.286
 4127W        W75853  10.703  43.863   2.085
 4128W        W75854   8.910   9.701   1.927
 4129W        W75855  39.442   7.220  10.550
 4130W        W75856  35.617  19.260  10.887
 4131W        W75857  19.530  18.765  11.928
 4132W        W75858  20.770  29.940   4.848
 4133W        W75859  20.245   6.744   1.785
 4134W        W75860  18.751  22.604  10.756
 4135W        W75861  31.364  22.651  12.922
 4136W        W75862   4.771  25.484  10.709
 4137W        W75863  28.888   1.696   0.314
 4138W        W75864  28.456   7.385   0.331
 4139W        W75865   3.777  37.948  13.631
 4140W        W75866  28.603  35.993   3.769
 4141W        W75867  24.645  22.187  13.053
 4142W        W75868  15.636  12.382   4.489
 4143W        W75869  20.619  35.672   2.754
 4144W        W75870  11.715  42.617   2.810
 4145W        W75871  17.623  15.308  12.020
 4146W        W75872  42.787  42.376  10.580
 4147W        W75873   2.322  23.088   3.343
 4148W        W75874  21.556  25.018   5.025
 4149W        W75875  19.711  40.333  14.866
 4150W        W75876  12.590  15.370   2.742
 4151W        W75877   1.425   3.850   3.520
 4152W        W75878   4.433   9.675  12.637
 4153W        W75879  40.059  14.224  11.109
 4154W        W75880  26.099  12.366  12.042
 4155W        W75881  27.356   7.055  10.181
 4156W        W75882  10.864   9.155  14.772
 4157W        W75883  38.786   0.150  12.082
 4158W        W75884  24.009   3.601  12.866
 4159W        W75885  20.271  24.975   4.131
 4160W        W75886   0.481  42.047  11.922
 4161W        W75887  38.371  37.427  13.926
 4162W        W75888  18.513  19.949   1.911
 4163W        W75889  38.470  23.774  12.790
 4164W        W75890  12.711   2.266  12.363
 4165W        W75891  10.906  38.930   4.104
 4166W        W75892  38.656  14.302  10.163
 4167W        W75893  29.946   0.278   0.001
 4168W        W75894  10.894  35.989  14.431
 4169W        W75895  26.096  14.801   2.579
 4170W        W75896  10.272  24.503   4.920
 4171W        W75897  11.187  24.667   1.271
 4172W        W75898  14.989  22.771  12.617
 4173W        W75899  36.126  23.239   3.296
 4174W        W75900  38.291   1.952  14.476
 4175W        W75901  25.539   9.291  13.358
 4176W        W75902   6.928  33.059   3.027
 4177W        W75903  36.439   7.483  13.999
 4178W        W75904   0.460  35.528  14.734
 4179W        W75905   0.368   0.946  14.762
 4180W        W75906  25.147   7.215   0.243
 4181W        W75907   4.785  38.890  13.901
 4182W        W75908  39.115  12.294  14.812
 4183W        W75909  21.815  31.077  11.940
 4184W        W75910   5.366  23.145  13.483
 4185W        W75911  25.494  31.054   1.687
 4186W        W75912   9.050  33.424   2.541
 4187W        W75913  32.392   6.277   3.306
 4188W        W75914  23.997   3.905   0.696
 4189W        W75915  35.580  22.483   1.287
 4190W        W75916  13.285   5.286   1.716
 4191W        W75917  10.402   0.691   2.650
 4192W        W75918  33.874  23.917   3.750
 4193W        W75919   4.397  41.446  13.450
 4194W        W75920  44.946   4.922  11.471
 4195W        W75921  32.831   8.658  11.977
 4196W        W75922  38.416  25.200  14.567
 4197W        W75923  10.161   0.212   2.708
 4198W        W75924  34.160  20.864   3.292
 4199W        W75925  11.832  37.628   1.897
 4200W        W75926  22.999  36.600  10.389
 4201W        W75927   6.258  27.982  12.988
 4202W        W75928  35.445   0.132  14.971
 4203W        W75929  34.365  29.631   0.355
 4204W        W75930  11.215  10.798  14.598
 4205W        W75931   6.871  24.111   3.291
 4206W        W75932  19.975  39.473  11.594
 4207W        W75933  11.203  17.002   0.132
 4208W        W75934   2.590  41.970   2.896
 4209W        W75935  19.477  26.948  12.526
 4210W        W75936  24.607  39.268   2.877
 4211W        W75937   2.183   0.158  13.608
 4212W        W75938   1.827  13.311  11.080
 4213W        W75939  26.282  38.241  12.110
 4214W        W75940   9.326  15.311   4.082
 4215W        W75941  30.279  33.387   0.877
 4216W        W75942   1.415   0.796  12.203
 4217W        W75943  40.580  39.525  11.036
 4218W        W75944  40.525   6.909  11.183
 4219W        W75945  31.495  32.837  11.046
 4220W        W75946  11.473   3.264   1.777
 4221W        W75947   0.046  12.586  11.138
 4222W        W75948  37.336   9.447  11.863
 4223W        W75949   5.110  36.472   1.728
 4224W        W75950  15.552   8.796   0.337
 4225W        W75951  25.589  24.299   4.044
 4226W        W75952  17.374  38.113  13.101
 4227W        W75953   3.383  18.616   4.547
 4228W        W75954  12.607   0.967   1.400
 4229W        W75955  21.737   6.508   0.222
 4230W        W75956  24.650  10.740   1.198
 4231W        W75957  28.943  16.754  12.941
 4232W        W75958  44.059  39.035   4.665
 4233W        W75959   7.142  26.585   3.220
 4234W        W75960  24.243  23.699  11.604
 4235W        W75961  44.277  41.788  11.451
 4236W        W75962  20.802  26.477  13.878
 4237W        W75963  10.108  42.714  11.114
 4238W        W75964  14.308  11.830   4.128
 4239W        W75965  31.447  16.507   2.860
 4240W        W75966  24.066  12.336  12.835
 4241W        W75967  14.723  14.116   1.356
 4242W        W75968   2.435  11.141   0.357
 4243W        W75969   7.675   5.162   4.301
 4244W        W75970  23.534  26.564  13.780
 4245W        W75971   1.486  12.698  12.506
 4246W        W75972  14.824   0.700  12.956
 4247W        W75973   7.237  34.804   0.274
 4248W        W75974   0.991  39.370   1.869
 4249W        W75975  32.493   8.586  11.603
 4250W        W75976  11.144  40.870   1.008
 4251W        W75977  10.050  33.494   2.283
 4252W        W75978  31.588   3.679   5.035
 4253W        W75979  27.543  23.147  12.400
 4254W        W75980  15.004  19.047  12.110
 4255W        W75981  11.965  17.805   2.919
 4256W        W75982   1.780   4.294  12.599
 4257W        W75983  19.635  27.640  10.471
 4258W        W75984   2.730  25.157   1.601
 4259W        W75985  15.554  34.502   0.728
 4260W        W75986  11.312  37.836   2.856
 4261W        W75987  40.345  27.581  13.502
 4262W        W75988   2.504  35.471  14.949
 4263W        W75989  37.471   0.773   4.233
 4264W        W75990  17.321  35.254   4.942
 4265W        W75991  35.363   3.268  12.885
 4266W        W75992  19.966  18.679   1.078
 4267W        W75993  11.957   4.386  10.948
 4268W        W75994   6.950  32.307   4.823
 4269W        W75995  23.752  40.001  11.613
 4270W        W75996  29.910  22.165  10.460
 4271W        W75997  20.996  41.384   0.690
 4272W        W75998  37.358  18.244   1.311
 4273W        W75999  32.701  28.172  13.824
 4274W        W76000  31.882   9.402   2.310
 4275W        W76001   5.725   0.949  11.327
 4276W        W76002  34.466  32.622  13.388
 4277W        W76003  29.161   6.786  12.942
 4278W        W76004  15.831  39.430  14.872
 4279W        W76005  19.721  14.168   2.471
 4280W        W76006  30.440  24.096  11.476
 4281W        W76007  42.494  21.306  13.829
 4282W        W76008   4.806   5.001   5.430
 4283W        W76009  14.828  20.266   3.226
 4284W        W76010  39.067  23.969  11.106
 4285W        W76011  26.027   5.283  11.206
 4286W        W76012  22.137  32.174   5.033
 4287W        W76013   0.364  25.116   3.678
 4288W        W76014  33.920   9.244  10.536
 4289W        W76015  39.266  29.934  12.518
 4290W        W76016  25.631  14.139   5.132
 4291W        W76017  37.526  30.903  14.051
 4292W        W76018   6.651  41.528   4.702
 4293W        W76019   4.910  12.843   0.355
 4294W        W76020  15.209   3.539  11.147
 4295W        W76021   9.806   4.267   3.804
 4296W        W76022  41.833  31.885   4.066
 4297W        W76023  28.583  24.284   0.262
 4298W        W76024   3.091  41.236  13.384
 4299W        W76025  16.170  25.722   2.873
 4300W        W76026   6.199  41.166   3.914
 4301W        W76027  15.064   9.653  12.970
 4302W        W76028  18.007  13.204  12.029
 4303W        W76029  39.859  20.499  10.701
 4304W        W76030   5.495  12.525   4.605
 4305W        W76031  28.325  16.600  11.630
 4306W        W76032  12.617  21.113   2.848
 4307W        W76033   9.861  13.371   4.733
 4308W        W76034  11.168  42.255   1.733
 4309W        W76035  24.992  13.509   1.654
 4310W        W76036  21.272  38.102  10.504
 4311W        W76037  14.276  39.065   2.616
 4312W        W76038   5.675  23.972   2.638
 4313W        W76039  18.813  13.566   4.320
 4314W        W76040  24.076  43.864   3.123
 4315W        W76041  27.221  31.848  11.759
 4316W        W76042  20.969  14.145  11.894
 4317W        W76043  26.218  37.279  12.547
 4318W        W76044  44.938  43.712  10.621
 4319W        W76045  30.397  17.340  12.602
 4320W        W76046  43.578  41.526   2.566
 4321W        W76047  44.600  38.532   0.738
 4322W        W76048   4.874   6.790  10.773
 4323W        W76049  42.398  22.297  13.079
 4324W        W76050  44.880  15.730   1.732
 4325W        W76051  44.202  35.938   1.962
 4326W        W76052  31.928  10.312   4.141
 4327W        W76053   4.939  24.607  14.523
 4328W        W76054  38.437  42.274   0.654
 4329W        W76055  40.748  28.023  12.925
 4330W        W76056  13.596  27.393   1.445
 4331W        W76057  16.111  20.755   0.939
 4332W        W76058  14.695  41.878  13.818
 4333W        W76059  12.316   4.281   3.039
 4334W        W76060  31.590  13.216  14.428
 4335W        W76061  26.156   8.791   1.939
 4336W        W76062  37.379  15.812  12.543
 4337W        W76063   1.250  29.136  10.358
 4338W        W76064  39.334  37.109   1.608
 4339W        W76065  31.635   1.481   3.213
 4340W        W76066  39.263  13.721   4.119
 4341W        W76067   6.710  33.915   1.241
 4342W        W76068  39.401   3.681   2.125
 4343W        W76069  14.998  22.490   1.749
 4344W        W76070  25.434  34.111  14.728
 4345W        W76071   5.809  21.087  12.172
 4346W        W76072  18.779  12.818   0.433
 4347W        W76073  12.139  12.146  14.792
 4348W        W76074  23.751  19.974   1.198
 4349W        W76075  11.018  19.657   5.002
 4350W        W76076  19.149  28.122  14.431
 4351W        W76077  35.386  40.898   0.967
 4352W        W76078  38.892  38.009   1.883
 4353W        W76079  37.361  43.815   0.863
 4354W        W76080  34.961  25.103   1.670
 4355W        W76081   5.778  27.109  14.931
 4356W        W76082   9.430   2.386   4.660
 4357W        W76083   6.641   8.225  11.940
 4358W        W76084  41.801   3.944  12.008
 4359W        W76085  17.071   1.372   0.490
 4360W        W76086  30.119  34.003  12.241
 4361W        W76087  31.939  40.672  10.267
 4362W        W76088  20.203  41.860   1.668
 4363W        W76089  16.869  44.016   4.144
 4364W        W76090  12.350   1.035   3.800
 4365W        W76091  43.456  30.101   2.827
 4366W        W76092  33.498  28.666   2.891
 4367W        W76093   1.264  18.821  11.189
 4368W        W76094  15.671  32.387  10.571
 4369W        W76095  26.754  30.535   4.894
 4370W        W76096  37.879  11.185  10.788
 4371W        W76097  15.443  27.138  10.320
 4372W        W76098  43.905  43.802   4.850
 4373W        W76099  38.818  29.404  11.157
 4374W        W76100  39.118  38.880  11.476
 4375W        W76101  26.446  42.315   3.898
 4376W        W76102  42.480   1.359   1.374
 4377W        W76103  34.962  38.085   0.309
 4378W        W76104  11.443   6.719   0.913
 4379W        W76105  41.758  23.555  14.785
 4380W        W76106   5.164  11.604   1.830
 4381W        W76107  18.719   2.444   2.391
 4382W        W76108  44.295  32.922   4.527
 4383W        W76109   5.738  41.583   1.767
 4384W        W76110  43.023  27.025  14.990
 4385W        W76111  11.258   1.284   1.958
 4386W        W76112  12.385  44.815   2.326
 4387W        W76113  24.953  11.878   1.617
 4388W        W76114  14.969  10.237  10.651
 4389W        W76115  37.934  20.572  10.679
 4390W        W76116  30.558  43.002   0.931
 4391W        W76117  22.222  33.449   3.141
 4392W        W76118  11.772  20.354   1.196
 4393W        W76119  42.995  17.083  14.718
 4394W        W76120  28.964  21.460  13.594
 4395W        W76121  21.737  10.640   0.844
 4396W        W76122  11.349  26.419   4.417
 4397W        W76123  15.024  15.224   1.957
 4398W        W76124  15.595  24.714   0.857
 4399W        W76125   4.470  32.587   0.851
 4400W        W76126   4.755   7.727  10.568
 4401W        W76127  17.498  15.808  10.870
 4402W        W76128  35.658  20.668  14.056
 4403W        W76129  29.531  43.299  12.116
 4404W        W76130  37.358  10.173   4.608
 4405W        W76131  43.276  17.637  13.827
 4406W        W76132   1.853  22.514   4.704
 4407W        W76133  22.420  14.558   5.053
 4408W        W76134  15.217  10.186  13.646
 4409W        W76135  22.529  26.566  13.946
 4410W        W76136  11.822   0.304  14.987
 4411W        W76137  11.155  13.022  10.695
 4412W        W76138  27.266   0.951   2.357
 4413W        W76139  41.984  11.039  12.734
 4414W        W76140  30.321  25.497   4.583
 4415W        W76141  34.790  21.977  10.987
 4416W        W76142  32.065  38.065   4.609
 4417W        W76143  38.465   3.858  14.745
 4418W        W76144   7.198  43.288  10.695
 4419W        W76145  37.567   0.509   3.740
 4420W        W76146  32.061  23.449   2.897
 4421W        W76147   1.186  20.448   4.115
 4422W        W76148   7.027  11.094  14.561
 4423W        W76149  36.519  30.546  14.010
 4424W        W76150   7.277  13.066  14.376
 4425W        W76151  35.074  31.847   4.566
 4426W        W76152  24.295   9.335  13.000
 4427W        W76153  11.419  25.726   3.336
 4428W        W76154  13.027  26.151   3.128
 4429W        W76155  28.554  14.727   2.590
 4430W        W76156  34.463   3.309  14.127
 4431W        W76157   4.963  16.169   1.276
 4432W        W76158  14.053  37.484  13.716
 4433W        W76159   9.710  43.751   3.009
 4434W        W76160  16.152  37.893  14.958
 4435W        W76161  41.725  15.575   2.740
 4436W        W76162  23.199  39.198   3.145
 4437W        W76163  37.035  18.220  14.369
 4438W        W76164  28.596   4.474   4.172
 4439W        W76165   2.347  37.783  13.228
 4440W        W76166  44.297   3.172   1.421
 4441W        W76167  31.913   1.269   3.658
 4442W        W76168  31.103   2.623  10.676
 4443W        W76169   8.315  18.600  11.150
 4444W        W76170  18.212   7.966  11.243
 4445W        W76171  36.521  27.232   0.324
 4446W        W76172  32.073  22.636   1.481
 4447W        W76173  13.484   1.131   4.790
 4448W        W76174  10.375   2.383  14.415
 4449W        W76175  30.368  16.083   2.321
 4450W        W76176  23.114   7.082  11.437
 4451W        W76177  42.303  44.090   0.896
 4452W        W76178  36.638  41.414   2.334
 4453W        W76179  42.416  28.155   1.952
 4454W        W76180  36.872  39.873   2.849
 4455W        W76181  15.885  29.197   2.717
 4456W        W76182   4.839  44.278  10.654
 4457W        W76183   0.418   8.681  10.646
 4458W        W76184  28.042   8.707   0.837
 4459W        W76185  10.977  41.342  11.989
 4460W        W76186  43.036  31.050   1.751
 4461W        W76187   3.287  28.180   1.504
 4462W        W76188  22.487  42.832  10.746
 4463W        W76189  20.088  42.124   1.228
 4464W        W76190  42.796  41.000   4.636
 4465W        W76191   2.949   8.606  12.897
 4466W        W76192  18.819   2.557   1.337
 4467W        W76193  38.309  25.295   4.644
 4468W        W76194  41.951  11.364  14.828
 4469W        W76195  15.293   6.554   3.678
 4470W        W76196  12.199  43.280  14.732
 4471W        W76197  15.072  44.447   2.023
 4472W        W76198   4.991  36.069   2.930
 4473W        W76199  42.317  24.233  13.290
 4474W        W76200  24.969  21.049  12.809
 4475W        W76201  42.974  12.292  13.303
 4476W        W76202  41.230   7.456  12.545
 4477W        W76203  43.467  11.341   4.205
 4478W        W76204  27.966  37.800  13.465
 4479W        W76205   3.223   7.280   3.784
 4480W        W76206  21.697  39.936  10.560
 4481W        W76207  16.303  41.765  12.545
 4482W        W76208  41.469  42.118   4.337
 4483W        W76209  39.449   1.689   2.805
 4484W        W76210  29.694  32.156  11.962
 4485W        W76211  29.535  23.287  11.968
 4486W        W76212   3.396  17.316  13.114
 4487W        W76213  41.074  10.300  11.592
 4488W        W76214  40.881   0.332   2.841
 4489W        W76215  34.653  10.662   2.679
 4490W        W76216  31.868   6.178  13.905
 4491W        W76217  11.803  30.377  10.131
 4492W        W76218  30.154  22.625   3.211
 4493W        W76219  15.751   9.110  13.568
 4494W        W76220  12.821  22.868   1.908
 4495W        W76221  19.000   1.312   4.315
 4496W        W76222   0.990  27.721  11.376
 4497W        W76223   2.672  32.944  11.698
 4498W        W76224  37.433   4.365   2.376
 4499W        W76225  42.418  17.205  12.881
 4500W        W76226  42.497  44.159  10.505
 4501W        W76227  11.860  26.130  13.956
 4502W        W76228  37.708  43.109   1.373
 4503W        W76229  22.475  32.989  13.918
 4504W        W76230  35.373   2.935  12.163
 4505W        W76231  21.104  17.116   2.664
 4506W        W76232  12.279  22.592  10.426
 4507W        W76233  26.390  12.306  11.603
 4508W        W76234   8.725  43.907   4.640
 4509W        W76235  28.185  16.599   4.582
 4510W        W76236  35.186  30.997  13.436
 4511W        W76237  15.879  34.664  11.539
 4512W        W76238  15.723  16.489  11.208
 4513W        W76239   1.296  25.165  13.013
 4514W        W76240  22.737  10.781  14.150
 4515W        W76241  24.560  23.126  14.564
 4516W        W76242  28.460  10.040  10.059
 4517W        W76243  40.294   1.867   2.790
 4518W        W76244  21.751  34.436  10.686
 4519W        W76245  25.197  34.607  14.440
 4520W        W76246  12.066  19.667   2.113
 4521W        W76247  35.860  22.480   1.726
 4522W        W76248  14.586  26.246  11.717
 4523W        W76249  37.784   1.279  14.866
 4524W        W76250  19.683  18.684  10.610
 4525W        W76251  16.050  11.743   1.045
 4526W        W76252  21.675   9.882   4.281
 4527W        W76253   9.946  19.199   1.282
 4528W        W76254  43.819  37.487   0.047
 4529W        W76255  11.961  23.294  13.527
 4530W        W76256  37.542  40.800   3.371
 4531W        W76257   6.839  32.355  13.464
 4532W        W76258  18.049  16.388   4.015
 4533W        W76259  29.149  44.574  10.747
 4534W        W76260   0.570  28.221   4.840
 4535W        W76261  40.094  19.045   3.269
 4536W        W76262  31.578  36.874   3.155
 4537W        W76263  14.101  31.381   4.921
 4538W        W76264  29.422  18.169  14.978
 4539W        W76265  12.093   0.931  12.388
 4540W        W76266  34.000  39.312   3.883
 4541W        W76267   5.930  26.566   1.163
 4542W        W76268  43.859  11.784  10.969
 4543W        W76269  33.446  21.212   2.676
 4544W        W76270  33.564  36.935   1.972
 4545W        W76271  25.541  11.375   4.245
 4546W        W76272   3.368  15.614   0.972
 4547W        W76273   4.729  20.741  14.481
 4548W        W76274  37.251  12.930  12.075
 4549W        W76275   6.161   0.061  11.674
 4550W        W76276  28.131  30.963  10.457
 4551W        W76277  37.450  10.418  10.480
 4552W        W76278  26.535  40.433   1.329
 4553W        W76279  42.550  13.063   0.324
 4554W        W76280  27.877  42.975  12.575
 4555W        W76281  35.074  13.154   3.277
 4556W        W76282  27.425  20.506  10.804
 4557W        W76283  28.888  10.610  12.619
 4558W        W76284  43.390   0.431  14.508
 4559W        W76285   1.912  38.008  13.036
 4560W        W76286  35.599  11.836   1.739
 4561W        W76287  39.595   7.925  13.980
 4562W        W76288  35.530  37.388   2.292
 4563W        W76289   9.878  10.917  13.949
 4564W        W76290  34.617  16.738   0.256
 4565W        W76291  26.903  11.136   3.801
 4566W        W76292  12.612  19.611   2.158
 4567W        W76293   4.649  43.510   0.811
 4568W        W76294  25.084  24.218  12.525
 4569W        W76295  31.519  32.836  14.413
 4570W        W76296   9.631  12.743  10.693
 4571W        W76297  14.269  17.767   1.933
 4572W        W76298  24.639  17.282  13.919
 4573W        W76299  16.341  33.340   0.445
 4574W        W76300  35.905  19.781  12.091
 4575W        W76301   4.786   0.396  12.537
 4576W        W76302  26.959  42.726  11.072
 4577W        W76303  14.034  13.943   0.985
 4578W        W76304  32.856  36.905  10.410
 4579W        W76305  42.483  18.185   0.482
 4580W        W76306   9.754  29.701  14.348
 4581W        W76307  31.572  11.399   3.241
 4582W        W76308  33.810  10.024   3.082
 4583W        W76309   8.443  17.077   3.210
 4584W        W76310  22.413  38.120   1.838
 4585W        W76311  33.213   7.737   1.333
 4586W        W76312  37.486   0.422   4.658
 4587W        W76313  30.939   4.533  11.145
 4588W        W76314  27.860  29.169  11.945
 4589W        W76315  18.230  20.173  13.893
 4590W        W76316   0.912  41.420  13.074
 4591W        W76317  26.266   4.094  13.017
 4592W        W76318  26.949  25.379  12.925
 4593W        W76319  14.157  23.803   1.000
 4594W        W76320  23.415  12.835  13.303
 4595W        W76321  21.567  39.870  13.450
 4596W        W76322   6.346  17.181   1.176
 4597W        W76323  24.748  11.371   0.381
 4598W        W76324  39.983  30.995  13.250
 4599W        W76325  43.843  36.536   3.865
 4600W        W76326  20.600  20.411  14.575
 4601W        W76327  14.373  36.983   1.596
 4602W        W76328  34.998  18.633  10.457
 4603W        W76329   9.170  15.245  12.057
 4604W        W76330  43.896  30.320   4.969
 4605W        W76331  11.772  37.256   5.023
 4606W        W76332  27.381  29.371  11.965
 4607W        W76333  31.568   7.805  14.733
 4608W        W76334  14.122  10.211  12.140
 4609W        W76335  40.809  25.997  10.506
 4610W        W76336  11.684  36.934  13.936
 4611W        W76337   0.982  16.516   3.127
 4612W        W76338  18.293  42.532  10.558
 4613W        W76339   1.320  13.489   3.360
 4614W        W76340  25.979  30.161  14.352
 4615W        W76341  34.024  38.932   1.887
 4616W        W76342  39.803  42.743  14.831
 4617W        W76343  43.497   5.949   2.320
 4618W        W76344  21.768  20.820   0.771
 4619W        W76345  33.669  13.594   0.248
 4620W        W76346   0.377  24.402  10.526
 4621W        W76347  20.025  44.039  12.472
 4622W        W76348  39.437  22.135  14.978
 4623W        W76349  12.952  13.340   1.256
 4624W        W76350  17.140  25.510  10.407
 4625W        W76351  13.178  30.250  14.273
 4626W        W76352  30.220  24.736   1.125
 4627W        W76353  22.120  12.207  10.564
 4628W        W76354  10.650   3.871   2.633
 4629W        W76355  28.071  19.148  12.675
 4630W        W76356   7.802  15.778   5.053
 4631W        W76357   6.749   4.266  12.966
 4632W        W76358  42.900  23.793  14.952
 4633W        W76359   9.873   1.296  13.869
 4634W        W76360  21.078  17.131  11.113
 4635W        W76361  34.179  43.388   3.291
 4636W        W76362  36.875  25.498   1.948
 4637W        W76363  10.000  14.706   2.769
 4638W        W76364  41.017  30.011   3.923
 4639W        W76365  18.841   2.505   1.853
 4640W        W76366  27.066  10.363   4.353
 4641W        W76367   9.709  19.903   1.753
 4642W        W76368   4.177  28.557  10.858
 4643W        W76369  25.620  28.603   3.573
 4644W        W76370  41.774   6.522   4.406
 4645W        W76371  37.562  18.532  12.981
 4646W        W76372  41.611   3.803   2.696
 4647W        W76373   3.899  21.734   3.765
 4648W        W76374  25.163   4.433  12.358
 4649W        W76375  16.223  22.208  13.793
 4650W        W76376  15.931  43.548  11.989
 4651W        W76377   3.638  39.987  14.061
 4652W        W76378  37.632   6.818  10.737
 4653W        W76379  31.010   4.321  14.295
 4654W        W76380  26.975  41.438   0.525
 4655W        W76381   3.226  40.969   2.193
 4656W        W76382  43.884   6.415  13.980
 4657W        W76383  28.015  40.223   1.559
 4658W        W76384  42.111   2.268  12.997
 4659W        W76385  42.893  16.576   2.417
 4660W        W76386  36.618  37.070   1.833
 4661W        W76387   4.917  35.962   2.437
 4662W        W76388   3.374   9.864   0.756
 4663W        W76389  33.622   3.427  11.171
 4664W        W76390  12.950   3.416   2.689
 4665W        W76391  10.712  31.728   1.314
 4666W        W76392   4.057  31.334  11.076
 4667W        W76393   3.168  38.843  14.956
 4668W        W76394   6.882  21.026   2.367
 4669W        W76395   2.090  33.371   4.530
 4670W        W76396  21.627  34.995   2.142
 4671W        W76397  28.479  33.438  12.586
 4672W        W76398   1.484  42.443   3.297
 4673W        W76399   0.244   4.407   0.027
 4674W        W76400  44.763  23.784  14.717
 4675W        W76401  32.608  25.634  12.952
 4676W        W76402   3.916  42.700  10.644
 4677W        W76403  38.253  34.989  10.979
 4678W        W76404  28.217   3.146   3.236
 4679W        W76405  23.489  35.061   3.673
 4680W        W76406   2.853   1.220   2.187
 4681W        W76407  15.112  36.370  12.016
 4682W        W76408  20.647  41.588  11.263
 4683W        W76409  20.369   8.895   0.294
 4684W        W76410   5.917  14.079  10.538
 4685W        W76411  33.670  43.301  11.353
 4686W        W76412   9.075  13.202  12.198
 4687W        W76413  34.830  27.791   2.259
 4688W        W76414  31.847  24.511   0.416
 4689W        W76415  37.293   5.505   3.697
 4690W        W76416  13.048  32.147  11.068
 4691W        W76417  27.507  28.478   3.414
 4692W        W76418  21.112  41.710   4.667
 4693W        W76419  32.903  11.794  10.385
 4694W        W76420   8.219  36.215   9.751
 4695W        W76421  26.197   0.314   0.042
 4696W        W76422  38.337   4.959  13.936
 4697W        W76423  12.119   9.370   0.239
 4698W        W76424  30.478  13.933   1.091
 4699W        W76425   4.798  15.035   2.676
 4700W        W76426   9.114   3.886  12.841
 4701W        W76427  38.918  32.213  13.410
 4702W        W76428  15.620  19.298  13.858
 4703W        W76429  21.266  22.995   4.506
 4704W        W76430  11.565  27.084   3.932
 4705W        W76431  10.183   8.735   2.258
 4706W        W76432  44.178  18.970   2.796
 4707W        W76433  35.510  24.024  13.062
 4708W        W76434  21.663  27.710  10.038
 4709W        W76435  18.212  13.199  13.984
 4710W        W76436  33.586  22.943  12.121
 4711W        W76437  32.853   3.489   3.168
 4712W        W76438  25.674  30.608   4.747
 4713W        W76439  39.211  20.494   4.601
 4714W        W76440   7.128   9.729  13.869
 4715W        W76441  44.934  32.372  14.276
 4716W        W76442  42.906  42.561   2.739
 4717W        W76443  35.546  31.969   5.150
 4718W        W76444  33.537   0.520  11.152
 4719W        W76445   2.230  13.369   3.961
 4720W        W76446  23.998   0.111   4.094
 4721W        W76447  35.799  31.109   1.830
 4722W        W76448  38.158  43.486   1.806
 4723W        W76449  13.107  24.360   2.867
 4724W        W76450  42.572  40.543   0.375
 4725W        W76451  27.389  30.917   1.254
 4726W        W76452  12.673  19.486   0.288
 4727W        W76453  11.790  13.882   0.709
 4728W        W76454  31.430  26.871   1.957
 4729W        W76455  40.269  13.124  12.963
 4730W        W76456  40.478  10.832   0.436
 4731W        W76457   7.300  36.130  13.270
 4732W        W76458  13.820  19.073   2.084
 4733W        W76459  34.910  41.801  13.417
 4734W        W76460  32.382  25.541   0.368
 4735W        W76461   7.840  14.740  11.929
 4736W        W76462  15.619  35.007   4.705
 4737W        W76463  17.540   4.451   2.772
 4738W        W76464  23.240  26.211  14.903
 4739W        W76465   5.706  31.375  11.522
 4740W        W76466  34.077  40.532   3.377
 4741W        W76467  14.060  25.051   4.564
 4742W        W76468  31.905   0.316  12.417
 4743W        W76469  26.688  37.992  11.926
 4744W        W76470   3.963   8.366   2.117
 4745W        W76471   6.219  33.552  12.626
 4746W        W76472   5.167   3.736  10.965
 4747W        W76473  36.476   3.715   3.552
 4748W        W76474   0.352  42.475   0.811
 4749W        W76475  37.696  33.329  10.772
 4750W        W76476  44.930  21.719  13.882
 4751W        W76477  16.776  11.416   2.138
 4752W        W76478  18.509  20.020  10.682
 4753W        W76479  33.620  28.879  10.402
 4754W        W76480   6.259  38.682  12.610
 4755W        W76481   7.757  39.916   1.281
 4756W        W76482  40.581  13.687   1.490
 4757W        W76483   9.473   9.994  12.373
 4758W        W76484   8.667   8.956   3.323
 4759W        W76485  13.659  23.620   0.421
 4760W        W76486  13.831  27.633  13.852
 4761W        W76487  36.008   1.172  14.277
 4762W        W76488  23.133  16.229  11.542
 4763W        W76489  19.576  39.256   4.193
 4764W        W76490   3.881  10.062   2.921
 4765W        W76491  28.102   2.240   3.600
 4766W        W76492  42.557  17.941   4.015
 4767W        W76493   0.331  38.604  11.690
 4768W        W76494  27.190  24.987  12.448
 4769W        W76495   9.401   4.678  12.529
 4770W        W76496  14.627  28.622   3.700
 4771W        W76497  33.048  22.509  10.483
 4772W        W76498  11.627  34.534   5.005
 4773W        W76499  40.831  12.848  12.395
 4774W        W76500  31.409  43.042  11.993
 4775W        W76501  24.630  10.370   4.570
 4776W        W76502  13.660  39.966   2.817
 4777W        W76503   1.843  42.462  13.511
 4778W        W76504  26.514  10.659  10.740
 4779W        W76505  31.972  38.962   0.322
 4780W        W76506  12.833  26.755  11.567
 4781W        W76507  11.736  39.465   4.824
 4782W        W76508  14.111  13.829   3.248
 4783W        W76509  44.261  15.153   2.832
 4784W        W76510  11.335  14.234  10.713
 4785W        W76511  25.911   6.278  11.007
 4786W        W76512  26.745  37.334   4.119
 4787W        W76513   1.990  37.845  14.153
 4788W        W76514  21.980  14.854   0.750
 4789W        W76515  15.344   3.134  12.819
 4790W        W76516   3.937  29.939   3.657
 4791W        W76517   0.680  25.565   0.818
 4792W        W76518  42.799  38.836  10.779
 4793W        W76519  35.353  23.972  14.439
 4794W        W76520  22.376  30.494  13.526
 4795W        W76521   6.279  34.568   3.684
 4796W        W76522  35.494  30.069  14.347
 4797W        W76523  35.795  13.588  14.393
 4798W        W76524   5.376  25.746   2.647
 4799W        W76525   5.828  15.980   2.474
 4800W        W76526  20.113  28.627  12.185
 4801W        W76527  22.721   0.316  10.521
 4802W        W76528   9.344  31.103   2.676
 4803W        W76529  28.005  38.625  13.915
 4804W        W76530  37.400  17.532   1.280
 4805W        W76531  34.179  22.077  13.989
 4806W        W76532  14.175  33.092  13.429
 4807W        W76533  29.489  23.133  14.344
 4808W        W76534   6.409  44.836  13.101
 4809W        W76535   8.955  21.683   3.327
 4810W        W76536  28.425   7.754  12.704
 4811W        W76537  38.925  11.424  11.610
 4812W        W76538  34.578  44.724  13.499
 4813W        W76539  10.255  43.295  14.402
 4814W        W76540  15.986  22.949  11.707
 4815W        W76541  42.732  42.391   1.219
 4816W        W76542  11.149  14.623   4.055
 4817W        W76543  26.378   7.503  11.427
 4818W        W76544  35.121  43.677  12.966
 4819W        W76545  16.206  38.271  10.094
 4820W        W76546  13.430  40.502  13.093
 4821W        W76547  43.508   8.570   2.372
 4822W        W76548  31.914   6.373  13.397
 4823W        W76549   7.159  39.556   4.159
 4824W        W76550   0.232   8.291   2.866
 4825W        W76551  19.778  44.870   0.924
 4826W        W76552  30.903  24.426  12.324
 4827W        W76553  33.599  30.961  11.915
 4828W        W76554   9.984  30.888  12.496
 4829W        W76555  38.015   9.882   1.317
 4830W        W76556  30.570  26.383   0.208
 4831W        W76557  26.794  30.005   4.154
 4832W        W76558  36.050  31.000  14.719
 4833W        W76559   3.319  40.346  14.948
 4834W        W76560   1.090  30.593   5.062
 4835W        W76561  38.289  17.093  13.927
 4836W        W76562  37.527  41.273   2.172
 4837W        W76563  21.776  22.154   3.155
 4838W        W76564  32.311   1.790  11.215
 4839W        W76565  23.710  42.465  14.392
 4840W        W76566  39.331   1.319   1.326
 4841W        W76567   1.342  40.591   3.289
 4842W        W76568  15.298  42.024  11.211
 4843W        W76569  31.223   7.124   2.171
 4844W        W76570  33.931  28.227  11.480
 4845W        W76571  27.775   0.345   5.494
 4846W        W76572  33.956  11.688  13.418
 4847W        W76573  14.907  29.052   1.826
 4848W        W76574  21.788  36.678  12.121
 4849W        W76575  32.827  11.703   3.164
 4850W        W76576   5.880  41.621  13.222
 4851W        W76577  24.501  12.657   3.298
 4852W        W76578  13.657  40.226   4.301
 4853W        W76579   3.843  31.354  13.302
 4854W        W76580  33.771  38.414  11.972
 4855W        W76581  43.303  22.290   2.931
 4856W        W76582  30.190  19.176   0.510
 4857W        W76583  25.895  38.887  14.973
 4858W        W76584  12.844  20.832   2.200
 4859W        W76585  23.177  31.381  13.805
 4860W        W76586  31.605  19.227   4.730
 4861W        W76587   1.900  24.237  14.941
 4862W        W76588  44.924  14.367  14.817
 4863W        W76589  28.106   9.421  13.962
 4864W        W76590  34.062  21.502  10.022
 4865W        W76591  28.831   2.918  10.768
 4866W        W76592  19.223  12.072  12.957
 4867W        W76593  41.379  34.968  11.354
 4868W        W76594  37.878   6.000  10.785
 4869W        W76595   0.239  19.690  11.857
 4870W        W76596  24.504  42.752  12.042
 4871W        W76597  28.845  42.939   4.671
 4872W        W76598  31.085   3.715  11.664
 4873W        W76599  18.717  16.658  10.726
 4874W        W76600   0.006  23.610   1.727
 4875W        W76601  13.617  15.900  11.052
 4876W        W76602  40.555  24.685  13.795
 4877W        W76603   1.486   2.365  12.908
 4878W        W76604  25.215  28.089  14.342
 4879W        W76605  23.592  32.143   0.810
 4880W        W76606  17.557  28.606  11.224
 4881W        W76607  12.715   7.301  12.595
 4882W        W76608  44.982  28.154   4.668
 4883W        W76609  37.419  24.190   4.959
 4884W        W76610  44.734   0.502   0.969
 4885W        W76611   9.951  15.858   2.228
 4886W        W76612  18.180  13.660   4.016
 4887W        W76613  43.583   5.722   4.258
 4888W        W76614  33.010  36.781   4.153
 4889W        W76615   5.894  22.659  11.208
 4890W        W76616  39.015  17.329   0.746
 4891W        W76617  22.579  36.209  14.026
 4892W        W76618  21.002   9.568  11.225
 4893W        W76619   4.819  17.579   1.921
 4894W        W76620  31.270  26.701   1.461
 4895W        W76621   0.166   2.750  10.651
 4896W        W76622  26.543   5.153  14.263
 4897W        W76623  18.417  28.357  14.186
 4898W        W76624   7.803  36.814   3.661
 4899W        W76625  28.835   7.396  10.529
 4900W        W76626  33.563  25.068  12.130
 4901W        W76627  16.842  31.881   1.327
 4902W        W76628   7.312  41.223  14.326
 4903W        W76629  14.681  19.973  12.394
 4904W        W76630   4.735  21.903   0.468
 4905W        W76631  32.468  40.518  10.954
 4906W        W76632  29.553  25.465  11.187
 4907W        W76633  28.613  17.141   3.263
 4908W        W76634  16.125  38.036   5.517
 4909W        W76635   5.608  22.119   0.784
 4910W        W76636  36.765  33.864   3.018
 4911W        W76637  24.465  25.652   0.560
 4912W        W76638  41.449  36.318   4.168
 4913W        W76639  19.987  20.038   4.246
 4914W        W76640  30.306  36.713  12.719
 4915W        W76641  40.603   9.828   0.799
 4916W        W76642  14.589  28.808  14.450
 4917W        W76643  17.735  35.623   3.147
 4918W        W76644  40.608   2.735   0.560
 4919W        W76645   8.951   9.429   0.668
 4920W        W76646  29.921  14.141   1.746
 4921W        W76647   2.706  29.403  13.496
 4922W        W76648   9.651  18.109   2.719
 4923W        W76649  11.926  36.996   1.373
 4924W        W76650  42.385   5.815   1.452
 4925W        W76651  20.444   6.254   3.774
 4926W        W76652   9.280  28.230  12.090
 4927W        W76653  21.752  37.999  14.745
 4928W        W76654  35.259  23.251   3.710
 4929W        W76655  31.836  17.652   5.010
 4930W        W76656  17.743  43.433   4.355
 4931W        W76657  37.351   8.346  14.086
 4932W        W76658  26.666  42.722  14.035
 4933W        W76659  43.377   1.006   2.831
 4934W        W76660  20.001  39.116  12.990
 4935W        W76661  35.961  12.336   0.901
 4936W        W76662  24.661  31.405   1.767
 4937W        W76663  34.435  30.479  13.060
 4938W        W76664   1.527   4.230   0.867
 4939W        W76665  12.222  33.897  14.014
 4940W        W76666   8.576  39.723   0.161
 4941W        W76667  34.401  42.365   2.103
 4942W        W76668  40.623  40.317   1.461
 4943W        W76669  39.757  29.187  13.827
 4944W        W76670  34.595  42.083   4.258
 4945W        W76671  38.825  25.688   0.788
 4946W        W76672  31.190  32.629   1.127
 4947W        W76673  40.591  25.697   3.885
 4948W        W76674  14.184   6.657  11.652
 4949W        W76675  32.032  17.328  14.963
 4950W        W76676  12.151  38.874  13.991
 4951W        W76677   2.681   9.923  12.095
 4952W        W76678  29.173  37.365  10.035
 4953W        W76679  18.311  20.124   1.002
 4954W        W76680  33.534  12.535  10.861
 4955W        W76681  28.594  20.244  13.344
 4956W        W76682  14.029  34.607  13.558
 4957W        W76683   4.153  34.631  14.350
 4958W        W76684   7.065  32.994   3.557
 4959W        W76685  41.368  27.262   1.439
 4960W        W76686  13.256   7.276   1.412
 4961W        W76687  21.255  11.840  10.563
 4962W        W76688   7.106  24.965  10.637
 4963W        W76689  28.560   1.327   0.074
 4964W        W76690  33.618  24.176   3.353
 4965W        W76691  23.544  13.587   4.774
 4966W        W76692  17.256  20.104   0.025
 4967W        W76693  17.765   1.077  11.903
 4968W        W76694  22.049  13.325   3.124
 4969W        W76695  23.212  20.082  13.408
 4970W        W76696  15.657  29.724   0.775
 4971W        W76697  31.470  42.639   0.699
 4972W        W76698   2.524  36.906  11.152
 4973W        W76699  11.894   1.782   3.589
 4974W        W76700  43.609   3.602  13.095
 4975W        W76701  14.122  40.943   2.675
 4976W        W76702  14.604  43.958   0.872
 4977W        W76703  12.425  18.657   0.698
 4978W        W76704  32.538  35.529  14.058
 4979W        W76705   7.580  37.398   0.881
 4980W        W76706  39.645   4.713   2.749
 4981W        W76707  39.401  39.515   3.856
 4982W        W76708   1.898   6.190   0.934
 4983W        W76709  20.640  10.718  13.397
 4984W        W76710  26.256  18.041   3.231
 4985W        W76711  18.233   4.396  12.034
 4986W        W76712   3.293  42.180  14.507
 4987W        W76713  28.208   2.338   4.519
 4988W        W76714   3.787  30.939  12.399
 4989W        W76715  44.461  11.809  12.525
 4990W        W76716   8.417   2.972   1.239
 4991W        W76717  42.871   7.768   0.826
 4992W        W76718  42.524  31.402   2.450
 4993W        W76719  11.029  36.543   3.205
 4994W        W76720  20.360  34.785   0.516
 4995W        W76721  43.470   8.076   2.143
 4996W        W76722  26.728   1.543   4.154
 4997W        W76723   1.508  10.927   4.452
 4998W        W76724  19.794  26.018  14.424
 4999W        W76725  33.620  13.268   2.468
 5000W        W76726  29.658  20.749   3.157
 5001W        W76727   7.187  44.365   1.900
 5002W        W76728   4.167  15.239   5.164
 5003W        W76729   9.837   7.679  10.580
 5004W        W76730  36.447  42.235  11.848
 5005W        W76731  11.368   2.365   2.236
 5006W        W76732  32.389  16.204  13.440
 5007W        W76733  23.620   1.096   1.864
 5008W        W76734  13.733  21.646  13.047
 5009W        W76735  38.424   8.137   3.440
 5010W        W76736   8.087  30.593  13.454
 5011W        W76737  35.692  37.663  11.871
 5012W        W76738  13.792  26.976   2.705
 5013W        W76739   5.949   0.294   1.960
 5014W        W76740  20.765  32.294   1.464
 5015W        W76741  23.076   0.692  11.482
 5016W        W76742   1.769  43.230   0.764
 5017W        W76743  22.206  23.787   3.350
 5018W        W76744   4.880   9.761  14.367
 5019W        W76745  21.229   4.143  11.303
 5020W        W76746  28.462   8.857  11.917
 5021W        W76747  35.679   4.464   2.252
 5022W        W76748  12.684  26.568   4.411
 5023W        W76749  38.456  29.631  13.054
 5024W        W76750  34.104  20.606  11.574
 5025W        W76751  18.275   4.926  13.926
 5026W        W76752   2.092  38.132  14.585
 5027W        W76753  15.786  32.976  14.303
 5028W        W76754  30.433  36.354  14.898
 5029W        W76755  34.398  32.481   0.788
 5030W        W76756  10.407  20.533  12.305
 5031W        W76757  40.002   2.734   4.407
 5032W        W76758   6.008  22.466  12.502
 5033W        W76759  26.555   0.332  12.027
 5034W        W76760  19.471   8.746  14.040
 5035W        W76761  30.051  21.616   0.301
 5036W        W76762   1.288  39.530  13.042
 5037W        W76763  35.518  18.804   1.431
 5038W        W76764  36.873  24.007  12.580
 5039W        W76765  37.335  31.074   0.945
 5040W        W76766  41.567  40.072  14.491
 5041W        W76767  20.058  35.413  10.784
 5042W        W76768  12.760   5.255   1.864
 5043W        W76769  31.160  40.852   0.008
 5044W        W76770   1.337  30.889   1.869
 5045W        W76771  19.209  24.973  11.858
 5046W        W76772  21.085  12.528   9.725
 5047W        W76773  32.797  14.721   2.292
 5048W        W76774  10.135  36.745  11.016
 5049W        W76775  43.203  30.565  11.216
 5050W        W76776  26.403   9.599   2.694
 5051W        W76777   9.117  28.700   3.320
 5052W        W76778  33.953  31.512  11.428
 5053W        W76779  40.460  27.765  11.655
 5054W        W76780   4.253  11.184  11.581
 5055W        W76781  12.124  19.298  11.101
 5056W        W76782  43.678  10.270   4.983
 5057W        W76783  31.473  16.249  13.292
 5058W        W76784  40.362  23.858   0.874
 5059W        W76785  40.945   4.963   2.706
 5060W        W76786  18.777  37.968   3.142
 5061W        W76787  39.210  12.936   0.881
 5062W        W76788  16.611  36.004  11.446
 5063W        W76789  32.537  23.754   3.769
 5064W        W76790  42.741  41.836  14.941
 5065W        W76791  36.409  16.062   4.110
 5066W        W76792  36.910  13.452   2.291
 5067W        W76793  38.735  43.222  14.360
 5068W        W76794   9.740  36.667  13.098
 5069W        W76795  30.505  13.102   5.024
 5070W        W76796   3.821   3.927  11.775
 5071W        W76797  30.385  39.257   2.305
 5072W        W76798  25.494  27.644   0.813
 5073W        W76799  38.334   7.260   0.184
 5074W        W76800  23.225  24.689   3.959
 5075W        W76801  39.021  12.365   3.196
 5076W        W76802  35.527  35.189   1.684
 5077W        W76803  32.488  13.187  11.089
 5078W        W76804  36.425   4.205  12.909
 5079W        W76805  33.171  43.542  12.656
 5080W        W76806  37.594  42.749  11.467
 5081W        W76807  28.355  18.037  12.632
 5082W        W76808  31.906  10.320   3.625
 5083W        W76809  35.027   9.363  12.558
 5084W        W76810  43.719   5.793  13.357
 5085W        W76811  16.265  26.544  13.834
 5086W        W76812  29.502   7.018  14.362
 5087W        W76813  32.440  41.370   3.585
 5088W        W76814  18.301  42.911  12.850
 5089W        W76815  38.769  12.836   2.624
 5090W        W76816  11.520  20.136   2.617
 5091W        W76817  41.258   6.938   0.309
 5092W        W76818   9.821  36.646   3.335
 5093W        W76819  31.572  36.855  13.539
 5094W        W76820  42.495  38.025  11.054
 5095W        W76821   0.393  33.501  10.686
 5096W        W76822  19.214  11.020  11.133
 5097W        W76823  43.894  33.631   2.243
 5098W        W76824   0.379   2.820  12.159
 5099W        W76825  18.093  38.311  13.322
 5100W        W76826  41.393  19.166   0.419
 5101W        W76827   3.441  20.149  10.668
 5102W        W76828   8.874  29.907  14.413
 5103W        W76829  20.294  17.264  12.050
 5104W        W76830  31.443  41.252   4.056
 5105W        W76831   0.668  27.290  11.252
 5106W        W76832  36.036  42.483  12.850
 5107W        W76833   0.231  37.753   1.583
 5108W        W76834  29.151  35.931  13.046
 5109W        W76835   5.389  35.597   2.650
 5110W        W76836   8.946  10.946  13.069
 5111W        W76837   6.077   7.645   5.518
 5112W        W76838  43.144   3.340   2.818
 5113W        W76839  13.191  32.992   0.772
 5114W        W76840  40.379  22.436   2.367
 5115W        W76841  41.926   0.333  13.851
 5116W        W76842   2.400   3.047   3.273
 5117W        W76843  19.243  42.069  13.909
 5118W        W76844  30.884  14.148   0.840
 5119W        W76845  11.843  25.223   2.282
 5120W        W76846  25.758  42.808  12.476
 5121W        W76847  23.224   9.306  11.365
 5122W        W76848  12.738  16.475   1.024
 5123W        W76849  10.013  14.810  13.328
 5124W        W76850  10.864  22.111   0.780
 5125W        W76851  23.802  19.658  11.165
 5126W        W76852  33.531   9.775   3.866
 5127W        W76853  14.066  13.343  11.549
 5128W        W76854  37.838  25.018   4.674
 5129W        W76855  16.151  35.136   1.886
 5130W        W76856  18.266  15.161   0.875
 5131W        W76857  18.305  32.950  11.983
 5132W        W76858  22.406  26.072  14.249
 5133W        W76859   5.108  21.624   4.536
 5134W        W76860  38.144  35.887   3.686
 5135W        W76861  37.142  19.607  12.537
 5136W        W76862  13.723   4.493  13.989
 5137W        W76863  39.130  21.252  11.170
 5138W        W76864   8.725  27.536  12.014
 5139W        W76865  22.628  36.250  13.501
 5140W        W76866  28.679  35.275  11.182
 5141W        W76867  35.661  23.397   3.154
 5142W        W76868  43.323  40.194  12.730
 5143W        W76869  43.013   6.728  12.354
 5144W        W76870  13.745   1.704   4.167
 5145W        W76871  14.694  32.828  10.675
 5146W        W76872  10.360   7.314  13.365
 5147W        W76873  44.506  44.997   2.322
 5148W        W76874  38.923   1.024  10.725
 5149W        W76875  17.298  17.661   3.158
 5150W        W76876  13.001   4.931  13.307
 5151W        W76877  29.536  26.457  13.915
 5152W        W76878  33.565  33.080   0.936
 5153W        W76879  31.998  28.912   4.806
 5154W        W76880  39.474   6.920  12.597
 5155W        W76881   0.050   1.898   1.634
 5156W        W76882  37.465   1.678   0.032
 5157W        W76883  41.149  35.636   2.281
 5158W        W76884  35.988  15.285   2.427
 5159W        W76885  39.447  18.822   3.154
 5160W        W76886   9.082  29.155   4.170
 5161W        W76887  26.099  33.130   3.582
 5162W        W76888  12.770   4.935   1.417
 5163W        W76889  42.257  26.625  11.014
 5164W        W76890  24.952   0.819   1.631
 5165W        W76891  15.412  42.982  14.357
 5166W        W76892   3.925   8.715   3.731
 5167W        W76893  10.679   3.393  13.508
 5168W        W76894  27.403  28.438  11.049
 5169W        W76895  15.654  42.771  11.038
 5170W        W76896  25.780   3.847   3.322
 5171W        W76897  17.070   0.046   0.301
 5172W        W76898   8.894   2.528  10.715
 5173W        W76899  41.035  39.466  14.084
 5174W        W76900  15.747   7.186   5.046
 5175W        W76901  25.179  10.725  13.106
 5176W        W76902  38.339  17.846   3.678
 5177W        W76903  33.503  35.626  13.535
 5178W        W76904  42.920  34.866   1.196
 5179W        W76905  31.490   2.735   1.700
 5180W        W76906  26.147  30.315  12.849
 5181W        W76907  21.131   6.810   2.133
 5182W        W76908  13.554  19.346  13.652
 5183W        W76909  41.567  17.117  14.286
 5184W        W76910   5.739  11.399  13.937
 5185W        W76911  30.543  32.796   1.965
 5186W        W76912  44.216   4.868   2.805
 5187W        W76913  38.034  31.476  13.039
 5188W        W76914  27.973  40.603   3.812
 5189W        W76915   7.810   7.650  13.531
 5190W        W76916  20.773  20.085  12.034
 5191W        W76917  18.399  17.887  11.075
 5192W        W76918  17.784  25.052  10.626
 5193W        W76919  27.205  41.849  11.128
 5194W        W76920  23.632  32.065   3.979
 5195W        W76921  30.090  15.076  13.047
 5196W        W76922   8.765  23.681   1.896
 5197W        W76923  15.879  13.582   3.552
 5198W        W76924  30.931   1.490  12.416
 5199W        W76925  44.533  25.312  10.283
 5200W        W76926  16.313  40.028  11.027
 5201W        W76927  15.879  37.492   2.296
 5202W        W76928   9.087  38.440  10.640
 5203W        W76929   8.808  31.910   2.681
 5204W        W76930  23.559  10.415   4.584
 5205W        W76931  40.826   7.185   4.674
 5206W        W76932  11.165  14.094  13.993
 5207W        W76933  35.568  13.276  13.454
 5208W        W76934  38.978  22.484  13.056
 5209W        W76935   7.139  21.784   0.780
 5210W        W76936  35.818   0.180  14.587
 5211W        W76937  41.077   2.455   1.731
 5212W        W76938  35.936  31.856   0.186
 5213W        W76939  35.095  20.675   1.338
 5214W        W76940  26.454   9.637  14.744
 5215W        W76941  19.852  19.127  11.133
 5216W        W76942  12.296   3.455  12.941
 5217W        W76943  33.378   8.341  12.044
 5218W        W76944  42.774   9.954   3.279
 5219W        W76945   2.362  17.385   0.506
 5220W        W76946  31.196  31.480   1.927
 5221W        W76947  14.092  22.088   1.716
 5222W        W76948   0.738  34.835   5.076
 5223W        W76949  33.773  10.896   0.346
 5224W        W76950  15.111  36.626   1.915
 5225W        W76951   4.988  38.351  11.519
 5226W        W76952   5.868   9.584  14.522
 5227W        W76953  32.970  34.629  13.135
 5228W        W76954  43.970  13.557  11.153
 5229W        W76955  16.630  32.109  14.712
 5230W        W76956  38.957  38.129   3.441
 5231W        W76957  29.896  28.168   1.962
 5232W        W76958  39.935   3.090  11.053
 5233W        W76959  39.368   5.905   0.392
 5234W        W76960  44.388  25.995   2.262
 5235W        W76961  31.113  25.439  11.122
 5236W        W76962  44.532  28.938  11.651
 5237W        W76963   1.073  27.240  11.554
 5238W        W76964  31.565  19.564   3.768
 5239W        W76965  19.777   6.923   1.923
 5240W        W76966  30.192  44.639  10.961
 5241W        W76967  20.312  26.505   3.527
 5242W        W76968   4.837  27.102   2.350
 5243W        W76969  24.728  31.950  11.641
 5244W        W76970  25.964  41.544  14.314
 5245W        W76971  37.023   0.778   2.643
 5246W        W76972  15.594  28.455  13.545
 5247W        W76973  26.627   3.012  14.982
 5248W        W76974  37.111  32.523  13.459
 5249W        W76975  38.429  38.574   0.207
 5250W        W76976   9.715  23.408  12.659
 5251W        W76977  23.959   5.700  12.071
 5252W        W76978  18.622  14.446   5.020
 5253W        W76979  25.735  25.940   1.883
 5254W        W76980  20.439   3.114   3.241
 5255W        W76981  34.910  17.391  13.851
 5256W        W76982  28.800  17.930  12.368
 5257W        W76983  13.111  24.777   1.979
 5258W        W76984  36.527  43.812   0.478
 5259W        W76985  43.435  27.144   1.531
 5260W        W76986  25.900  12.740   3.281
 5261W        W76987  43.379   6.077   3.282
 5262W        W76988  21.165  21.503   1.486
 5263W        W76989  32.387   2.441  10.516
 5264W        W76990  42.864  37.435  11.916
 5265W        W76991  38.906  19.448  14.881
 5266W        W76992  25.287  15.150   4.081
 5267W        W76993  13.900  29.466  11.610
 5268W        W76994  43.465  31.053  11.074
 5269W        W76995  13.940  40.432   3.788
 5270W        W76996  10.761  43.952  11.578
 5271W        W76997  15.322  34.608  13.914
 5272W        W76998  43.255  40.452   0.711
 5273W        W76999  31.622  42.217   4.176
 5274W        W77000  36.656  19.547  12.988
 5275W        W77001  41.564   1.990  14.376
 5276W        W77002  37.580  26.149   2.441
 5277W        W77003  34.172  27.034  14.407
 5278W        W77004  35.536  33.097  14.378
 5279W        W77005  18.507  30.719   0.303
 5280W        W77006  24.361  34.102   4.230
 5281W        W77007  18.214  11.214  10.772
 5282W        W77008  21.453  28.263   3.210
 5283W        W77009  31.374  39.440   3.915
 5284W        W77010  34.877  20.764   4.378
 5285W        W77011   6.243  42.152  11.720
 5286W        W77012  32.830   8.198   2.956
 5287W        W77013  31.369  21.942   1.509
 5288W        W77014   6.988  43.024  11.982
 5289W        W77015  11.083  24.737  11.409
 5290W        W77016  13.173  28.236  10.234
 5291W        W77017  17.587  35.040   4.084
 5292W        W77018   8.439   2.999   3.252
 5293W        W77019  41.514  29.243  13.386
 5294W        W77020  12.121  23.757   4.314
 5295W        W77021  40.027  10.614   2.685
 5296W        W77022  27.484  30.432  11.993
 5297W        W77023  25.499  43.842   2.155
 5298W        W77024  17.983  43.982  14.960
 5299W        W77025  41.758  37.030   1.270
 5300W        W77026  12.825  10.687   0.399
 5301W        W77027  38.932  25.927   1.240
 5302W        W77028   2.163  42.556   1.930
 5303W        W77029  13.331   9.735   0.501
 5304W        W77030  28.068  25.092   2.266
 5305W        W77031  34.164  16.204  13.909
 5306W        W77032  20.077  38.810   4.967
 5307W        W77033  29.423  42.408   1.697
 5308W        W77034  36.901  42.343   1.959
 5309W        W77035  28.972   4.285  10.958
 5310W        W77036  22.125  16.375  10.951
 5311W        W77037  44.729  39.381   1.369
 5312W        W77038  19.016  42.212   2.444
 5313W        W77039   2.352  43.404  11.734
 5314W        W77040  10.311  40.342   2.407
 5315W        W77041  28.594  22.524  11.674
 5316W        W77042   5.758  23.767  11.176
 5317W        W77043  22.914  26.242  13.411
 5318W        W77044  18.178  16.005   3.207
 5319W        W77045  22.939  39.089  12.207
 5320W        W77046  27.383  42.506   1.238
 5321W        W77047  28.511  30.152   1.724
 5322W        W77048  15.095   2.939  13.794
 5323W        W77049  32.701  26.961   1.384
 5324W        W77050  15.329  16.122  13.576
 5325W        W77051  39.995  18.119   4.546
 5326W        W77052  33.373  17.970   5.099
 5327W        W77053   8.415  34.515   5.047
 5328W        W77054  10.465  17.707  10.773
 5329W        W77055  43.018  38.494   3.475
 5330W        W77056  26.754   4.218  13.024
 5331W        W77057  24.156  34.040   0.480
 5332W        W77058  23.782  29.945  10.595
 5333W        W77059  16.370  41.514   0.242
 5334W        W77060  29.000  39.415  11.610
 5335W        W77061  14.777  31.970   2.189
 5336W        W77062  34.096  43.544  13.986
 5337W        W77063  24.532  17.240   3.645
 5338W        W77064  29.677  33.477   4.797
 5339W        W77065  29.451   4.670   1.386
 5340W        W77066  14.970  44.028  12.065
 5341W        W77067  10.411  39.108  14.171
 5342W        W77068   4.111   6.412   4.995
 5343W        W77069  25.704  30.170  11.964
 5344W        W77070  30.197  12.061  10.701
 5345W        W77071  32.368  12.837  12.916
 5346W        W77072  28.157  41.468   2.216
 5347W        W77073  44.947  13.157  14.497
 5348W        W77074  21.698  28.980  10.566
 5349W        W77075   6.173   9.456   2.109
 5350W        W77076  28.761  24.980   1.681
 5351W        W77077  41.859  11.808  13.722
 5352W        W77078   0.927  22.628  11.608
 5353W        W77079  18.241  29.011   1.774
 5354W        W77080  25.421  25.181  13.340
 5355W        W77081  42.443  34.896   2.352
 5356W        W77082  12.654  28.371   0.749
 5357W        W77083   3.978  28.288   1.739
 5358W        W77084  32.025   6.479  11.073
 5359W        W77085   8.909  27.030  13.057
 5360W        W77086   3.545  39.957  10.643
 5361W        W77087  23.502   8.114   4.167
 5362W        W77088   0.084  34.826  13.619
 5363W        W77089  29.502  23.830  13.125
 5364W        W77090   8.584  39.030  11.123
 5365W        W77091  42.980   0.103  10.753
 5366W        W77092  25.579  33.160  11.123
 5367W        W77093  31.365  32.404  14.071
 5368W        W77094  27.149   6.728   2.414
 5369W        W77095  33.457  31.116   1.576
 5370W        W77096  25.578  26.106   2.338
 5371W        W77097  28.054  33.801   4.468
 5372W        W77098  36.999  15.013   1.490
 5373W        W77099  38.112  43.866   2.148
 5374W        W77100  40.367  33.869   3.222
 5375W        W77101  16.300  13.591   3.896
 5376W        W77102  12.590   7.678   0.936
 5377W        W77103  41.875   1.947  12.467
 5378W        W77104   5.679  10.730   1.882
 5379W        W77105  25.700  43.539  11.092
 5380W        W77106  37.657  16.191   1.713
 5381W        W77107   3.937  29.136  14.874
 5382W        W77108  20.238  18.603  12.852
 5383W        W77109   6.101  23.552   0.746
 5384W        W77110  23.442  31.924   3.031
 5385W        W77111  19.350  12.821   3.176
 5386W        W77112  34.392   2.568  12.075
 5387W        W77113  39.436  22.222  10.994
 5388W        W77114  33.576   1.953  11.948
 5389W        W77115   1.416  16.519  10.515
 5390W        W77116  29.930  34.916   3.971
 5391W        W77117  42.318  34.291   3.154
 5392W        W77118  32.985  34.829  11.572
 5393W        W77119  30.846  36.143   2.775
 5394W        W77120  22.735  25.386   3.185
 5395W        W77121   3.029   9.198   4.149
 5396W        W77122   7.958  13.203  12.006
 5397W        W77123  35.513  23.038   0.927
 5398W        W77124  10.572  20.279  10.727
 5399W        W77125  28.201   3.232  12.656
 5400W        W77126  23.535   4.773  12.169
 5401W        W77127   1.911  30.074  13.338
 5402W        W77128  34.918  31.473  14.724
 5403W        W77129  31.130   1.238  12.000
 5404W        W77130  24.840   7.462  13.033
 5405W        W77131  11.282  18.524   3.960
 5406W        W77132  38.331  20.579   0.452
 5407W        W77133  43.090  14.049   2.415
 5408W        W77134  43.211  25.245   1.379
 5409W        W77135  25.991   8.654  14.434
 5410W        W77136  22.704   8.170  13.376
 5411W        W77137  40.356   8.893  12.085
 5412W        W77138   2.357  25.768   4.539
 5413W        W77139  27.825  22.637   2.276
 5414W        W77140  44.313  23.680   4.262
 5415W        W77141  30.424  27.288   0.319
 5416W        W77142  38.109  33.340   3.666
 5417W        W77143  33.955  35.569  12.908
 5418W        W77144  25.125  27.951   5.144
 5419W        W77145  30.804  25.517  10.701
 5420W        W77146  10.708  43.407   1.770
 5421W        W77147  42.535  31.556  12.530
 5422W        W77148  21.583  41.878   4.876
 5423W        W77149  34.856  28.344  12.426
 5424W        W77150   9.689  44.379   0.199
 5425W        W77151  14.660  27.079   3.193
 5426W        W77152  41.226  32.181  13.600
 5427W        W77153   8.183  31.932   1.625
 5428W        W77154  22.572  15.759  11.529
 5429W        W77155  30.913  24.129  10.598
 5430W        W77156  30.662   3.940   2.830
 5431W        W77157  23.549   2.499  12.488
 5432W        W77158  44.663  21.209  13.055
 5433W        W77159  26.099   8.650  12.548
 5434W        W77160  20.070  10.664  12.540
 5435W        W77161  23.653  31.208  11.065
 5436W        W77162  23.639  22.212   1.891
 5437W        W77163  28.657  16.888   3.712
 5438W        W77164  22.139  25.641   0.526
 5439W        W77165   8.093  14.832   2.188
 5440W        W77166  15.312  22.680  11.932
 5441W        W77167   4.155  24.546  11.547
 5442W        W77168  44.260  32.836   2.437
 5443W        W77169   0.382  16.629  10.685
 5444W        W77170  14.613  31.262   1.413
 5445W        W77171   5.764  26.427  11.712
 5446W        W77172  13.652  26.241   1.024
 5447W        W77173  41.743  23.091  13.943
 5448W        W77174   2.516  42.002   1.230
 5449W        W77175  41.303  37.650   0.711
 5450W        W77176   8.969   1.934  14.464
 5451W        W77177  38.834  37.561  12.041
 5452W        W77178  23.701  35.416   1.954
 5453W        W77179  28.125  17.181  13.114
 5454W        W77180  37.071  14.997   0.985
 5455W        W77181  37.932  20.971   2.822
 5456W        W77182  43.341  18.804  11.622
 5457W        W77183  39.399  18.353   0.472
 5458W        W77184  33.449   1.813   1.406
 5459W        W77185  19.371  14.415  14.999
 5460W        W77186   3.410  16.518   0.803
 5461W        W77187  29.104  41.795   1.402
 5462W        W77188  17.564  30.970  11.385
 5463W        W77189  35.913  18.644   2.628
 5464W        W77190   5.586  13.818  14.306
 5465W        W77191  21.648  43.374   4.658
 5466W        W77192  17.082  12.006   2.847
 5467W        W77193  29.864  17.322  10.958
 5468W        W77194  27.143  32.817   2.845
 5469W        W77195   4.159  13.769   0.022
 5470W        W77196  19.082  44.230   0.731
 5471W        W77197  27.690  31.887  12.146
 5472W        W77198  40.345  20.649  14.482
 5473W        W77199  29.059  27.466   2.748
 5474W        W77200  27.900   5.874  14.354
 5475W        W77201  21.657  28.245   5.093
 5476W        W77202  17.268  40.047   9.721
 5477W        W77203  19.455  11.963   2.650
 5478W        W77204  44.484  15.379   4.595
 5479W        W77205  21.072   0.913  14.495
 5480W        W77206  37.422   6.383   3.437
 5481W        W77207  29.970  40.132  12.034
 5482W        W77208  11.864   4.945  10.600
 5483W        W77209  41.570  18.351  11.019
 5484W        W77210   4.248  29.891   2.444
 5485W        W77211  35.016  40.123  13.050
 5486W        W77212  26.274  14.327  13.082
 5487W        W77213  10.111   8.233  13.033
 5488W        W77214  17.444  31.901   2.961
 5489W        W77215  29.627  30.882   4.474
 5490W        W77216   4.757  26.816  13.974
 5491W        W77217  30.845  42.903   2.268
 5492W        W77218  16.593  34.114  13.917
 5493W        W77219   6.950   1.273  12.468
 5494W        W77220  27.719  44.716   4.225
 5495W        W77221  31.233  24.649  13.736
 5496W        W77222  33.406  35.775  11.659
 5497W        W77223  35.262  27.982  12.431
 5498W        W77224  28.049   3.298   1.875
 5499W        W77225  15.354  36.824   1.210
 5500W        W77226  12.370  25.554  13.365
 5501W        W77227  21.787  13.349   3.592
 5502W        W77228   7.624  21.971  11.181
 5503W        W77229  32.325  29.100  12.478
 5504W        W77230   7.396   4.426  13.209
 5505W        W77231  41.480  21.001   1.193
 5506W        W77232  19.036  32.471  13.018
 5507W        W77233   4.709  44.481   4.193
 5508W        W77234  22.058  20.719   0.333
 5509W        W77235  43.401  34.048   2.813
 5510W        W77236  22.264   1.558  13.441
 5511W        W77237  23.951  17.113   2.803
 5512W        W77238   9.453   4.914   0.003
 5513W        W77239  34.216  28.149  14.029
 5514W        W77240  23.763  18.800   3.781
 5515W        W77241  42.381  28.401   4.694
 5516W        W77242  22.677  20.748  14.585
 5517W        W77243   6.230  19.086  10.958
 5518W        W77244  10.837  41.850   0.039
 5519W        W77245  20.352   3.360   4.637
 5520W        W77246  43.755   8.470   3.917
 5521W        W77247  44.460  19.594  14.934
 5522W        W77248   9.364  24.400   4.969
 5523W        W77249  30.453  44.070   3.679
 5524W        W77250  36.013   0.840   0.913
 5525W        W77251  20.459   9.759  10.730
 5526W        W77252  17.340  16.097   0.895
 5527W        W77253  40.996  21.625   2.158
 5528W        W77254  39.367  16.161   4.723
 5529W        W77255   3.503  25.743  12.543
 5530W        W77256  36.502  13.792   0.472
 5531W        W77257  21.005  41.230  11.041
 5532W        W77258  43.829   0.849  12.772
 5533W        W77259  15.926  26.448  11.941
 5534W        W77260  26.605   8.047  11.525
 5535W        W77261  41.829  16.753   4.221
 5536W        W77262  38.082   0.212   0.281
 5537W        W77263  16.187   8.105  11.111
 5538W        W77264  12.345  22.643   1.803
 5539W        W77265  44.264  11.657   4.509
 5540W        W77266  18.781  32.255  12.631
 5541W        W77267   1.317   4.090   0.037
 5542W        W77268  42.532  27.652  13.072
 5543W        W77269  16.118  37.961   2.214
 5544W        W77270  21.663  30.641   1.928
 5545W        W77271  10.360  28.076   1.985
 5546W        W77272   3.788  28.437   1.230
 5547W        W77273   3.955  15.053   1.998
 5548W        W77274   8.980  21.104   1.677
 5549W        W77275  42.940  37.797   2.308
 5550W        W77276  43.494   8.893   2.812
 5551W        W77277  33.555  40.530   0.860
 5552W        W77278  44.369  25.432  12.020
 5553W        W77279  37.810   4.221  11.982
 5554W        W77280   5.269  34.832   2.095
 5555W        W77281   3.691  16.069   0.788
 5556W        W77282  41.395  40.524  10.814
 5557W        W77283  39.817  23.948   2.781
 5558W        W77284  26.637   0.538  12.492
 5559W        W77285  12.986  36.912  14.551
 5560W        W77286  17.380  35.220   3.190
 5561W        W77287   1.756   1.189   3.282
 5562W        W77288  12.880  18.748  11.904
 5563W        W77289  26.727  18.242  10.868
 5564W        W77290  18.771  38.392   4.028
 5565W        W77291  29.998  25.584  13.330
 5566W        W77292  24.900  32.540  13.959
 5567W        W77293   4.834  43.007  13.461
 5568W        W77294  32.694  27.979   3.144
 5569W        W77295  31.728  29.995   0.302
 5570W        W77296  12.856  14.689   2.961
 5571W        W77297  19.588  38.470  14.570
 5572W        W77298   3.608  31.447   3.532
 5573W        W77299  32.868  21.592   1.750
 5574W        W77300  41.808  14.235   2.653
 5575W        W77301   6.716  38.483   3.279
 5576W        W77302   4.903  17.606  13.876
 5577W        W77303  15.131  14.830   0.380
 5578W        W77304   1.247  22.939  13.680
 5579W        W77305  19.175  10.707   1.876
 5580W        W77306  19.771  26.096  10.608
 5581W        W77307  33.627   8.835   2.299
 5582W        W77308  25.181  13.839  12.379
 5583W        W77309  14.032  28.086   0.954
 5584W        W77310  22.390  29.019   4.807
 5585W        W77311  32.099  44.406  14.540
 5586W        W77312  13.737   2.852  14.471
 5587W        W77313  27.912  43.696  13.401
 5588W        W77314  34.601  34.272   2.232
 5589W        W77315  23.050  27.974  11.032
 5590W        W77316  39.359  23.255   0.458
 5591W        W77317  19.237   9.310   4.132
 5592W        W77318   2.910  30.155  14.909
 5593W        W77319  42.974   7.413   4.080
 5594W        W77320  25.460  24.268   0.796
 5595W        W77321   3.974  19.533  14.214
 5596W        W77322  25.296   8.152  12.840
 5597W        W77323  11.756   9.747  12.382
 5598W        W77324  17.112  13.702   0.903
 5599W        W77325  44.564   1.974   1.837
 5600W        W77326  28.931  32.269   1.240
 5601W        W77327  22.733  36.293   2.374
 5602W        W77328   5.950  38.582  11.870
 5603W        W77329  31.083   8.751   4.536
 5604W        W77330   3.408  12.282   2.669
 5605W        W77331  37.611  28.131   2.720
 5606W        W77332   4.292  27.322  11.609
 5607W        W77333  28.291  17.763  10.690
 5608W        W77334  35.129  41.882   1.821
 5609W        W77335  24.291  19.226   0.831
 5610W        W77336  21.513  26.878  11.886
 5611W        W77337  15.403  35.636  13.421
 5612W        W77338  29.125  25.933   3.128
 5613W        W77339  42.716  44.295  13.413
 5614W        W77340  33.670  22.744   0.512
 5615W        W77341  24.527  20.763  13.599
 5616W        W77342  37.115  36.593   4.657
 5617W        W77343  40.836  29.587  10.487
 5618W        W77344  29.768  33.665  12.995
 5619W        W77345  16.563  27.783  14.069
 5620W        W77346  33.919  43.235  10.162
 5621W        W77347   0.953   1.450   1.879
 5622W        W77348  31.338  43.950   3.699
 5623W        W77349  35.794  30.482  13.017
 5624W        W77350  20.122  13.321  12.458
 5625W        W77351  21.469  40.412  14.939
 5626W        W77352  33.679   5.774  14.080
 5627W        W77353  30.618  44.205   9.765
 5628W        W77354  25.064   3.267   1.734
 5629W        W77355   9.856  11.691  11.183
 5630W        W77356  17.721  38.504  10.995
 5631W        W77357   9.662  10.818  11.160
 5632W        W77358   6.350  20.146   0.825
 5633W        W77359  12.369  12.835  11.181
 5634W        W77360  35.944   8.509  12.463
 5635W        W77361  40.798   6.231   2.409
 5636W        W77362   4.722  41.251   0.610
 5637W        W77363  25.040  36.987   2.277
 5638W        W77364  29.934  43.481   3.805
 5639W        W77365  10.819  35.420  12.364
 5640W        W77366  30.176  18.216  14.428
 5641W        W77367  29.481  20.044   1.913
 5642W        W77368  28.168  28.009   0.311
 5643W        W77369  16.097   6.967   2.184
 5644W        W77370  12.123  33.976  12.665
 5645W        W77371  20.643   9.733   4.202
 5646W        W77372  19.543  20.303  13.338
 5647W        W77373   5.495   5.324   3.710
 5648W        W77374  41.881  12.324  12.516
 5649W        W77375  38.018   8.144  14.800
 5650W        W77376  30.592  22.195  13.969
 5651W        W77377  40.476  14.122   0.722
 5652W        W77378  30.155   7.940   1.866
 5653W        W77379  33.994   4.849   2.649
 5654W        W77380  34.001   4.321  13.526
 5655W        W77381  21.831  15.126   1.707
 5656W        W77382   0.315  40.968  11.156
 5657W        W77383  41.708  42.804  13.694
 5658W        W77384   3.754  19.823  13.377
 5659W        W77385  17.500  16.200  11.533
 5660W        W77386  26.030   2.194  12.503
 5661W        W77387  35.679   8.314  11.700
 5662W        W77388  22.742  23.697  11.444
 5663W        W77389  19.592  28.498   0.806
 5664W        W77390  10.768  44.530  10.653
 5665W        W77391   6.716  39.899  14.815
 5666W        W77392  35.292  13.729  12.077
 5667W        W77393  37.892  19.558   3.832
 5668W        W77394  40.359  27.234  11.611
 5669W        W77395  32.163  11.523   1.224
 5670W        W77396  32.535   2.492  11.070
 5671W        W77397   8.746  15.591  11.160
 5672W        W77398  21.418  12.665  11.974
 5673W        W77399  35.630  20.604  12.502
 5674W        W77400  39.959  30.113   0.343
 5675W        W77401  15.293   7.126   0.013
 5676W        W77402  24.139  14.509  10.038
 5677W        W77403   0.490   4.829   1.489
 5678W        W77404  44.797  32.886   3.190
 5679W        W77405   3.185   0.835   2.892
 5680W        W77406   5.803  13.765  10.149
 5681W        W77407  19.751  42.944  10.480
 5682W        W77408  23.529  15.334   2.331
 5683W        W77409   4.171  37.850  14.079
 5684W        W77410  25.746  41.943   4.408
 5685W        W77411  25.613  15.781   0.376
 5686W        W77412   3.248  16.546   3.267
 5687W        W77413  30.518  27.897   4.064
 5688W        W77414   6.812  24.923   3.658
 5689W        W77415  40.498  24.566   1.317
 5690W        W77416   7.695   0.012  12.000
 5691W        W77417   7.282   5.799  13.373
 5692W        W77418   2.832   4.016  12.459
 5693W        W77419  21.644  20.269  10.725
 5694W        W77420   5.195  11.067   3.825
 5695W        W77421  31.678  44.796   0.071
 5696W        W77422  38.407   3.200   2.443
 5697W        W77423  29.050  23.357  11.569
 5698W        W77424  42.469  16.177  11.698
 5699W        W77425   0.748  36.542  13.940
 5700W        W77426  23.248  36.266   2.606
 5701W        W77427  42.499   5.966  13.956
 5702W        W77428  32.574  42.883  14.571
 5703W        W77429  18.539  37.712   4.467
 5704W        W77430  42.616  24.228  12.325
 5705W        W77431  24.005  22.341   5.075
 5706W        W77432   7.256  34.804  11.018
 5707W        W77433  32.237  18.240   4.112
 5708W        W77434  37.427  16.539  11.681
 5709W        W77435  17.673   4.764  14.602
 5710W        W77436  15.531  10.807   1.847
 5711W        W77437  30.765  42.446  14.494
 5712W        W77438   3.371  17.789   1.469
 5713W        W77439  26.376  41.713   1.624
 5714W        W77440   6.692  31.575   4.711
 5715W        W77441  31.866  24.915  12.323
 5716W        W77442  32.519  41.283  10.761
 5717W        W77443  17.187  35.125   2.279
 5718W        W77444  16.322  10.193  11.086
 5719W        W77445  37.842   0.221  13.031
 5720W        W77446  19.709  44.933   3.281
 5721W        W77447  34.608  38.003  13.620
 5722W        W77448  42.704   2.941   3.665
 5723W        W77449  43.553   3.661   4.130
 5724W        W77450  13.719  17.326   4.350
 5725W        W77451  35.060  39.852   3.903
 5726W        W77452   8.336  25.513   4.198
 5727W        W77453  29.570  31.124  14.397
 5728W        W77454  38.322  28.193   3.601
 5729W        W77455   1.508  22.550   4.023
 5730W        W77456   3.185  33.621  11.190
 5731W        W77457  17.260  30.209   0.650
 5732W        W77458  33.242  39.518   4.109
 5733W        W77459  15.782  31.502  13.483
 5734W        W77460  36.342  40.250   5.049
 5735W        W77461  35.042  16.943   3.795
 5736W        W77462  36.880   1.534  12.733
 5737W        W77463  15.146   0.671   0.503
 5738W        W77464  37.073  37.046  13.860
 5739W        W77465  14.107  14.312   4.597
 5740W        W77466  20.368   6.549  12.454
 5741W        W77467  23.104   5.553  12.937
 5742W        W77468  30.899  39.964  10.604
 5743W        W77469   1.025  12.807  13.799
 5744W        W77470   9.591  24.673  12.452
 5745W        W77471  42.958  38.784   0.514
 5746W        W77472  31.040   8.388  12.660
 5747W        W77473  29.563  16.077   1.906
 5748W        W77474  43.956  40.409   3.186
 5749W        W77475  27.617   5.772  11.906
 5750W        W77476  18.949   6.328  11.073
 5751W        W77477   6.770  22.294  13.963
 5752W        W77478  30.472   0.782  11.518
 5753W        W77479  30.535  43.901   5.604
 5754W        W77480  30.392  16.842  13.523
 5755W        W77481  16.712  44.219   0.412
 5756W        W77482  24.723   6.964  12.059
 5757W        W77483  39.831  13.358   2.799
 5758W        W77484   6.225  43.973  14.990
 5759W        W77485  24.255  10.406   4.224
 5760W        W77486  38.064  39.695  14.555
 5761W        W77487   8.295  22.537   0.354
 5762W        W77488   2.698  19.669   3.850
 5763W        W77489  40.872   5.780   2.673
 5764W        W77490  29.544  18.604  11.070
 5765W        W77491  12.415   6.849  14.306
 5766W        W77492  31.002  18.037   1.539
 5767W        W77493  27.334  11.728   4.478
 5768W        W77494  25.678  33.932   2.773
 5769W        W77495   7.753   5.624  11.465
 5770W        W77496  27.986   4.948  13.094
 5771W        W77497  32.489  13.375  10.614
 5772W        W77498  44.792  27.143   1.828
 5773W        W77499  29.480  36.497  13.546
 5774W        W77500  22.164  33.984  12.673
 5775W        W77501  29.072  44.083   3.789
 5776W        W77502  31.596  43.953  11.079
 5777W        W77503  17.758  19.279   0.005
 5778W        W77504   1.251  26.075  13.721
 5779W        W77505  38.056  40.446  12.407
 5780W        W77506  42.026  14.058   3.084
 5781W        W77507  28.987  26.509   0.757
 5782W        W77508   3.355  43.305  10.757
 5783W        W77509  39.075  38.484   4.890
 5784W        W77510  34.261   9.873  12.335
 5785W        W77511   9.259  34.089   4.638
 5786W        W77512  39.107   1.469  11.990
 5787W        W77513  36.075  39.585  11.604
 5788W        W77514  28.055  27.568   4.688
 5789W        W77515   6.841   0.187  11.476
 5790W        W77516  31.917   4.395   0.493
 5791W        W77517  21.910  36.447   1.436
 5792W        W77518   8.298   4.290   0.234
 5793W        W77519   4.184  32.416  13.822
 5794W        W77520  38.302  16.881  14.527
 5795W        W77521  11.591   8.103  14.386
 5796W        W77522  20.796  37.568   3.442
 5797W        W77523  30.474  25.558  14.544
 5798W        W77524  41.270   4.855  11.703
 5799W        W77525  33.549  22.527   3.763
 5800W        W77526  12.143   3.233  11.597
 5801W        W77527   6.696  10.278   4.617
 5802W        W77528   3.398  30.212   0.912
 5803W        W77529   1.873   9.780   3.810
 5804W        W77530  28.510  44.307  11.089
 5805W        W77531  39.314  39.030  14.258
 5806W        W77532  25.304  27.023   1.054
 5807W        W77533  14.224  20.842  14.195
 5808W        W77534  14.200  30.735   0.524
 5809W        W77535  40.932  15.603  14.770
 5810W        W77536  10.276  33.604  11.944
 5811W        W77537  14.345  25.983  14.847
 5812W        W77538  24.778  43.949   5.422
 5813W        W77539  36.574   4.231   1.032
 5814W        W77540  15.880   3.019   0.429
 5815W        W77541   3.772   1.976   4.180
 5816W        W77542   7.644  35.876   4.071
 5817W        W77543  41.071   7.850  12.273
 5818W        W77544  33.577  23.318   4.149
 5819W        W77545  34.164  13.543   3.303
 5820W        W77546   8.000  36.834  10.489
 5821W        W77547  18.688  43.437  14.065
 5822W        W77548  26.673   3.023   1.848
 5823W        W77549  39.919   7.171   0.215
 5824W        W77550  35.436   8.581  14.333
 5825W        W77551  28.943   1.285   2.770
 5826W        W77552  23.113  12.607   1.050
 5827W        W77553  28.176   6.437  12.992
 5828W        W77554  17.825  24.385  12.877
 5829W        W77555  43.808  14.062   0.242
 5830W        W77556  32.823  39.167  13.909
 5831W        W77557  14.630  22.836   4.197
 5832W        W77558  20.671  41.129  11.525
 5833W        W77559   9.834   0.887  13.543
 5834W        W77560   3.301  14.087   3.608
 5835W        W77561   7.222  21.499   3.667
 5836W        W77562  38.622  42.365   4.627
 5837W        W77563  14.992  29.197   4.729
 5838W        W77564  36.616  20.326   1.226
 5839W        W77565   0.331  38.958   2.994
 5840W        W77566  19.910  31.453   0.845
 5841W        W77567  37.185  44.300   0.821
 5842W        W77568  12.550  37.417   5.003
 5843W        W77569  43.029  13.505   4.537
 5844W        W77570  30.452  41.490   3.181
 5845W        W77571  23.623   7.817   0.745
 5846W        W77572  43.890   3.351   1.683
 5847W        W77573  35.433  22.444  11.981
 5848W        W77574  24.608  15.711   3.243
 5849W        W77575  37.633  12.320  13.100
 5850W        W77576  31.124  21.048   3.693
 5851W        W77577  41.604  20.303  10.978
 5852W        W77578  13.294  42.025   2.218
 5853W        W77579  39.252  38.018   4.653
 5854W        W77580  35.501  37.364   9.946
 5855W        W77581   2.511  14.773  12.897
 5856W        W77582  14.247  35.381   1.216
 5857W        W77583  30.453  24.028  12.358
 5858W        W77584  22.506   5.810  11.502
 5859W        W77585  30.631  20.705  10.698
 5860W        W77586  40.193  12.787   0.327
 5861W        W77587  42.280  34.462  12.479
 5862W        W77588  35.906  12.206   1.407
 5863W        W77589  32.460  41.700   5.315
 5864W        W77590  42.762  24.505  11.644
 5865W        W77591  30.085  28.396   2.818
 5866W        W77592  24.596  26.595  10.551
 5867W        W77593   3.355  10.670   0.309
 5868W        W77594  41.319  35.062   0.413
 5869W        W77595  44.247  21.777  13.569
 5870W        W77596  32.900  22.845  12.523
 5871W        W77597  21.731  33.924   2.259
 5872W        W77598   5.887   9.935   3.365
 5873W        W77599   3.732   7.871  14.867
 5874W        W77600  19.262  30.375   2.357
 5875W        W77601  40.497  15.976  14.867
 5876W        W77602   0.977   3.220  14.053
 5877W        W77603  38.840   9.704  13.475
 5878W        W77604  35.962  19.155  13.390
 5879W        W77605  13.848  37.409   3.413
 5880W        W77606   2.924  37.300  12.996
 5881W        W77607  37.755  17.158  14.050
 5882W        W77608   2.015  26.097   3.643
 5883W        W77609  23.672  40.101  14.265
 5884W        W77610  22.390  44.504  13.965
 5885W        W77611  21.028  28.082   1.364
 5886W        W77612  38.798  14.681  11.873
 5887W        W77613  11.957  41.734   1.914
 5888W        W77614  41.281  38.282  12.951
 5889W        W77615  28.206  37.111   1.813
 5890W        W77616  19.710  43.319   4.339
 5891W        W77617  36.159  13.076  11.243
 5892W        W77618  26.385  36.952   2.825
 5893W        W77619  32.459  18.825  13.948
 5894W        W77620   9.855   5.366   2.949
 5895W        W77621  30.997   5.138   0.773
 5896W        W77622   4.474  33.010  12.641
 5897W        W77623  34.845  28.152  14.782
 5898W        W77624  42.813  39.661   0.454
 5899W        W77625  43.735  26.540  14.925
 5900W        W77626   9.965   3.973  14.251
 5901W        W77627  39.133  11.228   3.246
 5902W        W77628  18.819  18.333  14.378
 5903W        W77629  35.009  36.442   3.311
 5904W        W77630   1.901  31.191   0.851
 5905W        W77631  12.376  16.639  12.499
 5906W        W77632  40.885  17.152  12.920
 5907W        W77633   3.932   6.907   1.233
 5908W        W77634  19.033  21.123   1.683
 5909W        W77635  11.962   0.558   0.868
 5910W        W77636   9.150  16.008   1.893
 5911W        W77637   9.067  35.884   9.803
 5912W        W77638  12.614  33.470  14.828
 5913W        W77639  21.259  39.001  10.588
 5914W        W77640  11.340  21.646  13.375
 5915W        W77641  27.016  40.471  13.568
 5916W        W77642  35.124   1.954  14.778
 5917W        W77643   4.699  27.705  11.593
 5918W        W77644  31.127  23.957   1.474
 5919W        W77645  11.141  16.682   2.068
 5920W        W77646  23.962  19.323   9.902
 5921W        W77647  10.135  40.573   0.688
 5922W        W77648   6.669  23.322  12.916
 5923W        W77649  24.484  19.258  11.700
 5924W        W77650  28.896  38.051  12.476
 5925W        W77651  39.940  43.680  12.849
 5926W        W77652  38.106  19.145   1.963
 5927W        W77653  33.625  29.507  10.717
 5928W        W77654  42.805  22.383  14.765
 5929W        W77655  19.651   9.032   3.129
 5930W        W77656  39.135   4.593   2.805
 5931W        W77657  30.115  24.615   4.153
 5932W        W77658  25.297  42.352   3.665
 5933W        W77659  30.025  13.249  14.898
 5934W        W77660  10.143  44.892   1.823
 5935W        W77661  28.233  41.973   1.329
 5936W        W77662  20.732  42.403   2.909
 5937W        W77663  17.065  19.938  13.464
 5938W        W77664  22.396  36.281   4.511
 5939W        W77665  32.007   4.484  11.681
 5940W        W77666   8.053  22.963  14.405
 5941W        W77667   9.262  30.094   0.951
 5942W        W77668   0.508  10.407   5.116
 5943W        W77669   3.827  15.585   0.693
 5944W        W77670   1.719  27.595  11.922
 5945W        W77671  15.225   3.669   0.856
 5946W        W77672  27.908  33.902   0.283
 5947W        W77673  33.056  44.193   1.722
 5948W        W77674  32.370  26.592  14.461
 5949W        W77675  23.022  36.956  11.234
 5950W        W77676  19.116  25.004   0.705
 5951W        W77677  39.506  12.869  14.535
 5952W        W77678   7.882  14.104   4.280
 5953W        W77679  31.517  28.935   4.660
 5954W        W77680  24.532   4.839  12.021
 5955W        W77681  22.805  39.833   2.259
 5956W        W77682  31.899  22.984   4.627
 5957W        W77683   8.743  44.637   2.793
 5958W        W77684  32.388  43.039   4.487
 5959W        W77685  22.148  18.977   1.768
 5960W        W77686   3.929   7.549   3.843
 5961W        W77687   3.771  34.971   3.785
 5962W        W77688  23.289   1.855   4.449
 5963W        W77689  42.362  33.042   0.000
 5964W        W77690  23.577   5.671  11.721
 5965W        W77691   0.312  22.313   0.875
 5966W        W77692  36.261  44.996  12.818
 5967W        W77693  36.391  32.567  10.649
 5968W        W77694   4.694   1.136   1.822
 5969W        W77695   7.852  31.612  11.093
 5970W        W77696   3.770  30.968  13.694
 5971W        W77697  38.926  13.159   4.939
 5972W        W77698  11.477  30.132   2.454
 5973W        W77699  29.248  35.591   1.663
 5974W        W77700  37.359  36.623  13.052
 5975W        W77701  32.538  13.642  11.319
 5976W        W77702  24.534  20.090  12.093
 5977W        W77703   9.345  26.310   4.727
 5978W        W77704   4.884  39.534  12.486
 5979W        W77705  39.258  32.865   0.354
 5980W        W77706  36.843  40.847  13.914
 5981W        W77707  11.879  20.165  13.004
 5982W        W77708  37.850  42.693  14.399
 5983W        W77709   4.935   4.517  10.672
 5984W        W77710  24.661   2.256  13.882
 5985W        W77711  43.283   8.187  11.574
 5986W        W77712  16.691  27.505  13.075
 5987W        W77713   6.807  29.060   1.807
 5988W        W77714  32.837   1.271  10.484
 5989W        W77715  30.593  34.999   3.109
 5990W        W77716   3.235  43.211  14.580
 5991W        W77717  24.478   0.279   4.203
 5992W        W77718  15.793  37.382  11.570
 5993W        W77719  23.399  15.329   3.222
 5994W        W77720  41.349  29.872   0.542
 5995W        W77721   6.910  24.500  12.591
 5996W        W77722  28.975  20.202  11.585
 5997W        W77723  36.646   0.218   3.428
 5998W        W77724   0.359  27.666  14.811
 5999W        W77725  40.380   0.206   1.426
 6000W        W77726  31.989  31.128   3.929
 6001W        W77727  26.501   3.211   0.453
 6002W        W77728  19.900  43.234  14.758
 6003W        W77729  40.392  14.113  11.550
 6004W        W77730  16.100  14.670  12.314
 6005W        W77731  39.870  14.604   4.089
 6006W        W77732  27.140   2.252   1.779
 6007W        W77733  29.631   2.935  13.474
 6008W        W77734   2.888  10.602  12.999
 6009W        W77735  22.700  12.319  13.596
 6010W        W77736  37.309  26.524   0.739
 6011W        W77737   2.381  13.696  11.858
 6012W        W77738  40.389   5.442   1.798
 6013W        W77739  15.891  31.594  11.234
 6014W        W77740  10.866  38.283  11.088
 6015W        W77741  44.416   2.723   4.943
 6016W        W77742  42.229  38.929   1.885
 6017W        W77743  10.699  31.843   4.136
 6018W        W77744  15.196   7.836  13.620
 6019W        W77745   7.399  34.582   2.208
 6020W        W77746  30.500  18.375   3.298
 6021W        W77747   2.915  26.205  14.826
 6022W        W77748   1.030   0.976   3.621
 6023W        W77749   1.820  34.821   3.698
 6024W        W77750  33.444  17.061   2.138
 6025W        W77751  17.796  42.436   4.868
 6026W        W77752  29.116  26.520   3.681
 6027W        W77753  22.706  14.267  14.855
 6028W        W77754   0.944  15.862   0.048
 6029W        W77755  12.776   1.356  13.959
 6030W        W77756  21.096  38.132  11.510
 6031W        W77757  19.698   6.348  14.790
 6032W        W77758  33.309  40.064   0.806
 6033W        W77759   9.330  27.515  11.670
 6034W        W77760  21.686  41.583  13.525
 6035W        W77761  13.850  16.428   4.589
 6036W        W77762   1.443   5.472  13.041
 6037W        W77763  17.511  27.100   3.719
 6038W        W77764  21.996  32.794   1.466
 6039W        W77765   2.777  26.849  11.460
 6040W        W77766   0.333  34.687  12.836
 6041W        W77767   8.701   2.937   2.513
 6042W        W77768  10.230  18.382   1.826
 6043W        W77769   2.534   7.396   4.443
 6044W        W77770   6.370  31.550   2.780
 6045W        W77771  18.709  18.055  12.064
 6046W        W77772   4.398  27.923   4.858
 6047W        W77773  27.416  21.619   4.034
 6048W        W77774  37.424   6.328  10.707
 6049W        W77775  28.196  43.634   3.319
 6050W        W77776  39.402  37.226   1.080
 6051W        W77777  31.475  39.002   4.219
 6052W        W77778  30.451  27.999  14.259
 6053W        W77779  30.007  33.522   3.262
 6054W        W77780  15.848  32.742  14.759
 6055W        W77781   9.700   2.291   3.831
 6056W        W77782  23.931  29.920  14.730
 6057W        W77783  25.046  30.849   1.495
 6058W        W77784  44.411   6.368   4.123
 6059W        W77785  17.030  22.171   3.389
 6060W        W77786  36.942  41.863   4.332
 6061W        W77787  18.228  28.464   1.250
 6062W        W77788   0.252  20.122   2.764
 6063W        W77789   8.782  36.642   4.201
 6064W        W77790  28.458  36.785   5.073
 6065W        W77791  17.332   0.557   3.927
 6066W        W77792  31.635  12.314  10.656
 6067W        W77793  43.781   1.994   5.097
 6068W        W77794  16.639   1.260   3.753
 6069W        W77795  13.862   7.358  11.242
 6070W        W77796  22.458  41.819   4.567
 6071W        W77797  27.039  30.975  14.377
 6072W        W77798  36.950  25.327  11.394
 6073W        W77799  38.969  18.201   2.510
 6074W        W77800  44.304   2.902  11.657
 6075W        W77801  22.019   8.929  12.484
 6076W        W77802   0.061   8.235  13.489
 6077W        W77803  19.652  32.538   4.196
 6078W        W77804  23.756  25.056  14.762
 6079W        W77805  37.050  11.448   3.150
 6080W        W77806  17.200   3.765   4.387
 6081W        W77807  28.737  27.027   2.042
 6082W        W77808  39.274  21.423  14.820
 6083W        W77809  37.373  18.083  10.755
 6084W        W77810  38.708  33.354  10.565
 6085W        W77811  25.505  10.399  12.895
 6086W        W77812  35.472  21.184  14.212
 6087W        W77813  14.172   5.380  11.213
 6088W        W77814  16.182  40.050   4.902
 6089W        W77815  11.747  30.431   2.101
 6090W        W77816  35.586  14.170  14.919
 6091W        W77817  42.772  17.527  14.936
 6092W        W77818  37.118  30.485  14.877
 6093W        W77819   2.504  20.721   2.945
 6094W        W77820  35.861  14.823  11.589
 6095W        W77821  17.209  31.558  10.636
 6096W        W77822  29.051  38.802   2.250
 6097W        W77823  33.160   3.692  11.621
 6098W        W77824  33.294  14.848   3.577
 6099W        W77825  12.441  37.147   0.263
 6100W        W77826  37.314   5.515   1.770
 6101W        W77827  18.520   9.056   0.412
 6102W        W77828  13.109  34.774   3.806
 6103W        W77829  15.345  13.807  12.007
 6104W        W77830  38.060  43.415  13.433
 6105W        W77831   7.460   0.546  14.910
 6106W        W77832  38.476   3.318   2.978
 6107W        W77833  38.039  23.692  13.031
 6108W        W77834  14.866  22.070   1.992
 6109W        W77835  15.197  23.734  10.740
 6110W        W77836   0.714   3.258   1.422
 6111W        W77837  26.122  33.290  12.137
 6112W        W77838   6.373  15.555  13.495
 6113W        W77839  40.060   9.302   4.260
 6114W        W77840  20.658  25.664  10.705
 6115W        W77841  41.135  15.397   3.738
 6116W        W77842  17.817  39.493   2.302
 6117W        W77843  17.955  40.047  12.431
 6118W        W77844   5.261  33.300  13.445
 6119W        W77845  42.913   0.579   1.048
 6120W        W77846   6.379   9.961   2.733
 6121W        W77847   8.782  37.972   3.811
 6122W        W77848   4.885   6.348  11.035
 6123W        W77849  20.957   5.658  12.960
 6124W        W77850  29.398  26.656  12.934
 6125W        W77851  26.860  17.391  11.470
 6126W        W77852  30.358  33.934  14.589
 6127W        W77853  12.831  33.056   4.707
 6128W        W77854  37.962  20.705   3.292
 6129W        W77855  18.404   6.304  11.976
 6130W        W77856  10.689  27.004   3.921
 6131W        W77857  44.686  39.477  12.386
 6132W        W77858  37.033  18.139   2.382
 6133W        W77859  41.995   4.885  13.927
 6134W        W77860   6.708   3.315   1.036
 6135W        W77861  38.039  37.314   4.153
 6136W        W77862  36.066   6.144  14.478
 6137W        W77863  33.239  35.037  14.022
 6138W        W77864  34.882   3.344   4.017
 6139W        W77865  38.294  11.642  11.248
 6140W        W77866  40.053   9.909   0.911
 6141W        W77867  23.034  23.666  13.032
 6142W        W77868  19.115  44.181  12.017
 6143W        W77869  30.158  20.554   1.694
 6144W        W77870   0.534  19.278  14.269
 6145W        W77871  13.626  29.175  14.332
 6146W        W77872  32.127  36.893   4.506
 6147W        W77873  29.089  37.837   0.865
 6148W        W77874   0.129  25.513   4.287
 6149W        W77875  30.500   5.946  12.982
 6150W        W77876  16.545   5.007  11.202
 6151W        W77877  29.199   9.145   3.074
 6152W        W77878  20.752  19.827   1.831
 6153W        W77879  17.636  25.735  11.093
 6154W        W77880  22.031  38.326  11.830
 6155W        W77881  25.206  22.979   1.654
 6156W        W77882  36.063   0.183  11.118
 6157W        W77883  41.889  27.897   0.791
 6158W        W77884  33.692  39.956   2.292
 6159W        W77885   4.682  19.075  11.101
 6160W        W77886  29.133  43.407   4.136
 6161W        W77887  39.370  44.741  14.511
 6162W        W77888  18.042  26.137   1.898
 6163W        W77889  21.333  30.737  10.297
 6164W        W77890  29.447  23.663  14.319
 6165W        W77891  43.997   6.610   1.250
 6166W        W77892  41.954   1.783   1.677
 6167W        W77893  22.109  23.020   3.843
 6168W        W77894   9.814  14.392  11.542
 6169W        W77895  16.389  40.595   2.639
 6170W        W77896  12.958  27.962  11.197
 6171W        W77897  43.440   5.437  14.804
 6172W        W77898  14.130  13.707   2.345
 6173W        W77899  42.805   2.882  12.367
 6174W        W77900  44.566   1.601  11.163
 6175W        W77901  10.751  13.002   4.545
 6176W        W77902  12.889  11.730  13.623
 6177W        W77903  15.792  30.489   1.320
 6178W        W77904  11.664   7.695  11.478
 6179W        W77905  14.620  40.838   0.049
 6180W        W77906  25.037  27.677   1.575
 6181W        W77907  38.845  25.401   4.658
 6182W        W77908  11.124   5.107  12.359
 6183W        W77909  38.050  30.438   4.559
 6184W        W77910  33.629  26.760  12.933
 6185W        W77911  23.802  27.254  14.819
 6186W        W77912  28.427  11.704   0.385
 6187W        W77913  25.551  28.055   4.889
 6188W        W77914  25.945  40.908  12.381
 6189W        W77915  24.331   2.536  10.689
 6190W        W77916  16.086  14.695  12.834
 6191W        W77917  18.658   3.265  11.561
 6192W        W77918   9.735  21.630  12.801
 6193W        W77919  26.935   9.270   0.981
 6194W        W77920  31.609  10.621  13.196
 6195W        W77921   5.407   9.146   2.804
 6196W        W77922   6.318  28.681   3.601
 6197W        W77923  21.025   3.246  11.857
 6198W        W77924  14.073  17.683  13.440
 6199W        W77925  43.627  33.330   3.198
 6200W        W77926  11.644   9.991   2.913
 6201W        W77927  12.640  41.899   4.154
 6202W        W77928  33.209   6.685   1.002
 6203W        W77929  39.266  44.514   3.230
 6204W        W77930   2.378  18.123   4.228
 6205W        W77931  36.619  18.205   0.769
 6206W        W77932  31.616  19.768  14.558
 6207W        W77933   2.918  41.012   4.346
 6208W        W77934  32.858  16.332  10.539
 6209W        W77935  13.783  12.169  14.306
 6210W        W77936  17.684  25.363   5.228
 6211W        W77937  42.855  44.012  11.662
 6212W        W77938   1.860  40.915   1.383
 6213W        W77939   4.243  29.014   4.034
 6214W        W77940  11.630  41.406   4.262
 6215W        W77941  18.045  42.448  13.566
 6216W        W77942  43.543  41.535  11.519
 6217W        W77943  20.196  14.110   4.766
 6218W        W77944  12.586  27.582  11.259
 6219W        W77945  16.781  20.120   4.748
 6220W        W77946   6.587  16.301  12.028
 6221W        W77947   7.691  35.947   4.606
 6222W        W77948  42.634  37.107   5.106
 6223W        W77949  22.065  32.914  12.054
 6224W        W77950  15.279   2.361   4.454
 6225W        W77951  13.609  35.408  10.797
 6226W        W77952  16.672   2.875  11.715
 6227W        W77953   3.959  34.991   0.685
 6228W        W77954   5.968  29.989   2.293
 6229W        W77955  30.983  36.952   0.426
 6230W        W77956  39.267  24.580  13.904
 6231W        W77957  38.807   7.838   4.218
 6232W        W77958  13.732  24.688  14.415
 6233W        W77959  12.577  23.592  12.043
 6234W        W77960   7.297  32.622   4.595
 6235W        W77961   5.605  30.402  13.289
 6236W        W77962  24.622  36.873  11.083
 6237W        W77963   5.216  32.792  13.462
 6238W        W77964  23.771  17.109   3.292
 6239W        W77965  16.379   4.392   1.157
 6240W        W77966   9.597  34.604   0.869
 6241W        W77967   8.967  21.055   4.596
 6242W        W77968  33.515  22.593  13.578
 6243W        W77969  33.134   6.284  10.977
 6244W        W77970   0.876  14.904   4.136
 6245W        W77971  33.503  13.182  12.114
 6246W        W77972  33.817  31.976  11.194
 6247W        W77973  18.192  30.343  13.500
 6248W        W77974  19.601   3.391   2.981
 6249W        W77975  20.188  33.064  10.704
 6250W        W77976  27.682  32.821  13.203
 6251W        W77977   6.273  26.859  13.918
 6252W        W77978  24.548  24.501  10.742
 6253W        W77979  32.676  43.518  12.552
 6254W        W77980  38.135  22.643  14.958
 6255W        W77981  20.195  29.663  14.337
 6256W        W77982  15.507  22.475   4.551
 6257W        W77983  41.428   1.695   3.529
 6258W        W77984  34.849  18.729   0.659
 6259W        W77985  17.223  38.511  10.216
 6260W        W77986  32.149  34.035   1.864
 6261W        W77987   8.181  36.900  10.948
 6262W        W77988   9.769   3.856   1.266
 6263W        W77989  35.172  26.677   3.707
 6264W        W77990  34.157  23.280   3.210
 6265W        W77991  12.961  40.832  13.962
 6266W        W77992  34.883  34.462   4.629
 6267W        W77993   1.494   8.308  11.388
 6268W        W77994  26.880  36.891   2.671
 6269W        W77995  26.703  35.574   1.888
 6270W        W77996  22.517  35.281  12.527
 6271W        W77997  25.321   0.454  10.201
 6272W        W77998   4.675  13.788   3.733
 6273W        W77999  31.375  17.007   1.866
 6274W        W78000   4.117  43.448   1.001
 6275W        W78001  28.664   6.896  10.611
 6276W        W78002  33.537  38.504   0.685
 6277W        W78003  41.551  36.658  13.533
 6278W        W78004   9.336  38.584   2.383
 6279W        W78005  40.269   2.751  12.931
 6280W        W78006   1.315  33.516  13.615
 6281W        W78007   9.468  11.920  13.436
 6282W        W78008  43.060  43.158   3.205
 6283W        W78009  22.236   8.726   2.930
 6284W        W78010  28.212  14.825  13.961
 6285W        W78011  20.274  44.460  13.988
 6286W        W78012   5.735  33.575   1.899
 6287W        W78013   0.348  13.503  11.441
 6288W        W78014  42.834   4.037   2.371
 6289W        W78015   9.873  36.498  12.106
 6290W        W78016  41.184  31.021   2.365
 6291W        W78017  28.242  14.297   2.293
 6292W        W78018   7.670  20.738  13.534
 6293W        W78019  22.618  18.750   1.771
 6294W        W78020  38.502  20.358   1.260
 6295W        W78021  23.207  14.217   4.156
 6296W        W78022  30.040   3.542   0.715
 6297W        W78023   6.383  11.160  13.304
 6298W        W78024   9.323  32.831  12.924
 6299W        W78025  11.747  30.181  11.884
 6300W        W78026   3.862  15.786   3.661
 6301W        W78027   4.639   0.631   1.812
 6302W        W78028  31.881  19.128  13.403
 6303W        W78029  24.349   5.636  11.267
 6304W        W78030  30.534   0.002   1.475
 6305W        W78031  17.019  42.011  10.680
 6306W        W78032  31.688  42.806   5.021
 6307W        W78033  16.091  12.109   4.579
 6308W        W78034   9.356   3.760  10.869
 6309W        W78035  43.563  27.728  11.029
 6310W        W78036  24.607  40.438   2.318
 6311W        W78037  37.004   9.361  13.444
 6312W        W78038   9.814  34.572  10.176
 6313W        W78039  32.334  25.747   1.992
 6314W        W78040   1.761  29.530  13.406
 6315W        W78041  32.427  23.234   5.073
 6316W        W78042   8.105  20.181   0.462
 6317W        W78043  29.524   4.242  12.078
 6318W        W78044  11.702  31.086  13.420
 6319W        W78045  38.759  11.872  11.386
 6320W        W78046  17.196   9.263  11.179
 6321W        W78047  26.517  43.698   2.257
 6322W        W78048  10.773   2.198  14.058
 6323W        W78049  21.773  16.284   1.934
 6324W        W78050  24.559   1.805  13.482
 6325W        W78051  35.540   5.374   4.908
 6326W        W78052   6.400  39.188  12.565
 6327W        W78053  22.579  40.556   2.151
 6328W        W78054  24.245   5.290   2.332
 6329W        W78055   9.108  12.593   0.409
 6330W        W78056  43.909  14.679  13.160
 6331W        W78057  27.051  44.484  13.165
 6332W        W78058  12.138  12.684   3.098
 6333W        W78059  30.282  27.133   3.258
 6334W        W78060  38.962  39.015  14.990
 6335W        W78061  40.156  26.360   5.075
 6336W        W78062  18.822   6.818  11.567
 6337W        W78063  16.055  34.495   0.668
 6338W        W78064  42.913  42.725  12.619
 6339W        W78065   6.177  11.657   1.908
 6340W        W78066  37.919  31.046   4.930
 6341W        W78067  30.119   2.876   4.733
 6342W        W78068   1.841  21.211   5.067
 6343W        W78069  28.941  35.959  11.077
 6344W        W78070  17.428  21.028  14.906
 6345W        W78071   5.288  22.589   0.270
 6346W        W78072  20.212  40.766   1.870
 6347W        W78073  28.976  31.188  12.423
 6348W        W78074   9.130  28.181   3.280
 6349W        W78075  27.746   9.152   2.213
 6350W        W78076  30.707  44.226   1.962
 6351W        W78077  38.027  40.141   4.331
 6352W        W78078   1.212   4.856   4.047
 6353W        W78079  37.153  38.477  10.487
 6354W        W78080   0.338   2.098  12.334
 6355W        W78081  17.200  38.936   2.930
 6356W        W78082  30.952   6.647  13.927
 6357W        W78083  36.012  36.653  11.204
 6358W        W78084   3.688  20.586   4.730
 6359W        W78085  35.472  43.722   0.448
 6360W        W78086  11.903  14.770  11.194
 6361W        W78087   6.384  21.020  14.003
 6362W        W78088   8.698  42.608   1.837
 6363W        W78089  42.827  18.724  12.961
 6364W        W78090  35.520  38.901   0.494
 6365W        W78091  42.788  34.317   0.775
 6366W        W78092  31.498  12.955  13.027
 6367W        W78093  28.017  31.904  14.536
 6368W        W78094  15.680  35.688  12.955
 6369W        W78095  10.803  43.181  11.117
 6370W        W78096   9.837  34.147   0.900
 6371W        W78097  12.223  38.005  14.963
 6372W        W78098  31.348  42.955   1.317
 6373W        W78099  33.721   7.345   5.082
 6374W        W78100  24.549  29.500   1.838
 6375W        W78101  42.823   7.209   4.528
 6376W        W78102  40.517  29.064   1.264
 6377W        W78103  13.048  32.419   3.424
 6378W        W78104  43.537   5.394  11.930
 6379W        W78105  33.555  41.144   2.819
 6380W        W78106   0.193  20.791   3.834
 6381W        W78107  21.930  33.198  11.118
 6382W        W78108  29.094  38.275   2.292
 6383W        W78109  38.991  20.515   2.765
 6384W        W78110   2.998  18.624   2.630
 6385W        W78111  35.732  18.272   2.307
 6386W        W78112   0.295  37.438   3.849
 6387W        W78113  27.385  26.669  10.997
 6388W        W78114   8.710  20.697   1.440
 6389W        W78115  10.093   0.801   3.312
 6390W        W78116   3.116  41.402   3.353
 6391W        W78117   5.387  35.559  12.007
 6392W        W78118  37.310  29.843   0.817
 6393W        W78119  33.965  14.326  12.043
 6394W        W78120  23.236  11.097  11.205
 6395W        W78121  30.888  43.408   1.052
 6396W        W78122   1.412  37.914   0.335
 6397W        W78123  11.384  30.105  14.013
 6398W        W78124  23.965  35.853  12.537
 6399W        W78125  17.613  28.635  13.586
 6400W        W78126  21.330  24.506   3.842
 6401W        W78127  32.699  41.590   0.905
 6402W        W78128   8.984  15.432   0.445
 6403W        W78129  23.743  29.350   0.021
 6404W        W78130  33.599  26.156   3.205
 6405W        W78131  30.081  33.601  13.599
 6406W        W78132   1.840   7.128  12.529
 6407W        W78133  25.700  42.776   0.703
 6408W        W78134  17.168  31.048  12.515
 6409W        W78135  41.188   6.172   3.772
 6410W        W78136   6.711  41.281   3.850
 6411W        W78137  21.656   5.957  14.367
 6412W        W78138  11.085  20.164  10.680
 6413W        W78139  17.580  29.594  13.277
 6414W        W78140  24.430  32.729  14.070
 6415W        W78141  14.157  28.430  11.576
 6416W        W78142   5.412  34.309   0.901
 6417W        W78143   5.925   5.447  10.833
 6418W        W78144  22.094  33.518  11.870
 6419W        W78145  22.479  12.218   2.745
 6420W        W78146  31.634  22.002  13.819
 6421W        W78147  31.388  30.577   1.473
 6422W        W78148  12.848  21.225  14.224
 6423W        W78149  23.121  31.823   2.647
 6424W        W78150  14.248  41.938   1.484
 6425W        W78151  19.542  15.124  12.115
 6426W        W78152  38.568  43.477  13.523
 6427W        W78153  33.459  17.121  11.129
 6428W        W78154  36.705   5.295  14.082
 6429W        W78155  21.178  19.785   2.174
 6430W        W78156  38.833  23.775   0.906
 6431W        W78157  18.220  23.676   0.097
 6432W        W78158   2.148  18.608   5.184
 6433W        W78159  43.939   3.242  10.503
 6434W        W78160  13.745  18.313  11.953
 6435W        W78161   0.455  28.925   1.639
 6436W        W78162  25.333   5.840  11.540
 6437W        W78163  26.009  41.061  11.464
 6438W        W78164  39.929  10.688   3.207
 6439W        W78165  28.906  37.839   1.769
 6440W        W78166  24.729   5.807  10.955
 6441W        W78167   8.648  34.293  13.425
 6442W        W78168  43.421  30.456   2.383
 6443W        W78169  10.627   2.944   4.906
 6444W        W78170  34.981  16.777  12.059
 6445W        W78171  16.025   5.207   0.935
 6446W        W78172  18.217   6.803   4.372
 6447W        W78173   2.300   3.405  12.442
 6448W        W78174  35.422  40.727  11.968
 6449W        W78175  31.104   4.278   4.553
 6450W        W78176   1.398  16.156   4.320
 6451W        W78177  41.087  14.829   2.766
 6452W        W78178  28.924  24.528  13.070
 6453W        W78179  28.625  34.625   0.819
 6454W        W78180  33.446  14.629   1.466
 6455W        W78181  42.928  37.496   3.347
 6456W        W78182  31.348  36.407   3.094
 6457W        W78183  29.423   2.640  13.108
 6458W        W78184  11.787  27.657  14.642
 6459W        W78185  10.297  33.051   2.162
 6460W        W78186  43.990  33.346  12.493
 6461W        W78187  37.419   7.650   0.333
 6462W        W78188  30.141  10.181   1.372
 6463W        W78189  20.040  33.601  11.118
 6464W        W78190   3.819  14.835  12.816
 6465W        W78191  38.984  19.688  11.055
 6466W        W78192  41.591   0.344  10.472
 6467W        W78193  16.410  35.540  11.528
 6468W        W78194   4.708  44.836  11.297
 6469W        W78195  20.878  43.010   4.772
 6470W        W78196   2.447  44.771   1.970
 6471W        W78197   9.625  34.041  11.049
 6472W        W78198  34.843  24.923  12.785
 6473W        W78199   1.141   3.164  13.565
 6474W        W78200  28.671  30.924   2.200
 6475W        W78201  35.107  11.769   4.608
 6476W        W78202  39.569  16.022   3.876
 6477W        W78203  42.094   4.376  14.045
 6478W        W78204  20.007  25.761   1.237
 6479W        W78205  15.909   8.804   4.169
 6480W        W78206   5.841  13.364   5.335
 6481W        W78207  34.535   7.012  12.904
 6482W        W78208  13.265  39.711  11.522
 6483W        W78209   3.469  38.131  12.100
 6484W        W78210  23.139  43.404  12.701
 6485W        W78211  32.360  24.226  12.270
 6486W        W78212  29.051  21.160  11.527
 6487W        W78213  19.176  23.153  11.333
 6488W        W78214  42.359  20.588  10.737
 6489W        W78215   5.321  42.231  14.967
 6490W        W78216   5.635  36.881  12.586
 6491W        W78217  40.514  21.676   4.383
 6492W        W78218  19.126  18.130   1.474
 6493W        W78219  32.600  23.098   3.183
 6494W        W78220  36.888   7.131   4.640
 6495W        W78221  23.178  44.145   2.817
 6496W        W78222  16.362  26.406   3.609
 6497W        W78223   4.081   5.291   3.968
 6498W        W78224  36.988  33.161   4.036
 6499W        W78225  22.061  22.482  13.847
 6500W        W78226   1.132  18.143   9.978
 6501W        W78227  44.241  34.472  14.369
 6502W        W78228  36.439  44.394   4.494
 6503W        W78229  38.068  41.615  12.969
 6504W        W78230  13.844  20.554   1.461
 6505W        W78231  31.574   3.234   1.779
 6506W        W78232   5.429  11.636  12.445
 6507W        W78233   4.355  37.439   5.182
 6508W        W78234  38.790  21.275   5.069
 6509W        W78235  17.009   4.265  14.073
 6510W        W78236  10.126   8.915   3.577
 6511W        W78237  21.004  34.430  14.808
 6512W        W78238   6.166  25.434  14.969
 6513W        W78239   3.855  13.463  10.440
 6514W        W78240  19.534  12.246   4.662
 6515W        W78241  16.357  17.697   4.325
 6516W        W78242  27.331  39.544  14.184
 6517W        W78243  31.397  22.384   1.079
 6518W        W78244  40.898   0.805   0.213
 6519W        W78245  18.059   5.774   4.534
 6520W        W78246  10.835   6.273  14.923
 6521W        W78247  26.477  24.859   4.424
 6522W        W78248  42.851  39.557   1.604
 6523W        W78249   9.356  11.547   4.611
 6524W        W78250   2.531  38.963  14.098
 6525W        W78251  25.496  15.098  13.834
 6526W        W78252  22.276  26.879  13.053
 6527W        W78253  13.324  11.317  14.402
 6528W        W78254   6.798   5.851   0.065
 6529W        W78255  20.103  34.382  11.689
 6530W        W78256  37.985   0.505   4.599
 6531W        W78257  13.782  33.650   2.835
 6532W        W78258  24.534  27.488   1.436
 6533W        W78259  15.835  20.127   1.340
 6534W        W78260   4.552   4.359  11.016
 6535W        W78261  26.674  37.482   3.224
 6536W        W78262   6.005  19.201   2.306
 6537W        W78263  41.580  36.442   1.277
 6538W        W78264  23.401  14.722   4.175
 6539W        W78265   8.822  14.007  11.558
 6540W        W78266  44.864  42.919   1.330
 6541W        W78267  16.348  21.625  13.547
 6542W        W78268  10.238  21.828  10.914
 6543W        W78269   8.188   8.805  12.463
 6544W        W78270  36.055  22.026   3.437
 6545W        W78271  32.781  27.400  13.499
 6546W        W78272  12.651  41.354   0.820
 6547W        W78273  18.291   2.121   2.405
 6548W        W78274  44.741  18.051  10.369
 6549W        W78275  26.593  37.864   2.811
 6550W        W78276  14.166  44.434   1.542
 6551W        W78277   5.641   1.396  12.235
 6552W        W78278  12.603  15.070   2.309
 6553W        W78279  43.684  44.068  10.721
 6554W        W78280   9.916   0.740  12.030
 6555W        W78281  42.304  40.072  12.667
 6556W        W78282   7.738  44.822   1.210
 6557W        W78283   8.284  15.253   4.664
 6558W        W78284  14.845  36.911   3.375
 6559W        W78285  39.979  39.341   1.644
 6560W        W78286  12.843  40.016  13.997
 6561W        W78287  42.055  16.572  12.009
 6562W        W78288  37.343  22.691  11.569
 6563W        W78289   5.245  19.946  12.093
 6564W        W78290  41.555  19.151  10.736
 6565W        W78291  36.393  23.728   0.815
 6566W        W78292  36.510  19.273   2.723
 6567W        W78293  35.431  21.809  11.147
 6568W        W78294   9.426  39.373   1.868
 6569W        W78295  15.212  19.055   1.078
 6570W        W78296  38.759   2.047   3.188
 6571W        W78297  44.899   1.260   2.255
 6572W        W78298  15.500   2.212  12.014
 6573W        W78299  10.264  38.735   1.279
 6574W        W78300  22.369  20.094  14.816
 6575W        W78301   0.481  25.972   1.317
 6576W        W78302  25.066  41.737   1.487
 6577W        W78303  19.493  13.428  14.653
 6578W        W78304  21.499   2.404  11.049
 6579W        W78305  21.462  24.157   3.237
 6580W        W78306  29.690   6.344   4.591
 6581W        W78307  21.083  12.703  14.239
 6582W        W78308   0.863  40.490  12.936
 6583W        W78309  32.709  20.967   1.362
 6584W        W78310  11.352  42.502   4.613
 6585W        W78311  11.827  33.365   0.477
 6586W        W78312   9.924   9.992   1.457
 6587W        W78313   1.332  19.200   1.725
 6588W        W78314  35.496  26.697  13.316
 6589W        W78315  17.698  36.381   1.946
 6590W        W78316  22.514  32.777  13.011
 6591W        W78317  42.603  38.045  12.646
 6592W        W78318   3.231   1.046  10.793
 6593W        W78319   8.764  28.221  13.848
 6594W        W78320  31.904   6.916  11.449
 6595W        W78321  42.008  37.507   1.955
 6596W        W78322  36.029  20.153   4.192
 6597W        W78323  20.707  20.415   1.005
 6598W        W78324  12.930  16.184   2.623
 6599W        W78325  39.384  20.969   0.887
 6600W        W78326  38.326  32.669  12.947
 6601W        W78327   9.764  14.106  11.975
 6602W        W78328  43.936   3.629  14.804
 6603W        W78329   6.422  25.009   3.271
 6604W        W78330  11.118  39.085   4.589
 6605W        W78331   3.396  42.657   1.317
 6606W        W78332  31.084  24.445   2.715
 6607W        W78333  44.468  15.424  11.179
 6608W        W78334   6.341  42.793   1.683
 6609W        W78335  44.891  17.749   2.750
 6610W        W78336  18.330  14.208   1.057
 6611W        W78337  37.487  10.306  14.141
 6612W        W78338  40.714  27.510   1.972
 6613W        W78339  40.049  39.126   0.832
 6614W        W78340  31.025  22.455  14.796
 6615W        W78341  23.130  40.503  13.026
 6616W        W78342  11.170   8.149  12.042
 6617W        W78343  28.446  43.132  10.053
 6618W        W78344  26.508  40.322   3.597
 6619W        W78345  31.116  44.461  14.652
 6620W        W78346  41.799  42.852   3.099
 6621W        W78347  31.542  28.080   4.624
 6622W        W78348  36.403   9.506  12.176
 6623W        W78349  33.403  21.238   2.159
 6624W        W78350  19.981   3.838  13.491
 6625W        W78351  33.437  25.556  13.407
 6626W        W78352   8.266  13.837   1.950
 6627W        W78353   6.872   7.842  13.532
 6628W        W78354  11.238  23.775  11.981
 6629W        W78355   5.839  21.454   0.479
 6630W        W78356  17.067   5.173  13.863
 6631W        W78357  31.942  21.560   4.907
 6632W        W78358  24.524  23.621   4.522
 6633W        W78359  33.653  28.106   1.233
 6634W        W78360  20.441   1.923  12.110
 6635W        W78361  44.912  36.077   2.294
 6636W        W78362   4.931  27.589  12.507
 6637W        W78363  19.003  36.423   3.366
 6638W        W78364   9.344  14.369   2.170
 6639W        W78365  13.191  35.472  11.148
 6640W        W78366   9.145  25.113   0.772
 6641W        W78367  15.290  24.438  10.930
 6642W        W78368  28.291   8.212   3.669
 6643W        W78369   0.700  27.003   2.401
 6644W        W78370  44.953  17.164  12.655
 6645W        W78371  24.233  16.766  11.374
 6646W        W78372  10.872  13.614  11.186
 6647W        W78373  18.285  18.740  12.642
 6648W        W78374  35.403   4.724  12.428
 6649W        W78375  43.439  32.012  11.842
 6650W        W78376  43.777  39.897   3.577
 6651W        W78377  15.015  37.566   1.655
 6652W        W78378  22.710  23.460   1.181
 6653W        W78379  27.006  16.207  12.582
 6654W        W78380  18.253  21.055   1.240
 6655W        W78381  14.662  23.007  10.998
 6656W        W78382  42.521   7.495   2.701
 6657W        W78383  27.079  38.044   1.664
 6658W        W78384  43.318  24.148   1.385
 6659W        W78385  16.289  41.424   2.478
 6660W        W78386   2.786  41.020  12.986
 6661W        W78387  29.049  17.448  12.382
 6662W        W78388   0.541   5.852  13.967
 6663W        W78389   9.135  17.165   1.647
 6664W        W78390   5.261  27.441  12.143
 6665W        W78391  39.997  39.920   0.411
 6666W        W78392   4.726  29.990   2.628
 6667W        W78393  26.463  32.957  13.372
 6668W        W78394  26.968  16.368  13.106
 6669W        W78395  11.151  43.393  13.416
 6670W        W78396  38.895  34.902   3.181
 6671W        W78397  30.006   2.715   0.370
 6672W        W78398  18.674  26.615   0.204
 6673W        W78399   8.168   8.760  13.142
 6674W        W78400   9.828  18.671   2.297
 6675W        W78401  24.699  22.771   1.440
 6676W        W78402  39.271   0.135   4.853
 6677W        W78403   0.417  18.231   2.557
 6678W        W78404   3.846  20.960   3.431
 6679W        W78405  20.050  30.657   1.212
 6680W        W78406  17.682  34.377   0.814
 6681W        W78407  43.523  44.345   3.702
 6682W        W78408  31.078  25.745  13.369
 6683W        W78409  32.552  32.288   5.047
 6684W        W78410  12.870  21.961   1.338
 6685W        W78411  24.727  19.800   1.912
 6686W        W78412  21.482  22.490   1.389
 6687W        W78413  10.361   5.461  12.920
 6688W        W78414  37.375  34.311  14.013
 6689W        W78415  35.302  13.367   2.855
 6690W        W78416   4.246  31.409   4.611
 6691W        W78417  12.651  41.015   1.430
 6692W        W78418   7.527   2.343   4.036
 6693W        W78419  27.384  37.409  11.901
 6694W        W78420  37.883   3.815  14.891
 6695W        W78421  14.180   5.370  12.178
 6696W        W78422  39.887  43.231   2.426
 6697W        W78423  13.059  27.708  11.621
 6698W        W78424  12.633  12.707  13.111
 6699W        W78425  39.255  10.415  13.543
 6700W        W78426  18.660  18.482  12.942
 6701W        W78427  34.535  15.216  11.723
 6702W        W78428  38.516  43.471   3.827
 6703W        W78429  16.846   5.187  11.603
 6704W        W78430  20.211  15.200   4.694
 6705W        W78431  40.076   4.872  13.447
 6706W        W78432  33.970  24.407  11.263
 6707W        W78433   8.261  40.361  14.674
 6708W        W78434  11.332   9.574  13.246
 6709W        W78435   6.501  25.885   1.693
 6710W        W78436  30.131   7.482   2.164
 6711W        W78437  37.030  28.700   1.282
 6712W        W78438  28.179  10.694  14.854
 6713W        W78439  34.077  22.507   3.771
 6714W        W78440  32.838   4.448  14.894
 6715W        W78441  10.648  21.279   1.320
 6716W        W78442   2.764  12.277  12.141
 6717W        W78443  22.212   6.331   3.290
 6718W        W78444  12.492  43.283   3.844
 6719W        W78445  35.316   2.031   3.242
 6720W        W78446   8.837  30.990  11.702
 6721W        W78447  43.540   8.190   0.824
 6722W        W78448  36.351  21.440  14.215
 6723W        W78449   4.010   6.295  12.402
 6724W        W78450   3.915  40.857  10.666
 6725W        W78451  19.430  10.109  12.782
 6726W        W78452   7.266   3.629  14.798
 6727W        W78453  19.125  31.060  11.717
 6728W        W78454  23.618  43.004   3.862
 6729W        W78455  33.829  34.166   3.273
 6730W        W78456   7.164  41.502   3.770
 6731W        W78457  38.816   8.431  10.237
 6732W        W78458  18.658  39.284   1.877
 6733W        W78459  28.264  43.090  13.942
 6734W        W78460   5.127  17.992  13.547
 6735W        W78461  37.918  39.100  12.464
 6736W        W78462   6.193  33.675  12.110
 6737W        W78463  14.251  18.774  14.431
 6738W        W78464   8.131  34.110  11.236
 6739W        W78465  32.498   0.310  14.491
 6740W        W78466  44.455   4.971   5.044
 6741W        W78467   3.754   1.468  14.399
 6742W        W78468   7.897  35.479  10.732
 6743W        W78469  20.468   4.867   0.732
 6744W        W78470   0.091  23.684  13.874
 6745W        W78471  25.788  30.539  11.526
 6746W        W78472   7.194  23.293   3.178
 6747W        W78473  31.100  44.271   3.319
 6748W        W78474  40.232  25.769   0.817
 6749W        W78475  42.850  20.125   3.071
 6750W        W78476  13.638  42.473  14.765
 6751W        W78477   3.804  19.714  10.808
 6752W        W78478   1.969  13.332  11.967
 6753W        W78479  42.142  16.313   4.228
 6754W        W78480  18.097  24.381  13.322
 6755W        W78481  13.925  44.739   0.200
 6756W        W78482  19.545  38.794  13.757
 6757W        W78483   1.923  32.594   0.978
 6758W        W78484   0.755  43.436   3.959
 6759W        W78485  30.256  41.451   1.777
 6760W        W78486   7.709  17.735  14.376
 6761W        W78487  36.664   7.887   1.228
 6762W        W78488   1.500  43.470  12.389
 6763W        W78489  30.006  13.774   1.299
 6764W        W78490   7.112   2.329  11.955
 6765W        W78491  32.427  43.234  12.892
 6766W        W78492  38.026  35.655  12.645
 6767W        W78493  31.067  12.597   4.702
 6768W        W78494   3.047  23.144  12.097
 6769W        W78495  43.717  25.979   0.902
 6770W        W78496  12.610  22.557  12.780
 6771W        W78497   9.153  39.848   2.816
 6772W        W78498  26.376   5.454   2.686
 6773W        W78499  34.226  26.526   1.928
 6774W        W78500  11.530  35.559   0.445
 6775W        W78501  14.516   3.398  12.372
 6776W        W78502  17.601  22.863   0.300
 6777W        W78503  19.607  22.532   4.063
 6778W        W78504   6.341  40.799   4.794
 6779W        W78505  12.250  33.398   3.658
 6780W        W78506  11.370  35.037   2.647
 6781W        W78507  18.759  24.004   2.924
 6782W        W78508  18.718  12.856   2.209
 6783W        W78509  44.972  41.359   3.276
 6784W        W78510  36.135  42.081   0.795
 6785W        W78511  36.569  30.082   1.716
 6786W        W78512  19.374  11.052   3.727
 6787W        W78513   7.296  36.489   2.583
 6788W        W78514  34.585  39.522   0.785
 6789W        W78515  19.124  31.941   3.164
 6790W        W78516  18.776  17.145   2.867
 6791W        W78517  11.437  37.767   3.365
 6792W        W78518  31.477  20.716   1.447
 6793W        W78519  13.177  26.673   4.559
 6794W        W78520  36.545  10.477  14.059
 6795W        W78521   5.339  14.559  10.204
 6796W        W78522  18.232  20.544   1.351
 6797W        W78523  44.565  33.018  11.908
 6798W        W78524   5.445   9.921  12.676
 6799W        W78525  21.233  40.334  13.784
 6800W        W78526  31.519  19.474   0.022
 6801W        W78527  25.022  25.179  11.103
 6802W        W78528   6.645  21.090   0.312
 6803W        W78529  35.381  13.156  12.573
 6804W        W78530   1.467  44.505  13.928
 6805W        W78531  17.669  40.456  10.072
 6806W        W78532  28.852  11.797  10.763
 6807W        W78533  19.183  36.321  12.413
 6808W        W78534  29.456  29.862   3.448
 6809W        W78535  25.153  25.680   4.545
 6810W        W78536  39.470  30.683  12.918
 6811W        W78537  20.037  24.643  14.463
 6812W        W78538  41.402  14.916  12.385
 6813W        W78539  15.308  10.213   0.872
 6814W        W78540  14.536  13.841   0.941
 6815W        W78541  25.520  30.355  11.131
 6816W        W78542   7.589  44.248  11.236
 6817W        W78543   1.303  26.119   0.253
 6818W        W78544  28.957  38.515  11.549
 6819W        W78545  16.244  32.034  10.703
 6820W        W78546  43.196  22.352  12.999
 6821W        W78547  40.961  14.255   0.870
 6822W        W78548  12.680   5.189  14.937
 6823W        W78549  22.035  28.865   0.827
 6824W        W78550   4.498  11.290  11.138
 6825W        W78551   9.860  10.258   3.680
 6826W        W78552  22.342   6.904  14.315
 6827W        W78553  38.800  33.637   2.234
 6828W        W78554  42.980  41.973   1.372
 6829W        W78555  24.696  25.253  12.128
 6830W        W78556   7.617   9.811  13.818
 6831W        W78557   9.475  15.970   2.406
 6832W        W78558  33.778  43.741   0.892
 6833W        W78559  15.768   7.756   4.266
 6834W        W78560  26.714  23.674  10.385
 6835W        W78561  34.740  36.477  11.208
 6836W        W78562  29.303  12.642   1.326
 6837W        W78563   1.346  31.990  14.345
 6838W        W78564  23.996  17.271   0.964
 6839W        W78565  42.976  25.062  10.464
 6840W        W78566  41.801  11.390  11.463
 6841W        W78567   7.164  28.000  14.902
 6842W        W78568  14.575  25.019   0.812
 6843W        W78569  39.241  28.903   1.676
 6844W        W78570   8.453  13.895   3.854
 6845W        W78571  35.741  19.735   0.157
 6846W        W78572  14.502  22.742   3.687
 6847W        W78573  43.436  33.037  13.202
 6848W        W78574  24.745  18.475   1.111
 6849W        W78575  11.964  27.144   4.236
 6850W        W78576  26.127  37.070  14.310
 6851W        W78577  41.521  41.033   4.236
 6852W        W78578  33.814   3.821  13.511
 6853W        W78579  38.335  40.059  10.434
 6854W        W78580  21.744  22.558  13.028
 6855W        W78581  24.498  33.669   0.429
 6856W        W78582  19.157  11.316   2.859
 6857W        W78583  40.962   9.106  11.170
 6858W        W78584  30.803  36.896   0.939
 6859W        W78585   1.889  15.586   3.731
 6860W        W78586  43.819  21.649   1.181
 6861W        W78587  16.587  42.447  13.791
 6862W        W78588  44.965  18.594   3.246
 6863W        W78589  21.704  15.235  13.316
 6864W        W78590  29.887  20.045  13.931
 6865W        W78591  36.869  25.617   3.109
 6866W        W78592  41.431  43.008  12.039
 6867W        W78593  26.563  43.285   0.015
 6868W        W78594  42.756   2.906   2.796
 6869W        W78595  30.538  21.638  13.719
 6870W        W78596  20.251  17.953  14.431
 6871W        W78597  32.735  43.193   2.390
 6872W        W78598   9.961   5.244   3.436
 6873W        W78599  32.632  11.611   0.964
 6874W        W78600  27.601  34.984  12.208
 6875W        W78601  40.887  29.544   3.565
 6876W        W78602   7.273  39.337   3.302
 6877W        W78603  16.806  13.827   0.483
 6878W        W78604  30.609  44.779   1.936
 6879W        W78605  29.463  14.228  10.824
 6880W        W78606   0.857  19.964   0.322
 6881W        W78607  36.191  11.335   0.291
 6882W        W78608   4.454  13.344   3.383
 6883W        W78609  25.301  29.874  13.951
 6884W        W78610   6.288  21.711  11.092
 6885W        W78611  15.869  15.828   0.019
 6886W        W78612   2.446  16.740  11.412
 6887W        W78613  38.834  34.570  10.625
 6888W        W78614   3.828  30.427  12.409
 6889W        W78615  11.294  10.442  14.977
 6890W        W78616  12.367  17.341  12.122
 6891W        W78617  20.000  42.423  11.451
 6892W        W78618  39.660  43.525   0.638
 6893W        W78619   5.789   4.264   3.175
 6894W        W78620   2.182  23.076  10.655
 6895W        W78621  24.500  38.538   3.250
 6896W        W78622  25.884  40.218   2.790
 6897W        W78623  24.923  12.078  12.330
 6898W        W78624   1.695  41.530   3.677
 6899W        W78625  22.802  14.947   9.844
 6900W        W78626  21.503  34.656   2.660
 6901W        W78627  30.180  21.026  13.508
 6902W        W78628   3.345  27.615  13.370
 6903W        W78629  17.483  11.495  13.498
 6904W        W78630  13.755  22.259   3.138
 6905W        W78631  21.062   1.795  14.057
 6906W        W78632  38.466   1.284  10.768
 6907W        W78633  19.572  37.588  13.021
 6908W        W78634   8.407  27.990  12.517
 6909W        W78635  32.116  17.355  13.890
 6910W        W78636  30.455  29.514  11.624
 6911W        W78637  33.650  24.215   2.419
 6912W        W78638   5.970  27.030   3.819
 6913W        W78639  27.950  44.479  10.184
 6914W        W78640   1.381  33.997  12.814
 6915W        W78641  16.321  44.450  13.062
 6916W        W78642  15.279  27.550  10.619
 6917W        W78643  10.263   8.929  14.942
 6918W        W78644  43.001  31.779  11.549
 6919W        W78645  38.713  13.968   0.383
 6920W        W78646  27.524  44.395  12.913
 6921W        W78647  18.485   1.267  12.545
 6922W        W78648  22.566  40.561  11.672
 6923W        W78649  43.868  32.407   0.784
 6924W        W78650  24.822  44.032  14.519
 6925W        W78651  31.338  36.777  14.528
 6926W        W78652  39.520  22.017  11.957
 6927W        W78653   5.821   9.726   0.858
 6928W        W78654  34.164  40.295  13.434
 6929W        W78655  44.423   1.239   3.109
 6930W        W78656  42.871  19.756   2.185
 6931W        W78657  31.621  27.373  12.734
 6932W        W78658   2.384  19.246   2.216
 6933W        W78659  14.270  32.190  11.101
 6934W        W78660  11.792  16.037   2.848
 6935W        W78661   1.436  42.846   4.896
 6936W        W78662   6.723  42.489  14.487
 6937W        W78663  33.675  31.408   2.302
 6938W        W78664  14.773  17.753   1.784
 6939W        W78665  20.428   8.223   0.913
 6940W        W78666  35.155  30.618  13.778
 6941W        W78667  18.358  11.591  13.882
 6942W        W78668  17.014  17.267  11.854
 6943W        W78669  15.385  37.883   5.028
 6944W        W78670  42.358  21.564   0.364
 6945W        W78671  44.060  42.998   1.790
 6946W        W78672  15.011  32.878   2.919
 6947W        W78673   2.152  10.707   2.346
 6948W        W78674  33.159  25.178  12.422
 6949W        W78675   0.210  24.256  13.070
 6950W        W78676  32.333   9.271  12.323
 6951W        W78677   2.648  24.514  13.309
 6952W        W78678  41.037   0.439  11.506
 6953W        W78679  22.765  16.621   2.686
 6954W        W78680  31.555  40.225   2.814
 6955W        W78681  35.978   0.478  14.072
 6956W        W78682   0.864  18.259  13.063
 6957W        W78683  37.941  36.452   3.526
 6958W        W78684  41.097  23.690  14.418
 6959W        W78685  42.045  21.003  13.596
 6960W        W78686  42.227  37.766  13.902
 6961W        W78687  34.413  30.891   2.829
 6962W        W78688  37.941  16.145  12.990
 6963W        W78689  33.657  27.036  14.390
 6964W        W78690  32.612  25.695   9.930
 6965W        W78691  44.988   0.913   1.250
 6966W        W78692  11.114   1.432  12.461
 6967W        W78693  38.350   9.172  10.559
 6968W        W78694  11.396  33.891  10.669
 6969W        W78695  27.876  14.662   1.957
 6970W        W78696  19.626  14.874  10.788
 6971W        W78697  33.729   9.769  10.537
 6972W        W78698  35.019  25.660  12.418
 6973W        W78699  26.161   1.412  10.950
 6974W        W78700   9.246  16.609  11.517
 6975W        W78701  41.289   2.776   1.003
 6976W        W78702  30.272  38.069  14.934
 6977W        W78703   7.171  17.359   3.595
 6978W        W78704  23.520  21.329   3.835
 6979W        W78705   1.438  34.379  13.840
 6980W        W78706  28.622  44.007  11.502
 6981W        W78707  40.455  12.133  10.180
 6982W        W78708  44.412  30.956   0.868
 6983W        W78709   5.993   9.625   0.366
 6984W        W78710   3.703   0.334   1.663
 6985W        W78711   0.228   2.329  10.929
 6986W        W78712  17.102  11.070  11.522
 6987W        W78713  13.191   1.705   1.210
 6988W        W78714  38.522  35.367  11.202
 6989W        W78715  32.474  24.404  10.672
 6990W        W78716  23.389  17.355   0.200
 6991W        W78717  39.823   6.255  14.358
 6992W        W78718  17.071   2.220  13.926
 6993W        W78719   8.157  22.550  13.406
 6994W        W78720  30.183  43.473  12.355
 6995W        W78721  10.854  29.647   3.091
 6996W        W78722  43.536  30.378   3.253
 6997W        W78723  43.557   9.348  12.604
 6998W        W78724   4.220  35.640  13.030
 6999W        W78725  24.715  24.217  12.945
 7000W        W78726  18.071  17.272  12.788
 7001W        W78727  12.380  31.574   4.206
 7002W        W78728  39.923  19.611   4.155
 7003W        W78729  11.122  15.550  13.917
 7004W        W78730  41.044  22.939   1.687
 7005W        W78731   7.048  36.446   0.673
 7006W        W78732  38.976  24.836  11.505
 7007W        W78733  33.169  26.927  14.276
 7008W        W78734  16.237   0.532  12.882
 7009W        W78735  19.310  42.929   0.285
 7010W        W78736   3.668  17.726   4.301
 7011W        W78737  20.457  39.831  11.135
 7012W        W78738  10.221   2.780   4.629
 7013W        W78739  38.390  24.950   0.634
 7014W        W78740   0.369  21.519   4.193
 7015W        W78741  17.022  31.142   2.899
 7016W        W78742  11.626  15.202   2.385
 7017W        W78743   2.109  37.867   1.386
 7018W        W78744  30.254  44.750   3.187
 7019W        W78745  30.025  19.162   4.686
 7020W        W78746   5.695  42.729  12.364
 7021W        W78747  28.899  15.340   4.729
 7022W        W78748  34.031  15.062  11.672
 7023W        W78749  11.844  26.416  11.748
 7024W        W78750  33.182  39.938   3.767
 7025W        W78751  22.005  42.740  13.068
 7026W        W78752   7.279   5.315  14.569
 7027W        W78753  20.549  39.038   0.319
 7028W        W78754   4.859  27.480  14.956
 7029W        W78755   1.640  37.333  11.938
 7030W        W78756  14.289  15.226   2.013
 7031W        W78757  37.831   9.642   1.764
 7032W        W78758   2.379  31.122   4.596
 7033W        W78759  32.812  23.629   1.001
 7034W        W78760  38.277  16.215   0.633
 7035W        W78761   9.220  40.772  14.822
 7036W        W78762  43.313  39.485   3.685
 7037W        W78763  29.782  22.022  13.563
 7038W        W78764  35.641  27.175  13.474
 7039W        W78765  35.364  19.120  12.536
 7040W        W78766  24.513  13.737   4.862
 7041W        W78767  38.305  32.500   1.216
 7042W        W78768  43.436  34.128  14.570
 7043W        W78769   5.615  25.596  11.160
 7044W        W78770  30.663  20.931  12.979
 7045W        W78771  14.218  21.132   0.699
 7046W        W78772  36.526  43.346   3.400
 7047W        W78773  28.114  40.841  13.421
 7048W        W78774  25.398  38.319   1.333
 7049W        W78775  13.907   7.958   4.493
 7050W        W78776   3.857  31.613   0.823
 7051W        W78777   3.817  16.767   0.088
 7052W        W78778  26.934  16.069  14.099
 7053W        W78779   8.604  11.870  11.458
 7054W        W78780  19.752  38.453  12.524
 7055W        W78781  24.201  40.334   0.667
 7056W        W78782  24.549  30.041  12.783
 7057W        W78783  13.162  33.456   2.562
 7058W        W78784  19.074  28.166   3.196
 7059W        W78785  38.640  43.475  11.112
 7060W        W78786  29.678   2.047  12.096
 7061W        W78787   1.867  26.092  11.646
 7062W        W78788   8.272  26.004   1.917
 7063W        W78789  12.739  44.679   2.680
 7064W        W78790  33.621  38.653  12.437
 7065W        W78791  44.522  16.278  14.163
 7066W        W78792  14.235  41.484  12.704
 7067W        W78793   6.642  22.584   3.225
 7068W        W78794  20.072  31.912   1.816
 7069W        W78795  27.111  24.595   1.329
 7070W        W78796  19.695   0.483  10.377
 7071W        W78797  39.998  12.417   1.199
 7072W        W78798   3.265   0.965   5.171
 7073W        W78799  26.245  34.569  12.684
 7074W        W78800  19.598  42.837  14.822
 7075W        W78801   6.158  44.814  13.565
 7076W        W78802  20.152   9.664   0.788
 7077W        W78803   6.839  17.807   0.279
 7078W        W78804  18.613  37.393  14.556
 7079W        W78805  25.147  41.532  11.017
 7080W        W78806  26.870  14.654   1.417
 7081W        W78807   6.808  44.997   3.364
 7082W        W78808  34.835  38.983   3.915
 7083W        W78809  10.034  34.579   3.210
 7084W        W78810  36.442  31.510   1.291
 7085W        W78811  13.597  43.342  13.566
 7086W        W78812  39.984  17.496   0.904
 7087W        W78813  42.644  41.328  11.614
 7088W        W78814  18.685  42.555  10.908
 7089W        W78815  41.529  32.547   3.561
 7090W        W78816  20.174   8.678  11.520
 7091W        W78817  14.813  38.685  10.212
 7092W        W78818  40.853  21.549   4.754
 7093W        W78819  19.009  42.518  14.026
 7094W        W78820  11.877  27.313   0.992
 7095W        W78821   6.035   6.897  12.934
 7096W        W78822  26.243   0.833   4.345
 7097W        W78823  13.047  28.065   3.350
 7098W        W78824  34.136   2.277   1.853
 7099W        W78825  15.778  19.135   2.606
 7100W        W78826  29.580  15.997   3.897
 7101W        W78827  12.686  15.679  14.283
 7102W        W78828  27.501  30.052  12.466
 7103W        W78829  23.258  22.569   1.894
 7104W        W78830  41.042  21.116   4.554
 7105W        W78831  29.782  20.243  12.134
 7106W        W78832  14.593   0.833   5.008
 7107W        W78833  30.748  37.882  14.991
 7108W        W78834  41.363  20.552  12.543
 7109W        W78835  33.014  11.735   0.311
 7110W        W78836  31.013  30.299   0.712
 7111W        W78837   4.703  17.372  12.911
 7112W        W78838  11.752  37.050  11.168
 7113W        W78839  28.118  28.342  14.849
 7114W        W78840   9.240   1.810   0.860
 7115W        W78841  35.594  15.546  12.078
 7116W        W78842  34.064   0.017  13.558
 7117W        W78843  23.006   5.894   0.881
 7118W        W78844  34.471  24.776   1.651
 7119W        W78845  40.698  14.674  10.738
 7120W        W78846  39.037  19.133  10.700
 7121W        W78847   6.411  15.063   3.301
 7122W        W78848  41.972  32.626  12.605
 7123W        W78849   4.257  11.386   4.439
 7124W        W78850  16.353  41.356  13.396
 7125W        W78851   6.328  40.760   3.179
 7126W        W78852  44.758  36.153   1.366
 7127W        W78853  18.649   3.732  12.657
 7128W        W78854  37.785  16.524  13.963
 7129W        W78855  44.768   0.416   3.843
 7130W        W78856  25.925   7.699   4.884
 7131W        W78857  20.051  14.074   2.847
 7132W        W78858  25.584  38.933   3.344
 7133W        W78859  25.145  18.192  11.487
 7134W        W78860  36.140  32.639   3.668
 7135W        W78861  35.407  32.380  11.918
 7136W        W78862  12.758  25.554  14.281
 7137W        W78863  20.582  29.888   2.794
 7138W        W78864  19.106  26.915   0.203
 7139W        W78865  22.509  34.889   0.481
 7140W        W78866  36.072  14.961  13.343
 7141W        W78867  31.919   2.677  10.998
 7142W        W78868  38.287  27.465   1.671
 7143W        W78869  44.880  25.868   2.530
 7144W        W78870  14.004  30.464   1.791
 7145W        W78871  34.872  37.991  10.528
 7146W        W78872  39.009  12.861   3.516
 7147W        W78873  10.859  34.626   4.333
 7148W        W78874  41.463  36.981  14.104
 7149W        W78875  44.765  31.110  10.387
 7150W        W78876  23.670   8.977  14.713
 7151W        W78877  11.320  25.612  11.308
 7152W        W78878  20.070  36.585  12.913
 7153W        W78879  37.622   0.477  11.609
 7154W        W78880  38.793   5.228  12.953
 7155W        W78881  23.522  21.663  14.868
 7156W        W78882   1.057   8.880  10.716
 7157W        W78883  30.983  24.094   0.319
 7158W        W78884   3.945  16.158   1.242
 7159W        W78885  16.217  19.002   4.479
 7160W        W78886  27.687  16.140  11.065
 7161W        W78887  43.447   9.189   3.231
 7162W        W78888   1.337  28.024   4.107
 7163W        W78889   4.795   6.796  11.292
 7164W        W78890  32.000  23.955   2.947
 7165W        W78891  33.929  43.833  14.428
 7166W        W78892  23.747  21.106   4.805
 7167W        W78893  33.620  26.138   4.263
 7168W        W78894  17.109  36.966  12.501
 7169W        W78895   1.719  44.250  14.391
 7170W        W78896  40.436  30.831   3.767
 7171W        W78897  15.241  42.874   1.906
 7172W        W78898  28.153   4.023  11.870
 7173W        W78899   4.842  41.267   2.827
 7174W        W78900  29.099  14.889   2.948
 7175W        W78901  21.511  33.703   1.845
 7176W        W78902  37.048  37.998  10.692
 7177W        W78903   2.591  23.202  13.016
 7178W        W78904  22.993  27.237   0.746
 7179W        W78905  15.338   0.046   3.340
 7180W        W78906  20.844  28.127   3.592
 7181W        W78907  14.659  11.834   4.652
 7182W        W78908   4.111  42.157  13.235
 7183W        W78909   2.668  32.982   0.917
 7184W        W78910   9.091  22.716   1.039
 7185W        W78911   5.380  36.041   0.558
 7186W        W78912   4.427   4.630   4.601
 7187W        W78913   6.107  20.565  10.565
 7188W        W78914  18.061  20.565   3.747
 7189W        W78915  22.153   9.182   3.206
 7190W        W78916  34.265  22.255   2.842
 7191W        W78917  20.310  36.479  13.413
 7192W        W78918  43.352  27.462  13.589
 7193W        W78919  32.740  26.008  13.341
 7194W        W78920  32.670  35.068   0.046
 7195W        W78921  42.644  18.816   2.815
 7196W        W78922   1.765   1.483  11.840
 7197W        W78923  19.264  42.897  12.856
 7198W        W78924  41.639  16.417   2.298
 7199W        W78925  24.020  43.280  14.452
 7200W        W78926  37.539  29.108   2.695
 7201W        W78927  29.413   5.390   3.059
 7202W        W78928  18.214  10.204  13.519
 7203W        W78929  31.682  40.030  14.817
 7204W        W78930   9.297  39.069  13.392
 7205W        W78931  38.762  14.204   3.821
 7206W        W78932   4.704  13.770  12.830
 7207W        W78933  23.000  40.267  12.556
 7208W        W78934  39.131  28.678   3.206
 7209W        W78935  23.465  20.063  12.943
 7210W        W78936  10.641  22.126   3.568
 7211W        W78937  14.703  34.409  10.623
 7212W        W78938  29.081  17.309   0.778
 7213W        W78939  25.301  31.095   2.957
 7214W        W78940   3.752  38.808   3.622
 7215W        W78941  16.774   2.932   0.346
 7216W        W78942  22.176  41.455  12.034
 7217W        W78943  18.637   4.002  13.974
 7218W        W78944   5.709  40.910  11.252
 7219W        W78945  19.637  40.929  13.256
 7220W        W78946   1.249  16.257  11.370
 7221W        W78947  22.045  26.654  13.469
 7222W        W78948   7.818   9.117   1.776
 7223W        W78949  19.086  42.362  10.647
 7224W        W78950   9.344  29.324   4.584
 7225W        W78951  40.609  24.312   0.881
 7226W        W78952  39.515   0.366  13.861
 7227W        W78953  14.708  28.992  12.629
 7228W        W78954  32.551  22.503   3.954
 7229W        W78955  35.951  42.824   4.080
 7230W        W78956   4.012  38.781  12.041
 7231W        W78957  42.397  19.981   4.346
 7232W        W78958   6.147  29.220   2.320
 7233W        W78959  32.274  18.239   0.015
 7234W        W78960  26.495  33.391   2.917
 7235W        W78961   0.543  30.021   2.672
 7236W        W78962  34.618   8.674   4.780
 7237W        W78963  44.619  18.324  11.567
 7238W        W78964  12.751  28.155  11.634
 7239W        W78965  28.824  25.065  12.996
 7240W        W78966  39.805  28.095  13.934
 7241W        W78967   2.614  34.378  13.003
 7242W        W78968   5.065   6.905  10.259
 7243W        W78969  11.481  28.517  12.014
 7244W        W78970  23.670  34.477   4.111
 7245W        W78971  10.858  37.900  12.493
 7246W        W78972   4.899  21.998  12.028
 7247W        W78973  21.965  30.497  12.045
 7248W        W78974  15.131  18.492  13.874
 7249W        W78975   4.468  12.690   1.077
 7250W        W78976   9.168  36.114  10.293
 7251W        W78977  38.017  38.097  12.646
 7252W        W78978  17.158  30.699  12.887
 7253W        W78979   8.386  12.717   3.182
 7254W        W78980   8.259  31.670   2.488
 7255W        W78981  42.299   2.965  10.729
 7256W        W78982  32.154  10.287  11.526
 7257W        W78983   5.791   8.902  10.947
 7258W        W78984   2.215   5.778   0.997
 7259W        W78985  26.098  15.557  11.573
 7260W        W78986  19.964  23.833   2.720
 7261W        W78987   9.766   3.438   2.337
 7262W        W78988  14.339  38.337  11.130
 7263W        W78989   6.460  11.404  12.454
 7264W        W78990  44.771   1.267  13.857
 7265W        W78991  15.570  35.839   1.859
 7266W        W78992  10.301  15.127   3.193
 7267W        W78993   9.236  17.618  12.488
 7268W        W78994   8.873  22.011  13.232
 7269W        W78995  12.042  21.751   2.267
 7270W        W78996  42.368   1.243   2.253
 7271W        W78997  11.826   4.706   1.246
 7272W        W78998  34.621  34.060   3.668
 7273W        W78999  38.064   5.434  13.562
 7274W        W79000  40.778  16.511  14.764
 7275W        W79001  17.067   7.948  13.558
 7276W        W79002  32.980  44.599   3.598
 7277W        W79003   7.234  39.277  13.680
 7278W        W79004  18.943  15.575   0.449
 7279W        W79005   9.388  33.749   3.470
 7280W        W79006  17.776  36.524  12.628
 7281W        W79007  29.651  37.003  10.734
 7282W        W79008  43.989  44.857  13.503
 7283W        W79009  26.998  43.462   2.198
 7284W        W79010  28.343  32.197  13.494
 7285W        W79011   3.188  27.042   1.241
 7286W        W79012  11.154  18.005  11.988
 7287W        W79013  12.115  24.567   3.820
 7288W        W79014  26.003  13.861  12.057
 7289W        W79015  42.984  18.144  10.462
 7290W        W79016  10.307  17.177   2.819
 7291W        W79017   8.351  20.933  11.363
 7292W        W79018  41.535  30.151   4.030
 7293W        W79019  32.153  22.550  12.091
 7294W        W79020  11.001  21.150  11.847
 7295W        W79021   7.228  18.259   0.825
 7296W        W79022  37.610   4.209   3.918
 7297W        W79023  25.279  26.617   0.299
 7298W        W79024  35.608  25.557   2.667
 7299W        W79025   8.376  17.547   1.025
 7300W        W79026   7.359  31.249   2.342
 7301W        W79027  41.944  31.294   1.225
 7302W        W79028   7.913  39.513  11.154
 7303W        W79029   2.475  19.959  14.494
 7304W        W79030  22.239  26.538   0.360
 7305W        W79031  11.775  23.487   4.720
 7306W        W79032  29.658   1.929  11.159
 7307W        W79033  33.291   4.976  10.666
 7308W        W79034   1.263  28.378  12.526
 7309W        W79035  26.647   1.008   4.039
 7310W        W79036  17.547  12.930   0.624
 7311W        W79037  21.042  30.432  12.654
 7312W        W79038  41.031  34.058  12.481
 7313W        W79039   9.734  18.983  11.617
 7314W        W79040  16.974  40.994   5.040
 7315W        W79041  30.521  10.213  10.685
 7316W        W79042  41.086  16.775  10.794
 7317W        W79043  13.146  11.883   4.293
 7318W        W79044  19.031  26.442   3.331
 7319W        W79045  28.448   1.923  11.429
 7320W        W79046  13.128  38.790   0.398
 7321W        W79047  10.728   2.472   2.225
 7322W        W79048   6.496   7.170  14.844
 7323W        W79049  25.578  26.999   0.045
 7324W        W79050  27.321  34.480   0.662
 7325W        W79051  31.684   4.594   2.331
 7326W        W79052  34.345  27.984   0.770
 7327W        W79053  28.718  19.682  10.608
 7328W        W79054  37.580  44.866   1.952
 7329W        W79055  17.751  37.819  10.701
 7330W        W79056   4.451  28.903  11.143
 7331W        W79057  19.702   2.282  10.781
 7332W        W79058  41.451  19.801   3.212
 7333W        W79059  13.544  44.420   0.833
 7334W        W79060  24.071  13.368   0.874
 7335W        W79061  10.965  43.980   1.146
 7336W        W79062   8.852  41.310  11.553
 7337W        W79063  13.596  26.210  12.535
 7338W        W79064  18.560  22.521   3.571
 7339W        W79065  35.052  21.021  10.909
 7340W        W79066  11.326  23.582  12.525
 7341W        W79067  41.450   3.210   3.767
 7342W        W79068  17.753  41.372   3.455
 7343W        W79069  27.459  23.170   0.349
 7344W        W79070  26.568  31.366  10.776
 7345W        W79071  38.935  17.047   1.179
 7346W        W79072  32.138  11.203  13.459
 7347W        W79073  12.794  20.226   0.874
 7348W        W79074  19.606   2.178   1.155
 7349W        W79075  38.946  23.436   2.640
 7350W        W79076  37.187   1.291   3.356
 7351W        W79077  35.705  22.902   3.270
 7352W        W79078  41.020  25.294   0.823
 7353W        W79079  33.940  31.891  14.199
 7354W        W79080  18.735  43.864  12.654
 7355W        W79081  24.597   9.831   4.530
 7356W        W79082  44.200  29.746   0.256
 7357W        W79083  40.850   6.782   1.653
 7358W        W79084  10.107  22.208  12.766
 7359W        W79085  37.169  12.245   4.187
 7360W        W79086  28.096  44.125   2.419
 7361W        W79087  40.592  14.217   3.259
 7362W        W79088  34.035   4.678  13.154
 7363W        W79089  18.734  10.930  13.348
 7364W        W79090  15.025  43.086  11.994
 7365W        W79091  21.440  41.586  14.355
 7366W        W79092  40.892  39.762   2.641
 7367W        W79093   3.866   4.663  13.974
 7368W        W79094   6.418  19.555   5.107
 7369W        W79095  14.545  26.098  13.971
 7370W        W79096  38.940  44.012   1.817
 7371W        W79097  21.137  42.727  14.026
 7372W        W79098  19.508   0.896  12.627
 7373W        W79099  13.902  21.695  14.929
 7374W        W79100   5.307  36.358   2.174
 7375W        W79101  32.513  11.888   3.781
 7376W        W79102  15.226  31.725   0.456
 7377W        W79103  30.638   0.793  11.045
 7378W        W79104  21.566  33.928  10.692
 7379W        W79105  17.058  12.380   2.040
 7380W        W79106  12.818   6.313  12.887
 7381W        W79107   7.315  30.959   0.176
 7382W        W79108  37.275  24.171  14.504
 7383W        W79109  35.104   0.100  12.355
 7384W        W79110  10.408  36.274   2.634
 7385W        W79111  17.613  22.436   3.854
 7386W        W79112  21.557  36.104   2.671
 7387W        W79113  35.232  18.105  14.415
 7388W        W79114   5.778  27.068   0.953
 7389W        W79115  21.994   8.878  11.948
 7390W        W79116  19.164   0.973  14.786
 7391W        W79117   3.380  23.722   2.698
 7392W        W79118   5.809  25.507  10.692
 7393W        W79119   8.758  15.701  12.547
 7394W        W79120  14.667  34.762  11.637
 7395W        W79121  42.890  39.915   1.977
 7396W        W79122  29.988  44.297  14.975
 7397W        W79123  21.890  35.882  10.982
 7398W        W79124  10.650  43.322  10.645
 7399W        W79125  24.774   9.381  14.822
 7400W        W79126  30.872   7.251  12.031
 7401W        W79127   5.722  35.555   1.241
 7402W        W79128   9.200  11.115   1.299
 7403W        W79129   4.398  27.190   1.240
 7404W        W79130   9.972  31.568   1.847
 7405W        W79131  27.502  20.798   0.619
 7406W        W79132  21.425  40.880  11.034
 7407W        W79133   1.759   9.294   3.651
 7408W        W79134   2.665  18.058  13.596
 7409W        W79135  33.991  33.373   0.260
 7410W        W79136  26.121   4.939   4.208
 7411W        W79137  34.443   4.345  14.762
 7412W        W79138   0.297  35.623  12.968
 7413W        W79139  44.021  12.234  14.775
 7414W        W79140  24.303   7.371   4.074
 7415W        W79141  19.067  43.929  11.551
 7416W        W79142  17.054  44.523   4.102
 7417W        W79143   5.516   1.023   1.338
 7418W        W79144  31.589   0.562  11.525
 7419W        W79145  37.847  34.311  10.492
 7420W        W79146  16.156  35.549  12.011
 7421W        W79147  17.317  26.537  13.449
 7422W        W79148   4.792  21.051  12.088
 7423W        W79149  33.411   2.949   5.051
 7424W        W79150  41.919  44.522  11.682
 7425W        W79151  41.505  34.362   2.881
 7426W        W79152   4.194  38.304  14.313
 7427W        W79153  31.193  32.157   1.333
 7428W        W79154  22.681  19.657   2.824
 7429W        W79155  34.479   7.156   0.751
 7430W        W79156   3.039  38.498  11.670
 7431W        W79157  23.985  31.473   4.094
 7432W        W79158  40.502   5.355  10.927
 7433W        W79159   8.421  27.673   1.870
 7434W        W79160  18.526  25.926  12.908
 7435W        W79161  23.513  33.566   1.729
 7436W        W79162  15.316  37.627   3.169
 7437W        W79163  31.843  33.115  14.744
 7438W        W79164  30.506   2.840   0.421
 7439W        W79165  22.755   6.765  13.983
 7440W        W79166   0.404  21.444  12.528
 7441W        W79167  17.293  24.039  14.887
 7442W        W79168  15.255  20.174  13.097
 7443W        W79169   9.207  35.140   3.550
 7444W        W79170  27.663  21.170   4.242
 7445W        W79171  22.011  32.404   4.131
 7446W        W79172  29.044  37.766  13.868
 7447W        W79173  27.949  18.657   2.094
 7448W        W79174   3.997   3.950  11.306
 7449W        W79175  21.336  28.479  13.331
 7450W        W79176   1.009  32.553   2.010
 7451W        W79177  39.732  42.409   2.990
 7452W        W79178  38.073  33.602   3.221
 7453W        W79179   7.539  23.903   3.634
 7454W        W79180  28.064  12.880   2.161
 7455W        W79181  27.593  29.137   1.375
 7456W        W79182  11.302  25.114  12.618
 7457W        W79183  27.148   8.471   4.174
 7458W        W79184   8.286   9.689   3.105
 7459W        W79185   7.732  40.765  11.474
 7460W        W79186   3.769  35.598  12.749
 7461W        W79187   4.361   8.794   0.448
 7462W        W79188  19.353  27.122   0.939
 7463W        W79189  26.356  16.513  11.883
 7464W        W79190  28.561   7.314  12.903
 7465W        W79191  22.288   5.693   3.832
 7466W        W79192  38.849   2.800  12.929
 7467W        W79193  31.447  13.097   2.693
 7468W        W79194   5.532  13.266  13.094
 7469W        W79195  19.613  22.007  12.576
 7470W        W79196  23.275  13.137   1.950
 7471W        W79197  31.672  16.194   3.220
 7472W        W79198  37.079  22.203  10.644
 7473W        W79199  44.402  22.191   0.936
 7474W        W79200  31.036  28.017   4.734
 7475W        W79201  36.835  13.691   3.813
 7476W        W79202   5.656  35.312   0.798
 7477W        W79203   4.373   1.698  11.994
 7478W        W79204   6.922   4.476   0.119
 7479W        W79205   2.463   9.343  14.309
 7480W        W79206   7.585   5.167   3.762
 7481W        W79207  42.005  12.272   2.694
 7482W        W79208  14.550  20.845  14.892
 7483W        W79209   7.301   6.474  12.435
 7484W        W79210  22.405  19.182   3.923
 7485W        W79211  42.044  37.896   0.502
 7486W        W79212   6.884  21.236  13.110
 7487W        W79213  37.496   7.339   1.015
 7488W        W79214   3.713  38.679   0.761
 7489W        W79215  29.531  15.084   1.346
 7490W        W79216  21.726  31.987   0.061
 7491W        W79217  15.008  35.033  14.737
 7492W        W79218  44.396  13.079  13.785
 7493W        W79219   3.165  16.078   0.801
 7494W        W79220  42.674  28.059  11.468
 7495W        W79221  40.564  24.211   4.084
 7496W        W79222  33.519  22.281   3.312
 7497W        W79223  25.061  24.740   2.621
 7498W        W79224  43.777  14.680  12.668
 7499W        W79225  12.560   6.937  13.555
 7500W        W79226   3.910  35.734  10.583
 7501W        W79227  33.863  23.502   4.585
 7502W        W79228  37.511  44.314  10.268
 7503W        W79229  24.708  29.462  14.520
 7504W        W79230  43.377   7.494  10.969
 7505W        W79231  32.413   4.845  10.246
 7506W        W79232   9.303  36.020   4.509
 7507W        W79233   2.567  25.665   4.084
 7508W        W79234  38.581  17.381   4.440
 7509W        W79235  12.846   5.770  13.030
 7510W        W79236  44.538  38.893  13.033
 7511W        W79237  12.416   6.911   1.213
 7512W        W79238  31.643  43.808   4.201
 7513W        W79239  29.541  44.944   4.525
 7514W        W79240  24.220  16.210  12.564
 7515W        W79241  37.648  10.244  10.037
 7516W        W79242   4.689  24.190  14.306
 7517W        W79243  23.894  16.082  12.965
 7518W        W79244   2.482  33.490  12.612
 7519W        W79245   4.681   8.122   4.839
 7520W        W79246  10.386   8.718   0.864
 7521W        W79247  17.791  28.876   3.971
 7522W        W79248   8.510   6.748   4.612
 7523W        W79249   0.888   9.111  12.703
 7524W        W79250   7.349  13.775   5.530
 7525W        W79251  40.009  11.371   2.421
 7526W        W79252  35.527  29.337  14.961
 7527W        W79253  11.862  25.906   3.655
 7528W        W79254  28.445  22.654   3.629
 7529W        W79255  28.045  29.687   3.510
 7530W        W79256   2.563  40.551   2.730
 7531W        W79257  17.239   7.338  10.296
 7532W        W79258  13.891  18.624   0.926
 7533W        W79259   6.869  36.761   3.712
 7534W        W79260  39.782   0.825  13.922
 7535W        W79261   6.963  34.549  13.846
 7536W        W79262   8.691  40.088   4.575
 7537W        W79263   9.650  12.411   0.926
 7538W        W79264  31.604   0.679   1.215
 7539W        W79265  13.260  37.493  13.047
 7540W        W79266   6.438  24.257  12.532
 7541W        W79267  12.603   0.225  13.700
 7542W        W79268  36.803  24.846  14.319
 7543W        W79269   8.179  20.098   3.326
 7544W        W79270   2.952  14.657  12.363
 7545W        W79271  29.423  40.958   1.881
 7546W        W79272  39.986   3.398  11.840
 7547W        W79273  37.135  25.031   3.476
 7548W        W79274  19.710  43.754   4.076
 7549W        W79275  19.756   5.817  14.777
 7550W        W79276  18.544  22.743   2.242
 7551W        W79277  22.778  36.140   3.271
 7552W        W79278  31.393  19.980  14.981
 7553W        W79279  12.689   0.819   4.688
 7554W        W79280  27.512  31.501  11.554
 7555W        W79281   9.109  11.772  12.552
 7556W        W79282  19.737   1.104  13.561
 7557W        W79283   4.271  37.970   4.228
 7558W        W79284   6.177  41.865   1.747
 7559W        W79285  25.980  38.912   3.043
 7560W        W79286  21.835  29.383   2.304
 7561W        W79287  15.316   5.746   4.290
 7562W        W79288   7.220  26.264   4.469
 7563W        W79289  37.788  14.130   1.445
 7564W        W79290  42.768   5.407   4.262
 7565W        W79291   9.264  20.082   1.957
 7566W        W79292   6.008   5.485  12.377
 7567W        W79293  32.199  32.929  13.676
 7568W        W79294  35.750  18.555  13.289
 7569W        W79295   0.520  23.255  14.988
 7570W        W79296  29.123  16.380  10.869
 7571W        W79297  24.769  11.747  11.150
 7572W        W79298  14.470  36.807   1.134
 7573W        W79299  20.473  18.595  13.714
 7574W        W79300  23.195   5.776   2.390
 7575W        W79301  36.936  29.115   3.181
 7576W        W79302  38.602   1.197   3.178
 7577W        W79303  22.526  39.940  12.442
 7578W        W79304   5.890  41.057   2.305
 7579W        W79305  15.375  34.029  14.780
 7580W        W79306   9.144   0.195   0.837
 7581W        W79307  33.472  27.254   2.687
 7582W        W79308   9.313  31.421  10.689
 7583W        W79309  31.007  18.541  13.831
 7584W        W79310  12.239  38.466   4.115
 7585W        W79311  41.973  37.812   4.121
 7586W        W79312  11.138  30.114   3.924
 7587W        W79313  20.101  36.486  11.548
 7588W        W79314  39.080  28.614  10.730
 7589W        W79315  21.518   3.476  13.851
 7590W        W79316   9.818  30.893   1.078
 7591W        W79317   3.677   4.653   1.959
 7592W        W79318  16.505  36.322  11.013
 7593W        W79319   8.158  33.344   0.109
 7594W        W79320  24.614   7.812   1.930
 7595W        W79321   2.355  19.393   5.006
 7596W        W79322  40.775  35.906   1.431
 7597W        W79323  16.264  39.026   3.135
 7598W        W79324   6.204  33.604   5.074
 7599W        W79325  42.473   8.103   4.779
 7600W        W79326  32.730   9.214   1.731
 7601W        W79327  35.951  42.330   4.979
 7602W        W79328  33.369  42.534  12.473
 7603W        W79329  27.679  13.748   0.897
 7604W        W79330  18.719   6.697   4.266
 7605W        W79331  22.678  43.931   2.863
 7606W        W79332   2.155  21.262   2.293
 7607W        W79333   6.329   2.784  11.211
 7608W        W79334  43.526  34.393   0.012
 7609W        W79335  33.675  31.785   3.549
 7610W        W79336   9.270  31.451   2.252
 7611W        W79337  40.908  32.341   4.837
 7612W        W79338  22.988  40.192  13.439
 7613W        W79339  14.840  39.751  11.138
 7614W        W79340  17.552   2.369  13.038
 7615W        W79341  16.723  32.922  14.341
 7616W        W79342  29.732  42.397   0.356
 7617W        W79343  44.163  43.845   3.623
 7618W        W79344  43.185  39.096   2.229
 7619W        W79345   2.499  16.024  11.562
 7620W        W79346   2.364  21.154  14.770
 7621W        W79347  23.237  14.194  14.932
 7622W        W79348   3.233  13.570  12.934
 7623W        W79349   8.807  42.395   0.812
 7624W        W79350  26.687  22.225  11.610
 7625W        W79351   2.790  37.016   3.297
 7626W        W79352  35.075  21.208   4.107
 7627W        W79353  11.187  29.028   0.494
 7628W        W79354   3.958  16.199  12.615
 7629W        W79355  22.505  35.950  10.941
 7630W        W79356  38.057  11.407   1.377
 7631W        W79357   3.027  33.317   2.170
 7632W        W79358  31.959  30.443   0.243
 7633W        W79359  29.118  19.740   3.830
 7634W        W79360  27.664  36.575  11.400
 7635W        W79361  27.517  27.087   0.764
 7636W        W79362   9.296  36.758  14.530
 7637W        W79363  23.806  24.028   2.249
 7638W        W79364  41.737  40.556   2.138
 7639W        W79365  18.080  24.543  12.409
 7640W        W79366  25.059  16.542  13.800
 7641W        W79367  11.071  35.523   2.682
 7642W        W79368  38.945  16.517   4.705
 7643W        W79369  39.387  16.737   0.456
 7644W        W79370  24.020  31.971  10.056
 7645W        W79371  42.207   3.505   0.294
 7646W        W79372   6.552  20.161  12.843
 7647W        W79373  33.192   1.905   1.841
 7648W        W79374   5.777  26.101   1.419
 7649W        W79375   3.314  41.990  12.025
 7650W        W79376   6.264  30.469  14.752
 7651W        W79377  39.522   3.276   4.402
 7652W        W79378   4.884   8.262   3.872
 7653W        W79379  30.147  20.865  12.899
 7654W        W79380  21.753  24.220   0.370
 7655W        W79381  42.249   8.322   1.900
 7656W        W79382  19.444   5.718  11.500
 7657W        W79383  41.938  15.619   1.512
 7658W        W79384  24.427  39.948   3.200
 7659W        W79385  12.124  24.114   0.738
 7660W        W79386   2.032  26.957   1.888
 7661W        W79387  42.942  30.132  13.042
 7662W        W79388  18.564  33.198  14.309
 7663W        W79389  17.362  35.115  14.449
 7664W        W79390   2.834  16.788  12.133
 7665W        W79391  18.862  21.618  11.754
 7666W        W79392  29.121   4.011   1.724
 7667W        W79393  35.355   4.200  12.385
 7668W        W79394  26.699  43.535  11.195
 7669W        W79395  13.126  36.448   2.253
 7670W        W79396  21.666  13.766   5.053
 7671W        W79397  10.064  17.152  14.798
 7672W        W79398   1.054  17.380  10.405
 7673W        W79399   7.964  19.568   0.856
 7674W        W79400  34.681   0.962   4.869
 7675W        W79401  20.167  21.996   1.669
 7676W        W79402  18.380  43.367   0.039
 7677W        W79403  34.463  26.657   4.180
 7678W        W79404  36.794  33.421  12.522
 7679W        W79405  40.211  35.894   3.591
 7680W        W79406  20.502  35.392  12.469
 7681W        W79407  20.243   2.658   4.140
 7682W        W79408  14.654  31.035  11.139
 7683W        W79409  23.741  16.085   1.308
 7684W        W79410  30.463  28.592   0.768
 7685W        W79411  16.281  24.117  13.043
 7686W        W79412  42.819  29.203  13.871
 7687W        W79413  26.274  34.827   2.810
 7688W        W79414   0.430  36.846   1.596
 7689W        W79415  25.222  27.205   2.915
 7690W        W79416  36.406   2.002  10.409
 7691W        W79417   6.545  16.102   4.558
 7692W        W79418   9.409  34.435  11.882
 7693W        W79419  15.196  18.071   4.138
 7694W        W79420  39.137  39.273   1.278
 7695W        W79421  10.359  17.386   0.969
 7696W        W79422  16.364  25.763  12.386
 7697W        W79423   8.792  15.866   3.109
 7698W        W79424  24.689  22.348   0.368
 7699W        W79425  12.530  11.770  14.803
 7700W        W79426   1.884  43.243  12.963
 7701W        W79427  10.923  39.785  13.425
 7702W        W79428  23.242  23.303   2.308
 7703W        W79429  19.777  44.716   2.326
 7704W        W79430   6.666  29.087  12.781
 7705W        W79431   0.206  18.683   3.703
 7706W        W79432  33.700   8.823   1.782
 7707W        W79433   7.354  22.742  12.600
 7708W        W79434   1.655   0.893   1.814
 7709W        W79435   5.802  20.136  12.021
 7710W        W79436  43.489  43.992  13.271
 7711W        W79437  28.096   1.707   3.614
 7712W        W79438  33.638  20.963   4.580
 7713W        W79439  21.322  27.238   3.702
 7714W        W79440  19.049   3.319   2.756
 7715W        W79441  26.703  40.970  13.542
 7716W        W79442  43.888  17.696   1.632
 7717W        W79443  43.526  33.470  14.960
 7718W        W79444  17.025  25.027  14.666
 7719W        W79445  37.819  19.032   4.586
 7720W        W79446   3.096  22.683   4.105
 7721W        W79447   6.536   1.887   3.372
 7722W        W79448  21.614  17.219  14.059
 7723W        W79449  34.036  10.963   1.258
 7724W        W79450  36.909  29.213  10.468
 7725W        W79451   1.275  38.318  14.180
 7726W        W79452  15.282   7.979  14.097
 7727W        W79453  30.800   1.357   0.121
 7728W        W79454  28.418   1.348   2.771
 7729W        W79455  22.743  23.025  13.435
 7730W        W79456  36.466  39.031  14.971
 7731W        W79457  11.409  18.939   4.296
 7732W        W79458   7.149  17.886  12.967
 7733W        W79459  32.880  16.868  13.401
 7734W        W79460   5.843  37.357   4.589
 7735W        W79461  27.724  13.108   1.663
 7736W        W79462  19.986  43.603  14.412
 7737W        W79463  33.336   7.205  14.504
 7738W        W79464  17.851  31.644   0.043
 7739W        W79465  26.062   0.298  14.017
 7740W        W79466  38.527  39.819   2.268
 7741W        W79467   8.374  36.789  11.399
 7742W        W79468   1.984  41.967   2.559
 7743W        W79469   6.467  19.746  14.708
 7744W        W79470  36.027  21.275   1.244
 7745W        W79471  29.115  18.151   3.392
 7746W        W79472   2.133  39.621   0.235
 7747W        W79473  17.760  44.628   1.901
 7748W        W79474   4.414  32.789   2.053
 7749W        W79475  33.122   1.866  11.611
 7750W        W79476   7.393  29.851   4.283
 7751W        W79477  27.965   0.539   1.156
 7752W        W79478  34.378  41.545  13.561
 7753W        W79479  26.574   0.160   3.655
 7754W        W79480  27.121  37.782  13.069
 7755W        W79481   2.898  33.043   3.668
 7756W        W79482  40.591  34.585   4.672
 7757W        W79483  10.385   4.916  14.712
 7758W        W79484   5.418  21.941  12.050
 7759W        W79485  10.877  30.873  11.064
 7760W        W79486  38.688  35.042  11.957
 7761W        W79487  43.106  15.409  14.803
 7762W        W79488  38.475  15.085  14.541
 7763W        W79489  27.590  44.494  11.926
 7764W        W79490  20.095  34.082   1.469
 7765W        W79491  31.503  36.826   0.374
 7766W        W79492  44.258   0.053   1.865
 7767W        W79493  44.431  41.511  13.782
 7768W        W79494  21.250  38.799  13.899
 7769W        W79495  18.078  13.550   0.011
 7770W        W79496  18.551   6.254  12.473
 7771W        W79497   2.824  11.881   0.549
 7772W        W79498  38.295  31.512   2.729
 7773W        W79499   0.238  40.840   4.853
 7774W        W79500  27.330  26.138  13.051
 7775W        W79501  40.356  35.356  14.464
 7776W        W79502  32.515  26.143  10.191
 7777W        W79503  13.216  40.793   0.685
 7778W        W79504   5.519  31.523  12.030
 7779W        W79505  17.019  24.697   2.644
 7780W        W79506  24.443  38.988   2.447
 7781W        W79507   5.295  43.915  14.341
 7782W        W79508  41.353  12.373  12.658
 7783W        W79509  34.281  29.036   1.125
 7784W        W79510  14.738  44.650  10.873
 7785W        W79511  21.841   3.628   1.189
 7786W        W79512  24.299   5.477  14.933
 7787W        W79513  40.839   4.921  11.404
 7788W        W79514   3.921   7.807   1.315
 7789W        W79515  34.841   8.883  13.302
 7790W        W79516  15.229  15.334   1.485
 7791W        W79517  24.252   3.863   4.816
 7792W        W79518  38.023  23.799  13.531
 7793W        W79519  13.897   1.113   2.696
 7794W        W79520  26.302  39.274  14.460
 7795W        W79521  21.671  30.409  11.583
 7796W        W79522  26.015  27.894  13.927
 7797W        W79523   3.898  14.407  11.931
 7798W        W79524  35.843  22.463  14.063
 7799W        W79525  27.516  22.537   1.361
 7800W        W79526   2.791  22.078   2.406
 7801W        W79527  42.846  10.360   1.418
 7802W        W79528  20.792  26.184  10.718
 7803W        W79529  29.025  27.986  11.959
 7804W        W79530  19.080   4.518  11.843
 7805W        W79531  10.776  28.361   2.638
 7806W        W79532  29.036  13.417   2.944
 7807W        W79533  33.389   4.101   2.870
 7808W        W79534  29.075   5.154   4.588
 7809W        W79535  36.921  16.665  14.263
 7810W        W79536  27.030  28.947  11.764
 7811W        W79537   8.640  44.328   1.589
 7812W        W79538  34.910  24.699  10.678
 7813W        W79539  10.956   8.394   1.629
 7814W        W79540  29.468  19.188   3.130
 7815W        W79541   0.890  37.329   4.661
 7816W        W79542  12.675  44.020   1.436
 7817W        W79543  15.877  44.381  13.953
 7818W        W79544   4.174   1.216   4.569
 7819W        W79545  44.967   5.852   1.084
 7820W        W79546  27.874   2.261  14.548
 7821W        W79547  26.458  29.226   0.490
 7822W        W79548  15.553   4.606  11.590
 7823W        W79549  31.670  15.357   4.186
 7824W        W79550  13.672  20.251  13.254
 7825W        W79551  13.255  42.348   4.531
 7826W        W79552  34.952   7.243   9.773
 7827W        W79553  23.985   4.790   0.717
 7828W        W79554  27.401  20.827  14.594
 7829W        W79555   3.389  40.017   2.184
 7830W        W79556  24.544  40.997   0.423
 7831W        W79557  33.474  39.623  12.593
 7832W        W79558   8.742  26.914   3.386
 7833W        W79559  44.481  13.366  12.453
 7834W        W79560   3.968   6.776  13.834
 7835W        W79561  14.915   7.839   2.100
 7836W        W79562   7.874  29.526  13.588
 7837W        W79563   3.711  39.641   3.047
 7838W        W79564  40.001  15.771  14.906
 7839W        W79565   6.684  35.084  13.896
 7840W        W79566   6.006  42.231   0.482
 7841W        W79567  42.917  35.936   0.662
 7842W        W79568  20.725  23.123  12.451
 7843W        W79569  12.605  16.682   3.603
 7844W        W79570   3.330  12.167  11.446
 7845W        W79571  10.650  18.012  12.935
 7846W        W79572  19.792  14.668   0.223
 7847W        W79573  23.841  18.038   1.176
 7848W        W79574   5.035  10.306   2.635
 7849W        W79575  39.367  17.540   3.770
 7850W        W79576  33.360  36.446   3.213
 7851W        W79577  20.364   5.829   2.738
 7852W        W79578  33.926  38.134  14.377
 7853W        W79579   2.420  32.059   4.601
 7854W        W79580  20.673  20.493  12.793
 7855W        W79581  37.729  21.244   4.094
 7856W        W79582  34.919  39.306  13.518
 7857W        W79583  30.341   0.962  13.822
 7858W        W79584  23.475  42.486   1.832
 7859W        W79585  40.062  30.518   2.808
 7860W        W79586  14.924  13.595   3.648
 7861W        W79587  37.887  37.515   0.549
 7862W        W79588  19.772   0.398  12.301
 7863W        W79589  26.502  40.433   1.852
 7864W        W79590  31.066   9.538   0.875
 7865W        W79591  22.066   6.444  14.426
 7866W        W79592   9.008  14.984  13.318
 7867W        W79593  16.159   7.902   2.582
 7868W        W79594  22.217  14.215   3.912
 7869W        W79595  22.015  41.761  13.894
 7870W        W79596  18.775  34.998  13.443
 7871W        W79597  37.789  27.038  11.426
 7872W        W79598  30.189   0.719   3.613
 7873W        W79599   7.479  29.227  13.376
 7874W        W79600  19.204  32.179   1.896
 7875W        W79601   8.824  42.521   3.174
 7876W        W79602  39.881   9.849  13.057
 7877W        W79603   8.359  29.709  14.390
 7878W        W79604  38.611  30.867   3.841
 7879W        W79605  19.956   3.749  12.961
 7880W        W79606   6.272  38.595  13.590
 7881W        W79607  34.914   0.172   0.259
 7882W        W79608  20.544  43.018   2.709
 7883W        W79609   9.627  44.841  10.668
 7884W        W79610   4.740  31.075   4.638
 7885W        W79611  10.664  33.573   3.692
 7886W        W79612   1.905  25.266   2.321
 7887W        W79613  36.136  41.781  12.405
 7888W        W79614  21.121   9.866  11.642
 7889W        W79615  27.171  16.015   3.256
 7890W        W79616  32.859   8.912   1.342
 7891W        W79617   0.247   6.951   0.219
 7892W        W79618  37.386   4.699   3.206
 7893W        W79619  41.805   0.590  13.408
 7894W        W79620  37.933  13.598   3.961
 7895W        W79621  18.430  29.458  14.491
 7896W        W79622  28.469  42.070  14.590
 7897W        W79623  32.020  12.723   0.229
 7898W        W79624  12.669  19.660   1.256
 7899W        W79625  16.028  28.910  12.954
 7900W        W79626  13.134  14.330   4.757
 7901W        W79627  41.103   4.309   2.115
 7902W        W79628  37.061  10.875  12.978
 7903W        W79629  33.233  30.453  12.996
 7904W        W79630   7.231  38.808  11.479
 7905W        W79631  31.637   8.280   1.400
 7906W        W79632  28.631  23.498   1.364
 7907W        W79633  12.361  38.053  13.555
 7908W        W79634   2.255  15.371  14.743
 7909W        W79635  15.097  35.451   0.838
 7910W        W79636   1.055  34.170   2.666
 7911W        W79637  35.517   4.266  13.543
 7912W        W79638  18.764  36.882   4.075
 7913W        W79639   6.414  36.330   4.125
 7914W        W79640  26.025  31.647   3.007
 7915W        W79641  15.281  15.745  13.919
 7916W        W79642   4.765  34.926   1.256
 7917W        W79643  15.133   4.297   4.289
 7918W        W79644   0.510  30.962   0.741
 7919W        W79645  25.069  34.834  13.035
 7920W        W79646  20.256  11.268   3.882
 7921W        W79647   6.823  27.885  12.031
 7922W        W79648  36.552  15.175   1.695
 7923W        W79649  31.875  25.071   2.948
 7924W        W79650   3.374  36.420  14.086
 7925W        W79651  36.626  25.015  11.657
 7926W        W79652  23.717  23.102  12.121
 7927W        W79653   0.562  20.508   1.754
 7928W        W79654  20.471  36.900  12.703
 7929W        W79655   8.847  21.124   1.184
 7930W        W79656  16.331  31.174  14.302
 7931W        W79657  44.884  20.676   0.530
 7932W        W79658  29.627  28.625  13.016
 7933W        W79659  21.844  42.846   0.833
 7934W        W79660  20.938   2.618  13.449
 7935W        W79661  23.320  35.551   3.768
 7936W        W79662  11.587  40.949   1.499
 7937W        W79663   1.789   8.948   0.863
 7938W        W79664  31.058   1.471  13.344
 7939W        W79665  15.091   5.339  11.777
 7940W        W79666  36.232  14.615  14.463
 7941W        W79667   5.347  32.239  14.199
 7942W        W79668  18.643  12.112  11.616
 7943W        W79669  32.891  19.479  12.002
 7944W        W79670  12.823   2.296  13.836
 7945W        W79671  17.191  33.904  13.573
 7946W        W79672   7.783   4.621   9.681
 7947W        W79673  22.466   4.835   4.163
 7948W        W79674  20.990  28.891   2.153
 7949W        W79675   4.152  38.587   0.456
 7950W        W79676  14.806  33.569  12.996
 7951W        W79677   2.506  33.383  14.225
 7952W        W79678  16.264  20.201  11.131
 7953W        W79679   0.804  22.583   0.315
 7954W        W79680   3.467   3.245   4.682
 7955W        W79681  29.388  11.872   1.378
 7956W        W79682  38.944  21.543  10.741
 7957W        W79683  39.187  22.646  14.764
 7958W        W79684   2.240   6.651  10.591
 7959W        W79685  43.677  17.619   1.104
 7960W        W79686   6.150  35.376   0.930
 7961W        W79687  28.194  17.000  12.619
 7962W        W79688  25.603  39.003  12.828
 7963W        W79689  39.395  22.800   0.199
 7964W        W79690  40.412  44.208   1.295
 7965W        W79691   2.957  33.223  12.498
 7966W        W79692   4.184  43.068   2.813
 7967W        W79693  39.379  33.392   2.881
 7968W        W79694  31.658  37.090   2.206
 7969W        W79695  33.427   4.499  10.518
 7970W        W79696  23.704   0.876  13.822
 7971W        W79697  42.739  30.706   1.509
 7972W        W79698  17.666  32.040  11.095
 7973W        W79699   9.243  14.681  11.168
 7974W        W79700  17.343  20.795   3.162
 7975W        W79701  26.280  26.025   3.168
 7976W        W79702  17.310  32.842   4.640
 7977W        W79703  44.600  38.016  13.907
 7978W        W79704  24.506   1.307   3.787
 7979W        W79705  15.062  15.352  11.103
 7980W        W79706  19.744  42.630  12.757
 7981W        W79707  13.745  12.102   0.906
 7982W        W79708   9.855  21.114  14.019
 7983W        W79709   7.304  39.285  10.588
 7984W        W79710  35.824  32.004   0.658
 7985W        W79711  34.599  25.249   3.925
 7986W        W79712  32.367  34.600   4.520
 7987W        W79713   8.528  26.793   4.343
 7988W        W79714  44.440  39.990  11.915
 7989W        W79715   7.460  11.449   1.820
 7990W        W79716  15.197  10.094  12.642
 7991W        W79717  13.139  11.735   4.793
 7992W        W79718  32.136  10.265  12.426
 7993W        W79719   5.875  12.025  10.602
 7994W        W79720   7.175  34.116  14.344
 7995W        W79721  36.410  39.075   4.119
 7996W        W79722  25.988  19.098  13.910
 7997W        W79723  17.093  20.194   4.316
 7998W        W79724  32.994  22.620   0.756
 7999W        W79725  16.388   5.222   2.400
 8000W        W79726  30.006  11.587  10.589
 8001W        W79727   3.251  37.077   2.374
 8002W        W79728  22.755   0.793   4.987
 8003W        W79729   5.105  31.601  12.470
 8004W        W79730   9.333   4.670  14.026
 8005W        W79731  31.467  18.547   3.833
 8006W        W79732  30.027  18.090   3.196
 8007W        W79733  26.451  20.882   5.170
 8008W        W79734  19.006  42.550   0.076
 8009W        W79735  11.976  11.946  11.923
 8010W        W79736  33.857   6.223   3.795
 8011W        W79737  27.210  21.174   3.893
 8012W        W79738   8.814   1.539   0.789
 8013W        W79739  20.195  19.088  10.730
 8014W        W79740  21.965   8.201   0.661
 8015W        W79741  38.841  20.504   3.816
 8016W        W79742  13.918  17.724   0.720
 8017W        W79743   4.172  36.356   0.762
 8018W        W79744  25.592  20.092  13.038
 8019W        W79745   9.365   3.053   4.145
 8020W        W79746   3.874  31.678   0.053
 8021W        W79747  13.236  12.761   4.082
 8022W        W79748   4.405  43.024  13.117
 8023W        W79749  17.232   8.687  12.306
 8024W        W79750   4.937  16.615  12.475
 8025W        W79751  38.492  14.247   4.597
 8026W        W79752  33.301  24.726   4.601
 8027W        W79753  16.562   0.292   2.244
 8028W        W79754   1.782   7.957  11.146
 8029W        W79755  15.770  17.882   0.860
 8030W        W79756  22.640   4.334  10.390
 8031W        W79757  24.759  18.475  13.412
 8032W        W79758  29.113  27.044   2.455
 8033W        W79759   5.218  10.740  10.870
 8034W        W79760  10.218   3.998   2.873
 8035W        W79761  22.207  20.412  13.298
 8036W        W79762  42.006  14.559  10.570
 8037W        W79763   3.199   4.416   2.943
 8038W        W79764  13.648  30.543  13.399
 8039W        W79765   5.760  11.323   0.863
 8040W        W79766  11.182   2.001  13.810
 8041W        W79767  40.361  35.515   3.092
 8042W        W79768  43.459  38.438   2.677
 8043W        W79769  12.132  42.393   3.745
 8044W        W79770  31.137  29.510   4.511
 8045W        W79771  27.172  13.684  12.962
 8046W        W79772  21.911   5.912  11.155
 8047W        W79773  10.366  35.414   3.122
 8048W        W79774  15.356  32.807  14.629
 8049W        W79775  18.281  18.198   3.278
 8050W        W79776  17.207  34.396  10.609
 8051W        W79777   4.898   1.769  12.025
 8052W        W79778  24.068  19.062   2.659
 8053W        W79779  31.808  44.027  14.267
 8054W        W79780  18.210  44.895   2.758
 8055W        W79781  28.229  41.034  13.908
 8056W        W79782  26.353   4.795  13.779
 8057W        W79783  32.936  21.768  14.812
 8058W        W79784  43.315  14.665  13.933
 8059W        W79785  44.487   7.156   0.815
 8060W        W79786  21.775  34.840   3.053
 8061W        W79787  13.021  41.971  13.794
 8062W        W79788  32.146  35.097   0.448
 8063W        W79789  32.672   6.338   0.368
 8064W        W79790  29.551  23.538   2.936
 8065W        W79791  12.317  44.561   4.369
 8066W        W79792  13.128  41.223   1.665
 8067W        W79793  32.559   9.468  10.605
 8068W        W79794  21.756  31.556   0.377
 8069W        W79795   3.736  24.184  14.286
 8070W        W79796  41.883  40.277   4.783
 8071W        W79797  13.834   8.887  10.731
 8072W        W79798   1.795  36.415  14.335
 8073W        W79799  11.780  26.815   0.063
 8074W        W79800  16.247  36.149  13.806
 8075W        W79801   6.552  13.069  13.006
 8076W        W79802   1.246  42.463  11.863
 8077W        W79803   3.696   9.230   0.445
 8078W        W79804  27.947  32.054  12.574
 8079W        W79805  38.592   2.675   0.545
 8080W        W79806  14.725  28.273  14.515
 8081W        W79807   4.945   2.205  12.325
 8082W        W79808  31.857  31.223   1.951
 8083W        W79809  11.753  22.997  13.158
 8084W        W79810  10.605  36.689   2.250
 8085W        W79811  14.411   5.182   0.218
 8086W        W79812  34.587   3.344  13.645
 8087W        W79813  22.473  43.335  11.032
 8088W        W79814   0.390  14.667   0.842
 8089W        W79815  30.950   3.787   1.950
 8090W        W79816  11.657  43.902  11.396
 8091W        W79817  32.383   4.904  13.446
 8092W        W79818  21.187  36.118  14.797
 8093W        W79819  36.494  10.599  11.173
 8094W        W79820  32.769  34.332  11.708
 8095W        W79821   5.679   9.619   2.210
 8096W        W79822  31.888   8.948   1.708
 8097W        W79823   8.821  40.097   1.046
 8098W        W79824  11.766  22.283  13.544
 8099W        W79825  43.800  29.412   0.008
 8100W        W79826  22.403  32.001  11.007
 8101W        W79827  35.326  28.349   0.880
 8102W        W79828  39.836  43.353   4.320
 8103W        W79829  12.128  11.081  14.113
 8104W        W79830  15.190  27.074   1.152
 8105W        W79831  38.137  43.750  11.991
 8106W        W79832  44.325  32.601   1.018
 8107W        W79833  19.203  22.563   4.408
 8108W        W79834  10.572  41.911  10.669
 8109W        W79835  17.479  26.579   3.509
 8110W        W79836  37.553  19.661   3.467
 8111W        W79837   2.743   5.711  14.742
 8112W        W79838  11.617  32.609   4.899
 8113W        W79839  22.472   3.687   3.605
 8114W        W79840  29.303   0.107  10.746
 8115W        W79841   2.676  27.695   0.830
 8116W        W79842   4.942  20.239   1.670
 8117W        W79843  24.646  22.724  14.973
 8118W        W79844  25.990  15.331  12.882
 8119W        W79845   9.392   2.193  13.000
 8120W        W79846  28.073  26.064   2.154
 8121W        W79847  12.411   2.894  12.981
 8122W        W79848  23.935  24.269   0.783
 8123W        W79849   5.325  40.973  14.940
 8124W        W79850   5.874  28.743   0.764
 8125W        W79851  20.205  20.685   2.395
 8126W        W79852  29.466   1.775  12.484
 8127W        W79853  28.284  11.286  12.026
 8128W        W79854  39.419   2.339   3.797
 8129W        W79855  21.792  11.761  10.454
 8130W        W79856  32.020  44.358   0.077
 8131W        W79857   3.146  30.494   4.125
 8132W        W79858   8.777  21.220   3.189
 8133W        W79859  27.597  11.748   2.677
 8134W        W79860  27.207   7.457  11.173
 8135W        W79861  22.956  16.917  11.102
 8136W        W79862  10.536  22.686  14.391
 8137W        W79863  30.527   3.915  13.751
 8138W        W79864  19.001  31.146  11.222
 8139W        W79865  36.236  11.795  14.894
 8140W        W79866  24.585  39.760  13.909
 8141W        W79867  15.338  17.693   3.428
 8142W        W79868   7.935  25.313   5.026
 8143W        W79869  13.388  29.102   0.817
 8144W        W79870  15.081   5.847   4.782
 8145W        W79871  42.533  18.213  12.290
 8146W        W79872   1.062  41.233  14.874
 8147W        W79873  39.918   2.460  14.400
 8148W        W79874  44.543  41.307   2.982
 8149W        W79875   2.596  32.454  14.341
 8150W        W79876  35.739   4.171  11.220
 8151W        W79877  32.163  39.810  14.819
 8152W        W79878  10.334  41.827  14.361
 8153W        W79879  43.288  27.555  11.798
 8154W        W79880  12.655  38.080  12.921
 8155W        W79881   2.228  34.060  14.796
 8156W        W79882   7.148  37.412  12.967
 8157W        W79883  13.123   6.157   0.318
 8158W        W79884  12.336   6.265  13.111
 8159W        W79885  16.201  18.578   4.765
 8160W        W79886   6.715  16.808   1.266
 8161W        W79887  39.778  23.678  13.913
 8162W        W79888  27.934   7.879   0.883
 8163W        W79889  32.584  33.470   3.252
 8164W        W79890  25.181  21.097  13.517
 8165W        W79891  19.161  19.139  14.042
 8166W        W79892  22.307  39.573   2.128
 8167W        W79893  39.284  37.113  14.372
 8168W        W79894   7.418  36.438  12.430
 8169W        W79895  44.806  41.002  10.586
 8170W        W79896   8.748  14.232  14.397
 8171W        W79897  26.965  40.218  12.674
 8172W        W79898  20.300  25.201  10.710
 8173W        W79899  14.810  21.786  14.949
 8174W        W79900  29.924  23.549   3.304
 8175W        W79901   8.891  22.741   4.375
 8176W        W79902  29.198   3.248  13.368
 8177W        W79903  21.049  21.672  13.435
 8178W        W79904   0.545  34.029   2.798
 8179W        W79905   5.381  44.249   4.503
 8180W        W79906  40.420   8.853  11.516
 8181W        W79907  36.420  23.464   2.399
 8182W        W79908   4.360   3.823   1.780
 8183W        W79909  32.846  32.208  12.158
 8184W        W79910  44.872  37.856  13.502
 8185W        W79911   1.266  31.984   1.947
 8186W        W79912  28.469  38.523   0.942
 8187W        W79913   1.889  37.515  13.756
 8188W        W79914  33.935   1.348  14.787
 8189W        W79915  38.549  13.786   1.732
 8190W        W79916  11.320  36.576  10.592
 8191W        W79917   1.438  32.424  10.647
 8192W        W79918  31.793  26.027  12.357
 8193W        W79919  20.158  44.901  14.311
 8194W        W79920  42.306  23.692  13.592
 8195W        W79921  40.989  24.590  13.516
 8196W        W79922   0.255  15.292   4.098
 8197W        W79923  18.644   3.213   0.343
 8198W        W79924  24.830   7.724  14.470
 8199W        W79925  14.730  22.175   1.325
 8200W        W79926  27.655   0.995  13.911
 8201W        W79927   7.869  44.556  13.060
 8202W        W79928   6.625  28.081  12.625
 8203W        W79929  18.254   3.342   0.979
 8204W        W79930  34.001  42.268   3.412
 8205W        W79931  21.089  22.170  12.513
 8206W        W79932   2.178  34.676   4.059
 8207W        W79933   3.826  40.128  12.189
 8208W        W79934  20.368  22.277  12.000
 8209W        W79935   5.982  37.527   5.047
 8210W        W79936  30.465   5.476   4.195
 8211W        W79937  17.446  38.010  11.089
 8212W        W79938  40.385  32.917   3.362
 8213W        W79939   8.373   1.880  12.046
 8214W        W79940  31.511  23.888  13.555
 8215W        W79941  42.338  41.354   1.522
 8216W        W79942   3.307  40.663  14.284
 8217W        W79943  21.758  27.629  13.900
 8218W        W79944  13.663  36.059  11.185
 8219W        W79945  29.437   9.114  11.984
 8220W        W79946   3.748  13.328   1.438
 8221W        W79947   9.563  33.321   4.974
 8222W        W79948   3.715  24.960   3.889
 8223W        W79949  41.418  11.643   2.076
 8224W        W79950  35.503  26.915  14.500
 8225W        W79951  23.256  29.480   2.324
 8226W        W79952  11.448   9.111   3.115
 8227W        W79953   6.781  31.146   4.437
 8228W        W79954  29.533  38.888  14.777
 8229W        W79955  37.568   2.001  11.171
 8230W        W79956  36.580  42.659   1.675
 8231W        W79957  34.889  11.708  13.622
 8232W        W79958  14.183  23.605   3.953
 8233W        W79959  43.513  28.225  11.147
 8234W        W79960  28.409  37.396  10.716
 8235W        W79961  35.041   8.805   0.026
 8236W        W79962  25.695  20.542   3.224
 8237W        W79963  10.366  33.010   4.675
 8238W        W79964  34.949  24.480  11.135
 8239W        W79965  10.163  34.649  10.549
 8240W        W79966  12.101  24.386  10.990
 8241W        W79967  26.177  12.260   4.876
 8242W        W79968  26.513  25.463  11.964
 8243W        W79969  14.179  21.058  13.724
 8244W        W79970  18.166  24.252  14.740
 8245W        W79971   7.915   5.257  10.111
 8246W        W79972  14.612   2.235  14.808
 8247W        W79973  38.363   9.813  13.784
 8248W        W79974  35.963   6.128   1.650
 8249W        W79975   0.232  39.544   2.276
 8250W        W79976  40.537  31.570  11.620
 8251W        W79977   4.685  34.044   3.976
 8252W        W79978   5.458  41.033   0.527
 8253W        W79979  39.218  14.695   0.417
 8254W        W79980  30.591  34.041   1.795
 8255W        W79981  30.045  16.849  14.779
 8256W        W79982  29.184  33.936  11.128
 8257W        W79983   7.362   6.816   1.441
 8258W        W79984   3.666  34.551  11.976
 8259W        W79985  33.360  23.740  11.027
 8260W        W79986  11.106  13.650  14.347
 8261W        W79987   2.247  40.641  11.554
 8262W        W79988   6.975  35.107  13.010
 8263W        W79989  26.698  38.629   2.353
 8264W        W79990  23.490  28.821  13.527
 8265W        W79991  43.251  29.033   0.811
 8266W        W79992   4.304   4.826  12.184
 8267W        W79993  18.586  41.870   1.047
 8268W        W79994   1.161  33.955  13.844
 8269W        W79995  20.097  11.387   0.461
 8270W        W79996  29.625  29.068  14.428
 8271W        W79997  35.375  28.932   2.220
 8272W        W79998  28.893  26.639   4.123
 8273W        W79999  25.110  28.515   3.374
 8274W        W80000  39.968  42.815   2.765
 8275W        W80001  32.449  21.211  14.463
 8276W        W80002  44.014  12.288   1.358
 8277W        W80003   4.421   8.384   4.053
 8278W        W80004   8.769  17.507  12.692
 8279W        W80005  20.089  16.708   3.278
 8280W        W80006  42.182  30.655  14.716
 8281W        W80007   3.484   2.961   0.678
 8282W        W80008   6.776  27.144   2.425
 8283W        W80009  11.594  11.696   4.959
 8284W        W80010   7.692  37.138  10.951
 8285W        W80011  30.036  19.311   1.737
 8286W        W80012  26.677   0.353   0.284
 8287W        W80013  31.044  13.662  11.880
 8288W        W80014  19.056  21.084   3.098
 8289W        W80015   8.809  29.108  10.300
 8290W        W80016  27.624   8.777   3.645
 8291W        W80017   7.911   0.877   4.526
 8292W        W80018  28.285  35.457  14.465
 8293W        W80019  33.847  14.299   3.738
 8294W        W80020   2.366  31.557   3.659
 8295W        W80021  38.674   1.120   4.264
 8296W        W80022   7.673  26.146  14.876
 8297W        W80023  33.563  34.050  11.761
 8298W        W80024   4.280  38.897   1.798
 8299W        W80025  23.646  11.790  11.817
 8300W        W80026  11.803  27.506  10.696
 8301W        W80027  24.887  40.333   2.734
 8302W        W80028   1.525  12.181   3.217
 8303W        W80029  25.138  43.458   0.273
 8304W        W80030  36.390  17.734  10.934
 8305W        W80031  21.418  38.926  11.901
 8306W        W80032  35.353  38.000  12.113
 8307W        W80033  20.203  14.886   2.281
 8308W        W80034   7.510  36.554   5.050
 8309W        W80035  12.200  35.492  12.508
 8310W        W80036  35.423  20.924   3.319
 8311W        W80037   6.189  24.991   4.543
 8312W        W80038  25.620   5.737  10.679
 8313W        W80039  21.908   4.616  10.928
 8314W        W80040  19.046   2.189   4.855
 8315W        W80041  10.291   0.175  13.022
 8316W        W80042   8.435  34.538   3.153
 8317W        W80043  20.189  10.773   0.006
 8318W        W80044   9.773  26.500  12.226
 8319W        W80045  32.512  38.949  14.798
 8320W        W80046  41.579  12.263   2.389
 8321W        W80047  15.066  40.558  11.064
 8322W        W80048  31.012  27.501   0.933
 8323W        W80049   5.247  19.883   1.419
 8324W        W80050  40.102  29.386  12.434
 8325W        W80051  16.097  17.246  11.413
 8326W        W80052   6.177  25.030  12.067
 8327W        W80053  43.977  14.761   0.771
 8328W        W80054  15.014  15.581  14.964
 8329W        W80055   6.430  38.058   3.415
 8330W        W80056  21.679   2.283   4.121
 8331W        W80057  36.811  37.541   0.389
 8332W        W80058   5.423  10.780  12.353
 8333W        W80059  34.048  26.016  10.625
 8334W        W80060  15.659  26.546   1.827
 8335W        W80061  23.650  31.677   1.009
 8336W        W80062  44.258  22.364  10.627
 8337W        W80063  38.297  24.656   3.350
 8338W        W80064  19.806  29.450   3.247
 8339W        W80065  39.326   8.755   4.090
 8340W        W80066  34.369  21.724   1.984
 8341W        W80067  36.270  37.307  14.218
 8342W        W80068  34.335  18.117  14.830
 8343W        W80069  38.867  38.054  14.489
 8344W        W80070  36.509  27.420  14.041
 8345W        W80071  31.045  23.089  12.235
 8346W        W80072  12.289  31.182   0.454
 8347W        W80073  12.576  39.419   4.531
 8348W        W80074   8.068  32.436  13.420
 8349W        W80075  28.739  36.327  11.859
 8350W        W80076  31.832  30.483   1.243
 8351W        W80077  32.392  24.234   2.774
 8352W        W80078  10.662  12.698  11.571
 8353W        W80079  41.283   4.025   1.728
 8354W        W80080  43.992  20.324   0.910
 8355W        W80081  33.611  24.994  12.647
 8356W        W80082  13.499   8.150   0.814
 8357W        W80083  28.602  17.997  11.883
 8358W        W80084  33.830  28.008  12.461
 8359W        W80085  26.675  40.741  14.472
 8360W        W80086  10.245   2.934  10.613
 8361W        W80087  31.048  38.549  12.132
 8362W        W80088   9.072  42.050   4.514
 8363W        W80089  17.153  29.883   1.523
 8364W        W80090  35.518   5.329   0.508
 8365W        W80091  13.627  34.928  13.092
 8366W        W80092  26.882  33.958  12.183
 8367W        W80093  37.914   5.844   2.924
 8368W        W80094   0.244   9.291   1.947
 8369W        W80095  44.435   8.479   2.338
 8370W        W80096  24.124  43.883  13.386
 8371W        W80097  13.202  10.927  14.768
 8372W        W80098   4.370  21.270  13.846
 8373W        W80099  37.937  26.957  14.304
 8374W        W80100  13.213  34.986  11.352
 8375W        W80101  11.354  22.811   1.814
 8376W        W80102  32.318  40.568  14.209
 8377W        W80103   0.949  14.750  10.697
 8378W        W80104  31.436  18.638   0.818
 8379W        W80105  41.854  18.688   0.379
 8380W        W80106  29.036   4.953  13.911
 8381W        W80107  13.848   9.915  12.485
 8382W        W80108  13.677  22.181  14.276
 8383W        W80109  21.975  39.806  14.914
 8384W        W80110  22.180  41.395   2.565
 8385W        W80111  41.902  13.441  14.325
 8386W        W80112  23.666  43.976  13.643
 8387W        W80113  40.029  22.141   1.056
 8388W        W80114   4.976   0.432  10.596
 8389W        W80115  26.945  34.875   0.740
 8390W        W80116  11.762  14.155   5.093
 8391W        W80117  16.851  16.758   1.205
 8392W        W80118   4.890  27.233   1.837
 8393W        W80119   1.713  42.330  14.022
 8394W        W80120  43.167  16.699   0.899
 8395W        W80121  35.464  32.089   0.306
 8396W        W80122  37.611  44.400   0.025
 8397W        W80123  21.710  41.372  12.248
 8398W        W80124  26.213  23.520  11.113
 8399W        W80125  42.532   7.639  11.444
 8400W        W80126  38.576  19.402   4.353
 8401W        W80127  39.829   5.396   4.126
 8402W        W80128   4.896  24.331  11.858
 8403W        W80129  16.327  14.643   1.769
 8404W        W80130  38.253  13.808   0.212
 8405W        W80131  14.934  43.526   0.745
 8406W        W80132   3.819  32.081   0.388
 8407W        W80133  16.745   4.552   4.834
 8408W        W80134  40.561  14.599   0.941
 8409W        W80135  32.695  31.244  14.281
 8410W        W80136  20.731  18.246   1.397
 8411W        W80137  38.136  13.300   1.378
 8412W        W80138  42.024  15.705   4.885
 8413W        W80139  40.920  43.966  14.943
 8414W        W80140   6.911  38.982   3.383
 8415W        W80141   3.760  12.260   3.059
 8416W        W80142  20.626   7.281   0.474
 8417W        W80143  36.910  10.353  13.143
 8418W        W80144  43.637  24.706  11.940
 8419W        W80145  20.190   3.958  11.142
 8420W        W80146  44.865   0.712  14.744
 8421W        W80147  19.527  44.250   1.858
 8422W        W80148   3.065   5.138  13.413
 8423W        W80149   5.690  34.511   1.922
 8424W        W80150  34.338  23.568  11.859
 8425W        W80151   4.950  12.706   3.761
 8426W        W80152  25.919  35.488   0.193
 8427W        W80153  39.419  32.375   0.327
 8428W        W80154  11.607  10.086   1.746
 8429W        W80155  31.153  24.924  11.855
 8430W        W80156  23.605   6.145   3.788
 8431W        W80157   8.804  42.600  13.989
 8432W        W80158  13.542  21.493   2.396
 8433W        W80159  39.839  36.467   3.241
 8434W        W80160  13.232  24.448   4.366
 8435W        W80161  11.155  39.495   1.171
 8436W        W80162   4.798  13.744  11.433
 8437W        W80163  30.851  22.249  12.280
 8438W        W80164  16.286   0.763   4.196
 8439W        W80165   5.847  17.903  12.952
 8440W        W80166   9.208  37.893  13.075
 8441W        W80167  16.504   0.798   2.307
 8442W        W80168   1.660  44.411  13.431
 8443W        W80169  33.250   1.671  11.131
 8444W        W80170  27.618  14.630   2.900
 8445W        W80171  17.345  41.581  11.558
 8446W        W80172  37.387   4.483  12.095
 8447W        W80173  16.323  25.782  10.671
 8448W        W80174  38.400   5.655   1.591
 8449W        W80175   6.657  40.401   4.063
 8450W        W80176  16.217  42.327  14.493
 8451W        W80177  12.854  25.312   3.737
 8452W        W80178   7.495  35.475   4.374
 8453W        W80179  31.601  10.202  11.461
 8454W        W80180  12.055  44.220  11.291
 8455W        W80181  18.698  35.367  10.671
 8456W        W80182  22.179   6.351   0.503
 8457W        W80183  30.388  13.212   2.606
 8458W        W80184  25.184  18.514   3.206
 8459W        W80185  32.352   8.434   3.854
 8460W        W80186  33.979  29.068   3.501
 8461W        W80187  27.090  25.546  13.433
 8462W        W80188  35.079  27.909  13.940
 8463W        W80189  23.229  16.792   1.743
 8464W        W80190  18.642  10.497  13.599
 8465W        W80191  41.155  12.080  13.069
 8466W        W80192  30.728  37.698  13.502
 8467W        W80193  25.696  30.943  13.392
 8468W        W80194  19.807   9.128  14.914
 8469W        W80195  26.971  19.145  10.591
 8470W        W80196  34.502  44.723  14.813
 8471W        W80197   8.506   1.936   3.371
 8472W        W80198   8.646  25.627   1.770
 8473W        W80199  40.043  41.316   2.661
 8474W        W80200   0.036  16.349  14.071
 8475W        W80201  23.706  15.024   5.085
 8476W        W80202  38.129  40.147   2.133
 8477W        W80203   8.191  37.341   2.309
 8478W        W80204  39.273   8.367   3.731
 8479W        W80205   4.029  15.582  13.873
 8480W        W80206  23.951  15.226  11.585
 8481W        W80207  36.219   4.708  11.996
 8482W        W80208   9.377   9.154  10.796
 8483W        W80209  29.531  36.907  12.165
 8484W        W80210  25.155  23.181   0.301
 8485W        W80211  41.456  14.606   4.674
 8486W        W80212  30.248  29.049  11.744
 8487W        W80213  26.262  18.368   0.341
 8488W        W80214   6.372   8.150  12.927
 8489W        W80215  17.058  35.493  13.767
 8490W        W80216  43.886   7.093  14.437
 8491W        W80217  15.206  32.093  11.019
 8492W        W80218  17.549  26.597   0.840
 8493W        W80219   5.274  14.514   1.814
 8494W        W80220  29.345  38.957   3.358
 8495W        W80221  35.154  17.600  14.577
 8496W        W80222  19.071  28.593   4.073
 8497W        W80223   2.373  36.530   4.671
 8498W        W80224  34.471   9.819  13.517
 8499W        W80225  28.555   4.466  10.683
 8500W        W80226   0.431  26.457  13.899
 8501W        W80227   0.705   9.614  11.261
 8502W        W80228   3.766   2.819   4.583
 8503W        W80229   7.898   8.312  10.744
 8504W        W80230  27.446  14.865  13.457
 8505W        W80231  28.496  15.116  14.291
 8506W        W80232  11.822  25.408   3.722
 8507W        W80233  14.674  29.534   1.896
 8508W        W80234   7.842   7.307   3.730
 8509W        W80235  41.963  10.313  11.982
 8510W        W80236  33.019  26.529  12.032
 8511W        W80237   1.342   2.953  12.212
 8512W        W80238  33.354  30.456   2.269
 8513W        W80239  25.194  39.764  12.770
 8514W        W80240  41.046  31.644  14.924
 8515W        W80241   0.768  32.026   2.603
 8516W        W80242  14.555  32.610   2.811
 8517W        W80243  30.005  40.094   4.693
 8518W        W80244  20.326   8.207   4.882
 8519W        W80245   3.861  20.493  14.410
 8520W        W80246   4.831  22.403   0.473
 8521W        W80247  19.963  23.539  13.849
 8522W        W80248   0.992   3.184   3.317
 8523W        W80249  44.811  19.010  11.209
 8524W        W80250   6.451   7.245   2.317
 8525W        W80251   9.757   3.961   0.754
 8526W        W80252   7.645  28.572   3.274
 8527W        W80253  15.202   3.254  14.555
 8528W        W80254  19.748   8.185   1.508
 8529W        W80255  41.772  43.503   1.856
 8530W        W80256  17.324  22.538   0.653
 8531W        W80257  44.903  40.943   4.132
 8532W        W80258  30.751  35.649   4.112
 8533W        W80259  39.410  25.172  12.375
 8534W        W80260  28.583   1.373  10.649
 8535W        W80261  39.653  12.482   2.343
 8536W        W80262  10.289  13.051   1.211
 8537W        W80263   5.954  34.128  12.022
 8538W        W80264   2.849  20.809   0.965
 8539W        W80265  36.391  15.741  14.442
 8540W        W80266  38.991  25.664  11.148
 8541W        W80267  38.971  11.742   1.640
 8542W        W80268  19.806   7.274  12.877
 8543W        W80269  13.772  41.477  11.875
 8544W        W80270   3.404  14.938   5.265
 8545W        W80271   3.732  35.204  10.406
 8546W        W80272   1.561  33.001   1.844
 8547W        W80273  31.334  30.039  10.508
 8548W        W80274  42.316  39.149   4.255
 8549W        W80275  43.215  12.656  10.262
 8550W        W80276  39.289  42.742  10.477
 8551W        W80277  25.815  22.462   5.018
 8552W        W80278  44.580  27.085  12.026
 8553W        W80279   5.267  11.165   0.911
 8554W        W80280   7.369  21.423  10.161
 8555W        W80281  36.937  38.472  12.467
 8556W        W80282   3.855  15.119   9.690
 8557W        W80283  13.283   3.963   0.302
 8558W        W80284   9.843  40.350  10.875
 8559W        W80285   9.637  33.583   5.422
 8560W        W80286  16.675  29.692   1.381
 8561W        W80287  30.799  39.199   3.210
 8562W        W80288   1.770   4.809  12.653
 8563W        W80289  10.686  39.551  14.897
 8564W        W80290  28.057  25.517  11.384
 8565W        W80291  35.778  35.568   4.392
 8566W        W80292  31.428  40.903  11.679
 8567W        W80293  16.340   8.520   1.458
 8568W        W80294  33.442  32.910   2.322
 8569W        W80295  30.706   2.808  11.933
 8570W        W80296  22.466  37.156  13.423
 8571W        W80297   3.382  43.174   2.806
 8572W        W80298   5.442   1.355  11.481
 8573W        W80299   4.206   8.342  12.994
 8574W        W80300  29.132  14.210  10.425
 8575W        W80301   9.261  40.400   1.207
 8576W        W80302   8.109  17.222  14.851
 8577W        W80303  24.559  32.766   3.384
 8578W        W80304  10.762  34.006   2.654
 8579W        W80305  11.627  30.631   2.564
 8580W        W80306  43.379  15.318  14.295
 8581W        W80307  43.133  42.823   5.098
 8582W        W80308  37.360  16.818   4.727
 8583W        W80309  17.306  28.228  13.839
 8584W        W80310  25.706   8.426  11.526
 8585W        W80311  40.826   5.217  13.995
 8586W        W80312   5.394  44.105  11.543
 8587W        W80313  24.530  31.662  10.597
 8588W        W80314  44.995   3.860   5.001
 8589W        W80315  34.108  37.923  13.554
 8590W        W80316  18.865  30.538  11.473
 8591W        W80317  13.752  24.268   1.282
 8592W        W80318  17.269  14.729  11.906
 8593W        W80319  41.097  42.265   0.847
 8594W        W80320   2.740  10.053  14.950
 8595W        W80321  19.516   7.290   4.316
 8596W        W80322  26.722  16.210   3.401
 8597W        W80323  14.279  39.232  14.285
 8598W        W80324  27.790   8.288   3.623
 8599W        W80325  19.240  22.865   2.631
 8600W        W80326  38.600  25.932   0.355
 8601W        W80327   7.869  22.256   1.936
 8602W        W80328  40.992   6.275  13.743
 8603W        W80329  15.058  41.644  12.928
 8604W        W80330  18.267  17.056   2.818
 8605W        W80331  32.507   8.487  13.514
 8606W        W80332  37.824  26.277  11.601
 8607W        W80333  24.079  34.502  11.732
 8608W        W80334  35.928  22.635  13.557
 8609W        W80335  15.632  37.202   9.824
 8610W        W80336   8.932  18.696   3.349
 8611W        W80337  16.476  36.458  14.515
 8612W        W80338  32.400  10.715   0.147
 8613W        W80339  12.559   5.781   3.211
 8614W        W80340   7.621  11.345  10.603
 8615W        W80341  37.510  20.852  10.571
 8616W        W80342   0.983  35.365   0.882
 8617W        W80343  39.273  40.993   1.748
 8618W        W80344  42.130  42.779   3.782
 8619W        W80345  29.754   4.005   3.341
 8620W        W80346  14.787  19.566  11.851
 8621W        W80347   1.828  40.539   0.797
 8622W        W80348  32.379  22.627  13.032
 8623W        W80349   9.654  18.765  11.118
 8624W        W80350  24.515   1.020   1.397
 8625W        W80351   7.359  32.104   4.573
 8626W        W80352  11.374   5.429  11.994
 8627W        W80353   4.863  16.157  11.495
 8628W        W80354  20.488  29.520  12.599
 8629W        W80355  13.020  43.223   1.888
 8630W        W80356  37.588  37.378   2.383
 8631W        W80357   1.536  43.743  10.717
 8632W        W80358  13.202   9.309  12.233
 8633W        W80359  12.690   8.312   0.123
 8634W        W80360   3.464  27.000   3.288
 8635W        W80361  21.498  32.558   3.194
 8636W        W80362  10.166  38.433   2.666
 8637W        W80363  16.859   9.131   1.798
 8638W        W80364  13.109  31.979   3.762
 8639W        W80365   9.974  32.357   4.351
 8640W        W80366  22.150  22.037   0.352
 8641W        W80367  17.639  33.327   2.220
 8642W        W80368  36.443  27.959   2.678
 8643W        W80369  10.947  36.770   1.288
 8644W        W80370  34.429  15.671   5.131
 8645W        W80371  20.549   1.763   2.387
 8646W        W80372  16.069  39.943  10.595
 8647W        W80373  32.460  23.053  10.103
 8648W        W80374  37.461  17.847  14.769
 8649W        W80375  36.487   1.221  12.505
 8650W        W80376  33.105  26.184   4.976
 8651W        W80377   3.973  27.168   2.434
 8652W        W80378  40.966   2.504  13.809
 8653W        W80379  41.647  20.216   0.192
 8654W        W80380  28.555  16.760  10.682
 8655W        W80381   6.195  26.238   1.921
 8656W        W80382  43.762   6.223   1.447
 8657W        W80383  36.096  42.224  11.047
 8658W        W80384   3.321  27.656   1.840
 8659W        W80385   6.518  24.769   0.956
 8660W        W80386  19.650   8.479  12.309
 8661W        W80387   1.833  10.211  14.085
 8662W        W80388  10.438   0.003  12.157
 8663W        W80389  31.992  34.577   2.900
 8664W        W80390  27.950  29.045  10.631
 8665W        W80391  36.320  30.023  14.942
 8666W        W80392  10.283  20.364  11.769
 8667W        W80393  12.686  26.441  12.898
 8668W        W80394   8.294  39.381  10.848
 8669W        W80395  22.162  12.300   9.554
 8670W        W80396  43.890  25.750  10.586
 8671W        W80397  36.926   5.872   0.420
 8672W        W80398  39.745  11.378  14.338
 8673W        W80399  10.389  37.060  13.709
 8674W        W80400  12.182  31.960  12.653
 8675W        W80401  12.206  16.338  12.065
 8676W        W80402  30.554   9.134  10.634
 8677W        W80403   9.402  36.474   0.368
 8678W        W80404  19.873  34.310   0.036
 8679W        W80405  38.314  28.077  14.090
 8680W        W80406  24.245   4.522   3.291
 8681W        W80407  10.537  15.558   3.446
 8682W        W80408   7.579  22.472   3.208
 8683W        W80409  43.057  35.452  13.927
 8684W        W80410  21.000  28.681  12.568
 8685W        W80411  18.563  39.392   2.806
 8686W        W80412   1.494  11.883  12.096
 8687W        W80413  20.691  30.190   0.835
 8688W        W80414  11.351  23.162   4.002
 8689W        W80415  13.726  15.461   1.801
 8690W        W80416  42.488  42.365  12.553
 8691W        W80417  41.823  36.067  13.953
 8692W        W80418  24.037  12.835  13.962
 8693W        W80419  18.362  28.089   1.947
 8694W        W80420  27.194   7.840  14.053
 8695W        W80421  13.821   5.808  10.784
 8696W        W80422  37.503  33.247   9.794
 8697W        W80423  35.324  31.034  11.600
 8698W        W80424  10.353   0.891   0.264
 8699W        W80425  15.983  31.821   3.704
 8700W        W80426  32.871  38.907  12.564
 8701W        W80427  24.056  13.423   5.248
 8702W        W80428  30.330   7.462  13.933
 8703W        W80429  24.181   0.884  14.741
 8704W        W80430  25.272  35.291   4.147
 8705W        W80431  44.796  40.971   0.808
 8706W        W80432  30.395  18.182  11.204
 8707W        W80433  11.676  38.258   2.715
 8708W        W80434   8.670   2.946  10.995
 8709W        W80435   5.092  37.949   2.750
 8710W        W80436  14.526  33.459   4.485
 8711W        W80437  16.573  12.260  14.002
 8712W        W80438   9.770  17.033  14.227
 8713W        W80439   9.110   1.258   3.856
 8714W        W80440  11.463   4.647  10.501
 8715W        W80441  43.786   1.329   1.729
 8716W        W80442  43.812  15.131   4.782
 8717W        W80443  23.051  10.068   2.057
 8718W        W80444   3.859  10.731   2.318
 8719W        W80445  33.705  40.955  10.670
 8720W        W80446  28.623  17.106  12.321
 8721W        W80447   8.333  10.661  14.968
 8722W        W80448  29.935  21.998  12.108
 8723W        W80449  31.902   2.638  14.424
 8724W        W80450   5.305  42.826  12.704
 8725W        W80451   4.062  40.922  13.855
 8726W        W80452  16.754  19.716  10.424
 8727W        W80453  23.998  33.299   4.483
 8728W        W80454  20.309  11.647  14.119
 8729W        W80455  41.479  13.295   0.332
 8730W        W80456   5.078   0.402   1.698
 8731W        W80457  21.318  15.583  13.174
 8732W        W80458   6.780   1.227   0.380
 8733W        W80459   1.846  42.207  13.030
 8734W        W80460  42.723   7.673  14.814
 8735W        W80461  23.073  42.007   1.276
 8736W        W80462   2.342  40.832   2.336
 8737W        W80463   1.305  36.560  10.587
 8738W        W80464  43.697  43.022   5.127
 8739W        W80465  13.954   5.899  13.434
 8740W        W80466  17.800  15.787  11.881
 8741W        W80467  26.766  30.816   3.828
 8742W        W80468   6.599  25.326   2.882
 8743W        W80469  29.149  25.127   0.259
 8744W        W80470  44.553  11.473  14.760
 8745W        W80471  34.999  43.603   4.994
 8746W        W80472   6.830  25.041  14.118
 8747W        W80473  42.826   7.335   2.275
 8748W        W80474  24.481  23.693  13.866
 8749W        W80475  24.623  36.006  11.041
 8750W        W80476  21.662  15.171   2.373
 8751W        W80477   6.445   9.644   1.693
 8752W        W80478  28.176   9.410   2.145
 8753W        W80479  36.910  10.763   4.136
 8754W        W80480   8.061  22.664   3.182
 8755W        W80481   9.629   7.864   1.988
 8756W        W80482  28.071  38.811   2.478
 8757W        W80483  13.314  40.397  10.631
 8758W        W80484  36.473  25.189  10.755
 8759W        W80485  31.154  41.805  10.576
 8760W        W80486  14.395   2.315   4.323
 8761W        W80487  22.046   9.568   2.886
 8762W        W80488   7.862  16.064   4.596
 8763W        W80489  34.891  25.077  11.911
 8764W        W80490  30.337  22.111   4.160
 8765W        W80491  42.511  20.682   2.178
 8766W        W80492  32.968  19.153   2.232
 8767W        W80493  19.773   7.206  12.374
 8768W        W80494  18.157  30.585   1.797
 8769W        W80495  28.626  12.251  12.043
 8770W        W80496   2.529   6.249   4.248
 8771W        W80497   1.347  32.606  12.573
 8772W        W80498  23.426  38.720  14.463
 8773W        W80499   0.949   6.709   2.405
 8774W        W80500  12.729   7.727   3.618
 8775W        W80501   5.951   4.069  11.948
 8776W        W80502  23.069  30.604  12.477
 8777W        W80503  28.391   3.132   5.099
 8778W        W80504  40.902   6.739   2.656
 8779W        W80505  39.533  40.886   4.743
 8780W        W80506  29.928  16.778   2.345
 8781W        W80507   4.524   2.505   4.508
 8782W        W80508  44.446  13.580  14.050
 8783W        W80509  10.852  43.427  14.647
 8784W        W80510  43.882  44.304  12.149
 8785W        W80511  17.228  42.416   1.446
 8786W        W80512  11.653  18.231   0.799
 8787W        W80513  24.913  11.711  14.896
 8788W        W80514  34.541  43.396  10.854
 8789W        W80515  13.574  31.308  11.164
 8790W        W80516  19.658  17.998   4.562
 8791W        W80517  26.380  24.755  14.495
 8792W        W80518  21.074   6.347   2.837
 8793W        W80519   6.182  23.123  10.654
 8794W        W80520  38.008   9.362  10.915
 8795W        W80521  34.417  17.986  13.420
 8796W        W80522  36.092  12.745  14.986
 8797W        W80523  27.670  30.877  13.539
 8798W        W80524   2.255  37.343  10.400
 8799W        W80525   5.179  24.169  10.633
 8800W        W80526  14.701   4.762  10.110
 8801W        W80527   1.877  35.302  13.996
 8802W        W80528  11.868   8.705  10.586
 8803W        W80529  28.069  30.026   2.163
 8804W        W80530   7.702  33.390   2.937
 8805W        W80531  42.763   0.568   3.803
 8806W        W80532  41.741  36.548  14.926
 8807W        W80533   7.691  15.076   0.765
 8808W        W80534  34.267  14.314  11.197
 8809W        W80535  18.066  17.742  10.707
 8810W        W80536  13.823   8.175  14.919
 8811W        W80537  13.854  33.673   0.845
 8812W        W80538   9.017  35.188   2.642
 8813W        W80539  32.912  17.568   3.155
 8814W        W80540  20.088  27.499  10.329
 8815W        W80541  13.990  23.665  10.615
 8816W        W80542   9.678   6.748  13.313
 8817W        W80543   1.105   4.088  13.035
 8818W        W80544  22.656  19.655   3.741
 8819W        W80545  31.290   4.071  13.405
 8820W        W80546  38.669  24.386  14.733
 8821W        W80547  16.994  26.963   2.524
 8822W        W80548  38.386  19.591   2.911
 8823W        W80549   5.230  41.765  13.973
 8824W        W80550   6.364   2.479  11.624
 8825W        W80551  36.377  17.817   3.769
 8826W        W80552   8.397  39.612   1.836
 8827W        W80553  44.583  13.546  12.932
 8828W        W80554  18.923  37.782  14.438
 8829W        W80555  37.446   9.128  12.798
 8830W        W80556   7.775  42.018  11.242
 8831W        W80557  29.393   8.464  13.425
 8832W        W80558  15.694  30.468  13.099
 8833W        W80559  25.572  18.778   3.437
 8834W        W80560  25.667  29.400   4.165
 8835W        W80561  22.399  14.654   4.111
 8836W        W80562   9.783  31.570  14.355
 8837W        W80563  13.168   2.379  13.016
 8838W        W80564  16.348  10.254   3.362
 8839W        W80565   5.797  12.790  13.110
 8840W        W80566   1.410  30.406   0.937
 8841W        W80567  23.849  14.303  13.001
 8842W        W80568   6.163   7.132  13.964
 8843W        W80569  38.308  22.685   1.364
 8844W        W80570  28.449  31.699  13.448
 8845W        W80571   3.356  33.557   4.697
 8846W        W80572  34.203   8.873   0.384
 8847W        W80573  44.308  28.686   2.385
 8848W        W80574  20.511   1.290   1.340
 8849W        W80575  11.216  31.858  14.908
 8850W        W80576  11.648   4.935   2.645
 8851W        W80577  17.974   2.441  12.057
 8852W        W80578   7.940  42.822  11.599
 8853W        W80579   4.409  16.683  10.852
 8854W        W80580  37.054   9.157  12.476
 8855W        W80581  44.310  36.500   3.614
 8856W        W80582  10.206   8.593  11.931
 8857W        W80583  25.467   8.687  14.738
 8858W        W80584  40.482   3.162   1.325
 8859W        W80585  28.923  37.785   3.752
 8860W        W80586  34.931  44.488   2.378
 8861W        W80587  24.438  17.562   0.731
 8862W        W80588  20.046   4.887   0.018
 8863W        W80589  41.014  44.995  14.777
 8864W        W80590  30.515  18.123   3.759
 8865W        W80591  28.916  23.242   2.209
 8866W        W80592  44.040  22.185  14.532
 8867W        W80593   5.009  12.193  13.073
 8868W        W80594   5.508  18.256   1.924
 8869W        W80595  43.610  23.560  12.076
 8870W        W80596  36.872  18.498  14.790
 8871W        W80597  38.978  17.405   4.110
 8872W        W80598   5.770   1.789   0.420
 8873W        W80599  12.535  22.542  14.382
 8874W        W80600  27.184  44.074  10.668
 8875W        W80601  41.463   4.424   3.260
 8876W        W80602  35.592  27.649   2.433
 8877W        W80603  28.153   2.513   4.040
 8878W        W80604  37.988  16.607   0.451
 8879W        W80605   6.917  13.450  12.874
 8880W        W80606  29.472  11.608   3.435
 8881W        W80607  11.623  41.824   1.122
 8882W        W80608  28.275  31.104  12.972
 8883W        W80609  18.831  16.980  12.956
 8884W        W80610  19.733  35.292   2.059
 8885W        W80611  19.599   2.423  13.768
 8886W        W80612  25.955   7.117  11.394
 8887W        W80613  15.285  21.282  12.450
 8888W        W80614  38.855   2.934   1.811
 8889W        W80615  31.861  34.905  14.998
 8890W        W80616  23.230   8.183   3.718
 8891W        W80617  36.822  22.816   1.756
 8892W        W80618  20.569  26.727  13.378
 8893W        W80619  21.588  13.324  11.561
 8894W        W80620  15.574   5.968   3.631
 8895W        W80621  13.686  20.763   0.092
 8896W        W80622  17.516  13.351  12.031
 8897W        W80623  13.539  30.259  11.065
 8898W        W80624  43.496  23.668  11.585
 8899W        W80625  27.106  15.527   0.894
 8900W        W80626  33.242   3.304   0.074
 8901W        W80627   0.692  16.901  10.998
 8902W        W80628   6.204   5.346   4.607
 8903W        W80629  16.197  23.742  13.922
 8904W        W80630  25.033  34.414   2.573
 8905W        W80631  21.177  34.801   4.361
 8906W        W80632  35.459   4.163  14.419
 8907W        W80633  39.517  16.617  12.902
 8908W        W80634   5.602   3.619   1.713
 8909W        W80635   3.473  41.419   2.966
 8910W        W80636  20.970  15.606   0.376
 8911W        W80637  30.081  39.784   2.775
 8912W        W80638  41.055  42.826   1.966
 8913W        W80639  15.639  29.989   4.573
 8914W        W80640  33.153  41.972   4.578
 8915W        W80641   9.230  30.622  10.313
 8916W        W80642  12.595   4.176   1.778
 8917W        W80643  43.334  37.793  14.457
 8918W        W80644  29.531  13.596   2.209
 8919W        W80645  44.206  20.066  14.439
 8920W        W80646  41.355  41.570   1.983
 8921W        W80647  18.518   9.837  12.263
 8922W        W80648  39.566  21.287   0.338
 8923W        W80649  25.498   8.125  13.930
 8924W        W80650  21.502  18.981   2.349
 8925W        W80651   9.077   7.417   4.237
 8926W        W80652  15.344  18.598  11.604
 8927W        W80653  37.149  21.988   4.117
 8928W        W80654  21.432  13.207   3.945
 8929W        W80655   1.637  32.116   4.181
 8930W        W80656   1.405  39.357   3.577
 8931W        W80657  15.174   6.617  12.158
 8932W        W80658  17.839   2.389   2.295
 8933W        W80659  17.129   7.618  11.098
 8934W        W80660  23.969  41.320   3.236
 8935W        W80661  43.830   1.716  11.916
 8936W        W80662  42.703  23.050  13.617
 8937W        W80663  19.744  30.345   3.835
 8938W        W80664   1.353  38.516   4.476
 8939W        W80665  24.471  44.896  12.453
 8940W        W80666  26.031  14.571  14.517
 8941W        W80667  27.249  43.759  11.083
 8942W        W80668  28.139  21.159  13.988
 8943W        W80669  38.688  35.401   0.200
 8944W        W80670   6.324  34.753   4.169
 8945W        W80671  43.954  23.032  13.434
 8946W        W80672  34.876   6.724  10.871
 8947W        W80673   7.813  24.056  14.433
 8948W        W80674  17.083   1.242  12.035
 8949W        W80675  20.168  37.340   3.125
 8950W        W80676  20.040  15.601   2.735
 8951W        W80677  19.475  42.366  14.953
 8952W        W80678  25.699  19.803  14.952
 8953W        W80679  18.209  11.077   2.896
 8954W        W80680  17.498  13.196   1.450
 8955W        W80681   8.156  27.278  11.914
 8956W        W80682  22.780   7.680   3.241
 8957W        W80683  28.367  39.996   0.673
 8958W        W80684  25.838  41.540  11.601
 8959W        W80685  36.083  24.003   4.357
 8960W        W80686  40.824  21.793   2.597
 8961W        W80687  34.831  43.199   0.402
 8962W        W80688  10.786   1.415   0.689
 8963W        W80689   0.688  38.258   4.010
 8964W        W80690   7.004  19.222   2.280
 8965W        W80691  10.206  22.101   0.417
 8966W        W80692  15.521   7.662  12.461
 8967W        W80693  39.406  30.509   4.122
 8968W        W80694  30.146  29.412  13.009
 8969W        W80695   2.008  28.097   4.713
 8970W        W80696   7.864   7.877   1.243
 8971W        W80697  24.108  38.145   3.210
 8972W        W80698   6.307  18.166   1.164
 8973W        W80699  28.934  18.722  12.781
 8974W        W80700  28.618  39.305   0.365
 8975W        W80701  35.652  41.009   1.413
 8976W        W80702  23.609  31.039   3.360
 8977W        W80703  28.407  12.599   1.385
 8978W        W80704  29.611  21.735   4.187
 8979W        W80705  37.001  30.505  11.161
 8980W        W80706  15.249  28.187  14.786
 8981W        W80707  37.904  16.120   3.608
 8982W        W80708   9.743  32.579  10.729
 8983W        W80709   8.915  35.577  10.962
 8984W        W80710   0.749  34.431   4.647
 8985W        W80711  27.064   9.316  10.340
 8986W        W80712  36.570  36.939  12.426
 8987W        W80713  15.858  31.017  11.968
 8988W        W80714  33.342   5.299  11.946
 8989W        W80715  26.247  32.794  14.981
 8990W        W80716   5.260  32.386  11.939
 8991W        W80717  11.811   8.228   1.481
 8992W        W80718  33.858  23.492   2.794
 8993W        W80719   6.354  44.189   0.876
 8994W        W80720  20.009   8.612   9.959
 8995W        W80721  18.741  30.117   1.895
 8996W        W80722  23.888  10.820   0.372
 8997W        W80723   6.154   7.245   0.270
 8998W        W80724  44.037  29.586   0.918
 8999W        W80725   6.941  28.211   1.279
 9000W        W80726   7.240   2.209  12.467
 9001W        W80727  29.482  18.220  12.828
 9002W        W80728  24.266  20.128  14.277
 9003W        W80729  36.674  32.372   2.294
 9004W        W80730  30.164  22.611  14.326
 9005W        W80731  24.289   9.378   1.505
 9006W        W80732  29.853  24.196  14.584
 9007W        W80733  26.034   9.157   0.303
 9008W        W80734  14.592  41.404   4.245
 9009W        W80735  11.353  17.644   2.770
 9010W        W80736  22.032  32.980   3.309
 9011W        W80737  18.997  25.907  13.122
 9012W        W80738   1.220  39.665   3.165
 9013W        W80739  39.885  27.054   3.704
 9014W        W80740  32.900  42.984   4.491
 9015W        W80741   3.805  13.871  11.859
 9016W        W80742  13.763  13.121  14.424
 9017W        W80743  15.809  32.062   4.969
 9018W        W80744  24.055   2.526   2.171
 9019W        W80745  42.430   0.517   1.802
 9020W        W80746  18.025  33.174   4.040
 9021W        W80747   3.141  32.255   1.895
 9022W        W80748  43.959  31.523  10.666
 9023W        W80749   8.034  11.152  10.352
 9024W        W80750  14.913  21.545  14.433
 9025W        W80751   4.408   3.029   1.120
 9026W        W80752  35.105   2.360   2.432
 9027W        W80753  18.212  29.548   0.008
 9028W        W80754  19.262  21.073   3.607
 9029W        W80755   6.343  25.639  14.290
 9030W        W80756  34.039  31.440  13.950
 9031W        W80757  35.567   7.358  14.856
 9032W        W80758  35.453  29.551  14.479
 9033W        W80759  40.873  40.459   2.470
 9034W        W80760   6.901  27.924   3.029
 9035W        W80761  25.170  28.366  14.784
 9036W        W80762   6.221  29.049  10.762
 9037W        W80763  44.512  35.508   0.157
 9038W        W80764  28.416  21.614  10.887
 9039W        W80765  19.778  13.754   0.353
 9040W        W80766  36.663  24.640   4.175
 9041W        W80767   0.350  36.529   2.900
 9042W        W80768  41.672  36.083   4.696
 9043W        W80769  18.284   3.120  13.828
 9044W        W80770  26.046  44.736   1.806
 9045W        W80771   9.695  14.578  10.514
 9046W        W80772  14.246  18.109  10.740
 9047W        W80773  17.938   3.297   3.332
 9048W        W80774   3.500  26.634  11.133
 9049W        W80775  37.486  20.713  14.324
 9050W        W80776  29.923  41.947  14.009
 9051W        W80777  12.631  40.336   1.790
 9052W        W80778   3.014  15.210   0.766
 9053W        W80779  14.341  31.639  13.529
 9054W        W80780   3.887  42.679   0.003
 9055W        W80781  11.188  27.314   4.630
 9056W        W80782   6.256   5.905  13.900
 9057W        W80783  24.648  30.116   4.661
 9058W        W80784  16.161   4.376   2.687
 9059W        W80785  41.329  39.052   0.376
 9060W        W80786  33.727  39.965  12.954
 9061W        W80787   9.709  12.176  11.963
 9062W        W80788  29.307   8.587   4.941
 9063W        W80789  19.178  22.015   3.258
 9064W        W80790  11.640  38.886  10.825
 9065W        W80791  29.843  33.485   3.776
 9066W        W80792  10.076  30.885  13.342
 9067W        W80793  24.112   0.945   1.925
 9068W        W80794  36.020  28.633   4.687
 9069W        W80795  21.185   8.372  11.564
 9070W        W80796  38.490  16.693   0.514
 9071W        W80797  41.269  24.173  11.139
 9072W        W80798   9.703  37.346  13.822
 9073W        W80799   2.188  30.492   2.530
 9074W        W80800  13.744   9.856  11.058
 9075W        W80801  21.054  39.551   3.711
 9076W        W80802   6.019  12.458   2.282
 9077W        W80803  37.527  44.697   5.068
 9078W        W80804  29.073  23.051  11.979
 9079W        W80805  34.046  36.791   3.859
 9080W        W80806  39.789  27.653  10.493
 9081W        W80807  41.163  32.125  11.552
 9082W        W80808  17.262  26.113   3.873
 9083W        W80809  16.779  42.389   4.605
 9084W        W80810  20.973   7.246   0.849
 9085W        W80811   0.899   3.686  10.743
 9086W        W80812  21.929   1.013   4.506
 9087W        W80813  24.774  12.214   0.120
 9088W        W80814  35.045  37.818  13.313
 9089W        W80815  33.427  42.915  11.129
 9090W        W80816  10.099  23.163   4.534
 9091W        W80817   2.495   8.109  11.608
 9092W        W80818   5.768  19.863   3.134
 9093W        W80819  34.147  24.149  13.505
 9094W        W80820  19.556  20.690   3.114
 9095W        W80821  29.018   4.032  12.968
 9096W        W80822  36.106  25.598  13.316
 9097W        W80823  12.654  30.183   2.230
 9098W        W80824  31.843  12.774  14.255
 9099W        W80825  36.678  24.450  12.366
 9100W        W80826  35.754  11.768   2.239
 9101W        W80827   8.879   4.813  13.834
 9102W        W80828  22.167   2.250  12.514
 9103W        W80829   6.221  30.020   0.046
 9104W        W80830   5.088  21.995   0.895
 9105W        W80831  22.268  40.850   1.618
 9106W        W80832  10.637  26.996  11.379
 9107W        W80833  11.866  13.836   2.729
 9108W        W80834   4.679  43.430   3.650
 9109W        W80835  36.537   4.821  13.946
 9110W        W80836  19.226  22.528   1.280
 9111W        W80837  25.216  21.179   1.491
 9112W        W80838  44.898  22.738  11.586
 9113W        W80839   0.994   1.415   0.841
 9114W        W80840  23.298  18.984   3.621
 9115W        W80841  18.153  21.323  10.614
 9116W        W80842  30.435  20.676   1.288
 9117W        W80843  11.405  38.564  14.978
 9118W        W80844  18.527   6.493   4.702
 9119W        W80845  22.012  23.148   1.735
 9120W        W80846  22.709  13.045   0.347
 9121W        W80847  28.005   6.399   3.201
 9122W        W80848  18.219  44.356  13.756
 9123W        W80849   9.409  22.659   1.559
 9124W        W80850  29.613  27.964   3.250
 9125W        W80851  31.822  36.968   0.780
 9126W        W80852  11.483  24.643   1.698
 9127W        W80853   6.918  19.085   1.363
 9128W        W80854   4.883  24.752   1.777
 9129W        W80855  20.543  44.957   2.805
 9130W        W80856  19.811  39.355   1.132
 9131W        W80857   3.711  20.338   4.064
 9132W        W80858   1.700  33.425   5.004
 9133W        W80859  25.208  25.671   3.184
 9134W        W80860  34.009  11.639  12.328
 9135W        W80861  33.493  32.556   2.744
 9136W        W80862  30.850  33.996   1.334
 9137W        W80863   2.309  30.961   0.645
 9138W        W80864  20.813  15.369   1.308
 9139W        W80865  11.681   7.951  13.044
 9140W        W80866  38.796  39.285  11.591
 9141W        W80867   3.402  29.299   4.585
 9142W        W80868  44.643  37.382   0.805
 9143W        W80869  31.670  18.801  14.442
 9144W        W80870  13.605  38.598   0.396
 9145W        W80871  13.282  22.069   3.728
 9146W        W80872   0.739   7.625  12.004
 9147W        W80873  27.600  42.025   2.921
 9148W        W80874  20.035  28.107   2.377
 9149W        W80875  44.926  28.655  13.408
 9150W        W80876  38.831  29.131  10.710
 9151W        W80877  24.152  29.293   4.404
 9152W        W80878   9.301   5.914   3.606
 9153W        W80879  34.716  19.656   3.285
 9154W        W80880  10.832   9.659  14.601
 9155W        W80881   2.657  25.098  11.102
 9156W        W80882  28.043   0.054   1.311
 9157W        W80883   6.315  12.270  14.601
 9158W        W80884   8.890  40.130   5.040
 9159W        W80885  17.506  12.510   0.899
 9160W        W80886  18.643   7.548  14.073
 9161W        W80887  29.986  44.743  13.298
 9162W        W80888  30.511   0.164   0.961
 9163W        W80889  22.990  20.543  11.395
 9164W        W80890   4.492   4.428  13.827
 9165W        W80891   7.951  15.073   4.332
 9166W        W80892  40.547  10.249   3.413
 9167W        W80893   0.680   4.472   3.763
 9168W        W80894  43.954  32.858  11.177
 9169W        W80895  11.650  11.620   4.411
 9170W        W80896  17.829  32.837  11.634
 9171W        W80897  18.003   6.262  13.421
 9172W        W80898  10.853   1.479  12.919
 9173W        W80899  42.544   1.375  14.010
 9174W        W80900  12.505   7.288  12.113
 9175W        W80901  24.728   4.293  13.752
 9176W        W80902  21.692  37.368   3.603
 9177W        W80903  20.339  38.742  12.093
 9178W        W80904  42.910   1.244  13.304
 9179W        W80905  12.588   9.845   1.008
 9180W        W80906   1.987  17.658   0.817
 9181W        W80907   9.669   4.851   3.284
 9182W        W80908  42.004  32.918   0.348
 9183W        W80909  21.227  17.732  10.636
 9184W        W80910  41.450   3.303   3.257
 9185W        W80911  38.027  39.037  12.957
 9186W        W80912  24.238   7.737  12.107
 9187W        W80913  20.156  35.116   3.684
 9188W        W80914   8.153  35.819  14.966
 9189W        W80915  33.991  37.125  14.407
 9190W        W80916  22.515   9.675  12.392
 9191W        W80917  43.686  17.125   3.657
 9192W        W80918  22.251  12.528  11.583
 9193W        W80919  14.820  25.025  13.521
 9194W        W80920  27.995  44.417  11.206
 9195W        W80921  34.609  22.049  13.090
 9196W        W80922  22.813  12.799  10.664
 9197W        W80923  41.489  32.567   4.097
 9198W        W80924  36.625  19.187   1.829
 9199W        W80925  35.345  35.880   4.431
 9200W        W80926   7.819   1.403   2.230
 9201W        W80927  22.002  17.296   9.956
 9202W        W80928  35.262  29.710   1.315
 9203W        W80929  30.593  39.324  14.723
 9204W        W80930  30.885  19.391  12.522
 9205W        W80931  16.944   8.698   0.238
 9206W        W80932  11.229   6.212   3.139
 9207W        W80933  43.162  14.772  10.949
 9208W        W80934  35.443  15.287  10.737
 9209W        W80935   7.820   8.120  13.017
 9210W        W80936  28.873  36.489  11.082
 9211W        W80937  21.683  23.120   3.541
 9212W        W80938  26.233  27.134   3.623
 9213W        W80939  32.421   2.762   0.760
 9214W        W80940  14.822  28.568   0.876
 9215W        W80941   2.250  32.547  11.095
 9216W        W80942  38.492   7.145  10.836
 9217W        W80943  29.358  29.852  11.949
 9218W        W80944  18.270  44.029   1.541
 9219W        W80945  29.930  17.773  14.327
 9220W        W80946   1.824  23.507   1.347
 9221W        W80947  44.520  41.008  13.936
 9222W        W80948  13.391   4.781   3.535
 9223W        W80949   0.011   6.895   2.527
 9224W        W80950  44.515  32.844   4.045
 9225W        W80951  43.360  20.074  14.224
 9226W        W80952  44.729  37.886  13.021
 9227W        W80953  31.124  15.660  11.641
 9228W        W80954  41.015   2.861   2.282
 9229W        W80955  18.610  15.219  13.414
 9230W        W80956   2.542  14.070   5.075
 9231W        W80957  32.420  21.840  14.797
 9232W        W80958  32.158  34.071   0.276
 9233W        W80959  33.110   2.822  11.555
 9234W        W80960   0.708  19.628  12.085
 9235W        W80961  32.576   7.945   2.580
 9236W        W80962  42.290  23.468   2.388
 9237W        W80963   8.740  36.865   4.680
 9238W        W80964  40.716  26.148  12.383
 9239W        W80965  18.235  17.835  11.939
 9240W        W80966  20.688  39.314   0.775
 9241W        W80967  43.923  35.966  11.152
 9242W        W80968  15.300   5.707  12.074
 9243W        W80969  33.344  10.675   1.230
 9244W        W80970  11.584  37.984   2.256
 9245W        W80971  43.108   8.660  12.869
 9246W        W80972  42.829  17.228   4.719
 9247W        W80973  33.655  13.630   0.783
 9248W        W80974  29.736  25.474   0.277
 9249W        W80975   1.383  37.385   0.308
 9250W        W80976  35.360  11.149  10.743
 9251W        W80977  42.469  33.648   0.273
 9252W        W80978  10.646  39.341  13.289
 9253W        W80979   6.406  30.494   1.697
 9254W        W80980  32.691  19.340  13.762
 9255W        W80981   2.905  35.603  10.740
 9256W        W80982  24.505  42.944   1.258
 9257W        W80983  28.182  41.425  13.118
 9258W        W80984  32.052  41.672  11.906
 9259W        W80985  15.334  35.892   2.591
 9260W        W80986  18.797  17.624   2.244
 9261W        W80987  21.506   6.127   1.652
 9262W        W80988  28.508  12.393   1.903
 9263W        W80989   1.719  13.199   2.681
 9264W        W80990  11.169   3.867   2.730
 9265W        W80991  33.560  23.831   4.165
 9266W        W80992  14.911  12.241   3.742
 9267W        W80993  44.947  31.462  11.653
 9268W        W80994  37.015  11.806  13.562
 9269W        W80995  41.297  33.118  14.508
 9270W        W80996  28.024  19.444   3.150
 9271W        W80997  39.298  36.010  13.551
 9272W        W80998  10.066   8.074   3.401
 9273W        W80999  27.506  29.097  11.535
 9274W        W81000  39.543  32.230   1.078
 9275W        W81001   2.964  36.117  13.309
 9276W        W81002   6.200  10.878  14.509
 9277W        W81003  40.616   8.457   3.835
 9278W        W81004  22.431  29.410  12.789
 9279W        W81005  17.257  11.847  11.481
 9280W        W81006   4.967  31.536  14.746
 9281W        W81007  22.767  34.828  12.453
 9282W        W81008  15.457   9.597  14.857
 9283W        W81009  10.723   1.957  11.650
 9284W        W81010   7.933   1.431   1.265
 9285W        W81011  11.130  41.740   2.468
 9286W        W81012   6.486  19.670  12.608
 9287W        W81013  19.699  40.714   2.289
 9288W        W81014  27.841   3.324  12.020
 9289W        W81015   1.867  11.333  14.051
 9290W        W81016   7.103   9.100  11.651
 9291W        W81017  17.453   6.704   0.818
 9292W        W81018  34.635  36.922  12.448
 9293W        W81019  24.606  40.423   3.193
 9294W        W81020  14.820  17.293   2.664
 9295W        W81021  11.404  27.968  14.508
 9296W        W81022  33.420  27.932  14.181
 9297W        W81023  16.208  14.185  14.501
 9298W        W81024  40.259  11.229  14.237
 9299W        W81025  11.390  24.664  12.360
 9300W        W81026  12.580  16.831  11.238
 9301W        W81027   7.256  41.420  12.436
 9302W        W81028  19.659   4.277   3.960
 9303W        W81029  33.507  34.869   0.397
 9304W        W81030   4.246  21.839   0.924
 9305W        W81031  19.101  43.916   4.589
 9306W        W81032  27.370  37.158   1.376
 9307W        W81033  21.491  39.103  14.345
 9308W        W81034  21.473  41.422   1.687
 9309W        W81035   5.016  25.035  12.511
 9310W        W81036   9.671  37.428  10.274
 9311W        W81037  36.870  17.043  14.665
 9312W        W81038  42.724   4.797   0.689
 9313W        W81039   1.713  43.394   3.196
 9314W        W81040  21.637  14.333   0.442
 9315W        W81041  41.002   3.582  14.744
 9316W        W81042  30.209  29.115  14.389
 9317W        W81043  28.043  28.363   4.976
 9318W        W81044  31.633  24.691  11.922
 9319W        W81045  14.134  22.774   0.918
 9320W        W81046  18.891  12.595  10.471
 9321W        W81047  34.429  14.352  12.332
 9322W        W81048  39.505  20.615   1.834
 9323W        W81049  19.055  33.268  10.903
 9324W        W81050  31.567  23.358  12.330
 9325W        W81051   7.973   5.444  12.859
 9326W        W81052   2.819   6.979  14.751
 9327W        W81053  38.468   2.796  12.548
 9328W        W81054  42.074  10.364   0.929
 9329W        W81055  20.758  34.020   3.590
 9330W        W81056  32.655  26.478   3.736
 9331W        W81057  37.373  19.578   2.482
 9332W        W81058  11.313  33.904   2.727
 9333W        W81059  29.418  27.016  10.900
 9334W        W81060   3.722  23.038   3.078
 9335W        W81061  20.166   8.087  12.914
 9336W        W81062  17.850   3.375  13.878
 9337W        W81063   7.807  36.729   1.762
 9338W        W81064  26.292  38.773  12.157
 9339W        W81065  11.313  19.902   3.410
 9340W        W81066  43.085  37.413  10.658
 9341W        W81067  37.804  42.851   2.684
 9342W        W81068  22.231  10.670  11.853
 9343W        W81069  25.452  14.649  12.894
 9344W        W81070  18.162   7.262   3.126
 9345W        W81071  12.702   5.406  14.417
 9346W        W81072  11.731  39.366  13.509
 9347W        W81073  39.908   8.379  13.888
 9348W        W81074  11.694   5.038   0.271
 9349W        W81075  44.473  39.805  12.896
 9350W        W81076  20.158  40.961   4.216
 9351W        W81077  17.760   8.313   3.311
 9352W        W81078  41.917  21.242  10.682
 9353W        W81079  13.089  39.464   4.515
 9354W        W81080   4.990  30.074   3.325
 9355W        W81081  19.121   9.302  12.120
 9356W        W81082  32.157  24.076   2.140
 9357W        W81083  25.508   2.929   3.229
 9358W        W81084  29.881  22.222  11.460
 9359W        W81085  43.322  12.521  11.626
 9360W        W81086  12.871  22.800  13.608
 9361W        W81087   7.350  34.481  11.411
 9362W        W81088  19.557   4.982  12.818
 9363W        W81089  20.690  28.595   3.820
 9364W        W81090  11.387  17.088   3.220
 9365W        W81091  22.596   6.338   3.644
 9366W        W81092  16.282  33.401   3.762
 9367W        W81093  33.343   4.221  14.884
 9368W        W81094  21.903   0.318  11.102
 9369W        W81095  39.466   0.523   0.301
 9370W        W81096   0.801   5.842   3.768
 9371W        W81097  44.281  23.687   2.291
 9372W        W81098  16.327  28.095  11.952
 9373W        W81099  44.303  27.986   1.924
 9374W        W81100  19.199   4.164   2.453
 9375W        W81101  15.700  15.704  14.523
 9376W        W81102  40.698  16.338  13.289
 9377W        W81103   3.713   5.966  11.099
 9378W        W81104  21.531  15.635   4.269
 9379W        W81105   8.326  39.446  14.793
 9380W        W81106  13.195  43.710   3.253
 9381W        W81107  43.772  10.334   3.188
 9382W        W81108  41.446  26.440  12.599
 9383W        W81109  17.991  16.717  11.174
 9384W        W81110  11.562  16.751   4.905
 9385W        W81111  42.841  19.525   4.186
 9386W        W81112   8.594  33.594  11.878
 9387W        W81113  11.986  14.694   3.165
 9388W        W81114  12.842  32.567   0.050
 9389W        W81115   8.875  14.571   1.942
 9390W        W81116  39.774   1.430   0.468
 9391W        W81117  27.103  30.380   2.695
 9392W        W81118  27.580  15.579   0.243
 9393W        W81119  39.306  20.147   1.960
 9394W        W81120  37.123   8.370  13.607
 9395W        W81121   5.400   9.434  11.992
 9396W        W81122  25.705  38.346   2.197
 9397W        W81123   6.383   8.913  11.205
 9398W        W81124  23.301  13.358   3.445
 9399W        W81125  26.588   3.950   4.984
 9400W        W81126   2.321  27.792   2.371
 9401W        W81127  29.393   6.384  12.467
 9402W        W81128  27.042   4.203  12.493
 9403W        W81129  18.510  43.342   2.965
 9404W        W81130  24.756  13.626  14.429
 9405W        W81131  14.432  31.630   2.404
 9406W        W81132  39.892  22.308  13.740
 9407W        W81133   9.906   9.153  10.699
 9408W        W81134  19.755  17.605   1.760
 9409W        W81135  19.542  43.539  13.065
 9410W        W81136  12.287  10.157   4.098
 9411W        W81137   0.092  23.735  12.173
 9412W        W81138  26.197  36.484   2.685
 9413W        W81139   2.840  32.886   2.359
 9414W        W81140  11.085  42.576  14.434
 9415W        W81141  12.441  23.221  11.607
 9416W        W81142   8.315  42.417   4.467
 9417W        W81143  16.742  41.461   4.419
 9418W        W81144  27.713  42.965  10.564
 9419W        W81145  42.839  43.818  10.785
 9420W        W81146   8.640  32.566   4.640
 9421W        W81147  32.134  27.924   1.460
 9422W        W81148  34.547  31.428  13.801
 9423W        W81149  13.720  10.973   2.137
 9424W        W81150  42.835   8.340   4.077
 9425W        W81151  30.214  33.832   0.155
 9426W        W81152  40.845   8.169  14.120
 9427W        W81153  11.839  17.186   4.155
 9428W        W81154  19.738   4.328   3.444
 9429W        W81155  17.062  32.010  10.349
 9430W        W81156   8.846  43.644  12.839
 9431W        W81157   3.308  28.920   3.210
 9432W        W81158  20.480  26.562   3.023
 9433W        W81159  31.894  40.383  14.472
 9434W        W81160   0.706  12.724  12.036
 9435W        W81161  10.906  20.044   3.703
 9436W        W81162   8.696   5.731   1.224
 9437W        W81163  18.747  41.136  10.727
 9438W        W81164  35.803  27.883  14.956
 9439W        W81165  29.413  41.427   2.612
 9440W        W81166  30.541  36.224   4.145
 9441W        W81167   1.360   8.913  12.591
 9442W        W81168  18.249   5.163  13.442
 9443W        W81169   8.803  19.327  13.420
 9444W        W81170  39.468  26.616   4.363
 9445W        W81171  13.740  36.526  10.946
 9446W        W81172  21.631  12.180  10.730
 9447W        W81173  31.334  44.955  14.083
 9448W        W81174  44.304  34.151   1.284
 9449W        W81175  34.448   8.287   1.359
 9450W        W81176  40.580  30.221  13.833
 9451W        W81177  13.756  15.857   2.192
 9452W        W81178   8.246   9.939   1.683
 9453W        W81179  11.867  35.974  12.467
 9454W        W81180  13.671  22.115  10.955
 9455W        W81181  18.032  42.097   4.291
 9456W        W81182  42.617  29.187  10.735
 9457W        W81183  11.836  19.454  12.452
 9458W        W81184  28.843  33.828   2.408
 9459W        W81185  27.773  32.914  10.604
 9460W        W81186  36.835  20.592   3.407
 9461W        W81187  13.367  19.671   2.704
 9462W        W81188  30.806  34.078   4.177
 9463W        W81189  18.299   8.313  14.469
 9464W        W81190  39.109  31.886  14.852
 9465W        W81191  11.800  40.854  11.927
 9466W        W81192  11.872  42.412   1.340
 9467W        W81193  35.694  39.851  11.385
 9468W        W81194  10.892  31.128  10.622
 9469W        W81195  17.824   2.397   0.394
 9470W        W81196  29.502  17.331   4.092
 9471W        W81197  28.046  18.876   4.547
 9472W        W81198  26.652  12.574   3.691
 9473W        W81199  39.840  16.233   0.050
 9474W        W81200   4.670  17.674  14.979
 9475W        W81201  16.088  36.050  13.039
 9476W        W81202  10.284   8.773   4.050
 9477W        W81203   8.673  27.708  11.095
 9478W        W81204  31.345  10.857   1.289
 9479W        W81205   7.832  26.392  14.420
 9480W        W81206   1.674   8.217   0.423
 9481W        W81207  44.838  36.876   2.841
 9482W        W81208  14.695   2.919  12.542
 9483W        W81209  15.742  10.623  13.410
 9484W        W81210  29.951  23.036   4.263
 9485W        W81211  35.620  43.400  14.852
 9486W        W81212  40.295  16.063   0.336
 9487W        W81213   6.701  38.509   4.213
 9488W        W81214   8.952   6.288  14.278
 9489W        W81215  41.895  21.795   0.362
 9490W        W81216   5.605  27.722  11.861
 9491W        W81217  21.212  37.595  13.550
 9492W        W81218  40.056  15.907   3.684
 9493W        W81219  32.259  17.049   2.136
 9494W        W81220  24.728  29.201  11.986
 9495W        W81221  43.116   6.366   4.961
 9496W        W81222  37.731  28.666   1.670
 9497W        W81223   0.680  28.568  10.829
 9498W        W81224  27.141  23.754   4.374
 9499W        W81225  13.052   8.848  12.472
 9500W        W81226  40.358  29.194  11.392
 9501W        W81227  36.867  43.602  12.547
 9502W        W81228  40.747   9.607   0.325
 9503W        W81229  23.221  40.387  10.925
 9504W        W81230  19.313  43.330  12.545
 9505W        W81231  42.294  23.799  12.573
 9506W        W81232   5.249   7.706  14.625
 9507W        W81233  22.541  35.174   4.574
 9508W        W81234  37.378  34.939   4.278
 9509W        W81235   7.804  12.944  11.563
 9510W        W81236   3.391  30.085  11.990
 9511W        W81237   4.178   0.137   3.812
 9512W        W81238  37.077   7.638  12.455
 9513W        W81239  39.271  36.748   1.237
 9514W        W81240  17.133  30.180  12.890
 9515W        W81241  35.545  33.853   3.725
 9516W        W81242  38.354  18.041  13.892
 9517W        W81243  34.688  35.036  13.798
 9518W        W81244  12.228   1.425   0.793
 9519W        W81245  24.900   4.128   0.870
 9520W        W81246  37.630   2.421  11.453
 9521W        W81247   9.892  29.578   0.930
 9522W        W81248  12.847  28.954  11.966
 9523W        W81249  26.628  10.228   5.075
 9524W        W81250  18.368   0.562  12.246
 9525W        W81251  20.545  26.581  10.514
 9526W        W81252  37.795  19.545   1.775
 9527W        W81253  33.942   7.436   1.454
 9528W        W81254  31.177  20.993  14.922
 9529W        W81255  42.608   8.686  13.019
 9530W        W81256  41.279  29.567   3.886
 9531W        W81257  37.893  28.687   3.880
 9532W        W81258  21.562  18.889  11.446
 9533W        W81259   1.553  28.925  14.456
 9534W        W81260   3.961  39.551  13.967
 9535W        W81261  12.812  40.263   2.299
 9536W        W81262  12.917  35.100  13.711
 9537W        W81263   6.319   8.295   1.010
 9538W        W81264  21.657   7.850   1.619
 9539W        W81265  20.219   5.918  12.055
 9540W        W81266  29.374   5.419  13.559
 9541W        W81267   0.475  32.935   2.846
 9542W        W81268  23.685  40.217  12.957
 9543W        W81269  36.522  27.420  10.728
 9544W        W81270  14.029   8.331  14.459
 9545W        W81271  15.869   0.693  12.029
 9546W        W81272  17.483  17.822   0.369
 9547W        W81273  42.303  40.094  10.716
 9548W        W81274  11.242   3.770  14.936
 9549W        W81275  23.330   8.077   1.789
 9550W        W81276  10.164  36.425  13.305
 9551W        W81277  32.607  23.068   2.159
 9552W        W81278  37.762  19.677   0.256
 9553W        W81279   8.723  24.514  11.036
 9554W        W81280  37.809  37.058  11.431
 9555W        W81281  27.057  43.011   4.571
 9556W        W81282  17.071  34.025  14.074
 9557W        W81283  16.899   9.372   3.172
 9558W        W81284   1.798  40.545  14.841
 9559W        W81285  15.358   2.230  14.439
 9560W        W81286  38.114  41.065  10.619
 9561W        W81287   1.265  38.055   3.223
 9562W        W81288  13.037   8.444  12.142
 9563W        W81289  42.401  26.037   4.565
 9564W        W81290  17.846  30.149  12.448
 9565W        W81291  27.277  34.847   2.407
 9566W        W81292  28.479   4.834  10.321
 9567W        W81293  37.521   7.141  11.134
 9568W        W81294  32.781   9.945  10.518
 9569W        W81295  35.872   2.511  10.746
 9570W        W81296  29.055   9.143   1.674
 9571W        W81297  43.410  25.112   1.875
 9572W        W81298  25.022  16.162  13.462
 9573W        W81299   4.861   2.653   1.854
 9574W        W81300  28.522   1.009  13.778
 9575W        W81301  29.042  42.737   1.909
 9576W        W81302   5.111   4.292  14.801
 9577W        W81303  19.930  37.709  12.058
 9578W        W81304   9.765  18.514   0.620
 9579W        W81305  43.006  37.497  14.182
 9580W        W81306   2.478   9.508  14.812
 9581W        W81307   8.893  39.874   1.863
 9582W        W81308  33.383  15.351   0.926
 9583W        W81309  37.438  40.930  14.916
 9584W        W81310  18.014  16.161   4.488
 9585W        W81311  21.671  20.220   3.636
 9586W        W81312   6.888  29.097  11.390
 9587W        W81313  38.413   8.758  10.086
 9588W        W81314   5.342   9.353   3.917
 9589W        W81315  23.862  29.343  11.247
 9590W        W81316  26.075  44.745   1.295
 9591W        W81317  34.511  41.140   1.787
 9592W        W81318  35.335  36.018   3.307
 9593W        W81319  26.442  13.752  11.820
 9594W        W81320  21.945  23.509   3.778
 9595W        W81321  27.943  24.912   0.012
 9596W        W81322  33.976  32.673   4.981
 9597W        W81323  21.715  44.859  11.917
 9598W        W81324  16.280   3.885   4.488
 9599W        W81325  35.043  44.286   4.188
 9600W        W81326   2.695  11.614   4.175
 9601W        W81327  40.427  22.791   3.236
 9602W        W81328  37.366  41.743   4.695
 9603W        W81329  28.033  21.980  13.453
 9604W        W81330  40.621  29.544   0.387
 9605W        W81331  40.938   7.297  12.972
 9606W        W81332   9.732  28.021  14.848
 9607W        W81333  19.144  23.209   1.674
 9608W        W81334  21.622  34.009  12.895
 9609W        W81335  37.988  34.649  12.685
 9610W        W81336   8.709  28.054  12.062
 9611W        W81337  18.369  16.769   1.234
 9612W        W81338   4.906  31.286   4.162
 9613W        W81339  20.020   0.887   3.230
 9614W        W81340  11.603  34.955  12.755
 9615W        W81341  36.860  22.563  11.651
 9616W        W81342  36.249   7.787  11.229
 9617W        W81343  19.782  13.739  11.398
 9618W        W81344  26.623  40.076   2.266
 9619W        W81345   6.674   6.375   1.930
 9620W        W81346  16.922  34.616   4.266
 9621W        W81347   8.101  42.604   2.688
 9622W        W81348  29.430  38.163   4.575
 9623W        W81349  29.143  37.761  12.966
 9624W        W81350   7.145  11.223   1.417
 9625W        W81351  16.287   2.038   2.300
 9626W        W81352  35.961   5.278   3.615
 9627W        W81353   0.511  35.990  11.954
 9628W        W81354  40.628  28.628  10.738
 9629W        W81355   2.366  25.226   3.228
 9630W        W81356  10.816  14.871   2.616
 9631W        W81357  15.602  37.956   2.402
 9632W        W81358  35.786  34.548   4.657
 9633W        W81359   5.352   2.873   1.085
 9634W        W81360  17.790  17.635  12.163
 9635W        W81361  16.249  35.325   4.106
 9636W        W81362  23.904  16.713  14.432
 9637W        W81363   4.714  19.144  12.998
 9638W        W81364   0.944   4.702   2.218
 9639W        W81365  23.250  42.952   1.732
 9640W        W81366  42.907  35.838  14.293
 9641W        W81367   1.947   4.336  10.426
 9642W        W81368  10.194  29.136   4.225
 9643W        W81369  39.682   0.114   1.871
 9644W        W81370   2.664  43.888  14.312
 9645W        W81371  21.028  40.732   4.155
 9646W        W81372  17.188  29.607  12.185
 9647W        W81373  22.770  24.488   1.340
 9648W        W81374  41.397  17.716  14.120
 9649W        W81375  41.467  33.079   4.792
 9650W        W81376  12.244  13.289   4.494
 9651W        W81377   1.776  10.058  14.583
 9652W        W81378  18.821  34.951   0.624
 9653W        W81379  22.818   2.974   2.264
 9654W        W81380  33.384  38.807  12.007
 9655W        W81381  39.586  14.632   4.908
 9656W        W81382  34.581  16.568   2.356
 9657W        W81383  44.187  21.710   0.824
 9658W        W81384  43.040  18.653  13.441
 9659W        W81385  18.608  21.696   1.487
 9660W        W81386  18.320  38.459  14.041
 9661W        W81387  41.659  12.228  13.036
 9662W        W81388  18.398  30.624  10.623
 9663W        W81389  15.829   3.319  13.786
 9664W        W81390   9.322  20.611   0.090
 9665W        W81391   8.864  27.977  12.971
 9666W        W81392  25.975   4.523  14.361
 9667W        W81393  24.455  29.047   3.072
 9668W        W81394  11.413   1.488  11.194
 9669W        W81395   0.542  18.353  11.378
 9670W        W81396  23.228  21.684  12.939
 9671W        W81397  12.087  34.546  13.470
 9672W        W81398  37.411  11.871  11.451
 9673W        W81399   6.846  34.654  10.697
 9674W        W81400  18.979   5.771   4.684
 9675W        W81401  12.957  20.774   3.159
 9676W        W81402  34.548   8.941  12.379
 9677W        W81403   6.323  10.181  12.906
 9678W        W81404  18.770  19.481  13.977
 9679W        W81405   0.536  42.723   1.997
 9680W        W81406   1.462  26.703   2.035
 9681W        W81407  21.766  25.064  12.761
 9682W        W81408  14.807  36.612   4.015
 9683W        W81409  41.834   5.747  11.483
 9684W        W81410  29.160  36.005   4.663
 9685W        W81411  26.370  41.863   0.110
 9686W        W81412  42.993  16.995  13.863
 9687W        W81413  23.246  41.877   3.109
 9688W        W81414  31.102  21.144  12.607
 9689W        W81415   9.861  29.260  12.748
 9690W        W81416  13.287  17.227  11.204
 9691W        W81417  43.447  14.060  14.858
 9692W        W81418  26.474  16.809  13.910
 9693W        W81419   9.152  17.298  13.629
 9694W        W81420  19.523  30.110  11.894
 9695W        W81421  43.530  40.610  13.975
 9696W        W81422  15.710   7.671  13.314
 9697W        W81423  31.083   4.905   0.316
 9698W        W81424   6.153  28.556  12.348
 9699W        W81425   2.185  21.443   0.743
 9700W        W81426  12.360  22.053  11.549
 9701W        W81427  37.142  40.390  13.402
 9702W        W81428  19.194  20.694  13.285
 9703W        W81429  35.808  32.371  11.101
 9704W        W81430   4.308  36.681   2.312
 9705W        W81431  30.974  12.817  11.111
 9706W        W81432  12.159  43.678  13.584
 9707W        W81433   0.728  36.542  13.064
 9708W        W81434   5.159  12.116  11.185
 9709W        W81435  36.548  34.577  13.953
 9710W        W81436   8.524  31.581   4.362
 9711W        W81437  31.574  15.422  10.095
 9712W        W81438  18.053  10.003  12.347
 9713W        W81439  16.523   0.256  11.555
 9714W        W81440  22.150  13.378   2.230
 9715W        W81441  10.262   8.437  14.016
 9716W        W81442  26.209  40.501  14.532
 9717W        W81443  15.571   2.220   0.762
 9718W        W81444  12.288  33.365  14.063
 9719W        W81445  19.656   8.974   2.170
 9720W        W81446  11.687  38.931   2.426
 9721W        W81447  39.371  22.285   0.483
 9722W        W81448   4.873  20.373   3.307
 9723W        W81449   8.428  14.125   4.319
 9724W        W81450  25.999  29.425   0.425
 9725W        W81451   1.002  14.629   0.405
 9726W        W81452  13.357   6.968  11.963
 9727W        W81453   9.138   8.967  13.484
 9728W        W81454  35.559   0.479   3.018
 9729W        W81455   8.669  28.636  12.023
 9730W        W81456  28.743  43.450   4.485
 9731W        W81457  24.138  43.472   3.436
 9732W        W81458  44.313  36.547  13.702
 9733W        W81459   6.395  31.190   2.365
 9734W        W81460   2.030   9.601   4.669
 9735W        W81461  13.291  40.754   0.165
 9736W        W81462  25.496  21.883  14.533
 9737W        W81463  39.495  23.702  11.203
 9738W        W81464  14.149  28.882  10.670
 9739W        W81465  10.474  28.711   4.267
 9740W        W81466  28.407  13.872  14.840
 9741W        W81467  18.495  19.410   2.027
 9742W        W81468  33.000  41.353  11.468
 9743W        W81469  36.574  40.804  11.593
 9744W        W81470   0.771   6.753  12.209
 9745W        W81471  27.104   0.820  12.654
 9746W        W81472  40.554  23.103  10.404
 9747W        W81473  29.076   8.283   4.617
 9748W        W81474  18.373   9.169  13.440
 9749W        W81475  26.626  20.885   0.088
 9750W        W81476   4.300  23.479  11.978
 9751W        W81477  36.643   7.866   2.787
 9752W        W81478  35.296  23.612  12.832
 9753W        W81479   3.189   8.746   5.058
 9754W        W81480  23.685  25.330  10.133
 9755W        W81481   5.931  12.325  13.347
 9756W        W81482   3.345  43.920   4.783
 9757W        W81483  34.990  31.443  13.231
 9758W        W81484  14.691  17.273  11.296
 9759W        W81485  37.452  10.976  10.484
 9760W        W81486  36.029   5.954  13.512
 9761W        W81487  38.389   3.131   0.423
 9762W        W81488  39.856  36.132  10.775
 9763W        W81489  34.623  38.021   4.116
 9764W        W81490  31.013   7.741   3.593
 9765W        W81491  22.917  42.848  12.084
 9766W        W81492   9.467  40.097  13.349
 9767W        W81493  26.406  21.531  14.217
 9768W        W81494  43.922  42.270  12.681
 9769W        W81495  24.516  16.358   2.402
 9770W        W81496  29.650   9.870  11.580
 9771W        W81497  18.864  21.167  11.030
 9772W        W81498   1.351   7.754   2.722
 9773W        W81499   5.145   5.493  13.931
 9774W        W81500   3.165   3.258  12.776
 9775W        W81501   0.686  43.880   0.765
 9776W        W81502  43.802  10.323  11.688
 9777W        W81503  29.729  25.561   3.251
 9778W        W81504  40.357   0.900  10.766
 9779W        W81505  26.134  37.411   2.084
 9780W        W81506  29.398  27.541  13.076
 9781W        W81507  41.172  30.957  14.395
 9782W        W81508  30.035  17.571   3.219
 9783W        W81509  23.301   3.660  14.497
 9784W        W81510  24.075  40.825  11.965
 9785W        W81511  14.769  28.993  13.538
 9786W        W81512  20.132   8.210   4.395
 9787W        W81513  39.154  25.115   4.990
 9788W        W81514   0.800  40.871  10.699
 9789W        W81515  29.597   0.588  14.791
 9790W        W81516  15.245  31.268  11.409
 9791W        W81517  13.646   0.496  13.045
 9792W        W81518  40.892  39.586  12.545
 9793W        W81519  17.144  42.064  12.541
 9794W        W81520   8.796  22.697   1.836
 9795W        W81521  27.477  27.615   0.038
 9796W        W81522  29.744   2.956  14.399
 9797W        W81523  10.629  23.093   2.791
 9798W        W81524  15.100  22.944   1.201
 9799W        W81525  21.491  22.727  11.586
 9800W        W81526   3.255  39.662  14.828
 9801W        W81527  16.564  25.279   0.394
 9802W        W81528  11.711   6.848   3.661
 9803W        W81529  35.974  36.729  12.960
 9804W        W81530  35.740  12.623   0.337
 9805W        W81531  17.307  33.327   3.015
 9806W        W81532  29.076  12.313  10.782
 9807W        W81533  11.288  35.644  14.377
 9808W        W81534  29.843  38.086  11.268
 9809W        W81535   5.446  34.611  10.133
 9810W        W81536   3.057  27.734  14.955
 9811W        W81537  10.319   6.901   3.959
 9812W        W81538  31.853   2.843  13.122
 9813W        W81539  31.136  34.433   1.174
 9814W        W81540  27.375  38.774  11.399
 9815W        W81541   1.197  25.801   3.168
 9816W        W81542  33.915  30.855  12.495
 9817W        W81543   6.154   6.678  11.036
 9818W        W81544   6.912  37.494  11.488
 9819W        W81545  29.800   0.017   1.189
 9820W        W81546   1.340  39.864   3.651
 9821W        W81547  43.022   3.364   0.979
 9822W        W81548  18.814  36.881   3.214
 9823W        W81549  36.492  36.980   1.260
 9824W        W81550  15.604  16.440  12.689
 9825W        W81551  33.081  36.024  10.910
 9826W        W81552  25.888  34.625   1.513
 9827W        W81553  36.366  12.913  13.120
 9828W        W81554  38.398  40.546   2.767
 9829W        W81555  27.662   8.332  12.173
 9830W        W81556  37.919  38.412   0.355
 9831W        W81557  22.717  25.482   4.408
 9832W        W81558  18.127  35.021   4.684
 9833W        W81559  33.494   9.293   3.017
 9834W        W81560  15.276  25.985  11.187
 9835W        W81561  28.835  39.078   1.785
 9836W        W81562  26.441  20.307   0.958
 9837W        W81563   1.019   2.197  13.883
 9838W        W81564   3.718  21.557  13.310
 9839W        W81565  19.107  30.121  10.617
 9840W        W81566  33.394  23.762  14.723
 9841W        W81567  14.039  41.339   4.204
 9842W        W81568  25.155   4.512  14.941
 9843W        W81569  40.511  37.436   4.560
 9844W        W81570   2.801  17.641   0.313
 9845W        W81571  34.975   4.259   3.610
 9846W        W81572  35.856  40.714  13.811
 9847W        W81573   1.828   8.613   3.992
 9848W        W81574  31.469  14.089  11.151
 9849W        W81575  21.941  42.817  14.951
 9850W        W81576  26.062  27.732  10.380
 9851W        W81577  37.869   1.322   2.410
 9852W        W81578  40.849  34.053   1.472
 9853W        W81579   1.173  25.629   0.035
 9854W        W81580   1.992   7.155   3.108
 9855W        W81581  36.794  12.624  13.044
 9856W        W81582   9.712   8.277   1.671
 9857W        W81583   1.915  44.253  13.910
 9858W        W81584  11.147  30.461   2.717
 9859W        W81585  12.534   7.864   3.159
 9860W        W81586  38.429  40.394   1.764
 9861W        W81587   4.720  29.494  12.010
 9862W        W81588  25.689  33.143  13.965
 9863W        W81589  24.005  11.874   0.495
 9864W        W81590  39.115  14.734  11.032
 9865W        W81591   3.766  39.928  12.679
 9866W        W81592  23.026  29.672   1.903
 9867W        W81593   8.267  17.336  13.943
 9868W        W81594  12.909  34.104   2.976
 9869W        W81595  19.664   8.178  13.214
 9870W        W81596   4.664  23.534  14.831
 9871W        W81597  41.664   8.766   2.501
 9872W        W81598  39.424  16.062   2.432
 9873W        W81599   4.377  23.312  12.467
 9874W        W81600  16.582  42.408  11.939
 9875W        W81601  31.283  30.666  14.908
 9876W        W81602  43.102  12.789  13.048
 9877W        W81603  31.921   8.871  13.485
 9878W        W81604  28.113  15.625  12.928
 9879W        W81605  28.574  10.716   2.309
 9880W        W81606   4.176  30.478  14.371
 9881W        W81607  26.995  40.873   3.176
 9882W        W81608   2.641  19.499  12.046
 9883W        W81609  15.081  10.703  14.392
 9884W        W81610  21.990   8.364   2.293
 9885W        W81611   5.737  39.134  12.631
 9886W        W81612  44.805  32.169  14.784
 9887W        W81613  43.742  10.834  11.992
 9888W        W81614  14.277   7.589  11.025
 9889W        W81615  27.212   7.695   2.597
 9890W        W81616  41.075   1.883  11.143
 9891W        W81617  38.423  12.155  12.006
 9892W        W81618   7.343  18.040  12.070
 9893W        W81619   9.802  23.579   4.664
 9894W        W81620  34.560   6.642   1.829
 9895W        W81621  22.602  26.789  13.463
 9896W        W81622  36.355  12.350  10.642
 9897W        W81623  22.563  36.944   3.696
 9898W        W81624  22.477   7.227  12.583
 9899W        W81625  39.517  14.828  14.002
 9900W        W81626  25.615  34.829  13.521
 9901W        W81627  36.346  23.153  13.845
 9902W        W81628   8.015  43.609   2.990
 9903W        W81629  31.085  14.437  14.379
 9904W        W81630  28.528   5.865  12.348
 9905W        W81631  26.342  24.339   4.178
 9906W        W81632   7.882  26.192  13.951
 9907W        W81633  26.626  42.765   4.690
 9908W        W81634  40.779  26.257   0.751
 9909W        W81635  22.269  11.692  10.695
 9910W        W81636   6.828  11.589   0.225
 9911W        W81637   2.847  12.901   2.218
 9912W        W81638  20.709  21.772   0.320
 9913W        W81639   9.084  20.857   3.696
 9914W        W81640  32.062  39.481   2.350
 9915W        W81641  21.271  27.256   2.824
 9916W        W81642  31.020  12.157   2.150
 9917W        W81643  23.423   3.979   3.657
 9918W        W81644  11.786  13.880   4.569
 9919W        W81645  24.159   6.119   1.703
 9920W        W81646  28.167  22.252  11.490
 9921W        W81647  20.547   5.148  12.449
 9922W        W81648  39.486  26.191   4.092
 9923W        W81649   6.125  17.276  10.639
 9924W        W81650  20.787  44.988  10.191
 9925W        W81651  36.162  13.060   1.831
 9926W        W81652   1.440  42.702  13.131
 9927W        W81653   9.269  14.457  13.269
 9928W        W81654  20.336  19.248  11.197
 9929W        W81655  25.477  23.063  13.102
 9930W        W81656  38.597  35.783  10.378
 9931W        W81657  43.901  18.481  14.743
 9932W        W81658   2.342  22.895   3.823
 9933W        W81659  16.064  40.820  14.933
 9934W        W81660  44.960   8.689  12.596
 9935W        W81661  31.934  43.380   4.281
 9936W        W81662  27.284   0.513   5.547
 9937W        W81663  10.603  23.578  13.556
 9938W        W81664  31.798  32.936   0.457
 9939W        W81665   7.030  32.538   3.780
 9940W        W81666  17.067  40.369   0.706
 9941W        W81667  20.939   4.673   4.886
 9942W        W81668   0.874  35.851  11.508
 9943W        W81669  44.929  11.848  11.770
 9944W        W81670  41.868  31.896  12.034
 9945W        W81671   8.303  41.952  11.240
 9946W        W81672  24.452  27.504  12.793
 9947W        W81673   8.688  12.347  13.402
 9948W        W81674  21.484  31.635  12.047
 9949W        W81675  24.840  28.965   2.684
 9950W        W81676  40.831  25.024   3.643
 9951W        W81677  27.661  14.056  13.151
 9952W        W81678  29.429  42.459   1.128
 9953W        W81679  25.244  44.021   1.204
 9954W        W81680  10.609  22.475   2.328
 9955W        W81681  31.152  28.888   0.909
 9956W        W81682  11.792  17.230   3.585
 9957W        W81683  33.032  31.427  13.437
 9958W        W81684  11.598  29.508  14.676
 9959W        W81685  34.805   5.802   0.351
 9960W        W81686  21.988   7.670   3.337
 9961W        W81687  25.737  40.319  14.636
 9962W        W81688   2.774  41.115   2.356
 9963W        W81689  35.970  25.542   4.556
 9964W        W81690   2.457  34.273   4.250
 9965W        W81691  14.762  32.830   1.835
 9966W        W81692   3.272  42.006   4.574
 9967W        W81693  35.325   7.033   2.182
 9968W        W81694  19.782  38.804   3.810
 9969W        W81695  19.020  31.675  11.991
 9970W        W81696  21.709  36.389  13.511
 9971W        W81697  23.495   9.178   1.890
 9972W        W81698  19.968  11.801   2.733
 9973W        W81699  24.962  28.579  11.116
 9974W        W81700  35.951  21.216   4.014
 9975W        W81701  12.182  21.134  13.368
 9976W        W81702   5.657   2.726  14.974
 9977W        W81703  22.095  30.503   4.019
 9978W        W81704  35.095  32.474  12.495
 9979W        W81705  30.269  10.315  11.125
 9980W        W81706  23.132  41.412  13.564
 9981W        W81707  11.204   3.390   3.201
 9982W        W81708  16.503  35.310   3.279
 9983W        W81709  18.721  35.871  11.610
 9984W        W81710  27.056  11.050  14.977
 9985W        W81711  10.401  33.485   4.474
 9986W        W81712  19.001  16.548   4.268
 9987W        W81713   1.662  23.098  10.639
 9988W        W81714  43.532  22.556  14.498
 9989W        W81715  20.142  34.454  12.186
 9990W        W81716  12.736   9.194   4.602
 9991W        W81717  16.788  17.066  13.285
 9992W        W81718  23.659   7.606   4.187
 9993W        W81719  35.380  14.217   3.886
 9994W        W81720   8.316  23.166   1.370
 9995W        W81721  31.433  32.553  10.587
 9996W        W81722   3.432  28.067  14.952
 9997W        W81723  35.279  20.122   3.615
 9998W        W81724   1.990  32.400   3.107
 9999W        W81725   9.786   1.451  10.752
10000W        W81726  18.724   7.287   3.312
10001W        W81727  13.276  35.262   3.331
10002W        W81728  10.252  25.730   5.469
10003W        W81729  11.462  22.781   0.921
10004W        W81730  32.138  13.708  13.052
10005W        W81731   4.752  15.581   1.376
10006W        W81732  12.359  19.705   2.882
10007W        W81733   4.310  21.138   0.937
10008W        W81734  34.653  36.419   4.827
10009W        W81735  15.828  22.536  11.964
10010W        W81736  11.877   2.676  13.940
10011W        W81737   3.873  35.308  10.883
10012W        W81738   8.903  43.159   2.800
10013W        W81739  20.151  31.336  13.368
10014W        W81740  42.986  11.758  13.169
10015W        W81741   5.048   1.240  12.429
10016W        W81742   0.274   9.165  14.906
10017W        W81743  21.596  11.330  12.896
10018W        W81744  44.571   0.886   4.964
10019W        W81745  14.845  31.799  12.245
10020W        W81746  15.687  16.623  12.167
10021W        W81747  14.794  44.853   0.502
10022W        W81748  24.700   0.575   4.603
10023W        W81749   7.850  11.837  12.346
10024W        W81750  32.141   2.500  13.450
10025W        W81751  27.330  10.315  10.725
10026W        W81752   3.881  23.886  14.690
10027W        W81753  18.295   4.465   1.555
10028W        W81754  39.754  23.688   2.331
10029W        W81755  31.449   0.947  10.705
10030W        W81756   1.338  24.147   1.694
10031W        W81757  19.512  40.114   4.888
10032W        W81758  31.002  27.547  13.565
10033W        W81759  20.023  10.388   1.400
10034W        W81760  42.962  18.008   1.225
10035W        W81761  39.382  34.993   2.336
10036W        W81762   5.866  21.312  14.884
10037W        W81763  23.055  34.976  11.944
10038W        W81764   2.549  16.418  12.395
10039W        W81765  32.741  16.044   1.312
10040W        W81766  35.551  42.087  14.805
10041W        W81767   4.714  29.626   2.240
10042W        W81768  27.750  42.067   1.445
10043W        W81769  11.671  33.149   0.978
10044W        W81770  37.121  24.004  10.528
10045W        W81771   6.183  18.292  14.341
10046W        W81772  44.342  22.946   1.714
10047W        W81773   9.841   9.168   1.135
10048W        W81774  22.972  23.532  14.003
10049W        W81775  19.653   9.872   0.798
10050W        W81776   8.316  21.150   4.150
10051W        W81777  11.488  21.920  13.785
10052W        W81778  19.557   8.646   1.326
10053W        W81779   1.748   3.533   4.610
10054W        W81780  24.891  32.243   4.219
10055W        W81781  37.890  21.696   1.479
10056W        W81782  20.004   1.316   0.771
10057W        W81783  36.430   8.858   2.950
10058W        W81784  32.913   1.746  10.741
10059W        W81785  21.705  39.400  13.286
10060W        W81786  12.860  21.167  11.506
10061W        W81787  41.089  26.492   4.061
10062W        W81788  23.019  36.060  12.442
10063W        W81789  26.703  30.875  10.699
10064W        W81790   2.979  39.084  10.629
10065W        W81791  19.002  34.018   3.541
10066W        W81792  31.946   2.008   0.754
10067W        W81793  38.305  38.370  13.891
10068W        W81794  32.670  12.903  13.318
10069W        W81795   9.187  12.144  13.054
10070W        W81796  12.996  41.522   4.187
10071W        W81797   6.178   5.899   4.729
10072W        W81798  10.852   1.703  13.537
10073W        W81799   6.456  14.180  13.963
10074W        W81800  25.487  30.140  12.914
10075W        W81801   1.180  20.005   2.706
10076W        W81802  10.480  36.110  10.448
10077W        W81803  11.284  44.773   3.661
10078W        W81804   6.835   5.236  14.306
10079W        W81805  44.923  30.489  13.949
10080W        W81806   2.322   9.156   4.693
10081W        W81807  19.173  40.580  14.880
10082W        W81808  35.649  27.424   0.934
10083W        W81809   0.102  15.846   0.354
10084W        W81810  32.761  42.222  13.929
10085W        W81811  19.309  26.819   2.796
10086W        W81812   7.951  13.352  10.678
10087W        W81813  24.587  10.869   2.955
10088W        W81814   9.922   1.754  13.623
10089W        W81815  20.823  42.446   4.285
10090W        W81816  12.801  28.608  10.723
10091W        W81817   1.985  21.596   3.121
10092W        W81818  32.835  24.284  14.427
10093W        W81819   1.638  44.428   0.184
10094W        W81820  35.041  29.529   4.191
10095W        W81821   8.333  16.031   3.280
10096W        W81822   0.040   5.798  13.957
10097W        W81823   3.318  18.353  11.606
10098W        W81824   2.494  15.308   0.819
10099W        W81825  11.677   9.474   2.836
10100W        W81826   1.352  24.217   4.607
10101W        W81827   9.074  19.023  13.824
10102W        W81828  30.372  12.163  12.750
10103W        W81829   2.214  31.665  11.971
10104W        W81830  11.011  24.994   4.811
10105W        W81831  29.100  40.996   2.716
10106W        W81832  25.142  13.318  11.126
10107W        W81833  27.628  37.601   1.399
10108W        W81834  11.362   6.321  12.678
10109W        W81835  22.047  20.368   0.740
10110W        W81836  26.150  25.113  14.929
10111W        W81837  37.657  42.183  14.816
10112W        W81838  37.090  23.545   0.289
10113W        W81839   6.256  18.881   4.321
10114W        W81840  24.214  10.737   3.320
10115W        W81841  32.693  16.176   3.945
10116W        W81842  11.068  18.753  12.594
10117W        W81843  21.237  19.167   4.797
10118W        W81844  44.380  16.261  11.825
10119W        W81845   7.359  17.769   2.682
10120W        W81846  18.845  33.441  13.903
10121W        W81847  42.450  11.167  11.050
10122W        W81848  29.350  14.093  14.031
10123W        W81849  17.813  26.974  14.055
10124W        W81850  31.556   4.965   9.871
10125W        W81851  30.203  20.106  12.486
10126W        W81852  11.895  38.328  13.518
10127W        W81853  39.522  35.958   0.862
10128W        W81854  35.877  37.473  12.306
10129W        W81855  17.029  19.263  13.973
10130W        W81856   8.428  44.035   0.360
10131W        W81857  17.032  35.100  13.066
10132W        W81858   4.397  19.590  11.925
10133W        W81859  16.888  13.882   2.815
10134W        W81860  16.781   1.764   2.332
10135W        W81861  23.099  14.127  10.645
10136W        W81862  33.892  41.816   3.141
10137W        W81863  25.397  32.683   0.365
10138W        W81864  11.484  11.608   2.716
10139W        W81865  39.515   2.760  14.515
10140W        W81866  17.152  31.559   2.523
10141W        W81867  31.490  38.515  14.821
10142W        W81868  17.047   4.831  12.935
10143W        W81869   7.304   7.957  11.485
10144W        W81870  11.284  22.542  11.478
10145W        W81871  12.176  18.463   1.833
10146W        W81872   1.533  42.804  10.703
10147W        W81873  43.288  10.741  12.947
10148W        W81874   3.526  25.228  12.531
10149W        W81875  22.681  38.319   2.630
10150W        W81876  34.975  14.718   2.350
10151W        W81877  30.898   3.171   3.403
10152W        W81878  35.886  36.044  12.045
10153W        W81879   4.295  40.920   3.116
10154W        W81880  11.732  26.097  14.993
10155W        W81881  36.152  37.161  11.199
10156W        W81882  14.357  44.833   4.536
10157W        W81883  22.598  15.624  14.831
10158W        W81884  35.350  22.277   3.635
10159W        W81885  43.822  22.072  13.506
10160W        W81886  11.696  44.373   0.548
10161W        W81887  38.334  15.086   4.803
10162W        W81888   4.206  35.440   0.871
10163W        W81889  32.863  10.800   0.377
10164W        W81890   0.364  40.368   0.311
10165W        W81891  22.921  37.165  12.430
10166W        W81892  29.965  11.220   1.829
10167W        W81893  32.941   7.854  12.946
10168W        W81894  43.546  13.294  12.140
10169W        W81895  20.002  30.994  12.529
10170W        W81896  37.427  36.511   3.343
10171W        W81897  29.573  16.332  11.172
10172W        W81898  18.185  27.999   0.492
10173W        W81899  40.220  16.029   4.723
10174W        W81900  37.363   4.355   1.363
10175W        W81901   0.235  11.933   1.929
10176W        W81902  26.877  21.055  13.430
10177W        W81903   2.987  35.989  14.708
10178W        W81904  18.789  20.244  12.085
10179W        W81905  28.726  38.643   3.683
10180W        W81906  25.801   3.190   4.069
10181W        W81907   9.417  11.122   3.134
10182W        W81908   0.976  35.914   3.127
10183W        W81909   0.372  33.511   2.831
10184W        W81910  20.046  38.849  12.524
10185W        W81911  19.149  37.056   2.172
10186W        W81912  11.894   0.900  11.897
10187W        W81913  23.726  44.843   3.142
10188W        W81914   8.109  37.438   0.867
10189W        W81915  32.461  32.886  12.826
10190W        W81916   4.426   7.666   4.907
10191W        W81917  34.519  17.790   2.318
10192W        W81918  25.940  37.841   2.972
10193W        W81919  14.593   3.803   3.818
10194W        W81920  17.281  22.578  10.265
10195W        W81921  23.739  27.647   9.746
10196W        W81922  24.949   1.246   0.739
10197W        W81923   6.763   5.413  10.825
10198W        W81924   9.296  32.995   2.334
10199W        W81925   0.721  17.618  11.668
10200W        W81926  26.930  33.638   3.136
10201W        W81927  28.106  15.917   0.405
10202W        W81928  21.064  11.155   0.100
10203W        W81929  34.001  44.734  12.025
10204W        W81930  35.309  16.708   1.862
10205W        W81931  38.828   3.264   0.207
10206W        W81932  18.248   2.233  12.515
10207W        W81933   2.934   9.529   0.051
10208W        W81934  34.901   3.905   2.285
10209W        W81935  17.800  21.343   1.208
10210W        W81936  34.385  33.049   0.470
10211W        W81937  37.624  39.977   0.376
10212W        W81938  27.431  20.391  11.658
10213W        W81939   9.416  10.876  12.099
10214W        W81940  28.053  16.075   3.106
10215W        W81941  12.142   5.242  11.517
10216W        W81942  22.019  35.849   2.800
10217W        W81943  24.168  15.308  11.121
10218W        W81944  34.292  33.023  12.101
10219W        W81945  41.351  22.572  12.542
10220W        W81946  43.849  36.332   4.408
10221W        W81947  43.892   4.002  13.878
10222W        W81948  24.605   0.900   2.638
10223W        W81949  17.118  39.925  10.581
10224W        W81950  15.388  32.709  11.543
10225W        W81951  36.876  15.856   3.257
10226W        W81952  24.082   6.241   0.237
10227W        W81953  10.171  43.028  13.799
10228W        W81954  18.678  44.263  11.360
10229W        W81955  18.225  40.832  11.973
10230W        W81956  13.331   4.301   1.508
10231W        W81957   0.035  31.414  12.538
10232W        W81958  26.545   2.394  14.095
10233W        W81959  24.963   1.054   4.683
10234W        W81960  13.906  12.355  12.917
10235W        W81961  18.541  13.412  14.825
10236W        W81962  40.804  10.786  11.585
10237W        W81963   7.983  44.579  13.888
10238W        W81964  25.726  42.803  11.577
10239W        W81965  24.083  19.875   4.595
10240W        W81966  14.916  31.494   3.292
10241W        W81967   3.902   2.825   0.390
10242W        W81968  30.135  44.261  13.530
10243W        W81969   9.804  27.464  10.635
10244W        W81970   7.963  19.329   1.340
10245W        W81971  41.375  20.625  10.635
10246W        W81972  18.548  16.829   0.725
10247W        W81973  16.288   2.253  14.456
10248W        W81974   5.385  14.899  14.588
10249W        W81975  41.118  20.746   0.941
10250W        W81976  14.198  34.617  11.892
10251W        W81977   4.353  36.031   0.371
10252W        W81978  37.999   8.233  14.283
10253W        W81979  11.176  34.050  10.230
10254W        W81980  23.947  16.615  10.957
10255W        W81981  18.797  13.104  12.462
10256W        W81982  39.031   1.375   4.540
10257W        W81983  27.076  18.305   3.728
10258W        W81984  39.452   4.771  11.528
10259W        W81985  24.197  19.969  11.047
10260W        W81986  10.304  31.523  14.416
10261W        W81987  30.910  30.982  13.978
10262W        W81988  44.983  10.693   3.766
10263W        W81989   7.857   6.579  14.253
10264W        W81990   0.698  43.074  11.152
10265W        W81991  43.348  11.647   1.401
10266W        W81992  29.165  12.171  12.960
10267W        W81993  14.718  19.240  10.977
10268W        W81994  33.710   3.988   4.946
10269W        W81995  25.804  11.150   3.013
10270W        W81996  19.311  21.886  11.964
10271W        W81997  28.297  20.720  14.273
10272W        W81998  13.153  21.467   1.986
10273W        W81999  33.459   1.818  13.420
10274W        W82000   0.161  41.090  12.870
10275W        W82001  24.275  44.572  10.611
10276W        W82002  13.081  18.093  11.152
10277W        W82003  41.505   1.427  13.049
10278W        W82004  27.196   3.696  14.404
10279W        W82005  10.345  32.418  10.359
10280W        W82006  22.927  41.056  12.166
10281W        W82007   3.989  38.429  14.972
10282W        W82008  20.667  20.644   3.356
10283W        W82009   6.185  37.015   1.327
10284W        W82010  13.137   6.736  11.560
10285W        W82011  42.765  22.639  12.888
10286W        W82012  32.424  30.501   0.484
10287W        W82013   5.960   8.952   1.318
10288W        W82014  25.568   3.681   3.997
10289W        W82015  14.163  14.688  13.478
10290W        W82016   8.615  42.367  14.415
10291W        W82017  38.295  28.957  11.904
10292W        W82018  17.594  41.500  12.016
10293W        W82019  18.200   2.439   3.284
10294W        W82020  12.250  24.701   2.369
10295W        W82021  22.613  40.100  10.398
10296W        W82022  19.277  21.303  11.879
10297W        W82023  32.834  34.616  14.824
10298W        W82024  11.677  24.559  10.768
10299W        W82025  27.183  20.384  14.387
10300W        W82026  14.352   1.049  14.910
10301W        W82027   6.128  18.617   2.614
10302W        W82028   0.999  33.560   0.541
10303W        W82029  21.081  40.074   3.723
10304W        W82030  32.660  30.188  14.882
10305W        W82031  40.182  44.108   4.165
10306W        W82032  15.355   0.941   4.894
10307W        W82033  21.201   2.473   2.508
10308W        W82034   0.701  39.844  10.599
10309W        W82035  18.743   9.621   3.432
10310W        W82036  15.832   7.698   4.786
10311W        W82037  39.295   9.176  12.072
10312W        W82038  29.932  18.448  12.937
10313W        W82039  44.435  23.784   3.325
10314W        W82040  13.260   3.235   3.322
10315W        W82041  31.434  12.038  11.058
10316W        W82042  27.676   2.001   3.773
10317W        W82043  34.303   4.959  10.632
10318W        W82044   1.456  22.009  11.149
10319W        W82045   7.659  11.312  14.090
10320W        W82046   3.456   8.367   4.819
10321W        W82047  16.266  14.142   2.458
10322W        W82048  30.948  41.040  12.617
10323W        W82049  29.364  22.188   4.186
10324W        W82050  21.009   3.846   1.270
10325W        W82051  13.195   5.380  14.217
10326W        W82052  10.252  42.819   2.151
10327W        W82053  33.849  27.728   3.742
10328W        W82054  38.005  24.757  11.537
10329W        W82055  17.132  14.626   4.882
10330W        W82056  23.254  14.213   1.840
10331W        W82057  21.084  44.293   3.186
10332W        W82058  24.923  44.198  11.063
10333W        W82059  41.978  40.904   2.419
10334W        W82060  28.079  24.500  14.477
10335W        W82061   9.651  16.159   2.888
10336W        W82062  18.207   2.825   1.261
10337W        W82063  11.702   6.681  12.546
10338W        W82064  33.100  40.525   4.382
10339W        W82065  34.012  41.624  11.370
10340W        W82066  43.783  14.687  11.615
10341W        W82067  17.820  35.512   1.837
10342W        W82068  15.701  16.584   0.353
10343W        W82069  12.438  33.725  14.432
10344W        W82070   1.868  13.644  13.477
10345W        W82071   1.143  32.250   0.588
10346W        W82072  38.585  40.432  14.837
10347W        W82073  24.930  17.559   3.164
10348W        W82074  14.703  31.570   0.439
10349W        W82075  32.269  41.947   9.752
10350W        W82076  33.162  14.440   3.262
10351W        W82077  25.187  42.263   1.450
10352W        W82078  32.719  13.928   1.880
10353W        W82079  23.408  33.519   0.288
10354W        W82080  36.178  14.835   1.818
10355W        W82081  25.568  43.405  14.271
10356W        W82082  17.805  14.096  13.472
10357W        W82083  22.081  36.696   4.612
10358W        W82084  27.946  18.740   0.791
10359W        W82085   8.867  30.968   3.817
10360W        W82086  18.989  42.969   9.936
10361W        W82087   5.379   2.886   0.557
10362W        W82088  40.729  35.433  14.811
10363W        W82089  24.151  25.236  12.579
10364W        W82090  14.599  21.515   4.497
10365W        W82091   2.697   1.473  11.916
10366W        W82092  17.184  41.762   4.443
10367W        W82093  28.567  27.760  14.216
10368W        W82094  44.990  39.349   2.706
10369W        W82095   7.182  31.581   3.828
10370W        W82096   4.925   9.608   0.411
10371W        W82097  33.922  37.405   3.170
10372W        W82098  19.302  11.344  11.520
10373W        W82099   8.912  42.158  12.953
10374W        W82100  16.832  37.833   4.674
10375W        W82101   5.180  13.046  11.060
10376W        W82102  14.619   4.717  11.138
10377W        W82103   8.475  10.784   2.240
10378W        W82104   5.080   6.748   5.007
10379W        W82105  14.750  34.382   1.833
10380W        W82106  34.777  36.581  14.878
10381W        W82107  27.688   9.617   0.489
10382W        W82108  21.313  11.786   3.331
10383W        W82109  35.036  42.282  12.839
10384W        W82110  23.574  12.284  14.035
10385W        W82111  23.922  20.381   4.681
10386W        W82112   8.215  21.829  14.872
10387W        W82113   5.688  23.717  12.044
10388W        W82114  34.158  20.805  13.485
10389W        W82115   9.787  34.661   4.188
10390W        W82116  26.901  43.337  13.058
10391W        W82117   3.746   5.598  10.228
10392W        W82118  31.564  24.075   0.975
10393W        W82119  28.497  24.557   1.913
10394W        W82120  30.980  27.464   2.484
10395W        W82121  30.136  41.873   3.932
10396W        W82122  21.454  13.723   3.730
10397W        W82123  16.941  29.345  10.579
10398W        W82124   7.706  11.318   2.279
10399W        W82125  19.469  39.389  11.687
10400W        W82126  29.913   9.987  13.807
10401W        W82127  10.894  26.019  12.101
10402W        W82128  43.244   4.887   3.720
10403W        W82129  23.510  35.796  10.402
10404W        W82130  11.465  26.162  10.704
10405W        W82131  39.780  13.282  12.870
10406W        W82132  13.889  33.205  14.475
10407W        W82133  24.926  21.740   2.823
10408W        W82134  27.242  42.094  14.137
10409W        W82135  27.098  32.306   2.084
10410W        W82136  11.126  10.422   4.158
10411W        W82137  29.222  44.777  11.703
10412W        W82138  20.964  22.800  11.606
10413W        W82139  19.304  37.882  13.546
10414W        W82140  25.512  30.138   3.731
10415W        W82141   2.791  32.033  13.056
10416W        W82142  20.991  28.940   0.709
10417W        W82143  17.177  18.784   2.332
10418W        W82144  26.121  30.731   2.853
10419W        W82145  29.462  21.208   2.160
10420W        W82146  32.572  28.699   4.304
10421W        W82147   3.718   5.635   2.760
10422W        W82148  36.088  13.337  13.458
10423W        W82149  31.287  28.173  11.126
10424W        W82150  26.432  26.998   4.121
10425W        W82151  21.241  36.356   4.615
10426W        W82152   1.865  10.906  14.992
10427W        W82153   3.846  34.581   2.793
10428W        W82154  35.670  30.875  13.331
10429W        W82155  18.876  25.129  10.059
10430W        W82156  33.311  33.022  10.524
10431W        W82157   0.945  29.614   0.416
10432W        W82158  14.516  33.170   0.342
10433W        W82159   3.682  17.301  11.984
10434W        W82160  28.841  29.502   0.496
10435W        W82161   9.296  39.929  11.464
10436W        W82162  34.885   3.141  14.975
10437W        W82163  33.276   9.351  11.728
10438W        W82164  44.203  13.229   3.500
10439W        W82165  42.955  28.636  13.244
10440W        W82166  12.583   6.200  11.449
10441W        W82167  14.389  11.103  14.457
10442W        W82168  41.971   7.677   2.317
10443W        W82169  18.744   8.559  11.673
10444W        W82170  33.971  40.409  13.940
10445W        W82171   7.201  11.269   2.230
10446W        W82172  23.991   2.881   0.884
10447W        W82173  29.715   8.203   1.734
10448W        W82174   9.727  44.413   0.727
10449W        W82175  25.651  11.862  14.435
10450W        W82176  12.309   7.263  13.987
10451W        W82177  37.074  14.864  12.379
10452W        W82178  20.626  40.042  10.665
10453W        W82179  21.301  32.605   2.174
10454W        W82180  32.515   3.436  14.584
10455W        W82181  34.487  36.941   1.979
10456W        W82182  27.509  42.268   0.000
10457W        W82183  18.279  15.329  10.712
10458W        W82184   3.496   6.912  12.987
10459W        W82185   8.739  32.973  13.206
10460W        W82186   1.197  40.990   0.786
10461W        W82187  36.660  20.169  12.020
10462W        W82188   2.739   1.684   2.403
10463W        W82189  15.386  14.503   2.273
10464W        W82190  37.023  13.791  13.280
10465W        W82191  44.603  26.275  10.959
10466W        W82192  36.634  11.077  12.049
10467W        W82193   3.356  19.318  11.300
10468W        W82194  14.818   1.609   2.715
10469W        W82195  44.598  15.197  13.136
10470W        W82196  12.312   8.297  11.651
10471W        W82197  32.292   2.363   4.606
10472W        W82198  30.741  40.835  10.888
10473W        W82199   8.149   5.269  14.586
10474W        W82200  21.739  31.222   4.368
10475W        W82201   2.484  27.180   1.687
10476W        W82202   9.115  28.589   0.332
10477W        W82203  12.332   7.658  12.509
10478W        W82204  26.080  20.562   3.770
10479W        W82205   5.402  32.531   4.087
10480W        W82206  40.448  43.008  11.538
10481W        W82207   2.239  15.515  14.242
10482W        W82208  38.061  11.683   2.738
10483W        W82209  33.627  12.778  13.428
10484W        W82210  33.614  26.766   2.727
10485W        W82211  31.969  39.020  13.687
10486W        W82212  27.576  17.343   3.340
10487W        W82213  26.931  22.021  12.474
10488W        W82214  24.019  23.734   4.369
10489W        W82215  33.316  19.966  10.094
10490W        W82216  38.534  17.087  12.912
10491W        W82217  20.154  20.614  14.392
10492W        W82218  43.983  28.920   4.037
10493W        W82219  22.231  20.627  14.386
10494W        W82220  34.393  40.554  11.928
10495W        W82221  10.363  43.821  11.228
10496W        W82222  38.610  31.910   2.715
10497W        W82223  44.471   6.095   3.700
10498W        W82224  37.292  39.585  14.979
10499W        W82225  30.482  13.103   3.117
10500W        W82226   2.992  33.026   4.416
10501W        W82227  23.001  31.494   4.277
10502W        W82228  34.901  36.346  12.609
10503W        W82229  19.762   8.342  11.504
10504W        W82230  34.853  41.421  13.798
10505W        W82231   5.911  27.237  13.965
10506W        W82232  29.739  30.375  11.547
10507W        W82233  35.355  19.651   0.496
10508W        W82234  25.141  44.677  14.380
10509W        W82235  29.672  33.686  14.469
10510W        W82236  38.806  15.373   3.141
10511W        W82237  40.100  18.988  12.444
10512W        W82238  33.661  37.918  12.162
10513W        W82239  43.258  22.572  10.363
10514W        W82240  22.655  30.955   1.544
10515W        W82241  34.034   6.360  12.045
10516W        W82242   6.956   3.396   4.079
10517W        W82243   0.839   0.530  12.260
10518W        W82244  27.198  37.899   4.033
10519W        W82245  13.130  32.075  14.380
10520W        W82246  20.161  37.367   2.191
10521W        W82247  21.532  23.629   1.475
10522W        W82248   3.870   2.207   0.190
10523W        W82249  31.558   9.765  14.201
10524W        W82250   0.480  40.798  12.465
10525W        W82251  18.810  43.399  12.417
10526W        W82252  32.805  21.293   0.461
10527W        W82253   8.869  16.724   1.800
10528W        W82254  30.004  23.112  14.360
10529W        W82255  39.937  20.572   4.084
10530W        W82256  21.285   1.362   3.482
10531W        W82257  31.641  30.525  11.622
10532W        W82258   6.320  21.515   0.272
10533W        W82259  15.160  10.767  12.496
10534W        W82260   8.668  28.546  14.272
10535W        W82261   6.258  11.663  10.745
10536W        W82262  21.474  29.056   2.162
10537W        W82263   1.747   9.786   4.294
10538W        W82264   7.747  27.540  12.124
10539W        W82265  32.618  44.961   9.955
10540W        W82266   3.327  30.897  14.423
10541W        W82267  11.197  41.478   3.517
10542W        W82268  32.051  25.976  14.434
10543W        W82269  32.512  16.048  13.924
10544W        W82270   9.556  35.996   9.979
10545W        W82271  39.793  30.926  13.985
10546W        W82272  44.835  40.384  12.829
10547W        W82273   7.580   9.876   1.342
10548W        W82274  26.170  33.506  14.410
10549W        W82275  39.841  13.633   3.245
10550W        W82276  37.761   5.756  11.683
10551W        W82277   4.811   8.289   4.375
10552W        W82278   5.325  16.578  11.114
10553W        W82279  17.607  39.763  10.628
10554W        W82280   2.351  31.049  11.502
10555W        W82281  39.905  19.529   0.764
10556W        W82282  19.127  38.369   4.827
10557W        W82283  29.588   0.104  13.911
10558W        W82284  19.502   3.884   0.327
10559W        W82285  39.911  13.153  11.131
10560W        W82286  19.100   5.481   2.295
10561W        W82287  41.849   5.718   0.751
10562W        W82288  37.453  12.405   0.914
10563W        W82289  26.591   5.286   3.585
10564W        W82290  41.088  23.542   2.785
10565W        W82291  39.096  14.737   5.045
10566W        W82292  30.195  39.649  12.064
10567W        W82293  10.474  35.527  13.775
10568W        W82294   0.469  30.407   1.904
10569W        W82295  17.677  38.769   2.824
10570W        W82296   3.006  26.004   3.395
10571W        W82297  11.669  31.578  14.925
10572W        W82298   8.849  44.928   3.693
10573W        W82299  19.985   1.749  13.051
10574W        W82300  12.672  24.071   0.828
10575W        W82301  10.750  27.894  10.930
10576W        W82302  23.526  20.594   4.372
10577W        W82303  21.277  31.643   1.325
10578W        W82304  33.312  38.200   1.028
10579W        W82305  30.222  18.588  11.736
10580W        W82306  28.973  26.158   1.178
10581W        W82307  34.867  31.787  12.012
10582W        W82308  32.439  21.130   0.947
10583W        W82309  33.526  38.686   4.689
10584W        W82310  35.918  25.520   3.605
10585W        W82311  42.303  29.584  10.969
10586W        W82312  42.538   5.308  14.852
10587W        W82313  41.395   7.676   1.704
10588W        W82314  15.253  24.428   4.680
10589W        W82315  21.273   1.037   0.540
10590W        W82316  12.574  35.426  13.439
10591W        W82317  25.241  11.165  14.079
10592W        W82318  27.579  13.075   2.207
10593W        W82319  22.057  24.540   4.728
10594W        W82320  33.107   8.597  12.437
10595W        W82321  38.390   9.836   1.663
10596W        W82322  24.934   0.902  13.000
10597W        W82323   6.883  39.699   2.820
10598W        W82324  36.866  30.963  12.632
10599W        W82325  36.993  25.961   0.756
10600W        W82326  10.009  27.710   4.981
10601W        W82327  32.609  30.432  10.401
10602W        W82328   8.678  18.238   2.718
10603W        W82329  11.668  40.425   0.449
10604W        W82330  31.405  26.974  11.648
10605W        W82331  10.839  32.610  10.596
10606W        W82332  31.461  23.642   2.287
10607W        W82333  37.841  28.184   2.260
10608W        W82334  12.826  26.626   1.634
10609W        W82335  35.524   1.528   3.283
10610W        W82336  26.662  39.471  14.774
10611W        W82337   1.841  21.298  14.365
10612W        W82338  39.030  10.699   9.955
10613W        W82339  29.679  34.568  13.517
10614W        W82340  11.364   3.359  11.144
10615W        W82341  11.925   1.758  11.550
10616W        W82342  33.772  27.705  12.011
10617W        W82343   1.201   3.343   2.791
10618W        W82344   8.403  39.385  13.282
10619W        W82345  15.015   8.536   3.698
10620W        W82346   4.246   4.317   1.439
10621W        W82347  43.775  35.113   0.295
10622W        W82348  31.080  20.981   2.719
10623W        W82349  34.601  28.230  12.867
10624W        W82350   6.466  12.744   1.421
10625W        W82351  12.051  19.047  11.541
10626W        W82352  31.100  42.798  13.788
10627W        W82353   9.692  17.096   0.160
10628W        W82354   6.895  18.541  14.443
10629W        W82355  36.575  35.603  13.876
10630W        W82356  21.660  14.840   0.363
10631W        W82357   7.631  24.211   4.654
10632W        W82358  41.525  25.444  12.176
10633W        W82359  19.465  32.062   5.051
10634W        W82360  37.562  13.269   0.459
10635W        W82361  18.203  41.824  12.419
10636W        W82362  19.285  42.061   1.752
10637W        W82363   1.413  37.458  12.442
10638W        W82364  25.987  39.379  13.007
10639W        W82365  13.147  38.224   4.094
10640W        W82366   8.736  33.459  12.382
10641W        W82367  18.185  32.572  10.658
10642W        W82368   9.265  18.272   0.622
10643W        W82369   0.188  27.143  11.043
10644W        W82370  23.641   7.397   1.066
10645W        W82371  17.617  12.122   3.598
10646W        W82372  34.417   8.970   3.255
10647W        W82373  44.402   9.980  10.520
10648W        W82374  27.898  12.185   2.672
10649W        W82375  37.574  17.613  12.993
10650W        W82376  16.023  32.807  10.578
10651W        W82377  21.552  36.944   2.651
10652W        W82378  28.591   4.117   1.277
10653W        W82379  38.325  33.929   0.515
10654W        W82380  39.556  20.168   4.405
10655W        W82381  44.260  33.933  14.885
10656W        W82382  31.685  40.340  13.389
10657W        W82383  39.899  25.202   4.561
10658W        W82384   5.757  13.153  12.442
10659W        W82385  43.398  15.707   1.600
10660W        W82386  35.043  16.114   2.738
10661W        W82387  18.744   5.782  13.610
10662W        W82388  30.100  14.892  11.138
10663W        W82389   8.157  16.654   1.159
10664W        W82390   2.440  22.551   1.233
10665W        W82391  17.628   7.119  11.524
10666W        W82392  25.082  40.850   1.901
10667W        W82393  13.829  25.094  14.007
10668W        W82394  38.817  42.884  12.987
10669W        W82395   9.247   5.374   0.663
10670W        W82396  11.998  39.628  14.862
10671W        W82397  40.933   3.196  12.076
10672W        W82398  13.697  31.935  14.967
10673W        W82399   4.696  44.375  14.840
10674W        W82400   4.600  44.986   3.069
10675W        W82401  16.072  19.208  12.616
10676W        W82402   7.191   9.336  14.465
10677W        W82403  32.597  35.676   0.017
10678W        W82404  23.002  21.719  10.680
10679W        W82405  16.302  42.130   4.542
10680W        W82406  20.470  38.873  13.562
10681W        W82407  23.875  30.508   4.106
10682W        W82408  35.856  35.489   0.260
10683W        W82409  41.037   4.038  12.453
10684W        W82410  29.679  13.679   2.720
10685W        W82411  15.105  32.425  14.397
10686W        W82412  15.130  32.278   0.442
10687W        W82413   0.345   5.186  14.751
10688W        W82414  16.717  35.240  12.455
10689W        W82415  13.325  40.048   2.211
10690W        W82416  27.170  11.813  14.603
10691W        W82417   8.385   1.257  10.467
10692W        W82418  27.010  10.706  12.334
10693W        W82419  10.684  11.572   0.865
10694W        W82420  26.397  25.869   0.313
10695W        W82421  21.436  11.577   2.159
10696W        W82422  32.650   5.011   1.287
10697W        W82423  42.847  24.241   3.129
10698W        W82424  19.649  11.425  12.496
10699W        W82425  35.003  44.889  14.816
10700W        W82426  24.500  15.178  14.796
10701W        W82427  34.985  12.790  13.819
10702W        W82428  19.640   9.062  13.395
10703W        W82429  19.621  44.764  11.094
10704W        W82430  39.585  37.808  13.843
10705W        W82431   1.420  27.863  11.119
10706W        W82432  41.387   2.803   3.385
10707W        W82433   3.290   7.779  13.405
10708W        W82434  27.950   7.009   2.791
10709W        W82435   7.793  30.686   2.890
10710W        W82436  26.476   6.154   3.345
10711W        W82437  42.996  22.467  11.351
10712W        W82438  33.496  11.856   5.002
10713W        W82439  35.914  39.885  10.446
10714W        W82440   0.451  30.030   4.652
10715W        W82441  19.464  43.833  11.180
10716W        W82442  39.424   4.901  13.979
10717W        W82443  14.240  37.788  14.103
10718W        W82444  38.356  31.996   1.011
10719W        W82445  35.046  27.429  14.938
10720W        W82446  29.138  24.769   4.872
10721W        W82447  21.792  29.129   3.141
10722W        W82448  14.701  23.218  12.905
10723W        W82449   6.197  39.024  14.947
10724W        W82450  32.973  36.058  12.417
10725W        W82451  11.602  40.389   1.838
10726W        W82452  31.893  10.626  14.430
10727W        W82453  24.153   7.136  12.735
10728W        W82454   3.992  14.310   1.256
10729W        W82455  29.990  42.501   2.246
10730W        W82456  14.216  34.955   2.847
10731W        W82457  38.041  27.428  14.524
10732W        W82458   1.721   4.763   3.917
10733W        W82459  44.439  13.191  11.944
10734W        W82460  18.644   5.366  12.802
10735W        W82461   2.736  26.009   1.887
10736W        W82462  33.422  40.915  12.050
10737W        W82463  21.661  26.497  13.884
10738W        W82464   7.588   4.837  10.687
10739W        W82465  10.749   8.584   5.422
10740W        W82466  16.554   8.756  11.256
10741W        W82467   9.188  14.268   5.090
10742W        W82468  31.996  27.031  12.955
10743W        W82469   5.138  11.822  13.437
10744W        W82470   3.774  18.058  11.509
10745W        W82471   5.337  27.668   4.105
10746W        W82472   3.529  20.814   3.884
10747W        W82473  18.616   9.780  12.970
10748W        W82474  44.403  23.612  13.888
10749W        W82475  30.586  32.664  13.021
10750W        W82476   0.497  25.319   4.738
10751W        W82477  27.133   8.320   4.705
10752W        W82478   7.892  11.861   4.730
10753W        W82479  13.666  41.722  14.325
10754W        W82480  32.983  13.391  11.158
10755W        W82481  22.274  39.897  11.426
10756W        W82482  27.983  37.629  12.855
10757W        W82483  43.691   9.430   4.647
10758W        W82484   1.655   6.338   2.787
10759W        W82485  11.607   5.345  12.444
10760W        W82486  22.963  10.890   2.303
10761W        W82487   5.328  23.176   4.555
10762W        W82488  37.514  38.569   4.105
10763W        W82489  32.893  29.513  11.879
10764W        W82490  18.556  40.721   0.247
10765W        W82491  21.119  34.398   3.554
10766W        W82492  24.028  34.948   1.388
10767W        W82493  42.065  42.936  13.286
10768W        W82494  44.008  17.461  12.520
10769W        W82495   9.351  38.359   4.440
10770W        W82496  41.365  21.609  13.536
10771W        W82497   4.258  30.447   1.882
10772W        W82498  13.804  27.890  13.373
10773W        W82499  44.220  44.991  10.192
10774W        W82500  36.889  38.063   1.794
10775W        W82501   0.504  36.129   1.036
10776W        W82502  10.783  41.044   3.808
10777W        W82503  20.853  13.373  14.897
10778W        W82504  24.575   5.127   1.405
10779W        W82505  38.839  13.728  12.214
10780W        W82506  40.276  41.538   3.283
10781W        W82507   6.011  40.531  12.458
10782W        W82508  35.382  31.280  14.888
10783W        W82509  28.588  34.157   2.105
10784W        W82510  40.830  13.315   3.671
10785W        W82511  31.929  40.544   3.665
10786W        W82512  28.496   4.678   2.716
10787W        W82513   1.394   2.195   1.806
10788W        W82514  28.718  17.205  14.930
10789W        W82515  37.931  34.837   3.664
10790W        W82516  15.320  33.173  11.792
10791W        W82517  11.402  43.585  11.083
10792W        W82518  22.696   1.897   3.746
10793W        W82519  39.452   5.090  12.403
10794W        W82520  43.013   5.962  13.824
10795W        W82521  21.706  31.630  12.566
10796W        W82522  18.171   1.258  11.534
10797W        W82523  18.768   9.114   4.140
10798W        W82524  30.349  37.949   2.656
10799W        W82525  12.930  42.387   1.305
10800W        W82526  16.973  29.572  11.175
10801W        W82527  25.314  42.553  12.465
10802W        W82528  20.548  38.389  10.684
10803W        W82529  35.411  38.879  10.644
10804W        W82530  20.161  40.593  14.860
10805W        W82531  32.927  10.640   0.872
10806W        W82532  18.356  16.265  12.916
10807W        W82533   7.760  33.371   1.956
10808W        W82534  30.257  23.288  11.221
10809W        W82535  31.086  36.119   0.703
10810W        W82536   4.375  34.857  13.452
10811W        W82537  12.945  18.601  10.992
10812W        W82538  20.543   6.050  12.459
10813W        W82539  22.127  30.561   4.538
10814W        W82540  33.092  12.608   0.800
10815W        W82541  15.677  35.539  13.843
10816W        W82542  13.585   2.933   4.868
10817W        W82543  35.039  31.854   0.495
10818W        W82544  36.858   4.758  10.501
10819W        W82545  26.353   5.961   1.071
10820W        W82546  39.263  41.441  11.058
10821W        W82547  26.657  30.094  13.627
10822W        W82548  44.004  41.806   4.145
10823W        W82549  34.148  26.062   4.725
10824W        W82550  38.324  30.409  12.521
10825W        W82551  20.533   6.488   4.223
10826W        W82552  20.730  41.593  12.256
10827W        W82553   7.871   6.301   4.818
10828W        W82554  18.834  26.187   1.549
10829W        W82555  41.077   7.349   4.254
10830W        W82556  28.955   8.679  12.946
10831W        W82557  19.623  38.987  14.407
10832W        W82558  23.546  41.750   1.267
10833W        W82559  22.717  41.361  14.009
10834W        W82560  38.940  31.137   0.509
10835W        W82561   2.824   5.698   2.677
10836W        W82562  38.946  42.923  12.489
10837W        W82563  12.746  36.552   1.899
10838W        W82564  13.656  26.516  11.163
10839W        W82565  39.971  29.122  14.307
10840W        W82566  17.723  32.699  13.446
10841W        W82567  40.061  34.620  12.950
10842W        W82568  43.310  21.060   2.378
10843W        W82569   8.277  20.026   0.930
10844W        W82570  15.054   4.272   0.413
10845W        W82571   2.218  26.481   1.148
10846W        W82572  41.320  22.424  13.059
10847W        W82573  14.716   9.355   1.347
10848W        W82574   1.021  20.465  10.672
10849W        W82575  14.744  41.593  13.389
10850W        W82576  36.860  12.676  14.552
10851W        W82577  44.161  21.013   4.673
10852W        W82578  44.366  25.246  13.173
10853W        W82579  17.028  11.810  14.395
10854W        W82580  35.804   1.430   0.252
10855W        W82581  10.910  21.114   0.784
10856W        W82582  39.797  22.462   0.730
10857W        W82583  42.029  33.418   0.430
10858W        W82584   5.582  30.605  14.767
10859W        W82585   0.463  34.542  13.849
10860W        W82586  43.059  35.037  12.548
10861W        W82587  39.573   1.854   3.619
10862W        W82588  12.181  26.235   4.612
10863W        W82589  11.307  22.068  14.738
10864W        W82590  30.868  10.960   3.769
10865W        W82591  20.280  31.527  11.477
10866W        W82592  36.574  43.403  10.952
10867W        W82593  25.688   2.224   2.614
10868W        W82594  19.749  44.295  13.970
10869W        W82595   5.295  29.158   1.147
10870W        W82596   8.141  44.243   4.142
10871W        W82597  21.752  18.760  13.225
10872W        W82598  18.566   5.472   1.444
10873W        W82599  41.999  26.867  14.870
10874W        W82600  34.191  27.541  10.719
10875W        W82601  26.059  21.986  12.880
10876W        W82602  32.375  39.141  11.048
10877W        W82603   7.820  34.085  12.082
10878W        W82604   9.571  10.713   0.489
10879W        W82605  40.049  15.628   0.836
10880W        W82606  22.178  14.623  11.488
10881W        W82607  17.677  12.399  12.264
10882W        W82608   8.433  16.640   2.649
10883W        W82609  22.147  37.409  10.957
10884W        W82610   5.449   7.001  13.827
10885W        W82611  35.108  31.733  11.139
10886W        W82612  35.430  40.730   1.835
10887W        W82613  25.551   2.041  14.005
10888W        W82614  25.043  19.114   3.907
10889W        W82615  29.025  14.784   3.443
10890W        W82616   5.261  28.230   0.008
10891W        W82617  24.232  32.951  12.244
10892W        W82618   3.007  28.485   2.322
10893W        W82619  36.296  23.170   0.420
10894W        W82620  12.646   7.987   0.530
10895W        W82621  16.237  39.423   2.328
10896W        W82622  42.302  23.028   0.283
10897W        W82623  19.478  41.143  12.774
10898W        W82624  28.574  41.391  12.314
10899W        W82625  39.523   1.766  13.488
10900W        W82626  40.898  31.922  12.872
10901W        W82627  21.235  31.358   4.520
10902W        W82628  11.299  18.171   4.723
10903W        W82629  40.199  32.502  12.379
10904W        W82630  31.887  32.731   4.157
10905W        W82631  18.636   0.376   4.728
10906W        W82632  17.379  31.532   3.779
10907W        W82633  18.898  18.007  10.829
10908W        W82634   2.369  44.800  13.951
10909W        W82635  15.309  26.673   2.843
10910W        W82636  23.653   3.934   2.985
10911W        W82637  16.588   9.288   2.771
10912W        W82638  22.927  25.462  14.249
10913W        W82639  36.993  28.178  14.457
10914W        W82640  41.177  38.199  10.988
10915W        W82641   6.746  25.435   3.634
10916W        W82642  20.261  32.370   1.653
10917W        W82643  37.478  37.248  10.931
10918W        W82644  22.101  19.982   1.722
10919W        W82645  40.952  27.555   1.506
10920W        W82646  28.083  14.302  13.308
10921W        W82647  29.692  33.179  14.452
10922W        W82648   4.850   2.109   4.511
10923W        W82649  15.458  29.979  14.485
10924W        W82650  39.069   4.862   1.204
10925W        W82651  36.243  44.875  11.656
10926W        W82652  32.297  12.936  12.059
10927W        W82653  21.233  40.778   2.346
10928W        W82654   6.306  25.183  11.597
10929W        W82655   4.959  41.426   3.716
10930W        W82656  20.236  12.549   2.104
10931W        W82657  16.377  41.757   4.885
10932W        W82658  11.088  16.146   3.282
10933W        W82659   8.421  27.452  12.457
10934W        W82660  39.554  43.525   1.188
10935W        W82661  15.872  31.529  10.728
10936W        W82662  40.340  42.848   3.660
10937W        W82663  40.852  20.167  14.860
10938W        W82664  35.521  18.060   1.878
10939W        W82665  38.631  31.129   1.466
10940W        W82666  27.655  44.803   3.343
10941W        W82667  16.415  36.536   2.239
10942W        W82668  13.340  38.393   1.304
10943W        W82669  20.756  43.926  14.794
10944W        W82670  39.814  17.563  10.706
10945W        W82671   8.319  36.481  13.188
10946W        W82672  27.570  17.094  14.625
10947W        W82673  29.002  32.425   2.750
10948W        W82674  12.865  17.670   1.653
10949W        W82675  43.934  31.615   3.081
10950W        W82676  31.365  35.509   3.186
10951W        W82677  23.172   2.631  14.283
10952W        W82678   0.373   6.943   1.729
10953W        W82679  42.964  17.152   0.757
10954W        W82680  21.493  42.229   0.082
10955W        W82681  16.241  40.307   1.276
10956W        W82682  14.143  34.914  13.970
10957W        W82683   9.425  10.650  12.973
10958W        W82684   7.797  38.531   1.485
10959W        W82685  13.950   1.877  11.498
10960W        W82686   9.638  13.129   4.238
10961W        W82687  19.709   8.815   0.854
10962W        W82688  38.962  30.060  14.697
10963W        W82689  43.751  33.930  14.917
10964W        W82690   6.871   3.398   4.933
10965W        W82691  32.850   9.888   3.218
10966W        W82692  21.120  25.956   0.015
10967W        W82693  12.492  34.461  11.215
10968W        W82694  24.551  12.616  12.642
10969W        W82695  40.885  37.100  12.409
10970W        W82696  36.600   5.234  14.998
10971W        W82697  11.144  13.841  13.518
10972W        W82698  43.828   7.628  11.912
10973W        W82699   8.967   1.391  12.930
10974W        W82700  18.015  44.868  14.420
10975W        W82701  43.354   3.745   1.082
10976W        W82702  20.083  11.490  12.775
10977W        W82703  40.340   6.059   4.986
10978W        W82704   9.226  33.831  13.016
10979W        W82705   3.622   6.689  13.456
10980W        W82706  43.447  42.845   4.688
10981W        W82707  20.339  14.929   1.318
10982W        W82708  27.081  10.793   0.407
10983W        W82709  23.690  15.239   4.113
10984W        W82710  36.108  15.635  12.004
10985W        W82711  41.951  33.971  12.953
10986W        W82712  27.386  31.506  12.317
10987W        W82713  39.565  15.179   3.837
10988W        W82714  34.975  28.423  13.770
10989W        W82715  22.150  13.577  11.535
10990W        W82716   9.629  22.959  13.074
10991W        W82717   9.383   4.814   2.476
10992W        W82718  21.380  37.498   2.427
10993W        W82719   3.036  11.774   1.860
10994W        W82720   8.292  20.129  10.835
10995W        W82721  44.083  41.738  14.936
10996W        W82722  18.156  32.334   3.112
10997W        W82723  40.081  11.737  14.462
10998W        W82724   2.401  44.917   0.419
10999W        W82725   7.244  37.024   2.823
11000W        W82726  25.174  17.761   2.739
11001W        W82727  17.358  18.460   3.660
11002W        W82728  35.958  16.075  13.336
11003W        W82729   8.198  26.179   3.170
11004W        W82730  33.437  29.855  13.463
11005W        W82731   8.192   1.214  12.532
11006W        W82732  44.943  28.431  12.883
11007W        W82733  31.473  41.479   4.536
11008W        W82734  19.022  32.725   2.704
11009W        W82735  27.728  43.076   1.719
11010W        W82736  13.878  21.056   3.136
11011W        W82737  16.135   8.326  14.135
11012W        W82738  20.523   8.481  11.162
11013W        W82739  44.364   5.282   3.076
11014W        W82740  16.098  12.500   1.886
11015W        W82741  21.275  40.273   2.410
11016W        W82742  11.814  35.612  12.104
11017W        W82743   1.249   5.599   0.665
11018W        W82744  35.345  18.465   4.234
11019W        W82745  42.461  17.814   2.857
11020W        W82746   1.166  40.010  12.874
11021W        W82747  38.065  16.869   2.571
11022W        W82748  37.862  34.849   1.187
11023W        W82749   6.458  30.617   3.675
11024W        W82750   1.810  29.183   0.769
11025W        W82751   8.301  31.010  13.704
11026W        W82752   9.139  25.317   1.272
11027W        W82753  44.880  24.279   2.801
11028W        W82754  17.799  20.808  13.139
11029W        W82755   0.982   5.859   1.955
11030W        W82756  19.598  15.587  12.380
11031W        W82757   3.925   1.136  11.690
11032W        W82758  13.258  23.007   2.641
11033W        W82759  23.324   4.390   2.231
11034W        W82760  20.125  26.994  10.389
11035W        W82761  18.300  37.811   3.177
11036W        W82762  32.830  20.338   1.407
11037W        W82763  40.949  30.078   2.873
11038W        W82764  28.745  14.642   4.547
11039W        W82765  13.520  36.996   1.045
11040W        W82766  39.051  36.488  10.968
11041W        W82767  27.542  37.485  11.411
11042W        W82768  43.413  20.929   0.756
11043W        W82769  22.621  31.370   3.596
11044W        W82770  26.592   0.857   5.413
11045W        W82771  40.344  40.464  12.998
11046W        W82772   5.351  32.945   3.341
11047W        W82773  11.973  35.371   4.666
11048W        W82774  34.388  22.473  13.314
11049W        W82775   8.761  36.937   3.760
11050W        W82776  33.919  29.526   2.777
11051W        W82777  31.883  32.085  11.151
11052W        W82778  29.593  40.364   0.249
11053W        W82779  13.745  29.602   2.390
11054W        W82780  13.917  36.142   4.187
11055W        W82781   9.965  28.029   1.370
11056W        W82782  16.617  26.935   3.828
11057W        W82783  27.077  39.633   1.912
11058W        W82784  22.031  42.028  13.430
11059W        W82785  44.308  37.043  14.459
11060W        W82786  43.529  38.268  14.355
11061W        W82787  41.168  17.801   2.216
11062W        W82788   7.041  35.312  10.102
11063W        W82789  44.874  44.508   4.161
11064W        W82790  29.678  36.470   1.277
11065W        W82791  15.408  13.372   3.388
11066W        W82792  40.113  27.082  12.026
11067W        W82793  21.721  36.254  12.436
11068W        W82794  17.265  26.457  10.732
11069W        W82795  43.889   0.254   4.512
11070W        W82796  12.229  15.811  12.063
11071W        W82797  21.967  28.924   5.742
11072W        W82798  11.640  34.493  10.528
11073W        W82799  20.006  18.097  14.924
11074W        W82800  32.212   5.288   2.651
11075W        W82801  20.627  24.845   4.749
11076W        W82802  41.594   2.499  12.086
11077W        W82803  17.082  20.552   1.781
11078W        W82804   9.972   9.586  14.277
11079W        W82805  31.611  18.108  11.775
11080W        W82806   5.053  41.776   4.988
11081W        W82807  27.493  15.556   4.588
11082W        W82808   6.807  19.671   2.923
11083W        W82809  10.791  22.047   2.573
11084W        W82810  14.854   5.148   2.058
11085W        W82811  15.199  22.482  13.895
11086W        W82812  10.777  34.540  12.722
11087W        W82813   9.159  18.511  13.871
11088W        W82814  11.075  18.204  13.883
11089W        W82815  19.036  10.823  14.891
11090W        W82816  37.612  41.582   1.739
11091W        W82817  23.675  27.083  13.009
11092W        W82818  38.928  15.336  14.359
11093W        W82819  43.565  15.111  13.853
11094W        W82820  26.233   8.646  12.051
11095W        W82821  19.096  35.472   3.712
11096W        W82822  35.595   2.513   2.379
11097W        W82823  25.880   6.968   0.034
11098W        W82824  11.616  41.398   3.236
11099W        W82825  17.643   5.523   4.697
11100W        W82826  26.237  36.423  11.637
11101W        W82827  14.886  35.903  12.088
11102W        W82828  41.572  37.802   0.266
11103W        W82829  31.968  10.340  10.492
11104W        W82830  43.795  17.697  13.861
11105W        W82831  37.625  39.577  11.012
11106W        W82832  29.143   0.443   3.271
11107W        W82833  28.630  11.712   2.109
11108W        W82834  13.661   6.375   2.624
11109W        W82835  24.240   8.959   0.248
11110W        W82836  15.597  24.646  14.865
11111W        W82837   8.780  33.452   1.037
11112W        W82838   1.169  44.056   3.746
11113W        W82839   3.331  22.010  11.650
11114W        W82840  10.267  27.579   1.817
11115W        W82841   3.428  20.992   1.361
11116W        W82842   0.677  31.909  11.613
11117W        W82843  33.323  14.032  13.615
11118W        W82844  18.506  27.314  13.415
11119W        W82845  15.708  43.839   1.749
11120W        W82846  12.584  39.066   3.693
11121W        W82847  17.542  40.447  10.958
11122W        W82848  10.217  27.069   3.667
11123W        W82849   7.795  12.160   0.407
11124W        W82850  14.780   6.808   1.174
11125W        W82851  30.152   8.612   3.101
11126W        W82852  15.255  12.341   4.128
11127W        W82853   9.129  44.917   1.868
11128W        W82854  24.991  30.635  12.189
11129W        W82855  17.761  10.949  12.621
11130W        W82856  17.537  22.757   2.885
11131W        W82857  15.250  42.085   1.423
11132W        W82858   7.105  21.933  11.116
11133W        W82859  18.800  13.137   0.886
11134W        W82860  29.708  29.973   4.333
11135W        W82861  20.152  24.297  11.121
11136W        W82862   8.580  12.289   0.800
11137W        W82863  10.642  18.284   4.580
11138W        W82864  37.420  16.153   1.254
11139W        W82865  22.808   3.457  14.422
11140W        W82866  29.830  34.118   1.349
11141W        W82867  28.996   4.229   2.197
11142W        W82868  26.923  31.623  12.143
11143W        W82869   8.391   0.674  11.589
11144W        W82870  44.785   6.353  13.768
11145W        W82871  29.411  40.306  11.478
11146W        W82872  27.088  36.234   2.194
11147W        W82873  10.760  21.158   3.203
11148W        W82874  26.902  27.662  14.122
11149W        W82875   2.755  36.102  12.449
11150W        W82876  17.794  21.164  10.929
11151W        W82877  14.358  43.253  12.062
11152W        W82878  20.048  14.339   5.212
11153W        W82879  11.118   6.164   0.338
11154W        W82880  25.108  32.145   3.730
11155W        W82881  26.647  27.693   4.947
11156W        W82882  19.686  37.571  12.520
11157W        W82883  26.494  31.319   3.846
11158W        W82884  25.569  23.294  13.546
11159W        W82885  26.638  18.248   4.778
11160W        W82886  20.566  19.119   1.291
11161W        W82887   4.220  31.234  12.390
11162W        W82888  37.522  13.875  14.768
11163W        W82889  31.450  14.758   0.990
11164W        W82890  22.334  17.750   3.523
11165W        W82891  31.333  19.041  12.814
11166W        W82892  17.299  17.760  13.124
11167W        W82893  37.569  37.555   4.283
11168W        W82894  28.450  18.192   4.045
11169W        W82895  37.436   3.347  14.534
11170W        W82896  25.722  40.885   0.795
11171W        W82897   1.198  24.862   5.221
11172W        W82898   8.246  12.347  13.146
11173W        W82899  36.069  12.050   1.886
11174W        W82900  17.479   1.386  12.793
11175W        W82901  26.233  21.232   2.755
11176W        W82902  14.109  14.380  12.071
11177W        W82903  16.569  24.524   2.486
11178W        W82904  24.723  17.375  11.088
11179W        W82905  33.461  21.512   0.947
11180W        W82906   8.093  15.328  14.863
11181W        W82907   8.173  33.140   1.167
11182W        W82908   3.302  31.451  11.607
11183W        W82909  26.893  43.056  14.414
11184W        W82910  32.095  11.021  10.619
11185W        W82911  28.575  42.870   2.176
11186W        W82912   2.634   1.409  14.423
11187W        W82913  23.673   6.318  14.920
11188W        W82914  21.634  23.066   4.121
11189W        W82915  25.434  44.714  13.947
11190W        W82916  13.423  44.519  11.623
11191W        W82917  30.857  38.223  13.364
11192W        W82918  30.671  27.879  13.790
11193W        W82919  11.748  32.378  11.385
11194W        W82920  12.419  33.118  12.098
11195W        W82921  36.398  15.516  10.368
11196W        W82922  42.485  35.191  14.760
11197W        W82923  18.949   3.723   4.512
11198W        W82924  25.632   4.452   1.227
11199W        W82925   7.664  29.916   0.025
11200W        W82926  37.039  41.042   1.249
11201W        W82927  13.878  37.985   0.919
11202W        W82928  11.773  10.276  12.566
11203W        W82929  32.976   9.923  14.819
11204W        W82930  25.202  30.427   0.504
11205W        W82931  43.241  12.016  11.619
11206W        W82932  29.192  18.651   3.192
11207W        W82933   6.772  10.487   3.403
11208W        W82934  25.714  41.536  12.607
11209W        W82935   0.845  40.351  10.618
11210W        W82936  10.803   1.477   3.148
11211W        W82937   5.463  30.651   2.707
11212W        W82938   4.533   9.830  12.180
11213W        W82939   7.263  20.698  12.388
11214W        W82940   4.449  31.406   2.263
11215W        W82941   4.241   0.417  11.811
11216W        W82942  38.398  29.105  11.036
11217W        W82943  33.958  26.557  14.570
11218W        W82944  30.098  33.076   3.980
11219W        W82945   2.297   1.197  13.160
11220W        W82946  41.578  18.533  12.525
11221W        W82947  13.153  24.238  14.474
11222W        W82948  43.960  31.604   2.567
11223W        W82949   5.782  16.783  11.024
11224W        W82950   8.622  11.626  10.579
11225W        W82951  21.710  31.195   3.852
11226W        W82952   6.505   5.863   2.334
11227W        W82953  33.724  24.070   0.255
11228W        W82954   9.244  36.873   4.100
11229W        W82955  16.712  27.629   4.631
11230W        W82956  44.255   3.264  13.533
11231W        W82957  36.047   8.748   1.116
11232W        W82958  32.979   1.353  13.649
11233W        W82959  29.019  39.772  12.010
11234W        W82960  41.187  44.819   3.716
11235W        W82961  21.763   6.238  11.543
11236W        W82962  25.556  41.767  14.942
11237W        W82963  19.659  27.982   4.840
11238W        W82964  34.188  34.320  11.837
11239W        W82965  12.444  32.871  13.058
11240W        W82966  30.027  41.784   3.423
11241W        W82967   8.561  16.818  13.311
11242W        W82968  36.721  28.926   1.612
11243W        W82969  31.548  26.638  14.986
11244W        W82970  27.466  42.946  14.400
11245W        W82971  44.867  34.458   2.217
11246W        W82972  20.179  40.071  14.842
11247W        W82973  39.280  19.164  12.877
11248W        W82974   4.890  34.569  14.902
11249W        W82975  21.770  35.655  12.006
11250W        W82976  41.965  11.628   4.573
11251W        W82977  12.639   1.071  13.543
11252W        W82978  31.156  25.941   5.453
11253W        W82979  29.507  29.065   2.459
11254W        W82980  17.265  14.071  12.886
11255W        W82981  27.723   4.885  13.555
11256W        W82982  15.722  33.363   3.175
11257W        W82983   0.409  15.645   3.162
11258W        W82984  22.318  25.007  11.935
11259W        W82985  23.678  24.927   3.734
11260W        W82986   9.790  40.216  12.502
11261W        W82987  27.073  33.101  12.549
11262W        W82988  38.176  11.421   0.374
11263W        W82989   3.780  12.059  14.977
11264W        W82990  27.712   1.707   4.190
11265W        W82991  10.913  31.358   4.080
11266W        W82992  27.030  35.074  14.868
11267W        W82993  32.959  20.612   4.126
11268W        W82994  37.483  32.410   1.918
11269W        W82995   4.910  25.265  14.354
11270W        W82996   8.879  15.411   2.874
11271W        W82997  17.124  40.578  11.625
11272W        W82998  32.658  27.343   4.146
11273W        W82999  29.726  19.666   1.493
11274W        W83000  16.647   4.274   4.423
11275W        W83001   6.593  17.672   1.184
11276W        W83002   2.708  21.309   0.859
11277W        W83003  39.295   8.101  11.721
11278W        W83004   2.020  40.890  14.059
11279W        W83005  32.492   7.860   3.141
11280W        W83006  28.452   1.484   0.570
11281W        W83007  32.940  10.732   3.349
11282W        W83008  10.555  19.986   2.726
11283W        W83009  30.542   5.670  14.944
11284W        W83010  20.540  28.894  10.056
11285W        W83011  30.952  42.056  10.156
11286W        W83012  33.179   1.384   0.522
11287W        W83013  42.644  23.340   0.029
11288W        W83014  38.900  44.986  14.537
11289W        W83015  21.507   0.012  12.631
11290W        W83016  20.242  30.498  10.993
11291W        W83017  40.399  23.215  14.399
11292W        W83018  27.883  26.497  11.013
11293W        W83019   7.296   7.539  13.326
11294W        W83020  12.882   4.663  12.464
11295W        W83021  14.145  28.723   3.446
11296W        W83022  40.488  26.560   0.467
11297W        W83023   6.491   7.597  13.862
11298W        W83024  43.815  24.630   3.154
11299W        W83025  15.541   5.707  12.547
11300W        W83026  28.601   3.965   2.412
11301W        W83027   7.691  40.420  13.968
11302W        W83028  31.002  29.210  11.050
11303W        W83029   8.431  12.796  13.496
11304W        W83030  44.167  28.908  14.901
11305W        W83031   2.651   7.207  13.850
11306W        W83032  24.709  38.906  10.552
11307W        W83033  10.070  26.153  11.391
11308W        W83034  24.926  28.984   3.233
11309W        W83035  24.033  14.171  13.470
11310W        W83036   0.186  39.456  14.964
11311W        W83037   9.537  32.639  14.440
11312W        W83038  17.800   8.670   3.713
11313W        W83039  21.153  18.733   4.525
11314W        W83040  33.575  37.444  14.479
11315W        W83041   6.278  19.630  10.848
11316W        W83042   2.538   3.695  14.400
11317W        W83043  22.721  37.174  12.942
11318W        W83044   6.781   4.876  14.823
11319W        W83045  16.710  32.948  13.366
11320W        W83046  38.747  14.784   1.724
11321W        W83047  16.668   7.377  13.342
11322W        W83048  29.835  40.439  11.244
11323W        W83049  33.881  35.285  11.969
11324W        W83050   4.674  14.760  14.807
11325W        W83051  24.917  42.983   0.328
11326W        W83052  19.799  36.499   1.978
11327W        W83053   7.431  10.780  12.422
11328W        W83054   5.777  42.554  12.830
11329W        W83055  37.269  24.110   0.472
11330W        W83056  20.351   9.178   0.782
11331W        W83057  30.098   9.627  13.037
11332W        W83058  30.604  43.418   0.628
11333W        W83059  18.621  19.495   3.688
11334W        W83060  20.040  36.936   1.795
11335W        W83061   4.302   9.820   3.597
11336W        W83062  40.891  20.257  13.388
11337W        W83063  37.390   2.408  11.919
11338W        W83064   2.565  31.267  11.909
11339W        W83065  31.444  23.052   5.151
11340W        W83066  43.668  15.785  11.094
11341W        W83067  25.671  35.544  13.702
11342W        W83068  19.452   2.184  12.072
11343W        W83069  42.987   7.194  12.131
11344W        W83070  42.866  20.689   1.803
11345W        W83071  18.027  43.412  12.831
11346W        W83072  30.456  25.055  12.504
11347W        W83073  38.640  29.018  11.497
11348W        W83074  28.472  14.100  14.380
11349W        W83075   0.733  41.822  12.413
11350W        W83076  31.523  33.800   2.664
11351W        W83077  18.565   4.429  14.280
11352W        W83078  35.161  37.519   1.270
11353W        W83079  24.314  13.613   4.398
11354W        W83080  27.159  17.694  13.040
11355W        W83081  19.835  21.545   1.300
11356W        W83082  14.197  27.448   4.385
11357W        W83083  29.090  24.250   4.695
11358W        W83084  10.672  13.176  11.381
11359W        W83085  21.005  43.540  14.446
11360W        W83086  29.542  16.540  14.049
11361W        W83087  16.294   8.198   4.206
11362W        W83088  14.289   9.352   1.887
11363W        W83089   8.361   7.308  12.804
11364W        W83090  17.172  25.721  14.935
11365W        W83091  23.794   4.738  13.680
11366W        W83092  31.220  18.247   2.998
11367W        W83093  35.282  14.741   1.874
11368W        W83094  24.118   1.908  13.812
11369W        W83095  17.063   7.104  14.863
11370W        W83096  36.066  23.070  12.863
11371W        W83097  35.590  20.993   1.243
11372W        W83098  41.740  12.822  12.472
11373W        W83099  22.712  21.633  12.893
11374W        W83100  37.993  37.419  10.462
11375W        W83101  17.549   4.959   2.885
11376W        W83102  18.238  19.578   0.304
11377W        W83103  27.644  21.942  13.984
11378W        W83104   7.874  30.944   1.443
11379W        W83105  27.223   7.009   4.294
11380W        W83106   6.117   4.829  14.274
11381W        W83107   8.858  24.955   3.816
11382W        W83108  27.023  16.869   3.747
11383W        W83109  15.170  29.173   3.434
11384W        W83110  25.249  33.479   0.898
11385W        W83111  31.165  42.821   5.117
11386W        W83112   5.900   0.483  11.440
11387W        W83113  36.734   4.356   3.575
11388W        W83114  14.182  30.623   2.279
11389W        W83115   3.007  16.201  12.359
11390W        W83116  40.472  21.015  13.297
11391W        W83117  17.563  44.354   0.054
11392W        W83118  15.905  21.806  13.735
11393W        W83119  42.090  44.417  11.222
11394W        W83120  38.779  39.974   1.758
11395W        W83121   8.435  44.911  13.905
11396W        W83122  25.178  16.997  14.451
11397W        W83123  36.006  11.962  13.454
11398W        W83124  14.735   3.434   1.206
11399W        W83125  17.102  34.233  14.541
11400W        W83126   0.229  15.253  11.931
11401W        W83127  11.354  31.542  10.435
11402W        W83128  18.324  26.189   1.451
11403W        W83129  40.777  37.442  14.954
11404W        W83130  34.476  35.132   4.245
11405W        W83131   7.681   9.670  14.328
11406W        W83132  32.976  34.667   2.905
11407W        W83133   6.290  28.723   1.410
11408W        W83134  10.674  34.415  13.205
11409W        W83135  44.455  14.038   1.939
11410W        W83136  25.441   5.073   0.743
11411W        W83137   8.724  42.331   4.112
11412W        W83138  27.393  12.416  12.596
11413W        W83139  20.075  11.011  12.919
11414W        W83140  20.252   7.053  12.504
11415W        W83141  18.323   2.390  11.086
11416W        W83142   5.321  26.039   1.168
11417W        W83143  33.534  31.548  14.915
11418W        W83144  15.847  41.033  14.497
11419W        W83145  20.268  21.506  12.942
11420W        W83146  30.460   6.786  11.721
11421W        W83147   7.694  19.206   2.708
11422W        W83148  25.980  41.429   2.454
11423W        W83149  23.077  14.983  11.987
11424W        W83150  10.833  40.296  13.337
11425W        W83151  26.436  20.570   1.397
11426W        W83152  43.488  22.831  13.412
11427W        W83153   7.892  19.907  14.235
11428W        W83154  32.804  25.188  11.573
11429W        W83155  38.854  41.962   0.513
11430W        W83156   7.256  35.106   3.416
11431W        W83157  14.661  28.995   3.326
11432W        W83158  12.161  28.683   0.721
11433W        W83159  18.765  44.752  12.377
11434W        W83160  44.772   6.230  11.611
11435W        W83161  31.464  23.056  10.947
11436W        W83162   0.831  28.702  12.309
11437W        W83163  37.782  33.042  14.187
11438W        W83164  44.390  34.898   2.868
11439W        W83165  11.961  30.998  12.896
11440W        W83166   6.739  43.820  14.969
11441W        W83167  31.146  23.073   5.565
11442W        W83168  42.511  13.132  12.904
11443W        W83169  26.855  30.165  11.970
11444W        W83170  30.955  23.016   0.657
11445W        W83171  12.234  12.346  11.025
11446W        W83172  30.435  34.198  14.106
11447W        W83173  11.611  24.338   1.263
11448W        W83174  29.935  22.398  14.744
11449W        W83175  43.057  34.271  10.267
11450W        W83176   8.744  41.202  13.317
11451W        W83177   1.041  19.701  14.883
11452W        W83178   6.795  40.994   3.264
11453W        W83179  35.027   5.684  11.135
11454W        W83180  23.946  29.118  11.709
11455W        W83181  14.244   7.098  10.945
11456W        W83182  20.732  38.975  10.642
11457W        W83183  31.580  30.657   4.715
11458W        W83184  19.071   6.854  12.020
11459W        W83185  26.575  31.743  11.108
11460W        W83186  40.992   6.259   1.821
11461W        W83187  25.161  35.674  13.450
11462W        W83188   5.388   1.446   0.080
11463W        W83189  27.089  34.682   1.969
11464W        W83190   1.952  22.465   1.453
11465W        W83191  14.152  32.640  13.177
11466W        W83192  36.273  44.712   2.231
11467W        W83193   3.332  14.901  12.643
11468W        W83194  19.016  31.308  12.818
11469W        W83195  39.085  36.119  14.506
11470W        W83196   7.433  12.856  13.375
11471W        W83197  21.468   9.396   1.328
11472W        W83198  11.605  17.611   3.229
11473W        W83199  20.756  16.385  13.583
11474W        W83200  36.620  44.387  11.179
11475W        W83201  16.353  16.643  14.527
11476W        W83202  32.834  19.116  14.870
11477W        W83203  40.822  20.248   1.734
11478W        W83204  16.620  20.066   3.394
11479W        W83205  36.098  16.545  10.945
11480W        W83206  28.521  26.083  10.456
11481W        W83207  24.022   1.191   1.478
11482W        W83208  17.641  32.950  14.416
11483W        W83209   6.818   7.323  11.972
11484W        W83210   6.080   1.720   0.971
11485W        W83211  28.696  36.024   1.464
11486W        W83212  11.144   5.640  11.541
11487W        W83213  43.882  41.034  10.398
11488W        W83214   0.548  44.815   1.934
11489W        W83215  15.272  14.728   2.748
11490W        W83216  19.039  14.456  13.840
11491W        W83217   1.765  36.424  12.087
11492W        W83218  22.271   6.297  10.643
11493W        W83219  40.535  17.697  12.925
11494W        W83220  27.989  33.587  12.696
11495W        W83221  22.919  32.648  14.471
11496W        W83222   7.628  15.384   0.139
11497W        W83223  20.297  11.587   4.712
11498W        W83224  17.297  36.403  11.467
11499W        W83225  25.798   7.786  14.207
11500W        W83226  13.080  33.136  12.482
11501W        W83227  27.354  32.679   3.353
11502W        W83228  21.945   5.410  12.467
11503W        W83229  39.561  18.250  13.838
11504W        W83230  18.216  39.320  13.509
11505W        W83231  16.005  34.428   3.199
11506W        W83232   8.540  26.169   2.756
11507W        W83233  34.879  16.813   0.723
11508W        W83234  37.091  14.260  10.766
11509W        W83235   4.668  16.908  14.303
11510W        W83236  39.856  33.597   2.293
11511W        W83237  40.486  15.758  13.029
11512W        W83238  14.521  32.940   3.218
11513W        W83239   6.288  23.002  12.056
11514W        W83240  12.530  14.627   0.877
11515W        W83241  10.271  32.015   0.037
11516W        W83242  37.438  23.283  12.923
11517W        W83243  12.296  40.094   2.147
11518W        W83244  15.802  26.157   0.813
11519W        W83245  39.821  11.114  13.446
11520W        W83246  18.209  38.522  12.497
11521W        W83247  11.266  42.474  14.929
11522W        W83248  29.691  32.378  13.351
11523W        W83249   5.293  12.201  14.464
11524W        W83250  27.639  30.534  13.934
11525W        W83251  26.643  38.139   0.930
11526W        W83252  25.658  27.470  10.590
11527W        W83253  15.170  23.007  13.794
11528W        W83254  17.882  16.108   3.631
11529W        W83255  18.862  42.045   0.208
11530W        W83256  27.854  38.564   4.095
11531W        W83257  20.708  13.818   3.052
11532W        W83258   6.713  26.893  12.058
11533W        W83259  28.158   7.347  14.431
11534W        W83260  41.468  21.084  10.896
11535W        W83261   1.826  38.813   1.811
11536W        W83262  42.503  32.827   3.722
11537W        W83263  39.944  34.119   1.377
11538W        W83264  43.107  29.492  13.560
11539W        W83265  36.612  11.260   2.543
11540W        W83266  11.328   8.802  11.955
11541W        W83267   3.327  11.694  11.276
11542W        W83268   5.748   2.779   1.900
11543W        W83269   7.424  13.318  12.867
11544W        W83270  10.779  17.708   1.336
11545W        W83271  25.757  13.229   3.149
11546W        W83272  24.966  41.334   1.974
11547W        W83273  16.579  13.716  11.593
11548W        W83274  38.512  32.956   1.789
11549W        W83275  23.958  19.747   0.675
11550W        W83276   3.191   2.818   3.783
11551W        W83277  42.958  33.412   2.293
11552W        W83278  32.037  24.435  14.509
11553W        W83279  41.445  25.630   0.669
11554W        W83280   7.943   6.510  12.871
11555W        W83281  31.429  43.756  13.995
11556W        W83282  26.672  14.181   0.181
11557W        W83283  42.956   1.290   1.596
11558W        W83284  43.273  31.308   0.404
11559W        W83285  30.687  17.719  11.022
11560W        W83286  10.122   8.637  14.467
11561W        W83287   4.671  37.356  14.297
11562W        W83288  31.453  23.612   1.760
11563W        W83289   3.807  26.605   4.216
11564W        W83290   0.185  40.755   1.823
11565W        W83291  34.269  40.171   3.712
11566W        W83292  37.828  29.079   3.313
11567W        W83293  13.404  29.092  13.075
11568W        W83294  20.583  13.755  13.470
11569W        W83295   6.679  41.543  10.782
11570W        W83296   8.908  10.201  12.361
11571W        W83297  31.198  25.237   3.320
11572W        W83298  37.042  14.620  11.411
11573W        W83299  36.169  20.166  11.938
11574W        W83300  31.209  35.817  13.515
11575W        W83301  15.396  20.519   2.179
11576W        W83302  40.513  24.634  12.620
11577W        W83303   2.248   7.769  14.520
11578W        W83304  42.704  25.153   2.670
11579W        W83305  11.779  10.936  13.375
11580W        W83306  14.438  12.292   3.893
11581W        W83307  25.571  29.575  10.662
11582W        W83308  28.564  41.835  11.055
11583W        W83309  17.042  24.609  11.479
11584W        W83310  16.530  23.175   2.761
11585W        W83311  14.563  16.085   1.789
11586W        W83312   0.519  11.031   2.281
11587W        W83313  22.761  44.376  11.529
11588W        W83314  34.465   0.938  10.698
11589W        W83315  16.080  28.050   2.351
11590W        W83316  34.141   5.178   1.255
11591W        W83317  17.551  44.885   2.320
11592W        W83318  22.516  43.785  10.701
11593W        W83319  22.140  28.689   4.208
11594W        W83320  32.128  31.713   1.587
11595W        W83321   0.660   0.621  10.502
11596W        W83322  16.248  42.462   1.440
11597W        W83323  24.081  20.051  13.811
11598W        W83324   0.855  34.477  12.123
11599W        W83325  11.419  21.039   0.775
11600W        W83326  25.588  42.472   0.279
11601W        W83327  38.063  25.892   2.151
11602W        W83328   7.453  41.777   4.547
11603W        W83329  27.231   4.174   1.122
11604W        W83330  38.439   1.588  11.229
11605W        W83331  28.090  12.361  14.332
11606W        W83332   1.319  43.073   2.894
11607W        W83333  19.606  20.745  13.623
11608W        W83334  25.164  15.519   1.829
11609W        W83335  35.867   7.817   2.461
11610W        W83336   5.942  40.005   2.352
11611W        W83337  39.439   0.898  10.748
11612W        W83338   5.390  33.783   0.937
11613W        W83339  42.101  34.922  12.684
11614W        W83340  35.091  38.392  14.817
11615W        W83341  44.593  40.448  11.410
11616W        W83342   3.276   5.803   2.915
11617W        W83343  24.070  40.350   3.225
11618W        W83344   5.779  33.383  12.451
11619W        W83345  20.733  19.052   4.551
11620W        W83346  10.866  11.658  13.367
11621W        W83347   8.843  31.356   3.373
11622W        W83348  24.921  31.730   4.271
11623W        W83349  31.181  22.811   1.289
11624W        W83350  27.998  11.375   0.436
11625W        W83351  21.318  28.144   2.700
11626W        W83352  22.398   9.191   2.760
11627W        W83353  25.541  31.746  14.334
11628W        W83354  44.877  37.663  12.072
11629W        W83355   9.866  43.970   0.490
11630W        W83356  39.280   5.817   1.718
11631W        W83357  29.939  28.955  10.790
11632W        W83358  11.616  13.520   3.593
11633W        W83359  23.405  41.030  12.681
11634W        W83360   8.356   8.132   1.193
11635W        W83361  22.068  18.097  13.116
11636W        W83362   4.890  40.263   1.244
11637W        W83363  23.511  41.795  11.684
11638W        W83364  22.740  41.041  11.539
11639W        W83365  18.149  17.736   4.027
11640W        W83366  41.524  23.140  10.393
11641W        W83367  36.473   8.134   3.683
11642W        W83368   4.833   4.026  13.892
11643W        W83369  41.480  40.990  12.092
11644W        W83370  23.470  17.777   0.535
11645W        W83371  33.482  25.602  12.000
11646W        W83372  38.610   8.343   1.773
11647W        W83373  39.236  31.137   3.172
11648W        W83374  39.817  22.960   0.478
11649W        W83375  21.600  23.829   0.011
11650W        W83376  22.630  31.902   3.610
11651W        W83377   1.414  39.163  13.407
11652W        W83378  33.700  37.555   3.629
11653W        W83379  25.629  27.413  13.351
11654W        W83380  31.143  42.345   5.407
11655W        W83381  26.658  11.598  11.150
11656W        W83382  15.634  44.151  14.953
11657W        W83383   8.811  44.808  11.288
11658W        W83384   3.186  17.274  14.545
11659W        W83385   2.229  40.866  13.553
11660W        W83386   6.179  37.667   3.205
11661W        W83387  38.793  32.415  14.480
11662W        W83388  31.585  12.493   4.755
11663W        W83389  27.847  23.826  13.940
11664W        W83390  20.264  41.001  12.394
11665W        W83391  21.095  35.532   3.695
11666W        W83392  13.281   1.367   2.821
11667W        W83393  34.431  19.094  14.760
11668W        W83394  37.594  19.248   0.034
11669W        W83395  42.985  40.899   2.226
11670W        W83396  36.366  35.210  12.177
11671W        W83397  44.999  13.163   2.397
11672W        W83398  29.467  18.459   5.039
11673W        W83399   8.018  20.524   0.880
11674W        W83400  26.497  41.012  10.679
11675W        W83401   4.338  24.476  13.972
11676W        W83402  15.579  36.184  12.883
11677W        W83403  17.155  11.111   2.414
11678W        W83404  31.222   6.953  12.238
11679W        W83405  10.355  21.095  12.981
11680W        W83406  42.785  20.564   4.882
11681W        W83407  26.529  41.382  11.927
11682W        W83408   7.676   9.043   0.409
11683W        W83409  23.745  31.598  14.587
11684W        W83410  21.616  26.972   4.404
11685W        W83411  44.954  15.242   1.884
11686W        W83412  19.773   4.415  12.943
11687W        W83413   6.822  31.203   3.904
11688W        W83414   8.739  41.690  13.130
11689W        W83415  23.714  17.685   1.929
11690W        W83416  19.273  18.165   2.807
11691W        W83417  33.879  24.615   0.318
11692W        W83418  12.380  29.239   4.573
11693W        W83419  20.075  32.981   3.708
11694W        W83420  12.839  10.439  13.880
11695W        W83421  37.088   8.211   2.858
11696W        W83422  33.992  28.508   0.178
11697W        W83423  11.937   7.033   2.271
11698W        W83424  42.449   5.743   3.322
11699W        W83425   1.427   7.455   2.281
11700W        W83426  32.006  37.335  13.789
11701W        W83427   0.394   1.252  11.980
11702W        W83428   8.279  44.545  11.383
11703W        W83429  44.902  16.735   1.479
11704W        W83430  27.254  38.898  10.553
11705W        W83431  34.540   1.282   3.198
11706W        W83432   0.302  15.687   0.857
11707W        W83433   2.283   4.494  14.765
11708W        W83434  13.081  44.798  10.687
11709W        W83435  37.007  30.536   4.524
11710W        W83436  30.920  23.963  12.077
11711W        W83437  11.094  42.510   2.649
11712W        W83438   1.128  13.909   5.146
11713W        W83439  16.467  34.455  13.565
11714W        W83440  20.793  34.608   1.439
11715W        W83441   1.908  34.744   2.222
11716W        W83442  15.964  44.046  11.169
11717W        W83443  23.806  27.196  10.739
11718W        W83444  14.693   3.364   4.138
11719W        W83445  10.698   2.845   4.397
11720W        W83446  31.409  14.799   3.342
11721W        W83447  32.448  29.166   2.400
11722W        W83448  22.583  33.832  13.027
11723W        W83449  22.135  22.314  11.545
11724W        W83450   5.618  16.671   3.016
11725W        W83451  22.566  17.823   1.349
11726W        W83452  42.020  22.746  14.949
11727W        W83453  17.210  33.582  12.581
11728W        W83454  28.183  28.028  13.954
11729W        W83455  13.581  30.515   2.104
11730W        W83456   8.442  25.665   9.928
11731W        W83457  24.398  34.617   1.229
11732W        W83458   0.662  41.364   4.178
11733W        W83459  21.204  35.571  13.362
11734W        W83460   4.684  27.182  13.576
11735W        W83461  30.639  29.993   2.814
11736W        W83462  39.982  12.362  10.858
11737W        W83463  28.863  26.984   1.481
11738W        W83464  33.543  30.780   4.696
11739W        W83465   6.674  42.729  14.974
11740W        W83466   8.948  31.891  14.133
11741W        W83467  18.245  31.296  14.922
11742W        W83468   7.616   0.377   3.298
11743W        W83469   5.046  29.287   3.624
11744W        W83470  21.194  20.056   3.777
11745W        W83471  30.659  28.561  14.774
11746W        W83472  34.824  34.954   2.248
11747W        W83473  20.485  41.048  11.067
11748W        W83474  16.556  35.838   3.283
11749W        W83475  12.586   8.498   0.607
11750W        W83476  33.450  36.500   0.627
11751W        W83477  33.046  13.909   3.278
11752W        W83478  26.856  13.332  13.402
11753W        W83479  30.404  28.913   1.628
11754W        W83480  23.463  34.571  11.170
11755W        W83481  25.016  42.952  14.001
11756W        W83482  29.580   2.565   0.663
11757W        W83483  24.491  35.130  12.109
11758W        W83484   1.537  25.200   0.793
11759W        W83485  22.198  25.840  13.565
11760W        W83486  11.329  44.886   1.238
11761W        W83487  37.855  12.906   3.190
11762W        W83488  36.068   3.446  10.565
11763W        W83489  42.460  12.376  13.474
11764W        W83490  44.749   0.408  10.818
11765W        W83491  32.528  18.240   1.784
11766W        W83492  19.769  29.071  12.416
11767W        W83493  24.239  13.613  14.376
11768W        W83494   8.851  25.263   4.237
11769W        W83495   3.361  35.425  11.207
11770W        W83496  11.969  13.149   0.787
11771W        W83497  44.843  24.093   0.495
11772W        W83498   5.278  31.886   3.293
11773W        W83499  19.663  11.690  10.759
11774W        W83500   0.384   1.673   4.122
11775W        W83501  28.169  21.970   0.778
11776W        W83502  41.569   0.925  12.143
11777W        W83503  18.099  31.051  11.461
11778W        W83504  38.496  12.184  11.043
11779W        W83505   2.138  19.877   4.953
11780W        W83506  24.623  14.683  14.523
11781W        W83507   1.280  13.029  14.386
11782W        W83508  20.860  43.403   3.616
11783W        W83509  21.046  25.703   3.620
11784W        W83510  24.145   3.573   2.385
11785W        W83511  12.276  24.958   2.936
11786W        W83512  17.114  18.606   4.733
11787W        W83513   6.435  19.223   1.505
11788W        W83514  42.924   5.879   4.071
11789W        W83515  28.931  42.088  12.497
11790W        W83516  34.316  38.438   4.153
11791W        W83517   0.652  41.505  14.094
11792W        W83518   5.126  41.460  11.950
11793W        W83519  17.164   8.904  14.799
11794W        W83520  11.100  25.650   2.293
11795W        W83521  38.247  28.979   4.124
11796W        W83522   9.876  29.718  11.894
11797W        W83523  37.249  15.069   3.274
11798W        W83524  19.702  32.290  14.814
11799W        W83525  18.599  37.992  12.385
11800W        W83526  40.556  22.182   4.322
11801W        W83527   3.728   6.143  11.946
11802W        W83528  36.085  41.291   1.256
11803W        W83529  43.875  17.269   0.763
11804W        W83530  25.058  17.047  10.903
11805W        W83531  40.566  22.738  14.425
11806W        W83532  41.437  22.050  12.295
11807W        W83533  10.541   5.087   1.108
11808W        W83534   5.059  19.442   5.121
11809W        W83535  30.909  13.220   2.700
11810W        W83536  35.389  37.448  13.465
11811W        W83537  19.513  27.798   3.537
11812W        W83538  35.902  41.302   4.326
11813W        W83539  32.555  31.374  11.573
11814W        W83540   5.490  19.700  14.009
11815W        W83541   9.800  21.601   2.752
11816W        W83542   2.560  40.275  12.017
11817W        W83543  23.592  36.098   0.637
11818W        W83544   5.647   4.667   5.073
11819W        W83545   8.175  23.972   2.796
11820W        W83546  28.082  41.826  13.509
11821W        W83547   3.322  23.104   0.048
11822W        W83548  13.748  30.855  12.016
11823W        W83549  38.822  16.678   3.693
11824W        W83550  15.146   2.999  14.987
11825W        W83551  23.989   2.946  10.635
11826W        W83552  35.886  37.544  12.818
11827W        W83553  11.570  32.532   3.111
11828W        W83554  22.051  25.156   1.753
11829W        W83555  42.306  27.183  11.566
11830W        W83556  33.955  17.347   4.639
11831W        W83557  21.213  31.838   3.674
11832W        W83558  17.566   7.494  13.836
11833W        W83559   6.186  22.497   0.174
11834W        W83560  33.811  42.174   3.910
11835W        W83561   4.732  15.647   4.093
11836W        W83562  33.709  18.095  12.743
11837W        W83563  21.260  22.682   2.695
11838W        W83564  37.779  41.066  11.912
11839W        W83565  26.635   1.233  11.161
11840W        W83566   1.970  29.079  11.545
11841W        W83567  21.695  14.336   3.791
11842W        W83568  10.205  10.620   3.719
11843W        W83569  37.580  18.801   3.131
11844W        W83570  40.253  41.182   0.971
11845W        W83571   1.365  39.444   1.505
11846W        W83572  36.523  18.589  13.871
11847W        W83573  20.695  31.354  14.265
11848W        W83574  23.868  37.854  12.524
11849W        W83575  37.313  17.276   5.000
11850W        W83576  12.838  31.164   2.404
11851W        W83577  32.321  30.202  10.768
11852W        W83578  11.077  23.867  13.804
11853W        W83579  18.560  44.942   3.827
11854W        W83580  19.275  12.304   3.233
11855W        W83581  25.486  26.109  10.898
11856W        W83582  14.778  28.645   2.757
11857W        W83583  11.253  32.553  11.432
11858W        W83584   4.356  38.813   0.885
11859W        W83585  10.898   1.944   3.325
11860W        W83586  23.427   9.739  10.532
11861W        W83587  15.631  43.803  10.356
11862W        W83588  38.747   1.981  13.897
11863W        W83589  20.106  12.918   1.164
11864W        W83590  29.992   8.168   2.791
11865W        W83591  32.197   0.565   4.120
11866W        W83592  31.544  29.202   0.141
11867W        W83593  30.079  22.777  10.511
11868W        W83594  13.701   0.009  12.889
11869W        W83595  31.320  43.285   3.409
11870W        W83596  44.093  18.492   2.622
11871W        W83597  11.521  12.116   4.612
11872W        W83598  29.458  38.585   4.973
11873W        W83599  41.079  35.432   1.194
11874W        W83600  11.005  30.513   4.690
11875W        W83601  15.201  41.319  13.343
11876W        W83602   4.242  23.859   2.382
11877W        W83603  37.447  23.707  14.375
11878W        W83604  36.872  16.316  10.567
11879W        W83605  26.410  36.606   0.797
11880W        W83606   7.691  13.775  11.983
11881W        W83607   2.891  25.647   4.685
11882W        W83608  22.772  23.159   0.208
11883W        W83609  35.816  19.271   3.783
11884W        W83610   2.871  43.743   4.877
11885W        W83611  31.532  17.174  10.648
11886W        W83612  24.622  32.124  12.978
11887W        W83613   9.122   3.858   0.721
11888W        W83614  28.109  13.221  10.681
11889W        W83615  16.514  16.043   0.475
11890W        W83616  26.882  26.598  11.079
11891W        W83617  38.203  22.076   2.372
11892W        W83618   6.729   5.821  11.649
11893W        W83619  20.048  30.612   0.303
11894W        W83620  29.236   2.853   1.840
11895W        W83621  17.527  37.485   3.413
11896W        W83622  17.220  41.245   2.196
11897W        W83623   0.311  13.348   4.127
11898W        W83624   9.131  29.464  11.613
11899W        W83625   6.317  34.492  10.623
11900W        W83626  12.903  12.670   0.941
11901W        W83627  33.138  42.840   4.060
11902W        W83628  21.997  42.767   2.642
11903W        W83629   6.889  32.645  14.989
11904W        W83630  17.034  25.545   0.446
11905W        W83631  30.572  24.894   4.264
11906W        W83632  16.549  17.475  13.515
11907W        W83633   2.699  23.876   0.977
11908W        W83634   3.371  26.865  13.841
11909W        W83635  21.758   9.379  14.034
11910W        W83636   1.426   5.617   2.090
11911W        W83637  43.789   7.937   4.711
11912W        W83638   8.369   4.284   0.743
11913W        W83639   4.276   2.172   2.426
11914W        W83640  25.425  10.774  11.591
11915W        W83641  17.265   0.520   0.270
11916W        W83642  20.023  30.370  12.903
11917W        W83643  24.942  44.319  11.893
11918W        W83644   7.270  23.801  11.529
11919W        W83645  19.684  27.761   1.164
11920W        W83646  34.989   8.587   4.439
11921W        W83647   5.516  12.730  10.557
11922W        W83648  22.559  16.632  10.994
11923W        W83649  24.225   2.689  13.040
11924W        W83650  29.490  17.559   0.516
11925W        W83651  33.161  16.592   2.101
11926W        W83652  25.062  19.873  10.397
11927W        W83653  39.989  28.690  13.095
11928W        W83654   5.784  23.967   0.880
11929W        W83655  27.057   6.600   2.930
11930W        W83656  39.673   4.163   2.236
11931W        W83657  43.756  43.390  13.562
11932W        W83658  12.974  15.827  12.753
11933W        W83659  43.394   3.723  10.607
11934W        W83660   1.965  18.697   4.690
11935W        W83661  20.121  23.719   3.611
11936W        W83662  40.865  15.177  10.721
11937W        W83663  19.214   9.606   0.863
11938W        W83664  22.286  15.397   2.894
11939W        W83665  37.505  32.510  10.585
11940W        W83666   2.791  14.656  11.510
11941W        W83667  26.471  24.486  11.874
11942W        W83668   4.883  23.936  13.504
11943W        W83669   2.459  18.095  12.705
11944W        W83670  17.057  30.907  11.448
11945W        W83671   1.489   2.865  12.698
11946W        W83672  18.312  26.752   0.552
11947W        W83673  34.578   2.632   3.312
11948W        W83674  32.518  35.064   2.439
11949W        W83675  15.735   9.323  13.086
11950W        W83676  20.286  43.046  12.559
11951W        W83677  38.628   4.466  12.045
11952W        W83678  39.926  40.009  11.431
11953W        W83679   5.862   5.677   3.588
11954W        W83680   0.299  31.254  14.280
11955W        W83681  29.166   7.631   2.746
11956W        W83682   5.615   0.014  12.549
11957W        W83683  35.536  17.963  13.319
11958W        W83684  26.052  39.481   4.435
11959W        W83685  41.742   4.712   4.600
11960W        W83686  29.287  15.737   0.960
11961W        W83687  12.580   8.781   4.915
11962W        W83688  29.983  17.818  14.822
11963W        W83689  30.426  10.413  14.388
11964W        W83690   6.444  26.546   1.036
11965W        W83691  30.731   7.720   2.710
11966W        W83692  22.727  26.453  14.420
11967W        W83693  33.979  14.280  12.959
11968W        W83694  13.471  10.379   2.727
11969W        W83695   3.315  24.394   4.141
11970W        W83696  30.085  35.774  12.048
11971W        W83697  44.914  35.554   2.265
11972W        W83698  21.513  43.093   4.250
11973W        W83699  39.245  27.140  12.352
11974W        W83700  34.931  32.320  13.452
11975W        W83701  27.131  34.893  12.008
11976W        W83702  30.208   6.405   4.556
11977W        W83703   4.810  29.389  11.189
11978W        W83704  17.859  31.933   1.178
11979W        W83705  28.745  20.594  14.627
11980W        W83706  26.392  26.479  11.098
11981W        W83707  30.818   3.440  14.769
11982W        W83708  26.366  26.212  12.215
11983W        W83709  27.608   5.839   4.408
11984W        W83710  12.779  31.569   1.670
11985W        W83711  35.426  20.764  11.175
11986W        W83712  18.840  16.463  12.963
11987W        W83713  14.710   1.407   3.863
11988W        W83714   1.919   4.892   4.803
11989W        W83715  41.909  37.049   3.724
11990W        W83716  38.876  21.013   2.854
11991W        W83717   3.891  36.912   4.836
11992W        W83718   8.723  23.640  14.322
11993W        W83719  41.331  23.013  11.324
11994W        W83720  25.495  37.369  12.002
11995W        W83721  36.957  13.233  10.670
11996W        W83722  27.170  39.365  11.493
11997W        W83723   5.799  38.651  10.888
11998W        W83724   2.349  14.100  10.663
11999W        W83725  43.590   2.623   3.146
12000W        W83726  23.074  27.745  13.091
12001W        W83727  29.165  24.192   2.323
12002W        W83728  42.221   3.491  13.110
12003W        W83729  44.172  34.070   0.772
12004W        W83730  18.508   3.225  14.443
12005W        W83731  32.171  12.882   1.157
12006W        W83732   2.958  38.300   2.945
12007W        W83733   2.566  41.234  13.404
12008W        W83734  19.614   3.383   0.543
12009W        W83735  18.010   1.751   2.691
12010W        W83736  30.918   1.352   1.748
12011W        W83737  21.594  12.836  14.277
12012W        W83738  31.340  24.426   1.640
12013W        W83739  13.506  34.011   2.249
12014W        W83740  43.519  20.663   3.624
12015W        W83741  41.891  31.738  10.640
12016W        W83742   5.135   7.903   3.609
12017W        W83743  34.084  43.932   2.260
12018W        W83744  42.215   7.585  10.682
12019W        W83745  16.280  10.660   0.985
12020W        W83746  20.225   0.941   2.746
12021W        W83747  18.758  12.032   4.473
12022W        W83748  25.426  16.410   2.216
12023W        W83749  25.980  34.703   3.862
12024W        W83750  22.547  44.867  13.425
12025W        W83751  40.095   0.959   1.830
12026W        W83752   8.651  12.045  12.436
12027W        W83753  29.433  18.967   1.207
12028W        W83754  34.437   7.662   0.852
12029W        W83755  19.190  23.975   4.328
12030W        W83756  38.041  29.641  10.731
12031W        W83757   9.168  32.387   0.851
12032W        W83758  29.605   6.915   1.461
12033W        W83759   1.234  39.598   0.379
12034W        W83760  20.284   6.311  12.901
12035W        W83761  30.164   0.273   3.258
12036W        W83762  40.785   1.924  13.014
12037W        W83763  29.699   8.923  13.403
12038W        W83764  16.182   7.254  14.024
12039W        W83765  21.685   8.661   0.712
12040W        W83766  22.228  43.830   2.606
12041W        W83767  43.387   0.987   1.709
12042W        W83768  25.421  22.639   4.564
12043W        W83769  10.967  42.582   0.362
12044W        W83770  15.842  23.231   0.906
12045W        W83771  31.221   5.655   3.901
12046W        W83772  31.010  18.450  10.645
12047W        W83773   1.684  33.107  11.872
12048W        W83774  18.142  39.880  10.641
12049W        W83775   8.707  34.428  12.554
12050W        W83776  37.426  32.893   0.142
12051W        W83777   7.189  12.385   3.856
12052W        W83778  11.600   5.831   1.414
12053W        W83779   3.911  43.080  12.950
12054W        W83780  31.654  14.654   1.467
12055W        W83781  14.268  23.469  13.054
12056W        W83782  32.911  13.875  14.457
12057W        W83783  25.899  15.692  10.065
12058W        W83784  33.579   1.495   0.124
12059W        W83785  26.683  42.510   2.931
12060W        W83786  14.192  29.504   0.423
12061W        W83787  27.634   2.287   3.354
12062W        W83788  22.995  23.537   0.466
12063W        W83789   7.627  36.371  12.927
12064W        W83790  39.312   5.422   4.882
12065W        W83791   2.778   0.789   2.532
12066W        W83792  22.363  12.596  10.828
12067W        W83793  43.214  33.962   3.761
12068W        W83794  42.886  31.052  13.745
12069W        W83795  27.459   8.609   1.333
12070W        W83796  31.680  10.673  12.211
12071W        W83797  20.165  44.772   4.570
12072W        W83798  24.132  19.124   3.555
12073W        W83799  33.825  11.407   0.340
12074W        W83800   0.509  11.212  12.914
12075W        W83801  16.771  39.376  13.515
12076W        W83802  33.542  10.678  11.597
12077W        W83803  20.783   0.338   0.328
12078W        W83804  16.836  14.704   1.807
12079W        W83805  42.209  23.727   0.942
12080W        W83806  22.154  18.561  12.898
12081W        W83807  26.265   5.717  11.335
12082W        W83808  27.700  28.776   0.989
12083W        W83809   8.257  36.537   3.409
12084W        W83810  42.261  44.472   4.979
12085W        W83811  21.734  21.607  10.936
12086W        W83812   7.255  23.795   3.226
12087W        W83813  25.531  37.116   3.771
12088W        W83814   0.614  44.802   0.176
12089W        W83815  14.637  20.761   2.770
12090W        W83816  28.541  26.308   3.833
12091W        W83817  37.960  39.788  10.693
12092W        W83818  40.773   1.010  13.772
12093W        W83819  28.115   3.405   0.454
12094W        W83820  31.573  21.190   2.833
12095W        W83821  35.552  21.978   2.336
12096W        W83822  34.139   0.513  14.810
12097W        W83823  11.368  13.306   1.970
12098W        W83824  33.615  41.968  10.817
12099W        W83825  38.040  40.260   1.452
12100W        W83826  26.093  13.946   3.213
12101W        W83827  31.677  13.082   1.324
12102W        W83828  24.793  29.935   1.676
12103W        W83829  15.229  42.491  14.392
12104W        W83830  15.915  39.753  10.156
12105W        W83831   7.175  27.705  11.185
12106W        W83832  40.838  18.989  12.920
12107W        W83833  19.172  24.227  12.096
12108W        W83834  28.652  32.424   2.367
12109W        W83835  18.232  22.883  14.414
12110W        W83836  16.069  30.676   0.722
12111W        W83837   4.733  27.108  12.358
12112W        W83838  24.550  23.180   3.274
12113W        W83839  32.376  22.118   4.497
12114W        W83840  20.080   2.182   0.455
12115W        W83841  29.503  19.669  13.598
12116W        W83842  17.713  23.824  12.001
12117W        W83843  22.529  31.947   2.330
12118W        W83844   5.572  17.646   1.305
12119W        W83845  18.420  16.246  14.973
12120W        W83846  31.010   6.790  10.416
12121W        W83847   8.643  38.372  13.766
12122W        W83848  26.631  44.735   3.354
12123W        W83849  33.386   1.501  11.828
12124W        W83850  42.522  35.568   0.665
12125W        W83851   8.221   4.350   2.325
12126W        W83852  27.188  11.438  11.253
12127W        W83853   5.070   0.031  11.603
12128W        W83854  44.257  44.904   2.802
12129W        W83855  30.976  30.402   1.221
12130W        W83856  35.114  40.476  10.742
12131W        W83857   4.714  43.058   4.569
12132W        W83858  18.856   1.803   3.643
12133W        W83859  25.588  22.207   4.320
12134W        W83860  41.371  24.442  11.608
12135W        W83861  38.399  26.073  13.435
12136W        W83862  28.359  38.415   1.468
12137W        W83863  16.522  36.837  11.708
12138W        W83864   1.710  17.090  14.541
12139W        W83865  29.497  30.160  12.377
12140W        W83866  19.454   9.050   0.289
12141W        W83867  44.936  14.745   1.708
12142W        W83868   7.270  35.619   4.799
12143W        W83869  27.153  43.282  13.535
12144W        W83870  14.094  14.749   0.678
12145W        W83871   9.417  35.555   1.488
12146W        W83872   1.876  37.296  12.805
12147W        W83873  16.103  41.967   1.555
12148W        W83874  28.210   7.508   1.139
12149W        W83875   1.896  24.977  11.645
12150W        W83876  20.353  25.584   0.892
12151W        W83877  44.178  28.006  11.591
12152W        W83878  22.330   0.175  10.825
12153W        W83879   8.701  16.628   4.322
12154W        W83880  16.120  22.305  14.913
12155W        W83881  22.716  23.083  10.547
12156W        W83882  10.691  16.779   1.858
12157W        W83883  42.104  42.357  14.475
12158W        W83884   4.368  26.482  13.543
12159W        W83885  31.654  22.119  11.287
12160W        W83886  31.501   1.892  10.751
12161W        W83887  25.609  29.194  14.199
12162W        W83888  12.339  36.862   2.166
12163W        W83889  22.947  37.661  12.574
12164W        W83890  38.994  16.296  12.177
12165W        W83891  44.306  30.357   3.687
12166W        W83892  21.042  33.526  14.570
12167W        W83893  24.435   6.638   2.312
12168W        W83894  22.175   5.092  12.814
12169W        W83895  11.161  35.442  12.770
12170W        W83896  43.969  17.677  11.192
12171W        W83897  15.299  14.760   3.250
12172W        W83898  43.875  18.360   2.187
12173W        W83899  31.216  20.027  14.309
12174W        W83900   5.877  33.569   0.920
12175W        W83901  43.728  25.173   3.663
12176W        W83902   8.170   1.717   3.737
12177W        W83903  32.642  23.095  14.274
12178W        W83904  25.398   9.654   0.732
12179W        W83905  22.041  29.446   4.542
12180W        W83906  25.697   5.366  14.326
12181W        W83907   6.604  12.588  11.094
12182W        W83908  23.261  10.777   3.335
12183W        W83909  19.222  40.565  11.150
12184W        W83910  15.818  20.957  10.457
12185W        W83911  26.961  23.264  11.095
12186W        W83912   6.660  30.918  12.823
12187W        W83913  36.204  31.051  11.920
12188W        W83914  12.573  24.632  13.860
12189W        W83915  36.381  41.579   2.750
12190W        W83916   4.544  21.071   1.392
12191W        W83917  20.514   3.850  10.641
12192W        W83918  42.227  22.547   0.454
12193W        W83919  35.626  15.313   2.802
12194W        W83920  37.413   6.448   3.957
12195W        W83921  39.245   7.230  12.152
12196W        W83922   8.571  38.466  10.647
12197W        W83923  33.833  10.970  13.831
12198W        W83924   1.027  14.618   1.976
12199W        W83925  28.900   9.111  11.998
12200W        W83926  31.995  34.908  10.941
12201W        W83927  41.523  34.240   4.539
12202W        W83928  23.121   7.888  13.467
12203W        W83929  19.247  19.674  14.240
12204W        W83930  39.720  41.770  11.904
12205W        W83931  39.500  27.881  11.753
12206W        W83932  20.825  42.224  12.050
12207W        W83933  12.779  37.170   0.657
12208W        W83934  19.748  22.198  13.447
12209W        W83935   1.977   3.193  13.897
12210W        W83936  44.866   2.719  14.959
12211W        W83937  30.953  26.240   4.207
12212W        W83938  28.494  36.821   4.549
12213W        W83939  23.683  23.074  14.988
12214W        W83940  24.700  13.216  14.836
12215W        W83941  32.903  10.276  13.312
12216W        W83942  42.503  36.576  11.658
12217W        W83943   3.764   9.817   2.242
12218W        W83944  20.563  11.082  13.917
12219W        W83945  17.305  38.646   2.491
12220W        W83946  37.374  17.272   2.208
12221W        W83947  10.140  27.226   2.178
12222W        W83948  22.995  42.746  10.696
12223W        W83949  18.696  17.029  11.093
12224W        W83950   5.636  32.674   2.973
12225W        W83951  23.759   1.716  11.194
12226W        W83952  40.872  38.328   0.476
12227W        W83953  25.213  15.660   4.162
12228W        W83954  13.117   9.568   2.729
12229W        W83955   2.737   3.519   4.625
12230W        W83956  29.928   7.353  14.251
12231W        W83957   8.889  41.720   2.259
12232W        W83958  43.534  30.234  14.858
12233W        W83959  44.049  28.517  13.463
12234W        W83960  17.563  36.190   1.321
12235W        W83961  35.346  41.876  14.381
12236W        W83962  12.208   1.279   2.336
12237W        W83963  41.005  33.801   4.188
12238W        W83964  15.588   5.879  11.666
12239W        W83965  28.353   5.965   2.632
12240W        W83966   9.810  35.917   1.659
12241W        W83967  40.542   3.534   4.046
12242W        W83968  20.760  24.259   0.468
12243W        W83969  44.571   3.370   3.727
12244W        W83970  24.618  32.640  12.056
12245W        W83971   0.711  30.509   4.727
12246W        W83972   3.227  26.070   4.641
12247W        W83973  20.832  13.947   4.298
12248W        W83974  39.010  35.042   1.970
12249W        W83975   9.425  37.378   1.837
12250W        W83976  17.288  30.873   1.220
12251W        W83977  41.053   5.183   3.628
12252W        W83978  28.543  27.004   4.069
12253W        W83979  26.153  42.592   4.546
12254W        W83980   7.209  33.373   3.870
12255W        W83981   0.681  22.794  14.871
12256W        W83982   4.795  15.875  12.910
12257W        W83983   6.892  18.914   4.552
12258W        W83984  13.672   1.384  10.652
12259W        W83985  35.926  44.695   3.769
12260W        W83986  36.991   7.891  11.137
12261W        W83987  26.189  38.784  14.519
12262W        W83988  39.654   6.699  13.441
12263W        W83989  14.066  26.924  14.737
12264W        W83990  41.314  39.155   1.675
12265W        W83991  33.473  19.206   3.600
12266W        W83992  20.788  35.226  13.353
12267W        W83993  14.090  43.440  13.462
12268W        W83994  17.532  31.035  10.880
12269W        W83995  18.679  33.666   3.115
12270W        W83996  33.652  35.393   1.799
12271W        W83997  15.828  21.582   1.482
12272W        W83998  42.826  13.188  13.294
12273W        W83999  32.118  33.209  11.680
12274W        W84000  17.732   2.803   4.590
12275W        W84001  40.832  16.408   4.588
12276W        W84002  24.714  17.782  13.916
12277W        W84003  13.764  39.463   0.201
12278W        W84004   8.625   2.940  11.494
12279W        W84005  32.559  15.803  11.041
12280W        W84006  22.456  23.472  13.937
12281W        W84007  41.149  30.019   4.864
12282W        W84008  23.807   4.828   4.139
12283W        W84009  22.507  29.486  14.227
12284W        W84010  13.476  17.781  14.755
12285W        W84011   9.383  42.363  13.198
12286W        W84012  35.299  28.034   2.248
12287W        W84013   0.777   5.750  12.102
12288W        W84014  28.001  14.091   4.140
12289W        W84015   3.960   7.364   4.950
12290W        W84016  21.641  42.401   4.761
12291W        W84017  37.381  24.404   0.019
12292W        W84018  28.912  12.596   4.229
12293W        W84019  24.049  11.563  12.062
12294W        W84020  28.975  21.990  10.559
12295W        W84021   7.910   3.273   1.697
12296W        W84022   7.288  25.763   0.632
12297W        W84023  33.623  23.288   3.280
12298W        W84024  19.911   6.390  10.329
12299W        W84025   4.134   3.492  12.967
12300W        W84026  11.172  10.400   1.707
12301W        W84027   2.196   8.386   4.281
12302W        W84028  25.998  38.944  13.312
12303W        W84029  27.570  43.908  11.482
12304W        W84030  16.702  27.204  11.126
12305W        W84031   1.344   1.731   2.050
12306W        W84032  43.367  18.136   0.923
12307W        W84033  17.010  21.492   0.267
12308W        W84034  41.819  42.473  14.062
12309W        W84035  18.838  20.386  13.028
12310W        W84036  28.172  41.037  10.267
12311W        W84037   3.607  36.380   0.672
12312W        W84038  11.141  16.595   4.550
12313W        W84039  27.480  33.520   1.889
12314W        W84040  29.266  33.428  14.257
12315W        W84041  44.761  17.202   0.611
12316W        W84042  24.978  27.559   3.242
12317W        W84043  43.297  31.579   0.871
12318W        W84044  34.324  19.768  12.102
12319W        W84045  17.982  28.502  12.945
12320W        W84046  23.145  15.323   1.852
12321W        W84047  31.509  44.848   1.833
12322W        W84048  28.175  44.903  11.144
12323W        W84049  37.815  18.715  13.420
12324W        W84050  32.708  21.188   4.822
12325W        W84051   1.812   3.384  14.919
12326W        W84052  21.315   6.040   4.132
12327W        W84053   7.842  29.042   3.387
12328W        W84054   5.835  24.677   4.805
12329W        W84055  27.602  24.499   1.200
12330W        W84056   3.401  13.697   0.392
12331W        W84057  38.524   9.479   1.285
12332W        W84058  38.558  17.616  11.103
12333W        W84059  10.924   9.159  10.712
12334W        W84060  19.262  11.244   0.102
12335W        W84061   4.901  14.057   1.228
12336W        W84062  19.171  17.089   4.310
12337W        W84063  35.501  37.168   1.396
12338W        W84064  22.561  42.534   2.117
12339W        W84065  17.265  28.981   2.384
12340W        W84066  44.352  27.025   3.423
12341W        W84067  14.688  20.283   1.696
12342W        W84068   5.387  41.556   1.340
12343W        W84069  20.800   1.906  11.213
12344W        W84070  25.657  37.097  14.518
12345W        W84071   3.110  17.313  10.763
12346W        W84072  30.551   2.976   5.014
12347W        W84073  23.509  14.807   3.235
12348W        W84074  31.941  23.041  13.484
12349W        W84075  30.989  27.898  12.316
12350W        W84076  42.648   8.844   2.252
12351W        W84077  29.511  14.795   3.234
12352W        W84078  29.863  27.163  10.658
12353W        W84079  40.240  34.430  14.035
12354W        W84080   0.384  16.187  14.879
12355W        W84081  41.269  14.838  10.786
12356W        W84082  23.428  26.148   3.130
12357W        W84083  14.393  38.509  11.991
12358W        W84084  27.786   0.497   4.676
12359W        W84085  32.341   6.292  13.082
12360W        W84086  12.614   9.210  13.391
12361W        W84087   7.519  19.333  10.781
12362W        W84088  23.421  44.767   3.542
12363W        W84089  12.042   9.697   1.946
12364W        W84090  22.288  11.650   3.658
12365W        W84091   7.288  13.953   9.962
12366W        W84092  26.518   4.476   3.052
12367W        W84093  34.548   3.950   1.303
12368W        W84094  44.237   1.347   2.638
12369W        W84095   0.913  24.570  11.602
12370W        W84096  40.210  44.308  12.379
12371W        W84097  39.056   1.826  11.024
12372W        W84098  13.307   8.410  14.024
12373W        W84099  40.944  41.852   3.193
12374W        W84100  20.968  36.719   3.344
12375W        W84101  13.097  26.512   2.695
12376W        W84102  29.082  30.567   4.197
12377W        W84103  14.611  32.590  14.427
12378W        W84104   4.148   5.960   2.758
12379W        W84105   9.711  25.124  12.778
12380W        W84106  17.302   4.850   2.418
12381W        W84107  36.718  14.608  10.726
12382W        W84108   5.652  22.003  14.440
12383W        W84109   6.688  39.041   4.690
12384W        W84110   7.814  22.760   3.625
12385W        W84111  16.633  32.386   2.240
12386W        W84112   8.839  27.514   1.552
12387W        W84113  14.221  23.189  10.720
12388W        W84114  40.406   7.183   2.442
12389W        W84115   3.633   4.282   0.425
12390W        W84116  36.230  35.433   4.692
12391W        W84117  20.764  26.986  13.808
12392W        W84118  42.155  11.509  13.020
12393W        W84119  28.085  27.971  10.504
12394W        W84120   9.123  22.346   5.113
12395W        W84121  43.447  24.003  14.284
12396W        W84122  24.033  34.912  11.224
12397W        W84123  33.180  35.587  11.206
12398W        W84124   0.838  26.201  14.083
12399W        W84125  19.965  32.731  14.268
12400W        W84126  38.829  27.202   0.861
12401W        W84127   8.367  26.538  12.871
12402W        W84128  25.676  31.207  10.695
12403W        W84129  38.514  40.744   4.790
12404W        W84130   3.652  16.276  12.166
12405W        W84131  17.554  37.491  14.959
12406W        W84132   4.863  29.522   0.387
12407W        W84133  41.738   2.871   4.695
12408W        W84134  27.540  39.370   1.812
12409W        W84135  20.847  43.797  12.996
12410W        W84136  41.888  23.527   1.944
12411W        W84137  15.723  27.092  11.221
12412W        W84138  11.164  17.496   0.319
12413W        W84139  14.143  14.862   4.448
12414W        W84140  11.668  11.663  12.934
12415W        W84141   5.904   0.428   1.451
12416W        W84142  21.747  32.427  14.436
12417W        W84143   1.016  18.455  13.943
12418W        W84144  22.441   9.270   1.764
12419W        W84145  30.854   7.790  12.876
12420W        W84146  19.288  14.527   4.285
12421W        W84147  40.916  19.872   4.269
12422W        W84148   2.485   5.835   0.174
12423W        W84149  43.084  27.033  13.351
12424W        W84150  15.336  37.818  14.252
12425W        W84151   1.276  22.235  11.602
12426W        W84152  19.953  25.259   0.288
12427W        W84153  42.851  40.824  12.723
12428W        W84154  17.169   9.396  14.951
12429W        W84155  28.538   3.445   4.288
12430W        W84156  35.948  35.829  14.417
12431W        W84157  19.088  20.172   4.660
12432W        W84158  19.125  43.505   0.368
12433W        W84159   3.069  20.251   1.850
12434W        W84160   3.632  21.074  11.088
12435W        W84161  29.969  27.894  14.415
12436W        W84162  11.665   8.456   0.443
12437W        W84163   4.416  44.825  10.446
12438W        W84164  20.047  25.904  11.970
12439W        W84165  27.548  23.110   3.560
12440W        W84166   7.493  36.791  10.589
12441W        W84167  13.895  44.843  14.297
12442W        W84168  14.269  17.587   3.225
12443W        W84169  15.723  28.612  12.110
12444W        W84170  32.436   0.452   1.423
12445W        W84171  34.975   4.276   2.648
12446W        W84172  42.973   6.779  11.386
12447W        W84173  12.118  29.613  12.345
12448W        W84174  32.048  30.177  12.046
12449W        W84175  34.804  35.995  11.391
12450W        W84176  21.731  20.789  14.463
12451W        W84177  29.495   6.407   1.390
12452W        W84178  26.579   8.199   4.599
12453W        W84179  44.699   2.081   3.441
12454W        W84180  22.636  42.382   2.615
12455W        W84181  29.207  10.654  13.933
12456W        W84182   5.048  34.980  12.887
12457W        W84183  25.489  27.173  11.831
12458W        W84184  35.023  22.149  10.557
12459W        W84185  36.880  16.216   4.309
12460W        W84186   6.166  36.310  10.617
12461W        W84187  19.791   5.380   3.689
12462W        W84188   8.250   4.523  12.007
12463W        W84189   4.379  30.916   2.443
12464W        W84190  41.753  12.713   2.642
12465W        W84191   3.667   0.853   2.715
12466W        W84192   0.971  23.727   1.052
12467W        W84193  15.079  20.838  14.952
12468W        W84194  33.957  21.067  10.825
12469W        W84195   1.421  19.042  14.223
12470W        W84196  37.845  39.419  11.448
12471W        W84197  42.956  20.990   0.037
12472W        W84198  12.850  37.045  14.032
12473W        W84199  15.122  42.581  11.955
12474W        W84200  13.735  27.603   4.568
12475W        W84201  17.308  35.912   4.138
12476W        W84202  43.421  36.990   2.423
12477W        W84203  38.541  32.963   1.277
12478W        W84204  42.932  13.347  11.529
12479W        W84205  35.343  24.962  11.102
12480W        W84206  29.587  14.933  11.064
12481W        W84207  24.432  20.989  11.956
12482W        W84208   4.008  36.638   3.220
12483W        W84209   1.681  33.215  14.992
12484W        W84210   7.929  29.069  14.344
12485W        W84211  21.662  33.285  13.489
12486W        W84212  27.037   3.395  13.328
12487W        W84213  26.637  17.967  10.441
12488W        W84214  15.385  19.066  12.447
12489W        W84215  27.028   2.928   4.428
12490W        W84216  10.762  42.090   3.754
12491W        W84217  37.918  35.983  13.034
12492W        W84218  23.591  20.103   0.272
12493W        W84219  43.557  43.756   2.924
12494W        W84220  36.067  25.440  12.825
12495W        W84221  31.002  27.470   1.442
12496W        W84222   3.679  41.982   3.690
12497W        W84223  18.538   9.866  10.414
12498W        W84224  13.385  28.976   3.745
12499W        W84225  41.044  25.460   3.846
12500W        W84226  26.481  41.499   2.907
12501W        W84227  26.118  37.343  11.578
12502W        W84228  33.451  13.217   1.426
12503W        W84229  27.477  43.361  10.337
12504W        W84230  26.705  42.537  12.866
12505W        W84231  31.024  22.533   4.566
12506W        W84232  36.116   6.779   3.651
12507W        W84233  41.654  31.480  12.241
12508W        W84234  23.627  26.517   1.677
12509W        W84235  19.513   2.156   4.067
12510W        W84236   6.301  12.330  11.997
12511W        W84237  28.495  19.334  11.394
12512W        W84238  21.315  13.255  10.245
12513W        W84239   0.809   4.807  14.056
12514W        W84240  20.057  22.500  11.004
12515W        W84241  16.311   1.252  13.462
12516W        W84242  23.989  27.206  12.591
12517W        W84243  18.996  44.680   3.718
12518W        W84244  10.818   2.329   4.771
12519W        W84245  19.582  38.041  12.290
12520W        W84246   2.304  35.131  12.575
12521W        W84247  18.705  44.433  13.967
12522W        W84248  29.926  40.741   3.099
12523W        W84249  35.556   2.829   0.740
12524W        W84250  40.522   2.813  13.462
12525W        W84251  29.085  38.005  11.614
12526W        W84252  35.184   3.832  10.611
12527W        W84253  41.548  32.409  13.064
12528W        W84254   2.314  36.175   4.299
12529W        W84255  23.353  17.155  11.812
12530W        W84256  20.019  15.119  11.626
12531W        W84257   0.483  29.036  11.377
12532W        W84258   8.702  42.102   1.658
12533W        W84259  25.807  39.484  14.476
12534W        W84260  24.027  27.446  12.117
12535W        W84261  18.070  25.989  11.193
12536W        W84262  41.728   4.000  14.054
12537W        W84263   3.462  34.537   2.356
12538W        W84264   4.958  12.618   3.236
12539W        W84265  19.700  43.424  12.121
12540W        W84266  31.627  34.079   4.533
12541W        W84267   0.698  16.538  13.477
12542W        W84268  40.945  40.964  13.681
12543W        W84269  41.865  10.075   3.112
12544W        W84270  37.465  14.259   0.622
12545W        W84271  37.831  10.376  12.691
12546W        W84272  43.231  13.718  12.899
12547W        W84273  37.172  17.838   1.620
12548W        W84274   9.275  37.374  13.090
12549W        W84275   2.710  11.383  10.634
12550W        W84276  35.965  44.368   4.716
12551W        W84277  22.077  42.087   3.597
12552W        W84278   9.283   5.872  14.371
12553W        W84279   8.750   5.854  14.471
12554W        W84280  17.784  43.533  12.405
12555W        W84281   2.840  30.123   3.174
12556W        W84282  28.486  12.897   4.221
12557W        W84283  17.798  29.389   1.581
12558W        W84284  15.594  43.160  12.098
12559W        W84285  23.223  17.361  14.324
12560W        W84286  11.886  25.385   5.093
12561W        W84287  40.449   8.156  12.798
12562W        W84288  39.594  19.646   4.602
12563W        W84289  22.751  27.016  11.661
12564W        W84290  15.250   8.118  11.086
12565W        W84291   7.849  35.446   0.260
12566W        W84292   5.976   9.253  14.913
12567W        W84293  34.292   3.635   2.794
12568W        W84294  29.016  21.730  11.517
12569W        W84295  38.169  15.676  12.913
12570W        W84296  16.245  20.730  13.757
12571W        W84297  42.819  29.068   2.129
12572W        W84298  20.971   0.155   4.130
12573W        W84299  19.760  18.717   3.068
12574W        W84300   8.418  34.693   9.837
12575W        W84301  13.599  42.276   4.012
12576W        W84302  43.355   4.345  11.259
12577W        W84303  41.122  19.391   2.310
12578W        W84304  14.665  31.626   2.861
12579W        W84305  26.120  14.289   2.810
12580W        W84306  20.027  13.173   2.895
12581W        W84307   1.587  13.963   0.424
12582W        W84308  39.301  36.457   0.796
12583W        W84309  29.021  23.337   3.719
12584W        W84310  10.785  28.006   2.259
12585W        W84311  31.659  17.212  14.595
12586W        W84312  28.696  42.829  13.913
12587W        W84313  14.567  17.041  13.773
12588W        W84314  42.894  19.465  13.882
12589W        W84315  42.863  44.760  14.871
12590W        W84316  44.787   9.115   3.758
12591W        W84317  11.220  23.667   4.032
12592W        W84318   5.693   3.349   4.220
12593W        W84319  36.518   6.356  11.670
12594W        W84320   0.825  30.077   0.871
12595W        W84321   8.371  24.200  14.804
12596W        W84322  39.579  22.947  14.476
12597W        W84323  24.945  35.974  10.662
12598W        W84324  12.650   8.216   1.050
12599W        W84325  34.597  41.411   2.230
12600W        W84326  24.205   6.669   4.954
12601W        W84327   3.433  31.995  14.072
12602W        W84328  21.494  25.023   1.181
12603W        W84329   8.345   2.162   4.603
12604W        W84330  17.057  30.040  11.965
12605W        W84331   1.939  22.335  14.403
12606W        W84332  24.877   9.142   3.631
12607W        W84333  12.536  43.178  12.481
12608W        W84334   8.202  19.787   1.436
12609W        W84335  34.105   1.792   0.021
12610W        W84336  19.543  10.983  13.885
12611W        W84337  21.226  24.616   2.831
12612W        W84338  22.734  33.445   4.834
12613W        W84339   7.468  43.645  13.467
12614W        W84340  43.392   4.943   2.304
12615W        W84341  42.790  35.215  12.131
12616W        W84342  39.510  28.884  11.559
12617W        W84343  27.923  27.975   0.790
12618W        W84344  11.406  24.303  12.974
12619W        W84345  24.024  24.526  10.707
12620W        W84346   7.595   3.357   1.253
12621W        W84347  35.325  36.905  11.645
12622W        W84348  31.632  24.113  11.009
12623W        W84349  14.994  34.893   2.546
12624W        W84350  26.683  15.926   2.966
12625W        W84351   4.380  28.515   4.113
12626W        W84352  20.723  29.018  12.852
12627W        W84353  24.702  31.856   2.521
12628W        W84354  15.357  29.816  12.550
12629W        W84355  30.893  14.642   0.968
12630W        W84356  38.692  25.987   3.282
12631W        W84357   8.241  17.612  13.461
12632W        W84358  12.667  41.553  10.498
12633W        W84359   2.711  21.806  14.284
12634W        W84360  34.460  36.455   2.243
12635W        W84361  19.317  38.272   2.799
12636W        W84362  13.285  10.628  11.850
12637W        W84363  42.736   4.705  11.195
12638W        W84364  40.374  11.118  11.629
12639W        W84365  18.499  12.248   4.051
12640W        W84366  42.895   8.300  10.427
12641W        W84367  32.371  26.033   1.140
12642W        W84368  31.877  40.826   3.222
12643W        W84369  24.957  25.069  13.518
12644W        W84370   4.758  26.306  13.891
12645W        W84371  40.884  31.639   1.358
12646W        W84372  24.085  39.280   4.316
12647W        W84373  33.834   0.279  10.824
12648W        W84374  37.833  13.709   2.199
12649W        W84375  15.095  36.525   0.827
12650W        W84376  21.826  21.509  12.347
12651W        W84377  27.274  44.487   1.528
12652W        W84378  26.091   7.347   0.887
12653W        W84379  17.575  13.589  10.690
12654W        W84380  30.175  28.555   0.040
12655W        W84381  24.041  23.990  12.021
12656W        W84382  19.593  33.090   0.469
12657W        W84383  29.185   4.299  13.950
12658W        W84384  27.906  12.101   3.788
12659W        W84385   5.309  31.817  10.373
12660W        W84386   4.788   0.501   4.600
12661W        W84387  27.791  36.814  13.151
12662W        W84388  39.414  39.072   0.343
12663W        W84389  19.016  13.156   4.096
12664W        W84390  43.589  24.244   1.864
12665W        W84391  28.852  36.431   0.722
12666W        W84392  10.097   5.002  10.778
12667W        W84393   5.267   0.693   4.461
12668W        W84394  18.677  33.908  14.841
12669W        W84395  31.651  25.000   3.424
12670W        W84396  41.258  13.745   4.249
12671W        W84397   4.467  23.527  11.489
12672W        W84398   8.296  42.283   3.460
12673W        W84399  29.912  31.681  10.534
12674W        W84400   8.588   3.305   2.837
12675W        W84401   3.800  42.596   1.651
12676W        W84402  15.202  23.940   0.787
12677W        W84403  19.750  10.127   4.933
12678W        W84404  34.383  32.543   0.276
12679W        W84405  39.847  13.298   3.665
12680W        W84406  26.661   0.500   0.806
12681W        W84407  25.221  18.341  12.542
12682W        W84408  10.505  11.255  12.338
12683W        W84409   8.284  15.548   4.235
12684W        W84410   1.893  40.811   0.360
12685W        W84411  44.492  26.236   1.186
12686W        W84412   2.454  43.985   3.624
12687W        W84413  44.401  29.205   2.435
12688W        W84414  10.467  39.803  10.503
12689W        W84415   7.332  42.971  12.411
12690W        W84416   8.889  14.185   0.784
12691W        W84417  20.509  31.200   3.729
12692W        W84418  37.275  38.955  13.289
12693W        W84419  17.307   8.843  11.540
12694W        W84420  12.614   1.862   4.435
12695W        W84421   6.992  16.425   1.493
12696W        W84422  28.056  34.349  10.541
12697W        W84423  16.005  10.306   5.031
12698W        W84424   5.993  35.071  14.267
12699W        W84425  35.367  37.777   4.584
12700W        W84426  16.089  22.224   1.253
12701W        W84427  27.793  27.941  12.123
12702W        W84428  22.134  41.866  12.412
12703W        W84429  30.798  19.350   3.452
12704W        W84430  10.705  13.835   3.764
12705W        W84431   7.268  21.471  12.834
12706W        W84432  32.497  11.377  11.019
12707W        W84433   6.164  33.397  14.076
12708W        W84434  22.671  26.160  11.371
12709W        W84435  16.809  42.991   0.361
12710W        W84436  23.055  10.874   1.475
12711W        W84437  44.056  16.043   4.261
12712W        W84438  35.872  29.741  12.074
12713W        W84439  22.244  25.306  14.815
12714W        W84440  27.004  20.091  11.591
12715W        W84441  27.925   1.196   1.945
12716W        W84442  43.165  26.028  12.004
12717W        W84443  43.004  19.678   3.230
12718W        W84444  21.272   5.199   2.005
12719W        W84445  39.383  37.291   3.237
12720W        W84446  32.034  39.726   3.378
12721W        W84447   1.322   3.960  13.943
12722W        W84448  21.301  23.659  13.663
12723W        W84449  22.434  11.423  13.908
12724W        W84450  42.112  16.338   2.137
12725W        W84451  38.540   1.202   0.890
12726W        W84452  24.953  23.959  13.989
12727W        W84453  16.519   2.170   0.862
12728W        W84454   4.842  37.521  11.049
12729W        W84455  37.266  39.803   4.751
12730W        W84456   5.924  44.946  12.992
12731W        W84457  17.066  21.112   3.768
12732W        W84458  22.636  28.907   4.348
12733W        W84459  24.286  44.357  12.549
12734W        W84460  23.852  35.258  11.647
12735W        W84461  31.466  10.793  14.730
12736W        W84462  39.099  32.937  14.804
12737W        W84463   7.460  19.735  11.089
12738W        W84464  13.689  21.759   4.561
12739W        W84465  41.363  14.039  11.434
12740W        W84466  39.328  15.687  11.080
12741W        W84467  32.055  33.505  14.420
12742W        W84468   3.688  13.189  14.396
12743W        W84469   6.179   7.128   1.361
12744W        W84470  36.052  30.559  10.715
12745W        W84471  11.422  32.142  11.700
12746W        W84472   4.058  32.990  10.684
12747W        W84473  44.826  28.466  11.397
12748W        W84474   5.793  44.648   3.612
12749W        W84475   5.232  22.673  14.757
12750W        W84476  34.799   6.311   2.250
12751W        W84477   1.379  23.893   2.213
12752W        W84478  11.743  14.746  12.023
12753W        W84479  27.959  42.079  12.443
12754W        W84480  23.638  32.774   0.236
12755W        W84481  23.260  21.076  13.431
12756W        W84482  16.078  38.574  12.881
12757W        W84483   9.165  22.081  12.145
12758W        W84484  35.445  11.322  13.910
12759W        W84485  17.783  40.209   2.777
12760W        W84486  27.521  30.158  11.571
12761W        W84487  31.961  32.600  11.074
12762W        W84488  21.706   5.511   0.341
12763W        W84489  42.239  19.698   3.922
12764W        W84490  16.429   8.704   4.135
12765W        W84491  20.924   6.855   5.025
12766W        W84492   6.755  37.732  13.706
12767W        W84493   5.078  34.523   3.104
12768W        W84494   7.635  24.710   2.365
12769W        W84495  36.805  20.278  13.334
12770W        W84496  38.835  40.024   0.910
12771W        W84497  10.716  28.750   0.490
12772W        W84498   8.728   9.418   4.231
12773W        W84499   4.416  43.904   4.802
12774W        W84500  11.189  14.135  12.293
12775W        W84501  40.845   1.349   2.329
12776W        W84502  43.327   8.393  12.056
12777W        W84503   0.904   4.833  12.600
12778W        W84504  44.860  32.608   0.955
12779W        W84505  23.542   1.999  10.822
12780W        W84506  34.857   3.268  12.959
12781W        W84507   0.919  34.099   3.174
12782W        W84508  27.410  40.068  13.568
12783W        W84509  35.629   7.855   3.724
12784W        W84510  42.431   5.953  13.026
12785W        W84511  24.402   1.187   2.273
12786W        W84512  43.345  13.063  14.878
12787W        W84513  34.159  10.589   0.908
12788W        W84514  23.681  13.803  12.914
12789W        W84515   7.850  26.681  13.261
12790W        W84516  37.872  40.539   1.861
12791W        W84517  31.199  20.040  13.420
12792W        W84518  17.044   6.535   1.114
12793W        W84519  37.844  44.417   1.485
12794W        W84520  28.222  43.339  11.845
12795W        W84521   8.716  24.194   1.920
12796W        W84522  15.301  37.984  11.958
12797W        W84523  42.021  39.508  14.788
12798W        W84524   7.789  32.931  10.527
12799W        W84525  13.577  15.177   2.757
12800W        W84526  11.728  28.133   4.499
12801W        W84527   4.503  27.765  10.434
12802W        W84528   6.125  24.198  14.275
12803W        W84529  39.420  15.331  14.129
12804W        W84530  27.396  42.474   3.126
12805W        W84531   9.389  18.537  12.053
12806W        W84532  35.489  34.678   1.228
12807W        W84533  32.448  29.514  13.766
12808W        W84534  30.980  13.863   3.792
12809W        W84535  16.355  38.647   1.658
12810W        W84536  43.925  44.881  14.558
12811W        W84537   3.750  18.620  14.321
12812W        W84538  41.866  15.762  14.096
12813W        W84539   7.886  15.091   3.427
12814W        W84540  20.316  33.092   4.814
12815W        W84541  27.625  23.771   4.247
12816W        W84542  22.240  27.183  10.693
12817W        W84543   3.212   7.761   0.807
12818W        W84544  38.277  29.742  13.951
12819W        W84545  33.950  21.599  13.041
12820W        W84546  27.039  38.531   0.695
12821W        W84547  37.524  43.637   0.078
12822W        W84548  36.360  27.572   1.321
12823W        W84549   4.602  26.156  14.367
12824W        W84550  11.157   4.792   3.919
12825W        W84551  37.841  37.942   0.838
12826W        W84552   7.812  44.339  14.317
12827W        W84553  10.376  12.262  13.038
12828W        W84554  37.049  42.837  12.101
12829W        W84555  34.149  44.059   0.438
12830W        W84556  43.839   2.796  14.246
12831W        W84557  35.316  31.943   1.775
12832W        W84558  40.467  38.252  12.466
12833W        W84559  39.284  27.994  12.192
12834W        W84560  41.281   5.754   1.694
12835W        W84561  14.824   5.484   0.336
12836W        W84562  10.581  31.204   3.182
12837W        W84563  22.033  25.895  14.549
12838W        W84564  43.085  35.461   4.158
12839W        W84565  37.400  42.636  14.944
12840W        W84566   1.537  44.268  10.690
12841W        W84567  34.325  36.278  12.555
12842W        W84568  13.203  27.221  14.479
12843W        W84569  25.597  22.069  12.670
12844W        W84570   4.914   6.212  13.071
12845W        W84571  29.925  43.609   5.715
12846W        W84572  34.587  24.211  13.810
12847W        W84573   8.902  14.762  14.445
12848W        W84574  16.615  19.829   1.933
12849W        W84575   2.858  42.529   0.872
12850W        W84576  20.059  14.613  11.683
12851W        W84577  15.864  31.885   1.227
12852W        W84578  28.579  22.436   4.410
12853W        W84579  22.497  26.892  12.086
12854W        W84580   5.228  17.292  12.886
12855W        W84581  18.093   6.411  10.934
12856W        W84582  18.273  27.516   1.689
12857W        W84583  19.803   8.101  13.710
12858W        W84584  18.488  32.483  11.051
12859W        W84585  24.113   6.097   4.987
12860W        W84586   8.274  36.369  10.240
12861W        W84587  10.385  42.244  12.782
12862W        W84588  44.820  43.291  14.247
12863W        W84589  27.885  34.964  13.761
12864W        W84590  12.329   4.617  13.459
12865W        W84591  10.285  11.069   4.623
12866W        W84592  33.021   1.422  13.137
12867W        W84593  31.673  43.359   0.441
12868W        W84594  29.538  35.373  13.790
12869W        W84595  43.714  42.026  12.294
12870W        W84596  34.379  21.043  10.044
12871W        W84597   7.644  22.555  13.475
12872W        W84598  20.776  18.192  13.505
12873W        W84599  32.872   0.300  10.422
12874W        W84600   2.147   4.488   3.559
12875W        W84601  14.848  36.494   0.261
12876W        W84602  32.465  29.572   4.552
12877W        W84603  17.216  31.363   3.333
12878W        W84604  12.172  20.662   4.686
12879W        W84605  39.381  28.044   0.731
12880W        W84606  33.001  41.717  10.173
12881W        W84607  15.206  25.469  11.149
12882W        W84608   2.496   7.781   3.748
12883W        W84609   2.044  13.914  13.080
12884W        W84610  22.320  24.914  11.090
12885W        W84611   0.288   9.812  11.056
12886W        W84612  44.851  13.743  12.519
12887W        W84613   0.751  32.183  12.961
12888W        W84614  23.710  25.457  11.615
12889W        W84615  35.431  44.774  13.844
12890W        W84616  18.121  27.117   4.766
12891W        W84617  19.833  11.824   0.418
12892W        W84618   0.318   2.320   4.080
12893W        W84619  40.253  35.850  10.938
12894W        W84620  23.227  33.617   4.937
12895W        W84621  39.476  40.595   2.561
12896W        W84622  36.941  14.342  14.401
12897W        W84623  35.067  42.302  11.095
12898W        W84624  17.073  14.314   0.267
12899W        W84625  34.844  33.172   4.638
12900W        W84626  27.906   8.320   0.340
12901W        W84627  14.048  44.338  14.399
12902W        W84628   1.006  31.604  14.366
12903W        W84629  19.754  13.828   4.745
12904W        W84630  29.425  28.976  10.752
12905W        W84631  22.650  10.920  13.227
12906W        W84632  15.619  26.262   0.344
12907W        W84633  23.888  20.179  14.851
12908W        W84634   0.037  14.329   4.087
12909W        W84635  32.159  26.664   4.739
12910W        W84636  23.199  12.987   3.836
12911W        W84637  14.676  12.802  13.089
12912W        W84638  20.825  15.443  12.110
12913W        W84639  21.078  29.377   1.872
12914W        W84640  35.870  20.787   3.088
12915W        W84641  23.587  39.864  13.828
12916W        W84642  39.223   5.214   3.389
12917W        W84643  27.251  41.286  12.470
12918W        W84644  10.332  14.683   2.352
12919W        W84645  23.054  34.750  12.935
12920W        W84646  21.666   7.266   2.726
12921W        W84647  10.044  30.999   4.056
12922W        W84648  44.953  12.309  12.018
12923W        W84649  42.084  37.646  12.904
12924W        W84650  42.367  33.996   4.909
12925W        W84651   0.392  38.929   3.522
12926W        W84652  10.993  41.117   4.554
12927W        W84653  34.036   7.744   4.741
12928W        W84654  28.638  42.889   1.163
12929W        W84655  13.470  25.514  10.767
12930W        W84656  15.826  15.115   3.278
12931W        W84657  14.634  30.136   4.610
12932W        W84658  43.797   3.851   1.481
12933W        W84659   3.457  42.746  11.577
12934W        W84660  17.330  27.275  14.786
12935W        W84661  22.450   3.547  12.119
12936W        W84662  43.820  42.369   4.518
12937W        W84663   6.959  11.110  11.064
12938W        W84664  19.713   1.952   2.766
12939W        W84665   7.145  42.406  10.937
12940W        W84666   4.002  16.668   2.809
12941W        W84667   2.498   4.005  14.846
12942W        W84668  22.746  40.887  10.474
12943W        W84669  13.642  42.493   0.539
12944W        W84670  40.980  14.841   4.569
12945W        W84671  30.916   8.087   2.360
12946W        W84672  17.464  35.986  11.138
12947W        W84673  36.513  12.173   2.145
12948W        W84674  37.854  14.075   3.822
12949W        W84675  32.459  26.933   3.903
12950W        W84676  27.794   7.257  13.491
12951W        W84677  14.688  35.193   2.877
12952W        W84678  19.250  34.560   3.328
12953W        W84679  15.258  41.568  10.942
12954W        W84680  28.712  43.810  13.071
12955W        W84681  35.901  20.945   3.568
12956W        W84682  24.681  41.243  14.961
12957W        W84683  26.772  24.730   3.489
12958W        W84684   0.544   3.374  10.544
12959W        W84685  41.168   6.400   1.341
12960W        W84686   7.798  38.511   3.281
12961W        W84687  43.245  38.569   2.229
12962W        W84688  23.453  39.156   3.598
12963W        W84689  36.769  44.368   2.851
12964W        W84690  36.851  31.515  12.667
12965W        W84691  42.008   4.440   0.036
12966W        W84692   6.378   6.910  14.400
12967W        W84693  41.763  25.129   2.125
12968W        W84694  38.013  27.780   3.754
12969W        W84695  23.836  11.337   0.540
12970W        W84696   1.347  43.311  14.637
12971W        W84697  21.525  16.721   4.710
12972W        W84698   6.864  15.781   0.265
12973W        W84699  40.015  35.024   0.905
12974W        W84700  34.557  26.712  12.929
12975W        W84701  13.098  41.850   4.623
12976W        W84702   7.829  24.192   4.174
12977W        W84703   7.271  20.707   4.780
12978W        W84704  10.603   6.562  13.948
12979W        W84705  42.533  24.945   2.197
12980W        W84706   1.344  28.583   1.291
12981W        W84707  12.932  24.626  10.707
12982W        W84708  29.122  17.647  13.221
12983W        W84709   8.668   4.350   2.043
12984W        W84710  41.957   0.163  14.335
12985W        W84711   8.360  23.064  12.551
12986W        W84712  25.223  44.257  14.112
12987W        W84713  25.088   5.388   3.211
12988W        W84714   7.718  26.524   4.585
12989W        W84715  18.074  14.119  11.195
12990W        W84716  41.901  25.370  14.898
12991W        W84717  29.422  41.486  11.991
12992W        W84718   0.851  43.064  13.306
12993W        W84719  30.067  23.250  10.738
12994W        W84720  17.199  13.571  12.924
12995W        W84721   4.094  20.187   2.780
12996W        W84722  32.903  44.903   2.706
12997W        W84723   5.895  20.848   3.399
12998W        W84724  27.124   8.225  14.869
12999W        W84725  22.144  43.298  14.987
13000W        W84726  37.958   1.262  11.935
13001W        W84727   3.506  28.451   3.323
13002W        W84728  34.896  19.601  13.057
13003W        W84729  30.605  36.596   5.073
13004W        W84730  12.598  32.013  14.504
13005W        W84731   0.157  14.774  12.354
13006W        W84732  25.160   7.655  12.680
13007W        W84733  35.360  38.929  14.068
13008W        W84734  28.063  26.096  12.583
13009W        W84735   9.181   4.575   0.312
13010W        W84736   8.770  30.673   3.421
13011W        W84737  28.441  39.026  14.942
13012W        W84738  13.160  33.656   0.383
13013W        W84739  30.454  26.270  11.234
13014W        W84740  41.507  41.531  12.054
13015W        W84741  38.410  20.774  12.844
13016W        W84742  15.928  11.577   1.565
13017W        W84743  38.620   2.363   2.806
13018W        W84744  20.493  24.659  14.738
13019W        W84745   0.786   7.635   4.806
13020W        W84746  10.087  19.322  13.123
13021W        W84747  30.877  37.441   3.169
13022W        W84748  39.405   0.966   0.558
13023W        W84749  44.504  42.766   3.083
13024W        W84750   1.255  22.764  10.693
13025W        W84751   9.302  33.371   1.094
13026W        W84752   2.830  22.992   4.604
13027W        W84753  16.338  19.658   3.180
13028W        W84754  22.950   8.164   3.289
13029W        W84755  34.915  40.744  11.138
13030W        W84756  28.579  37.254   3.200
13031W        W84757  11.515  42.521   0.374
13032W        W84758  23.793   9.805   0.858
13033W        W84759   8.121  38.479  10.400
13034W        W84760   9.778   4.896   2.781
13035W        W84761   8.854   4.787   1.210
13036W        W84762  40.391  12.922  13.483
13037W        W84763   8.231   7.742   2.646
13038W        W84764  24.464   1.334  13.706
13039W        W84765   9.674  26.159  11.038
13040W        W84766  34.033   1.376   0.341
13041W        W84767  34.416  31.722  14.789
13042W        W84768   4.421  27.409   0.293
13043W        W84769  33.204   5.228  13.354
13044W        W84770  30.403  34.648  11.675
13045W        W84771  29.343  10.485   2.711
13046W        W84772  10.094  23.961   3.778
13047W        W84773  25.282  16.664  12.051
13048W        W84774  37.578   4.264   3.424
13049W        W84775  28.677  14.886  14.754
13050W        W84776   5.330  38.378   3.713
13051W        W84777  37.075   0.754  12.017
13052W        W84778  22.184   4.966   4.579
13053W        W84779  10.266  32.835  12.676
13054W        W84780   7.631  22.681   0.763
13055W        W84781   6.972   9.314   0.896
13056W        W84782   7.848  25.879  14.436
13057W        W84783   0.977  41.999  11.974
13058W        W84784  34.750  41.012  14.134
13059W        W84785  23.696  14.255   3.646
13060W        W84786  31.102   3.028  13.257
13061W        W84787  23.960  14.116   3.222
13062W        W84788  43.562  24.161   2.407
13063W        W84789  38.663  35.395  13.508
13064W        W84790  31.094  31.791  12.839
13065W        W84791  42.886  18.759   3.260
13066W        W84792   3.872   2.776  13.344
13067W        W84793  39.256  10.943  14.312
13068W        W84794  11.134  29.918   1.487
13069W        W84795   8.891  17.774  11.708
13070W        W84796  34.134  21.906  13.477
13071W        W84797  23.775  10.262   0.184
13072W        W84798  18.983  33.098  12.614
13073W        W84799  11.849  30.315  14.541
13074W        W84800   8.915  18.102   4.159
13075W        W84801  24.107  18.972  14.006
13076W        W84802   4.303  24.504  14.944
13077W        W84803  37.375  24.469  10.584
13078W        W84804   7.013  28.592   4.210
13079W        W84805   4.170  31.431   0.413
13080W        W84806  42.010  44.363   2.158
13081W        W84807  40.431  10.713  10.843
13082W        W84808  26.012   8.167   0.364
13083W        W84809  39.750  33.036   4.242
13084W        W84810  25.940   9.988   4.710
13085W        W84811  24.246  29.517   0.658
13086W        W84812  42.757   7.325  13.106
13087W        W84813  38.413  27.238  13.888
13088W        W84814  35.060  39.995   3.387
13089W        W84815  33.971  37.428  13.498
13090W        W84816  15.388  40.743  11.989
13091W        W84817  18.607  19.029  12.962
13092W        W84818   6.377  21.698  12.558
13093W        W84819  25.841  17.754  13.036
13094W        W84820  13.387  28.488   0.372
13095W        W84821  38.138   8.621  14.973
13096W        W84822  35.322   9.368  13.002
13097W        W84823   4.485  12.961  12.697
13098W        W84824  24.649   5.656   1.396
13099W        W84825  14.114  33.428  14.902
13100W        W84826   3.363  21.400  12.896
13101W        W84827   7.116   6.454  13.253
13102W        W84828   5.445  31.550  14.946
13103W        W84829   0.387   9.347  12.340
13104W        W84830  21.704   0.424   3.351
13105W        W84831  44.007  13.718   3.349
13106W        W84832  41.042  18.800   2.405
13107W        W84833   1.742   0.645   1.209
13108W        W84834  14.682  26.103  14.471
13109W        W84835  35.874  35.578  11.132
13110W        W84836  35.642   5.786  12.419
13111W        W84837  20.315  10.549  12.988
13112W        W84838   3.549   9.238  10.734
13113W        W84839  22.442  10.155  14.777
13114W        W84840   1.267  36.469   4.590
13115W        W84841  33.665  10.541   4.078
13116W        W84842  41.014  38.363   2.265
13117W        W84843   4.607  42.924  11.101
13118W        W84844  20.138   6.718   4.972
13119W        W84845   1.263  11.766  13.907
13120W        W84846   9.862  44.464   1.825
13121W        W84847  12.279  38.449   0.279
13122W        W84848  41.343  36.080  14.902
13123W        W84849  13.237  24.862  12.376
13124W        W84850  28.178  38.121  13.925
13125W        W84851   3.762  19.650   3.055
13126W        W84852  10.249  27.939  12.460
13127W        W84853  23.652  34.829  13.690
13128W        W84854  17.522   1.295   4.811
13129W        W84855  43.699  19.597  11.607
13130W        W84856   0.255  40.864  13.317
13131W        W84857   8.196  29.240  13.069
13132W        W84858   0.849  36.647   0.363
13133W        W84859  25.767  38.094   3.825
13134W        W84860   3.916  30.703   2.256
13135W        W84861  38.994   0.328  13.808
13136W        W84862  29.576   5.269  11.177
13137W        W84863  18.486  36.412  14.350
13138W        W84864  17.382   8.866   2.606
13139W        W84865  24.190  17.671   4.534
13140W        W84866  11.110  36.983   4.200
13141W        W84867   1.843  22.673  11.716
13142W        W84868  44.335   6.082  10.712
13143W        W84869  41.733  30.164  14.302
13144W        W84870  39.087  34.468   4.588
13145W        W84871  32.385  29.877  11.143
13146W        W84872  35.817  10.301   1.228
13147W        W84873  19.662  42.925   2.215
13148W        W84874  32.856  12.598   0.350
13149W        W84875  23.959  44.438  12.116
13150W        W84876   5.334  37.805  12.385
13151W        W84877  44.093   7.502   4.975
13152W        W84878  44.563  38.246   5.032
13153W        W84879   7.137   4.424   5.097
13154W        W84880  11.904  30.137  14.006
13155W        W84881  39.784   1.211  12.838
13156W        W84882  15.221   3.021   4.664
13157W        W84883  28.717  32.358   0.729
13158W        W84884  41.476  15.855  11.461
13159W        W84885  13.258  37.237   4.349
13160W        W84886  17.476  21.653  12.076
13161W        W84887  39.794  21.269   1.850
13162W        W84888  36.487  14.728   3.963
13163W        W84889  42.410  28.419   0.378
13164W        W84890   8.180  17.183   3.646
13165W        W84891  39.743  15.035  14.443
13166W        W84892  27.597   0.870  12.993
13167W        W84893   4.275  10.887   1.975
13168W        W84894  35.625  33.367  14.830
13169W        W84895  12.607  27.494   1.646
13170W        W84896  11.740  42.431   2.321
13171W        W84897  33.820  25.330   4.098
13172W        W84898  42.557  33.989   4.375
13173W        W84899  36.444  36.436   2.708
13174W        W84900  29.042   6.080  11.842
13175W        W84901  25.613  23.548   2.941
13176W        W84902  35.963  20.987  12.513
13177W        W84903  11.852  31.294  10.512
13178W        W84904  12.451   9.352   3.155
13179W        W84905  33.400  36.478   2.160
13180W        W84906  40.874  24.532   3.786
13181W        W84907  37.962   1.346   4.693
13182W        W84908  25.126  17.925   0.036
13183W        W84909   5.307  31.689  11.584
13184W        W84910  25.701  21.275   1.348
13185W        W84911  13.064   8.436   0.833
13186W        W84912  35.958   9.836   3.752
13187W        W84913  22.164  25.676   1.445
13188W        W84914  18.744  25.423   4.115
13189W        W84915   3.233  18.687   1.646
13190W        W84916  35.821  23.276  11.918
13191W        W84917  28.212  38.950   4.222
13192W        W84918  12.830  22.597  11.271
13193W        W84919   9.625  12.625   0.426
13194W        W84920  41.950  18.770  14.321
13195W        W84921  24.919  15.783   0.921
13196W        W84922  34.659   2.181   4.294
13197W        W84923  23.545  42.272   1.318
13198W        W84924  32.004  20.855   1.241
13199W        W84925  17.097  28.795  11.267
13200W        W84926  32.957  31.224  10.703
13201W        W84927  32.892  32.102   1.361
13202W        W84928   6.844  42.104   1.274
13203W        W84929  33.432   6.483   4.012
13204W        W84930  12.808   5.693  13.965
13205W        W84931  25.435  33.878   1.706
13206W        W84932  32.993  36.324  14.305
13207W        W84933   1.218  34.505  12.589
13208W        W84934  43.371  15.853   0.579
13209W        W84935   3.930  27.957   4.607
13210W        W84936  24.361  25.655  13.343
13211W        W84937  34.948  39.661  14.396
13212W        W84938  34.164  27.553  14.296
13213W        W84939  39.330  17.712   2.193
13214W        W84940  42.299  11.585  11.429
13215W        W84941  42.182  43.478  11.883
13216W        W84942   3.612  44.046  12.113
13217W        W84943   2.512  22.518   0.242
13218W        W84944  38.859  34.608   2.725
13219W        W84945   1.379   8.457   2.004
13220W        W84946  20.232  22.035   0.191
13221W        W84947  24.964  38.361  10.642
13222W        W84948  15.975   5.709   0.811
13223W        W84949  14.559  11.251   0.426
13224W        W84950  26.669   0.246   1.271
13225W        W84951  30.856  16.669   3.220
13226W        W84952   8.350  17.088  11.685
13227W        W84953  36.040  16.705   4.235
13228W        W84954  37.111  41.542  11.505
13229W        W84955  25.449   3.745  14.567
13230W        W84956  15.701  22.987  12.144
13231W        W84957  22.781  28.198   1.714
13232W        W84958  42.561  30.037   3.265
13233W        W84959   9.337  39.620  13.486
13234W        W84960  15.344  44.015   2.188
13235W        W84961  19.523  15.575   2.697
13236W        W84962   0.451  20.303  13.459
13237W        W84963  23.891  11.886  14.123
13238W        W84964  13.287  26.986   2.836
13239W        W84965  21.809  44.515   0.351
13240W        W84966  28.880  32.065  10.682
13241W        W84967   4.659  34.559  12.003
13242W        W84968  28.444   0.691  13.372
13243W        W84969  14.583  23.383   4.204
13244W        W84970  41.917  36.247  10.552
13245W        W84971  10.803  44.378   2.784
13246W        W84972   3.159   0.699  12.117
13247W        W84973  16.277   0.967   1.426
13248W        W84974  14.652  27.620  11.407
13249W        W84975   5.356   3.537   2.736
13250W        W84976   2.717  17.641  10.599
13251W        W84977   5.905  24.768   3.822
13252W        W84978  32.506   3.658  11.606
13253W        W84979  36.115  23.591  12.236
13254W        W84980  31.586  10.268  10.840
13255W        W84981  15.266  36.016  14.830
13256W        W84982  42.551  25.007   0.372
13257W        W84983  31.127   4.973  13.291
13258W        W84984  18.631  28.115  13.131
13259W        W84985  39.617  37.805  11.979
13260W        W84986  15.216  40.894  10.202
13261W        W84987  24.572  19.824   3.747
13262W        W84988  24.135  42.938  11.468
13263W        W84989  37.935  28.653   0.026
13264W        W84990  37.502  36.373  11.040
13265W        W84991  19.019  19.656   2.766
13266W        W84992  19.144  22.538  14.050
13267W        W84993  23.549  19.774  12.526
13268W        W84994  36.592  35.631  13.244
13269W        W84995  21.734  10.286   0.438
13270W        W84996  20.702  27.331   1.240
13271W        W84997   0.298  26.099  14.968
13272W        W84998  22.532  25.310   1.791
13273W        W84999  30.461  38.573  13.380
13274W        W85000   6.586  37.598   0.680
13275W        W85001  19.471  38.899  13.276
13276W        W85002  26.007  28.145  10.706
13277W        W85003  12.014  13.434   1.450
13278W        W85004  17.367  37.437  12.496
13279W        W85005   8.879  20.832   0.770
13280W        W85006  33.403  15.330   2.758
13281W        W85007  28.678   4.320   1.749
13282W        W85008  44.933  44.731   0.720
13283W        W85009  11.961   0.347   1.668
13284W        W85010   9.751  29.611   2.014
13285W        W85011  28.543  29.773  13.872
13286W        W85012   2.134  24.103   3.377
13287W        W85013  35.037  38.400   1.254
13288W        W85014  26.257  33.144  11.654
13289W        W85015   0.260  14.284  11.924
13290W        W85016  12.136  12.767   2.583
13291W        W85017  10.180  21.670   4.705
13292W        W85018   9.784  11.184   0.488
13293W        W85019  29.135  27.413   1.149
13294W        W85020  37.595  19.656  12.289
13295W        W85021  12.915  14.248   0.279
13296W        W85022  22.171  36.574   0.940
13297W        W85023  11.301  29.733   0.902
13298W        W85024  41.531  33.276  12.133
13299W        W85025  39.483  19.979   2.425
13300W        W85026  41.013  30.645  12.479
13301W        W85027  24.110  30.458  13.916
13302W        W85028  14.796  41.780   3.845
13303W        W85029  40.439  12.104  11.718
13304W        W85030  11.402  34.448   1.389
13305W        W85031  27.547   0.676  11.204
13306W        W85032  25.664  39.181   4.282
13307W        W85033  10.778  11.304   1.433
13308W        W85034  20.344  12.626   5.120
13309W        W85035  25.595  39.588   0.740
13310W        W85036  11.202   3.343   4.141
13311W        W85037  13.202  42.793   1.098
13312W        W85038  26.757  32.498   2.418
13313W        W85039  43.027  22.991  10.602
13314W        W85040   0.484   1.469  10.416
13315W        W85041  22.590  30.570   3.327
13316W        W85042  44.037  29.036   4.531
13317W        W85043  29.666  20.209   0.493
13318W        W85044  11.424  13.142  13.093
13319W        W85045  11.734   3.550   5.056
13320W        W85046  14.687   4.347   1.662
13321W        W85047   2.737  14.546  13.330
13322W        W85048   8.440  11.710  11.919
13323W        W85049  16.709  26.549  14.151
13324W        W85050  24.623  44.237   5.024
13325W        W85051  34.839  11.594   1.339
13326W        W85052  12.512  19.668  12.882
13327W        W85053  33.620  11.294  13.493
13328W        W85054   8.271  21.214   3.250
13329W        W85055  28.618  42.909   0.658
13330W        W85056  26.008  15.047  13.837
13331W        W85057  22.437  13.809  14.754
13332W        W85058  43.818  33.612  11.002
13333W        W85059   3.305   6.657   3.284
13334W        W85060   3.883  23.018  13.483
13335W        W85061  35.844  37.684  11.357
13336W        W85062  15.344  23.660  14.522
13337W        W85063  12.262  42.936  14.336
13338W        W85064  26.596  13.038  10.932
13339W        W85065   6.512  16.155  12.922
13340W        W85066   2.236  10.563   3.806
13341W        W85067  30.598   6.979  13.060
13342W        W85068  30.157  38.504   3.386
13343W        W85069  18.888  30.608   2.044
13344W        W85070  41.267   9.250   0.941
13345W        W85071  44.517  21.941   0.446
13346W        W85072  21.460  13.801   4.575
13347W        W85073   7.012  44.090   0.322
13348W        W85074   6.406  41.976   4.537
13349W        W85075   8.464  26.302   4.590
13350W        W85076  12.535   7.346  14.449
13351W        W85077  43.708  11.265   0.895
13352W        W85078  12.929   4.356  12.930
13353W        W85079  41.291  17.559  11.850
13354W        W85080  14.306   9.379   4.567
13355W        W85081  30.485  18.645   3.791
13356W        W85082  33.830   8.755   3.928
13357W        W85083  36.017  13.721   5.114
13358W        W85084   1.813  21.701  12.451
13359W        W85085   1.423  24.736  12.762
13360W        W85086  43.805  22.142   1.861
13361W        W85087  13.156  28.123   2.103
13362W        W85088  12.914   3.189   0.813
13363W        W85089   3.828  24.083   2.117
13364W        W85090  18.315   3.318   1.932
13365W        W85091  20.220   9.703  11.891
13366W        W85092  42.995  21.025  11.981
13367W        W85093  29.535  24.098   1.501
13368W        W85094  23.547   9.878  13.330
13369W        W85095  17.573  26.776   2.236
13370W        W85096  12.022   5.460   1.351
13371W        W85097   7.154  33.893  11.299
13372W        W85098  42.176  13.162  14.691
13373W        W85099  43.706  11.188   3.753
13374W        W85100  35.653   9.623  14.552
13375W        W85101  20.736  44.249   2.260
13376W        W85102   1.063  37.353   2.653
13377W        W85103  22.287  10.513   1.823
13378W        W85104  27.888  28.118   2.778
13379W        W85105  19.577  44.483   4.804
13380W        W85106  11.439  31.653  11.829
13381W        W85107  14.276  35.918  13.965
13382W        W85108  21.412   9.380   4.276
13383W        W85109  20.778  34.269  10.959
13384W        W85110  36.417  15.241   0.657
13385W        W85111  11.669  26.636   2.007
13386W        W85112  44.786  21.760   1.805
13387W        W85113  10.138   6.340  13.584
13388W        W85114  18.129  29.988  11.654
13389W        W85115  24.145  20.727   4.305
13390W        W85116  33.989  36.421   3.246
13391W        W85117  14.893  38.770   4.618
13392W        W85118  11.554   2.027   0.855
13393W        W85119  10.360  22.031   0.896
13394W        W85120  13.411  18.909   2.360
13395W        W85121  35.411  28.973  10.574
13396W        W85122  31.057  25.436  11.978
13397W        W85123  26.550  37.497  13.755
13398W        W85124  38.084  15.885   0.991
13399W        W85125  34.106  42.476  11.124
13400W        W85126  40.355  23.192  13.469
13401W        W85127  12.695  26.717  12.441
13402W        W85128  11.165   6.010  14.576
13403W        W85129  39.077  29.599   2.343
13404W        W85130  42.446   3.044   0.430
13405W        W85131  11.248   6.373  11.671
13406W        W85132  18.114  20.159  11.510
13407W        W85133  34.535   9.941  11.098
13408W        W85134  40.215  40.756  10.454
13409W        W85135  31.483  13.719  14.595
13410W        W85136  23.111  12.350  11.978
13411W        W85137  19.669  11.854   1.787
13412W        W85138  34.963  27.563   3.644
13413W        W85139   3.780  18.977   0.837
13414W        W85140  36.886  26.660   2.921
13415W        W85141  39.020  33.600   4.705
13416W        W85142  39.942  43.745   2.433
13417W        W85143  14.249  19.002  11.101
13418W        W85144  39.845  25.286  14.363
13419W        W85145  40.793   9.825  11.658
13420W        W85146  36.852  30.587   1.411
13421W        W85147  24.145  24.728  12.624
13422W        W85148  13.833  24.829   0.446
13423W        W85149  41.500   6.235   1.762
13424W        W85150   5.952  18.622  11.097
13425W        W85151  17.103  16.273   4.251
13426W        W85152  20.757   6.426   3.322
13427W        W85153  38.411  40.704  13.945
13428W        W85154  33.886   7.750   0.466
13429W        W85155  31.160  16.275  14.390
13430W        W85156  27.534  24.315  11.685
13431W        W85157  14.561  14.747   0.920
13432W        W85158  31.622  30.944   2.303
13433W        W85159  31.374   8.394  12.244
13434W        W85160  28.513  30.109   4.852
13435W        W85161   2.722  44.163   4.035
13436W        W85162  30.109  22.237   1.293
13437W        W85163  39.464  40.423  13.561
13438W        W85164  23.430  15.429  10.652
13439W        W85165  26.960   3.546   1.236
13440W        W85166  38.652  23.929  11.853
13441W        W85167   5.799  16.564  10.093
13442W        W85168   9.274   6.711   4.539
13443W        W85169  37.933  22.540  12.666
13444W        W85170  34.272  42.871   3.364
13445W        W85171  31.153  20.206   2.212
13446W        W85172   8.664   3.167  12.319
13447W        W85173   0.932  36.044   2.610
13448W        W85174   2.297  33.598   1.186
13449W        W85175   3.905  33.808  13.057
13450W        W85176   6.145  31.672  11.305
13451W        W85177  29.685   3.390  13.235
13452W        W85178   1.866  22.083  14.851
13453W        W85179  35.527  28.452   2.036
13454W        W85180  24.509  22.302   1.314
13455W        W85181  11.079  15.326   4.646
13456W        W85182   6.550   0.810  10.317
13457W        W85183  40.938   5.258  13.184
13458W        W85184  13.592  17.019   3.710
13459W        W85185   6.808  28.666   1.477
13460W        W85186  34.629  39.520   2.711
13461W        W85187   8.584  23.583   5.104
13462W        W85188  43.937  23.074  14.509
13463W        W85189   2.347  22.634  14.270
13464W        W85190  24.605  21.713   4.077
13465W        W85191  19.162  23.719   1.516
13466W        W85192  42.751  21.209  11.554
13467W        W85193  19.579  32.618  13.875
13468W        W85194  42.947  36.445   1.905
13469W        W85195   6.433  19.406   2.665
13470W        W85196  34.529   7.577  13.997
13471W        W85197  17.043  24.547   0.851
13472W        W85198  36.503  14.273   0.705
13473W        W85199  13.467   9.337  13.264
13474W        W85200  11.783   7.446   0.406
13475W        W85201  20.688  25.038  13.781
13476W        W85202  12.282  39.373   0.267
13477W        W85203  11.031  29.452  13.345
13478W        W85204  38.560  34.328   4.566
13479W        W85205  39.327  24.620   0.936
13480W        W85206  11.591  20.301  14.320
13481W        W85207  30.695  36.501  13.998
13482W        W85208  44.149  43.227  13.829
13483W        W85209   0.708  15.376   1.396
13484W        W85210  40.898  20.767  14.527
13485W        W85211  23.775  39.593  14.297
13486W        W85212  13.441  37.815  10.675
13487W        W85213  17.864  30.891  11.905
13488W        W85214  14.271  35.654   3.529
13489W        W85215  24.153  30.171   3.839
13490W        W85216  25.889  29.147   3.640
13491W        W85217  25.888   0.227  11.441
13492W        W85218  13.583  30.541  12.415
13493W        W85219  37.884  27.152  13.816
13494W        W85220  31.978   0.832  10.748
13495W        W85221  10.606   4.925  10.707
13496W        W85222  34.510  30.913  11.961
13497W        W85223  19.957  21.980   2.793
13498W        W85224  21.231  36.482   3.759
13499W        W85225   1.214  31.645  11.017
13500W        W85226  27.144  26.758   2.640
13501W        W85227   3.295  16.583  13.314
13502W        W85228  39.654  32.549   1.966
13503W        W85229   0.316  39.609   3.120
13504W        W85230  21.776  13.081   0.182
13505W        W85231   2.990  38.033  11.912
13506W        W85232  10.546  15.189  14.806
13507W        W85233  44.890  24.552   0.708
13508W        W85234  30.250  40.825  10.694
13509W        W85235  43.409  41.391  12.818
13510W        W85236  42.017  12.729  11.136
13511W        W85237  39.371  12.378  14.356
13512W        W85238  26.460  16.247   3.846
13513W        W85239  37.614  33.985   1.387
13514W        W85240  15.812  27.961  12.579
13515W        W85241   7.835  35.536  12.616
13516W        W85242  10.979  33.690  14.615
13517W        W85243  44.527   6.726   3.735
13518W        W85244  34.667   4.014  11.558
13519W        W85245  42.946   9.841  13.299
13520W        W85246  15.609   5.822   4.697
13521W        W85247  44.761  13.497   4.110
13522W        W85248  28.645   0.335   3.218
13523W        W85249  19.420  18.350   1.833
13524W        W85250  13.263   9.827  10.914
13525W        W85251  31.951  10.827   2.834
13526W        W85252  10.883  42.291  10.884
13527W        W85253  41.470   0.683  12.602
13528W        W85254   3.476  43.879   1.417
13529W        W85255  18.236   1.233  13.919
13530W        W85256  34.425   7.324   1.257
13531W        W85257   0.761  44.004  11.140
13532W        W85258  42.347  38.455  10.807
13533W        W85259  21.334  29.295  13.397
13534W        W85260  43.345  26.611  13.210
13535W        W85261  10.607   6.133   1.321
13536W        W85262  24.571  35.814   3.157
13537W        W85263  10.785  39.410  10.745
13538W        W85264   6.561  18.874  14.683
13539W        W85265   3.402  41.922  14.068
13540W        W85266  26.275   8.632   3.787
13541W        W85267  30.999   3.901  14.654
13542W        W85268  39.759  17.168   3.062
13543W        W85269  38.044  21.157   0.719
13544W        W85270  39.874  16.721   0.757
13545W        W85271  31.451   1.059   3.645
13546W        W85272  12.601  26.963  12.890
13547W        W85273  34.542  41.491  11.987
13548W        W85274  34.740  20.128   4.597
13549W        W85275  19.039   6.385   3.465
13550W        W85276  15.050  23.180   4.300
13551W        W85277   3.448  14.233   4.694
13552W        W85278  14.730  11.265   4.657
13553W        W85279   4.091  42.844  14.534
13554W        W85280   5.477  26.137  14.672
13555W        W85281  13.763  25.339  13.022
13556W        W85282   1.040  41.050   2.257
13557W        W85283  24.246   9.920   3.638
13558W        W85284  34.739   4.209   3.123
13559W        W85285  39.418   1.392  10.559
13560W        W85286  39.560  30.204  13.803
13561W        W85287  41.786   0.774   3.776
13562W        W85288   7.429   4.647   4.451
13563W        W85289  12.332   3.943  10.601
13564W        W85290  12.360  38.341   3.194
13565W        W85291  41.192  13.991  13.735
13566W        W85292   8.177  10.728  10.588
13567W        W85293  21.801   5.337   1.904
13568W        W85294  18.799   2.771  11.702
13569W        W85295  15.128  44.356  14.803
13570W        W85296  40.025  41.401   0.207
13571W        W85297  43.131  26.079   2.915
13572W        W85298   3.869  44.846   1.818
13573W        W85299  21.690  13.822  11.513
13574W        W85300  44.603  30.776   0.398
13575W        W85301  44.884  14.634   0.314
13576W        W85302  35.007  32.396  14.745
13577W        W85303  38.893  42.574   1.866
13578W        W85304   6.418  20.722  11.129
13579W        W85305  36.561  22.069  14.894
13580W        W85306  36.498  21.688  11.131
13581W        W85307  12.848  10.689   3.000
13582W        W85308  16.573  20.759  11.458
13583W        W85309  10.401   4.149   2.077
13584W        W85310  37.077  41.591  14.182
13585W        W85311  16.169  39.414  12.103
13586W        W85312  15.814  14.221   0.876
13587W        W85313   3.257  43.580  11.204
13588W        W85314  40.522  43.929  11.017
13589W        W85315  28.513  29.934  12.393
13590W        W85316  22.111  35.542  13.440
13591W        W85317  27.181  10.433   2.295
13592W        W85318  31.337  30.395  11.224
13593W        W85319  39.466  17.228  13.055
13594W        W85320  16.057   4.923  11.000
13595W        W85321  22.737  43.118  12.528
13596W        W85322  39.815   7.896   3.304
13597W        W85323  37.313   2.925   2.702
13598W        W85324  30.830  36.477   3.177
13599W        W85325   6.205   4.265   1.921
13600W        W85326  17.262  41.733   0.767
13601W        W85327  24.430  31.152   0.911
13602W        W85328  17.044  24.904  11.890
13603W        W85329  24.746  34.466  10.715
13604W        W85330  18.304  27.732   4.620
13605W        W85331  41.792   9.671  11.183
13606W        W85332  15.237   0.770   2.409
13607W        W85333   6.646  32.936  11.670
13608W        W85334  17.187  35.147  11.245
13609W        W85335   2.501  24.293   1.521
13610W        W85336  21.127  36.379  10.761
13611W        W85337  24.189   9.952   0.506
13612W        W85338  37.047  37.763   4.105
13613W        W85339  28.539  22.958   2.788
13614W        W85340  43.504  13.360   4.758
13615W        W85341  43.444  30.486   3.753
13616W        W85342  23.606   4.296  10.406
13617W        W85343   5.885   7.900  13.268
13618W        W85344  41.124   5.607  14.163
13619W        W85345   1.666   6.579   2.315
13620W        W85346  17.107  37.634   3.665
13621W        W85347  13.589  14.908   2.298
13622W        W85348  33.469  31.535  11.191
13623W        W85349   0.350   3.818   4.445
13624W        W85350   9.501  22.525  10.576
13625W        W85351  30.999   8.163   0.803
13626W        W85352  14.631  10.799   0.004
13627W        W85353  12.618  34.491  13.460
13628W        W85354   3.262   4.706  12.132
13629W        W85355   6.986  26.002   1.833
13630W        W85356  32.829  19.783   3.733
13631W        W85357   2.975  11.939  13.400
13632W        W85358  22.573  34.875  14.460
13633W        W85359  29.266   3.265   1.232
13634W        W85360  23.973  18.042  12.833
13635W        W85361  44.798  27.519   0.971
13636W        W85362  28.957  30.444   0.895
13637W        W85363  32.101  37.608  11.051
13638W        W85364  32.525   0.918   0.392
13639W        W85365  18.731  37.806   1.859
13640W        W85366   7.293   2.630   0.960
13641W        W85367  22.810  31.005  12.088
13642W        W85368  34.635  21.665   3.860
13643W        W85369  15.190  27.231   0.662
13644W        W85370  44.062   6.816   2.130
13645W        W85371  30.588  30.133  13.472
13646W        W85372  28.071  28.932   1.320
13647W        W85373  44.764   7.156   0.373
13648W        W85374  31.138  14.948  14.566
13649W        W85375  35.927   6.358   4.760
13650W        W85376  16.756  31.827  10.728
13651W        W85377  17.205  39.377  11.752
13652W        W85378  26.067  30.487   3.314
13653W        W85379   6.662  16.540   4.229
13654W        W85380  21.168  16.841  14.287
13655W        W85381   3.036   1.249  11.617
13656W        W85382  36.636   1.020  12.043
13657W        W85383   0.775  44.512  13.501
13658W        W85384  14.611  12.851  10.910
13659W        W85385  23.592  23.497   1.359
13660W        W85386  35.571  39.067   4.239
13661W        W85387  29.398  35.840   2.134
13662W        W85388  22.750  11.638   3.891
13663W        W85389   4.919  16.672  11.559
13664W        W85390  20.789  11.236  12.440
13665W        W85391  16.722  17.104   2.901
13666W        W85392   0.278  39.913   1.649
13667W        W85393   5.746  19.465   1.262
13668W        W85394  42.774  34.388  12.546
13669W        W85395  39.982  17.998   3.251
13670W        W85396  22.079  26.184   1.766
13671W        W85397  19.502  23.562  12.452
13672W        W85398   7.203  12.747   0.805
13673W        W85399  41.512  40.880  13.013
13674W        W85400  34.935  12.956   0.176
13675W        W85401  16.645  34.854  13.280
13676W        W85402  10.815  35.405  14.470
13677W        W85403  38.844  10.603  14.389
13678W        W85404   4.970  20.264  14.336
13679W        W85405  41.075  26.034  12.726
13680W        W85406  34.865  20.230  12.373
13681W        W85407  21.020   3.757  11.578
13682W        W85408   4.490   5.554   3.780
13683W        W85409  42.566  41.892   5.063
13684W        W85410  22.595   5.735  13.843
13685W        W85411  22.744  27.536   1.305
13686W        W85412  38.137  31.150  11.427
13687W        W85413   5.836   3.948  14.825
13688W        W85414  43.484  35.323  12.489
13689W        W85415  38.755  27.601   2.576
13690W        W85416   7.251  43.845   3.010
13691W        W85417   0.470  21.917  12.720
13692W        W85418  20.587  44.432   2.750
13693W        W85419   7.989   4.091   5.190
13694W        W85420   2.335  17.719  10.936
13695W        W85421  44.424   3.977  13.862
13696W        W85422   3.663   5.908   1.565
13697W        W85423  24.159  24.216  11.564
13698W        W85424  34.616  35.622  14.294
13699W        W85425  17.699  25.244   0.518
13700W        W85426   5.422   2.924  12.929
13701W        W85427  40.278  38.517   3.457
13702W        W85428  11.190  13.846  11.546
13703W        W85429  36.505  39.304   3.394
13704W        W85430  37.041  18.685   0.386
13705W        W85431  12.579  21.603  11.546
13706W        W85432  42.801  12.531   3.066
13707W        W85433  33.432  26.247  12.962
13708W        W85434   7.960  18.625  14.275
13709W        W85435  12.830  18.714  12.426
13710W        W85436   6.221   1.986  11.657
13711W        W85437  38.397  18.329   3.372
13712W        W85438   5.469   3.239   2.038
13713W        W85439  19.838  12.163  10.503
13714W        W85440   7.972  20.971   1.859
13715W        W85441   7.877  24.287  13.002
13716W        W85442  38.286  14.335   3.859
13717W        W85443  25.492  11.074  12.168
13718W        W85444   5.684  38.643  13.842
13719W        W85445  38.481  34.487   0.461
13720W        W85446   1.388  30.863  12.049
13721W        W85447  27.090  18.157   1.773
13722W        W85448  33.371  32.061   2.071
13723W        W85449  26.159  15.556   0.899
13724W        W85450  39.762   0.297   4.663
13725W        W85451   9.172  31.796  12.977
13726W        W85452   6.946  33.280   2.542
13727W        W85453   1.400   1.755   4.298
13728W        W85454  34.900  14.067   2.259
13729W        W85455   6.288   0.297  12.856
13730W        W85456  37.392  18.829   0.833
13731W        W85457   6.249  31.564   3.889
13732W        W85458  43.345   6.209   4.146
13733W        W85459  10.663  13.968  12.413
13734W        W85460  18.161  18.835   1.345
13735W        W85461  41.373  28.720   4.028
13736W        W85462  32.928  34.914  14.415
13737W        W85463  17.288   9.958  13.288
13738W        W85464  44.323   7.095  10.587
13739W        W85465  30.333  27.482   4.292
13740W        W85466  10.783  42.102   2.405
13741W        W85467   4.134  11.338  14.093
13742W        W85468  43.037  30.076  14.892
13743W        W85469  15.167  16.776   4.964
13744W        W85470  40.985  43.937  10.718
13745W        W85471  17.793  38.387  12.873
13746W        W85472   8.123   8.356   4.151
13747W        W85473  36.158  21.159   4.487
13748W        W85474  43.417  34.576   2.821
13749W        W85475  14.596  32.408  11.596
13750W        W85476   9.560   8.170   3.377
13751W        W85477  20.885  14.994   4.195
13752W        W85478   8.800  40.588   0.448
13753W        W85479  17.604   7.907   4.602
13754W        W85480  19.907   4.467  11.132
13755W        W85481  29.035  25.687   0.947
13756W        W85482  18.850   0.500  13.421
13757W        W85483  29.794  38.017   4.228
13758W        W85484  11.027  15.637   3.220
13759W        W85485  33.903  11.667   3.257
13760W        W85486  15.012   9.337   4.184
13761W        W85487  27.131  22.180  13.892
13762W        W85488  22.984  42.432   1.020
13763W        W85489  17.810  16.726  14.574
13764W        W85490  22.159  17.060  13.191
13765W        W85491   5.080  38.588   4.111
13766W        W85492  34.582  43.558  11.363
13767W        W85493  44.732  11.347  11.658
13768W        W85494   5.878   5.918  12.644
13769W        W85495  27.977  34.631  10.988
13770W        W85496  15.810  40.459  13.316
13771W        W85497  35.063   4.721  11.205
13772W        W85498  29.457   9.977   2.721
13773W        W85499  16.370   0.766  11.975
13774W        W85500   5.914  22.161   2.667
13775W        W85501   9.670  24.268  13.181
13776W        W85502  37.466   2.354   4.713
13777W        W85503  29.593   0.209   0.739
13778W        W85504  44.095   6.698   2.664
13779W        W85505  34.385  43.095   2.914
13780W        W85506  17.712   1.483  14.915
13781W        W85507  12.658  20.144   2.856
13782W        W85508  35.997   2.455   2.812
13783W        W85509   0.269  17.800   1.268
13784W        W85510  39.924  35.859  12.917
13785W        W85511  26.991   1.181  11.920
13786W        W85512  21.737   9.857  12.037
13787W        W85513   3.403  33.172  13.324
13788W        W85514  32.020  32.195   4.242
13789W        W85515  14.059  43.709  12.095
13790W        W85516  23.013  19.403  14.704
13791W        W85517  33.629  28.927   2.324
13792W        W85518   6.662  44.436   2.906
13793W        W85519   7.311  17.214   4.066
13794W        W85520  12.358  28.479   2.131
13795W        W85521  34.179  18.248  12.583
13796W        W85522  12.317  17.212   0.913
13797W        W85523  16.466  41.567   2.015
13798W        W85524  10.860  21.041  13.057
13799W        W85525  25.250  36.836   1.334
13800W        W85526  24.743  32.506   0.976
13801W        W85527  40.482  20.048   4.617
13802W        W85528  14.868  29.976   3.479
13803W        W85529  34.504  32.345  13.808
13804W        W85530  18.736   9.047  13.799
13805W        W85531  18.719  11.033   2.731
13806W        W85532  38.943  19.239   0.474
13807W        W85533  20.529  24.011  10.808
13808W        W85534   2.813  37.182   1.282
13809W        W85535  32.432  23.538  14.494
13810W        W85536  11.173   4.248   1.910
13811W        W85537  16.124  15.335  12.014
13812W        W85538  35.781  10.435   0.347
13813W        W85539   8.229  11.286  11.241
13814W        W85540  43.425  34.112   1.289
13815W        W85541  15.664  12.131  12.542
13816W        W85542   4.199   1.726   2.736
13817W        W85543  23.736  32.088   2.620
13818W        W85544  36.376  16.191  13.024
13819W        W85545  31.610  22.742   2.859
13820W        W85546  10.776  12.667  13.598
13821W        W85547  41.957  28.127   4.519
13822W        W85548  14.753  16.539  12.052
13823W        W85549  27.179   9.229  10.837
13824W        W85550  22.230  36.321   2.275
13825W        W85551  17.660   9.040   2.152
13826W        W85552  10.279  16.920  11.059
13827W        W85553   3.419  43.647   0.487
13828W        W85554  22.666  17.476   4.182
13829W        W85555   8.894  32.639   1.347
13830W        W85556  19.737  30.453  14.297
13831W        W85557  31.811  13.692   1.338
13832W        W85558   6.103   3.889   0.760
13833W        W85559  10.113   8.117  14.413
13834W        W85560  31.023  39.126  11.560
13835W        W85561  31.407   4.523   0.486
13836W        W85562  18.804  23.698  10.722
13837W        W85563  31.584  14.337  13.835
13838W        W85564   8.770  33.145  14.415
13839W        W85565  34.891   6.406  13.271
13840W        W85566  37.076  22.402  11.169
13841W        W85567  39.561   3.338  12.842
13842W        W85568  29.447   6.650   2.634
13843W        W85569  20.925  31.085  13.775
13844W        W85570   2.365  27.572   3.755
13845W        W85571  33.888  11.510   2.131
13846W        W85572  12.400  37.604   4.305
13847W        W85573  39.108   5.430  11.432
13848W        W85574  27.441  17.109   0.377
13849W        W85575  25.583  25.238  13.836
13850W        W85576  35.530  36.487   3.170
13851W        W85577   5.882  23.263  11.071
13852W        W85578  31.476  41.012  10.300
13853W        W85579  41.683  38.833   1.827
13854W        W85580  17.228  18.146  11.910
13855W        W85581  34.807  15.067  10.757
13856W        W85582   6.664   4.865   3.848
13857W        W85583  16.744  14.247  11.608
13858W        W85584  21.578  14.056  12.865
13859W        W85585  20.658  37.806   1.775
13860W        W85586   5.243  31.860   4.613
13861W        W85587   0.920  31.268   0.407
13862W        W85588  43.243   5.942  14.761
13863W        W85589   6.466  24.724  13.369
13864W        W85590   4.434  33.745  14.823
13865W        W85591  31.601   5.787  12.879
13866W        W85592  31.099  13.270  11.528
13867W        W85593  14.517  39.270  14.779
13868W        W85594   1.848   0.976   2.294
13869W        W85595  10.922  12.317  10.881
13870W        W85596  14.704  38.482  13.510
13871W        W85597  37.507  13.603   1.433
13872W        W85598   6.660  19.807  11.587
13873W        W85599  22.317  12.537   5.000
13874W        W85600  30.642  19.831  12.228
13875W        W85601  20.145  34.469   4.776
13876W        W85602   5.643  28.106  10.258
13877W        W85603  30.623  17.656  12.054
13878W        W85604   3.257  21.190  14.538
13879W        W85605  15.760  44.954  11.156
13880W        W85606  34.612  38.360  14.482
13881W        W85607  33.470  33.985  11.257
13882W        W85608  18.524  43.237   4.891
13883W        W85609  29.573  31.470   2.288
13884W        W85610  27.651  36.357   1.434
13885W        W85611  13.595  30.098   3.360
13886W        W85612  24.222  43.071  14.913
13887W        W85613  10.667  21.794  11.695
13888W        W85614  32.279   6.643  14.984
13889W        W85615   5.999  19.005   1.362
13890W        W85616   8.860  23.119   9.839
13891W        W85617  32.367  23.657   1.322
13892W        W85618  37.425  10.837   0.661
13893W        W85619  42.678   1.741  13.557
13894W        W85620   8.122  40.216   2.811
13895W        W85621  15.754  20.272  12.020
13896W        W85622  44.040  12.527  12.972
13897W        W85623  13.225  13.081   3.660
13898W        W85624  10.635  36.389   4.834
13899W        W85625  39.572  28.965   2.855
13900W        W85626  38.870  20.140  10.213
13901W        W85627   2.841  14.161   1.808
13902W        W85628  17.758  14.977  12.843
13903W        W85629  37.083  22.589   2.772
13904W        W85630  12.209  38.903   0.004
13905W        W85631  29.189   1.405   2.270
13906W        W85632  11.691  39.360  14.033
13907W        W85633   7.935  40.283   0.973
13908W        W85634  28.511  29.249  13.893
13909W        W85635  31.828   0.455   0.745
13910W        W85636  27.172   3.172   3.584
13911W        W85637  16.675  42.662   2.579
13912W        W85638  16.626  36.564   2.961
13913W        W85639   2.403  42.729   5.042
13914W        W85640  35.881  10.084   2.844
13915W        W85641  19.719   5.232   4.177
13916W        W85642   8.368   6.086   2.744
13917W        W85643  32.817  20.008  13.915
13918W        W85644  43.987  14.383   1.162
13919W        W85645   7.094  14.087   0.035
13920W        W85646   6.482  33.042  11.187
13921W        W85647  11.268   2.720   0.427
13922W        W85648  25.918  44.108  12.460
13923W        W85649  22.678   4.105   1.317
13924W        W85650  11.096  11.750  14.289
13925W        W85651  31.504  25.724  12.007
13926W        W85652  21.747  11.567  11.452
13927W        W85653   9.890  19.615  12.035
13928W        W85654  40.193   3.561  10.334
13929W        W85655  27.647   7.242  11.469
13930W        W85656  14.860  37.370   3.132
13931W        W85657  27.284  11.929  12.479
13932W        W85658  22.976  31.346  12.912
13933W        W85659  23.101   8.139   0.007
13934W        W85660   6.566  38.663  13.997
13935W        W85661  25.279  42.039   4.675
13936W        W85662  16.331  22.640   1.470
13937W        W85663  23.128  11.341   1.272
13938W        W85664  23.404  20.628   0.287
13939W        W85665   8.080  40.000  10.523
13940W        W85666  43.774  22.607  11.920
13941W        W85667  40.537   7.713  11.425
13942W        W85668  31.910  11.752   3.087
13943W        W85669  10.623  20.104  12.082
13944W        W85670   0.729  13.123   0.852
13945W        W85671  33.935   4.892   5.019
13946W        W85672  25.431  19.167  11.463
13947W        W85673  36.220   4.148  12.421
13948W        W85674  34.996   0.401  13.288
13949W        W85675  17.181   0.719  13.435
13950W        W85676   0.752  27.761   0.387
13951W        W85677  11.304  19.506  11.409
13952W        W85678   0.023   8.985   5.047
13953W        W85679  11.321  42.927   2.862
13954W        W85680   6.383  37.189  10.661
13955W        W85681  36.999  31.666   2.186
13956W        W85682  23.094  29.162   4.582
13957W        W85683  13.354  41.949   1.680
13958W        W85684  13.192  33.854  14.003
13959W        W85685  28.387  37.616  11.186
13960W        W85686  14.622   7.389   4.303
13961W        W85687  19.212  12.771  12.498
13962W        W85688   0.525  18.585   1.644
13963W        W85689  19.318  16.300   0.861
13964W        W85690  18.220   2.232  14.446
13965W        W85691  31.508  11.101  11.966
13966W        W85692  16.601  44.529  12.603
13967W        W85693  29.555   7.845  13.854
13968W        W85694  26.204  30.199  12.353
13969W        W85695  39.223  36.892  11.579
13970W        W85696  37.023   7.494  14.251
13971W        W85697  36.478  32.699  14.740
13972W        W85698  18.779  15.804   3.095
13973W        W85699  22.699  33.709   3.143
13974W        W85700  30.220  30.780   0.321
13975W        W85701  41.493  25.727   3.845
13976W        W85702  12.238  32.875   3.633
13977W        W85703  22.708  38.488   2.129
13978W        W85704  34.520  32.238   2.348
13979W        W85705  37.253  41.468   4.256
13980W        W85706  31.845  32.408  14.460
13981W        W85707   0.316  23.498   4.109
13982W        W85708  34.263  17.081   4.098
13983W        W85709  43.325  10.262   3.774
13984W        W85710   0.721  26.130  12.080
13985W        W85711  17.855  28.095   3.776
13986W        W85712  19.919  40.709   0.418
13987W        W85713  37.072  37.406   2.379
13988W        W85714  33.336  34.434  12.829
13989W        W85715   0.023  38.436  13.434
13990W        W85716  17.280  38.370  12.105
13991W        W85717  15.171  44.875   0.003
13992W        W85718  15.823  42.471   2.768
13993W        W85719  21.128  24.108  11.996
13994W        W85720  11.162   8.554  12.367
13995W        W85721  16.255   7.691   4.045
13996W        W85722  19.095  37.306   1.454
13997W        W85723  30.017  25.788   3.622
13998W        W85724   8.305  25.098  14.798
13999W        W85725   7.282   8.796   2.497
14000W        W85726  28.663  23.677  12.822
14001W        W85727  19.875  31.677   0.357
14002W        W85728  10.478  14.332   0.802
14003W        W85729   2.831   1.101   1.640
14004W        W85730  40.569   8.924   3.607
14005W        W85731  30.019  12.854   3.829
14006W        W85732  36.906  39.431  11.207
14007W        W85733   3.732  10.080  13.875
14008W        W85734  29.502  44.433   2.809
14009W        W85735  19.525  36.116  13.755
14010W        W85736  30.051   4.303  10.484
14011W        W85737  19.622  10.429   4.527
14012W        W85738  18.022  15.618   0.714
14013W        W85739  40.836  30.953   2.941
14014W        W85740  35.587  35.579   3.203
14015W        W85741  42.418  18.162  14.965
14016W        W85742  33.003  44.581   4.555
14017W        W85743  43.039   8.353   0.842
14018W        W85744   7.673  42.371  11.602
14019W        W85745  30.437  21.231  14.417
14020W        W85746  42.375   3.634  12.573
14021W        W85747  39.145   4.699  12.495
14022W        W85748  43.416  25.137  13.207
14023W        W85749   5.408  15.288   0.543
14024W        W85750  17.105   1.125  12.555
14025W        W85751   9.152  44.304  12.421
14026W        W85752  26.903  16.431  11.597
14027W        W85753  24.991  37.896  14.841
14028W        W85754   8.847  38.569  11.085
14029W        W85755  20.214  25.683   0.384
14030W        W85756  33.519  39.107   3.883
14031W        W85757  17.611   0.622  10.654
14032W        W85758  28.409  34.046   4.165
14033W        W85759   1.513   0.199   1.375
14034W        W85760  44.399   4.052   0.314
14035W        W85761  10.930  28.479   4.221
14036W        W85762  14.319   9.816  10.401
14037W        W85763  14.422  42.647   3.934
14038W        W85764  40.226  17.925  12.541
14039W        W85765  32.210  42.078  10.623
14040W        W85766  15.029  38.844   2.594
14041W        W85767  42.320   7.931   4.315
14042W        W85768  23.554   4.180   0.227
14043W        W85769  37.516  40.309   2.200
14044W        W85770  33.510  40.393  11.976
14045W        W85771   7.410  17.627   0.916
14046W        W85772  11.610  36.559   2.382
14047W        W85773  40.072   9.714   1.413
14048W        W85774  28.713  42.047   1.190
14049W        W85775  17.813  11.616  14.987
14050W        W85776  40.846  28.680   0.851
14051W        W85777  30.039  34.385   0.953
14052W        W85778  27.097   8.657  11.526
14053W        W85779   4.088  29.672  14.859
14054W        W85780  19.648  41.364   2.853
14055W        W85781  13.201  32.421   2.933
14056W        W85782   0.474  12.973  12.490
14057W        W85783  28.377  16.112   4.685
14058W        W85784  14.584   1.945  12.584
14059W        W85785  15.201  31.338   3.772
14060W        W85786  41.561  14.049  14.139
14061W        W85787  39.500   5.367  13.726
14062W        W85788   8.083  32.053  10.551
14063W        W85789  12.840  24.998  14.340
14064W        W85790  37.395  38.315   3.641
14065W        W85791  28.716   5.370  13.040
14066W        W85792  20.392   1.757  10.614
14067W        W85793   6.814   6.613  12.426
14068W        W85794  33.609  23.206   1.463
14069W        W85795  30.070   3.277  11.253
14070W        W85796  28.621  25.272   3.603
14071W        W85797  25.653  29.506  13.789
14072W        W85798  11.849  13.125   3.273
14073W        W85799  23.980  19.107  11.740
14074W        W85800  31.622  44.365  14.731
14075W        W85801  24.597  37.574   0.295
14076W        W85802   3.202   7.492   2.131
14077W        W85803  42.858  28.443   4.917
14078W        W85804   7.318  14.163  13.557
14079W        W85805  11.116  37.377  11.215
14080W        W85806  35.929  21.111   2.671
14081W        W85807   4.538   5.759   1.817
14082W        W85808  27.616  25.806  12.556
14083W        W85809  38.996  31.597   3.828
14084W        W85810  33.867  44.471   4.631
14085W        W85811  16.819  38.490  14.960
14086W        W85812  12.750  21.088   0.334
14087W        W85813  23.068  17.633   1.351
14088W        W85814   5.252  16.208   3.129
14089W        W85815   6.287  24.152   1.559
14090W        W85816  43.884  34.200   0.356
14091W        W85817   0.806  15.678   4.729
14092W        W85818  26.645  23.627  10.882
14093W        W85819   0.486  21.507  11.550
14094W        W85820   9.582  38.833   1.889
14095W        W85821  28.967  24.504  14.618
14096W        W85822  20.092   1.449   3.213
14097W        W85823  16.200  44.679   3.159
14098W        W85824  41.534   9.267   1.375
14099W        W85825  38.472  19.730  14.802
14100W        W85826   5.389  12.214  13.652
14101W        W85827   4.806  35.336   4.584
14102W        W85828   8.648   4.889  11.979
14103W        W85829  13.446  13.223   1.314
14104W        W85830  32.899  21.306   4.220
14105W        W85831  20.750   3.981   1.735
14106W        W85832  27.445  38.825   0.877
14107W        W85833  37.093  38.295   4.057
14108W        W85834  15.684  34.778   1.916
14109W        W85835  11.626   4.493  14.373
14110W        W85836   4.159  30.952   3.826
14111W        W85837  17.281  34.688  11.561
14112W        W85838  27.737  39.597   1.197
14113W        W85839  21.507  19.280   1.396
14114W        W85840   3.856  27.811  14.889
14115W        W85841  16.042  18.253   3.081
14116W        W85842  40.508  38.247  13.490
14117W        W85843  16.317  29.254   0.648
14118W        W85844  10.086   2.529  11.837
14119W        W85845  27.747  20.892   3.342
14120W        W85846  20.619  44.039  10.582
14121W        W85847  21.789  14.779  10.660
14122W        W85848  14.605   6.244  13.205
14123W        W85849  26.240  22.909   1.754
14124W        W85850  41.887  43.426  10.543
14125W        W85851  22.292   7.724  14.814
14126W        W85852  12.377  19.975   2.421
14127W        W85853  16.650  24.225  13.408
14128W        W85854  24.653   9.772   2.201
14129W        W85855   0.461  11.559   1.660
14130W        W85856  23.545   6.083  12.044
14131W        W85857  37.103  40.963   2.842
14132W        W85858  22.251  35.891  12.895
14133W        W85859   8.345  41.113   2.579
14134W        W85860  20.448  28.127  11.655
14135W        W85861  40.067  42.340   0.029
14136W        W85862   4.676  16.619  14.736
14137W        W85863  43.534  40.385   2.684
14138W        W85864   9.819  11.886  14.029
14139W        W85865  41.337   9.193  13.863
14140W        W85866  43.425  29.742  14.907
14141W        W85867  12.394  21.720  10.975
14142W        W85868  19.036   9.656  13.959
14143W        W85869  25.081  36.509   0.977
14144W        W85870  41.429   4.230  10.549
14145W        W85871  11.632  14.253  13.854
14146W        W85872  31.845  38.097   0.384
14147W        W85873   1.822  16.044  13.700
14148W        W85874  15.264  25.302   2.072
14149W        W85875  30.362  16.663   1.311
14150W        W85876  27.695  43.103  14.844
14151W        W85877  37.954  22.781   0.988
14152W        W85878  33.438  26.543  14.511
14153W        W85879   4.979  30.523   0.441
14154W        W85880  26.646  41.003  14.925
14155W        W85881  42.998   4.062  14.834
14156W        W85882  44.207  30.086  13.043
14157W        W85883  37.894  41.523   0.935
14158W        W85884   8.274  26.710   3.326
14159W        W85885   4.283  21.332  13.283
14160W        W85886   8.705  36.295   9.589
14161W        W85887  30.760   3.737  12.051
14162W        W85888  33.556  34.212   4.061
14163W        W85889  25.220  22.601  14.697
14164W        W85890   2.451  21.006  12.547
14165W        W85891  28.518  26.727  13.394
14166W        W85892  38.850  24.905   4.571
14167W        W85893  37.941  14.162  12.363
14168W        W85894  35.789  26.680  14.929
14169W        W85895  32.610   6.231  14.858
14170W        W85896  21.535   8.191  13.050
14171W        W85897   0.277   1.317   2.846
14172W        W85898  20.251  20.217   0.832
14173W        W85899  26.965  22.158  11.182
14174W        W85900  36.369   4.419   0.565
14175W        W85901  37.511   3.326   2.985
14176W        W85902  40.980  34.163   3.797
14177W        W85903  25.518  43.042  10.259
14178W        W85904  15.272   0.287   2.660
14179W        W85905  43.903  10.759   0.798
14180W        W85906  18.550  39.310  11.431
14181W        W85907  44.351  37.457  11.194
14182W        W85908  30.612  39.040  10.966
14183W        W85909  30.023  36.446  11.479
14184W        W85910  27.654  28.673   4.391
14185W        W85911   8.124  11.729  14.785
14186W        W85912  34.831  37.811   4.533
14187W        W85913  11.777  42.849   5.021
14188W        W85914   3.326  18.878  14.590
14189W        W85915  19.060  34.004  14.438
14190W        W85916  33.012   4.520   0.775
14191W        W85917   1.521  27.123  12.793
14192W        W85918  38.989  14.261  13.005
14193W        W85919  16.714   9.953   1.244
14194W        W85920  35.326  30.359   1.853
14195W        W85921  41.724  29.187   4.627
14196W        W85922   6.296  11.783  14.454
14197W        W85923  32.374  12.401   0.450
14198W        W85924  17.518  36.842   1.709
14199W        W85925  33.134   5.247  14.342
14200W        W85926  28.078  22.474   3.251
14201W        W85927  20.075  38.765   0.288
14202W        W85928  18.947  24.522   0.771
14203W        W85929  22.342  13.628   0.540
14204W        W85930  44.934  21.710   0.218
14205W        W85931  19.766  41.032   1.868
14206W        W85932  24.970  30.424  13.122
14207W        W85933   3.691   1.499   1.853
14208W        W85934  35.885  41.430  12.134
14209W        W85935   5.357  15.818  13.376
14210W        W85936  25.198  24.032   3.771
14211W        W85937   3.386  14.721  10.901
14212W        W85938  42.989  10.672  10.504
14213W        W85939  15.590  35.903   1.343
14214W        W85940   8.815  17.235   1.267
14215W        W85941  25.567  44.435   4.230
14216W        W85942  11.644  16.237  10.646
14217W        W85943  10.749  12.171   1.399
14218W        W85944   2.274  12.109   0.428
14219W        W85945  37.226  42.963   3.576
14220W        W85946  28.668  43.251  13.568
14221W        W85947   9.685  32.325   0.733
14222W        W85948  13.787   6.045  12.905
14223W        W85949   8.686  11.889   4.259
14224W        W85950  25.534  19.218  13.348
14225W        W85951  22.681  15.317   2.205
14226W        W85952  22.245  41.268   0.325
14227W        W85953  24.029   2.199  12.953
14228W        W85954  14.168  29.206   3.252
14229W        W85955  34.066  16.783  13.208
14230W        W85956  27.690   5.854   1.282
14231W        W85957  29.707  27.991  12.128
14232W        W85958  29.826  44.948  14.345
14233W        W85959  28.593  17.583  11.079
14234W        W85960  25.149  15.652  13.528
14235W        W85961  11.897  37.034   3.906
14236W        W85962  35.971  18.504   3.111
14237W        W85963  18.314  35.020  12.032
14238W        W85964  13.850  44.927   3.600
14239W        W85965  44.823   3.858  11.430
14240W        W85966  33.805  42.472  13.999
14241W        W85967  29.138  10.387  11.613
14242W        W85968  24.002  20.253   0.820
14243W        W85969  40.737  44.420   1.669
14244W        W85970  13.737  17.035  14.652
14245W        W85971  28.036   1.849   4.569
14246W        W85972  17.260   6.670   1.578
14247W        W85973  17.046  12.661  10.300
14248W        W85974   5.538  14.350   3.087
14249W        W85975  20.541  16.201  14.028
14250W        W85976  39.300   6.609  11.659
14251W        W85977  36.365  22.595   1.677
14252W        W85978  24.719  34.795  14.342
14253W        W85979  13.720  41.906   0.375
14254W        W85980   0.760  38.841   2.665
14255W        W85981  16.103   3.458   4.769
14256W        W85982  22.695   7.625   4.553
14257W        W85983  40.456  10.439   2.409
14258W        W85984  43.977  34.406  13.920
14259W        W85985  25.226  43.504   4.154
14260W        W85986  30.058  34.554  14.833
14261W        W85987  42.323  27.863   4.779
14262W        W85988  27.257   1.440   5.628
14263W        W85989  37.581  18.073   1.850
14264W        W85990  44.866  32.352   3.292
14265W        W85991  28.091  12.299  13.353
14266W        W85992   4.930   4.584   4.567
14267W        W85993  23.433  24.950   3.275
14268W        W85994   6.924  10.028  11.877
14269W        W85995  41.428   1.009   0.340
14270W        W85996  33.596  44.893  14.917
14271W        W85997  41.326  39.156  14.446
14272W        W85998   9.147   3.288  11.660
14273W        W85999  37.428  30.485   0.301
14274W        W86000  32.633  35.617  13.517
14275W        W86001  43.662  27.868  11.498
14276W        W86002  11.056  42.055   2.870
14277W        W86003  25.785  19.845   1.043
14278W        W86004   5.361  11.553  14.962
14279W        W86005  18.192  40.529   2.917
14280W        W86006  36.483  33.099   1.958
14281W        W86007  23.384  28.032   9.747
14282W        W86008   9.308  24.667   0.040
14283W        W86009  21.714  10.117   3.412
14284W        W86010  30.250  37.531  13.383
14285W        W86011   3.562   9.610  11.120
14286W        W86012  36.518  25.093  12.626
14287W        W86013   7.213   1.159  14.190
14288W        W86014  26.904  21.558   4.122
14289W        W86015   5.481  38.487  11.621
14290W        W86016  18.642   9.786  10.938
14291W        W86017   9.164  20.111  11.129
14292W        W86018   8.831  12.043   1.540
14293W        W86019  30.967  30.335  12.634
14294W        W86020  35.584  16.156  11.453
14295W        W86021  30.034  23.176   3.746
14296W        W86022   2.000   2.762   1.174
14297W        W86023  26.702  14.629   2.460
14298W        W86024  18.148  14.694   2.310
14299W        W86025  44.414  10.694   0.917
14300W        W86026  24.631  41.938   2.649
14301W        W86027  31.196  10.757  13.484
14302W        W86028  19.245  35.359  13.769
14303W        W86029  14.371   8.377  11.163
14304W        W86030   7.759  30.351  14.769
14305W        W86031   4.611  30.566   0.088
14306W        W86032  16.172  43.392  13.748
14307W        W86033  35.029  37.492   0.760
14308W        W86034  22.618  23.154   3.572
14309W        W86035  25.215  20.726  14.935
14310W        W86036  11.777  15.887   4.639
14311W        W86037  38.970  17.178   3.664
14312W        W86038  36.892  25.619  14.802
14313W        W86039   2.449  21.638   2.908
14314W        W86040  33.207  31.935   3.786
14315W        W86041  33.147  40.455  12.476
14316W        W86042  17.965  22.098   3.702
14317W        W86043  40.046  27.819   2.346
14318W        W86044   8.190  40.294  14.152
14319W        W86045  15.184  32.038  10.495
14320W        W86046  37.449  28.846  12.920
14321W        W86047  22.744  41.010  14.836
14322W        W86048   3.767  26.419  14.818
14323W        W86049  16.753  20.168  14.871
14324W        W86050   0.872  22.726  12.471
14325W        W86051  34.140  42.863  12.367
14326W        W86052   7.880  17.307  11.658
14327W        W86053  18.643  20.449   4.111
14328W        W86054  41.452  33.104  10.733
14329W        W86055  38.180  23.050   4.510
14330W        W86056  20.042   8.237  14.874
14331W        W86057  41.385  34.480  11.156
14332W        W86058  28.638  23.702   1.850
14333W        W86059  27.105  30.412   3.207
14334W        W86060   7.812   3.287  11.207
14335W        W86061  27.492  33.725  12.833
14336W        W86062  26.015  13.110  13.731
14337W        W86063  42.421   1.719   3.378
14338W        W86064   8.119   7.858   3.620
14339W        W86065  26.974   5.808  13.838
14340W        W86066  14.597  42.841  12.871
14341W        W86067  30.726  30.494   2.980
14342W        W86068  20.611  22.046  11.605
14343W        W86069   8.399  39.135  12.038
14344W        W86070  22.150  25.051  13.916
14345W        W86071  13.842  12.162  12.037
14346W        W86072   4.743   3.952  14.709
14347W        W86073  26.451  34.396   4.744
14348W        W86074   3.245   7.305   1.630
14349W        W86075   9.622  19.590  13.000
14350W        W86076  38.941   4.966   0.333
14351W        W86077  20.100  39.320   0.272
14352W        W86078  19.511  13.246   4.190
14353W        W86079  43.201  40.856   1.750
14354W        W86080  40.903  33.960   3.307
14355W        W86081  13.829  40.810  11.108
14356W        W86082   5.802  19.790   1.727
14357W        W86083  25.570  25.802  12.101
14358W        W86084   6.389  26.419  13.511
14359W        W86085  25.244  12.593  13.389
14360W        W86086  12.791  14.228   1.725
14361W        W86087  34.532   9.804   1.178
14362W        W86088  19.086  44.747   0.732
14363W        W86089  18.084   1.907  12.053
14364W        W86090  26.542   1.435   9.675
14365W        W86091  22.033   5.963   4.806
14366W        W86092  30.146   0.349   1.402
14367W        W86093   5.188  23.474  13.887
14368W        W86094  13.005  43.394  12.618
14369W        W86095  21.589  16.959   2.728
14370W        W86096  42.272  26.407   1.350
14371W        W86097  40.822  23.074   4.661
14372W        W86098   1.992  41.759   5.004
14373W        W86099  18.356   1.992  14.891
14374W        W86100   1.792  17.718  12.682
14375W        W86101  20.356  21.632   1.279
14376W        W86102  16.374  29.338  13.882
14377W        W86103  36.984  11.661  11.649
14378W        W86104  14.181  27.899  13.007
14379W        W86105  22.978  36.446   0.453
14380W        W86106  40.019  32.387   0.879
14381W        W86107  31.422   8.894  12.112
14382W        W86108  20.301   5.362  14.309
14383W        W86109  41.847  13.597  10.818
14384W        W86110  36.075  14.359  14.881
14385W        W86111  20.091   0.814  14.357
14386W        W86112  27.886  23.325   3.239
14387W        W86113   5.602   6.297  14.474
14388W        W86114  32.380  18.554  12.111
14389W        W86115   4.847   5.738  14.964
14390W        W86116  31.976  15.083   1.500
14391W        W86117  27.250  43.617  12.126
14392W        W86118  14.164  27.099   3.392
14393W        W86119  19.467   6.325   3.766
14394W        W86120  21.160   2.390   0.966
14395W        W86121  40.890   6.302   0.880
14396W        W86122  39.860   8.130  11.103
14397W        W86123  34.651  35.555  14.847
14398W        W86124  42.453  29.692   4.099
14399W        W86125  26.674  26.633   3.534
14400W        W86126  16.281   8.979  10.671
14401W        W86127  33.572  43.492   3.824
14402W        W86128   0.498  26.742  11.036
14403W        W86129  41.823  26.097  13.917
14404W        W86130  27.152   2.378  12.910
14405W        W86131  37.568  10.344   3.350
14406W        W86132  18.975  22.091  14.793
14407W        W86133  34.392   4.386  11.899
14408W        W86134   8.422   4.399  13.119
14409W        W86135  33.517   4.709  14.936
14410W        W86136  23.765  14.118  11.921
14411W        W86137  41.626  44.741  11.062
14412W        W86138  15.718  27.682  14.012
14413W        W86139  18.215   2.563  13.031
14414W        W86140  17.367   2.255   1.185
14415W        W86141  31.562  37.091  10.603
14416W        W86142  39.427  12.539  12.467
14417W        W86143  24.678   0.706  14.788
14418W        W86144  13.189  35.317  14.089
14419W        W86145  20.062   7.889  12.146
14420W        W86146   6.402  38.601   4.624
14421W        W86147  25.885  32.681  13.823
14422W        W86148   3.187   1.731  12.009
14423W        W86149  42.296  32.447   0.944
14424W        W86150  20.742  39.473  13.322
14425W        W86151  24.428  34.138  13.001
14426W        W86152  18.328  31.109   3.958
14427W        W86153  23.071   4.672  11.904
14428W        W86154  17.617  20.015  11.564
14429W        W86155  18.246  29.727  11.211
14430W        W86156  25.627  23.286   3.819
14431W        W86157  13.548  15.653   0.887
14432W        W86158  20.705  42.894   3.720
14433W        W86159  28.592   9.678   1.077
14434W        W86160   5.839  16.855   1.852
14435W        W86161  39.998  26.964  13.382
14436W        W86162  35.917  18.472  12.067
14437W        W86163  22.508  44.584   2.270
14438W        W86164  35.595  40.786   3.520
14439W        W86165  19.259  44.331  11.136
14440W        W86166  13.327  26.763  13.574
14441W        W86167  24.226   6.262   4.135
14442W        W86168  42.426   8.455   4.361
14443W        W86169  15.670  19.143   0.322
14444W        W86170   7.868  27.037   3.351
14445W        W86171   8.506  28.152   4.110
14446W        W86172  32.511  20.261   0.735
14447W        W86173  22.172   9.945   3.236
14448W        W86174  29.240   2.235  13.365
14449W        W86175  26.019  17.858   1.397
14450W        W86176  36.251   5.382  11.546
14451W        W86177  28.467  38.518  13.715
14452W        W86178  44.488  27.020  13.309
14453W        W86179  18.168  17.521   3.052
14454W        W86180  42.678  16.641   1.111
14455W        W86181  20.764  15.975  12.128
14456W        W86182   4.771  35.329  11.413
14457W        W86183  26.042  29.541  13.093
14458W        W86184  43.703   3.074   2.077
14459W        W86185   2.463  43.387   1.397
14460W        W86186  35.111  12.835   1.551
14461W        W86187  44.746   3.083  13.517
14462W        W86188  14.850  33.540   2.252
14463W        W86189   4.181  30.607   4.213
14464W        W86190  19.348   0.708  13.591
14465W        W86191  16.052   6.608  13.515
14466W        W86192  43.277   9.484  13.069
14467W        W86193  18.701   0.489   2.642
14468W        W86194   8.077   9.325  11.623
14469W        W86195  34.881  14.526  12.482
14470W        W86196  20.190  14.861  14.900
14471W        W86197  26.149  13.619   3.648
14472W        W86198   8.387   7.763  12.443
14473W        W86199  16.343  37.933   4.604
14474W        W86200  18.056   5.380   1.298
14475W        W86201  43.852  22.115   2.818
14476W        W86202   0.396  35.195   4.936
14477W        W86203  13.336  20.649   1.405
14478W        W86204   7.876  40.924  11.972
14479W        W86205   1.386   1.506   3.050
14480W        W86206  18.127  17.703   0.623
14481W        W86207  28.067  39.336   3.868
14482W        W86208  35.522  32.205  10.681
14483W        W86209  38.609  18.272  10.496
14484W        W86210  40.583  22.699   1.720
14485W        W86211   7.456  26.535   3.628
14486W        W86212  24.231  39.475   0.266
14487W        W86213  23.782  22.156  12.568
14488W        W86214  13.971  43.917   2.299
14489W        W86215  24.005  36.357  12.442
14490W        W86216   0.414  14.141   1.000
14491W        W86217  17.683  43.759   3.663
14492W        W86218  35.925  23.242   1.274
14493W        W86219  21.846  24.553   5.802
14494W        W86220  34.849   6.897   3.338
14495W        W86221  17.017  23.939   1.905
14496W        W86222  40.901   2.756   0.125
14497W        W86223   3.845  13.126  12.444
14498W        W86224  29.376  29.138   4.573
14499W        W86225  44.970   0.193   2.456
14500W        W86226   1.573  22.178   0.282
14501W        W86227  43.793  38.059   2.582
14502W        W86228  14.780  18.824   4.637
14503W        W86229   8.905   5.370   4.142
14504W        W86230  10.023  21.278  11.592
14505W        W86231   7.277  13.715  13.153
14506W        W86232  21.574  24.932   3.570
14507W        W86233  37.825   5.991   0.946
14508W        W86234  29.944  10.704  11.200
14509W        W86235  36.330  14.131   1.179
14510W        W86236  15.236  15.371  11.882
14511W        W86237  26.691  35.365  14.522
14512W        W86238  32.581  21.524  12.525
14513W        W86239  38.970   3.859  11.613
14514W        W86240  13.113   6.216  11.510
14515W        W86241   1.234   1.614   4.764
14516W        W86242  18.011  10.112   3.864
14517W        W86243  37.798  19.713   2.250
14518W        W86244  37.346  31.917   0.992
14519W        W86245  22.182  26.265   5.373
14520W        W86246  17.077  25.624   2.636
14521W        W86247  18.624  39.778  11.609
14522W        W86248  25.906  12.371   2.738
14523W        W86249  37.975  20.128   0.380
14524W        W86250  21.607   9.091   3.248
14525W        W86251   5.465  28.446   0.836
14526W        W86252  29.079  44.444   4.186
14527W        W86253  34.470  24.576   3.181
14528W        W86254  17.096  11.922   4.209
14529W        W86255  23.218  25.391   4.707
14530W        W86256   6.284  18.110   3.810
14531W        W86257   0.756  33.525   1.974
14532W        W86258   7.405   8.800  13.904
14533W        W86259  35.188  15.237   1.967
14534W        W86260  19.852  16.430  11.859
14535W        W86261  42.356  17.243   1.441
14536W        W86262  34.381  35.762  12.686
14537W        W86263  30.560  30.464   0.529
14538W        W86264  27.183  34.952   2.881
14539W        W86265  36.296  10.347   0.449
14540W        W86266  28.848  28.959  11.985
14541W        W86267  10.416  25.185  13.926
14542W        W86268  20.019   0.009   3.999
14543W        W86269   1.466  17.127  14.073
14544W        W86270  43.531   9.087   2.338
14545W        W86271  42.615  42.625   3.773
14546W        W86272  14.195  39.954  10.090
14547W        W86273  14.219  41.246  11.719
14548W        W86274  36.767  32.055  14.226
14549W        W86275   9.167  25.678  10.709
14550W        W86276  21.600   9.599   4.721
14551W        W86277  13.836   7.201   2.018
14552W        W86278  26.222   5.906   4.625
14553W        W86279  20.464  12.139   3.720
14554W        W86280  13.683  31.486   4.631
14555W        W86281  39.244   3.453  13.856
14556W        W86282  18.341  38.602   3.752
14557W        W86283  21.290  35.491  12.855
14558W        W86284  18.905   5.792  14.610
14559W        W86285  32.345  18.692   4.694
14560W        W86286  44.324  39.474  14.568
14561W        W86287  21.926  42.103   0.398
14562W        W86288  44.804  31.124   2.759
14563W        W86289  21.304  10.274   0.067
14564W        W86290  23.067  13.918   4.776
14565W        W86291  26.062  13.837   1.852
14566W        W86292  19.193   4.746  13.971
14567W        W86293  29.444  30.716  10.269
14568W        W86294  37.561  42.903   1.847
14569W        W86295  10.782  33.854   2.126
14570W        W86296  35.456  33.065   2.371
14571W        W86297  40.498  26.167   2.827
14572W        W86298  33.214  37.811   0.701
14573W        W86299  29.121  17.855  11.958
14574W        W86300  33.905   5.370  13.847
14575W        W86301   2.947  10.636  11.128
14576W        W86302  31.269  42.060   9.756
14577W        W86303  41.801  15.858  13.073
14578W        W86304  44.463  13.021   5.018
14579W        W86305  17.773  39.923   9.779
14580W        W86306  38.466  16.387  14.622
14581W        W86307  42.570  18.747  14.255
14582W        W86308  23.037  26.569  13.920
14583W        W86309  19.210   2.908   1.424
14584W        W86310  27.904   6.796  11.559
14585W        W86311  16.750  30.644   4.134
14586W        W86312  19.212   8.771   2.399
14587W        W86313   5.737  11.828  12.816
14588W        W86314   3.851  33.408  14.165
14589W        W86315  37.987  40.790   1.387
14590W        W86316  19.663  34.158  12.992
14591W        W86317   6.769   2.690  11.916
14592W        W86318  24.798  16.777  12.227
14593W        W86319   3.847  39.424  12.645
14594W        W86320  14.858  18.169  12.943
14595W        W86321  19.067  11.872  13.425
14596W        W86322   3.219  17.810  10.719
14597W        W86323  30.463  17.632   0.002
14598W        W86324  43.958  43.676  10.942
14599W        W86325  27.012  43.873  14.306
14600W        W86326  20.640  27.934   5.089
14601W        W86327   3.415   3.851   0.192
14602W        W86328  12.710  44.332  14.197
14603W        W86329  41.921   2.773  14.377
14604W        W86330  13.383  30.475   0.547
14605W        W86331  22.255  39.661   4.024
14606W        W86332  28.008  36.432  13.436
14607W        W86333  24.190  21.533   2.153
14608W        W86334  42.442   9.895  12.517
14609W        W86335  34.115  43.907   9.654
14610W        W86336  28.599  21.083   2.866
14611W        W86337  41.515  27.728   3.813
14612W        W86338  28.415   6.788  12.489
14613W        W86339   7.845   3.263   3.104
14614W        W86340  25.855  36.857  11.939
14615W        W86341  43.845   4.959  10.255
14616W        W86342  25.847  15.291  14.422
14617W        W86343  14.661   9.297   0.435
14618W        W86344  38.043  14.536   1.223
14619W        W86345  43.019   4.745  10.388
14620W        W86346  42.560   0.761   2.252
14621W        W86347   3.534  37.536   4.684
14622W        W86348  19.563  21.832  13.063
14623W        W86349  32.151   8.794  12.494
14624W        W86350  40.226  17.219   1.892
14625W        W86351  28.382  40.581   1.540
14626W        W86352  29.387  18.794  14.024
14627W        W86353   0.466   8.274  10.320
14628W        W86354  35.079  12.528  11.528
14629W        W86355  14.687  36.846  10.588
14630W        W86356  18.208  18.657   3.074
14631W        W86357   5.206   9.081   1.117
14632W        W86358  26.599   2.141  14.557
14633W        W86359  39.427  44.942   4.086
14634W        W86360  11.357   1.237   4.597
14635W        W86361  30.707  40.103  11.581
14636W        W86362   0.886  30.499   1.227
14637W        W86363  18.824  27.726   2.770
14638W        W86364  41.937  41.128  10.088
14639W        W86365   5.151  10.105  13.487
14640W        W86366  33.308  32.824  12.245
14641W        W86367  22.230  36.024  11.369
14642W        W86368  28.242  13.835   2.653
14643W        W86369  32.176  36.233  10.658
14644W        W86370   9.431   8.962   0.697
14645W        W86371  12.752   0.369  11.567
14646W        W86372  32.964   4.115   4.473
14647W        W86373  18.483  11.387  12.074
14648W        W86374  32.139  29.372  14.920
14649W        W86375   4.262   1.903  12.462
14650W        W86376  38.900  10.876   3.660
14651W        W86377  30.382  22.816  13.012
14652W        W86378  23.692  21.233   2.846
14653W        W86379   4.225   1.780   3.721
14654W        W86380  37.786  14.745   4.244
14655W        W86381   0.346   2.941   4.599
14656W        W86382   0.062  12.279  12.931
14657W        W86383  13.399  35.495   1.244
14658W        W86384  43.002  24.059  14.527
14659W        W86385  39.936  29.931   2.789
14660W        W86386  10.854   5.052   4.300
14661W        W86387  14.632   1.230  12.931
14662W        W86388  16.639  22.917   0.475
14663W        W86389  22.236  10.429  12.642
14664W        W86390  33.492  39.548   3.586
14665W        W86391   0.507  27.165  14.832
14666W        W86392  13.737  23.698   4.197
14667W        W86393  17.458  40.014  10.200
14668W        W86394   5.306  28.888   2.141
14669W        W86395  43.950  22.720  11.474
14670W        W86396  22.123  24.887  14.528
14671W        W86397  12.291  28.362   1.133
14672W        W86398   8.938  36.492   5.023
14673W        W86399   2.764  35.345  11.180
14674W        W86400   9.440  25.963   5.220
14675W        W86401  38.903  41.072  12.812
14676W        W86402   0.467  32.535   1.964
14677W        W86403  34.795  20.649   2.399
14678W        W86404  27.359   7.674  11.619
14679W        W86405  17.144  23.623   0.544
14680W        W86406   3.323   3.630  14.288
14681W        W86407  41.522  36.438   2.180
14682W        W86408  43.966  25.492   0.025
14683W        W86409  13.617  44.831  13.432
14684W        W86410  32.644   7.675   3.604
14685W        W86411  35.270  17.873   2.799
14686W        W86412  34.392  44.106   2.682
14687W        W86413  41.658  20.726   2.369
14688W        W86414  44.458  19.220  12.378
14689W        W86415  21.321  39.845   4.115
14690W        W86416   5.123  43.350  14.079
14691W        W86417  41.350  41.276   0.035
14692W        W86418   2.819  17.677  11.627
14693W        W86419  15.015  18.558   1.218
14694W        W86420   8.713  29.212   0.004
14695W        W86421  42.702  33.842   0.957
14696W        W86422  10.268  18.425  11.222
14697W        W86423   1.509   5.211   3.169
14698W        W86424  33.192  34.419   1.198
14699W        W86425  43.225  44.388  13.460
14700W        W86426  26.796  36.040   3.665
14701W        W86427  35.004  17.995  13.025
14702W        W86428  41.471  13.092  11.582
14703W        W86429  40.274  31.387   4.150
14704W        W86430  32.141  24.018  11.858
14705W        W86431  32.372  42.421  14.722
14706W        W86432  34.037   9.185  12.703
14707W        W86433   3.018   5.170  12.167
14708W        W86434   2.222   0.322  10.279
14709W        W86435  19.802  38.495  13.081
14710W        W86436   7.363  44.533  11.655
14711W        W86437  42.790  32.654  12.071
14712W        W86438  42.597   6.264   4.904
14713W        W86439  42.754  11.288  12.385
14714W        W86440  43.579  35.345  10.706
14715W        W86441  29.946  37.190   2.843
14716W        W86442  13.644  40.845  14.735
14717W        W86443  28.917  15.244  12.565
14718W        W86444  11.401  30.523  14.409
14719W        W86445  23.415   5.680  13.416
14720W        W86446  12.202  32.161   0.348
14721W        W86447  15.558  44.718  12.116
14722W        W86448   1.275   2.075  14.966
14723W        W86449   2.388  32.049   1.205
14724W        W86450  12.879  36.158   0.953
14725W        W86451  25.113  38.896   1.824
14726W        W86452  31.632  15.074  12.058
14727W        W86453   7.896  19.349  10.426
14728W        W86454   1.018   9.578   0.366
14729W        W86455   7.653  21.719   2.804
14730W        W86456  41.567  42.553  14.493
14731W        W86457  38.926  15.488   1.270
14732W        W86458  16.098  22.966   2.278
14733W        W86459  19.529  16.410  11.392
14734W        W86460  33.814  41.935  13.096
14735W        W86461  23.223  15.011   3.615
14736W        W86462  34.415  26.898   0.338
14737W        W86463   5.458   9.271  14.728
14738W        W86464  15.272  39.966   3.653
14739W        W86465  27.821  26.243   3.196
14740W        W86466  11.755  33.531  13.114
14741W        W86467  19.020  44.656  14.324
14742W        W86468  44.238  31.178   4.084
14743W        W86469  20.547   3.019  12.772
14744W        W86470   9.745   9.765  13.557
14745W        W86471   0.812  16.348   0.179
14746W        W86472  44.455  11.609  13.819
14747W        W86473   5.910  28.206   0.661
14748W        W86474  20.038   4.938  14.521
14749W        W86475  25.910   9.405   0.753
14750W        W86476  31.559  13.001   4.865
14751W        W86477  11.391  44.023  12.258
14752W        W86478   6.220  31.632   4.436
14753W        W86479  11.052  44.481   4.452
14754W        W86480  42.932  26.272   5.141
14755W        W86481  29.395  27.098  12.365
14756W        W86482  10.722  22.218  14.197
14757W        W86483   1.165  35.021  14.297
14758W        W86484  13.655  32.651   2.744
14759W        W86485   1.053  14.470  12.470
14760W        W86486  20.265   6.266  14.859
14761W        W86487   0.845  44.452   3.702
14762W        W86488  44.693  15.726  12.005
14763W        W86489   8.115  19.048   4.103
14764W        W86490   6.676  21.676   3.690
14765W        W86491  18.478  44.238   3.240
14766W        W86492  14.082  39.653   4.997
14767W        W86493  20.530  13.012  12.073
14768W        W86494   9.954  39.261   1.872
14769W        W86495  22.231  11.471   0.018
14770W        W86496  14.823   7.730   3.109
14771W        W86497  17.512  37.925   1.846
14772W        W86498   5.342  16.517   4.071
14773W        W86499  41.443  30.600  11.529
14774W        W86500  29.204  41.381   1.692
14775W        W86501  10.837  27.341   0.862
14776W        W86502   0.238  32.238   5.008
14777W        W86503  22.506   0.708  12.832
14778W        W86504  27.983  44.504   2.781
14779W        W86505  37.699  13.788  11.099
14780W        W86506  11.678  33.401  11.575
14781W        W86507  16.124   4.360  14.045
14782W        W86508  34.632  44.893  12.523
14783W        W86509  10.059  39.104   5.080
14784W        W86510  12.631  16.564  14.456
14785W        W86511  31.005  31.199   3.722
14786W        W86512  19.549  29.404   4.593
14787W        W86513  33.926   5.047  14.953
14788W        W86514  38.570  29.525   2.326
14789W        W86515  32.526   1.346  13.039
14790W        W86516   2.004  39.916   3.670
14791W        W86517  44.670  33.413   3.209
14792W        W86518  40.076   1.879   0.366
14793W        W86519  20.399  35.535   1.456
14794W        W86520  28.082  22.715   2.776
14795W        W86521  32.113  30.674  10.734
14796W        W86522   1.281  38.166  12.952
14797W        W86523  23.005  38.437  14.265
14798W        W86524   8.009  19.061   2.278
14799W        W86525  41.835  44.596   1.209
14800W        W86526  38.002  43.691  14.379
14801W        W86527  12.183  11.819   0.196
14802W        W86528  27.576  31.517   4.672
14803W        W86529  13.283  25.174  11.960
14804W        W86530  15.246  44.245   2.978
14805W        W86531   1.445  40.782  12.228
14806W        W86532  26.871  35.273   0.409
14807W        W86533  35.565  32.069   4.612
14808W        W86534  41.356  31.859  11.144
14809W        W86535  27.465  20.727  11.283
14810W        W86536  10.845  43.015  13.235
14811W        W86537  27.571  31.907   2.427
14812W        W86538  28.472  27.079  14.761
14813W        W86539  27.764   0.782   2.241
14814W        W86540   5.195  12.461  10.258
14815W        W86541  41.801   0.850  11.669
14816W        W86542  29.054  24.633  12.181
14817W        W86543   6.931  10.700  12.378
14818W        W86544  13.993  21.410   2.775
14819W        W86545  36.422  44.529   0.084
14820W        W86546   2.247  12.098  10.467
14821W        W86547  24.137  29.468   3.131
14822W        W86548  13.701   5.850   0.321
14823W        W86549  19.198  29.773   3.592
14824W        W86550  31.391  31.231   2.695
14825W        W86551  16.241  30.924  14.779
14826W        W86552  37.975   6.755   3.320
14827W        W86553   4.440   7.909   2.607
14828W        W86554  40.867  19.097   4.753
14829W        W86555  22.098   8.622  13.982
14830W        W86556  17.201  19.546   2.771
14831W        W86557  16.393  33.059   4.508
14832W        W86558  40.274  32.636  11.886
14833W        W86559  38.078  25.982   3.193
14834W        W86560  20.529  25.295   1.978
14835W        W86561  31.875  21.547  13.976
14836W        W86562  21.348  22.726  10.626
14837W        W86563  30.179  24.602  13.346
14838W        W86564   7.665   7.104  10.013
14839W        W86565  16.794  37.519   2.335
14840W        W86566  41.565  27.178   1.910
14841W        W86567   1.132   6.989  13.090
14842W        W86568   2.304   8.847  12.103
14843W        W86569  23.458  11.177  14.009
14844W        W86570   0.454  42.384  10.723
14845W        W86571  32.692  15.276  14.254
14846W        W86572  19.435  22.610   2.195
14847W        W86573  17.530  31.504  13.982
14848W        W86574  34.805  22.448   2.403
14849W        W86575  15.109  39.947   4.135
14850W        W86576  36.574  19.567  11.100
14851W        W86577  11.384  40.199  10.786
14852W        W86578  28.904  26.894   0.434
14853W        W86579  32.952   5.907  14.554
14854W        W86580  13.330  22.561   0.000
14855W        W86581  44.764  26.511   3.293
14856W        W86582  37.036  25.989  13.465
14857W        W86583  32.130  26.395   2.702
14858W        W86584  19.682  30.288   2.936
14859W        W86585  25.728   0.288   0.301
14860W        W86586  43.392  43.228   3.750
14861W        W86587  26.593   5.635  14.465
14862W        W86588   2.406  18.076  14.875
14863W        W86589  19.564   7.785   4.565
14864W        W86590  12.793  12.827   1.820
14865W        W86591   3.295   8.735  14.466
14866W        W86592  26.227  15.796   0.427
14867W        W86593  44.717   6.495  12.847
14868W        W86594  44.859   9.648   2.692
14869W        W86595  11.970  11.122  14.701
14870W        W86596  22.454  32.511  11.394
14871W        W86597  22.954  13.791  14.770
14872W        W86598  10.631  38.059  11.513
14873W        W86599  39.281  32.494  11.718
14874W        W86600  37.466  12.765  14.419
14875W        W86601  38.488  30.624  12.054
14876W        W86602  18.741   2.725  10.795
14877W        W86603  19.846   1.951   3.728
14878W        W86604  15.672  17.776   1.820
14879W        W86605  41.259   3.561   0.465
14880W        W86606  31.642  28.641  13.370
14881W        W86607  31.255   2.809   3.274
14882W        W86608  28.628  10.119   3.706
14883W        W86609   1.804  39.817  10.781
14884W        W86610   7.973  30.342  10.225
14885W        W86611   4.971  22.698   1.740
14886W        W86612  14.569  27.092  13.832
14887W        W86613  12.156  21.020  12.485
14888W        W86614  14.616  38.995  13.512
14889W        W86615  37.450  31.187   2.831
14890W        W86616  17.554  15.243   2.757
14891W        W86617  19.567  42.513  14.102
14892W        W86618   3.907  39.131   2.818
14893W        W86619  43.786  40.042   1.749
14894W        W86620  29.401  10.076  13.069
14895W        W86621  44.327  37.057  10.663
14896W        W86622  26.526  27.525  12.548
14897W        W86623  28.209  13.165  12.956
14898W        W86624  20.204  16.634  14.054
14899W        W86625  30.758  43.017  10.511
14900W        W86626  43.022  13.553  14.691
14901W        W86627  30.591  20.917   1.747
14902W        W86628  24.037   1.853  14.324
14903W        W86629  26.495  13.357  14.821
14904W        W86630  15.024  29.395  12.654
14905W        W86631  31.747  15.556  14.349
14906W        W86632  23.050  13.297  11.162
14907W        W86633  26.729  41.348   1.517
14908W        W86634  25.236  26.400  14.418
14909W        W86635  19.195  27.708   1.816
14910W        W86636  19.634  36.720  12.063
14911W        W86637  18.737   7.389  13.069
14912W        W86638   6.840  23.550  11.630
14913W        W86639   9.295   3.579   4.252
14914W        W86640  40.091  22.012   4.650
14915W        W86641  24.546  40.338  12.411
14916W        W86642  34.644  23.730  14.627
14917W        W86643   0.157  17.250   3.639
14918W        W86644  29.977  15.637  11.545
14919W        W86645  36.961  44.905  10.573
14920W        W86646  24.173  33.686  12.070
14921W        W86647   1.963  30.209  13.950
14922W        W86648   6.310  42.398   2.431
14923W        W86649  18.572  28.710   0.491
14924W        W86650  29.454  36.674  14.518
14925W        W86651   1.892   7.868   2.688
14926W        W86652  14.228  40.603   4.969
14927W        W86653   5.367  21.369  12.930
14928W        W86654  17.149  28.306  11.398
14929W        W86655  41.589  28.521   5.012
14930W        W86656  13.919  16.538   0.905
14931W        W86657  14.096   3.681   1.931
14932W        W86658  30.505   4.428  14.031
14933W        W86659  28.704  19.190   0.713
14934W        W86660   8.598  15.334   1.687
14935W        W86661   6.978  30.745   3.715
14936W        W86662  42.342  22.199   2.646
14937W        W86663  14.177  38.026  12.817
14938W        W86664  19.750  18.049  14.473
14939W        W86665   8.249   6.187  11.666
14940W        W86666  36.262  29.800   1.312
14941W        W86667  22.519  24.269   1.732
14942W        W86668  42.383   6.943   3.778
14943W        W86669  44.444   8.693   0.886
14944W        W86670  14.699  23.035   2.362
14945W        W86671  41.995  25.538  11.906
14946W        W86672  14.240  22.950   1.419
14947W        W86673  42.107  24.248  12.366
14948W        W86674  11.714   0.798   1.800
14949W        W86675  42.275  28.104  13.115
14950W        W86676  17.729  29.714  10.498
14951W        W86677   8.094  20.755   2.790
14952W        W86678  44.773  10.793   1.272
14953W        W86679  22.495  13.214  13.409
14954W        W86680  31.602  32.468   2.229
14955W        W86681  29.970  32.548   3.586
14956W        W86682  39.305  10.729   3.323
14957W        W86683  30.431   1.939   2.877
14958W        W86684   4.299  19.811  11.469
14959W        W86685   4.629  28.016  14.383
14960W        W86686  17.752   1.870   0.423
14961W        W86687  34.690  22.418   1.503
14962W        W86688   8.058  12.129  11.162
14963W        W86689  42.316   0.177  14.838
14964W        W86690   6.419   4.486  10.495
14965W        W86691  14.142  26.074  14.353
14966W        W86692  43.908  19.282  10.438
14967W        W86693  31.486  11.609   3.741
14968W        W86694  29.415   0.879   3.251
14969W        W86695   2.540   4.424   0.669
14970W        W86696  38.578  26.141  13.944
14971W        W86697  34.799  20.545  14.577
14972W        W86698  30.085   3.913  14.659
14973W        W86699  17.069   0.981   3.295
14974W        W86700  33.912  25.022   2.858
14975W        W86701  42.972  30.993  12.455
14976W        W86702   9.632  29.958   2.654
14977W        W86703  35.903  44.450   1.369
14978W        W86704  12.788  30.336   0.920
14979W        W86705  13.222  35.345  12.475
14980W        W86706  34.401  30.669   0.041
14981W        W86707  38.986  33.759  14.358
14982W        W86708  20.686  25.720  14.469
14983W        W86709  31.237  10.286   0.414
14984W        W86710  31.602  28.859  12.916
14985W        W86711  38.625  14.844  11.011
14986W        W86712  38.479  24.232   1.492
14987W        W86713  32.804  13.096   0.937
14988W        W86714  36.275  24.037   3.636
14989W        W86715   2.968  23.097  11.078
14990W        W86716  20.735  30.078   1.847
14991W        W86717  42.043  35.514   4.128
14992W        W86718  16.825  37.309   0.521
14993W        W86719  27.561  25.539   4.138
14994W        W86720   3.853  34.154  12.671
14995W        W86721  27.069  43.196   1.719
14996W        W86722  21.164  44.902   0.776
14997W        W86723   3.524  35.400  11.707
14998W        W86724   6.359  35.854   0.325
14999W        W86725  31.394  42.299  12.527
15000W        W86726  33.524  19.531   0.885
15001W        W86727  33.616  35.316  11.107
15002W        W86728  27.509   3.727   2.924
15003W        W86729  26.130   7.252   1.784
15004W        W86730   6.709  32.504  10.479
15005W        W86731  33.436   2.480   0.011
15006W        W86732  14.282   6.425  12.107
15007W        W86733   1.584  28.489  12.956
15008W        W86734   3.699  41.450   2.468
15009W        W86735  42.876  13.696  13.271
15010W        W86736  18.839  14.679   0.231
15011W        W86737  22.727   0.299   0.043
15012W        W86738  30.904  13.077  13.762
15013W        W86739  30.045   0.764  14.179
15014W        W86740  34.381  27.524   0.487
15015W        W86741  38.122   4.787  12.475
15016W        W86742   4.265  13.405  12.547
15017W        W86743  35.324  39.746   0.750
15018W        W86744  30.581   5.173  14.787
15019W        W86745  28.301   2.391  13.589
15020W        W86746  28.090  10.690   0.780
15021W        W86747  38.256  19.709   0.271
15022W        W86748   5.776  16.871   0.501
15023W        W86749  27.126  21.741   0.277
15024W        W86750  19.278  13.274  12.455
15025W        W86751  36.285  41.551   4.063
15026W        W86752   3.176  27.523  14.320
15027W        W86753  38.710  38.831  11.776
15028W        W86754  44.789   0.924  10.728
15029W        W86755  11.023  27.503   2.730
15030W        W86756  23.229  34.566  11.668
15031W        W86757  17.785  44.259   3.735
15032W        W86758  31.583  32.070   0.773
15033W        W86759  31.463  44.590  11.484
15034W        W86760   2.811  11.455  13.415
15035W        W86761  31.878  42.066   1.878
15036W        W86762  23.968  34.570  14.927
15037W        W86763  17.284  24.620   0.224
15038W        W86764  37.385  12.911   0.954
15039W        W86765  14.096  29.670  11.157
15040W        W86766  14.903  19.254   2.882
15041W        W86767   8.259  11.817  13.097
15042W        W86768  32.616  38.620  14.371
15043W        W86769  42.022   6.105   1.212
15044W        W86770  38.117   8.550  13.464
15045W        W86771  29.177  10.208  11.130
15046W        W86772  38.838  25.174  11.117
15047W        W86773  39.829  17.682   2.877
15048W        W86774  40.256  35.070   1.381
15049W        W86775  31.742  18.662   1.227
15050W        W86776  33.127  22.097  12.975
15051W        W86777   2.998  40.252   2.599
15052W        W86778  28.515  22.462  11.141
15053W        W86779   9.555  42.512  10.649
15054W        W86780  34.748  25.955   3.151
15055W        W86781  31.101   8.600  14.767
15056W        W86782  29.389   1.229  12.408
15057W        W86783  10.262  43.755   0.836
15058W        W86784  27.992  15.381   0.478
15059W        W86785   1.451   6.675  14.916
15060W        W86786  44.356  41.251  11.378
15061W        W86787  30.452  23.074   4.055
15062W        W86788   2.899   0.677   4.352
15063W        W86789  44.051   1.950  13.884
15064W        W86790  16.741  34.542  14.809
15065W        W86791  18.144  21.337  14.790
15066W        W86792  30.588   8.209   1.975
15067W        W86793  44.024   0.623   4.165
15068W        W86794  28.493   1.846   2.623
15069W        W86795   9.757   6.373  14.001
15070W        W86796  23.112  43.073  14.392
15071W        W86797   4.363  18.797   0.316
15072W        W86798  21.517  38.548  10.630
15073W        W86799  26.952  36.805   1.341
15074W        W86800  18.152  11.633   4.187
15075W        W86801  10.441   7.415   3.769
15076W        W86802  28.055  32.415   2.769
15077W        W86803   2.307   2.179  12.904
15078W        W86804  17.721  28.492   1.112
15079W        W86805   3.213  44.960   0.893
15080W        W86806  21.119  15.971   5.141
15081W        W86807   4.765  28.296  12.031
15082W        W86808   7.218  31.137  12.336
15083W        W86809  41.139  29.960  10.697
15084W        W86810   7.246  44.762  12.100
15085W        W86811  44.256  41.858  10.559
15086W        W86812   1.403  43.853  14.614
15087W        W86813   4.310  25.933  11.857
15088W        W86814  13.357   9.103   1.862
15089W        W86815  40.767  31.391  12.064
15090W        W86816  15.854   6.274   0.107
15091W        W86817  42.863  27.516  13.421
15092W        W86818   6.927  15.395  12.986
15093W        W86819  37.838   9.871  12.943
15094W        W86820  29.609  15.750  14.390
15095W        W86821  40.534  44.838   4.534
15096W        W86822  11.761  19.261  14.147
15097W        W86823  32.353   0.917   1.690
15098W        W86824  37.441  35.027  10.669
15099W        W86825  11.719  26.921  11.117
15100W        W86826  25.214  39.880   1.950
15101W        W86827  13.562  26.492  13.212
15102W        W86828  14.805   0.594  11.137
15103W        W86829   9.791  19.267  11.168
15104W        W86830  38.110  35.859  10.631
15105W        W86831  34.429  24.679  10.447
15106W        W86832  20.021  35.179   1.440
15107W        W86833  44.850  31.659   1.603
15108W        W86834  20.309  24.165   1.261
15109W        W86835  11.236   0.329   4.152
15110W        W86836  24.975  40.016  11.135
15111W        W86837   2.417   4.801   1.480
15112W        W86838  29.413  38.559   2.624
15113W        W86839  39.990  42.758   0.306
15114W        W86840   3.362  13.303  14.986
15115W        W86841  41.300   7.733  12.962
15116W        W86842   5.404  37.144  11.619
15117W        W86843   1.766  35.210  11.053
15118W        W86844   2.300  16.082  10.811
15119W        W86845  16.261  16.484  11.035
15120W        W86846   5.204  24.059   4.499
15121W        W86847  32.034  29.763   1.818
15122W        W86848  19.713  41.046   0.945
15123W        W86849   7.836  29.649  11.084
15124W        W86850  30.256  44.544  11.920
15125W        W86851  24.661  17.726  14.857
15126W        W86852  13.021  33.935   2.376
15127W        W86853  29.348  11.871  10.675
15128W        W86854   2.935   3.706  12.059
15129W        W86855  15.797   4.408   1.825
15130W        W86856  17.362   3.848  10.905
15131W        W86857  25.915  32.436  12.911
15132W        W86858  27.453  20.809   0.110
15133W        W86859  30.119  35.976   3.195
15134W        W86860  18.300   8.873  11.600
15135W        W86861  27.653  10.959   4.975
15136W        W86862  22.081  41.522  11.115
15137W        W86863   4.256  38.972   3.639
15138W        W86864  20.388  11.829   0.357
15139W        W86865  43.403   8.905  11.438
15140W        W86866   9.981  10.230   4.998
15141W        W86867  29.161   0.246  14.479
15142W        W86868  40.949  39.658  13.057
15143W        W86869  29.843  17.514   1.846
15144W        W86870  30.439  18.629   0.695
15145W        W86871  43.885  16.072  12.422
15146W        W86872  38.923  22.274   0.759
15147W        W86873   5.116  44.045   3.096
15148W        W86874  27.057   4.428  11.025
15149W        W86875  30.888  28.548  13.847
15150W        W86876  19.439  16.740  11.890
15151W        W86877  21.257  28.916   3.931
15152W        W86878  39.464  40.083  12.666
15153W        W86879  31.047  43.358   2.426
15154W        W86880  11.964   0.180  11.168
15155W        W86881   3.830  19.945  11.634
15156W        W86882  27.654  21.459   1.424
15157W        W86883  19.269  27.579  11.773
15158W        W86884  27.123  19.826  14.428
15159W        W86885  27.600   6.158   0.307
15160W        W86886  16.748  42.494   1.165
15161W        W86887   6.898  43.934  14.220
15162W        W86888   0.225  40.834   3.693
15163W        W86889  44.840  36.803  14.347
15164W        W86890  26.155  23.409   1.754
15165W        W86891  11.465  26.626   3.673
15166W        W86892  42.952   4.955   5.165
15167W        W86893  22.995   6.135  11.095
15168W        W86894  10.145   8.610   4.516
15169W        W86895  41.681  43.896   4.452
15170W        W86896   2.849  15.125  12.557
15171W        W86897  39.997  27.224  10.722
15172W        W86898  34.022  16.664  13.724
15173W        W86899  25.620  33.139  14.889
15174W        W86900  15.794  22.622   1.388
15175W        W86901   2.296  20.854  13.027
15176W        W86902  39.046  12.048  10.968
15177W        W86903  19.303  16.238  12.900
15178W        W86904   5.738  14.640   2.680
15179W        W86905  26.198  24.507   4.680
15180W        W86906   2.311  17.649  12.982
15181W        W86907  39.897   3.424   0.481
15182W        W86908   8.941  42.397  14.809
15183W        W86909  24.678   0.047   4.627
15184W        W86910   2.328   1.094  12.580
15185W        W86911  18.760  27.370   3.145
15186W        W86912  17.673  43.994   4.628
15187W        W86913   6.171   1.999  10.540
15188W        W86914  12.827  37.564   1.000
15189W        W86915  36.755  41.355   4.163
15190W        W86916  22.989  28.124  10.519
15191W        W86917  14.714  22.593   3.224
15192W        W86918  11.323  44.377   1.938
15193W        W86919   0.261   6.005  13.533
15194W        W86920  44.818  19.793   2.037
15195W        W86921   1.786  10.455  11.600
15196W        W86922  36.072  10.261   3.298
15197W        W86923  27.723  34.741   4.064
15198W        W86924  11.489  36.649  14.845
15199W        W86925  32.164   8.774  11.228
15200W        W86926  40.383  24.097  12.555
15201W        W86927   2.639  30.138  12.555
15202W        W86928  39.193  31.001   9.853
15203W        W86929  38.196  13.955  13.515
15204W        W86930  44.439  16.998   4.155
15205W        W86931  31.061  14.720   4.186
15206W        W86932  17.086  24.959   1.782
15207W        W86933   3.431  44.169   0.552
15208W        W86934   5.097   4.482   2.654
15209W        W86935  17.105   2.853   3.549
15210W        W86936  21.963  28.123   3.152
15211W        W86937  14.807  26.634   2.986
15212W        W86938  28.030  14.205  14.679
15213W        W86939  39.529  12.065   2.713
15214W        W86940   0.557  24.648  14.893
15215W        W86941  14.049  15.192  10.487
15216W        W86942  40.351  44.499   2.763
15217W        W86943  22.817   7.032  14.442
15218W        W86944  39.608  12.752   2.802
15219W        W86945  27.530  11.569   0.285
15220W        W86946  28.737  10.214   0.398
15221W        W86947  37.965  23.087   0.196
15222W        W86948  41.537  44.111  10.436
15223W        W86949  34.557  12.530  11.596
15224W        W86950  14.305   7.545   1.413
15225W        W86951  16.220  38.146   3.730
15226W        W86952   0.581  35.057   2.688
15227W        W86953  21.721  37.302  10.059
15228W        W86954   6.138  26.011   2.382
15229W        W86955  28.435  22.325   0.477
15230W        W86956  43.024   1.317  12.764
15231W        W86957   3.627  13.692   0.870
15232W        W86958  15.158  30.145   3.094
15233W        W86959   5.456   2.345  11.035
15234W        W86960  32.458   1.638   2.884
15235W        W86961  32.936   7.330  10.984
15236W        W86962   8.681  17.676   3.378
15237W        W86963   6.684  20.583   2.184
15238W        W86964  24.446  16.283  13.024
15239W        W86965  10.167  10.519   4.580
15240W        W86966   3.848  36.144   3.251
15241W        W86967  28.762  16.025  11.041
15242W        W86968  18.495  17.748  13.476
15243W        W86969  31.820  11.205   3.663
15244W        W86970  29.714  21.715  13.998
15245W        W86971  34.411  20.241  14.785
15246W        W86972  12.207  12.575  13.517
15247W        W86973   9.304  20.324  10.668
15248W        W86974  12.158  16.130   1.411
15249W        W86975  26.536  38.827   4.619
15250W        W86976  12.107  38.806   3.735
15251W        W86977   7.102  18.303   4.489
15252W        W86978  37.571  38.159  10.639
15253W        W86979  44.296  18.973   1.422
15254W        W86980  33.501  27.684  10.232
15255W        W86981  13.555  11.911  14.951
15256W        W86982   5.851  35.019   1.207
15257W        W86983  13.052  37.261  10.737
15258W        W86984  37.523  40.415   0.666
15259W        W86985  30.474   0.269  11.394
15260W        W86986  35.538  21.032  10.722
15261W        W86987  30.119  26.896   4.154
15262W        W86988   0.870  18.888  14.187
15263W        W86989  33.369   0.393   2.726
15264W        W86990  38.447   4.012   0.597
15265W        W86991  37.642   0.772  14.856
15266W        W86992   0.455  40.869   4.166
15267W        W86993  44.308  39.110  10.684
15268W        W86994  29.548   5.010   3.385
15269W        W86995  24.148  42.264   1.269
15270W        W86996  24.504  30.140  13.288
15271W        W86997  37.081  43.676   4.542
15272W        W86998  11.890  28.226   0.859
15273W        W86999  44.869   1.379  12.542
15274W        W87000  15.306  39.523  14.850
15275W        W87001   8.593  17.126   5.031
15276W        W87002  11.886  42.458  11.532
15277W        W87003  43.996  23.229   2.283
15278W        W87004  33.487  10.292   1.934
15279W        W87005   6.349  12.756   0.278
15280W        W87006  10.887  34.822  11.521
15281W        W87007  27.156  41.893  14.948
15282W        W87008  43.947  35.130  14.414
15283W        W87009   2.112  34.450  13.077
15284W        W87010  42.477   7.249   0.986
15285W        W87011  18.182   5.333   2.810
15286W        W87012   4.872  15.394   4.516
15287W        W87013  13.146  31.394   4.612
15288W        W87014  41.950  27.462   3.729
15289W        W87015  21.692  32.031   1.080
15290W        W87016   1.225  44.421  12.577
15291W        W87017  11.346   5.850   1.858
15292W        W87018   4.946  21.208  11.452
15293W        W87019   9.175  33.086   1.492
15294W        W87020  41.018  40.316  12.484
15295W        W87021   1.006   6.948  14.960
15296W        W87022  40.387   2.170  12.393
15297W        W87023   4.327  10.660   0.505
15298W        W87024  42.529  15.099  13.834
15299W        W87025  19.498  27.038  11.521
15300W        W87026  18.832  43.086   0.430
15301W        W87027  39.311   6.337   3.791
15302W        W87028  31.667   5.840  14.255
15303W        W87029  10.642  34.590   4.813
15304W        W87030  44.457  15.062   1.857
15305W        W87031  44.230  25.123  14.781
15306W        W87032  34.084   9.720  12.798
15307W        W87033  32.522  20.395   3.290
15308W        W87034  22.172   4.477   3.245
15309W        W87035  38.387   8.512   4.763
15310W        W87036  20.495  26.574   0.433
15311W        W87037  15.831  37.164  13.057
15312W        W87038  43.006  21.691   2.306
15313W        W87039   7.820   3.806   1.416
15314W        W87040  30.474  17.808   4.206
15315W        W87041  31.854  20.353  11.591
15316W        W87042  30.002  13.592  13.412
15317W        W87043  27.409   3.247  14.307
15318W        W87044  44.246  35.041   1.476
15319W        W87045   8.711   7.657   1.922
15320W        W87046  26.233  21.014   3.558
15321W        W87047  31.422  15.109  11.061
15322W        W87048  36.766  37.429  14.347
15323W        W87049  24.027  20.032  11.939
15324W        W87050   8.933  34.285   1.125
15325W        W87051  25.493  36.117   3.080
15326W        W87052  14.179  15.119  11.413
15327W        W87053  26.463  26.174   3.613
15328W        W87054  19.423   9.113  14.563
15329W        W87055  41.504  25.504   4.845
15330W        W87056  19.243  39.667   3.504
15331W        W87057   1.977   0.958   0.867
15332W        W87058  29.351  40.429   1.259
15333W        W87059  43.309  32.208  10.977
15334W        W87060  15.373  11.372  13.291
15335W        W87061   0.107  19.576   2.805
15336W        W87062  29.919   7.217  13.752
15337W        W87063  29.191  14.603  11.112
15338W        W87064  31.199   7.581  11.071
15339W        W87065  20.265  13.858   1.197
15340W        W87066  23.556  15.332  14.368
15341W        W87067  31.426  41.677  14.458
15342W        W87068  43.816   5.856   3.092
15343W        W87069  44.502   4.633   0.180
15344W        W87070  32.686  13.896   0.323
15345W        W87071  13.803   9.369   1.226
15346W        W87072  31.117  33.951   1.786
15347W        W87073  31.481  11.457   4.629
15348W        W87074   4.442  44.701   3.805
15349W        W87075   7.706  20.947  12.579
15350W        W87076  42.944  38.310   1.932
15351W        W87077   0.915  23.606   0.550
15352W        W87078  43.703  31.483  11.130
15353W        W87079  31.002   3.755   0.160
15354W        W87080  21.494   9.702  11.162
15355W        W87081  35.396  32.354   2.651
15356W        W87082   0.530  22.021  12.212
15357W        W87083  40.397  36.941   4.677
15358W        W87084   3.365   6.835  14.470
15359W        W87085   0.025  41.994   1.458
15360W        W87086  19.815  29.709   0.048
15361W        W87087  42.034  42.564  12.352
15362W        W87088  32.977   6.705   2.383
15363W        W87089   5.923  15.298   3.295
15364W        W87090   7.399   2.856   1.409
15365W        W87091  21.810   8.957  13.047
15366W        W87092  18.158  12.187   2.145
15367W        W87093  43.975   5.956   2.146
15368W        W87094  17.715  24.054   0.878
15369W        W87095  10.622  30.194   4.584
15370W        W87096   2.483  14.111   4.577
15371W        W87097  43.576  10.119   4.213
15372W        W87098  16.734  32.376   1.192
15373W        W87099  28.346   2.788  12.424
15374W        W87100  42.813  36.008   1.690
15375W        W87101  24.617  39.693   1.945
15376W        W87102  27.659   8.615  12.753
15377W        W87103  25.425  17.973  12.099
15378W        W87104  26.492   2.428  12.466
15379W        W87105  34.747  13.219  14.772
15380W        W87106   6.465  10.434   2.890
15381W        W87107  26.990  38.843  13.968
15382W        W87108  35.080  35.454   2.319
15383W        W87109   7.019  41.846  12.569
15384W        W87110  32.176   3.309   0.022
15385W        W87111   1.186  21.333  11.715
15386W        W87112  36.494  23.080   4.250
15387W        W87113  40.034  30.205  11.172
15388W        W87114  23.933   7.533  12.478
15389W        W87115  18.129  27.067   2.971
15390W        W87116  30.023  37.543   3.726
15391W        W87117  31.945  24.936  12.854
15392W        W87118  16.787  24.144  12.900
15393W        W87119  24.824   8.263  12.614
15394W        W87120  39.542  11.054  14.728
15395W        W87121  21.427  13.592  13.031
15396W        W87122  40.163  16.016   3.185
15397W        W87123   8.400  17.733  10.940
15398W        W87124  29.387  25.187   1.252
15399W        W87125  27.725  29.055  14.380
15400W        W87126  15.831   7.827  14.783
15401W        W87127   7.688  23.466   1.291
15402W        W87128  18.236  41.747  13.919
15403W        W87129  33.335  41.221  14.356
15404W        W87130  28.405  41.377   2.663
15405W        W87131   9.181  12.887   4.272
15406W        W87132  16.123  35.086   4.563
15407W        W87133  25.514  14.386  14.451
15408W        W87134  35.033  43.420  11.654
15409W        W87135  43.449  16.280  14.071
15410W        W87136   4.464  13.662   1.877
15411W        W87137  25.533  26.200  11.799
15412W        W87138  21.402   2.722  12.581
15413W        W87139  15.894  35.520   4.733
15414W        W87140  20.116  40.152   3.775
15415W        W87141  31.071  33.765  10.246
15416W        W87142  44.815  34.318  10.737
15417W        W87143  32.974  31.111  13.010
15418W        W87144  36.617   0.260  12.552
15419W        W87145  41.438  19.682   0.362
15420W        W87146   9.048   3.831   0.209
15421W        W87147  26.678  18.085  14.462
15422W        W87148  27.244  14.259   1.357
15423W        W87149  33.292  17.676  13.000
15424W        W87150  12.890   4.358  14.117
15425W        W87151  21.782  22.284   4.551
15426W        W87152   5.892  19.522  14.369
15427W        W87153  41.306  40.768  12.537
15428W        W87154   9.308  32.484   3.827
15429W        W87155  39.884  12.770  12.862
15430W        W87156  11.643  30.724  12.572
15431W        W87157  10.260   8.373  14.878
15432W        W87158  21.741  13.528   4.161
15433W        W87159  28.091  42.256   1.797
15434W        W87160  22.747  33.086  12.661
15435W        W87161  11.103  17.348  14.125
15436W        W87162   9.953  26.076  11.878
15437W        W87163  20.532  12.130  14.891
15438W        W87164  23.000  39.356  11.480
15439W        W87165  36.388  38.740   2.242
15440W        W87166  24.173  35.498  11.962
15441W        W87167  15.083  34.005  12.292
15442W        W87168   7.196  35.015  13.904
15443W        W87169   6.320  13.691   0.662
15444W        W87170   7.167  41.505  10.930
15445W        W87171  18.587  23.251  10.615
15446W        W87172   6.756  34.437   3.403
15447W        W87173   3.716  20.954  14.576
15448W        W87174   2.967  16.794  11.587
15449W        W87175   7.466  19.330  12.563
15450W        W87176  11.071  27.300   4.120
15451W        W87177  40.452  31.885   3.699
15452W        W87178  11.805  17.370  13.993
15453W        W87179  33.643  28.135   3.033
15454W        W87180  33.867  28.902  12.489
15455W        W87181  11.175   4.251  14.332
15456W        W87182  36.845  24.607  11.911
15457W        W87183  40.751  24.993   2.719
15458W        W87184  42.340  42.633  10.638
15459W        W87185  33.986  21.981  10.550
15460W        W87186  28.605  41.774   2.939
15461W        W87187  10.401  42.755   9.796
15462W        W87188   9.347  33.108   5.416
15463W        W87189  35.672  34.615  11.933
15464W        W87190   9.879   4.950   1.738
15465W        W87191  23.829  31.794  11.941
15466W        W87192  10.650  26.686  12.398
15467W        W87193  39.305  15.223   0.424
15468W        W87194  23.570  10.701  14.939
15469W        W87195  25.521  18.482  12.151
15470W        W87196  19.841  27.997   1.896
15471W        W87197  16.318   0.831   0.940
15472W        W87198  34.857  18.103  14.863
15473W        W87199  18.087   6.015   1.740
15474W        W87200  26.233  11.874  11.333
15475W        W87201  16.149   2.524   3.793
15476W        W87202  34.009  38.867   3.632
15477W        W87203  39.320  24.165   4.575
15478W        W87204  29.649  32.548   2.318
15479W        W87205  17.668  22.634   1.816
15480W        W87206   1.897   5.759  13.571
15481W        W87207   5.741  35.474   2.188
15482W        W87208  17.161  31.634   4.638
15483W        W87209  37.136   7.896  13.927
15484W        W87210  42.002   0.871   1.464
15485W        W87211   7.308  17.138  10.327
15486W        W87212  20.154   0.844  11.830
15487W        W87213  21.069  19.763  14.824
15488W        W87214   5.456  29.497  11.576
15489W        W87215  29.114  31.858  11.080
15490W        W87216  12.334  19.209  14.989
15491W        W87217   0.836  18.335  12.223
15492W        W87218  18.566   4.895  14.548
15493W        W87219   5.519  19.682   4.553
15494W        W87220   5.813  11.207   2.699
15495W        W87221  15.557  42.960   1.143
15496W        W87222  30.887  11.747  13.303
15497W        W87223  26.225  32.069   0.865
15498W        W87224  21.781  23.613  10.425
15499W        W87225  34.914  31.006  12.942
15500W        W87226  17.644  12.882   4.660
15501W        W87227  11.484  25.496   2.894
15502W        W87228  23.457  23.632  10.714
15503W        W87229   4.987   9.096  11.868
15504W        W87230  33.798  34.215  12.181
15505W        W87231  41.515  24.069   0.787
15506W        W87232  28.841   8.933   2.242
15507W        W87233  17.076  17.606   0.590
15508W        W87234  21.756  16.084  11.440
15509W        W87235  24.526  27.333  14.279
15510W        W87236  20.358  37.341   1.684
15511W        W87237  37.638  21.185   2.271
15512W        W87238  26.241  42.839  11.587
15513W        W87239  39.244   8.984   2.939
15514W        W87240  15.177   5.503  13.626
15515W        W87241  41.764  21.599  11.019
15516W        W87242  29.637  39.776  14.139
15517W        W87243  32.432  39.674  14.275
15518W        W87244  41.491  31.165   4.759
15519W        W87245   9.255  23.039  14.846
15520W        W87246  34.586  19.540   1.837
15521W        W87247  41.955  30.084   3.760
15522W        W87248   6.598  35.887  10.684
15523W        W87249   2.318  37.295  13.504
15524W        W87250  24.515   7.140   2.219
15525W        W87251  26.517  33.681   1.415
15526W        W87252  42.375  41.798   3.549
15527W        W87253  12.122  30.707   2.700
15528W        W87254  16.013  40.752   9.875
15529W        W87255  24.333   7.774  14.368
15530W        W87256  28.053  29.598   4.024
15531W        W87257  23.383  14.588  14.628
15532W        W87258   5.524  40.297   0.829
15533W        W87259  25.011  38.585  13.524
15534W        W87260  28.687  29.660  11.972
15535W        W87261  28.722  19.862   4.147
15536W        W87262   9.920  11.228  10.980
15537W        W87263  43.999   3.786   1.951
15538W        W87264  13.984  29.497  12.521
15539W        W87265  14.472  13.185   1.399
15540W        W87266  39.123  31.075  10.558
15541W        W87267  11.150  28.088  13.587
15542W        W87268   1.437  12.052   2.263
15543W        W87269  39.676  20.816  11.104
15544W        W87270  18.788  34.950   0.100
15545W        W87271  27.081  25.096   1.549
15546W        W87272  44.310   8.952   0.360
15547W        W87273   5.601  36.852  13.524
15548W        W87274  27.995  16.155  14.868
15549W        W87275   0.108  10.582  12.066
15550W        W87276   1.500  20.251   0.720
15551W        W87277  31.017  39.998   4.601
15552W        W87278  37.266  37.271  14.307
15553W        W87279   9.713  41.210  14.309
15554W        W87280   6.400  42.356  12.165
15555W        W87281  10.659  13.689  13.410
15556W        W87282  34.954  22.681   4.559
15557W        W87283   3.209  18.305  10.603
15558W        W87284  24.568   9.631   0.762
15559W        W87285  30.994  14.134   1.834
15560W        W87286  10.085  38.085   2.303
15561W        W87287  44.894   9.874  12.564
15562W        W87288  42.479  24.256   4.314
15563W        W87289  20.568   7.981   3.146
15564W        W87290  21.579  25.367  11.042
15565W        W87291  38.871  34.940   0.049
15566W        W87292  42.326   6.802   1.975
15567W        W87293  32.149   3.768  13.567
15568W        W87294   6.373  15.670  14.485
15569W        W87295  17.461  23.021   0.795
15570W        W87296   4.613  22.608   3.214
15571W        W87297  27.450  38.434  14.362
15572W        W87298  20.687   2.420   0.256
15573W        W87299  36.570  23.986   4.066
15574W        W87300   3.692  23.697  11.202
15575W        W87301  28.987  14.479  14.008
15576W        W87302  17.594  11.642   1.876
15577W        W87303  19.699   7.909   2.351
15578W        W87304   1.182  21.178  12.947
15579W        W87305  10.020  21.612   0.275
15580W        W87306  33.796  38.327  11.167
15581W        W87307  10.676   1.855   4.561
15582W        W87308  38.035   0.994  10.633
15583W        W87309  12.902  35.753   3.091
15584W        W87310  44.959   4.830  14.862
15585W        W87311  19.618  42.883  12.047
15586W        W87312  14.359  11.235  13.490
15587W        W87313  37.334  16.143  12.021
15588W        W87314   8.248   4.208   1.776
15589W        W87315  36.781  10.322   0.638
15590W        W87316  31.092  30.302  10.124
15591W        W87317  10.314   3.702  14.515
15592W        W87318  33.595  34.562  11.870
15593W        W87319   8.099  11.840  14.276
15594W        W87320  39.272  26.066   3.646
15595W        W87321  19.210  38.984  11.971
15596W        W87322   6.873  38.183  11.003
15597W        W87323   9.657   3.274  12.451
15598W        W87324  30.556  22.255  14.840
15599W        W87325  21.126  27.498   1.844
15600W        W87326  37.709  34.074  10.946
15601W        W87327  26.770  27.586   2.588
15602W        W87328   0.119  41.785  13.254
15603W        W87329  17.910  42.623  12.593
15604W        W87330  12.376  28.994  12.175
15605W        W87331  25.489   2.792   4.790
15606W        W87332  20.992  23.506   3.573
15607W        W87333   8.642  22.700   3.931
15608W        W87334  37.295   4.374  11.088
15609W        W87335   5.184  43.287   4.610
15610W        W87336  21.400   1.104   2.195
15611W        W87337  32.186  22.499  11.232
15612W        W87338  34.456  17.612   1.817
15613W        W87339   0.299  14.045  14.026
15614W        W87340   1.185  22.095   3.294
15615W        W87341  43.008  22.138   0.410
15616W        W87342  31.350  14.069  12.060
15617W        W87343  24.264  23.933  12.911
15618W        W87344  14.202  23.986   2.461
15619W        W87345  18.010  39.832  13.783
15620W        W87346  37.280  39.943  11.936
15621W        W87347  34.149  29.513  13.792
15622W        W87348  26.631  16.318   0.851
15623W        W87349  37.096  44.774   1.769
15624W        W87350  39.858   9.774  11.541
15625W        W87351  21.152  42.897  12.566
15626W        W87352  13.708  36.806   2.744
15627W        W87353  40.657  35.539   2.640
15628W        W87354  17.608  40.763  11.523
15629W        W87355   9.635  42.424   1.087
15630W        W87356  27.490   3.965  13.510
15631W        W87357  39.064  18.790  11.504
15632W        W87358  27.849  33.501  11.031
15633W        W87359  27.600   1.297   1.463
15634W        W87360  41.176  17.811   4.188
15635W        W87361   6.500  27.810  13.418
15636W        W87362   9.776  42.182  14.049
15637W        W87363  44.682  39.526  14.947
15638W        W87364  15.582  22.127  12.088
15639W        W87365  35.043  29.635  10.502
15640W        W87366  26.104  30.662  14.299
15641W        W87367  37.794  11.671   2.302
15642W        W87368   3.431  43.843   3.786
15643W        W87369   3.804  14.189  14.010
15644W        W87370  20.081  11.883  14.959
15645W        W87371  39.538  17.054   3.703
15646W        W87372   4.335   0.924   0.619
15647W        W87373  41.104  13.456  13.014
15648W        W87374  21.775  40.401   0.344
15649W        W87375   2.229  15.931  14.557
15650W        W87376  24.013  39.953   0.056
15651W        W87377   3.449   0.457   3.171
15652W        W87378  28.425  28.896  10.607
15653W        W87379  13.699  26.720  13.942
15654W        W87380  44.289  12.552   1.000
15655W        W87381  12.174   9.708  13.012
15656W        W87382   8.231  25.181   4.603
15657W        W87383  29.627  44.335   0.376
15658W        W87384  36.482  21.676   0.232
15659W        W87385  42.387  38.808   1.409
15660W        W87386   4.752  26.101   0.368
15661W        W87387  40.301  15.650   9.888
15662W        W87388  35.759  17.629  11.559
15663W        W87389   5.191  42.271   4.654
15664W        W87390  37.788   1.855  14.232
15665W        W87391  17.388  34.134   0.454
15666W        W87392  14.448  29.135   4.784
15667W        W87393  13.340   9.885   4.137
15668W        W87394  39.799  40.754  14.784
15669W        W87395   4.228   6.919   0.281
15670W        W87396  21.757  22.510   0.896
15671W        W87397  37.123  36.369  13.430
15672W        W87398  19.246  13.613  11.595
15673W        W87399  26.134  44.536   3.546
15674W        W87400  39.530  34.419   1.442
15675W        W87401  30.533   8.201   2.754
15676W        W87402  17.265  25.449   4.158
15677W        W87403  35.067   4.509  14.245
15678W        W87404  38.957   7.360  10.682
15679W        W87405  24.251  11.815  11.076
15680W        W87406  13.408  11.445   1.225
15681W        W87407  26.675  34.147  13.910
15682W        W87408   3.717  31.842  13.313
15683W        W87409  28.256  18.221  12.171
15684W        W87410   5.192  33.696   2.837
15685W        W87411   8.588   6.378  14.649
15686W        W87412  36.860  15.878   2.135
15687W        W87413  35.386  11.990   2.994
15688W        W87414  26.025  21.851  14.405
15689W        W87415  27.729   6.760  13.756
15690W        W87416  39.986  28.579   3.305
15691W        W87417  21.602  11.852  12.887
15692W        W87418  39.102  21.738  14.359
15693W        W87419  35.124  34.701  13.900
15694W        W87420  22.654   6.562  11.268
15695W        W87421   4.632  20.170   2.788
15696W        W87422  29.657  25.747  12.021
15697W        W87423  42.485   8.886   0.323
15698W        W87424  28.624  40.982   4.639
15699W        W87425  41.824  30.617  11.879
15700W        W87426   7.849  34.258   2.686
15701W        W87427  27.667   2.439  12.109
15702W        W87428  13.899  23.949   5.232
15703W        W87429   9.770  40.954   4.855
15704W        W87430  42.070  19.422   2.179
15705W        W87431  43.202  18.826   0.258
15706W        W87432  19.771   1.804  11.715
15707W        W87433  31.520   0.211   1.440
15708W        W87434  29.398  18.318  11.959
15709W        W87435  31.982  23.691  11.492
15710W        W87436  29.009   5.175   3.273
15711W        W87437  22.841  41.877  12.008
15712W        W87438  12.121   2.427   3.842
15713W        W87439   9.288  18.686  11.562
15714W        W87440   2.201  42.077   1.674
15715W        W87441  36.149  20.008   0.334
15716W        W87442  33.825   6.773  13.884
15717W        W87443   9.922   6.358  13.059
15718W        W87444  40.330   8.338   2.939
15719W        W87445   6.318  13.554   3.197
15720W        W87446  36.189  37.670   1.233
15721W        W87447  14.773  27.533   0.833
15722W        W87448  35.587  34.358  11.487
15723W        W87449  32.724  39.713  13.847
15724W        W87450  39.368  18.737  11.951
15725W        W87451   0.669  16.964  14.459
15726W        W87452  17.356  28.104   3.693
15727W        W87453  34.606   3.430   4.616
15728W        W87454  20.270  43.567  14.830
15729W        W87455  24.630   6.852   4.664
15730W        W87456   1.764  26.672  14.217
15731W        W87457  13.707  42.879   5.258
15732W        W87458  32.009  33.679  11.813
15733W        W87459   1.851   8.473  11.068
15734W        W87460  26.751  27.927   3.629
15735W        W87461   7.500   6.680   4.638
15736W        W87462  29.378   0.219  12.581
15737W        W87463  13.687  21.149  14.352
15738W        W87464  23.539  44.228   0.783
15739W        W87465  36.546   9.610   0.025
15740W        W87466  13.199  39.021   2.774
15741W        W87467  15.445  23.925   1.245
15742W        W87468  28.863  27.527  13.014
15743W        W87469  18.372   9.204   3.353
15744W        W87470  11.582  40.779  14.551
15745W        W87471  43.078  12.361   0.219
15746W        W87472  42.917  11.241   4.239
15747W        W87473  12.727  24.024   2.873
15748W        W87474   3.418  32.665  11.963
15749W        W87475  14.096  24.710   2.186
15750W        W87476   9.176  44.471  14.452
15751W        W87477  15.541  41.670  11.979
15752W        W87478  38.348   8.994  11.051
15753W        W87479  43.950  19.365   2.415
15754W        W87480  12.434   3.668   1.738
15755W        W87481  19.169  19.761  13.733
15756W        W87482  37.413  21.301   2.737
15757W        W87483  17.301  41.510  10.672
15758W        W87484   3.740   3.276   1.602
15759W        W87485  36.883  44.727   4.644
15760W        W87486  34.648  24.126  13.303
15761W        W87487  17.317  10.365   0.214
15762W        W87488  12.704   6.612  13.940
15763W        W87489  15.134  40.372   3.331
15764W        W87490  32.136  42.207  11.896
15765W        W87491  44.184   0.862  11.524
15766W        W87492  24.805  15.158  14.373
15767W        W87493  15.591  41.458  14.796
15768W        W87494  11.264  14.247   3.152
15769W        W87495  21.751   1.982  13.419
15770W        W87496  41.243  28.329  14.395
15771W        W87497  25.489  22.608   1.938
15772W        W87498  31.558  33.858  10.998
15773W        W87499  26.408  12.309   2.807
15774W        W87500  20.740  24.479   1.181
15775W        W87501  21.542  17.364  12.391
15776W        W87502  29.087  28.200  12.431
15777W        W87503  23.159   0.186  11.493
15778W        W87504  10.050   7.073  11.945
15779W        W87505  38.362  37.107  14.950
15780W        W87506  18.510   8.794  12.075
15781W        W87507  14.185  25.977   0.351
15782W        W87508  21.091  23.973  14.895
15783W        W87509  28.513  25.585  12.054
15784W        W87510  13.265  36.347   0.658
15785W        W87511  25.965  24.961  12.019
15786W        W87512   4.426   3.306   5.392
15787W        W87513  20.067  19.556  13.025
15788W        W87514  33.073  22.743  10.943
15789W        W87515   1.172   7.206  10.834
15790W        W87516  10.193  32.407  12.400
15791W        W87517  41.369  18.712   0.677
15792W        W87518  32.820  30.013  14.415
15793W        W87519  33.651   1.757  11.466
15794W        W87520  11.424  12.809   0.797
15795W        W87521  21.157  23.595   0.238
15796W        W87522  20.454  23.720  13.972
15797W        W87523  12.379  13.809   1.812
15798W        W87524  43.384  37.134  13.788
15799W        W87525  22.515  35.951   3.661
15800W        W87526  44.369  34.305   0.223
15801W        W87527  18.299   3.915   2.758
15802W        W87528   7.047   5.162  12.827
15803W        W87529  23.939  13.148   0.335
15804W        W87530  20.461  20.222   4.161
15805W        W87531   1.785   0.454  13.402
15806W        W87532  41.958  12.952  14.284
15807W        W87533  28.342  11.830  10.703
15808W        W87534  41.063  13.779   3.783
15809W        W87535  21.403  12.094  13.731
15810W        W87536   6.299  29.631  10.233
15811W        W87537  20.671   2.854  10.575
15812W        W87538   8.250  37.286   2.842
15813W        W87539  22.339  15.763  13.885
15814W        W87540  44.436   4.959  11.594
15815W        W87541   1.209  37.540   4.118
15816W        W87542  16.602  37.851  11.646
15817W        W87543   0.432   3.564  14.819
15818W        W87544  13.862  23.906   0.028
15819W        W87545  12.548  28.705  13.929
15820W        W87546  12.856  18.585  13.801
15821W        W87547   1.406  35.137   5.008
15822W        W87548  30.590  24.375   4.150
15823W        W87549   0.062  40.464   4.105
15824W        W87550  41.015  40.032   1.287
15825W        W87551  32.562  18.751   4.213
15826W        W87552  25.782   0.548  11.040
15827W        W87553  28.530  12.060  13.408
15828W        W87554   2.905  32.629   0.119
15829W        W87555  28.540  26.289  11.448
15830W        W87556   2.476  43.202   2.960
15831W        W87557  26.466   4.368   3.571
15832W        W87558  19.571  44.015   0.744
15833W        W87559  26.456  17.026  14.510
15834W        W87560  34.502   7.366  14.886
15835W        W87561  39.730   7.949  13.011
15836W        W87562  23.989   7.708   1.796
15837W        W87563  17.175  19.813  12.521
15838W        W87564   4.843   6.897  14.288
15839W        W87565  27.348   4.414   3.817
15840W        W87566  13.341  21.999  11.392
15841W        W87567   6.424  44.304  13.788
15842W        W87568  39.767  27.112  12.403
15843W        W87569  43.554  30.565  11.595
15844W        W87570   3.421   4.762   4.719
15845W        W87571  25.973  22.184  14.013
15846W        W87572  26.816  41.780  13.956
15847W        W87573  33.573  41.505   5.052
15848W        W87574  15.407  12.839  14.818
15849W        W87575  35.322  28.458   3.920
15850W        W87576  28.861  28.302  11.183
15851W        W87577  37.120  15.535  10.678
15852W        W87578  10.675  38.481   4.114
15853W        W87579  17.152   4.888  12.430
15854W        W87580   1.863  25.031   1.863
15855W        W87581  23.259  30.080  10.678
15856W        W87582  18.277  28.251  12.582
15857W        W87583  39.455  14.553   2.408
15858W        W87584  43.791  34.884   1.283
15859W        W87585  26.197  44.356  11.010
15860W        W87586  44.274  11.010  11.991
15861W        W87587  34.953  32.532  10.702
15862W        W87588  41.506  43.808  11.417
15863W        W87589  21.973  25.130   3.820
15864W        W87590   5.922   3.764  10.065
15865W        W87591  12.653  19.226  11.176
15866W        W87592  12.637   1.223   1.859
15867W        W87593  43.370   7.192   3.842
15868W        W87594   2.784  10.060  13.107
15869W        W87595  13.631  38.957   2.010
15870W        W87596  19.066  34.111   2.534
15871W        W87597  39.594  23.146   3.248
15872W        W87598  13.577  43.405  12.618
15873W        W87599  23.150  21.989  11.147
15874W        W87600  30.049   1.051  11.451
15875W        W87601   2.877   8.100  12.882
15876W        W87602  27.510  30.811   3.319
15877W        W87603  43.365  41.483  14.749
15878W        W87604  20.149  13.030  14.062
15879W        W87605   7.891  17.742  11.394
15880W        W87606  37.255  26.378  10.363
15881W        W87607   2.431  23.917   3.745
15882W        W87608  23.274  40.463   3.767
15883W        W87609   2.310  35.855   0.259
15884W        W87610   6.715  17.121  12.628
15885W        W87611  25.140  28.561  12.417
15886W        W87612  28.663  32.881   0.781
15887W        W87613  39.606  20.815  12.819
15888W        W87614  17.610  13.641   1.236
15889W        W87615  39.615  17.979   3.628
15890W        W87616  41.721   6.534   4.956
15891W        W87617  30.337  38.385   1.149
15892W        W87618  19.819   3.449   3.778
15893W        W87619  32.588   1.413  12.152
15894W        W87620  34.122  32.429   2.121
15895W        W87621   8.802  43.046  10.654
15896W        W87622  32.013  26.909  10.439
15897W        W87623   5.303  15.873  10.165
15898W        W87624  23.128  29.351   0.451
15899W        W87625  16.060   3.509  14.234
15900W        W87626  11.861  44.468   2.818
15901W        W87627  15.995  13.031   0.505
15902W        W87628  35.141  43.294  14.608
15903W        W87629   5.395  41.006  10.692
15904W        W87630  32.247  13.234   5.099
15905W        W87631  39.550   9.378   0.255
15906W        W87632  20.032  16.980  12.499
15907W        W87633  24.851   1.404  13.293
15908W        W87634  28.605  28.592   2.840
15909W        W87635   2.334  19.435  13.237
15910W        W87636  17.462  41.829   3.591
15911W        W87637  28.284  29.124   1.773
15912W        W87638  42.842  19.743   0.244
15913W        W87639  13.945  28.962   4.741
15914W        W87640  39.316   5.858   2.635
15915W        W87641   4.642  35.437   1.323
15916W        W87642   7.897   8.055   0.383
15917W        W87643  28.474  40.552   3.443
15918W        W87644  21.663  22.667   3.789
15919W        W87645  33.044  38.763   3.845
15920W        W87646  29.512  37.529   3.562
15921W        W87647  34.536  10.308  13.360
15922W        W87648  15.760  18.786  14.866
15923W        W87649  44.301  41.744   3.143
15924W        W87650   8.460  39.280   4.409
15925W        W87651  21.116   8.816  12.522
15926W        W87652  34.064  16.356   1.689
15927W        W87653   9.412  43.736   1.722
15928W        W87654  43.883  41.339   4.387
15929W        W87655  44.473  14.601   4.115
15930W        W87656  26.016   4.753   1.414
15931W        W87657  42.788  28.582   1.933
15932W        W87658   1.187  30.637  14.476
15933W        W87659   7.935  24.360   1.397
15934W        W87660  11.790  12.408   2.326
15935W        W87661   9.584  43.425  11.617
15936W        W87662  35.340  41.435   0.338
15937W        W87663  25.912  29.176  10.469
15938W        W87664  13.845  16.740   3.304
15939W        W87665  22.075  15.871  10.943
15940W        W87666  38.912  34.888   4.342
15941W        W87667  24.545  21.575   2.540
15942W        W87668   9.917  39.487  12.927
15943W        W87669  33.647  20.690  10.640
15944W        W87670  44.354   1.380  11.584
15945W        W87671   5.191  19.141  11.082
15946W        W87672  25.573   0.945  14.442
15947W        W87673   6.059  20.080  12.892
15948W        W87674   0.296  13.337  12.162
15949W        W87675  17.129  26.532   3.115
15950W        W87676   7.734  15.590  13.460
15951W        W87677  36.117  30.392   3.973
15952W        W87678  41.039  41.477  10.735
15953W        W87679  44.984  43.863   4.816
15954W        W87680  34.491  41.743  10.628
15955W        W87681  38.429  14.405  13.584
15956W        W87682   0.578   9.153  10.806
15957W        W87683  16.396  11.569   2.810
15958W        W87684  12.313  25.108   4.986
15959W        W87685  44.764   7.698   0.351
15960W        W87686  15.192  39.526  12.434
15961W        W87687  10.744   6.849  14.380
15962W        W87688  25.128  10.177   1.407
15963W        W87689  22.197  39.430   0.205
15964W        W87690  22.944  40.514  14.832
15965W        W87691  26.527  38.388   0.427
15966W        W87692  32.730  36.528  12.485
15967W        W87693  13.309  15.654  10.564
15968W        W87694  19.844  28.701  14.342
15969W        W87695   5.008  34.030   3.583
15970W        W87696  13.452  35.412  12.951
15971W        W87697  28.504  15.174  12.887
15972W        W87698  33.675  37.998  13.293
15973W        W87699   9.784  24.498  14.131
15974W        W87700  24.431   6.770  12.485
15975W        W87701  26.394  33.634  11.016
15976W        W87702  19.720  19.281   2.985
15977W        W87703   6.807  39.366  14.371
15978W        W87704  33.431  40.999   0.499
15979W        W87705   8.756  17.514   0.364
15980W        W87706  19.980   5.635   1.732
15981W        W87707  29.910  10.011   4.549
15982W        W87708  42.131  12.653   0.435
15983W        W87709  29.626  24.495  11.147
15984W        W87710   2.218  13.347   3.395
15985W        W87711   0.512  44.876  12.977
15986W        W87712  43.480  10.710  11.572
15987W        W87713   2.347  18.272  10.683
15988W        W87714  44.202  15.658   2.178
15989W        W87715  15.152  37.836   2.691
15990W        W87716  40.389  20.650  12.442
15991W        W87717   1.016  36.370  12.655
15992W        W87718  32.992   7.731  10.652
15993W        W87719  26.921   8.358  10.733
15994W        W87720  29.442  10.587   0.307
15995W        W87721  44.017  29.289   0.461
15996W        W87722  31.903  30.015  12.523
15997W        W87723  35.496   2.297  12.472
15998W        W87724   7.424  20.997  11.115
15999W        W87725  11.334  39.091   1.458
16000W        W87726   9.938  22.329   0.881
16001W        W87727   3.273  28.662   4.612
16002W        W87728  14.593  26.948  14.831
16003W        W87729   4.931  19.273   1.942
16004W        W87730  12.176  17.786   0.182
16005W        W87731  29.969  11.070   1.313
16006W        W87732   4.361   7.131  14.414
16007W        W87733   4.762  28.200   4.608
16008W        W87734   6.850  41.767   2.811
16009W        W87735  27.650  13.724  12.153
16010W        W87736  34.210   5.795  13.969
16011W        W87737  19.035  14.534   0.957
16012W        W87738  34.186  29.076  12.859
16013W        W87739   8.318  12.753   0.720
16014W        W87740  11.696   1.828  12.891
16015W        W87741  23.607  35.049   2.684
16016W        W87742  33.072   4.721   1.233
16017W        W87743  33.318  25.226   4.841
16018W        W87744  19.316  21.458   1.298
16019W        W87745   9.153   4.385   1.842
16020W        W87746   3.226  14.818  14.872
16021W        W87747  29.603  12.068   4.629
16022W        W87748  34.620  33.049  14.362
16023W        W87749  44.325  39.140  13.545
16024W        W87750  21.102  23.612  13.165
16025W        W87751  42.179   8.618  13.714
16026W        W87752   6.245  10.635   4.804
16027W        W87753   5.726  23.104   3.026
16028W        W87754   7.718  31.529  14.365
16029W        W87755  38.312  40.925   3.752
16030W        W87756   0.489   7.834  11.561
16031W        W87757   8.731  26.560  14.761
16032W        W87758  35.282  22.567  11.516
16033W        W87759  41.112  33.970   4.638
16034W        W87760   7.314  25.427  10.752
16035W        W87761  30.900  21.341  14.007
16036W        W87762  19.143  29.182   3.357
16037W        W87763   4.569  11.816   3.268
16038W        W87764  15.301   4.206  11.383
16039W        W87765  19.797  10.312  11.954
16040W        W87766  31.144  16.952   4.902
16041W        W87767   7.747  33.097  11.142
16042W        W87768   0.699   7.417  10.740
16043W        W87769  13.336   3.716  10.720
16044W        W87770  30.148  40.006  11.152
16045W        W87771   6.178  32.027   1.148
16046W        W87772  14.353   5.111   2.364
16047W        W87773  14.969   5.816   2.847
16048W        W87774  23.168  15.356  12.359
16049W        W87775  38.530  41.608   2.180
16050W        W87776  18.876  31.479   3.042
16051W        W87777  33.884  40.729  11.940
16052W        W87778  30.649  43.823   1.264
16053W        W87779  29.959   2.992  14.908
16054W        W87780   8.093  44.814  14.802
16055W        W87781  33.860  12.256  14.272
16056W        W87782   2.497  42.293   3.367
16057W        W87783  15.441  20.262  11.563
16058W        W87784  38.595  15.236   1.557
16059W        W87785  40.983  41.477  13.537
16060W        W87786  28.292   1.694  10.916
16061W        W87787  16.591  42.878   3.806
16062W        W87788  11.284   1.491  13.787
16063W        W87789  19.573  15.307   4.434
16064W        W87790   2.645  33.075  12.882
16065W        W87791  12.362  10.284  14.720
16066W        W87792  19.766  22.168   0.003
16067W        W87793  41.183  14.243   1.349
16068W        W87794   7.145  40.250  12.037
16069W        W87795  34.406  13.323  10.698
16070W        W87796  41.750  15.332   0.329
16071W        W87797  24.822   2.981   2.585
16072W        W87798  14.726  37.472   4.589
16073W        W87799  43.498  13.245   2.718
16074W        W87800  14.049  15.622   0.745
16075W        W87801  13.142  44.407   0.505
16076W        W87802  11.142  16.511   1.587
16077W        W87803  29.299  14.071  13.017
16078W        W87804  11.723   3.525   3.290
16079W        W87805  39.984  31.581   3.470
16080W        W87806  11.731   7.106  13.415
16081W        W87807  15.084   3.481  10.667
16082W        W87808  25.150  38.009   2.516
16083W        W87809  22.633  16.156  13.490
16084W        W87810  39.532  23.466  14.416
16085W        W87811  31.704   5.149   1.197
16086W        W87812  29.373  14.336  12.566
16087W        W87813  22.493  16.689   3.139
16088W        W87814  23.710  26.617  11.988
16089W        W87815  21.518  34.453  14.788
16090W        W87816  14.514  18.933   2.750
16091W        W87817  17.558  39.744  11.492
16092W        W87818  26.075  39.906  13.799
16093W        W87819  24.771  15.588  11.663
16094W        W87820   5.067   3.360   2.336
16095W        W87821  21.933  16.672   2.398
16096W        W87822  37.841   1.401   1.236
16097W        W87823  11.352  16.665  13.906
16098W        W87824  38.386   7.295   3.809
16099W        W87825  40.451  39.581  12.816
16100W        W87826   8.314  36.661   4.429
16101W        W87827  38.398  42.441   1.685
16102W        W87828   0.231  27.906   1.481
16103W        W87829  38.808  36.488  13.815
16104W        W87830   1.364  31.422   0.153
16105W        W87831  20.272  27.908  10.557
16106W        W87832  20.548  29.450  11.264
16107W        W87833  14.828  38.342   5.788
16108W        W87834   1.610  34.467   4.435
16109W        W87835  10.873  17.372   4.460
16110W        W87836   9.642  16.662   2.809
16111W        W87837  38.624   6.146   1.331
16112W        W87838   4.353  17.072  13.876
16113W        W87839  15.963   6.459   1.879
16114W        W87840  40.505  36.815  12.213
16115W        W87841  25.433   1.552   3.706
16116W        W87842   5.276  42.308   0.793
16117W        W87843  32.105  26.008  11.406
16118W        W87844  25.293   0.965  10.250
16119W        W87845  41.527  19.300   4.228
16120W        W87846  15.381  14.609  14.974
16121W        W87847   8.788   6.968  10.883
16122W        W87848  22.638  13.193  14.824
16123W        W87849  33.402  44.220   4.664
16124W        W87850  30.871  41.917   4.065
16125W        W87851  33.409  37.716   1.217
16126W        W87852  28.827   2.990   4.233
16127W        W87853  19.994  42.891   4.383
16128W        W87854  34.155  15.864  10.631
16129W        W87855  11.527   0.815   0.828
16130W        W87856  41.551  14.534   1.878
16131W        W87857  11.322  10.136   1.277
16132W        W87858  22.602  17.114   0.791
16133W        W87859  41.834  16.305   1.677
16134W        W87860  42.960  35.156   1.623
16135W        W87861  41.098  32.934   0.484
16136W        W87862  32.019   9.870   3.865
16137W        W87863   7.201  44.893   1.172
16138W        W87864  22.984  26.154   2.155
16139W        W87865  40.043  11.117  14.692
16140W        W87866  34.816  40.672  14.511
16141W        W87867  36.498  25.134   1.892
16142W        W87868   6.229  23.564  14.781
16143W        W87869  41.492  17.345  11.030
16144W        W87870   2.364  28.563   3.989
16145W        W87871  17.172  31.695  14.511
16146W        W87872   4.350  18.218   2.884
16147W        W87873  32.113  32.594  12.484
16148W        W87874   2.934  26.465   2.300
16149W        W87875   7.427   6.396   2.511
16150W        W87876  43.895  19.919  13.567
16151W        W87877  32.409  25.607  13.425
16152W        W87878  39.545  16.736   3.267
16153W        W87879  38.800  22.063  11.805
16154W        W87880  26.367  18.262  11.239
16155W        W87881  21.972  25.938  11.128
16156W        W87882  29.931  44.337  11.576
16157W        W87883   7.339  15.039   4.951
16158W        W87884  41.597   1.557   2.853
16159W        W87885   4.299  27.835   3.397
16160W        W87886   3.203  25.688  13.340
16161W        W87887  41.980  17.880   2.177
16162W        W87888  21.457  44.295   1.752
16163W        W87889  22.501  38.052   0.737
16164W        W87890   6.295  23.778  13.405
16165W        W87891   5.729  23.045   1.305
16166W        W87892  43.266  24.617   0.769
16167W        W87893  12.608  14.605  13.883
16168W        W87894  38.064  16.045   4.086
16169W        W87895  44.365   9.262   3.017
16170W        W87896   3.638  27.880  13.890
16171W        W87897  15.820  24.627   3.360
16172W        W87898  27.129  16.792  10.703
16173W        W87899  39.806  21.265  13.999
16174W        W87900   9.768   9.787   4.803
16175W        W87901  17.148   2.683  12.939
16176W        W87902  27.359  28.051   2.763
16177W        W87903   1.822  38.002  13.564
16178W        W87904  14.869  17.634   4.104
16179W        W87905  41.786   0.222   0.337
16180W        W87906  36.459  14.145  14.619
16181W        W87907  43.464  34.521  11.516
16182W        W87908  16.242  23.971  14.375
16183W        W87909  26.595  35.566   3.806
16184W        W87910  24.650  12.965   3.717
16185W        W87911  13.598   5.522  14.927
16186W        W87912  44.302   7.693   1.759
16187W        W87913   6.762  39.315   1.485
16188W        W87914   6.465  15.170  12.766
16189W        W87915  41.210  40.672   2.830
16190W        W87916  40.437  34.860  13.777
16191W        W87917  14.061  43.184   3.243
16192W        W87918  35.168  12.750   3.600
16193W        W87919  17.078  23.520  13.520
16194W        W87920  16.329   9.714  11.591
16195W        W87921  33.176  31.833  12.036
16196W        W87922  22.997  32.162   2.294
16197W        W87923   3.959   9.110   1.795
16198W        W87924   5.739   8.100   0.317
16199W        W87925  42.032  43.250  11.005
16200W        W87926   3.945  38.397  12.450
16201W        W87927  10.713  33.878   0.453
16202W        W87928  21.157  40.481   1.019
16203W        W87929  20.946  20.234  14.200
16204W        W87930   1.959  36.533  13.302
16205W        W87931  29.087  15.060  10.885
16206W        W87932  44.310  24.179   3.668
16207W        W87933  37.913  38.415  11.410
16208W        W87934  26.514  27.690  10.651
16209W        W87935  17.569   6.551  13.035
16210W        W87936  13.778  28.710  12.915
16211W        W87937  39.761  44.205  14.558
16212W        W87938   6.188  38.498   4.135
16213W        W87939  13.638  31.496   1.175
16214W        W87940  17.262  25.636  11.441
16215W        W87941  12.999   9.608  13.285
16216W        W87942   0.471  23.592  11.855
16217W        W87943  27.890   0.259   3.507
16218W        W87944  29.072  34.068   1.962
16219W        W87945  26.772  31.438   4.714
16220W        W87946  28.747  14.621   2.124
16221W        W87947  14.373  44.268   2.799
16222W        W87948  44.432   4.946  14.761
16223W        W87949  11.695  19.074  14.630
16224W        W87950  18.458  24.231  11.592
16225W        W87951   0.406  36.519  11.903
16226W        W87952  37.961  33.350  14.581
16227W        W87953  23.251  15.066   0.267
16228W        W87954  20.139  22.660   3.480
16229W        W87955  34.166   3.429  11.190
16230W        W87956  10.200  22.439  14.744
16231W        W87957  12.164   9.911  14.330
16232W        W87958  41.487   6.994  10.771
16233W        W87959   9.054  11.160   3.870
16234W        W87960  11.071  26.897   0.705
16235W        W87961  27.326   4.921   1.743
16236W        W87962  19.582  12.239   2.196
16237W        W87963  25.138   6.675   3.910
16238W        W87964  12.422  13.360   1.112
16239W        W87965  41.504   3.002  12.000
16240W        W87966  26.931  42.415   3.358
16241W        W87967   7.902  27.638   1.862
16242W        W87968  42.574  19.101  10.942
16243W        W87969   5.863   9.771   4.822
16244W        W87970  37.316  33.251  14.182
16245W        W87971   6.313  22.497  12.954
16246W        W87972   5.631  15.401   1.618
16247W        W87973  20.725  39.380   2.253
16248W        W87974  42.743  34.379  14.304
16249W        W87975  28.963  31.901   1.636
16250W        W87976  29.122  29.035  14.231
16251W        W87977  10.348  39.044  12.077
16252W        W87978  35.540  40.311   2.187
16253W        W87979  44.607  10.641  11.993
16254W        W87980   6.097  21.050  14.487
16255W        W87981  41.103  41.961   4.675
16256W        W87982  37.070   1.230  11.830
16257W        W87983  12.672  11.176   3.197
16258W        W87984  27.065  37.158   3.108
16259W        W87985  25.659   9.968  14.321
16260W        W87986  17.042  31.958   5.014
16261W        W87987   6.140  28.926  14.162
16262W        W87988  39.009  37.070  12.011
16263W        W87989  26.484  41.541  10.607
16264W        W87990  12.713  42.862  11.753
16265W        W87991  44.763  30.121   2.461
16266W        W87992  39.692  32.757  13.922
16267W        W87993  39.103  44.323   0.763
16268W        W87994  44.923  20.311   0.153
16269W        W87995  13.155  21.046  13.780
16270W        W87996   8.484  25.553   0.437
16271W        W87997  35.785   9.334  10.691
16272W        W87998   4.966  17.328  14.314
16273W        W87999  42.428  28.904  12.586
16274W        W88000  42.510  11.770   2.246
16275W        W88001  18.151  34.056   4.266
16276W        W88002   4.485  17.626   3.675
16277W        W88003  43.686   5.742  11.079
16278W        W88004  38.031   5.513  10.891
16279W        W88005  25.332  23.326  11.108
16280W        W88006  20.553  20.535  13.343
16281W        W88007  31.937  26.040   1.753
16282W        W88008  18.112  30.807   4.427
16283W        W88009  42.911  14.887  12.110
16284W        W88010  12.063  19.757  10.642
16285W        W88011  21.876  23.502   4.269
16286W        W88012   2.658  38.916  11.911
16287W        W88013  10.459  27.497  13.585
16288W        W88014  39.322  38.427   2.984
16289W        W88015  19.610  29.250   2.815
16290W        W88016  32.466  18.773  11.233
16291W        W88017   5.748  15.687   4.242
16292W        W88018  40.085  21.860  13.561
16293W        W88019  24.658  24.107   1.938
16294W        W88020  10.547  43.739  12.730
16295W        W88021  11.798   4.932   0.776
16296W        W88022   8.912  37.380   1.871
16297W        W88023   7.860  39.828   0.763
16298W        W88024  34.283  41.025   3.233
16299W        W88025  39.607  31.532   1.718
16300W        W88026  27.438   5.116  11.150
16301W        W88027  25.571  24.742  13.078
16302W        W88028  32.002   7.869   4.581
16303W        W88029  17.777  24.818   1.431
16304W        W88030   5.671  11.111  11.580
16305W        W88031   7.408  32.621   1.229
16306W        W88032  14.510   2.905   4.866
16307W        W88033  22.473  26.388   4.107
16308W        W88034  12.192   4.062  12.377
16309W        W88035  22.286  29.436  10.957
16310W        W88036  25.894  14.086   4.678
16311W        W88037  27.081  13.164  11.653
16312W        W88038  30.661  39.707   3.736
16313W        W88039  18.033  25.434  12.429
16314W        W88040  22.666  34.044  11.201
16315W        W88041   0.121  11.870   4.263
16316W        W88042   9.281  29.672   1.242
16317W        W88043  24.717   6.915   2.637
16318W        W88044  38.910  29.117  12.469
16319W        W88045  31.843  43.987   3.748
16320W        W88046  37.422  18.303   3.212
16321W        W88047   6.716   0.820   2.331
16322W        W88048   1.448  39.507   4.426
16323W        W88049  33.589  37.657   0.371
16324W        W88050  22.773  28.411  10.135
16325W        W88051  37.844  16.668  11.425
16326W        W88052  19.980  44.963  11.400
16327W        W88053  34.698  20.634  10.702
16328W        W88054  34.953  20.191  10.549
16329W        W88055  44.330  17.619   2.754
16330W        W88056  16.156   2.469   3.253
16331W        W88057   7.944   2.705  13.403
16332W        W88058  37.096  41.675  12.334
16333W        W88059  31.438  16.040  12.185
16334W        W88060  17.209   8.892   5.051
16335W        W88061  12.792  43.314   4.284
16336W        W88062   9.780  35.485  11.192
16337W        W88063  23.768  44.528  10.522
16338W        W88064   5.734   2.267  10.611
16339W        W88065   8.607   9.959   3.397
16340W        W88066  39.332  23.166   3.732
16341W        W88067  26.645   2.752   2.373
16342W        W88068  28.794  16.664  12.116
16343W        W88069  14.922  12.693  12.645
16344W        W88070  19.086   1.776   4.110
16345W        W88071  22.517  21.471  11.549
16346W        W88072  25.101   6.567  13.486
16347W        W88073  16.771  21.453   4.924
16348W        W88074   7.407  27.231   0.256
16349W        W88075  39.288  27.790  10.491
16350W        W88076   8.615  23.165   5.513
16351W        W88077  20.974   8.114   0.254
16352W        W88078  39.517  41.394   1.505
16353W        W88079  23.988  35.064  14.002
16354W        W88080  23.023   1.615   4.076
16355W        W88081  10.127   7.761   2.175
16356W        W88082  10.672   3.375   3.173
16357W        W88083  17.371   4.322   0.289
16358W        W88084  40.339  20.182  14.726
16359W        W88085  20.763  41.601  12.758
16360W        W88086  42.742  29.106   0.743
16361W        W88087   0.085  34.085   1.890
16362W        W88088   6.043  24.902   0.817
16363W        W88089  22.548   2.211   0.196
16364W        W88090  20.135  17.727   4.084
16365W        W88091  44.669   4.167  13.419
16366W        W88092  17.690  35.974  11.612
16367W        W88093  25.126   7.412  14.210
16368W        W88094   0.350   6.166   1.369
16369W        W88095  39.573  19.245   4.194
16370W        W88096   8.835  37.457   3.813
16371W        W88097  20.035   3.699  11.572
16372W        W88098  23.642  42.409   5.017
16373W        W88099  25.148  29.473   0.969
16374W        W88100   1.068  41.403  10.683
16375W        W88101  17.660  44.838  10.703
16376W        W88102   1.846  34.856  11.414
16377W        W88103  24.596  40.676   4.124
16378W        W88104  38.483  42.422   2.754
16379W        W88105   9.766  11.157  13.447
16380W        W88106  16.551  13.674   0.915
16381W        W88107  37.874  10.150   1.756
16382W        W88108  44.952   4.925  10.430
16383W        W88109  32.157  21.135   3.731
16384W        W88110   0.522  19.210  13.376
16385W        W88111  42.963  11.140  12.912
16386W        W88112  20.202  21.630  14.305
16387W        W88113  26.949   1.703   2.723
16388W        W88114  30.994  36.575  12.985
16389W        W88115  21.798   2.821   1.752
16390W        W88116  15.786  25.175  13.087
16391W        W88117   6.041  29.440   0.719
16392W        W88118  31.963  36.139   3.696
16393W        W88119  14.372  29.864   2.648
16394W        W88120  23.586  21.056   3.379
16395W        W88121  23.577  12.319   1.964
16396W        W88122   5.270  28.881   3.348
16397W        W88123  18.831   1.214  10.419
16398W        W88124   9.724   6.900  12.305
16399W        W88125   4.770  30.014   5.034
16400W        W88126  23.527  18.555   4.195
16401W        W88127  30.554  25.542  10.252
16402W        W88128   8.848  38.964   2.887
16403W        W88129  44.195  26.672   4.532
16404W        W88130  19.424  39.429  10.483
16405W        W88131  19.096  13.448  13.943
16406W        W88132   6.193  17.134   3.763
16407W        W88133  14.602  44.392  12.086
16408W        W88134  20.216   7.365  11.240
16409W        W88135  37.773  43.232   0.320
16410W        W88136  26.250  17.804  14.346
16411W        W88137  25.036  26.428   4.082
16412W        W88138   8.057  29.545   0.031
16413W        W88139  27.837  13.710   1.739
16414W        W88140   7.865  26.527   2.707
16415W        W88141  20.643  15.898   4.290
16416W        W88142  18.180   2.580  11.566
16417W        W88143  21.659  16.160  10.933
16418W        W88144  34.079   3.285   4.574
16419W        W88145  26.564  42.260   4.788
16420W        W88146  30.552   0.822  13.374
16421W        W88147  16.652   3.180   0.934
16422W        W88148   4.257  14.229  14.388
16423W        W88149  12.319  34.579   4.376
16424W        W88150  40.531  32.643  13.389
16425W        W88151   4.210  40.424   0.280
16426W        W88152  11.873  12.721  11.059
16427W        W88153  44.933   7.434   0.788
16428W        W88154  13.831  33.429  10.404
16429W        W88155  21.199  26.746   4.606
16430W        W88156  10.188  20.551   1.232
16431W        W88157   7.386  33.499  14.626
16432W        W88158   4.717  35.498   0.800
16433W        W88159  42.204  40.042   4.431
16434W        W88160   7.097  31.788   3.216
16435W        W88161  40.503  21.251   0.448
16436W        W88162  44.719  20.005   2.754
16437W        W88163  25.361  39.041  12.269
16438W        W88164  42.285  11.613   0.495
16439W        W88165  11.405  36.469   1.902
16440W        W88166   7.898  41.389   2.565
16441W        W88167   2.424  29.360  13.949
16442W        W88168   4.775  32.496  14.961
16443W        W88169  17.112  37.921  14.617
16444W        W88170  20.317  24.788   1.164
16445W        W88171  13.078   1.233   0.262
16446W        W88172  41.477  30.119  11.329
16447W        W88173  37.491   1.377   3.769
16448W        W88174   6.489  27.669   1.774
16449W        W88175  14.735  15.048  10.687
16450W        W88176  10.219  23.983   2.307
16451W        W88177  38.274  34.408  13.595
16452W        W88178  20.610  10.545  10.492
16453W        W88179   0.895  26.281   1.434
16454W        W88180  40.191  34.034  13.427
16455W        W88181  30.050  42.058  11.159
16456W        W88182  24.006  12.138  10.044
16457W        W88183  37.064  44.324  12.850
16458W        W88184  36.165  11.684   4.562
16459W        W88185  41.024  17.322   4.931
16460W        W88186   1.215  27.374  11.047
16461W        W88187   4.813  44.898   3.507
16462W        W88188  23.364  22.178  13.898
16463W        W88189  35.869  37.564   2.765
16464W        W88190   5.659  17.402   5.049
16465W        W88191  33.902  22.627  13.200
16466W        W88192  32.099   5.422   3.848
16467W        W88193   5.728   9.120   4.143
16468W        W88194   8.882  14.127   3.116
16469W        W88195  18.263   5.895   1.274
16470W        W88196   2.494  43.460   2.004
16471W        W88197  44.094  37.509  11.622
16472W        W88198  40.026  29.573   4.241
16473W        W88199  12.244  36.997   3.084
16474W        W88200   6.204   4.990  10.504
16475W        W88201  31.354  23.270  14.303
16476W        W88202  44.881  12.529   1.033
16477W        W88203  10.084  31.452  13.921
16478W        W88204  44.292  29.158  13.896
16479W        W88205  30.480  12.671  12.877
16480W        W88206  40.930   8.218  12.604
16481W        W88207  40.578  37.448   2.397
16482W        W88208  32.689   9.832  13.445
16483W        W88209   2.800  36.048   0.188
16484W        W88210   3.721  30.636   0.906
16485W        W88211  14.406   4.467  14.325
16486W        W88212  10.336   8.351  11.516
16487W        W88213   9.380  16.005   3.330
16488W        W88214   2.414   8.594   0.692
16489W        W88215  12.318  41.487  14.547
16490W        W88216  13.799   1.827  10.430
16491W        W88217  14.313  18.702  13.545
16492W        W88218   5.251  38.310  12.478
16493W        W88219  22.727  13.545   0.196
16494W        W88220   7.170  42.864  14.896
16495W        W88221   4.471  35.423  13.494
16496W        W88222  42.502  41.878  11.147
16497W        W88223  39.338   9.741  11.426
16498W        W88224   0.441   2.820  11.656
16499W        W88225  17.255  25.365  12.021
16500W        W88226  11.204  19.150  12.903
16501W        W88227  23.183  29.230  14.433
16502W        W88228  39.059   0.691  14.698
16503W        W88229  11.345   1.499  14.703
16504W        W88230  41.210  40.278   0.770
16505W        W88231  43.360  25.965  10.612
16506W        W88232  39.393  40.497   4.397
16507W        W88233   6.884   6.216   2.390
16508W        W88234   9.189  11.222   2.679
16509W        W88235   7.986  11.732   2.431
16510W        W88236   9.836   1.983   4.693
16511W        W88237  18.035   8.181   4.599
16512W        W88238   4.290  14.151  10.167
16513W        W88239  33.255   9.104   1.880
16514W        W88240  18.504  38.861  10.697
16515W        W88241  11.348  19.685  11.892
16516W        W88242  44.984  33.356  11.606
16517W        W88243  21.078  10.305   4.636
16518W        W88244  25.810   2.341   0.823
16519W        W88245  14.171  24.050   1.491
16520W        W88246  43.972   8.672   0.019
16521W        W88247   0.432  23.016  11.236
16522W        W88248   6.796  42.009  10.977
16523W        W88249  10.506  25.387  11.564
16524W        W88250   0.768  10.583  12.405
16525W        W88251   1.452   0.023  13.892
16526W        W88252  44.429  27.414  14.265
16527W        W88253  18.581   4.134  10.875
16528W        W88254   1.449  42.359  10.379
16529W        W88255  27.145  12.725  14.339
16530W        W88256  23.330  31.081  13.369
16531W        W88257  20.509   6.142  13.324
16532W        W88258  14.109  26.501   2.896
16533W        W88259  18.661  40.822   5.091
16534W        W88260  44.238   6.113   3.244
16535W        W88261  28.246  43.201   5.061
16536W        W88262  38.420  38.633   2.660
16537W        W88263  19.496  10.109   0.344
16538W        W88264  23.178   1.634  13.350
16539W        W88265  39.570  21.492  14.397
16540W        W88266  41.014  28.604   0.358
16541W        W88267   6.939  25.498   2.223
16542W        W88268   2.587   0.792  12.905
16543W        W88269  33.954  10.258  12.133
16544W        W88270  14.388  26.234  13.486
16545W        W88271   0.500  40.273  11.502
16546W        W88272  31.164  31.827   0.934
16547W        W88273  15.420  27.065   4.222
16548W        W88274  29.366  37.772  13.452
16549W        W88275  24.128  33.644   2.007
16550W        W88276  23.402  32.537  11.090
16551W        W88277  24.530  31.070  11.204
16552W        W88278  13.094  17.613  10.890
16553W        W88279   9.677  17.660   4.128
16554W        W88280   8.196  41.890  12.144
16555W        W88281   2.835  19.806   3.270
16556W        W88282  28.428  23.255   2.361
16557W        W88283  25.037  19.047  13.875
16558W        W88284   3.023  16.220  10.923
16559W        W88285  35.513  13.485  12.935
16560W        W88286  23.290  28.305   4.813
16561W        W88287  20.079   3.926   2.329
16562W        W88288  11.880  40.822   1.893
16563W        W88289   7.413   4.394  12.313
16564W        W88290  40.205  22.768  10.607
16565W        W88291  40.101  20.661  12.009
16566W        W88292  39.011  30.348   1.833
16567W        W88293   6.604  16.277   1.832
16568W        W88294  38.043  10.688  11.539
16569W        W88295  24.747  21.178  13.827
16570W        W88296   1.748   1.103  14.177
16571W        W88297  14.370  21.443  12.904
16572W        W88298   2.123   2.966  13.451
16573W        W88299   3.312  33.967   2.334
16574W        W88300  42.553  23.456   3.329
16575W        W88301  25.034   4.232   3.847
16576W        W88302  42.830  27.091  12.486
16577W        W88303   2.016  42.845   4.594
16578W        W88304  10.659  28.424  14.899
16579W        W88305  41.979   7.371   0.918
16580W        W88306  13.268  30.464   0.027
16581W        W88307  26.977  24.025   4.767
16582W        W88308   9.925  13.622  11.954
16583W        W88309  32.970  27.966  11.887
16584W        W88310  34.662  13.730  13.094
16585W        W88311  41.856  11.225   0.447
16586W        W88312  19.152   8.751  13.635
16587W        W88313  40.042   4.188  14.943
16588W        W88314  21.120  33.395  14.059
16589W        W88315  14.150  20.025  13.543
16590W        W88316  33.155  22.282   2.274
16591W        W88317  37.325  44.533  10.703
16592W        W88318  40.196  31.104   3.328
16593W        W88319  39.542   9.226  13.850
16594W        W88320  39.610  41.073  14.313
16595W        W88321   0.506   6.868   4.070
16596W        W88322  25.490  28.448  11.041
16597W        W88323   2.736  23.154  12.525
16598W        W88324   0.954  21.081  10.555
16599W        W88325  43.067  10.671   3.575
16600W        W88326  20.271  31.982   3.233
16601W        W88327  27.437  44.015   0.833
16602W        W88328  16.567   2.202  14.027
16603W        W88329  34.109  32.145   3.739
16604W        W88330  44.721  21.194   3.118
16605W        W88331   8.838   2.719  13.826
16606W        W88332  19.231   8.830   3.383
16607W        W88333  37.803  30.406   3.018
16608W        W88334  35.177  29.042  13.377
16609W        W88335  36.149  28.736  14.464
16610W        W88336  40.748  20.299  14.374
16611W        W88337  10.446  20.150  12.657
16612W        W88338  12.866  30.482  12.087
16613W        W88339   7.366  11.382  13.632
16614W        W88340  13.716   0.335   0.778
16615W        W88341  39.506  32.894   2.864
16616W        W88342  22.528  34.668  13.950
16617W        W88343  32.277  26.131   4.581
16618W        W88344  17.164  43.757  13.063
16619W        W88345  44.112  19.423   1.236
16620W        W88346   0.984  40.496   4.119
16621W        W88347  26.940   4.314   2.817
16622W        W88348   0.337  20.708  14.415
16623W        W88349  37.835  18.057  13.006
16624W        W88350   3.133   6.636  13.275
16625W        W88351  22.933  29.830   0.783
16626W        W88352  40.281  30.406   4.086
16627W        W88353  38.065  36.186   4.999
16628W        W88354  21.397   1.875   4.304
16629W        W88355  33.930  10.319  11.638
16630W        W88356  11.393   7.795  10.646
16631W        W88357   1.607  23.563  10.851
16632W        W88358  32.046  14.717  10.846
16633W        W88359   8.781   2.379   1.180
16634W        W88360  35.060  28.185  10.289
16635W        W88361  30.008  26.718   0.907
16636W        W88362  32.956  12.696  14.082
16637W        W88363  12.178  34.376  12.141
16638W        W88364   5.325  17.079  11.078
16639W        W88365  15.159   3.024  13.285
16640W        W88366   7.759  39.467  12.520
16641W        W88367  21.730  42.572   2.180
16642W        W88368  10.644  29.634   2.175
16643W        W88369   0.720  43.353   2.908
16644W        W88370  26.613  21.979  13.382
16645W        W88371  40.000  33.888  10.675
16646W        W88372   5.755  13.259  10.241
16647W        W88373  37.734   8.852  13.632
16648W        W88374   7.696  16.054   2.771
16649W        W88375  16.137  26.232   2.841
16650W        W88376  17.514  20.269   1.948
16651W        W88377  38.386  36.360  12.056
16652W        W88378  18.633  17.679   3.851
16653W        W88379  23.873  11.574   5.028
16654W        W88380  31.298   3.492  14.545
16655W        W88381  28.288  18.721  13.467
16656W        W88382  15.626  37.894  11.543
16657W        W88383  24.647  29.071   4.564
16658W        W88384  35.708   2.922  10.465
16659W        W88385  26.670  25.968   4.079
16660W        W88386  23.028   3.770  12.492
16661W        W88387  23.497  31.883   3.529
16662W        W88388   0.358  22.659   3.267
16663W        W88389  24.963  25.473  14.774
16664W        W88390  40.451  12.906   3.647
16665W        W88391   3.434   7.998  12.427
16666W        W88392   2.597  38.608  13.265
16667W        W88393  19.559  28.730   1.302
16668W        W88394  11.928  11.791   2.916
16669W        W88395  40.447  32.550   2.616
16670W        W88396  26.263  30.698   3.786
16671W        W88397   5.253  36.160  11.165
16672W        W88398  41.624  16.701  12.841
16673W        W88399  11.737  24.914  10.256
16674W        W88400   9.397  33.452   9.817
16675W        W88401  38.047  30.108   0.219
16676W        W88402  42.062  17.993   0.745
16677W        W88403  19.764   8.289  10.675
16678W        W88404   4.382  10.295  11.981
16679W        W88405  44.312  16.302  11.304
16680W        W88406  16.217  17.086  13.415
16681W        W88407  44.399  28.975  10.669
16682W        W88408  42.457  37.448   1.713
16683W        W88409  42.857  20.557  12.349
16684W        W88410  18.658   5.215   0.994
16685W        W88411  28.810   4.257   4.588
16686W        W88412  42.599   8.794  10.813
16687W        W88413  21.770  31.679   2.799
16688W        W88414  43.881  14.016   3.754
16689W        W88415  32.965  24.191  13.575
16690W        W88416  39.560  20.992   3.745
16691W        W88417  33.655  43.977   3.678
16692W        W88418  41.979  21.063   3.690
16693W        W88419  42.173  14.414   1.294
16694W        W88420  38.949  14.642   2.613
16695W        W88421  19.514  20.667  11.662
16696W        W88422  16.760  33.349  12.445
16697W        W88423  25.032  11.212  12.915
16698W        W88424   9.508  32.573   4.339
16699W        W88425  43.479  22.527   2.156
16700W        W88426  42.795  32.509   0.918
16701W        W88427  28.038  39.314  14.312
16702W        W88428  19.663  29.841   3.823
16703W        W88429  21.841  38.001  12.175
16704W        W88430  32.386   7.410   1.688
16705W        W88431   5.703  19.255  12.855
16706W        W88432  21.594  43.798   0.915
16707W        W88433  22.689  12.081  14.601
16708W        W88434  29.551  22.638   0.696
16709W        W88435  27.933  27.204   1.850
16710W        W88436  11.390  13.657  11.081
16711W        W88437  17.061  17.374  14.347
16712W        W88438  16.444   8.872  11.805
16713W        W88439  30.215  26.687  11.432
16714W        W88440  32.941  32.510   4.169
16715W        W88441  38.155  16.821  13.366
16716W        W88442  33.467  14.647  10.753
16717W        W88443  14.586  33.408  13.446
16718W        W88444   2.996  21.740   1.170
16719W        W88445  25.798  17.840   4.462
16720W        W88446  12.748  24.651  12.470
16721W        W88447  42.399  14.117   2.380
16722W        W88448   0.413  37.949   3.080
16723W        W88449  17.064  28.841   0.365
16724W        W88450  22.522  34.431   5.022
16725W        W88451   1.654  31.131   4.185
16726W        W88452  32.595  35.807   3.372
16727W        W88453   8.181   2.937   0.769
16728W        W88454  19.753  26.439  13.087
16729W        W88455  15.032  41.202   3.220
16730W        W88456  14.781   1.965   1.147
16731W        W88457  12.914  17.285  10.446
16732W        W88458  15.824  26.695   2.787
16733W        W88459  17.039  36.871   2.751
16734W        W88460   2.211  35.524  11.976
16735W        W88461  33.113  34.068  13.118
16736W        W88462  16.209  15.624   0.410
16737W        W88463  15.145  15.440   3.769
16738W        W88464  42.943  39.165  11.966
16739W        W88465  18.505  36.138  11.220
16740W        W88466  29.367  25.623   5.498
16741W        W88467  13.260  20.029   1.757
16742W        W88468  44.708  18.827   4.216
16743W        W88469  26.415   6.800   1.729
16744W        W88470  22.646  14.758  13.977
16745W        W88471  28.536  25.874  12.469
16746W        W88472  22.693  23.266  14.376
16747W        W88473  15.666  11.354   3.734
16748W        W88474   6.401  14.641  13.042
16749W        W88475  44.192  40.597   1.286
16750W        W88476  38.051  29.117  14.805
16751W        W88477  41.540  26.456   0.788
16752W        W88478  31.568   9.323  11.213
16753W        W88479  38.050  20.923  14.731
16754W        W88480  39.034   2.464   0.657
16755W        W88481  29.489   8.035   3.531
16756W        W88482  11.591  11.183  11.420
16757W        W88483  14.173   8.158  13.589
16758W        W88484  15.722  15.776   1.661
16759W        W88485  29.375  28.217   3.798
16760W        W88486  27.513  36.797   1.712
16761W        W88487  33.950  17.709   0.515
16762W        W88488  24.715  28.282  14.478
16763W        W88489   7.353  12.657  11.575
16764W        W88490  20.581  13.846  12.073
16765W        W88491   7.837  26.458   2.108
16766W        W88492  25.060  39.911  14.227
16767W        W88493  33.897  35.006  12.901
16768W        W88494  24.724   4.691  11.086
16769W        W88495   9.433  10.767   2.646
16770W        W88496  30.071  33.970   1.786
16771W        W88497   1.451   0.669  11.657
16772W        W88498  44.009  20.744   2.843
16773W        W88499  40.676  17.373   2.757
16774W        W88500  15.498  26.657  11.052
16775W        W88501  17.080  22.619   3.119
16776W        W88502  23.586  29.890  11.448
16777W        W88503  21.161   2.283  12.417
16778W        W88504  29.762   7.839  12.584
16779W        W88505  12.880  32.877  12.056
16780W        W88506  33.949  26.047   1.845
16781W        W88507   1.160  30.186   4.172
16782W        W88508   8.282  18.791   4.527
16783W        W88509  30.517  44.443  12.367
16784W        W88510   9.726   5.072  12.475
16785W        W88511  35.513  35.317   2.585
16786W        W88512  24.836   7.976  13.046
16787W        W88513  31.874  41.281   5.607
16788W        W88514  10.836  29.194  10.347
16789W        W88515  31.187   0.052   4.375
16790W        W88516   3.712  26.512   3.276
16791W        W88517  14.642  27.723   4.323
16792W        W88518  30.083  40.610   4.826
16793W        W88519  28.527  23.796   0.412
16794W        W88520  12.769   6.019   4.038
16795W        W88521  17.356   9.380   4.511
16796W        W88522  43.499   2.471  14.514
16797W        W88523  23.493  17.472   2.382
16798W        W88524  43.760  24.427  14.352
16799W        W88525   9.560  25.724   1.654
16800W        W88526  14.658   4.456  12.820
16801W        W88527  25.035  30.849   3.335
16802W        W88528   6.392   6.656  14.960
16803W        W88529   8.731   9.862  14.922
16804W        W88530  16.775  30.162   3.265
16805W        W88531  43.300  10.395  12.552
16806W        W88532  34.228   8.102  10.605
16807W        W88533  39.071   6.854   3.754
16808W        W88534  42.378  33.229   1.708
16809W        W88535  14.658  41.023  11.594
16810W        W88536  13.263  35.910  14.869
16811W        W88537  28.083  13.759   3.763
16812W        W88538  16.597   7.381  14.317
16813W        W88539  36.196  39.344   2.979
16814W        W88540   9.213  43.182   2.388
16815W        W88541  30.556  24.565  14.532
16816W        W88542  23.873   2.307  12.083
16817W        W88543  29.573   3.934  10.779
16818W        W88544  44.876  42.338  14.544
16819W        W88545  31.349   0.852   1.669
16820W        W88546  36.469  26.900   2.708
16821W        W88547  11.901  36.648   1.924
16822W        W88548  38.809  14.535  11.392
16823W        W88549  23.708  39.086  14.213
16824W        W88550  15.478   5.908   1.044
16825W        W88551  13.532  11.453   2.115
16826W        W88552   8.639  16.014   4.967
16827W        W88553  19.329   6.284  14.003
16828W        W88554   0.449   7.175  11.145
16829W        W88555  21.010  35.428  12.423
16830W        W88556  39.373  31.536  12.134
16831W        W88557  24.685  20.522  11.847
16832W        W88558  20.544  26.649  11.555
16833W        W88559  22.123   5.180  11.593
16834W        W88560   0.049   8.220  11.995
16835W        W88561  39.560  42.569  14.375
16836W        W88562  10.864   7.821  10.583
16837W        W88563  27.493  37.030  13.529
16838W        W88564  17.278  37.553   0.467
16839W        W88565  33.039  44.900  11.236
16840W        W88566  35.948  33.889   0.285
16841W        W88567   3.378  26.181  10.418
16842W        W88568  10.246  29.819  14.487
16843W        W88569  24.882   5.322  12.689
16844W        W88570  22.242  31.899   2.766
16845W        W88571   8.412  37.254   1.317
16846W        W88572  36.778  35.076  11.037
16847W        W88573  42.531   2.219   0.931
16848W        W88574  37.392  23.985  12.414
16849W        W88575  30.677   0.417  13.074
16850W        W88576   8.683  38.817   1.915
16851W        W88577  23.073  22.612  10.986
16852W        W88578  25.422  27.616   4.597
16853W        W88579  37.918   5.363   2.705
16854W        W88580   2.761  27.944   0.349
16855W        W88581   0.463  25.452   1.315
16856W        W88582  23.760  23.149  13.908
16857W        W88583  13.099  21.063   2.678
16858W        W88584  32.506  11.472  11.943
16859W        W88585   2.851   9.698   4.174
16860W        W88586  13.285  38.779  10.590
16861W        W88587  31.056  33.488  13.334
16862W        W88588   6.991   8.736   3.866
16863W        W88589  35.726  32.825   4.804
16864W        W88590  25.957   1.652  14.805
16865W        W88591  10.437   4.641  12.505
16866W        W88592   5.494  10.010  13.872
16867W        W88593  16.205   0.715  10.265
16868W        W88594  23.980  28.844  11.272
16869W        W88595  26.572   0.462  13.730
16870W        W88596   8.222  14.373   2.448
16871W        W88597  23.247   8.375  11.086
16872W        W88598  39.825  26.250  14.595
16873W        W88599  27.929  44.343  14.038
16874W        W88600  33.708  39.806   5.120
16875W        W88601  41.369  43.392  14.970
16876W        W88602  23.043  41.419   1.836
16877W        W88603  26.564  19.418   0.735
16878W        W88604  39.772  17.845   1.230
16879W        W88605   7.952  23.054   2.845
16880W        W88606  24.585  36.510   3.982
16881W        W88607  28.562  38.428  13.228
16882W        W88608   4.210  38.266  13.774
16883W        W88609  34.243   6.388   1.488
16884W        W88610  37.446   5.178   2.705
16885W        W88611  36.423  19.166   0.102
16886W        W88612  36.130   0.941   2.354
16887W        W88613  10.090  38.741   1.820
16888W        W88614  20.291  35.954  14.233
16889W        W88615   1.682  44.878   3.904
16890W        W88616  26.254  42.877  14.854
16891W        W88617  23.989  16.588   2.186
16892W        W88618  31.533   6.992   3.660
16893W        W88619  30.709  23.727  14.695
16894W        W88620  22.501  14.535   3.221
16895W        W88621  32.831   2.306  12.989
16896W        W88622  13.237  39.073  13.269
16897W        W88623   3.466  33.607   3.317
16898W        W88624  43.274  31.918   2.303
16899W        W88625  26.083  32.000   4.721
16900W        W88626   0.030  13.950   2.633
16901W        W88627  25.635  40.266  12.109
16902W        W88628  29.133  27.912  12.835
16903W        W88629  15.312  16.335   3.232
16904W        W88630  44.951  10.362   1.007
16905W        W88631  34.925  30.169  11.960
16906W        W88632  18.668  23.428  11.963
16907W        W88633  33.400  19.610  11.968
16908W        W88634  14.599  23.273  14.924
16909W        W88635  34.702   4.003  10.687
16910W        W88636   7.788  10.158   1.706
16911W        W88637  36.856  14.182  11.207
16912W        W88638   5.581   8.328  13.359
16913W        W88639  36.056  19.856   4.610
16914W        W88640   2.664   0.323   4.709
16915W        W88641  19.973   8.739  13.923
16916W        W88642  24.911  32.744   2.995
16917W        W88643  29.124   0.743   2.774
16918W        W88644   2.708  22.812  11.689
16919W        W88645  29.790  21.585   0.786
16920W        W88646  21.462  29.089  14.772
16921W        W88647  35.501  13.432   2.365
16922W        W88648  17.045  26.571   1.286
16923W        W88649  30.527   9.655  14.247
16924W        W88650  37.329  15.593   5.032
16925W        W88651  22.138  23.076   4.356
16926W        W88652  30.631  16.380   0.969
16927W        W88653  43.347  13.121   3.728
16928W        W88654  31.474  12.553  11.117
16929W        W88655  38.957  25.605  12.016
16930W        W88656  42.084  16.241   0.245
16931W        W88657  29.271  18.495   1.258
16932W        W88658   9.576  34.992  11.126
16933W        W88659  36.814   2.185  10.703
16934W        W88660   7.383  15.838   3.208
16935W        W88661  44.210  25.057   4.557
16936W        W88662  17.717  38.876  13.994
16937W        W88663  11.830   5.448   0.874
16938W        W88664  40.134  17.182  11.640
16939W        W88665   6.905  41.923  10.486
16940W        W88666  38.962   7.412   4.506
16941W        W88667  13.286   1.033   3.801
16942W        W88668  43.476  25.657  14.868
16943W        W88669  16.084   1.258   4.201
16944W        W88670  19.501  34.121   3.401
16945W        W88671  32.120  36.619  12.077
16946W        W88672  28.775   4.306  14.902
16947W        W88673  28.950   2.192   0.492
16948W        W88674   1.557  38.937   1.368
16949W        W88675  28.408  30.942   3.191
16950W        W88676   6.051  23.963   2.989
16951W        W88677  38.728  27.081  12.352
16952W        W88678  11.110  31.545   1.023
16953W        W88679  40.916  27.995   1.828
16954W        W88680  35.368  44.775   2.326
16955W        W88681  17.721  22.870  12.086
16956W        W88682  25.979  21.448  12.876
16957W        W88683  37.121  29.730   4.115
16958W        W88684  10.184  41.023   0.912
16959W        W88685  25.678  12.198   0.586
16960W        W88686   8.139  40.008   0.034
16961W        W88687  22.080   9.946  12.429
16962W        W88688  14.778   1.941  10.737
16963W        W88689  31.721  42.472   4.594
16964W        W88690  17.784   3.928  11.216
16965W        W88691  15.617  38.654   4.861
16966W        W88692  29.040  13.170  14.703
16967W        W88693  11.260  42.208   2.241
16968W        W88694   1.919  16.560  14.856
16969W        W88695   9.630  12.332  14.983
16970W        W88696  34.356  30.205  11.440
16971W        W88697  35.344  13.897   2.905
16972W        W88698  27.452  24.262   0.769
16973W        W88699  29.485  22.631  13.107
16974W        W88700   8.863   8.367  10.622
16975W        W88701   7.595  20.671   2.724
16976W        W88702  22.314  35.691   3.211
16977W        W88703  37.551  35.156   3.829
16978W        W88704  15.680  19.669   4.252
16979W        W88705  11.159  37.088  14.862
16980W        W88706   8.092   5.114   3.714
16981W        W88707   1.015   9.263   1.363
16982W        W88708  34.077   2.790   3.163
16983W        W88709   8.627  10.039  11.205
16984W        W88710  18.822   9.967   4.560
16985W        W88711  11.195   8.890   4.289
16986W        W88712  20.046  11.295   3.422
16987W        W88713  34.857   4.658  14.696
16988W        W88714  41.509   8.229  14.769
16989W        W88715   4.500  34.236  14.970
16990W        W88716   4.426  39.311  13.878
16991W        W88717  36.424  39.089  10.677
16992W        W88718  30.677  31.708   2.815
16993W        W88719   0.907  20.958   1.721
16994W        W88720  39.805  26.638   1.689
16995W        W88721  13.510  18.247   1.242
16996W        W88722  42.514  16.651   2.093
16997W        W88723  36.419  26.698  13.463
16998W        W88724  40.013  22.321  13.247
16999W        W88725   1.500  42.857  11.595
17000W        W88726  20.156  22.874  14.595
17001W        W88727   5.630  18.269   0.566
17002W        W88728  14.388  18.019  11.238
17003W        W88729   2.735  23.310  11.510
17004W        W88730  23.748   0.184   3.642
17005W        W88731  13.952  27.844  14.691
17006W        W88732  16.530  35.781  11.011
17007W        W88733  39.036  10.659  11.093
17008W        W88734  39.755  24.954  14.955
17009W        W88735  42.953   9.782   2.271
17010W        W88736  26.576  36.834   1.777
17011W        W88737  40.335  15.081  10.691
17012W        W88738  11.730  42.884   4.127
17013W        W88739   1.227  18.767   3.875
17014W        W88740  22.014  16.181  13.800
17015W        W88741  17.897  38.512   1.213
17016W        W88742  42.895   6.831   3.194
17017W        W88743  16.053  43.903   1.357
17018W        W88744  10.589   4.187   4.860
17019W        W88745  21.204  26.718   3.723
17020W        W88746  28.925  26.521  14.341
17021W        W88747  28.041   7.304   2.306
17022W        W88748  35.848  27.665   1.433
17023W        W88749  21.542  33.420  14.413
17024W        W88750  13.631  12.622  11.124
17025W        W88751  24.647   6.159   3.221
17026W        W88752   7.962  23.784   3.881
17027W        W88753  15.084  15.963   3.617
17028W        W88754  31.964   0.893  12.785
17029W        W88755  40.397  22.053  11.620
17030W        W88756  15.650   6.696   2.232
17031W        W88757   6.313  15.326  12.281
17032W        W88758   7.346   9.801   4.084
17033W        W88759  10.646  29.498  14.436
17034W        W88760  17.301  35.417   1.183
17035W        W88761  22.633  44.464   5.060
17036W        W88762  43.494   4.380   0.225
17037W        W88763  34.487  32.001   3.237
17038W        W88764  44.558  37.393  12.936
17039W        W88765   0.766   4.709   4.572
17040W        W88766  36.100  44.376  11.614
17041W        W88767  44.971  12.916  10.744
17042W        W88768  25.787   2.766   1.924
17043W        W88769   3.985  41.116   5.105
17044W        W88770  43.324  41.472  13.782
17045W        W88771  17.066  16.272  14.891
17046W        W88772   3.357  28.773  11.051
17047W        W88773   2.216  12.793   4.177
17048W        W88774  22.506  28.500   2.384
17049W        W88775  40.862  17.512   4.490
17050W        W88776   7.236  12.111  14.425
17051W        W88777   2.333  11.856  14.879
17052W        W88778  35.234  17.656  11.546
17053W        W88779  18.137  11.425   0.493
17054W        W88780  14.520  18.399   1.242
17055W        W88781  21.454  40.857   1.246
17056W        W88782  34.912  19.310   1.479
17057W        W88783  20.968  41.016   0.319
17058W        W88784  20.267  18.177  13.519
17059W        W88785  17.199  18.949   3.751
17060W        W88786   5.859  21.691  11.891
17061W        W88787  42.909   6.422  11.750
17062W        W88788   6.466  11.166  11.057
17063W        W88789  25.997   3.845   1.352
17064W        W88790  24.602  19.133   3.334
17065W        W88791  25.635  17.534   1.395
17066W        W88792  16.658   6.730  14.824
17067W        W88793  42.081  28.619  11.123
17068W        W88794  25.683  37.358  12.492
17069W        W88795   6.750   2.849  10.581
17070W        W88796  15.590  34.478   2.915
17071W        W88797  33.501   9.784   1.816
17072W        W88798  41.096  19.041  14.940
17073W        W88799  44.049  37.361  14.023
17074W        W88800  31.464  36.625   2.299
17075W        W88801  15.131  39.818  14.445
17076W        W88802  35.496  32.542  11.455
17077W        W88803  24.195  29.718  12.529
17078W        W88804   8.795  28.822  14.685
17079W        W88805  20.071  14.610  10.775
17080W        W88806   1.287  33.073   4.751
17081W        W88807  44.762  22.484  10.665
17082W        W88808  24.678  16.638  11.737
17083W        W88809   3.918  44.251   1.668
17084W        W88810  36.326  10.874   3.215
17085W        W88811  38.292  24.502  13.945
17086W        W88812  34.285  20.272  12.930
17087W        W88813   0.936  10.872   2.728
17088W        W88814  38.004   7.964   1.187
17089W        W88815  16.306   9.282  12.279
17090W        W88816  39.774  27.112  14.487
17091W        W88817  37.802  11.815   4.063
17092W        W88818  17.712  17.337   4.787
17093W        W88819   2.819  23.215  14.987
17094W        W88820  26.889  36.754   2.181
17095W        W88821   6.817  13.020  14.677
17096W        W88822  39.631  10.012   1.370
17097W        W88823  18.649   0.283   9.956
17098W        W88824  26.178  23.951  12.959
17099W        W88825   0.388  25.747  12.009
17100W        W88826  11.696  19.080   4.735
17101W        W88827  18.209  29.451  11.634
17102W        W88828  12.745  34.186  11.550
17103W        W88829   4.882  12.425   1.902
17104W        W88830   9.676  24.597   3.766
17105W        W88831  23.434   9.718   1.287
17106W        W88832  44.470  37.924   0.004
17107W        W88833  16.384   5.118  10.654
17108W        W88834  31.612  39.019   3.716
17109W        W88835  40.546  29.466  13.386
17110W        W88836  31.868  13.438   4.807
17111W        W88837   1.562   8.198   2.922
17112W        W88838   9.800  39.517   4.390
17113W        W88839  21.638  37.856   1.723
17114W        W88840  19.990  11.817   1.370
17115W        W88841  42.967  23.575   0.426
17116W        W88842  16.339  29.104  11.685
17117W        W88843  42.052  21.100  13.061
17118W        W88844  28.539  35.327  14.934
17119W        W88845  38.364   3.936  10.833
17120W        W88846  44.084  28.104   4.144
17121W        W88847  37.742  29.448   4.647
17122W        W88848  25.649  27.164   4.431
17123W        W88849  24.500  18.084   1.923
17124W        W88850  18.907   0.432   1.780
17125W        W88851  33.335  26.388  10.690
17126W        W88852  13.146  21.060   4.484
17127W        W88853  42.641  37.416  13.797
17128W        W88854   5.826  17.802  11.184
17129W        W88855  35.668  32.567   1.274
17130W        W88856  26.586  37.635  12.820
17131W        W88857  30.078  31.599   0.530
17132W        W88858  41.054  33.875   2.814
17133W        W88859   3.428  22.789  12.085
17134W        W88860  38.470  29.890   0.422
17135W        W88861  42.387  28.140   0.926
17136W        W88862   0.116  17.578   3.174
17137W        W88863   8.209  44.981   3.915
17138W        W88864  14.869   8.323  14.156
17139W        W88865  14.049   8.692  12.974
17140W        W88866  31.920  28.435  11.525
17141W        W88867  18.545  43.403  12.848
17142W        W88868   8.820  32.594  13.892
17143W        W88869  21.289   7.699   2.002
17144W        W88870  27.420  28.967   3.258
17145W        W88871  41.970  18.714  13.399
17146W        W88872  34.880  44.444   1.367
17147W        W88873  21.614   2.419   2.802
17148W        W88874   5.678  15.995   0.877
17149W        W88875  11.554  22.671   2.255
17150W        W88876  37.162  39.852   4.245
17151W        W88877  31.921   2.432   0.403
17152W        W88878  29.946  17.164  12.051
17153W        W88879  37.295  41.234   3.262
17154W        W88880  42.251  29.980   0.441
17155W        W88881  14.405   8.310   4.589
17156W        W88882  10.134  35.911   2.856
17157W        W88883   4.704  18.121   4.813
17158W        W88884  22.570  15.736  11.017
17159W        W88885  32.611  33.779   4.539
17160W        W88886  39.423  15.311   4.324
17161W        W88887  39.574   6.853   3.712
17162W        W88888  13.656  16.542  14.816
17163W        W88889  34.426  43.082  12.771
17164W        W88890   9.124  13.576  11.662
17165W        W88891  37.449   7.302   3.828
17166W        W88892  18.112   3.599  11.469
17167W        W88893  39.399   1.402   2.376
17168W        W88894  43.195  39.345   0.304
17169W        W88895  31.677  13.553   3.652
17170W        W88896  24.807  38.131  12.205
17171W        W88897  27.481  19.974  13.027
17172W        W88898  32.071  27.051   2.219
17173W        W88899  33.888  35.677   1.377
17174W        W88900  10.182  19.404   1.961
17175W        W88901  29.105  14.251  11.749
17176W        W88902  27.701  18.564  13.630
17177W        W88903  37.440  44.587  11.501
17178W        W88904  21.185  33.096   2.237
17179W        W88905  11.300  40.261  13.595
17180W        W88906   5.332  43.831  13.303
17181W        W88907   5.679  33.601  12.009
17182W        W88908  37.176  19.272   0.992
17183W        W88909  29.173  10.841   4.763
17184W        W88910  16.788   3.676   0.907
17185W        W88911  13.317   7.335  10.580
17186W        W88912   9.252  21.073   4.153
17187W        W88913  29.596   0.835   4.623
17188W        W88914  24.985  16.369   4.664
17189W        W88915  20.081  38.239   0.366
17190W        W88916  30.182  29.948   3.642
17191W        W88917  37.987  32.768  12.506
17192W        W88918  28.785  40.848   0.974
17193W        W88919  10.794  25.440  11.107
17194W        W88920  23.664  16.223   2.941
17195W        W88921  28.093  24.268   1.294
17196W        W88922  13.922  40.141   4.924
17197W        W88923   9.031  44.467   3.879
17198W        W88924  35.154   5.026  14.462
17199W        W88925   1.688  30.224   4.302
17200W        W88926  14.267  28.530  14.729
17201W        W88927   7.498  27.976  13.410
17202W        W88928  38.460  15.266   0.533
17203W        W88929  18.545  27.086   1.583
17204W        W88930  18.350  37.400   0.894
17205W        W88931  14.101  42.308   4.180
17206W        W88932  17.822   1.876   2.218
17207W        W88933  34.330  11.238  12.987
17208W        W88934  10.170  36.647  12.836
17209W        W88935  11.866  24.598   0.856
17210W        W88936  35.987  38.855  14.824
17211W        W88937  30.013  44.770  13.832
17212W        W88938  29.498  16.591   2.134
17213W        W88939  17.961  20.728  11.171
17214W        W88940   2.387   8.864   2.121
17215W        W88941  27.228  31.148  13.484
17216W        W88942   0.019  28.347   2.332
17217W        W88943  32.605  19.624  12.918
17218W        W88944   5.561   5.924   1.238
17219W        W88945  36.091  31.698   2.378
17220W        W88946  25.964   6.015  14.834
17221W        W88947  26.751  24.230   3.302
17222W        W88948  44.382  14.762  12.978
17223W        W88949  42.505  18.156   1.001
17224W        W88950  14.826  20.694   0.379
17225W        W88951  40.040  33.092   2.218
17226W        W88952  22.232  18.821  14.563
17227W        W88953  15.241  21.128   0.983
17228W        W88954  26.965  37.304  12.977
17229W        W88955  43.547   4.920  13.492
17230W        W88956   5.988  43.067  12.061
17231W        W88957  14.513  20.040  14.405
17232W        W88958  38.997  21.236  14.377
17233W        W88959   2.226  39.887   4.150
17234W        W88960   3.209  14.387   2.220
17235W        W88961   3.955  19.542  14.737
17236W        W88962  31.070   8.074  11.082
17237W        W88963  37.510  34.527  12.896
17238W        W88964   1.374  21.688   1.281
17239W        W88965  21.340  19.710  11.599
17240W        W88966  20.162  43.892   2.104
17241W        W88967  36.332  13.832   3.813
17242W        W88968  12.627  13.765   0.369
17243W        W88969  16.493  44.803  11.270
17244W        W88970  17.008  41.783   2.904
17245W        W88971  27.518  25.006   1.295
17246W        W88972  24.937  12.165  13.330
17247W        W88973   6.379  31.587  13.316
17248W        W88974  18.551  38.837  11.219
17249W        W88975   4.891  16.302   5.121
17250W        W88976  13.166   3.970  12.013
17251W        W88977  20.490   5.655  11.565
17252W        W88978   9.236  17.769   0.536
17253W        W88979  18.176   2.542   4.678
17254W        W88980  32.461  26.960   4.427
17255W        W88981   2.257  19.293  10.553
17256W        W88982  24.492  12.071   1.515
17257W        W88983   6.332  18.785  14.231
17258W        W88984  11.652   8.413   3.861
17259W        W88985  42.622  11.364  10.609
17260W        W88986  24.404   2.778   2.931
17261W        W88987   3.438  18.016   0.861
17262W        W88988  13.867  16.657  13.807
17263W        W88989   6.163   9.922  14.945
17264W        W88990  41.305   1.932  12.954
17265W        W88991  24.187   7.147   4.743
17266W        W88992   3.878  41.353  10.769
17267W        W88993  38.527  18.389  12.325
17268W        W88994  38.619  43.416   0.779
17269W        W88995  41.297  24.578  12.120
17270W        W88996  37.569  43.859  12.019
17271W        W88997  32.972  33.963  11.414
17272W        W88998  38.216  16.226  11.698
17273W        W88999  23.178  40.887   3.147
17274W        W89000  14.190  33.548   1.642
17275W        W89001  19.191  27.665   3.127
17276W        W89002  27.882  17.614   4.696
17277W        W89003  33.457  37.988   4.634
17278W        W89004   9.346  27.365   3.694
17279W        W89005  13.127  32.589  12.443
17280W        W89006  12.431  29.547   1.267
17281W        W89007   4.259  39.870  14.957
17282W        W89008  40.554  18.642  11.487
17283W        W89009   0.244  41.257  12.402
17284W        W89010  12.826  37.356   3.575
17285W        W89011  25.483  39.252  13.948
17286W        W89012  42.201  32.954   3.333
17287W        W89013  41.675  28.995   3.265
17288W        W89014   6.810  12.777   5.151
17289W        W89015   6.388  33.189   1.234
17290W        W89016  38.946  28.345   4.044
17291W        W89017  19.857   1.723  14.830
17292W        W89018  16.667  43.678  10.795
17293W        W89019  17.017  34.817  10.384
17294W        W89020  41.761  29.703  14.549
17295W        W89021  28.683   2.239  13.257
17296W        W89022   3.269  26.363  13.967
17297W        W89023  31.617  37.547  14.558
17298W        W89024  31.420   6.202  12.617
17299W        W89025   6.149  20.641   0.923
17300W        W89026   1.362  14.019   2.639
17301W        W89027   9.900  41.667  14.143
17302W        W89028   6.730  12.583  14.946
17303W        W89029  34.912   3.108   2.172
17304W        W89030  14.063  11.172  13.971
17305W        W89031   9.451   7.114  10.304
17306W        W89032  18.510  42.324   4.430
17307W        W89033  17.889  17.663  11.180
17308W        W89034  22.464   0.594   0.978
17309W        W89035  29.416   1.048  14.949
17310W        W89036  19.042  24.546   3.692
17311W        W89037  37.374  38.911   1.365
17312W        W89038  21.636  12.785   3.724
17313W        W89039  21.952  43.493   0.438
17314W        W89040  34.562   9.352   0.397
17315W        W89041  36.771   8.237   2.459
17316W        W89042  42.324   2.081   1.856
17317W        W89043   7.777  16.872   1.453
17318W        W89044   9.378  41.919  12.849
17319W        W89045  29.968  14.636   2.964
17320W        W89046  43.439  28.901   3.247
17321W        W89047   5.628  39.357   4.102
17322W        W89048  39.706   6.312   3.106
17323W        W89049   0.468   7.417  13.333
17324W        W89050  41.112  39.349   3.767
17325W        W89051   4.565  15.233  10.350
17326W        W89052  21.278  39.513   0.807
17327W        W89053   4.249  32.174  12.080
17328W        W89054  26.653  36.694  12.433
17329W        W89055  25.139  11.739  13.559
17330W        W89056  44.376  35.696  13.236
17331W        W89057   4.803  26.244  13.375
17332W        W89058  16.522   3.903   1.265
17333W        W89059  22.590   6.826   3.862
17334W        W89060  41.101  17.263  13.411
17335W        W89061  13.299  30.647  11.853
17336W        W89062  43.263  35.860  10.536
17337W        W89063  36.988  15.215  14.094
17338W        W89064  23.311  26.956   2.674
17339W        W89065  15.983  19.025  14.456
17340W        W89066   3.443   7.927  11.607
17341W        W89067  30.595  38.783   2.203
17342W        W89068  25.584  28.165  14.006
17343W        W89069  32.247  21.487   3.346
17344W        W89070  31.161  28.504   0.007
17345W        W89071  13.852  21.699   1.474
17346W        W89072  13.861  30.520   3.153
17347W        W89073  14.516  37.215   0.789
17348W        W89074  26.500   7.624   1.841
17349W        W89075  44.992   5.744   3.190
17350W        W89076  25.566   0.200  13.877
17351W        W89077  27.248  14.918  11.706
17352W        W89078  30.393  24.736  12.900
17353W        W89079  35.595  31.662   1.402
17354W        W89080  27.208  31.402   1.264
17355W        W89081  39.605  20.127   3.389
17356W        W89082  32.793  30.580  13.267
17357W        W89083  21.200  36.454  13.037
17358W        W89084  15.201  27.529  12.577
17359W        W89085   4.778  33.073  14.982
17360W        W89086  17.031  23.090  13.783
17361W        W89087   1.377  34.935   3.930
17362W        W89088   1.345  18.715   0.415
17363W        W89089   9.999  35.369  13.607
17364W        W89090  28.468  36.069  10.902
17365W        W89091  11.350  39.852  14.431
17366W        W89092  40.412   2.459   3.314
17367W        W89093   3.284  16.831   2.370
17368W        W89094  41.002  14.871   0.903
17369W        W89095  44.385  34.792  11.202
17370W        W89096  24.096   7.590   4.495
17371W        W89097  33.296  28.924   0.871
17372W        W89098  18.256  37.698   2.268
17373W        W89099   4.371  19.136   4.799
17374W        W89100   1.910  15.092   3.593
17375W        W89101  21.261  27.482   0.139
17376W        W89102  33.429  19.669   2.795
17377W        W89103   0.912  25.627  12.093
17378W        W89104  18.714   4.964  12.478
17379W        W89105  40.376  11.849   4.586
17380W        W89106  14.807   2.154  11.209
17381W        W89107   3.019   9.245   3.431
17382W        W89108  28.108  16.366   1.387
17383W        W89109  35.189   9.816   3.629
17384W        W89110  40.526   9.187   1.412
17385W        W89111  27.229  29.563  12.451
17386W        W89112  23.407  40.031   4.015
17387W        W89113  20.790  27.262  14.263
17388W        W89114  26.206   5.322  11.683
17389W        W89115   6.352   2.386   1.770
17390W        W89116  19.781   6.763  13.364
17391W        W89117  23.137  18.635  10.742
17392W        W89118  21.622  18.594   1.901
17393W        W89119  29.447   4.012   4.046
17394W        W89120  42.705  41.779   2.286
17395W        W89121  36.088  44.707  13.375
17396W        W89122  12.156   6.119   4.870
17397W        W89123  43.533  34.999   1.729
17398W        W89124  13.107   2.885   4.633
17399W        W89125   5.367  19.475  14.455
17400W        W89126   0.350  30.907   3.574
17401W        W89127  22.773  32.633  12.402
17402W        W89128  32.357   9.209   2.351
17403W        W89129   7.288  35.126   4.806
17404W        W89130   7.789  40.390  12.110
17405W        W89131  30.447  17.104  12.156
17406W        W89132   8.013  16.321  12.381
17407W        W89133  25.022  13.013   4.316
17408W        W89134  25.137   1.853  14.534
17409W        W89135  18.149  35.572   0.742
17410W        W89136  11.231  40.857   4.150
17411W        W89137  22.084  15.593   1.448
17412W        W89138  27.513   4.972  14.035
17413W        W89139  42.790  15.578  13.822
17414W        W89140   5.483  37.724   3.305
17415W        W89141  10.850  34.385   0.420
17416W        W89142  43.946   1.361  12.801
17417W        W89143  18.795  33.815  11.462
17418W        W89144   0.322   6.384  10.774
17419W        W89145   4.900  27.934   4.154
17420W        W89146   5.707  19.347   3.137
17421W        W89147   2.740  17.051  13.643
17422W        W89148  17.624  26.319   3.089
17423W        W89149  26.963  42.822   1.370
17424W        W89150   1.686   6.228  13.426
17425W        W89151  27.890  29.265   0.945
17426W        W89152  34.385  42.733   2.448
17427W        W89153  15.133  26.243  14.688
17428W        W89154  29.032   1.922   4.518
17429W        W89155  31.704   5.020   3.779
17430W        W89156  13.905  29.099  12.036
17431W        W89157  42.072  30.528  14.202
17432W        W89158  36.924  12.736   0.690
17433W        W89159  39.755  41.928  14.250
17434W        W89160  38.120  43.356  11.147
17435W        W89161  27.545  15.275   1.244
17436W        W89162   4.769  22.213  11.560
17437W        W89163  15.800  16.096   3.343
17438W        W89164  32.674  33.371  14.369
17439W        W89165  40.320  13.802   3.211
17440W        W89166  34.892   0.250  12.796
17441W        W89167  17.798  13.309   3.334
17442W        W89168  24.249  33.006  10.575
17443W        W89169   6.268   3.239   2.429
17444W        W89170  36.395   2.349  12.927
17445W        W89171  11.887  35.927   4.524
17446W        W89172   7.220   1.306   4.908
17447W        W89173  15.273  37.024   5.598
17448W        W89174   3.732  29.546   3.384
17449W        W89175   6.734  44.939   0.930
17450W        W89176  28.414  44.423   4.856
17451W        W89177  16.646   7.417   3.243
17452W        W89178   5.368  41.237   5.029
17453W        W89179  35.890  23.541   4.504
17454W        W89180  32.766  10.066  14.362
17455W        W89181  38.015  35.194  14.035
17456W        W89182   5.662  13.742  13.335
17457W        W89183  28.288  43.219   1.892
17458W        W89184  22.430  36.353   1.354
17459W        W89185  31.667  41.915   1.234
17460W        W89186  38.118  29.013  13.269
17461W        W89187  38.370  30.690   1.262
17462W        W89188  16.573  10.298  10.643
17463W        W89189  27.638  41.103   2.614
17464W        W89190  22.993  42.290   1.993
17465W        W89191  11.541  32.417   4.006
17466W        W89192  24.132   1.927   4.060
17467W        W89193  28.203  14.720  13.038
17468W        W89194   4.578  15.419  12.921
17469W        W89195  22.069   0.719  10.811
17470W        W89196  42.239  33.511  14.434
17471W        W89197  42.551  44.817  12.454
17472W        W89198  23.487   0.256   0.968
17473W        W89199  16.712  13.695   4.233
17474W        W89200  29.945  14.143   4.967
17475W        W89201  33.049  17.711  10.634
17476W        W89202  19.954  32.425   0.623
17477W        W89203  39.704  39.794   1.908
17478W        W89204  27.093  12.164  12.061
17479W        W89205  23.152  11.149   1.906
17480W        W89206  12.214  44.465  13.984
17481W        W89207  32.206  28.110  12.906
17482W        W89208  17.081  24.151   4.518
17483W        W89209  38.590  38.802  13.842
17484W        W89210  15.703  39.497  12.347
17485W        W89211  26.901  12.553  14.869
17486W        W89212   9.723  22.520  14.297
17487W        W89213  28.434  25.947   4.645
17488W        W89214  13.278   3.477  11.978
17489W        W89215  34.460  36.344  11.625
17490W        W89216   2.980  13.240  13.826
17491W        W89217  38.046  13.282  12.036
17492W        W89218  34.622  23.298  14.363
17493W        W89219  26.374  27.264   4.986
17494W        W89220  10.695  39.930   2.312
17495W        W89221  14.697  11.879  12.966
17496W        W89222  12.241  20.039  11.555
17497W        W89223  36.621  32.095  12.340
17498W        W89224  17.323  44.261  11.972
17499W        W89225  44.475  35.564   3.615
17500W        W89226  31.870  27.834   1.020
17501W        W89227  13.701   0.248   0.252
17502W        W89228  36.297  43.358   0.534
17503W        W89229  13.674  21.039   1.502
17504W        W89230  29.729  10.856   2.734
17505W        W89231   1.848   5.407   2.802
17506W        W89232  41.509  30.109   4.525
17507W        W89233  14.223  22.636  10.928
17508W        W89234  33.892   4.792   3.731
17509W        W89235  27.997  16.674   2.197
17510W        W89236   7.798  16.351   4.179
17511W        W89237  35.064   0.242   1.808
17512W        W89238  35.364   1.880   4.163
17513W        W89239  13.755  20.440   2.349
17514W        W89240  23.909  22.024  14.947
17515W        W89241  35.065  34.950   4.624
17516W        W89242  15.235   7.026   1.310
17517W        W89243   8.243  25.428  10.370
17518W        W89244   4.438  35.429   1.823
17519W        W89245  12.337   9.730   1.445
17520W        W89246   2.722  26.124  12.703
17521W        W89247  21.614   8.616  13.381
17522W        W89248  31.397  42.380   4.967
17523W        W89249  25.067  17.529   2.278
17524W        W89250   8.606  23.711  12.438
17525W        W89251  12.908   6.885   1.473
17526W        W89252  30.285  15.086  14.364
17527W        W89253  37.051  34.689  13.893
17528W        W89254  38.485  11.219  11.460
17529W        W89255  35.610   8.469  10.770
17530W        W89256  41.354  42.869   1.217
17531W        W89257   7.056   4.970  11.602
17532W        W89258  25.695  21.229  12.199
17533W        W89259   4.395  15.208  13.989
17534W        W89260  41.508   0.408  12.119
17535W        W89261  43.976   1.850   3.603
17536W        W89262  20.174  28.648   3.691
17537W        W89263   6.903  22.151  14.978
17538W        W89264  22.777  12.515  11.127
17539W        W89265  14.810   8.201   3.319
17540W        W89266   9.140  30.175  13.550
17541W        W89267  10.862  37.349  10.775
17542W        W89268  21.204  19.052  11.095
17543W        W89269  25.063  37.947   1.347
17544W        W89270  24.696  25.049   2.832
17545W        W89271  13.409  39.807   4.782
17546W        W89272  24.247  40.035  11.559
17547W        W89273   7.367   4.771   9.373
17548W        W89274  39.926  10.279   4.904
17549W        W89275  26.680  32.039  14.905
17550W        W89276  20.263  21.771  12.490
17551W        W89277  35.774  44.820  14.226
17552W        W89278   3.385  39.262  14.481
17553W        W89279  37.026  22.180   3.299
17554W        W89280   1.311  21.187   0.179
17555W        W89281  14.216  22.457  12.900
17556W        W89282  10.210  14.589  13.742
17557W        W89283   7.914  18.039   4.101
17558W        W89284  22.201  27.518   1.385
17559W        W89285  38.372  35.186  14.851
17560W        W89286  20.431   1.212   0.407
17561W        W89287  18.494  21.702  13.553
17562W        W89288   0.980  19.281   4.634
17563W        W89289  20.131   8.335  13.364
17564W        W89290   6.749  19.068  11.092
17565W        W89291   1.241  10.414   0.695
17566W        W89292  37.692  23.184   4.945
17567W        W89293  40.537  35.541   0.315
17568W        W89294  28.771  39.882  11.541
17569W        W89295   4.817  42.345  14.053
17570W        W89296  44.428  42.243   3.311
17571W        W89297  37.585   5.974   3.720
17572W        W89298   2.222   5.157  14.445
17573W        W89299   3.347   7.203  11.162
17574W        W89300  39.160   6.211   1.269
17575W        W89301  25.180  39.706  11.480
17576W        W89302   8.306  11.315   0.451
17577W        W89303   7.635  27.110  14.828
17578W        W89304   3.937   4.226  13.052
17579W        W89305  13.845  26.725  10.701
17580W        W89306  14.064  37.822   4.733
17581W        W89307  14.811  18.223   9.819
17582W        W89308  40.545   0.361   1.931
17583W        W89309   8.687  36.411   3.755
17584W        W89310  40.713   5.861  13.934
17585W        W89311  11.618  42.499   1.807
17586W        W89312  33.585  15.098  10.994
17587W        W89313  11.528  21.642   0.437
17588W        W89314  28.407   4.189   2.882
17589W        W89315   9.752  38.281  13.496
17590W        W89316  10.580  11.850   2.766
17591W        W89317   5.747  17.562   3.139
17592W        W89318  12.797  25.853   3.661
17593W        W89319  41.588  30.630  14.029
17594W        W89320  12.310   5.816  12.307
17595W        W89321  36.950   5.020   3.793
17596W        W89322   1.748  39.114   3.228
17597W        W89323  26.107  29.437  14.010
17598W        W89324   2.690   1.351  10.840
17599W        W89325   4.162  35.010   0.191
17600W        W89326   3.335   4.347   3.950
17601W        W89327  43.830  31.156  13.284
17602W        W89328  35.559  41.574  14.890
17603W        W89329  37.954  25.431  14.468
17604W        W89330  40.414  36.321  10.805
17605W        W89331  31.668  24.164   3.870
17606W        W89332  21.975  25.167  12.278
17607W        W89333  15.126   6.458  13.440
17608W        W89334  17.974  29.216  14.513
17609W        W89335  34.624  19.988   0.880
17610W        W89336   2.462  41.062   4.146
17611W        W89337   5.903  26.087  14.960
17612W        W89338  27.672   2.515   3.810
17613W        W89339  17.323  34.836  12.102
17614W        W89340   1.502  16.670   1.747
17615W        W89341  32.519  39.368   4.678
17616W        W89342   3.140  17.650   4.115
17617W        W89343  21.057  11.809  12.829
17618W        W89344   7.156  15.810   0.812
17619W        W89345  20.024  36.958   4.668
17620W        W89346  32.096  22.951   2.844
17621W        W89347  29.011  36.347  13.343
17622W        W89348  24.861  25.069  11.567
17623W        W89349  34.039  43.329   5.489
17624W        W89350  15.163   7.180  11.413
17625W        W89351   8.319   8.663   4.533
17626W        W89352  30.179  12.808   4.774
17627W        W89353  29.021  28.936   1.117
17628W        W89354  39.877   3.452  14.008
17629W        W89355  44.294  21.685  12.143
17630W        W89356  19.210   6.365  14.533
17631W        W89357  25.862   7.140  10.894
17632W        W89358  34.028  21.643   0.065
17633W        W89359  37.169  36.066   1.943
17634W        W89360   3.730   0.862  13.529
17635W        W89361  41.721  37.617  13.793
17636W        W89362   5.057  22.709   4.560
17637W        W89363  27.224  36.077   4.812
17638W        W89364  44.493   8.929  12.472
17639W        W89365  42.402  12.914   4.664
17640W        W89366  17.132  27.545   0.221
17641W        W89367  29.816   3.349  12.723
17642W        W89368  31.883  27.596   3.775
17643W        W89369  27.633  33.109  11.941
17644W        W89370  12.095   3.373   0.344
17645W        W89371  11.157  33.626  13.271
17646W        W89372  11.593   9.200   1.279
17647W        W89373  27.283  27.930  12.002
17648W        W89374  18.130   1.910   1.356
17649W        W89375   5.688  29.198  11.960
17650W        W89376  33.296  44.240   3.420
17651W        W89377  22.095  40.352   0.775
17652W        W89378  38.862  35.834  11.642
17653W        W89379  26.160   4.858  10.929
17654W        W89380  41.993  23.502  14.335
17655W        W89381   1.333  42.978   1.515
17656W        W89382   6.364  31.831   1.631
17657W        W89383  35.387   5.439   3.895
17658W        W89384   8.917  25.688  13.039
17659W        W89385   8.603  10.304   4.589
17660W        W89386  16.101  28.612   3.941
17661W        W89387   5.359  34.038   3.196
17662W        W89388  34.145  13.287   2.508
17663W        W89389  18.687  21.801   3.359
17664W        W89390  40.426  44.736  12.574
17665W        W89391  19.673  13.302  11.139
17666W        W89392  44.069   1.370  11.156
17667W        W89393   9.900  36.911   2.918
17668W        W89394  29.771  44.507   1.262
17669W        W89395  27.451  43.473   1.464
17670W        W89396   2.822  41.440  13.816
17671W        W89397  10.264  11.234   1.203
17672W        W89398   3.721  37.946  10.694
17673W        W89399  10.597  13.748  10.742
17674W        W89400  30.469  41.881  10.081
17675W        W89401  38.766  13.403  12.934
17676W        W89402  13.782  37.455   0.844
17677W        W89403   9.285  30.974   3.536
17678W        W89404   1.207   6.813  11.666
17679W        W89405  29.671  37.439  12.096
17680W        W89406   9.219   8.184   1.870
17681W        W89407  43.184  11.771   4.195
17682W        W89408  29.086  40.795  12.989
17683W        W89409  17.885  35.218  11.202
17684W        W89410  38.105   4.343  10.665
17685W        W89411  39.490  31.024  10.906
17686W        W89412  36.160  11.102   2.763
17687W        W89413  14.982  38.374   0.307
17688W        W89414  28.519   4.689  13.945
17689W        W89415  17.800   1.762   4.901
17690W        W89416  43.333  14.375   4.676
17691W        W89417  21.568  43.591  12.307
17692W        W89418  12.031  28.249  12.120
17693W        W89419  43.717  29.555  12.534
17694W        W89420  44.009  32.681  11.676
17695W        W89421  37.835  41.379   0.416
17696W        W89422   2.945   2.756  14.367
17697W        W89423  11.977   0.491   2.735
17698W        W89424   9.868   1.436   3.270
17699W        W89425  34.051   7.651  14.938
17700W        W89426  34.677  40.861  11.630
17701W        W89427  15.349  38.756  13.567
17702W        W89428  35.892  14.595  12.910
17703W        W89429  22.376   1.759  11.552
17704W        W89430  20.597   6.872   2.170
17705W        W89431   3.853  43.989   3.556
17706W        W89432   3.450  16.779   4.593
17707W        W89433  16.845  29.936  12.544
17708W        W89434  31.957  35.604  12.918
17709W        W89435  17.780  44.075  13.665
17710W        W89436  22.595  44.779   1.800
17711W        W89437   4.011   0.958  13.080
17712W        W89438  29.535  21.214   0.301
17713W        W89439  28.139  30.158   0.297
17714W        W89440  32.311  13.154  13.901
17715W        W89441   8.726   1.288   0.333
17716W        W89442  25.133  11.857   2.615
17717W        W89443   1.894  42.567   2.379
17718W        W89444  24.690  11.391   1.748
17719W        W89445  22.651   4.426  14.488
17720W        W89446  31.012   9.714   2.300
17721W        W89447  31.844  22.219   0.416
17722W        W89448  14.772  26.202   2.118
17723W        W89449   3.421  41.950  11.138
17724W        W89450  38.751   0.917   4.760
17725W        W89451  31.969  20.662   1.743
17726W        W89452  10.457  17.547   3.617
17727W        W89453   7.311  20.297  14.747
17728W        W89454  38.907  20.057  11.657
17729W        W89455  41.331  16.466  14.752
17730W        W89456   7.005  32.950   1.169
17731W        W89457   3.881   2.784  14.877
17732W        W89458  18.057  12.771  11.051
17733W        W89459  25.512   8.332  13.380
17734W        W89460  43.221   6.239  10.365
17735W        W89461  37.093  35.978   3.686
17736W        W89462  29.247  32.918  14.513
17737W        W89463   3.708  32.330  13.469
17738W        W89464  34.637  17.099  14.841
17739W        W89465   8.318  44.758   3.448
17740W        W89466  41.349  15.294  10.483
17741W        W89467   3.257  17.541  14.993
17742W        W89468  38.991  13.357  11.064
17743W        W89469  36.017  33.978   3.881
17744W        W89470   8.805   7.671   3.848
17745W        W89471  10.394   9.262   3.845
17746W        W89472  24.572  33.832   3.228
17747W        W89473  12.572  22.133   4.736
17748W        W89474   5.735  38.116  12.398
17749W        W89475  30.925   8.807   1.670
17750W        W89476  14.232  17.525  12.921
17751W        W89477  29.025  14.383   3.752
17752W        W89478  44.927  27.871   3.682
17753W        W89479  14.184  22.528  11.463
17754W        W89480  43.995  29.134  13.457
17755W        W89481  35.137  34.554  11.721
17756W        W89482  15.443  13.537  14.858
17757W        W89483  44.550  30.154  13.899
17758W        W89484   1.918   2.325   0.284
17759W        W89485  23.256  32.846  11.484
17760W        W89486   1.134   7.285   2.799
17761W        W89487  39.711  36.029   3.513
17762W        W89488  35.795  22.472   2.235
17763W        W89489  36.881  27.391  11.703
17764W        W89490  31.963   0.835   2.701
17765W        W89491  20.075  20.642   5.070
17766W        W89492   5.491  11.262  11.130
17767W        W89493  10.637  21.724   4.347
17768W        W89494  22.638   8.215  12.472
17769W        W89495  10.161  10.418  13.794
17770W        W89496   5.800  27.711  10.969
17771W        W89497  25.815  35.382  14.174
17772W        W89498  39.586  31.249   1.149
17773W        W89499   7.869  38.601  10.833
17774W        W89500  26.642  43.473   1.817
17775W        W89501  24.516  36.422  13.240
17776W        W89502  44.096  11.093  13.361
17777W        W89503  12.783  36.686   2.818
17778W        W89504  34.810  32.259  11.167
17779W        W89505  34.819  12.684   3.227
17780W        W89506   4.177   6.148  14.458
17781W        W89507  18.168   6.370  14.511
17782W        W89508  32.850  17.688   2.642
17783W        W89509  42.625  27.552  11.751
17784W        W89510  40.963  29.186   0.921
17785W        W89511  21.486  11.901  12.285
17786W        W89512  44.406   0.950  12.063
17787W        W89513  34.640   0.558   2.689
17788W        W89514   3.709  17.272   3.888
17789W        W89515  29.501  25.860  12.850
17790W        W89516  37.398   9.701   4.852
17791W        W89517   3.124  24.133   0.888
17792W        W89518  21.610  44.795  13.589
17793W        W89519   3.213   1.448  14.279
17794W        W89520  41.229   6.913  14.710
17795W        W89521  28.389  29.970   3.921
17796W        W89522  19.671  33.726   5.066
17797W        W89523  14.820  17.194   0.915
17798W        W89524  41.686  12.726   0.188
17799W        W89525  16.567  27.602  14.566
17800W        W89526  21.659  43.565   2.363
17801W        W89527  26.937  21.924   4.507
17802W        W89528  21.020  26.543   2.898
17803W        W89529   1.320  16.745  12.830
17804W        W89530  35.327  32.511   3.153
17805W        W89531  36.138  27.134  14.262
17806W        W89532  11.327  10.283  11.376
17807W        W89533  31.931  38.509   0.059
17808W        W89534   7.385  43.513   0.516
17809W        W89535  44.300  24.761  11.159
17810W        W89536   7.326   7.481   3.759
17811W        W89537  15.295  15.217   0.920
17812W        W89538  19.356   6.446   3.076
17813W        W89539  39.020  44.368  13.307
17814W        W89540   3.688  12.378   0.410
17815W        W89541  31.624   1.359  13.876
17816W        W89542  34.340  34.106   3.201
17817W        W89543  15.091  17.956  13.830
17818W        W89544   7.771  10.577  11.091
17819W        W89545  12.765  31.087   1.890
17820W        W89546  32.087  28.666  12.849
17821W        W89547  33.475  11.037   4.084
17822W        W89548  15.648  17.618   1.328
17823W        W89549  41.908  42.447  13.310
17824W        W89550  39.021  32.811   0.816
17825W        W89551   9.217  28.197  14.969
17826W        W89552  36.628  34.265   4.315
17827W        W89553   6.948   0.274  13.908
17828W        W89554   6.312   2.996   0.646
17829W        W89555   0.239  17.825   2.233
17830W        W89556  19.266  42.785  10.339
17831W        W89557  38.438  44.668   2.482
17832W        W89558  35.629  22.191  14.471
17833W        W89559  35.045  10.703  12.957
17834W        W89560  40.764  14.336  14.366
17835W        W89561  44.805  25.061   3.661
17836W        W89562   0.733  15.505  11.159
17837W        W89563  40.266  14.005  10.065
17838W        W89564  20.861  36.204   2.379
17839W        W89565  25.092  43.877  12.894
17840W        W89566  11.380  41.150  14.041
17841W        W89567   3.218   1.430  12.881
17842W        W89568  16.008   9.679  13.998
17843W        W89569  22.518  19.822  12.559
17844W        W89570  39.098  18.189  10.648
17845W        W89571  33.332  13.596  14.270
17846W        W89572   4.417  16.162   0.355
17847W        W89573  11.317   7.245   2.857
17848W        W89574  28.612  34.253  12.561
17849W        W89575  31.650  42.214  13.227
17850W        W89576  31.558  39.801   3.585
17851W        W89577   5.682  17.395  11.975
17852W        W89578  36.573  31.338   3.250
17853W        W89579  40.362  11.228   1.238
17854W        W89580  31.124  16.145   0.312
17855W        W89581   8.869   5.864   2.755
17856W        W89582   0.409   3.685   2.873
17857W        W89583  19.254  13.920   2.485
17858W        W89584  39.428   7.724  12.065
17859W        W89585  18.180  41.800  11.383
17860W        W89586  17.274  31.027  14.360
17861W        W89587  35.083   2.874   4.738
17862W        W89588   3.376  37.800  11.653
17863W        W89589   6.859   2.966   1.400
17864W        W89590  30.270  25.021  10.903
17865W        W89591  15.231  31.006  13.691
17866W        W89592  41.566  21.054  13.341
17867W        W89593  23.984  32.268  11.544
17868W        W89594  38.283   0.357   1.767
17869W        W89595   8.238  28.262  12.095
17870W        W89596   8.473  43.050   1.341
17871W        W89597  25.781  17.136   3.325
17872W        W89598  35.123  23.138  13.543
17873W        W89599   7.910  17.120   3.189
17874W        W89600   0.117  13.068  11.293
17875W        W89601  28.491  27.129   3.055
17876W        W89602   8.244  44.070  14.433
17877W        W89603  12.890  27.244   3.835
17878W        W89604   1.836  33.865   4.571
17879W        W89605  33.484  22.506   4.587
17880W        W89606  33.464  17.166  14.248
17881W        W89607  20.578   6.321  12.010
17882W        W89608  21.694  24.709   2.621
17883W        W89609  30.659  44.313  13.583
17884W        W89610  35.505  43.379  13.287
17885W        W89611  43.401   2.898  13.578
17886W        W89612  42.494  36.947  13.458
17887W        W89613   1.680   9.765  11.035
17888W        W89614  43.517  10.739  14.406
17889W        W89615   1.187  36.922   2.387
17890W        W89616  44.003  33.190  11.636
17891W        W89617   8.891  28.787  12.474
17892W        W89618  41.105   4.468  12.140
17893W        W89619  19.172  30.044  13.129
17894W        W89620  13.555   4.340  11.960
17895W        W89621   5.754   0.401   0.436
17896W        W89622   6.909  38.779   1.738
17897W        W89623  32.720  35.398  11.071
17898W        W89624  33.672   9.271   4.011
17899W        W89625  15.660  31.606  14.005
17900W        W89626   2.137  40.421  13.296
17901W        W89627  24.695  29.640   4.915
17902W        W89628   3.228  17.306   3.719
17903W        W89629  10.245  24.171  11.946
17904W        W89630  39.055  18.231  11.520
17905W        W89631  23.317  13.172   2.476
17906W        W89632  22.536   2.385   0.744
17907W        W89633  26.112  34.117   1.486
17908W        W89634  36.131  41.575   0.816
17909W        W89635  10.538  19.231   3.908
17910W        W89636  17.287  44.344   3.639
17911W        W89637  30.511  36.328  11.259
17912W        W89638  10.740  16.330  13.361
17913W        W89639  19.160  15.450   0.899
17914W        W89640  18.358  25.508  13.794
17915W        W89641  39.808   1.346   0.974
17916W        W89642  26.180  41.086   2.774
17917W        W89643   2.951  42.283   0.312
17918W        W89644  14.763  27.154  11.562
17919W        W89645  42.823  35.450  11.086
17920W        W89646  11.672  38.909  14.264
17921W        W89647  17.140  32.056   1.703
17922W        W89648  31.040  36.186   4.060
17923W        W89649  18.274   4.993   3.216
17924W        W89650  35.747  29.578   0.394
17925W        W89651  33.397  13.415   3.686
17926W        W89652  43.965  18.192  13.862
17927W        W89653  38.023  37.490   4.633
17928W        W89654   9.725  25.225   4.859
17929W        W89655   5.587  25.040  10.732
17930W        W89656  19.901  34.796   0.247
17931W        W89657  33.942  38.518   0.355
17932W        W89658  23.028   7.263   2.123
17933W        W89659  41.582  44.449   1.912
17934W        W89660  20.217  31.962   2.714
17935W        W89661  32.053  22.223  14.823
17936W        W89662   3.841   3.644  13.873
17937W        W89663  37.393  18.543  12.056
17938W        W89664  16.534  18.499  14.013
17939W        W89665  34.580  20.358   4.181
17940W        W89666  33.384  14.051  14.484
17941W        W89667  16.610  25.304  13.482
17942W        W89668   2.806  26.179  13.193
17943W        W89669   7.189  19.722   0.384
17944W        W89670  11.981  24.466   0.356
17945W        W89671  16.137   0.334  14.272
17946W        W89672  29.672  41.026   2.340
17947W        W89673  34.699  24.245   0.380
17948W        W89674  10.763  35.599   3.677
17949W        W89675  40.724  16.077   4.141
17950W        W89676   1.315  35.905   0.460
17951W        W89677  44.774  11.366   1.855
17952W        W89678  27.446   7.359  14.905
17953W        W89679  39.741  37.100   2.408
17954W        W89680  18.012  38.280  14.422
17955W        W89681  10.751  15.378   2.402
17956W        W89682  24.202  35.091   4.181
17957W        W89683  25.187  31.951   1.865
17958W        W89684  15.826   2.500   0.360
17959W        W89685   3.612   3.432  12.948
17960W        W89686  32.516  13.081  12.501
17961W        W89687   2.848  18.307   3.590
17962W        W89688   8.789  17.707   2.857
17963W        W89689  34.521  30.622   3.257
17964W        W89690  24.274   4.688   4.004
17965W        W89691  21.046   3.277   2.442
17966W        W89692  34.320   0.008   3.732
17967W        W89693  13.378   8.719   1.490
17968W        W89694  38.434   0.701   4.391
17969W        W89695  36.015  18.882   3.476
17970W        W89696   3.955  41.356   3.778
17971W        W89697   9.902  12.856   0.834
17972W        W89698  22.061   5.403   4.222
17973W        W89699  26.087   7.781   3.438
17974W        W89700   3.866  18.067   3.024
17975W        W89701   0.399  11.068  11.569
17976W        W89702  32.116   7.060   0.849
17977W        W89703   6.995  28.859  11.869
17978W        W89704  28.983   2.525   3.375
17979W        W89705  10.552   1.214  14.253
17980W        W89706  30.544   9.677   3.760
17981W        W89707  25.472  38.821   2.259
17982W        W89708  15.492  13.402  14.289
17983W        W89709   3.987  18.080   0.853
17984W        W89710  28.065  25.079  13.513
17985W        W89711  25.790  20.288   4.283
17986W        W89712  24.084  35.206  12.922
17987W        W89713  28.510  37.416   0.122
17988W        W89714  11.689   3.948   3.650
17989W        W89715  39.876  28.943  12.202
17990W        W89716  26.201  22.701  13.698
17991W        W89717   3.536  41.833   0.308
17992W        W89718  22.474  27.223   1.844
17993W        W89719  43.501  31.879   3.830
17994W        W89720  30.163   8.879  11.742
17995W        W89721  43.766  21.583  13.730
17996W        W89722  15.592  15.898   0.915
17997W        W89723  29.925   7.908   4.634
17998W        W89724  12.407  15.326  12.057
17999W        W89725   0.393   4.641   1.024
18000W        W89726  13.399  40.612  14.293
18001W        W89727  21.276  20.586   1.840
18002W        W89728  16.541  38.313  10.708
18003W        W89729  12.840  30.140  12.502
18004W        W89730  25.225  35.566   2.215
18005W        W89731  39.031  28.679   0.439
18006W        W89732  36.913  39.485   0.336
18007W        W89733  16.743  10.870   0.754
18008W        W89734   1.961  17.993   2.132
18009W        W89735  16.700  17.330   2.436
18010W        W89736  37.122  39.930   0.495
18011W        W89737  40.935  15.361   4.603
18012W        W89738  34.130  29.940  14.925
18013W        W89739  30.997  17.731  14.733
18014W        W89740  32.001  28.604  13.884
18015W        W89741  13.173  29.958   1.311
18016W        W89742  36.817  11.262   1.644
18017W        W89743  18.028  43.609   3.014
18018W        W89744   5.998   4.981   2.140
18019W        W89745   1.355  27.750   3.562
18020W        W89746  26.719  19.007  11.019
18021W        W89747   7.918   4.216  12.297
18022W        W89748  15.103   7.631  11.089
18023W        W89749  25.349  19.475  10.201
18024W        W89750  18.557  42.809   4.612
18025W        W89751  25.935  36.084  13.586
18026W        W89752  35.559  12.661  12.643
18027W        W89753  10.811   3.634  13.960
18028W        W89754   0.513  10.297  12.981
18029W        W89755   7.178   5.156   0.796
18030W        W89756  13.353  37.075  12.405
18031W        W89757  44.456  10.431  10.285
18032W        W89758  33.542  14.026   3.413
18033W        W89759  35.560  36.993   1.914
18034W        W89760  22.326  37.565   4.764
18035W        W89761  13.325  17.991   5.151
18036W        W89762   5.413  17.168  14.106
18037W        W89763  10.849  12.166  14.505
18038W        W89764  24.538  27.057  10.253
18039W        W89765  41.356  17.689   0.470
18040W        W89766  30.000   0.291  11.603
18041W        W89767  21.819   9.846  14.245
18042W        W89768  44.420  42.443  14.317
18043W        W89769  12.752  42.400   4.395
18044W        W89770   6.911  18.673   0.972
18045W        W89771  25.166  10.313  11.512
18046W        W89772  43.098  27.023   4.268
18047W        W89773  10.239  15.166  13.640
18048W        W89774  11.560  24.150  12.509
18049W        W89775   2.690  15.834  11.109
18050W        W89776  19.142   0.207   2.695
18051W        W89777  41.996  17.637  12.493
18052W        W89778  18.665  12.399  11.176
18053W        W89779  42.346  10.409  13.420
18054W        W89780  11.365   3.680  12.395
18055W        W89781  14.248  34.494   1.722
18056W        W89782   0.386  23.459   0.426
18057W        W89783  36.856  22.250   3.787
18058W        W89784   0.509   7.767  14.104
18059W        W89785  42.999  32.466  13.553
18060W        W89786   0.630  27.981   1.181
18061W        W89787  43.663  11.226  11.602
18062W        W89788  43.447   0.316  14.011
18063W        W89789   9.170  20.908  11.295
18064W        W89790  22.722  13.061   3.651
18065W        W89791  28.038  22.629   1.054
18066W        W89792  39.487  14.028   2.301
18067W        W89793   0.990   7.968  14.884
18068W        W89794  42.981  16.065  13.923
18069W        W89795  19.062   6.158  13.518
18070W        W89796  27.381  14.535   4.560
18071W        W89797  37.090  43.349  12.971
18072W        W89798  11.266  24.994   2.930
18073W        W89799  38.035  32.068  13.504
18074W        W89800  13.295  36.864  13.837
18075W        W89801  43.480  16.095  10.694
18076W        W89802   8.797   9.364   4.729
18077W        W89803  37.255   9.227   1.793
18078W        W89804  16.199   7.383   2.783
18079W        W89805  29.165  14.973   3.898
18080W        W89806  43.324  26.151   4.380
18081W        W89807  24.384   6.930  14.865
18082W        W89808  42.214  33.937   0.818
18083W        W89809   7.160  11.593  10.677
18084W        W89810  16.587  43.580   4.166
18085W        W89811  16.202  23.572   4.652
18086W        W89812  21.586  42.370   3.736
18087W        W89813  24.764  29.643   2.396
18088W        W89814   3.705  43.642   0.036
18089W        W89815  23.683   1.711   3.574
18090W        W89816  39.012   2.784   0.232
18091W        W89817  30.201  40.591  12.028
18092W        W89818  27.331   4.953   4.005
18093W        W89819  19.254   4.138  11.531
18094W        W89820  29.886   4.969   1.402
18095W        W89821  19.611  35.621  11.034
18096W        W89822  21.905  30.079   4.243
18097W        W89823  35.833  44.225  13.319
18098W        W89824   6.379  43.514   1.353
18099W        W89825   4.009  10.255   2.445
18100W        W89826  33.355  18.523   2.634
18101W        W89827  13.541  19.845   4.374
18102W        W89828  44.518  29.680   4.169
18103W        W89829   6.934  36.962  11.500
18104W        W89830  33.727   2.713   3.763
18105W        W89831  22.253  37.611   1.853
18106W        W89832  14.604  40.356  13.953
18107W        W89833  21.749  13.809  13.359
18108W        W89834  22.073  42.956   3.127
18109W        W89835  38.101  39.045   2.831
18110W        W89836   8.917  35.534  13.808
18111W        W89837  22.187  43.791  11.707
18112W        W89838  40.570   5.717   2.241
18113W        W89839  31.125   7.573  14.851
18114W        W89840  35.025  17.207  12.339
18115W        W89841  12.885   7.985  13.663
18116W        W89842  12.827  11.688   0.786
18117W        W89843  24.615   3.862  14.915
18118W        W89844   2.378   3.297  10.572
18119W        W89845  34.627  15.647   1.230
18120W        W89846  27.275  11.170  10.817
18121W        W89847  19.039  21.286  14.041
18122W        W89848  27.136   2.779   1.768
18123W        W89849  33.569  40.906  13.030
18124W        W89850  41.523  44.309   2.419
18125W        W89851  26.033   3.009   0.292
18126W        W89852   6.567  40.809   3.733
18127W        W89853  36.104  35.634   3.288
18128W        W89854  38.012  27.653  11.491
18129W        W89855   6.900  26.464   3.675
18130W        W89856   3.584  19.140   1.332
18131W        W89857  28.072  35.140  11.021
18132W        W89858  36.846   8.725   4.067
18133W        W89859  17.815  36.046   4.262
18134W        W89860  29.487  20.679   2.273
18135W        W89861   5.983  15.244  10.152
18136W        W89862  34.472  41.066  13.697
18137W        W89863  33.093  30.552   3.995
18138W        W89864  12.128  41.029  12.796
18139W        W89865  18.779  30.658  13.424
18140W        W89866  44.845   4.513  12.972
18141W        W89867  26.483  25.177   2.314
18142W        W89868  12.146   3.936  12.881
18143W        W89869  23.278  24.551  11.395
18144W        W89870  26.622  44.801  12.034
18145W        W89871  36.039  35.348  11.563
18146W        W89872  25.766  40.342   2.287
18147W        W89873  14.226  33.865  14.024
18148W        W89874  32.927   4.635   4.701
18149W        W89875   7.741   1.717   1.777
18150W        W89876   3.153   7.275  13.885
18151W        W89877  10.851  38.131   2.837
18152W        W89878  24.492  30.074  11.241
18153W        W89879  18.543  17.687   4.379
18154W        W89880  14.165  40.601  13.835
18155W        W89881  14.782  41.088  14.346
18156W        W89882  27.209  35.441  14.462
18157W        W89883  31.014  15.761   2.793
18158W        W89884  24.687  26.561   0.813
18159W        W89885  19.771  23.985  12.655
18160W        W89886  27.199  19.094  14.143
18161W        W89887  34.499  13.041   4.152
18162W        W89888  43.512  38.928   2.907
18163W        W89889   3.944  31.216   2.336
18164W        W89890  37.756  31.030   3.604
18165W        W89891  21.156  17.024   1.321
18166W        W89892   8.147  27.036   1.682
18167W        W89893  37.128  19.277   1.776
18168W        W89894  24.185   2.474  13.946
18169W        W89895  16.703  33.903  14.409
18170W        W89896   2.429   6.804   4.760
18171W        W89897   3.719  21.207  12.007
18172W        W89898  23.726  16.929  10.574
18173W        W89899  11.732  11.097   1.630
18174W        W89900  37.819  38.990   4.068
18175W        W89901  38.974  13.089   0.447
18176W        W89902  34.406  36.815   4.595
18177W        W89903  22.161  23.542   4.711
18178W        W89904  42.349  31.973  12.780
18179W        W89905   4.354   5.793   2.301
18180W        W89906  10.879   5.688   2.938
18181W        W89907  19.329  17.575  12.486
18182W        W89908   5.978  12.693   2.747
18183W        W89909  19.755  40.661  11.185
18184W        W89910   5.752   4.684  13.939
18185W        W89911  31.631  42.971   1.802
18186W        W89912  20.307  32.009   0.439
18187W        W89913  29.911  21.229  10.524
18188W        W89914  40.678  29.297   3.153
18189W        W89915  14.042  27.125  13.871
18190W        W89916  25.035  18.309   1.513
18191W        W89917  36.452  41.869   3.400
18192W        W89918  29.431   2.986  11.545
18193W        W89919   4.827  22.474   5.073
18194W        W89920  23.177  23.974  12.155
18195W        W89921   6.427  27.092   2.866
18196W        W89922  16.057   1.181  12.070
18197W        W89923  20.284  33.001  13.968
18198W        W89924  39.921  35.564  11.593
18199W        W89925   9.927  24.285   3.420
18200W        W89926  42.468  26.327   0.537
18201W        W89927  26.946   4.419   0.164
18202W        W89928  44.258  42.284   3.788
18203W        W89929  15.637  35.303   1.836
18204W        W89930  17.362  35.971  10.150
18205W        W89931   5.806   5.206   4.116
18206W        W89932  31.077  19.634   0.236
18207W        W89933  27.078  44.752  14.210
18208W        W89934  42.917  41.068  13.564
18209W        W89935  33.087  30.165   3.603
18210W        W89936   6.322  39.050  10.701
18211W        W89937  16.076  10.862  10.991
18212W        W89938  27.022   1.800  13.613
18213W        W89939  41.823  23.203   2.390
18214W        W89940   2.414  42.768  12.380
18215W        W89941  20.142   2.327  14.937
18216W        W89942  22.688   7.243  13.062
18217W        W89943  18.772  20.248   3.272
18218W        W89944  30.217  34.991  10.748
18219W        W89945   7.355  44.903   3.255
18220W        W89946  25.819  43.220   3.785
18221W        W89947  14.702   9.815   3.708
18222W        W89948  42.626  41.832   3.111
18223W        W89949   5.678  11.318  12.954
18224W        W89950  30.926  29.463   2.376
18225W        W89951  40.039  38.602   0.928
18226W        W89952  16.248  15.237  12.985
18227W        W89953  28.100  14.140  10.512
18228W        W89954  14.131   8.952  12.533
18229W        W89955  29.065  17.413   0.247
18230W        W89956  29.601  11.064  14.592
18231W        W89957  10.915  20.133  12.882
18232W        W89958   9.116  22.515  13.628
18233W        W89959   6.210  23.535  12.094
18234W        W89960  28.645  44.786   0.891
18235W        W89961  35.092  10.316   2.510
18236W        W89962  17.543  14.301  13.979
18237W        W89963  40.734  37.835  13.759
18238W        W89964  35.930  28.177   1.822
18239W        W89965  39.526   9.702  12.455
18240W        W89966  20.133  16.487   2.782
18241W        W89967  43.845   8.292  13.486
18242W        W89968  11.169  33.052   4.252
18243W        W89969  19.157  38.762  14.425
18244W        W89970   5.830  37.895  14.153
18245W        W89971  14.680  40.857  11.114
18246W        W89972  29.866   5.492  13.459
18247W        W89973  43.957  31.567   0.085
18248W        W89974  13.749  44.835  11.850
18249W        W89975   3.406  42.806  10.720
18250W        W89976  41.170  39.434   2.983
18251W        W89977  22.258  22.234  13.356
18252W        W89978  43.184  15.745  11.983
18253W        W89979   6.263  21.534   0.795
18254W        W89980  30.641  23.043  12.612
18255W        W89981  17.718   3.838  14.020
18256W        W89982  33.659  39.397  14.130
18257W        W89983  14.798  37.610  10.234
18258W        W89984  35.296  12.230  14.154
18259W        W89985  28.386  30.599  13.102
18260W        W89986   8.184  22.476  11.366
18261W        W89987   9.819  26.116   2.435
18262W        W89988  33.880  44.523   1.380
18263W        W89989  20.744  11.360   1.228
18264W        W89990  39.797   2.244  10.733
18265W        W89991  20.741  27.111   0.743
18266W        W89992  28.977  42.863  13.468
18267W        W89993   7.192  27.100  12.075
18268W        W89994  11.359  25.104   1.505
18269W        W89995   5.934  23.935   2.158
18270W        W89996   7.013   0.591   4.139
18271W        W89997  23.707  22.000  13.501
18272W        W89998  20.331  12.873  12.529
18273W        W89999  41.354  40.439   3.336
18274W        W90000  10.691  11.184   3.763
18275W        W90001  35.263  15.036  13.145
18276W        W90002  22.749   5.781   4.301
18277W        W90003   2.191  42.289   2.913
18278W        W90004   3.490   3.379   0.368
18279W        W90005  21.273  15.058   1.282
18280W        W90006  37.979  32.840   0.812
18281W        W90007  42.850  31.569   1.657
18282W        W90008  37.394   8.638   1.180
18283W        W90009  34.275  26.916   3.732
18284W        W90010   5.745  44.731  10.815
18285W        W90011  29.033   2.409  12.016
18286W        W90012   8.249  19.813  12.808
18287W        W90013  21.712  14.265   4.580
18288W        W90014  30.493  12.969   3.640
18289W        W90015   9.202  13.560   2.414
18290W        W90016   6.686  34.963  10.255
18291W        W90017  20.276  29.448  11.841
18292W        W90018  22.009  35.594  13.936
18293W        W90019  30.384   7.215  12.163
18294W        W90020   8.193  38.067  11.157
18295W        W90021   5.825  13.166  13.531
18296W        W90022  26.908  26.431  14.725
18297W        W90023  32.669   4.676   2.841
18298W        W90024   4.331  40.263   4.876
18299W        W90025  29.094  41.731  13.943
18300W        W90026  35.438  40.204   5.063
18301W        W90027  25.071  29.434  13.158
18302W        W90028  38.958   2.975  10.311
18303W        W90029   2.240  44.795  12.468
18304W        W90030  13.183  36.854   0.676
18305W        W90031  28.985  32.415   0.297
18306W        W90032  34.543  44.824   3.265
18307W        W90033  25.930  30.010  11.496
18308W        W90034   2.965   3.212  14.123
18309W        W90035   8.265  23.056   0.312
18310W        W90036  19.715  27.533   4.533
18311W        W90037   0.224  24.137   0.864
18312W        W90038   0.762  40.895  13.444
18313W        W90039  10.595  23.502  10.639
18314W        W90040  20.656  34.541   3.745
18315W        W90041  13.668  29.914  12.474
18316W        W90042   2.099  30.599  12.922
18317W        W90043   0.910  26.001   0.983
18318W        W90044  37.755  22.247  13.040
18319W        W90045  25.927  21.650  11.611
18320W        W90046  28.031  19.349  14.791
18321W        W90047  15.423  21.475  14.377
18322W        W90048  14.188  34.534  10.542
18323W        W90049  14.905   5.929  11.063
18324W        W90050  25.349  23.503   4.251
18325W        W90051  20.558  26.122   4.991
18326W        W90052   3.219  28.938   1.377
18327W        W90053  23.121  42.595   4.928
18328W        W90054  10.140  18.755   4.597
18329W        W90055  18.073  15.879   1.577
18330W        W90056  12.617   7.277   3.863
18331W        W90057   4.255  16.879   3.235
18332W        W90058  37.571  20.895   5.022
18333W        W90059  31.548  44.946  12.929
18334W        W90060  21.648  11.392  13.415
18335W        W90061  12.946   9.419   1.787
18336W        W90062   8.692   4.363  11.809
18337W        W90063  26.479  38.356  14.544
18338W        W90064  22.727  37.181  14.308
18339W        W90065  36.185  33.908  14.440
18340W        W90066  13.751  11.816  11.504
18341W        W90067  22.799   2.305   2.681
18342W        W90068  35.870  38.092   1.215
18343W        W90069  12.577   8.114  10.770
18344W        W90070  17.756  36.078  14.432
18345W        W90071  16.500  11.007   1.975
18346W        W90072  20.716  22.182   3.196
18347W        W90073  24.794   0.220  14.912
18348W        W90074   3.039  43.740   3.179
18349W        W90075   4.391  37.966  13.131
18350W        W90076  36.489   2.783  12.419
18351W        W90077  12.709  35.765   1.251
18352W        W90078  39.995  18.513   3.251
18353W        W90079  25.782  20.197  14.617
18354W        W90080  42.737  42.918  10.252
18355W        W90081   2.415  14.111   3.712
18356W        W90082  39.562  38.836   2.778
18357W        W90083  28.627  17.155  12.847
18358W        W90084  27.741  28.712  12.459
18359W        W90085  17.977  32.544  11.145
18360W        W90086  20.171  25.438  13.598
18361W        W90087  14.302   5.407   3.759
18362W        W90088  22.202  27.145  13.588
18363W        W90089  31.137  28.680   1.840
18364W        W90090  41.535   0.775   0.805
18365W        W90091  11.095  34.990  11.065
18366W        W90092  12.165   4.223  11.889
18367W        W90093   0.191   8.270  11.466
18368W        W90094   4.216  34.073   0.370
18369W        W90095   5.192  34.541  14.489
18370W        W90096   5.451  14.735   5.299
18371W        W90097  11.900  15.818  11.464
18372W        W90098   8.619  28.675   0.140
18373W        W90099  19.069  42.147  14.737
18374W        W90100  36.429  26.535  11.666
18375W        W90101  10.165  21.345  12.085
18376W        W90102   1.761  40.796  13.153
18377W        W90103  27.210  40.400  11.247
18378W        W90104  38.462  12.519  11.653
18379W        W90105  12.677  25.160   1.217
18380W        W90106  20.224   2.230  12.992
18381W        W90107  14.066  39.280   4.620
18382W        W90108  42.074  40.510  12.452
18383W        W90109  12.077  24.488   2.811
18384W        W90110  29.482  17.648   0.007
18385W        W90111  38.358  17.585  11.597
18386W        W90112   8.394  15.626   1.262
18387W        W90113   8.875  18.326  13.461
18388W        W90114  15.339  10.709  11.803
18389W        W90115  24.125  28.856  10.324
18390W        W90116  19.580   2.776  10.789
18391W        W90117  36.512   0.691   3.281
18392W        W90118  22.008  34.626  11.102
18393W        W90119  25.569  20.047   2.789
18394W        W90120   6.306   6.138  14.917
18395W        W90121  23.341   9.221   1.100
18396W        W90122  38.740  22.885   4.549
18397W        W90123  10.292  17.819  13.272
18398W        W90124  21.295   6.350  13.843
18399W        W90125  34.466  38.061   3.627
18400W        W90126  10.315  35.353   2.292
18401W        W90127   3.206  10.880   4.554
18402W        W90128  12.775  21.329   2.373
18403W        W90129  43.914  36.884  13.810
18404W        W90130  42.777  44.308   3.264
18405W        W90131  20.118   1.537   2.158
18406W        W90132  31.413   6.862   0.200
18407W        W90133  14.808   0.034   2.708
18408W        W90134  20.165   5.445  11.205
18409W        W90135  40.295  18.649  11.008
18410W        W90136  44.421   4.681   4.202
18411W        W90137  38.787  28.863   4.156
18412W        W90138   4.024  10.886  12.460
18413W        W90139  20.043  24.492   4.112
18414W        W90140  26.735  38.868   0.396
18415W        W90141   4.611  16.245   4.260
18416W        W90142  15.778  26.097  12.986
18417W        W90143   8.315  15.304  10.458
18418W        W90144  32.879  20.096  13.047
18419W        W90145  44.138  27.479   3.604
18420W        W90146  18.673  38.924   4.985
18421W        W90147   9.816   5.883  12.403
18422W        W90148  16.017  14.674   4.597
18423W        W90149   5.854  12.312  13.898
18424W        W90150  25.412   8.235  11.944
18425W        W90151   8.964   4.284  13.966
18426W        W90152  15.330   4.209   1.581
18427W        W90153   4.169   2.622   3.616
18428W        W90154  27.206  24.184  14.333
18429W        W90155  19.802   6.098   2.334
18430W        W90156  22.515   1.523   4.095
18431W        W90157  13.006  20.597   4.825
18432W        W90158   0.106  44.196  10.607
18433W        W90159   8.336  15.538  11.492
18434W        W90160  22.977  16.530  11.947
18435W        W90161  43.067  10.068   0.892
18436W        W90162   7.699  29.660  13.116
18437W        W90163  43.227   5.338  12.757
18438W        W90164  44.925  39.353  10.335
18439W        W90165  23.002  25.721  14.719
18440W        W90166  31.590  10.372   2.028
18441W        W90167  17.259   6.723  10.946
18442W        W90168   9.178  18.702   4.633
18443W        W90169  31.881  36.788   4.952
18444W        W90170  28.192  11.680  12.749
18445W        W90171  43.812   3.907   0.950
18446W        W90172   5.941   8.894  13.013
18447W        W90173  44.880  26.207  10.508
18448W        W90174  13.412   0.986   2.497
18449W        W90175   0.098  19.167   4.148
18450W        W90176  23.230   8.097   1.278
18451W        W90177  17.001  42.912  10.596
18452W        W90178  31.461  36.937  14.041
18453W        W90179  19.554  23.037   1.933
18454W        W90180  40.843  33.012   3.083
18455W        W90181  24.793  16.081   5.037
18456W        W90182  25.041  41.115   9.862
18457W        W90183   3.229  16.664  10.737
18458W        W90184  19.936  42.914  11.232
18459W        W90185  39.529  38.946  10.746
18460W        W90186  41.774   6.911   0.413
18461W        W90187  31.465  10.626  11.196
18462W        W90188   6.632  20.182   4.316
18463W        W90189  37.406   0.807  13.466
18464W        W90190  14.172  40.045  14.715
18465W        W90191  34.488  39.074   3.516
18466W        W90192  24.463  40.793  11.135
18467W        W90193  44.306  21.010   5.161
18468W        W90194  17.251   3.014   4.511
18469W        W90195   4.788   3.810   0.210
18470W        W90196  36.298  39.978   0.014
18471W        W90197   9.258  31.453  12.541
18472W        W90198  23.474  28.189  10.643
18473W        W90199  32.005  20.590   3.176
18474W        W90200  44.292   1.446  12.097
18475W        W90201  34.106  17.760   4.945
18476W        W90202  10.788   2.790  12.472
18477W        W90203  17.654  26.477  14.920
18478W        W90204  37.849  14.140   0.279
18479W        W90205  20.565  41.769  13.498
18480W        W90206  40.470   4.244   2.715
18481W        W90207  19.593  25.965  13.008
18482W        W90208  34.095  10.318   4.799
18483W        W90209  43.429  25.491  14.084
18484W        W90210  27.892  33.561   2.193
18485W        W90211   0.083  25.038  14.458
18486W        W90212  13.196  38.272  10.701
18487W        W90213  22.550   8.231   1.793
18488W        W90214  23.469  25.005  11.534
18489W        W90215  30.381  40.730  14.347
18490W        W90216  31.642   7.070   4.157
18491W        W90217  16.301  36.898  11.217
18492W        W90218  41.140   8.709  10.890
18493W        W90219  31.629  37.995  14.860
18494W        W90220  37.498  13.843   4.126
18495W        W90221  28.938  10.661  11.212
18496W        W90222  11.710  34.375  14.483
18497W        W90223  23.686  14.914  14.957
18498W        W90224  23.719   8.664  11.128
18499W        W90225  32.927   8.822  13.603
18500W        W90226  43.886  26.414   4.197
18501W        W90227   3.408   4.747   0.361
18502W        W90228  28.470  11.122   2.727
18503W        W90229  10.684  10.221   3.056
18504W        W90230  12.151   9.143  10.772
18505W        W90231   8.456  36.459   2.830
18506W        W90232   4.842  22.522  13.880
18507W        W90233  33.434  36.925   2.992
18508W        W90234  11.567  32.947  13.496
18509W        W90235  31.944   1.567  13.531
18510W        W90236   5.157   0.706   3.615
18511W        W90237   7.644  18.079  13.067
18512W        W90238  34.409   7.743   3.418
18513W        W90239  32.407  30.634   2.865
18514W        W90240  41.959  39.779  14.330
18515W        W90241  14.659  15.153   1.622
18516W        W90242  33.880   1.281   2.834
18517W        W90243  36.516  43.511   3.893
18518W        W90244  43.315  41.793  12.498
18519W        W90245  13.614  39.017  10.896
18520W        W90246  24.799   0.800  11.096
18521W        W90247  14.205  29.340   1.757
18522W        W90248  41.224  43.612   4.126
18523W        W90249  10.306  25.753   4.395
18524W        W90250  19.071  19.690  14.800
18525W        W90251  13.093  34.274   3.546
18526W        W90252   2.366  10.759   4.275
18527W        W90253  17.919  34.571   3.981
18528W        W90254  39.896  43.327  10.684
18529W        W90255  22.959  31.897   3.201
18530W        W90256  15.266  32.334  12.400
18531W        W90257  13.661  37.212   1.828
18532W        W90258   6.684  42.372  10.634
18533W        W90259  40.899  24.022  12.429
18534W        W90260   8.917  42.818   4.172
18535W        W90261  11.206  38.664  10.617
18536W        W90262  17.831  38.890   1.624
18537W        W90263  25.995  21.091  14.918
18538W        W90264  15.135  38.619  14.839
18539W        W90265  28.755  11.142  11.164
18540W        W90266  22.035  36.953   2.889
18541W        W90267   0.801  20.000  10.608
18542W        W90268  38.357   7.536  12.145
18543W        W90269  21.385   6.355   4.538
18544W        W90270  43.378  24.342  12.548
18545W        W90271   8.338  34.380  10.830
18546W        W90272  40.310   4.493   1.680
18547W        W90273  29.021   2.415   3.866
18548W        W90274  39.842  15.827   0.408
18549W        W90275  16.379   5.315  14.982
18550W        W90276  34.941  28.863  12.488
18551W        W90277   7.641  21.153  12.094
18552W        W90278  43.512   6.139  10.787
18553W        W90279  39.956  17.194   3.984
18554W        W90280   6.922   1.194  11.610
18555W        W90281  25.668  29.414   2.665
18556W        W90282  30.142  26.280   0.503
18557W        W90283   6.282   5.614  14.806
18558W        W90284  17.845  37.915   0.068
18559W        W90285  30.942  11.083  14.934
18560W        W90286  30.561  26.228  12.136
18561W        W90287  25.108  28.405   4.892
18562W        W90288  17.067  15.301  11.497
18563W        W90289  28.621  21.069  13.799
18564W        W90290  23.660   5.214  13.446
18565W        W90291  29.342   3.125  12.869
18566W        W90292   4.230   4.650   2.801
18567W        W90293  37.521  39.097   0.872
18568W        W90294  23.222  43.895  12.847
18569W        W90295  21.646  24.799  14.993
18570W        W90296   8.634  36.970   2.639
18571W        W90297  44.289  42.075   2.734
18572W        W90298  12.347  18.752   1.200
18573W        W90299  15.018   8.869   3.282
18574W        W90300  11.309  28.792  14.130
18575W        W90301  22.776   2.865  14.923
18576W        W90302  43.506  34.789  12.567
18577W        W90303  38.282  41.263   0.714
18578W        W90304  20.110  16.688  12.969
18579W        W90305   9.711  11.954   2.905
18580W        W90306  14.267  23.751  13.483
18581W        W90307  12.547  32.373   1.575
18582W        W90308  13.390  11.903  11.125
18583W        W90309  25.322  38.001   1.833
18584W        W90310  29.563  17.384  14.269
18585W        W90311   2.246  27.849  14.108
18586W        W90312  22.888  26.941   1.733
18587W        W90313  32.508  17.181  12.631
18588W        W90314  13.029  23.105  12.863
18589W        W90315  41.073  40.853   0.368
18590W        W90316  35.842  37.848   3.251
18591W        W90317  31.650  26.595   4.661
18592W        W90318  33.158  24.604   2.661
18593W        W90319  33.047  30.675   3.484
18594W        W90320  40.392  39.764   4.531
18595W        W90321  38.251  37.003   2.860
18596W        W90322  24.711  17.126   4.124
18597W        W90323  39.160  42.096   1.793
18598W        W90324  19.998  10.706   2.279
18599W        W90325  14.859  44.376  12.539
18600W        W90326  12.240  14.538  12.516
18601W        W90327  39.732  10.612  13.487
18602W        W90328  12.443  12.717  11.695
18603W        W90329  38.082   3.336   1.852
18604W        W90330  22.048  10.823   1.364
18605W        W90331  36.331  14.222   3.158
18606W        W90332  15.342  35.551   2.201
18607W        W90333  23.823  33.357   1.370
18608W        W90334  10.392   0.909   4.912
18609W        W90335  24.126   0.536  11.507
18610W        W90336  24.044  31.158   1.246
18611W        W90337  10.751  41.382  14.319
18612W        W90338  22.855  17.066  11.922
18613W        W90339   9.961  19.021  13.544
18614W        W90340  36.021  10.694   1.495
18615W        W90341  10.658  38.237   3.654
18616W        W90342  27.699   9.909  13.294
18617W        W90343  22.512  24.865   3.084
18618W        W90344  30.707  43.272  14.440
18619W        W90345  32.603  39.773  11.647
18620W        W90346  25.700  18.792  13.080
18621W        W90347  25.294  17.692   4.078
18622W        W90348  24.157  14.209   2.748
18623W        W90349  31.479  16.972   0.681
18624W        W90350   4.332  26.445  11.892
18625W        W90351  32.504  30.938  13.902
18626W        W90352  21.968   6.209   2.336
18627W        W90353  42.518  13.221  10.775
18628W        W90354  37.913   6.483   0.832
18629W        W90355  23.240  34.565   1.938
18630W        W90356   2.713  15.780  13.031
18631W        W90357   5.446  20.043   3.862
18632W        W90358   6.193  42.480  14.997
18633W        W90359   5.554  21.297  10.270
18634W        W90360  11.170  35.047   4.192
18635W        W90361  31.596  26.120   2.178
18636W        W90362   5.300  30.962   0.525
18637W        W90363  21.210  16.535  13.866
18638W        W90364  38.970  43.211   3.779
18639W        W90365   8.143   5.058   5.044
18640W        W90366  34.882  11.618   0.325
18641W        W90367   5.417  16.363   2.648
18642W        W90368  14.728  38.392  10.705
18643W        W90369   2.550   8.171  12.482
18644W        W90370  22.099   6.213  12.075
18645W        W90371   4.622  19.052  11.935
18646W        W90372   2.839  30.689  14.025
18647W        W90373  18.734  44.688  14.927
18648W        W90374  25.152   3.181  11.940
18649W        W90375  23.099   2.472   0.067
18650W        W90376  31.568  30.005   2.661
18651W        W90377  15.318  26.179   4.136
18652W        W90378   3.214  25.159   3.800
18653W        W90379  20.051   2.712   3.247
18654W        W90380  38.378   4.867  12.931
18655W        W90381  25.916  20.560  12.019
18656W        W90382  24.052  32.463   0.391
18657W        W90383  18.468  23.970   3.348
18658W        W90384  42.054  43.866  13.786
18659W        W90385   4.922  17.122  12.511
18660W        W90386   5.290  16.578   2.208
18661W        W90387  42.403   7.548  14.268
18662W        W90388  31.559  36.375  11.909
18663W        W90389  17.569  34.832  11.099
18664W        W90390  21.671  17.309  13.348
18665W        W90391   0.880   1.209   2.347
18666W        W90392  24.580  13.799   3.254
18667W        W90393  16.874  17.794  11.749
18668W        W90394  40.009  26.457   2.129
18669W        W90395   1.784   4.667   3.227
18670W        W90396  44.405  11.111   5.202
18671W        W90397   7.107   0.272  12.114
18672W        W90398   7.425  27.238  14.394
18673W        W90399   6.829   4.172   5.441
18674W        W90400  33.356  15.226   1.454
18675W        W90401  19.964  39.106  11.984
18676W        W90402  23.477  12.551   3.697
18677W        W90403  11.717   6.157   3.904
18678W        W90404  26.681  13.589   4.577
18679W        W90405  29.685  19.734   3.156
18680W        W90406  33.809  33.954   2.803
18681W        W90407  43.373  17.014   3.203
18682W        W90408  34.690  29.123  14.784
18683W        W90409  37.380  15.643   4.090
18684W        W90410  14.227   3.225   3.337
18685W        W90411  10.563   4.284   3.215
18686W        W90412  29.267  29.923  13.179
18687W        W90413  40.768   5.802   1.747
18688W        W90414  40.378  29.439   2.332
18689W        W90415  29.129  22.650  13.529
18690W        W90416  38.317  21.647  14.737
18691W        W90417  31.558  28.203  10.692
18692W        W90418   0.405  12.506   1.186
18693W        W90419  37.925  36.356   4.032
18694W        W90420   8.078  41.010   3.034
18695W        W90421  34.566  18.882  10.666
18696W        W90422  33.075  11.686   1.748
18697W        W90423   5.770   3.142   0.309
18698W        W90424  30.511   3.831   2.342
18699W        W90425   7.213  21.462   2.742
18700W        W90426  12.272  30.627  11.145
18701W        W90427   9.157   9.442  12.982
18702W        W90428  20.227  41.488  12.181
18703W        W90429  14.697  40.583  13.494
18704W        W90430   5.707   8.326   1.767
18705W        W90431  12.718  21.356   4.413
18706W        W90432  31.336  21.296   9.802
18707W        W90433  39.380  42.979   2.526
18708W        W90434   4.630  22.653   0.043
18709W        W90435  40.494  14.151  10.762
18710W        W90436   6.860  12.396   3.271
18711W        W90437  25.179   8.166   4.948
18712W        W90438  27.031   2.482   2.223
18713W        W90439  41.880  29.512  11.278
18714W        W90440  12.742  16.123   0.134
18715W        W90441  23.174  18.791  12.181
18716W        W90442  24.192   9.195  14.282
18717W        W90443  11.579  24.566  13.488
18718W        W90444  31.921  36.375   3.166
18719W        W90445  42.357  41.002  11.889
18720W        W90446  18.628  39.411   4.139
18721W        W90447  17.151  31.129   4.799
18722W        W90448  22.786  35.098  14.059
18723W        W90449   4.279  33.668  14.320
18724W        W90450   9.863  34.000   4.927
18725W        W90451  34.671  24.250   5.162
18726W        W90452  33.533  37.907  10.151
18727W        W90453  31.414  44.068   0.879
18728W        W90454   5.870  30.905   4.343
18729W        W90455  25.074   2.821   3.559
18730W        W90456  14.104   6.678  12.552
18731W        W90457  14.320  32.476  10.623
18732W        W90458  23.611  17.380  11.434
18733W        W90459  12.276  23.304   4.117
18734W        W90460  11.452  32.476  10.469
18735W        W90461  38.317  27.153  14.885
18736W        W90462   4.969  25.908   4.928
18737W        W90463  12.878  27.471   1.207
18738W        W90464  24.702  31.677  13.906
18739W        W90465  21.139  42.631  12.136
18740W        W90466  27.585  40.341   1.958
18741W        W90467  30.616  33.507   1.270
18742W        W90468   4.848  20.116   0.667
18743W        W90469  19.260  29.100  12.665
18744W        W90470  26.092  28.219   1.713
18745W        W90471  31.591  26.561  10.314
18746W        W90472  18.273   8.616  12.513
18747W        W90473  24.153  33.038   2.746
18748W        W90474   7.377  30.418  13.936
18749W        W90475  42.337  21.312   0.827
18750W        W90476   0.459  25.621   3.873
18751W        W90477  37.380  24.020  11.456
18752W        W90478   8.225  14.732   3.611
18753W        W90479  24.749   0.308  12.571
18754W        W90480  43.574  33.920  12.660
18755W        W90481  22.719  32.114   2.779
18756W        W90482   5.124  17.322   2.851
18757W        W90483  38.491  21.617   2.288
18758W        W90484  28.068  41.309  12.151
18759W        W90485  10.654  40.999   1.239
18760W        W90486  40.952  41.457   0.363
18761W        W90487  41.833  44.971  14.803
18762W        W90488  30.604  40.579  11.718
18763W        W90489  44.266  38.055   1.358
18764W        W90490  37.657  11.056   1.347
18765W        W90491  19.703  33.332   3.800
18766W        W90492  39.303  30.014  14.268
18767W        W90493  24.769  38.991   3.287
18768W        W90494  40.825  22.205  13.142
18769W        W90495  26.433  27.231  12.081
18770W        W90496  43.347  18.601  12.979
18771W        W90497   2.210  11.599  10.593
18772W        W90498   1.459  31.937  13.827
18773W        W90499  34.516  10.193  10.610
18774W        W90500   5.875  24.242  13.828
18775W        W90501  37.797  11.821  12.645
18776W        W90502  33.991  17.853  11.042
18777W        W90503  12.437  43.028   3.138
18778W        W90504  14.549  24.079   3.303
18779W        W90505  37.335  43.822  11.286
18780W        W90506  20.483  17.513   3.390
18781W        W90507  28.101  28.124  10.020
18782W        W90508  15.799  17.557   0.443
18783W        W90509  28.918  24.969  13.873
18784W        W90510  15.251  26.212  12.006
18785W        W90511  14.635  44.973   4.097
18786W        W90512  32.355   6.338   1.225
18787W        W90513  22.229  13.181   1.141
18788W        W90514  43.260   5.061  11.445
18789W        W90515  19.055  19.672   4.724
18790W        W90516  15.641  28.164  13.064
18791W        W90517  35.648  25.761   1.377
18792W        W90518  41.844  23.756   2.396
18793W        W90519  32.169  37.421   2.889
18794W        W90520  25.772   5.132  12.433
18795W        W90521  13.347   9.747   2.152
18796W        W90522  33.950   5.700  10.216
18797W        W90523  26.792  30.039  11.094
18798W        W90524  35.511   1.523  12.993
18799W        W90525  22.285  19.192   0.448
18800W        W90526  23.610  35.798  14.774
18801W        W90527  10.729  10.717  11.421
18802W        W90528   4.486  19.487  14.125
18803W        W90529  42.347  30.096   1.934
18804W        W90530  34.092   1.730  14.019
18805W        W90531  36.144   6.158   0.325
18806W        W90532  26.695   9.817  11.110
18807W        W90533   7.902  13.742   4.660
18808W        W90534  43.042  25.998   1.161
18809W        W90535  43.642  38.037   3.926
18810W        W90536   6.389  36.493   3.645
18811W        W90537  25.354  27.178  13.752
18812W        W90538   7.753  24.066  13.474
18813W        W90539  43.957   2.160  13.412
18814W        W90540  11.767  40.325  11.635
18815W        W90541  26.754   5.765   5.262
18816W        W90542  31.572  24.394  13.330
18817W        W90543  15.311  33.777  14.293
18818W        W90544  34.607  19.688  12.545
18819W        W90545  13.906  38.304   0.064
18820W        W90546   0.036  31.660  13.030
18821W        W90547   7.880  41.050  13.409
18822W        W90548  30.567   7.361   1.416
18823W        W90549  29.969   5.652   4.270
18824W        W90550   8.378  14.414  11.060
18825W        W90551  21.163  26.168  11.477
18826W        W90552  31.897  23.577   1.497
18827W        W90553  26.469  39.293   3.766
18828W        W90554   2.637  33.131   1.788
18829W        W90555  22.651  20.213   4.674
18830W        W90556  41.539  36.109   0.867
18831W        W90557  26.800  14.812  10.805
18832W        W90558  21.582  35.465   0.221
18833W        W90559  42.286  10.251   3.336
18834W        W90560  18.159  16.472   0.421
18835W        W90561   4.481  36.025   3.773
18836W        W90562  44.675  27.416   3.601
18837W        W90563  34.629  32.709  11.899
18838W        W90564   3.621  44.998  14.602
18839W        W90565  42.469   1.990   0.460
18840W        W90566   2.256  29.657  13.459
18841W        W90567  35.483  22.104  11.587
18842W        W90568   9.483   2.344  12.496
18843W        W90569  35.135  27.687   2.667
18844W        W90570  25.992  24.944  12.882
18845W        W90571   9.845   1.255  12.034
18846W        W90572  11.848  38.904  12.715
18847W        W90573  41.976  22.721  11.447
18848W        W90574  32.155  31.462   1.129
18849W        W90575  20.279   7.122   1.413
18850W        W90576   4.170  23.474  14.903
18851W        W90577   4.357  24.976  11.931
18852W        W90578  21.968   8.734   3.396
18853W        W90579  14.294  32.660   0.316
18854W        W90580  42.488  32.187  10.768
18855W        W90581   0.799  10.279   0.431
18856W        W90582  26.012  31.604  12.213
18857W        W90583   6.750   5.422  11.337
18858W        W90584  16.081   1.536   4.629
18859W        W90585   8.320  14.088   1.504
18860W        W90586  37.869   8.458   1.170
18861W        W90587  17.750  21.865   1.159
18862W        W90588  42.540  28.233  11.972
18863W        W90589  15.113  11.882  11.200
18864W        W90590  10.740  17.181  14.985
18865W        W90591  38.574  21.055  13.515
18866W        W90592  36.635  25.274   1.005
18867W        W90593  21.904  22.021  11.199
18868W        W90594  24.795  31.010   2.897
18869W        W90595  15.290  42.880   2.772
18870W        W90596  14.403  39.860   1.385
18871W        W90597   5.261  20.966  11.129
18872W        W90598   9.671   0.043  14.346
18873W        W90599  44.260  40.124   1.945
18874W        W90600  33.475  20.326  12.312
18875W        W90601   5.891  40.278   3.703
18876W        W90602  14.317  26.726  13.579
18877W        W90603  22.656  31.384  14.757
18878W        W90604  20.647  35.023   3.917
18879W        W90605   6.319   8.485  11.591
18880W        W90606  37.762   4.745  13.286
18881W        W90607  30.278   2.414  11.450
18882W        W90608  31.118  29.002  13.027
18883W        W90609  11.028   2.549  12.071
18884W        W90610  29.609  13.075   3.589
18885W        W90611  30.724  15.064   2.884
18886W        W90612  42.689   7.419   1.413
18887W        W90613   7.303   8.959   2.975
18888W        W90614  22.730  20.915  12.586
18889W        W90615   5.325   5.020   4.202
18890W        W90616  28.862  34.059   1.479
18891W        W90617  30.594  28.525   2.794
18892W        W90618  14.056  18.177   2.139
18893W        W90619  25.944   6.016   2.831
18894W        W90620  12.293  22.078  14.305
18895W        W90621  25.535  17.253   2.716
18896W        W90622  14.242  18.491  11.155
18897W        W90623  23.256  42.536  12.937
18898W        W90624  17.558  35.903  14.949
18899W        W90625   7.947  13.518   2.388
18900W        W90626  34.993  10.206  14.915
18901W        W90627  14.692  29.254   0.572
18902W        W90628   5.765   4.735   4.297
18903W        W90629  35.593  20.480   1.294
18904W        W90630  42.359  27.628  11.265
18905W        W90631  33.692  16.141   2.325
18906W        W90632  16.097   6.877  10.697
18907W        W90633  19.198   7.049   0.177
18908W        W90634  38.599  13.461   0.451
18909W        W90635  19.227   5.826  12.345
18910W        W90636   5.773  12.707   4.180
18911W        W90637  40.544  36.072  10.094
18912W        W90638  41.025  37.796   0.281
18913W        W90639  35.542  30.447   3.243
18914W        W90640  33.098   5.281  11.082
18915W        W90641  35.515  35.109   0.321
18916W        W90642   7.854   2.240  14.808
18917W        W90643  32.158  23.558  10.678
18918W        W90644   2.558  10.790  12.077
18919W        W90645  40.337  32.005  11.429
18920W        W90646  21.160  11.214  12.013
18921W        W90647  36.684  27.547   0.863
18922W        W90648  20.119  44.976  12.831
18923W        W90649  38.156   0.943  14.752
18924W        W90650  36.452   1.826   1.411
18925W        W90651  42.440  12.636  11.694
18926W        W90652  36.200   5.787   3.720
18927W        W90653  24.037  38.170  13.445
18928W        W90654  29.581  44.300  10.615
18929W        W90655  32.064  25.736   0.722
18930W        W90656   6.932  40.822  14.669
18931W        W90657  20.269  27.050   2.981
18932W        W90658  11.797  42.381   4.302
18933W        W90659   8.148  34.107   3.264
18934W        W90660  15.834  17.607   3.673
18935W        W90661  15.514  39.013  14.851
18936W        W90662  20.212  38.794   1.655
18937W        W90663  43.959  23.050  10.678
18938W        W90664  40.534  36.306   4.607
18939W        W90665  16.044   2.808   1.309
18940W        W90666  28.943  17.203  11.450
18941W        W90667   5.972   3.264  11.663
18942W        W90668  41.743   3.871   4.331
18943W        W90669  29.291  14.133  11.295
18944W        W90670   3.426   0.746   3.773
18945W        W90671   6.147  26.349  13.959
18946W        W90672  41.132   0.955   1.690
18947W        W90673  15.814  12.802  10.572
18948W        W90674   6.287   0.202   0.774
18949W        W90675  13.088  18.729   2.711
18950W        W90676  17.960  40.462  11.736
18951W        W90677   5.177  19.729   0.375
18952W        W90678  41.129   0.281  12.435
18953W        W90679  32.528  30.940  10.482
18954W        W90680   8.946  30.401   3.807
18955W        W90681   2.096  21.210  13.878
18956W        W90682  35.822  42.747  14.363
18957W        W90683  38.855  43.963  12.558
18958W        W90684  31.862  26.500   5.123
18959W        W90685  23.021  24.932   1.117
18960W        W90686  44.590   5.865   4.148
18961W        W90687   8.644  17.290  13.542
18962W        W90688  12.166   7.459   2.495
18963W        W90689  31.694   3.370  14.862
18964W        W90690  39.787  16.008   4.442
18965W        W90691  27.520  19.698   2.843
18966W        W90692  27.071  40.399  14.579
18967W        W90693  22.294  11.704   4.729
18968W        W90694  32.036  20.930   2.781
18969W        W90695   3.193  12.335   4.200
18970W        W90696  10.434   7.669  12.395
18971W        W90697   7.100  17.239   1.022
18972W        W90698   2.205  22.532  12.437
18973W        W90699   6.177  22.741  11.629
18974W        W90700  43.265  35.579  12.938
18975W        W90701  37.951  27.935   0.846
18976W        W90702  31.709  20.043  13.350
18977W        W90703   6.293  33.640   3.316
18978W        W90704  28.961  43.706   2.804
18979W        W90705  30.010  24.038   2.309
18980W        W90706  44.468  35.485  10.608
18981W        W90707  30.431  23.479   0.926
18982W        W90708   2.697  39.927  14.373
18983W        W90709  25.344   9.298   4.808
18984W        W90710  26.568  23.998   0.140
18985W        W90711  22.677  16.186   2.385
18986W        W90712  21.519  12.053   2.385
18987W        W90713  17.146  40.383   4.535
18988W        W90714  26.256  33.310  13.042
18989W        W90715  10.814  29.901   0.840
18990W        W90716   2.657   8.970   1.485
18991W        W90717  37.821  37.388  12.269
18992W        W90718   9.112  13.822   0.480
18993W        W90719  42.019  43.929  10.603
18994W        W90720  21.752  29.102   4.149
18995W        W90721  12.682   0.747   2.655
18996W        W90722   4.377  15.041   3.350
18997W        W90723  42.316  17.718   1.215
18998W        W90724  33.593  27.974  10.664
18999W        W90725   5.811  34.027   0.677
19000W        W90726   4.979  17.631   2.440
19001W        W90727  20.072  28.438   4.191
19002W        W90728  24.075  33.323  11.335
19003W        W90729   8.727  40.233  12.896
19004W        W90730   8.280  41.027  12.989
19005W        W90731  42.352  11.565  14.544
19006W        W90732  40.849  11.741  10.680
19007W        W90733  12.282   5.439  14.719
19008W        W90734   6.199  42.471  14.484
19009W        W90735   1.191  33.351   0.099
19010W        W90736  34.591  39.453   4.803
19011W        W90737  24.581  19.785   2.845
19012W        W90738  32.610  33.839   0.151
19013W        W90739   6.672  26.486   5.183
19014W        W90740   8.909   8.275   2.879
19015W        W90741   4.928  32.885  10.154
19016W        W90742  35.314   1.401  12.160
19017W        W90743  21.284  16.154   1.164
19018W        W90744  35.321  10.106   2.935
19019W        W90745   4.111  19.163  11.910
19020W        W90746  11.539  41.167   2.762
19021W        W90747  37.929   3.977  12.939
19022W        W90748  16.583  23.723  13.268
19023W        W90749  23.293   5.987  12.489
19024W        W90750  42.429   1.952  14.522
19025W        W90751  30.031  27.718   3.931
19026W        W90752  13.685  11.309  11.382
19027W        W90753   7.390  18.465   2.134
19028W        W90754  10.396   0.532  12.048
19029W        W90755   2.182   1.366  11.553
19030W        W90756  25.559  40.554  12.515
19031W        W90757  10.950  36.201  12.937
19032W        W90758   1.755  18.126  10.468
19033W        W90759   6.646   9.342   2.303
19034W        W90760  39.054  38.995   5.050
19035W        W90761  28.070  39.451  14.835
19036W        W90762   6.465   8.636   3.844
19037W        W90763  23.307  41.903  14.895
19038W        W90764  38.428  44.631   1.946
19039W        W90765  36.093  38.380  10.516
19040W        W90766  41.757   3.747   0.409
19041W        W90767  12.802  10.672  12.558
19042W        W90768  24.719  39.481   0.546
19043W        W90769  31.585  40.083  10.747
19044W        W90770  25.667  18.715  13.574
19045W        W90771  21.055  25.337   5.387
19046W        W90772  38.448  11.461  14.911
19047W        W90773  43.963  15.235   3.792
19048W        W90774  20.004   6.258  13.353
19049W        W90775   7.595  38.352  13.838
19050W        W90776  18.130   9.356  14.920
19051W        W90777  31.121   2.804  14.214
19052W        W90778  34.977  43.048   0.888
19053W        W90779  21.197  31.976  13.159
19054W        W90780  18.231  18.579  11.432
19055W        W90781  34.882  21.525   2.374
19056W        W90782  28.411  26.551   4.303
19057W        W90783   9.195  19.635   4.266
19058W        W90784  15.307  37.092  12.956
19059W        W90785  24.218  30.183   4.963
19060W        W90786  40.858  28.470  13.565
19061W        W90787   2.863  19.304   3.387
19062W        W90788  13.117  16.813   1.843
19063W        W90789  43.361  41.414   3.610
19064W        W90790  41.833   5.295  14.191
19065W        W90791  38.803  32.048   2.184
19066W        W90792  38.953  32.023  13.912
19067W        W90793  27.912  10.207   2.789
19068W        W90794  21.134  13.762   2.273
19069W        W90795   1.277  31.611  13.368
19070W        W90796  28.573  33.405   4.958
19071W        W90797  11.964  26.005  10.679
19072W        W90798  43.288  12.510   4.707
19073W        W90799  34.465   8.040   2.994
19074W        W90800   0.335  37.306  10.671
19075W        W90801  36.045  16.233   4.428
19076W        W90802  12.806   8.557  14.183
19077W        W90803  30.495  28.510   1.291
19078W        W90804  29.983   1.231  11.991
19079W        W90805   3.035  31.653  14.049
19080W        W90806  23.177  11.398   2.913
19081W        W90807  30.537  44.335   5.283
19082W        W90808  38.989  20.296  14.484
19083W        W90809   2.459  34.798  10.739
19084W        W90810  34.329  21.621   4.304
19085W        W90811  19.239  11.484   2.353
19086W        W90812  34.594  25.127   1.057
19087W        W90813   4.869  41.630  13.334
19088W        W90814  41.937   9.579   1.330
19089W        W90815  24.957  38.967  11.871
19090W        W90816  21.333   5.072  13.663
19091W        W90817  43.273  29.241  14.891
19092W        W90818  23.929  26.962   0.823
19093W        W90819  16.050  16.123  12.504
19094W        W90820  39.843  27.118  11.548
19095W        W90821  20.341  23.049  12.111
19096W        W90822   6.534   5.314   3.646
19097W        W90823  41.591   1.179  11.014
19098W        W90824  36.879   0.861  14.282
19099W        W90825  16.564   1.961  11.054
19100W        W90826  23.703   3.200  11.899
19101W        W90827  38.918   3.702   0.459
19102W        W90828  25.514  23.681  11.952
19103W        W90829  32.565  42.786   2.722
19104W        W90830  25.203   6.950  14.385
19105W        W90831  41.026  22.190  12.664
19106W        W90832   5.876   1.304   0.318
19107W        W90833  10.132  17.598  11.629
19108W        W90834  38.564  26.667   4.989
19109W        W90835   7.724  32.096  10.925
19110W        W90836   7.054  30.397   4.141
19111W        W90837  35.481  20.036   4.092
19112W        W90838   1.518  12.575  11.692
19113W        W90839  43.015   7.955   4.936
19114W        W90840  43.502  29.867  13.823
19115W        W90841  41.699  30.652  14.540
19116W        W90842  21.647  44.558   2.166
19117W        W90843  26.129  39.791   2.939
19118W        W90844  38.937  34.067  10.627
19119W        W90845  19.843   3.486   1.973
19120W        W90846  36.239  24.375   4.034
19121W        W90847  14.700  34.157   2.787
19122W        W90848  18.912   3.585   3.189
19123W        W90849  20.081  44.702   2.765
19124W        W90850  21.579  44.445  10.614
19125W        W90851  13.367  22.813   0.484
19126W        W90852  39.405  34.338  11.433
19127W        W90853  27.207  20.109   2.721
19128W        W90854  43.373   2.553   0.437
19129W        W90855  23.381   9.373   3.748
19130W        W90856  44.313  25.605  14.568
19131W        W90857  16.751  22.243   2.441
19132W        W90858  30.419   8.628  14.525
19133W        W90859  16.253  27.800  11.540
19134W        W90860  11.699  17.175  11.018
19135W        W90861   8.672  35.476  11.428
19136W        W90862   4.287   0.655   3.885
19137W        W90863  44.467  24.522  11.623
19138W        W90864  39.472   5.913  11.190
19139W        W90865  15.298  14.793   1.846
19140W        W90866   9.145   2.108   0.432
19141W        W90867  12.030  19.517   3.259
19142W        W90868  32.089   6.394  14.336
19143W        W90869  16.692  20.733  13.487
19144W        W90870  27.426  41.375  13.303
19145W        W90871   3.194  35.211   3.187
19146W        W90872  24.719  21.150   1.647
19147W        W90873  22.191  38.463   2.831
19148W        W90874  13.142  10.704  10.871
19149W        W90875  24.209  39.286  14.380
19150W        W90876  23.375  27.868  10.262
19151W        W90877  36.805  26.412  12.520
19152W        W90878  18.375  26.474   4.621
19153W        W90879  24.155  36.338   2.799
19154W        W90880  29.000  24.001  14.422
19155W        W90881  18.335  31.690   0.282
19156W        W90882  42.844   7.394  13.608
19157W        W90883  35.640  37.010  11.243
19158W        W90884  12.492  31.261  12.078
19159W        W90885  36.450  40.491  13.856
19160W        W90886   6.855  36.697   2.779
19161W        W90887   5.405  10.921   4.290
19162W        W90888   3.173  33.662  12.007
19163W        W90889  12.872  11.953  11.508
19164W        W90890  18.703  37.859   0.395
19165W        W90891  25.547  39.466  14.930
19166W        W90892  33.104  41.955  10.670
19167W        W90893  42.840  43.192   0.787
19168W        W90894  37.882  37.862   1.759
19169W        W90895  15.365   3.827   4.337
19170W        W90896  31.885  14.711  14.844
19171W        W90897  20.769  17.041  12.012
19172W        W90898  41.990   5.458   2.611
19173W        W90899  38.807  21.531   2.717
19174W        W90900  11.407  11.766  10.334
19175W        W90901  23.477  10.308   3.611
19176W        W90902   7.752  36.878  12.409
19177W        W90903  34.865  13.583   1.996
19178W        W90904  43.996  38.392   1.776
19179W        W90905  43.055  22.104   3.748
19180W        W90906  44.690   9.151   1.729
19181W        W90907  19.106  39.915   2.293
19182W        W90908   6.427   2.702  12.987
19183W        W90909  20.900   1.713  14.787
19184W        W90910  28.361  14.740   1.796
19185W        W90911  33.580  11.728  11.589
19186W        W90912  41.455  18.947  14.130
19187W        W90913  18.086  31.075  12.347
19188W        W90914  35.769   3.374  10.141
19189W        W90915  20.299  34.890  12.426
19190W        W90916  10.225  30.478   1.250
19191W        W90917  27.579  10.158   3.643
19192W        W90918  18.856  25.194   3.652
19193W        W90919  40.629  40.060  11.129
19194W        W90920   3.303  12.400   3.251
19195W        W90921  11.682  35.575   3.700
19196W        W90922   0.286  35.251  10.378
19197W        W90923  23.729  11.736   2.541
19198W        W90924  19.329  10.864   4.718
19199W        W90925   6.843  20.742  14.029
19200W        W90926  39.481  14.816  12.064
19201W        W90927  29.894  31.178   0.329
19202W        W90928  41.980   5.362  10.669
19203W        W90929  35.455  19.989  13.504
19204W        W90930  30.437  21.356  12.069
19205W        W90931   9.167   5.101  14.334
19206W        W90932  41.756   4.712   3.615
19207W        W90933  26.608  35.944   2.279
19208W        W90934  36.976  19.004  13.832
19209W        W90935   0.924  24.966   3.400
19210W        W90936  30.412   0.757  10.571
19211W        W90937  10.626  24.271   1.604
19212W        W90938  32.600  16.715  12.384
19213W        W90939   1.855   6.118   3.222
19214W        W90940  43.997  20.726  13.851
19215W        W90941   7.881  39.610  13.387
19216W        W90942  43.486   1.207  14.073
19217W        W90943  11.875   5.771  12.631
19218W        W90944  12.829  10.771  12.058
19219W        W90945  39.529   9.767  10.411
19220W        W90946  15.828  32.470   3.258
19221W        W90947   3.721   1.706   3.737
19222W        W90948  15.685  39.035  12.603
19223W        W90949   4.794  29.480   5.098
19224W        W90950  20.231   0.430  12.570
19225W        W90951  37.026  13.489   3.222
19226W        W90952  23.984  22.730  13.672
19227W        W90953   3.436   6.550   2.244
19228W        W90954  23.687  28.256   3.560
19229W        W90955  42.047  33.493   5.031
19230W        W90956  39.559  15.800  13.955
19231W        W90957  18.716  23.096   2.825
19232W        W90958   4.766  29.173  14.286
19233W        W90959  17.559  14.213  11.198
19234W        W90960  33.362  31.986  12.951
19235W        W90961  11.101  29.759   2.366
19236W        W90962  23.147  20.719  12.306
19237W        W90963  19.718  43.368  11.178
19238W        W90964  41.553  29.771  13.439
19239W        W90965  43.413  11.410   1.843
19240W        W90966  30.653  19.735  14.936
19241W        W90967  25.910  10.953   1.835
19242W        W90968  17.290  16.605   4.663
19243W        W90969  18.267   5.646   0.421
19244W        W90970  10.128   5.232  14.406
19245W        W90971  39.007  43.834   0.498
19246W        W90972  19.039  27.418   0.048
19247W        W90973   1.256  13.980   3.168
19248W        W90974  39.753  20.193  11.994
19249W        W90975  21.028  18.138   0.019
19250W        W90976  36.986  20.050  11.650
19251W        W90977  41.844  18.885   3.061
19252W        W90978   3.888  33.478   2.103
19253W        W90979  23.207  12.533   4.144
19254W        W90980  27.895  12.766  12.052
19255W        W90981  14.999   5.350   1.037
19256W        W90982   9.332  17.125   1.163
19257W        W90983  23.067  44.911   2.639
19258W        W90984  21.975  13.175  14.294
19259W        W90985  14.595  29.572  11.057
19260W        W90986  10.664  19.057  13.021
19261W        W90987  16.616  37.875  12.516
19262W        W90988  30.816  21.214  10.729
19263W        W90989  13.863  20.019   4.726
19264W        W90990  10.391  11.862  13.362
19265W        W90991  43.745  33.416  12.010
19266W        W90992  40.218  27.646   1.889
19267W        W90993  22.530  24.536  11.998
19268W        W90994  32.158  44.554  11.030
19269W        W90995   6.146  39.372   3.194
19270W        W90996  12.611  34.925  12.015
19271W        W90997  33.529  35.875  13.089
19272W        W90998   9.177  38.830   4.664
19273W        W90999  30.937  28.370  10.762
19274W        W91000  12.620  24.279  14.884
19275W        W91001  22.335  28.464   0.993
19276W        W91002  31.358  26.651   5.080
19277W        W91003  11.549  24.982   1.035
19278W        W91004  31.607  29.600  10.389
19279W        W91005  36.473  40.001   3.595
19280W        W91006   0.799  15.808   0.962
19281W        W91007  41.453   4.903   1.924
19282W        W91008  23.908  39.951   1.432
19283W        W91009   8.763   0.411  10.464
19284W        W91010  19.992  31.969   0.887
19285W        W91011   0.925  23.256  12.477
19286W        W91012  29.367   2.865   3.289
19287W        W91013  11.602  41.260  11.257
19288W        W91014  32.150   9.889  12.013
19289W        W91015  38.819  20.814   0.893
19290W        W91016  30.029  41.408   0.198
19291W        W91017  13.900  19.494   0.870
19292W        W91018  32.580  21.301  12.039
19293W        W91019  27.092  32.461   3.811
19294W        W91020  42.805  23.473  13.885
19295W        W91021  10.784   0.198  13.924
19296W        W91022  14.799  20.374  14.906
19297W        W91023   7.267   1.959   1.747
19298W        W91024   7.483  29.945   3.794
19299W        W91025  34.518   1.028  13.068
19300W        W91026  11.347   0.505  14.052
19301W        W91027  28.822  26.041  13.863
19302W        W91028  44.644  11.706   4.156
19303W        W91029  39.526  24.629   0.295
19304W        W91030  15.787   4.273   4.922
19305W        W91031   3.212  33.012   0.801
19306W        W91032  43.034  36.515  14.381
19307W        W91033  27.200  41.517   1.341
19308W        W91034  33.992  17.546  14.011
19309W        W91035  22.136   0.555   4.654
19310W        W91036  19.345  17.149   0.645
19311W        W91037  37.827  32.793   2.266
19312W        W91038  39.686   0.824   4.553
19313W        W91039   1.594  31.146  12.430
19314W        W91040  39.389  39.017  10.263
19315W        W91041  37.545  22.856   2.816
19316W        W91042  20.764   3.858   3.162
19317W        W91043  24.936  15.712  10.842
19318W        W91044  34.196  28.866  11.031
19319W        W91045  22.797   7.749  13.066
19320W        W91046  20.050  23.993  13.591
19321W        W91047  43.850  20.130  10.815
19322W        W91048  15.270  25.053  12.435
19323W        W91049   7.439  10.214  10.700
19324W        W91050   6.145  23.444   2.206
19325W        W91051  22.708  29.082  12.060
19326W        W91052   0.099  34.778   3.542
19327W        W91053  39.483  37.566   4.557
19328W        W91054  39.505  39.506  14.424
19329W        W91055  35.553   1.099  14.566
19330W        W91056  22.720   3.316  11.303
19331W        W91057  21.818   4.337  14.079
19332W        W91058   1.913  37.533  13.249
19333W        W91059   6.226  32.040   3.609
19334W        W91060  21.284   3.276  12.307
19335W        W91061  18.590  14.593   0.699
19336W        W91062  15.689  32.365   2.735
19337W        W91063   1.567  18.997  13.344
19338W        W91064  18.973   5.996  13.051
19339W        W91065   0.465  31.200  11.044
19340W        W91066  12.745  10.878   0.879
19341W        W91067  21.656  30.296   0.070
19342W        W91068   1.504  32.591   3.213
19343W        W91069   7.592  25.213  12.968
19344W        W91070  43.937  21.564  11.750
19345W        W91071  43.421  21.453   3.292
19346W        W91072  28.493   7.775  11.202
19347W        W91073  38.029  30.441  12.972
19348W        W91074   0.815  30.145   0.351
19349W        W91075  32.742  23.681  13.486
19350W        W91076  21.174  37.464   3.781
19351W        W91077  24.721   4.603   2.245
19352W        W91078  36.837  31.955   0.961
19353W        W91079   1.770  14.569   4.665
19354W        W91080  32.453  27.209  12.769
19355W        W91081  23.440  34.143   2.677
19356W        W91082  43.835  12.106  12.759
19357W        W91083   3.715  25.215   0.530
19358W        W91084  15.769  21.201  11.609
19359W        W91085  20.687  17.582  12.554
19360W        W91086  20.592   6.745  12.966
19361W        W91087  32.462  44.821  13.495
19362W        W91088  22.198  41.459   4.050
19363W        W91089  30.178  38.887  10.750
19364W        W91090  18.824   7.133  14.335
19365W        W91091  11.713  39.591   3.457
19366W        W91092   3.126  13.512   0.808
19367W        W91093  18.529  24.737  11.566
19368W        W91094  34.622   6.449  14.814
19369W        W91095  12.367  17.555   1.632
19370W        W91096  16.278  36.469   5.299
19371W        W91097  29.493  11.403   1.872
19372W        W91098  32.902  17.581   4.244
19373W        W91099  43.983  38.772  14.777
19374W        W91100  35.619  44.918   4.128
19375W        W91101  19.213  41.866  10.535
19376W        W91102   7.713   9.175  14.486
19377W        W91103  21.521  23.464  12.888
19378W        W91104  11.649  38.392  10.654
19379W        W91105  22.690  38.544   0.328
19380W        W91106  42.032  17.212   4.088
19381W        W91107  29.322  17.566  11.568
19382W        W91108  27.645  26.317   5.003
19383W        W91109  21.580  12.352   9.768
19384W        W91110   6.931  25.027  14.625
19385W        W91111  15.388  36.106   3.400
19386W        W91112   5.649   6.999   5.085
19387W        W91113   7.402   1.489  11.569
19388W        W91114  11.667   1.306  11.612
19389W        W91115  28.094  42.753   1.975
19390W        W91116  26.182  34.573  11.714
19391W        W91117  31.531   6.165   2.210
19392W        W91118  40.245  31.900   4.167
19393W        W91119   6.183  44.615  10.558
19394W        W91120  24.788  25.937  13.671
19395W        W91121  35.650  29.259  13.714
19396W        W91122  41.878  44.104  12.592
19397W        W91123  37.955   5.298  12.419
19398W        W91124  24.012  33.478   2.479
19399W        W91125  24.817  34.771  11.925
19400W        W91126  27.938  31.455  11.284
19401W        W91127  17.307  39.466  13.102
19402W        W91128  22.258  23.499  11.256
19403W        W91129  22.285  16.427   2.725
19404W        W91130  30.489   0.690   0.884
19405W        W91131  30.122  21.621   4.157
19406W        W91132  21.217  10.122   3.258
19407W        W91133  35.455  15.661  11.608
19408W        W91134   1.799  15.617  14.493
19409W        W91135  12.866  38.558  12.938
19410W        W91136  12.026   7.911   3.271
19411W        W91137  26.418  40.211   2.755
19412W        W91138   8.631  25.662  14.877
19413W        W91139  17.063   3.025  12.559
19414W        W91140  17.197  24.067   0.876
19415W        W91141  22.494  17.041   2.686
19416W        W91142  25.662   8.224   3.267
19417W        W91143   4.916  26.208   3.574
19418W        W91144  27.613  38.626  13.377
19419W        W91145  35.013  27.986   3.115
19420W        W91146  28.288   1.315  14.191
19421W        W91147   0.090  23.940  14.327
19422W        W91148  26.514  29.475  11.709
19423W        W91149  12.801  23.963   2.347
19424W        W91150  30.822  35.105   4.201
19425W        W91151  23.604  16.225   4.319
19426W        W91152  20.665   8.372   3.985
19427W        W91153  22.100  24.439  11.088
19428W        W91154  17.513  10.882  11.216
19429W        W91155  19.953   0.379   3.152
19430W        W91156  43.710  32.911  12.500
19431W        W91157   1.425  26.749   4.630
19432W        W91158  40.699  41.950   0.700
19433W        W91159   4.816  15.579  11.456
19434W        W91160  37.926  10.729  10.530
19435W        W91161  33.855   0.787  13.938
19436W        W91162  22.012  21.201  13.791
19437W        W91163  17.183   2.274  13.388
19438W        W91164  32.894  26.562   2.275
19439W        W91165  43.672  30.923   1.281
19440W        W91166  40.736  19.296  14.666
19441W        W91167  11.568  16.444   2.379
19442W        W91168  14.472  12.126  12.104
19443W        W91169  14.443   0.205  12.113
19444W        W91170   0.834  18.539  11.765
19445W        W91171   6.381  16.821  10.662
19446W        W91172  20.756  15.883   1.289
19447W        W91173   7.296   9.817   3.513
19448W        W91174  18.593  18.104  14.792
19449W        W91175  10.900  10.355   3.497
19450W        W91176  10.359   5.899   0.910
19451W        W91177  17.511  33.179  13.441
19452W        W91178  19.509  30.453   4.286
19453W        W91179  27.872  39.108  12.472
19454W        W91180  18.077  23.751  14.604
19455W        W91181  33.172  26.243  12.474
19456W        W91182   6.000  19.895   4.503
19457W        W91183  27.074   1.252   3.836
19458W        W91184  37.037  19.489   4.658
19459W        W91185  24.168  17.298  13.364
19460W        W91186  23.191  36.112  14.241
19461W        W91187   8.368  44.259  13.923
19462W        W91188   4.391  17.005   4.285
19463W        W91189  42.898  10.902   1.296
19464W        W91190  27.562  29.400   3.752
19465W        W91191  20.177   4.631   3.299
19466W        W91192  13.464  30.581   5.067
19467W        W91193  13.099   8.595  12.923
19468W        W91194  38.081  19.065  11.599
19469W        W91195  35.729  35.548  11.974
19470W        W91196  25.742   9.199   4.027
19471W        W91197   3.389  38.401  11.111
19472W        W91198  40.021   3.199   1.524
19473W        W91199  37.735  24.246  11.156
19474W        W91200  15.106  31.948  13.276
19475W        W91201   6.128  14.224  14.988
19476W        W91202  27.924  22.754   1.558
19477W        W91203  16.592  34.898  14.273
19478W        W91204  41.651  43.716   0.257
19479W        W91205  22.503  23.608   0.226
19480W        W91206  28.345  33.695   1.993
19481W        W91207  36.367   3.019  13.393
19482W        W91208   3.979   6.412  11.107
19483W        W91209  15.009  12.826  13.497
19484W        W91210  34.638  27.619  14.073
19485W        W91211  24.837  15.297   2.730
19486W        W91212  28.955  43.438   0.512
19487W        W91213   8.865   1.690   3.090
19488W        W91214  17.147  42.440  13.818
19489W        W91215   9.779  11.804   2.398
19490W        W91216  31.294   0.942   4.103
19491W        W91217  42.134   4.126   0.429
19492W        W91218  17.791  13.131  10.804
19493W        W91219  16.117  14.883   1.356
19494W        W91220  23.136  13.160   0.979
19495W        W91221   4.447  20.511  12.014
19496W        W91222  40.586  30.345   1.905
19497W        W91223   1.319  17.131  11.173
19498W        W91224  13.345  12.394   0.679
19499W        W91225  31.364   9.145  12.562
19500W        W91226  22.873  27.075   3.728
19501W        W91227  29.916  23.418   4.632
19502W        W91228  11.243   6.800  12.371
19503W        W91229   0.030  38.896   0.465
19504W        W91230  11.180  25.459   4.745
19505W        W91231  34.501  32.659  11.333
19506W        W91232  33.443  26.681  11.147
19507W        W91233  20.542  36.793   1.645
19508W        W91234  23.035   5.574   0.194
19509W        W91235  35.943  40.548   3.187
19510W        W91236  43.787  20.430  13.480
19511W        W91237  10.472   8.252  10.706
19512W        W91238  17.127  21.655   2.659
19513W        W91239  37.891  29.859  14.255
19514W        W91240  43.442  24.630  10.925
19515W        W91241  18.917  18.507   1.778
19516W        W91242  20.400   0.986   0.887
19517W        W91243  23.298   9.247  14.344
19518W        W91244   8.278   9.973   0.815
19519W        W91245  30.484  32.453  10.351
19520W        W91246  41.254   8.935  13.417
19521W        W91247  12.819  25.016   4.141
19522W        W91248  40.575  40.825   0.261
19523W        W91249  35.339  17.555  13.609
19524W        W91250  34.867  28.071   3.732
19525W        W91251  32.569  14.595   1.005
19526W        W91252  17.485   6.187  13.424
19527W        W91253  25.144  33.168   3.154
19528W        W91254  17.160   3.782   1.311
19529W        W91255  33.529  38.830   2.137
19530W        W91256  41.428  24.780  13.350
19531W        W91257   6.200  25.564   2.649
19532W        W91258  43.275   1.160   3.368
19533W        W91259  17.157  36.500   3.158
19534W        W91260  28.078  35.297  12.389
19535W        W91261  43.097  40.578  13.632
19536W        W91262  25.008  12.856  10.633
19537W        W91263  30.219  25.518  13.834
19538W        W91264  35.068  21.195  13.883
19539W        W91265  20.429  35.981   4.705
19540W        W91266   9.572  26.703   1.351
19541W        W91267  40.532  19.128  11.682
19542W        W91268  29.620  18.484  12.408
19543W        W91269  29.098  11.561  13.982
19544W        W91270   1.736  38.296   3.135
19545W        W91271   1.315  25.970   4.148
19546W        W91272  35.573  13.010   3.245
19547W        W91273  11.305  31.141  12.691
19548W        W91274  14.208  35.734   4.035
19549W        W91275  18.063   2.659  13.860
19550W        W91276  31.926  20.524  11.105
19551W        W91277   6.403  39.899   2.550
19552W        W91278  36.185   8.747  14.019
19553W        W91279   0.399  19.816   3.162
19554W        W91280  37.928  41.102  12.925
19555W        W91281  24.959  38.396   3.465
19556W        W91282  19.056  16.180  11.505
19557W        W91283  21.167  41.300   3.298
19558W        W91284  27.264  37.572   2.763
19559W        W91285  38.443   6.751   0.229
19560W        W91286  35.998   3.711   3.777
19561W        W91287  31.888  32.946   2.180
19562W        W91288  27.628  22.804   4.572
19563W        W91289  24.584  25.519  10.882
19564W        W91290  31.932  41.603   2.198
19565W        W91291  33.456  27.768   2.656
19566W        W91292  39.776  26.162   0.926
19567W        W91293   1.483  37.293  14.800
19568W        W91294  27.511  44.799   2.201
19569W        W91295  15.272  17.024   2.106
19570W        W91296   8.260   8.353   1.669
19571W        W91297  41.765  39.796   4.523
19572W        W91298  36.515   6.340  11.167
19573W        W91299   7.082  35.588  13.097
19574W        W91300   8.140   2.003  13.970
19575W        W91301   1.919  18.318   1.725
19576W        W91302  15.715  43.487  13.968
19577W        W91303  34.958   7.811   2.286
19578W        W91304   5.979  44.584   3.128
19579W        W91305   0.909  29.004   0.853
19580W        W91306  43.527  43.979   0.392
19581W        W91307   4.860  27.661   2.850
19582W        W91308  30.863  42.863   4.696
19583W        W91309  10.899   7.843  12.911
19584W        W91310  33.559  44.679   2.077
19585W        W91311   5.237  16.058  12.001
19586W        W91312  37.937  22.978  11.142
19587W        W91313  11.932  10.186   2.140
19588W        W91314  32.186  33.537   4.711
19589W        W91315   9.686  32.162   3.623
19590W        W91316  42.959   8.902  14.958
19591W        W91317  40.211   7.289  11.036
19592W        W91318  35.624  10.665  11.615
19593W        W91319  23.930  20.430   3.142
19594W        W91320   0.913  24.168  14.011
19595W        W91321  31.920   1.561  14.993
19596W        W91322   7.831   6.646   2.273
19597W        W91323  39.389  12.176   0.233
19598W        W91324  12.789   7.871   1.415
19599W        W91325   3.368  39.932   4.906
19600W        W91326  41.085  31.003  12.111
19601W        W91327  17.346  35.384  13.367
19602W        W91328  26.571   4.294   4.600
19603W        W91329  37.541  27.235  14.566
19604W        W91330  19.529  22.212  13.908
19605W        W91331  13.069  19.682   3.121
19606W        W91332  32.198   5.814   2.772
19607W        W91333  11.252  25.209   3.813
19608W        W91334  10.172  18.191   0.834
19609W        W91335  29.270  19.669  14.966
19610W        W91336   9.119   0.267  11.251
19611W        W91337  30.873  32.638   1.548
19612W        W91338  30.544   3.453  11.622
19613W        W91339   8.172   2.498   1.411
19614W        W91340   5.216  23.420   5.029
19615W        W91341  25.545  11.138   4.711
19616W        W91342  11.905   2.817  10.714
19617W        W91343   1.867   8.196  14.052
19618W        W91344  36.913  19.148  12.397
19619W        W91345  10.331   1.187  12.925
19620W        W91346  42.498  35.677   1.154
19621W        W91347  41.322   2.363   3.106
19622W        W91348  19.422  43.345   3.913
19623W        W91349   3.509   9.876   4.789
19624W        W91350  30.488  25.985   1.410
19625W        W91351   5.770   9.135   0.379
19626W        W91352  13.766  28.579  11.915
19627W        W91353   1.998   3.999  12.970
19628W        W91354  34.187   3.821  11.546
19629W        W91355   8.634  26.146  11.010
19630W        W91356  12.160  28.457   4.515
19631W        W91357  24.319  29.189  12.527
19632W        W91358  22.586  25.633   0.031
19633W        W91359  20.226   9.298   2.974
19634W        W91360  30.783  43.912  11.550
19635W        W91361  42.110  12.497  13.081
19636W        W91362  39.392  32.921   3.381
19637W        W91363  30.650  30.484  14.101
19638W        W91364  38.505  43.930   4.755
19639W        W91365  25.163  15.151  13.414
19640W        W91366  34.801  41.307  13.303
19641W        W91367  21.606  42.855   1.762
19642W        W91368  33.021  11.967   2.186
19643W        W91369   8.410   4.589   5.077
19644W        W91370  28.127   8.692   3.725
19645W        W91371  32.917  35.077  12.012
19646W        W91372   0.660   2.895  11.170
19647W        W91373  28.777   8.301   0.663
19648W        W91374  11.369  27.172  11.513
19649W        W91375   4.457  35.044  11.967
19650W        W91376  13.285  20.173   3.122
19651W        W91377  39.730  11.883  13.068
19652W        W91378  10.299  15.780  14.779
19653W        W91379  18.838  18.209  13.472
19654W        W91380  15.196  42.765   0.681
19655W        W91381  39.828  35.546   1.381
19656W        W91382  38.588  31.253  11.205
19657W        W91383  43.208   6.810   0.824
19658W        W91384   1.871  11.407  12.966
19659W        W91385  32.423   4.181   2.836
19660W        W91386   6.600  19.251  13.772
19661W        W91387   3.974  18.016  12.605
19662W        W91388  30.909  17.568  12.833
19663W        W91389   5.915   4.742   1.231
19664W        W91390   4.296  12.551  11.836
19665W        W91391  22.137  21.656   4.551
19666W        W91392  14.359  13.635  13.826
19667W        W91393  40.778   7.054  11.748
19668W        W91394  12.178  39.900  12.028
19669W        W91395  16.505  11.304  12.376
19670W        W91396  19.282  16.023  11.079
19671W        W91397   6.988  15.154   4.223
19672W        W91398   7.813  21.462   3.225
19673W        W91399  27.726  25.461   3.658
19674W        W91400  32.510   4.283   4.646
19675W        W91401   5.408  17.775  12.711
19676W        W91402  32.213   5.183  11.112
19677W        W91403  15.062  40.377   4.774
19678W        W91404   0.494  17.599   4.541
19679W        W91405  25.111  20.760  10.029
19680W        W91406   7.307   5.954  12.319
19681W        W91407   4.017   0.387   4.228
19682W        W91408  12.117  29.667  11.090
19683W        W91409  34.899   2.221  12.396
19684W        W91410  28.084  34.874  10.535
19685W        W91411  42.451  42.955  11.028
19686W        W91412   7.928  16.817   0.493
19687W        W91413  16.811  40.779   1.712
19688W        W91414  26.177  44.437  12.036
19689W        W91415   1.389  31.637  12.390
19690W        W91416   9.139  39.355  10.658
19691W        W91417   5.237   2.934  12.218
19692W        W91418   5.844  13.767   2.283
19693W        W91419  33.618  23.188  11.092
19694W        W91420   5.731  31.336   0.917
19695W        W91421  18.652   0.150   3.065
19696W        W91422  43.206   0.805  10.550
19697W        W91423   0.655  34.064  13.845
19698W        W91424  43.593  40.533  11.519
19699W        W91425  10.738   9.355   4.648
19700W        W91426  23.636  33.342   2.168
19701W        W91427  32.878  32.148  13.004
19702W        W91428  44.838  18.047   0.601
19703W        W91429  32.408  23.129   0.287
19704W        W91430  34.064   3.608  14.792
19705W        W91431  32.383  27.424   3.697
19706W        W91432  39.637  12.244  11.677
19707W        W91433   1.318  13.714  12.578
19708W        W91434  18.072  22.527   2.341
19709W        W91435  40.964  36.135  12.441
19710W        W91436  41.101  12.341   3.293
19711W        W91437  11.201   2.536   1.334
19712W        W91438  42.287  21.134   2.200
19713W        W91439  23.728  43.214  14.902
19714W        W91440  34.408  12.182   4.375
19715W        W91441  29.225  23.283  12.465
19716W        W91442  22.797  12.858  12.417
19717W        W91443  16.120   9.230  12.763
19718W        W91444  36.061  31.660   0.986
19719W        W91445  33.500  24.675   3.607
19720W        W91446   3.516  35.140  13.467
19721W        W91447  17.670   6.454   3.606
19722W        W91448  17.235  18.125   0.760
19723W        W91449  16.664  10.731  14.869
19724W        W91450  37.385  19.003  13.123
19725W        W91451  19.133  38.490  11.854
19726W        W91452  42.861  17.987   0.189
19727W        W91453  34.463  28.665  12.545
19728W        W91454  31.460   8.094  11.843
19729W        W91455  27.853  19.136   3.681
19730W        W91456  21.110   9.911  12.539
19731W        W91457  15.206  10.107  13.154
19732W        W91458  18.151  44.409  11.555
19733W        W91459   3.283  12.145  14.345
19734W        W91460  37.976  43.727   0.334
19735W        W91461  44.493  13.106   2.518
19736W        W91462  18.235   0.564  10.737
19737W        W91463  23.091  35.985   0.765
19738W        W91464  40.448  34.108   4.155
19739W        W91465   5.644   8.838   0.891
19740W        W91466  38.422  25.254   2.837
19741W        W91467  35.003  26.643  12.610
19742W        W91468   2.265   1.657  12.899
19743W        W91469  31.975  15.754  10.136
19744W        W91470   7.945  21.263  12.971
19745W        W91471  21.522  19.560  14.649
19746W        W91472  26.978  26.471   1.080
19747W        W91473  16.664  13.195   1.797
19748W        W91474  33.388  24.149   0.813
19749W        W91475  15.722  39.518   4.132
19750W        W91476  14.747  23.228   2.842
19751W        W91477  14.400  39.823   3.278
19752W        W91478  39.062   1.578  13.345
19753W        W91479   0.680  26.288   5.025
19754W        W91480  29.914  34.892  11.572
19755W        W91481  17.110   3.144  13.525
19756W        W91482   3.393   9.543  10.350
19757W        W91483   0.404  44.484   2.790
19758W        W91484   2.810   8.505   2.186
19759W        W91485  31.627  17.333  12.618
19760W        W91486  16.547  16.370   2.371
19761W        W91487  10.267   9.374   3.368
19762W        W91488  31.624   8.288   3.353
19763W        W91489   9.198   1.758  11.614
19764W        W91490  24.113  42.989   3.297
19765W        W91491  21.483   4.011  13.863
19766W        W91492  32.246  15.214  10.734
19767W        W91493  43.945   8.285   2.300
19768W        W91494  36.813  39.572  12.975
19769W        W91495   7.420  42.270   4.373
19770W        W91496   7.761  23.562   0.742
19771W        W91497  12.146   7.462   1.997
19772W        W91498  14.783   8.507  14.906
19773W        W91499  34.630  11.526   2.801
19774W        W91500  33.512  34.148  13.454
19775W        W91501  41.235   4.914  14.930
19776W        W91502   8.220  35.289  14.892
19777W        W91503  21.675  10.645   0.061
19778W        W91504  10.683  34.910   1.427
19779W        W91505  18.025   8.446   0.838
19780W        W91506   0.626  41.343  11.634
19781W        W91507  40.922  42.777   0.797
19782W        W91508  10.158  19.204   2.893
19783W        W91509  44.249  16.169   3.778
19784W        W91510   0.056  26.507  10.953
19785W        W91511  30.977  34.774  14.575
19786W        W91512   1.265   9.397  12.435
19787W        W91513   3.393  29.263  10.888
19788W        W91514   6.981   5.438   0.356
19789W        W91515  27.068  17.339   4.614
19790W        W91516  30.503  12.233  11.611
19791W        W91517   0.279  11.016   0.051
19792W        W91518   0.355  38.031  13.437
19793W        W91519  27.079  35.563  13.249
19794W        W91520  17.627  31.020   0.813
19795W        W91521  44.848   9.417   4.272
19796W        W91522  22.422  10.519  13.841
19797W        W91523  24.981   8.478  13.090
19798W        W91524  39.805  34.046  11.610
19799W        W91525  41.261  31.723   2.233
19800W        W91526  13.209   0.761   0.033
19801W        W91527  40.330  31.387   2.237
19802W        W91528  30.762  11.274  11.532
19803W        W91529  41.609  21.149  14.340
19804W        W91530  23.063  16.857   0.844
19805W        W91531  39.457  39.595   0.382
19806W        W91532  12.745  34.068   3.886
19807W        W91533   8.242  18.690   0.174
19808W        W91534  28.103  42.956   0.433
19809W        W91535  28.369  11.621  14.456
19810W        W91536   2.495  23.583  14.334
19811W        W91537  39.377   7.611   3.355
19812W        W91538  41.061  44.789   4.619
19813W        W91539  31.895  44.769  13.278
19814W        W91540  39.523   3.244   0.809
19815W        W91541  32.762   9.208  11.993
19816W        W91542  24.643  42.018   1.288
19817W        W91543   4.649  37.003   4.203
19818W        W91544  41.014   4.306  14.281
19819W        W91545   3.790  37.447  13.477
19820W        W91546  44.801   6.731  11.657
19821W        W91547  27.263  31.208  11.913
19822W        W91548  30.900  44.646  13.277
19823W        W91549  22.131  10.660  10.514
19824W        W91550  18.081  35.051   1.860
19825W        W91551  16.724   1.202  13.860
19826W        W91552  38.835  38.882  12.763
19827W        W91553  42.984  16.204   0.756
19828W        W91554  12.193  40.382   0.404
19829W        W91555  33.735  32.936   1.891
19830W        W91556  37.421  23.228  12.033
19831W        W91557  19.263  44.507   0.316
19832W        W91558   9.302  19.632   0.022
19833W        W91559  12.482  38.967  12.072
19834W        W91560  38.808   3.610   4.480
19835W        W91561  31.884  30.213  13.000
19836W        W91562  24.188  34.350   2.815
19837W        W91563  13.251  16.229   3.650
19838W        W91564  21.499  10.464   3.033
19839W        W91565  22.575   6.013  11.970
19840W        W91566  41.732  12.780   1.529
19841W        W91567  21.914  17.227   1.706
19842W        W91568  12.898  15.585  11.922
19843W        W91569  14.222  29.464   0.957
19844W        W91570  21.574   1.505  10.941
19845W        W91571   2.796   8.839  10.592
19846W        W91572  38.538   5.359  14.886
19847W        W91573  38.247   6.249  14.119
19848W        W91574  19.020   6.695   4.721
19849W        W91575  25.235  18.643   1.843
19850W        W91576  12.782  19.217   3.248
19851W        W91577   6.799   2.831   0.848
19852W        W91578  17.737   7.515  11.942
19853W        W91579  29.231  35.562  13.419
19854W        W91580  25.556  34.598  12.957
19855W        W91581  26.112  10.841  10.421
19856W        W91582  44.207  28.125   0.952
19857W        W91583  31.267  33.602  11.924
19858W        W91584  20.706  25.137  14.827
19859W        W91585  41.040  42.848  10.839
19860W        W91586   8.969  41.864   4.049
19861W        W91587  36.421  22.216  12.926
19862W        W91588  40.961  14.974  13.064
19863W        W91589  33.083  24.580   0.804
19864W        W91590  23.123  22.743   3.221
19865W        W91591  31.898  12.573   2.070
19866W        W91592  18.642   0.558  11.057
19867W        W91593  31.927   8.925  11.661
19868W        W91594  37.708  14.781  13.978
19869W        W91595  17.216   6.742   0.332
19870W        W91596   9.857  28.151   0.349
19871W        W91597  22.760  14.608  13.481
19872W        W91598  18.057  40.067   3.236
19873W        W91599  17.196   4.710   1.435
19874W        W91600   2.276   1.278   0.433
19875W        W91601  22.186  36.985  10.644
19876W        W91602  13.521  29.894   4.690
19877W        W91603   2.207  31.555  13.479
19878W        W91604   9.282  24.214  12.376
19879W        W91605   2.947   6.018   4.035
19880W        W91606  44.023  15.828  13.376
19881W        W91607  28.451   0.878   0.298
19882W        W91608   6.322  36.820  13.820
19883W        W91609   3.210  28.187  13.971
19884W        W91610   1.191  40.246   2.348
19885W        W91611   5.219  13.512  13.476
19886W        W91612  44.331  30.503  12.012
19887W        W91613  33.898  39.626  11.087
19888W        W91614  40.331  21.088  11.861
19889W        W91615  43.748  23.486  14.822
19890W        W91616  41.513  15.329   3.374
19891W        W91617  20.576  39.567   0.335
19892W        W91618  34.594   0.787  14.878
19893W        W91619  26.902  42.441  13.334
19894W        W91620   5.692  40.927  12.560
19895W        W91621  44.736  39.778  11.122
19896W        W91622  42.399   6.242   4.368
19897W        W91623  20.619  26.580  14.928
19898W        W91624  22.113  30.898  12.419
19899W        W91625  34.051  23.590  12.308
19900W        W91626  11.566  12.377  10.251
19901W        W91627  19.501  17.086  12.374
19902W        W91628  22.677   4.363   0.440
19903W        W91629  33.660  24.456  13.926
19904W        W91630  14.295  22.990  13.874
19905W        W91631  16.238  38.457   0.729
19906W        W91632  27.967  15.120   0.936
19907W        W91633  34.398  35.830  11.681
19908W        W91634   8.226  22.619   2.705
19909W        W91635  42.059  43.829  12.974
19910W        W91636   1.952   1.835  13.649
19911W        W91637  31.646  27.560  11.254
19912W        W91638   2.728   6.193  11.189
19913W        W91639  13.259  22.567   4.647
19914W        W91640  38.786  25.628   1.699
19915W        W91641  31.739  30.545  12.471
19916W        W91642  28.117  36.345  10.636
19917W        W91643   3.501  11.758  10.456
19918W        W91644  15.066  11.767   1.303
19919W        W91645  25.609  32.073   2.183
19920W        W91646  26.158  28.639   2.643
19921W        W91647   9.381  40.250  14.299
19922W        W91648  43.394  28.509  13.519
19923W        W91649  25.481  23.701   3.437
19924W        W91650  37.959  12.483  10.969
19925W        W91651   3.930   9.322   2.278
19926W        W91652  38.309   9.607  12.850
19927W        W91653  10.655  24.054  10.477
19928W        W91654  19.296  24.131   1.830
19929W        W91655  37.918  26.278  13.407
19930W        W91656   5.445  36.635  11.071
19931W        W91657  33.420  30.994   3.330
19932W        W91658  23.623  38.784   2.777
19933W        W91659  27.192   1.897  14.581
19934W        W91660  24.306  18.912  14.477
19935W        W91661  15.925   0.767  14.068
19936W        W91662  27.209  35.022   1.613
19937W        W91663  15.739  33.961  11.164
19938W        W91664   8.813  22.996  13.847
19939W        W91665  27.635  13.589   2.223
19940W        W91666  32.226   9.135   1.339
19941W        W91667  35.474  26.617   2.716
19942W        W91668  17.822  28.684  11.685
19943W        W91669  34.505  44.507   1.740
19944W        W91670  31.643   5.966   2.751
19945W        W91671  34.332  18.471  10.913
19946W        W91672  39.317  41.285  13.922
19947W        W91673  34.343   6.882  12.444
19948W        W91674   8.256  41.551   0.855
19949W        W91675  15.793   4.456  12.949
19950W        W91676   4.588  26.667   4.569
19951W        W91677  13.280  30.187  12.207
19952W        W91678  44.724   1.237   0.381
19953W        W91679   7.708  19.087   0.934
19954W        W91680  29.810  27.453  14.141
19955W        W91681  26.920  25.142  12.031
19956W        W91682   5.365  24.413   2.735
19957W        W91683  17.343  20.042  12.006
19958W        W91684  23.051  17.887   0.860
19959W        W91685  13.676  34.958  13.624
19960W        W91686  15.708  11.650  11.143
19961W        W91687  17.395  44.828   0.781
19962W        W91688  23.482  26.125  10.570
19963W        W91689  11.760  19.569   4.537
19964W        W91690  31.367  17.852   0.747
19965W        W91691  33.447  34.549  12.355
19966W        W91692  21.609   2.345   1.259
19967W        W91693  27.080  27.734   1.666
19968W        W91694  10.158  14.320  10.737
19969W        W91695   8.537  28.014  13.397
19970W        W91696  27.048  37.940  10.802
19971W        W91697   1.921  29.365  11.974
19972W        W91698  15.109   3.810   2.397
19973W        W91699  33.516  33.643  13.297
19974W        W91700  12.643   9.306  10.614
19975W        W91701  35.092  41.506  10.649
19976W        W91702   3.205   4.261   1.213
19977W        W91703   2.532  11.758   1.744
19978W        W91704  36.537  37.600   4.183
19979W        W91705  38.449  39.297  13.948
19980W        W91706  13.053  37.414   5.230
19981W        W91707  42.482  16.201  13.834
19982W        W91708  42.806  12.036  11.894
19983W        W91709  23.673  19.317   3.751
19984W        W91710  11.701  17.735  11.209
19985W        W91711  16.901  10.671   2.832
19986W        W91712  39.339   0.393   4.379
19987W        W91713  21.960  31.512  12.149
19988W        W91714  14.853   7.810   2.601
19989W        W91715  40.736  43.448  12.524
19990W        W91716  36.414  23.996  14.365
19991W        W91717  11.222  11.343   1.836
19992W        W91718  42.280  34.488   3.621
19993W        W91719  39.321  19.540   2.659
19994W        W91720  31.118  44.948  11.599
19995W        W91721  35.783   0.735   3.588
19996W        W91722  43.184  24.451  11.951
19997W        W91723  34.702   1.240  11.063
19998W        W91724   2.492  13.356  11.227
19999W        W91725   7.221  44.009  14.851
20000W        W91726   4.849  36.406  14.288
20001W        W91727   7.577   1.956   4.416
20002W        W91728  34.899  17.200  14.351
20003W        W91729   7.793  25.912   1.263
20004W        W91730  10.680   4.179  12.488
20005W        W91731  11.674   6.087   9.567
20006W        W91732  36.148  21.661  10.651
20007W        W91733   6.852  13.229  13.791
20008W        W91734  13.800  13.982   2.054
20009W        W91735  14.166  10.084  11.220
20010W        W91736  18.167  22.827  12.373
20011W        W91737  32.144  38.498   0.517
20012W        W91738  11.788   3.027   3.237
20013W        W91739  29.758  38.808  11.454
20014W        W91740  34.487  27.977   1.900
20015W        W91741  21.460  29.713  13.038
20016W        W91742  42.462  43.527  13.761
20017W        W91743  33.133  20.100  14.365
20018W        W91744  37.959  10.264   2.339
20019W        W91745  37.583  23.558  13.349
20020W        W91746  10.459  28.121   1.466
20021W        W91747   7.678   6.888   1.845
20022W        W91748  28.218   3.248   1.356
20023W        W91749   1.425  32.151  13.350
20024W        W91750   8.703  13.236  13.522
20025W        W91751  26.167   0.341  12.493
20026W        W91752  29.032  10.062   1.759
20027W        W91753   5.820  29.902  14.281
20028W        W91754  43.757  31.354   1.592
20029W        W91755  38.495  18.594  13.332
20030W        W91756   1.563  32.972   4.290
20031W        W91757  30.569  42.857   4.267
20032W        W91758  20.839  12.149   1.498
20033W        W91759  16.197  42.717  10.254
20034W        W91760  37.962  44.200  12.881
20035W        W91761   9.788  15.083   3.339
20036W        W91762  38.113  32.086   1.470
20037W        W91763   2.913  13.366   0.338
20038W        W91764  10.253  11.889   1.771
20039W        W91765   0.520   8.648  11.518
20040W        W91766   9.151  36.928   1.756
20041W        W91767   8.764  16.453   0.427
20042W        W91768  22.080  33.582   4.129
20043W        W91769  35.550  32.005  14.380
20044W        W91770  21.846   3.320  11.474
20045W        W91771   6.924   3.711  11.940
20046W        W91772   1.311   5.870   3.669
20047W        W91773  11.707   3.987  12.622
20048W        W91774  28.982  27.432  10.622
20049W        W91775   5.324  13.397   3.073
20050W        W91776   8.051   6.114   0.429
20051W        W91777  12.674   0.332   3.483
20052W        W91778  14.073   3.167   5.064
20053W        W91779  20.743  13.079  12.775
20054W        W91780  12.238   2.824   3.056
20055W        W91781  28.634  41.473  12.832
20056W        W91782  20.116  29.912   4.046
20057W        W91783   5.996  34.579   1.516
20058W        W91784  30.931  37.648  11.076
20059W        W91785  44.628   2.898   0.813
20060W        W91786  43.064   0.464   4.894
20061W        W91787   9.066  13.255   0.837
20062W        W91788  16.039   0.538   2.330
20063W        W91789  30.442   9.754   1.299
20064W        W91790  36.090  39.166   3.665
20065W        W91791  24.287   0.208   1.393
20066W        W91792   8.058  32.900  12.338
20067W        W91793  34.779  23.155   3.582
20068W        W91794  36.305  32.947  13.315
20069W        W91795  33.716  26.706   1.847
20070W        W91796   4.856  14.031   2.744
20071W        W91797  44.040  37.842   4.235
20072W        W91798  24.072  41.561   1.864
20073W        W91799   8.723  10.234   0.734
20074W        W91800  39.171  21.696  13.457
20075W        W91801  22.461   0.930   4.516
20076W        W91802  33.393  17.754   3.332
20077W        W91803  12.686  41.896  14.560
20078W        W91804  11.523  24.702   0.295
20079W        W91805  26.616   8.989   3.668
20080W        W91806  37.622  44.113  11.580
20081W        W91807  16.210  12.747   1.157
20082W        W91808   8.827   7.891   4.307
20083W        W91809  18.338  19.935   3.383
20084W        W91810   1.888  39.483   4.704
20085W        W91811  34.496  43.552   1.288
20086W        W91812  13.583  23.260   1.358
20087W        W91813  36.710   1.411  13.527
20088W        W91814  17.810   3.515  12.035
20089W        W91815   7.333  23.782  12.520
20090W        W91816  13.725  40.286  14.020
20091W        W91817  20.188  41.480   0.727
20092W        W91818  27.691   4.476  10.384
20093W        W91819  33.638   0.419  14.934
20094W        W91820  22.615  15.795  14.345
20095W        W91821  43.204   7.432   1.437
20096W        W91822  17.274   5.638   1.322
20097W        W91823  36.467  10.721   4.572
20098W        W91824  26.060  20.931  12.923
20099W        W91825  27.444  12.528  12.075
20100W        W91826   3.239  13.875   2.181
20101W        W91827   3.450   9.579   2.586
20102W        W91828  24.972  14.768  13.093
20103W        W91829  40.388  29.228  11.965
20104W        W91830   5.110  42.863   1.861
20105W        W91831  31.072  38.543   2.652
20106W        W91832  34.651  34.638  11.137
20107W        W91833   4.731   2.385   3.202
20108W        W91834  11.992   0.804   4.080
20109W        W91835   1.231   0.991  11.297
20110W        W91836  29.267  43.378  14.406
20111W        W91837   3.342  33.461  10.733
20112W        W91838  35.819  40.353  14.375
20113W        W91839   5.486   1.940   3.184
20114W        W91840  43.071  42.390   3.768
20115W        W91841  44.381  13.784  12.141
20116W        W91842  11.092  25.590   5.227
20117W        W91843  29.467   2.187   3.965
20118W        W91844  29.754  44.005   1.316
20119W        W91845  40.546  12.061  11.208
20120W        W91846  21.587   7.245  12.427
20121W        W91847  42.048  18.228  13.718
20122W        W91848  35.431   9.680  11.575
20123W        W91849   4.942   7.707   4.981
20124W        W91850  28.910  43.726  13.635
20125W        W91851  25.329  33.638  12.725
20126W        W91852  34.414  26.609   2.437
20127W        W91853   6.827   9.751  14.696
20128W        W91854   7.793  20.502   1.734
20129W        W91855  23.925   6.402   4.610
20130W        W91856   6.809   4.967  11.142
20131W        W91857  25.194  27.708   2.792
20132W        W91858  26.257  40.102   0.475
20133W        W91859   0.490  19.524   4.095
20134W        W91860  33.935  18.959   3.747
20135W        W91861  17.712   4.574  11.191
20136W        W91862  26.962   9.352   3.588
20137W        W91863  16.207  22.347   3.656
20138W        W91864  40.470   0.880  12.039
20139W        W91865  20.189  36.998  10.671
20140W        W91866  18.719  41.807  11.461
20141W        W91867  30.929  30.895   4.157
20142W        W91868  10.783  32.172  14.889
20143W        W91869  20.549   0.886  14.599
20144W        W91870  29.665  44.751  10.904
20145W        W91871  36.423  43.132  11.692
20146W        W91872  21.428  28.130   0.787
20147W        W91873  41.182  10.370   1.822
20148W        W91874  21.118  12.248  11.890
20149W        W91875  33.718  15.152   3.654
20150W        W91876  24.664  23.768   0.721
20151W        W91877  15.085   9.311  10.701
20152W        W91878  11.158  19.664  12.826
20153W        W91879  33.358  13.716   1.248
20154W        W91880  26.539  42.838   0.298
20155W        W91881  26.729  10.147  13.521
20156W        W91882  35.571  29.055   4.661
20157W        W91883  10.605  21.043  13.517
20158W        W91884  37.489   5.070  10.360
20159W        W91885  38.699  33.025  14.475
20160W        W91886  18.577  33.425  11.160
20161W        W91887  39.823  21.783  13.989
20162W        W91888  27.098  34.859  11.047
20163W        W91889  36.011   1.933   1.019
20164W        W91890  32.925  30.930   0.820
20165W        W91891  23.721  19.328   1.905
20166W        W91892  41.469  23.220  10.886
20167W        W91893  11.517   6.912  13.853
20168W        W91894  22.085  21.771  11.620
20169W        W91895  32.929  18.526  14.058
20170W        W91896  12.964  31.465  12.024
20171W        W91897  11.845  35.549  11.486
20172W        W91898  15.368  24.096  12.215
20173W        W91899  24.673  14.049  12.462
20174W        W91900   9.799   7.017   3.752
20175W        W91901  20.029   5.521   0.710
20176W        W91902  20.028  14.729   1.697
20177W        W91903  18.388  35.139   0.892
20178W        W91904  21.100  27.122  10.101
20179W        W91905  34.249   9.757   0.286
20180W        W91906   8.989  31.392  11.117
20181W        W91907  20.128  27.151   2.468
20182W        W91908  32.586  17.889  14.374
20183W        W91909  34.461  29.522   1.908
20184W        W91910  15.610   1.765  13.973
20185W        W91911  28.943  32.472   3.265
20186W        W91912   5.262  38.739   2.116
20187W        W91913   5.246  37.564  10.733
20188W        W91914  14.315  35.412  11.533
20189W        W91915   9.135  16.362   4.242
20190W        W91916  33.014  39.421   2.641
20191W        W91917   7.869  36.963   0.864
20192W        W91918  24.668  15.592   4.891
20193W        W91919  26.183  11.877  12.856
20194W        W91920  14.286   4.854  10.433
20195W        W91921   1.315  40.904   3.714
20196W        W91922   4.227  23.204   3.646
20197W        W91923   3.447  24.105  13.511
20198W        W91924  18.217  19.355  14.773
20199W        W91925  11.061  14.562  14.826
20200W        W91926   6.713  10.653   0.722
20201W        W91927   2.768  10.700   1.934
20202W        W91928   8.186  21.820  11.960
20203W        W91929   9.979  11.323  12.415
20204W        W91930  31.527  37.366  13.561
20205W        W91931  34.289  31.875  13.779
20206W        W91932   0.017  13.579   3.651
20207W        W91933  40.592  26.059   0.294
20208W        W91934  19.232  15.189   4.801
20209W        W91935   5.017  35.940  14.567
20210W        W91936   2.992  32.310   5.229
20211W        W91937  20.153  12.541  14.272
20212W        W91938   7.158   8.515   3.159
20213W        W91939  18.988   6.424   1.381
20214W        W91940  20.028  36.059  12.988
20215W        W91941  43.293  23.994   3.341
20216W        W91942  10.621  39.994   0.915
20217W        W91943  27.115  38.011   0.788
20218W        W91944   3.512  35.263   4.119
20219W        W91945  31.919   7.438  11.359
20220W        W91946  13.097  39.071   3.652
20221W        W91947   1.522  34.333  11.547
20222W        W91948   0.485  31.822  13.216
20223W        W91949  22.760   0.761  13.303
20224W        W91950   0.607   6.351   5.108
20225W        W91951  34.421  21.068  10.570
20226W        W91952  37.273  28.355   1.636
20227W        W91953  35.828  14.139   3.119
20228W        W91954  33.090   2.161  12.060
20229W        W91955   2.416  29.481   3.130
20230W        W91956  13.128  42.540   4.035
20231W        W91957  37.921  13.727   1.147
20232W        W91958   7.252  19.353  13.044
20233W        W91959  12.127  32.563   4.818
20234W        W91960  25.976  31.387   2.198
20235W        W91961  41.859  39.234  14.310
20236W        W91962   0.479   7.257   4.445
20237W        W91963   3.397   0.235  12.821
20238W        W91964  22.161  42.324   2.394
20239W        W91965  29.119  29.261  11.183
20240W        W91966  19.145  26.557  10.383
20241W        W91967  42.649  13.879  10.733
20242W        W91968  22.659  40.481   1.163
20243W        W91969  34.528  27.563   1.007
20244W        W91970  11.851   3.020   5.015
20245W        W91971   8.057   6.745   3.130
20246W        W91972  43.478  22.444   3.412
20247W        W91973  12.196   2.356  13.089
20248W        W91974   9.102   0.313  13.451
20249W        W91975  33.922  27.536   4.618
20250W        W91976  33.900   7.846   4.214
20251W        W91977  22.451   2.170   1.258
20252W        W91978  25.085  21.232  14.896
20253W        W91979  38.353  22.596   2.297
20254W        W91980  34.473  25.267   1.539
20255W        W91981   7.418  28.793  13.031
20256W        W91982  17.022  31.522  13.899
20257W        W91983  27.975  16.190   0.855
20258W        W91984  39.857   0.520   2.671
20259W        W91985  12.335  18.863   3.661
20260W        W91986  17.122  11.953  10.536
20261W        W91987  19.648   8.869  12.698
20262W        W91988   7.146  26.684  13.984
20263W        W91989  36.914  20.356   0.802
20264W        W91990  16.653  44.266   2.215
20265W        W91991  33.640  22.002  12.919
20266W        W91992   2.086   9.899   1.092
20267W        W91993  10.238   3.170   3.333
20268W        W91994  17.311  33.660  11.471
20269W        W91995  14.854  31.067  12.678
20270W        W91996  18.737   9.662   0.704
20271W        W91997  17.560   0.863  12.609
20272W        W91998   8.069  44.169  11.071
20273W        W91999  36.937  32.248   3.159
20274W        W92000  41.076  23.534  12.446
20275W        W92001  17.719   9.187  10.660
20276W        W92002   6.782  22.955   0.508
20277W        W92003  36.486  16.205  10.939
20278W        W92004  29.645  41.638   0.789
20279W        W92005  26.449  32.470   4.718
20280W        W92006   2.508  41.694   0.693
20281W        W92007  25.912  10.299   0.792
20282W        W92008   2.011  35.582  14.883
20283W        W92009  26.359  17.326  11.437
20284W        W92010  29.473   1.274   1.862
20285W        W92011  39.621  29.673   3.122
20286W        W92012   0.969  23.779  13.215
20287W        W92013   1.022  44.758   4.559
20288W        W92014  15.795  21.713  11.873
20289W        W92015  44.970  42.125  12.018
20290W        W92016   3.201  23.686  13.746
20291W        W92017  22.510  16.329   1.903
20292W        W92018  16.654  30.637  12.986
20293W        W92019  11.818  23.969  12.953
20294W        W92020  24.317  41.875   0.883
20295W        W92021  42.848   0.896   3.430
20296W        W92022  17.018  12.848  14.362
20297W        W92023  20.757  33.905   2.293
20298W        W92024   8.841  10.839  11.677
20299W        W92025   6.916   3.797  10.232
20300W        W92026  30.696  27.600  10.787
20301W        W92027  19.682  13.699   2.266
20302W        W92028  39.046  31.056   2.275
20303W        W92029  17.055  25.664   3.631
20304W        W92030  35.988  24.804   0.520
20305W        W92031  44.918  20.714  12.574
20306W        W92032  22.975  40.433   3.366
20307W        W92033   9.783  11.020   1.950
20308W        W92034  22.060   6.804   3.144
20309W        W92035  18.292  14.867   1.680
20310W        W92036  14.049  15.534  12.324
20311W        W92037  41.406   5.928  13.848
20312W        W92038  43.530  41.959   4.336
20313W        W92039  32.594   2.393   2.262
20314W        W92040  36.948  30.633  11.677
20315W        W92041  13.419  31.803   5.177
20316W        W92042  42.150   6.881  12.018
20317W        W92043  17.250   7.021   1.197
20318W        W92044  34.183  30.373  12.578
20319W        W92045  28.042  17.417   1.283
20320W        W92046  22.617  44.793  14.844
20321W        W92047  30.397   7.632   4.277
20322W        W92048  34.584  21.173   4.433
20323W        W92049  16.871   9.547   4.296
20324W        W92050  37.916  38.558   2.804
20325W        W92051   9.414   0.935  11.990
20326W        W92052  26.157  10.150  12.561
20327W        W92053  35.497  15.180   4.238
20328W        W92054   4.377  38.159   1.368
20329W        W92055  18.198  16.717  14.927
20330W        W92056  27.673   1.277   2.373
20331W        W92057  30.685  14.775   5.071
20332W        W92058  33.670  14.120   1.507
20333W        W92059   5.635   8.735   2.623
20334W        W92060   1.355  29.293  13.083
20335W        W92061  39.944  32.793   2.616
20336W        W92062  16.609  35.377  14.003
20337W        W92063   5.892  32.951  14.019
20338W        W92064  22.252   1.963   2.789
20339W        W92065  17.995  31.954   4.495
20340W        W92066  16.720  36.328   3.422
20341W        W92067   2.706   9.658   3.233
20342W        W92068  42.511  43.026  12.915
20343W        W92069  15.670  31.023   0.653
20344W        W92070  11.094  39.821   4.129
20345W        W92071  31.012  27.027   2.205
20346W        W92072  27.727  33.342   4.350
20347W        W92073  32.631  11.771  13.946
20348W        W92074  37.301  26.532   4.312
20349W        W92075   1.281  44.783  12.053
20350W        W92076  22.149   4.260  11.662
20351W        W92077   5.327  36.973   0.957
20352W        W92078   7.482  28.664  11.134
20353W        W92079  10.493  29.771  14.011
20354W        W92080  22.444   7.830  10.555
20355W        W92081  17.548  18.868   0.301
20356W        W92082   2.268  10.087   3.631
20357W        W92083  44.943   5.027  13.012
20358W        W92084  21.065  43.389   1.360
20359W        W92085   0.583  22.774   3.723
20360W        W92086  22.697  12.800  11.567
20361W        W92087  33.850  16.298  14.305
20362W        W92088  29.008  40.242  11.800
20363W        W92089  26.185  20.094  14.903
20364W        W92090   0.795  22.490  10.742
20365W        W92091  22.048  17.659   3.098
20366W        W92092  37.126   5.803  12.487
20367W        W92093  41.843  38.590   2.787
20368W        W92094   4.896   8.111   0.410
20369W        W92095  20.587  42.080   0.215
20370W        W92096  38.044  13.650  11.616
20371W        W92097  10.656  10.027   4.387
20372W        W92098  31.350  10.132   9.822
20373W        W92099   4.745  42.329   1.417
20374W        W92100  36.549   4.325  10.634
20375W        W92101   1.292  21.025  11.308
20376W        W92102   3.374  28.557  14.802
20377W        W92103  21.546  41.400  14.814
20378W        W92104  35.051   2.249   1.914
20379W        W92105  19.187  34.529   4.843
20380W        W92106  24.094  33.502   4.980
20381W        W92107  26.558  31.276  14.410
20382W        W92108   4.164  38.643   1.355
20383W        W92109  16.316  36.657  13.814
20384W        W92110  18.016  34.917  10.771
20385W        W92111  43.049  36.962   3.276
20386W        W92112  30.346   2.356   2.227
20387W        W92113  34.467  10.036   4.163
20388W        W92114   3.808  32.855   4.354
20389W        W92115   5.456  39.937   5.177
20390W        W92116  24.634  31.906   2.008
20391W        W92117  11.550  23.666  10.579
20392W        W92118  12.589   9.938   0.102
20393W        W92119   3.665  43.088  14.312
20394W        W92120  13.315  37.691  14.441
20395W        W92121  33.600  27.667  14.992
20396W        W92122   8.587  35.858   3.286
20397W        W92123  13.613   3.736   3.797
20398W        W92124  27.035  33.910   4.069
20399W        W92125  25.486  36.383   4.884
20400W        W92126  15.319  40.977   3.719
20401W        W92127  44.488  20.145   0.868
20402W        W92128  43.510  10.272  11.238
20403W        W92129  24.008  37.173   3.237
20404W        W92130  33.362   7.291   1.121
20405W        W92131  39.293   3.194  10.653
20406W        W92132  37.250  24.592  14.171
20407W        W92133  12.411  18.761  11.061
20408W        W92134   6.672  26.439   1.848
20409W        W92135  28.152  35.028  12.824
20410W        W92136   6.861  36.365   1.790
20411W        W92137  31.942   1.594   2.159
20412W        W92138  34.251  32.864   1.878
20413W        W92139  31.982   7.310   1.307
20414W        W92140  40.269  42.947  14.919
20415W        W92141  28.286  25.486  14.518
20416W        W92142  42.321  36.618  12.948
20417W        W92143  21.622  42.600   4.185
20418W        W92144  22.654   1.312   3.612
20419W        W92145  16.122  32.681   2.821
20420W        W92146  19.196   2.851  12.032
20421W        W92147  36.559  32.604   0.250
20422W        W92148  42.098  44.153   4.595
20423W        W92149  23.267  33.142   3.801
20424W        W92150   1.682  16.078   0.221
20425W        W92151  21.578  18.756   2.825
20426W        W92152  22.409  30.185   4.264
20427W        W92153  31.856   5.453  13.832
20428W        W92154  28.979  29.692  11.562
20429W        W92155   7.796  37.537   0.409
20430W        W92156   7.163   4.840  14.423
20431W        W92157  20.611  24.712   0.707
20432W        W92158   4.856  21.103   0.927
20433W        W92159   5.885   6.728  14.380
20434W        W92160  16.163  26.687  12.417
20435W        W92161  17.781   2.799   3.338
20436W        W92162   4.587   1.293   0.897
20437W        W92163  11.522  39.065  11.282
20438W        W92164  42.150  29.601   2.009
20439W        W92165  29.542   5.649  13.084
20440W        W92166   6.864   1.892  12.687
20441W        W92167   2.335  12.252   4.086
20442W        W92168  16.033   2.920  12.940
20443W        W92169   3.780  20.574  11.173
20444W        W92170  17.275  25.185   1.351
20445W        W92171  10.581  37.575  11.684
20446W        W92172  11.696   8.962   0.267
20447W        W92173  11.045  39.487   0.254
20448W        W92174  31.426  34.023  14.026
20449W        W92175  34.441  32.471   2.818
20450W        W92176  39.123  24.674   4.220
20451W        W92177  35.015  25.403   2.197
20452W        W92178   3.052  41.819   1.289
20453W        W92179  10.236  33.062   1.265
20454W        W92180  30.114  29.939  12.945
20455W        W92181  22.056  35.457  11.607
20456W        W92182  38.062  24.962  14.257
20457W        W92183  13.320  21.420  14.102
20458W        W92184  10.151  19.628  10.002
20459W        W92185  34.084   6.683   3.776
20460W        W92186  26.795   0.883   0.424
20461W        W92187  12.871  32.695   1.945
20462W        W92188   7.363   5.334   3.287
20463W        W92189   1.499  35.543   1.757
20464W        W92190   9.162  21.603  13.510
20465W        W92191  13.485  39.339  13.880
20466W        W92192  22.834  18.244   3.642
20467W        W92193  15.638  19.708  13.529
20468W        W92194  15.358  37.024   5.059
20469W        W92195  14.261  37.660   0.836
20470W        W92196   7.980  25.460   0.487
20471W        W92197  26.665  19.994   2.715
20472W        W92198  12.208  20.790   2.703
20473W        W92199   2.771  24.073  13.912
20474W        W92200  23.491  15.848  14.271
20475W        W92201  27.962  38.129   1.657
20476W        W92202  11.607   7.792   1.320
20477W        W92203  23.548  40.066   0.772
20478W        W92204   5.171  15.318  10.644
20479W        W92205  43.534  37.417  14.174
20480W        W92206   3.668  30.968  11.564
20481W        W92207   3.505   1.445  11.530
20482W        W92208  34.547  21.164  11.574
20483W        W92209  31.855  27.067  14.909
20484W        W92210   9.735  12.135  13.028
20485W        W92211  30.543  32.184  14.358
20486W        W92212  14.754  13.407   1.833
20487W        W92213   6.603   3.550   2.744
20488W        W92214  30.127  44.754  12.802
20489W        W92215   6.672  40.794  12.832
20490W        W92216  10.079   1.888  11.021
20491W        W92217  42.474  16.271   2.513
20492W        W92218   3.589  23.175  13.071
20493W        W92219  29.485  38.560  12.078
20494W        W92220  29.111  27.386  11.132
20495W        W92221  26.172   1.272   1.655
20496W        W92222  37.962  26.735   3.848
20497W        W92223   7.654  37.058  11.928
20498W        W92224  29.046  10.847  14.425
20499W        W92225  26.043   0.924   9.780
20500W        W92226  29.596  28.501  11.586
20501W        W92227   4.923  39.778   1.459
20502W        W92228  17.773  11.626  11.660
20503W        W92229  24.712  11.417  11.567
20504W        W92230   2.156   1.337   4.578
20505W        W92231  27.635   0.528   0.366
20506W        W92232  36.839  23.549   4.597
20507W        W92233  28.054  30.013  14.461
20508W        W92234   2.305  14.390  14.904
20509W        W92235   9.736  43.866   2.508
20510W        W92236  31.229  31.051   4.588
20511W        W92237  15.315   7.349  13.416
20512W        W92238  31.657  41.994  12.046
20513W        W92239  12.165   1.511  14.754
20514W        W92240  25.593  33.432   3.208
20515W        W92241   8.919  18.053   0.262
20516W        W92242  32.526  25.100  12.072
20517W        W92243  42.442  12.688  10.752
20518W        W92244   0.831  10.095   1.996
20519W        W92245  33.008  38.155  14.028
20520W        W92246  27.708  33.566   3.319
20521W        W92247   9.236   3.935   4.991
20522W        W92248  42.426   1.513   2.909
20523W        W92249  33.637  27.462  10.721
20524W        W92250  32.615  34.654  12.766
20525W        W92251  20.302  31.355  13.874
20526W        W92252  29.689  28.419   4.128
20527W        W92253  25.192  41.578  12.399
20528W        W92254   9.807  22.807   4.164
20529W        W92255  10.786  18.636  11.238
20530W        W92256  17.975   9.071   0.364
20531W        W92257  14.691  42.509  14.431
20532W        W92258  35.461  42.691   2.177
20533W        W92259  42.812  11.290   3.685
20534W        W92260  21.651  38.271   4.193
20535W        W92261  22.101  18.155   1.242
20536W        W92262  39.963   7.720  12.134
20537W        W92263   8.420  40.928  11.974
20538W        W92264  32.140   4.159  13.186
20539W        W92265   5.805   6.119   0.831
20540W        W92266  18.016  16.635  14.099
20541W        W92267  43.064   8.715   4.824
20542W        W92268  44.846  35.227   3.599
20543W        W92269  15.390  32.080   1.356
20544W        W92270  26.658   9.744   0.212
20545W        W92271  17.316  38.354  12.641
20546W        W92272   6.847  20.472  13.566
20547W        W92273  14.893  44.408   0.272
20548W        W92274  24.284  18.030   0.532
20549W        W92275  32.798  21.995   3.833
20550W        W92276  12.323  23.758  14.207
20551W        W92277  36.844  41.377   0.210
20552W        W92278  33.114  13.063  11.553
20553W        W92279  38.294  39.061  13.473
20554W        W92280  41.888  20.724  14.458
20555W        W92281  23.604  43.836  10.622
20556W        W92282  37.180  25.588   5.127
20557W        W92283  22.132  24.556   2.881
20558W        W92284   5.065   8.150  13.546
20559W        W92285  29.679  26.005   9.586
20560W        W92286   0.047  10.082  12.066
20561W        W92287  27.073  10.334  14.334
20562W        W92288   4.756  25.701   4.424
20563W        W92289  36.882  16.081  14.827
20564W        W92290  17.438  43.456   0.314
20565W        W92291  28.524  27.658   3.954
20566W        W92292  14.389  14.316  11.640
20567W        W92293  42.508   5.248  10.445
20568W        W92294   0.223   7.455   0.333
20569W        W92295  41.600  27.657  14.747
20570W        W92296   5.407  18.298  12.575
20571W        W92297  22.636  16.292   0.467
20572W        W92298  23.677  43.290  11.506
20573W        W92299  33.398  15.875   0.843
20574W        W92300  24.988  14.428   4.830
20575W        W92301  17.205  39.447   0.287
20576W        W92302  41.204  23.483   1.012
20577W        W92303  13.894  34.367   4.147
20578W        W92304   9.673  25.004  13.270
20579W        W92305  35.170  11.250  12.089
20580W        W92306  43.008  34.501  11.229
20581W        W92307  25.534   4.869  10.698
20582W        W92308  33.150  42.720   0.880
20583W        W92309  32.194  21.306   1.378
20584W        W92310   8.388  14.568  11.950
20585W        W92311   8.165  10.422   5.168
20586W        W92312  28.142  43.796  11.449
20587W        W92313   9.614  40.968   2.157
20588W        W92314  37.527  24.631   0.449
20589W        W92315  20.966  33.639  13.210
20590W        W92316   2.612  38.494  14.562
20591W        W92317   8.836   6.443   4.359
20592W        W92318  32.697  34.393  14.365
20593W        W92319   9.163   1.573   0.376
20594W        W92320  25.441  37.296   4.600
20595W        W92321  11.865   7.256  11.385
20596W        W92322  31.451  36.955   4.313
20597W        W92323  33.115   3.333   4.884
20598W        W92324   6.162  43.904  13.568
20599W        W92325  41.220  22.747  10.829
20600W        W92326  12.782   1.987   1.345
20601W        W92327  38.814  12.328   3.727
20602W        W92328  18.810  40.824   1.806
20603W        W92329   0.893  27.299   1.247
20604W        W92330  14.136   7.198  13.918
20605W        W92331  33.971  34.996   1.835
20606W        W92332  29.442  19.547  12.430
20607W        W92333  25.760   0.264   0.802
20608W        W92334   5.896  31.484   3.041
20609W        W92335   3.371  27.232   2.764
20610W        W92336   6.930  18.633   3.631
20611W        W92337   5.053  18.130   3.260
20612W        W92338  38.050  32.616   3.146
20613W        W92339   8.907  17.289   3.137
20614W        W92340  28.883  34.287   3.442
20615W        W92341  33.637   8.365  11.592
20616W        W92342  42.265  37.453  14.776
20617W        W92343  28.638  10.654   3.664
20618W        W92344  24.019   5.240   3.835
20619W        W92345   3.690  26.132  11.133
20620W        W92346   2.181  29.036   3.869
20621W        W92347   9.386  42.507  11.619
20622W        W92348  18.978  23.445  13.633
20623W        W92349   8.417   5.736   0.380
20624W        W92350  20.040  18.161  13.047
20625W        W92351   8.212  19.209  12.150
20626W        W92352  37.831   8.959  11.155
20627W        W92353  13.772   0.515  10.665
20628W        W92354   8.828  33.265  10.712
20629W        W92355  39.383  19.824  11.955
20630W        W92356   5.676  44.567  12.304
20631W        W92357  29.636  14.285  10.336
20632W        W92358   1.807  38.987   2.699
20633W        W92359  16.888  39.871  12.311
20634W        W92360  35.348  21.846  13.331
20635W        W92361  28.684  30.730  14.121
20636W        W92362   3.621  13.115   4.146
20637W        W92363  19.820  27.047   1.744
20638W        W92364  32.636  25.470  13.875
20639W        W92365  32.341  41.065  14.514
20640W        W92366  21.259  30.922   2.118
20641W        W92367  37.548   7.191  11.653
20642W        W92368  12.292   2.305  14.517
20643W        W92369  20.615   4.973   1.679
20644W        W92370  31.134  39.987  13.759
20645W        W92371  38.885  43.274   2.340
20646W        W92372   3.503  40.895   1.206
20647W        W92373   0.222  35.823   0.694
20648W        W92374   6.816  28.456   0.389
20649W        W92375  12.713  27.940   1.883
20650W        W92376  29.815  26.385   2.228
20651W        W92377  42.409  28.944   0.380
20652W        W92378  42.815  36.096   1.181
20653W        W92379   5.352   5.849   0.721
20654W        W92380  27.108  21.513  12.545
20655W        W92381  33.375   0.824   4.135
20656W        W92382  12.144  27.482  14.273
20657W        W92383  11.786  37.903   4.475
20658W        W92384  37.492  31.154  14.520
20659W        W92385  26.522  32.990  10.271
20660W        W92386  35.480  15.149  11.712
20661W        W92387  11.740  29.485   0.694
20662W        W92388  40.930  19.771  14.521
20663W        W92389  25.128  25.880  10.605
20664W        W92390  28.493  36.120   4.252
20665W        W92391  32.019  29.558   0.384
20666W        W92392  24.948   4.325  14.233
20667W        W92393  19.200  16.688  12.595
20668W        W92394  25.988  40.584   0.455
20669W        W92395   5.259  27.420   3.128
20670W        W92396  10.843  33.742   4.635
20671W        W92397  16.438  44.733   0.982
20672W        W92398  19.019  19.055  11.506
20673W        W92399  34.536   9.479   2.926
20674W        W92400   0.462   9.259   4.132
20675W        W92401  29.920  12.710  14.320
20676W        W92402  14.828  39.486  10.682
20677W        W92403   8.861   1.581  10.959
20678W        W92404  12.413  31.510  14.413
20679W        W92405   0.297  17.845  11.494
20680W        W92406  21.962  18.500   3.627
20681W        W92407  16.638  41.039   2.579
20682W        W92408  42.857  25.423  13.367
20683W        W92409   3.084  38.446  13.500
20684W        W92410  27.664  39.209  11.429
20685W        W92411  31.039  29.688  14.660
20686W        W92412  27.341  16.842  11.997
20687W        W92413  12.817  19.719  11.081
20688W        W92414  10.759  19.764   4.586
20689W        W92415  30.029  10.777  14.484
20690W        W92416  18.994  21.181  12.553
20691W        W92417  44.586  43.367   1.305
20692W        W92418  40.287  40.731  12.119
20693W        W92419  22.466  41.028   3.334
20694W        W92420   2.236  12.409   4.554
20695W        W92421  11.843   9.696  10.634
20696W        W92422  36.583  22.549   2.742
20697W        W92423  30.951  12.851   1.466
20698W        W92424  17.804  40.522   0.915
20699W        W92425   8.511  21.480   2.015
20700W        W92426  18.156   7.251   4.636
20701W        W92427  32.202  40.905  13.822
20702W        W92428  43.372  38.909  14.087
20703W        W92429   3.312  42.236   1.047
20704W        W92430  22.470   5.484  12.494
20705W        W92431   4.444   8.338  11.473
20706W        W92432  31.536   4.818  13.912
20707W        W92433  12.010   1.746  12.438
20708W        W92434  14.947  11.252  12.520
20709W        W92435  33.458  28.710  13.892
20710W        W92436   9.209   2.596   1.379
20711W        W92437  33.398  22.774   1.686
20712W        W92438  16.874  35.960   0.779
20713W        W92439  14.604   2.892   2.437
20714W        W92440  17.864  35.081  14.377
20715W        W92441   9.663  13.162  13.914
20716W        W92442  16.114  20.837   3.691
20717W        W92443   9.246  37.390   4.099
20718W        W92444  41.970  23.468   2.803
20719W        W92445  29.975  41.813   2.004
20720W        W92446  15.737  18.724   4.540
20721W        W92447   0.297  11.102   1.825
20722W        W92448  10.908  25.531   0.728
20723W        W92449   8.290  43.009   0.311
20724W        W92450  19.911  35.098   3.239
20725W        W92451  15.789   7.421  12.831
20726W        W92452  14.411  26.637   0.957
20727W        W92453  13.869   9.009  13.341
20728W        W92454  14.292  12.454  11.426
20729W        W92455   0.106  35.137   2.499
20730W        W92456  20.223  39.085  10.706
20731W        W92457  34.537  26.410   0.235
20732W        W92458  37.106  38.578   0.488
20733W        W92459  37.959  20.695   4.711
20734W        W92460  16.184  38.577  14.306
20735W        W92461  33.737  41.378   4.160
20736W        W92462  40.799  22.200  14.016
20737W        W92463   8.896  18.175  12.039
20738W        W92464  44.041  23.489   2.731
20739W        W92465  39.463  13.277   3.178
20740W        W92466   7.914  27.958   0.357
20741W        W92467  38.838   8.281   4.873
20742W        W92468   2.334  37.910  13.735
20743W        W92469  22.489  18.733   0.018
20744W        W92470  44.550  23.681   3.796
20745W        W92471   4.160   6.725   4.588
20746W        W92472  26.509  19.235  11.484
20747W        W92473  32.321   8.890  11.989
20748W        W92474  35.979  16.574   2.817
20749W        W92475  19.614  12.645  14.986
20750W        W92476   4.809  14.997  13.720
20751W        W92477  34.647   0.515  11.644
20752W        W92478  24.457  25.448  14.823
20753W        W92479   9.912  18.731  14.358
20754W        W92480  24.751   9.921   1.704
20755W        W92481   9.884  24.742  11.947
20756W        W92482   9.619  10.647  10.670
20757W        W92483   9.086  31.638   1.402
20758W        W92484  37.933  13.156  11.518
20759W        W92485  30.490  16.229  13.608
20760W        W92486  28.105  11.241  12.509
20761W        W92487   7.718  42.835  14.539
20762W        W92488  30.016  34.298  14.390
20763W        W92489  39.335   7.845   0.499
20764W        W92490   1.802  14.254   1.945
20765W        W92491  43.703  35.942  14.950
20766W        W92492  14.645  33.643   2.703
20767W        W92493  24.993   8.927   4.122
20768W        W92494  28.872  24.755  11.700
20769W        W92495  32.800  11.741   4.273
20770W        W92496   1.246  35.922  11.146
20771W        W92497   4.474  15.749  10.552
20772W        W92498   2.181   8.259   0.378
20773W        W92499  31.397   9.039   2.867
20774W        W92500  43.097   8.654  10.737
20775W        W92501  16.922  20.830  14.982
20776W        W92502   9.594  23.481   1.267
20777W        W92503  22.111  22.867   0.768
20778W        W92504   3.473   2.919  13.678
20779W        W92505  26.487  17.788  13.859
20780W        W92506  38.373  33.024   4.634
20781W        W92507   9.023  38.495  12.349
20782W        W92508  35.665  41.036  12.423
20783W        W92509   9.668  19.512   4.054
20784W        W92510  12.729  23.411  11.099
20785W        W92511   3.865  24.323  10.882
20786W        W92512  42.429  44.079  11.009
20787W        W92513  20.030  15.409   4.238
20788W        W92514  14.878  43.417  13.028
20789W        W92515  17.181  10.126   0.691
20790W        W92516   1.471  17.782   0.797
20791W        W92517  22.907  27.595   3.145
20792W        W92518   5.976  29.672  13.830
20793W        W92519  24.155  14.719   2.877
20794W        W92520  13.266   2.219  14.559
20795W        W92521  35.514  35.027   4.378
20796W        W92522  16.903  44.549  12.157
20797W        W92523  38.414   7.436  14.200
20798W        W92524  27.462  18.733  12.157
20799W        W92525  34.900  17.657   1.547
20800W        W92526  33.128   7.540   3.654
20801W        W92527  35.952  39.334  12.529
20802W        W92528   8.831  12.844   2.533
20803W        W92529  18.288   7.539   0.193
20804W        W92530  38.603  14.736  14.886
20805W        W92531  42.566  33.534   5.072
20806W        W92532  10.368   2.335  10.918
20807W        W92533  36.753  31.114   4.821
20808W        W92534  34.761   0.016  11.506
20809W        W92535   5.372  15.870   2.773
20810W        W92536  42.523  34.408  12.008
20811W        W92537  32.466   5.252  10.577
20812W        W92538  18.769  19.572   0.217
20813W        W92539   5.831  29.537   3.102
20814W        W92540  39.011  41.865  11.174
20815W        W92541  43.564  10.713   3.597
20816W        W92542  12.241   1.790   3.192
20817W        W92543   1.429  17.568   4.884
20818W        W92544  38.458  20.680   4.532
20819W        W92545   7.810  41.056  14.319
20820W        W92546  40.496  13.774  14.858
20821W        W92547  34.515  22.753   1.848
20822W        W92548   9.022   2.100   3.363
20823W        W92549  19.792  27.852  13.925
20824W        W92550  34.590  25.896  12.529
20825W        W92551  21.020  36.204   3.313
20826W        W92552  11.875  33.345   4.514
20827W        W92553   8.211  39.468  13.755
20828W        W92554  39.565  36.642   1.659
20829W        W92555  24.766  32.902  10.667
20830W        W92556  44.853   9.826  10.763
20831W        W92557   3.119  13.526   3.558
20832W        W92558  31.308  33.312   2.822
20833W        W92559  31.818  42.460   2.992
20834W        W92560  28.143  17.366  11.093
20835W        W92561   6.661  13.597   4.161
20836W        W92562  32.437  12.315  11.394
20837W        W92563  27.245   8.381  11.128
20838W        W92564  34.028  44.152  13.301
20839W        W92565  17.420  26.557  12.502
20840W        W92566   3.700  22.503   3.239
20841W        W92567  42.893  41.346  14.925
20842W        W92568  22.470  17.052  13.625
20843W        W92569  37.279  44.889   2.387
20844W        W92570  12.316  20.531   4.203
20845W        W92571  42.308  12.593  14.393
20846W        W92572  32.077  11.096  14.313
20847W        W92573  44.360  16.095  10.406
20848W        W92574  10.484  24.498   0.474
20849W        W92575  44.117  38.006   3.754
20850W        W92576  10.609  43.508  13.249
20851W        W92577  33.474  42.316   2.182
20852W        W92578  11.311  27.697  11.349
20853W        W92579   8.410  27.698   3.785
20854W        W92580  32.464   8.727   4.837
20855W        W92581  29.341  44.255  14.408
20856W        W92582  12.066  37.410  12.408
20857W        W92583  34.525   3.849  14.821
20858W        W92584  36.616   4.690   0.039
20859W        W92585   3.270  23.983   2.263
20860W        W92586   5.951  20.046   3.798
20861W        W92587  25.487  22.126   1.185
20862W        W92588  44.395  21.410  10.276
20863W        W92589  15.158   6.516   2.293
20864W        W92590  34.087  34.517   0.939
20865W        W92591   7.646  41.813  13.963
20866W        W92592  24.166   8.221  14.571
20867W        W92593  15.751   3.461   1.451
20868W        W92594  11.644  40.037  11.199
20869W        W92595  16.711  15.742  12.409
20870W        W92596   2.496   8.841  12.930
20871W        W92597   7.809  19.075   4.518
20872W        W92598  13.719  12.441  10.654
20873W        W92599   6.152   4.730   1.701
20874W        W92600   2.891  16.993  10.414
20875W        W92601  16.562   6.700   0.921
20876W        W92602  20.531  38.586  11.591
20877W        W92603  15.174  34.441   4.349
20878W        W92604  35.384   0.302   2.278
20879W        W92605  19.127   5.522  12.897
20880W        W92606  29.390  34.631  10.710
20881W        W92607   4.185  20.575   3.608
20882W        W92608   0.909  39.865  12.446
20883W        W92609  13.621  40.532   1.982
20884W        W92610  31.003   6.429  14.429
20885W        W92611  31.482  23.598  13.144
20886W        W92612   3.727  41.712  14.847
20887W        W92613  12.569  22.196  11.097
20888W        W92614   7.460  26.706   0.274
20889W        W92615   9.047  17.318  10.072
20890W        W92616  24.178  13.044  11.093
20891W        W92617  40.915  37.522  13.142
20892W        W92618   3.520  16.133  13.174
20893W        W92619  25.587  29.561   0.155
20894W        W92620  22.638  15.110  13.426
20895W        W92621   2.307  20.357  12.546
20896W        W92622  29.890  15.681  13.932
20897W        W92623  20.731   1.966   1.939
20898W        W92624  28.035  42.307  11.613
20899W        W92625   8.198  14.810   2.710
20900W        W92626   8.154  38.819   4.565
20901W        W92627  18.689  12.875   1.342
20902W        W92628  10.175  23.193  10.622
20903W        W92629  15.102  26.681   4.085
20904W        W92630  38.052  24.193  12.711
20905W        W92631  16.535  26.580   1.438
20906W        W92632  28.909  32.560  14.787
20907W        W92633  39.948  11.393   0.360
20908W        W92634  17.974  39.120  10.127
20909W        W92635  19.698  39.368  13.403
20910W        W92636   0.957  20.675   4.699
20911W        W92637  24.056  11.839  13.630
20912W        W92638   0.204  29.393   0.951
20913W        W92639  29.116  41.829   2.932
20914W        W92640  22.237  12.693  10.330
20915W        W92641  27.559   1.553  12.432
20916W        W92642  33.849  39.496   3.152
20917W        W92643  24.045  36.826   1.102
20918W        W92644   8.207  13.343  11.571
20919W        W92645  43.058  15.259  11.637
20920W        W92646  26.563  13.641   0.284
20921W        W92647  44.389  31.691   0.356
20922W        W92648  41.373   7.808  10.551
20923W        W92649  31.732  44.374   1.814
20924W        W92650  25.706  19.436  11.100
20925W        W92651  41.830  23.152   1.152
20926W        W92652  11.589  13.692   0.247
20927W        W92653   7.677  15.486  10.333
20928W        W92654  14.617   7.845   4.066
20929W        W92655  28.486  32.892   2.188
20930W        W92656  22.181  22.602  14.886
20931W        W92657  27.495  33.681   0.029
20932W        W92658  29.538  15.239   0.835
20933W        W92659   8.587  21.696  11.039
20934W        W92660  31.848  34.300  10.260
20935W        W92661  28.720  22.017   0.789
20936W        W92662  42.459   6.729   0.183
20937W        W92663   0.455  10.616   4.533
20938W        W92664  41.772  21.917  10.620
20939W        W92665  43.294  23.604  12.510
20940W        W92666  18.737  23.004   3.355
20941W        W92667   7.860  36.149   5.063
20942W        W92668   0.680  20.078  14.834
20943W        W92669  30.500  26.828   1.776
20944W        W92670   2.211  13.906   1.121
20945W        W92671   2.651  18.532  11.956
20946W        W92672   7.178  35.704   9.501
20947W        W92673  29.052  11.267  10.744
20948W        W92674   7.911  34.716   9.713
20949W        W92675  27.800  38.785  11.701
20950W        W92676  28.511  31.236  12.108
20951W        W92677  14.919  39.907   3.214
20952W        W92678  32.918  12.235  13.859
20953W        W92679  31.580  43.597  14.483
20954W        W92680  44.289  37.759   3.149
20955W        W92681  20.628  11.614   0.770
20956W        W92682  38.253  28.631   2.886
20957W        W92683  23.513  18.821   1.027
20958W        W92684  28.677  42.976  11.432
20959W        W92685   8.519  32.728   1.750
20960W        W92686  25.621   7.303   1.918
20961W        W92687   5.365  22.747   2.842
20962W        W92688  18.296  13.155   0.815
20963W        W92689  43.069  34.023   4.265
20964W        W92690  44.322  23.994  12.610
20965W        W92691  13.391  17.691   0.779
20966W        W92692  10.752   4.445  13.434
20967W        W92693  26.457  13.224  12.446
20968W        W92694  24.575   8.488   3.271
20969W        W92695   8.022  19.310   0.375
20970W        W92696  19.289  29.632   4.196
20971W        W92697  28.981   6.369   2.285
20972W        W92698  34.070  43.904   4.183
20973W        W92699   8.931   6.666   3.859
20974W        W92700  19.470  33.063   1.488
20975W        W92701  39.289   5.785  13.483
20976W        W92702   3.783  31.061  14.213
20977W        W92703  15.323   3.899   3.053
20978W        W92704   4.409   7.384   3.729
20979W        W92705  18.316  40.322   1.461
20980W        W92706  13.268  38.566  13.456
20981W        W92707  21.287   8.652   5.056
20982W        W92708   6.257  36.820  14.353
20983W        W92709  26.067  23.525   0.824
20984W        W92710  19.306   0.384  10.709
20985W        W92711  17.820  20.650   3.270
20986W        W92712   4.774  40.600  13.511
20987W        W92713  27.942  14.046  10.980
20988W        W92714  10.896   3.672  11.616
20989W        W92715  23.711  25.501   1.501
20990W        W92716  21.692  35.931  14.856
20991W        W92717  35.403  40.949   4.466
20992W        W92718  39.231  36.870  10.616
20993W        W92719  35.277  33.419  12.507
20994W        W92720  35.621  26.176  10.757
20995W        W92721  38.058  18.062   4.258
20996W        W92722  30.774  29.177  13.817
20997W        W92723   2.517  36.131   1.513
20998W        W92724  35.873  26.614  10.639
20999W        W92725   9.340  11.882   1.671
21000W        W92726  31.213  12.533  14.953
21001W        W92727  33.419  42.836  12.897
21002W        W92728  17.063  19.585   1.324
21003W        W92729  26.669  10.330   2.377
21004W        W92730  14.048  32.378  13.611
21005W        W92731   3.742  40.415  10.821
21006W        W92732  29.123  28.673   3.743
21007W        W92733  18.805  43.804   1.232
21008W        W92734  41.549  44.250   0.781
21009W        W92735   3.704  35.742   4.154
21010W        W92736  14.388  16.556  11.635
21011W        W92737  27.586  14.060   4.484
21012W        W92738  28.878   8.776  11.559
21013W        W92739  20.233  30.183   3.093
21014W        W92740  29.839  39.281  12.186
21015W        W92741  15.180  10.868   2.321
21016W        W92742  35.136  42.796   1.779
21017W        W92743  34.326  42.848  13.213
21018W        W92744  44.380  21.845  14.370
21019W        W92745   2.021  27.491  11.509
21020W        W92746  32.662  21.276   3.131
21021W        W92747  16.287  35.223   2.800
21022W        W92748  26.663  12.624  11.298
21023W        W92749  11.449  38.518  13.340
21024W        W92750  33.535   3.467   3.285
21025W        W92751   2.327  25.236  10.724
21026W        W92752  37.330  43.771  14.044
21027W        W92753  18.251  32.711   4.098
21028W        W92754  39.490  23.152  13.991
21029W        W92755  10.419  17.197  13.442
21030W        W92756   5.472   6.643  10.037
21031W        W92757   9.238  12.636  11.444
21032W        W92758  24.273  41.033  13.505
21033W        W92759  21.558  10.138  12.433
21034W        W92760  30.165  39.386  10.779
21035W        W92761   2.312  12.219  11.367
21036W        W92762  21.712  19.646  11.957
21037W        W92763  20.692  11.086   3.624
21038W        W92764   6.163  26.525  13.057
21039W        W92765  38.587  21.676  12.062
21040W        W92766  33.430  38.566  11.553
21041W        W92767   4.740  35.493  14.438
21042W        W92768  36.969  43.284   4.902
21043W        W92769  43.580  34.661   3.329
21044W        W92770  39.341  24.722  14.774
21045W        W92771  12.532  12.389   2.411
21046W        W92772   0.364  27.283  12.514
21047W        W92773  37.800  38.935  14.544
21048W        W92774  34.600  44.388  13.961
21049W        W92775  21.722  10.291  10.480
21050W        W92776  31.575  27.105   4.545
21051W        W92777  28.924  38.446   2.759
21052W        W92778  26.389  26.719  12.144
21053W        W92779  13.807   5.752   4.170
21054W        W92780   0.374  24.032   4.112
21055W        W92781   9.831  27.527  11.601
21056W        W92782   3.009  40.317  14.519
21057W        W92783  37.962  20.755  14.120
21058W        W92784  31.762  13.379   2.372
21059W        W92785  11.269  38.526  11.954
21060W        W92786  30.718   6.775  12.174
21061W        W92787  16.731  27.387   1.877
21062W        W92788  28.159  24.974   3.133
21063W        W92789  41.885  17.992   1.228
21064W        W92790   6.198  37.792   0.378
21065W        W92791  41.534  42.030  11.911
21066W        W92792  13.348  11.494  12.373
21067W        W92793  10.780   6.612  12.553
21068W        W92794  42.066  21.560  14.920
21069W        W92795  12.632  40.757   4.860
21070W        W92796  19.173  18.221   4.596
21071W        W92797  30.509  10.124  12.993
21072W        W92798  15.276  18.710   4.781
21073W        W92799   9.892  12.641  12.099
21074W        W92800   0.781  30.979  11.599
21075W        W92801  32.988  43.972   3.101
21076W        W92802  30.143   3.213   0.344
21077W        W92803  41.792  19.106   1.800
21078W        W92804  31.583  33.608   4.213
21079W        W92805  13.124   8.636   1.948
21080W        W92806  21.853  22.033  13.973
21081W        W92807  38.935  27.276  14.452
21082W        W92808  42.540  38.578  14.327
21083W        W92809   4.045   7.164   1.947
21084W        W92810   4.303  19.834  14.994
21085W        W92811  43.081  33.457  13.890
21086W        W92812   6.909  26.672  12.548
21087W        W92813  24.676  22.874   0.476
21088W        W92814  24.237  14.203  12.139
21089W        W92815  13.849   8.412   3.240
21090W        W92816  44.221  12.676   4.695
21091W        W92817  42.512  42.768   0.948
21092W        W92818  17.106  22.192  10.565
21093W        W92819   8.411   7.327   1.666
21094W        W92820   1.488  41.077   3.159
21095W        W92821   8.323  23.961   4.190
21096W        W92822   0.526  10.237  12.032
21097W        W92823  30.102  26.483  10.945
21098W        W92824  11.877  25.063  13.819
21099W        W92825  19.849  23.194   0.463
21100W        W92826  36.591  18.062  12.450
21101W        W92827  25.702  31.743   1.771
21102W        W92828  30.522   1.828   2.376
21103W        W92829   1.331  21.560   2.752
21104W        W92830  27.455   6.480   3.245
21105W        W92831   7.912  27.414  14.487
21106W        W92832  19.138  44.094  14.467
21107W        W92833  16.634  14.901   1.332
21108W        W92834  14.159   5.679  13.926
21109W        W92835   6.513   5.375   0.517
21110W        W92836   1.499  10.464  12.102
21111W        W92837  18.533   6.222   4.167
21112W        W92838   0.533  17.598   0.872
21113W        W92839  25.266  40.519  11.168
21114W        W92840  39.048  10.877  14.791
21115W        W92841  36.498  34.326  12.168
21116W        W92842  10.950  29.024  11.492
21117W        W92843  18.368  35.018   3.297
21118W        W92844  40.787   6.878  14.975
21119W        W92845  14.234  33.992   1.883
21120W        W92846  14.845  25.929  14.946
21121W        W92847  32.401  37.500   2.415
21122W        W92848  12.712  38.955  14.837
21123W        W92849  39.463  38.089   0.176
21124W        W92850   8.765  25.136  12.446
21125W        W92851  26.445  22.040  11.184
21126W        W92852  25.266  27.066  14.632
21127W        W92853  31.290   1.884   3.249
21128W        W92854  19.443   3.022   3.726
21129W        W92855   1.248  34.746  11.710
21130W        W92856  18.789   8.375   3.704
21131W        W92857  15.095  41.740   0.463
21132W        W92858  12.423  11.048   1.288
21133W        W92859   2.460   5.242   4.089
21134W        W92860  25.074  21.126  10.898
21135W        W92861   4.774  31.968   3.238
21136W        W92862  36.045  38.442  12.028
21137W        W92863   4.400  31.001  13.007
21138W        W92864  10.837  39.425   2.157
21139W        W92865  24.957  41.544   2.448
21140W        W92866   8.148  24.720   2.463
21141W        W92867  18.643  29.859  12.357
21142W        W92868  44.989   3.257   0.701
21143W        W92869  22.950  31.652   2.163
21144W        W92870  20.715  12.677   2.311
21145W        W92871  22.011  33.185   1.824
21146W        W92872  36.433  39.910  13.101
21147W        W92873  44.063  43.440   1.365
21148W        W92874  44.309   6.699  12.080
21149W        W92875  10.605  40.810   4.718
21150W        W92876  21.063  32.587  11.827
21151W        W92877  31.318  34.915   4.151
21152W        W92878   2.117  23.546   2.829
21153W        W92879  16.269  10.890   1.528
21154W        W92880  41.283   8.663  13.858
21155W        W92881  22.036  18.477  14.901
21156W        W92882  13.684  19.258   3.235
21157W        W92883  13.761  17.711  13.001
21158W        W92884  18.790  25.514   4.644
21159W        W92885   8.322  38.024  14.979
21160W        W92886  23.703  44.813  14.308
21161W        W92887  28.154   5.613  14.802
21162W        W92888   2.524  28.090   4.159
21163W        W92889  35.464  44.274   4.882
21164W        W92890   6.722  37.568   3.180
21165W        W92891  31.259  40.747   4.020
21166W        W92892  44.926   6.224  12.470
21167W        W92893  17.661  17.475   2.860
21168W        W92894  40.089  17.112  14.455
21169W        W92895  39.330   8.202   1.318
21170W        W92896  22.965  18.890  14.836
21171W        W92897  25.941  32.029  12.549
21172W        W92898  20.309  40.393   4.630
21173W        W92899  23.643  11.216   2.733
21174W        W92900  39.399  40.756  12.064
21175W        W92901  32.495  32.081   1.692
21176W        W92902  23.791   1.933   1.018
21177W        W92903   2.534  20.668  10.783
21178W        W92904   3.745  14.254  10.191
21179W        W92905  39.969  13.664  14.580
21180W        W92906  22.192  18.610  10.710
21181W        W92907  40.061  42.551   4.142
21182W        W92908  19.484   9.184   4.598
21183W        W92909   6.366   9.661  12.919
21184W        W92910   0.058  36.041   3.200
21185W        W92911  25.924  39.305  11.111
21186W        W92912  44.038  28.397  14.324
21187W        W92913  35.061  24.123  10.638
21188W        W92914  38.931  20.697   3.302
21189W        W92915  18.213  10.818  11.632
21190W        W92916   1.947   2.354  11.099
21191W        W92917  21.088  30.381  12.143
21192W        W92918   3.652  18.464   5.040
21193W        W92919  32.958   4.192   2.202
21194W        W92920  34.468  11.597  13.899
21195W        W92921  14.911   7.702  14.312
21196W        W92922  25.476  44.542   0.946
21197W        W92923  44.319  39.401   4.309
21198W        W92924   5.296  28.671  12.154
21199W        W92925  31.302   5.929  13.301
21200W        W92926  28.055  16.500  12.593
21201W        W92927  41.725   0.488   1.219
21202W        W92928  41.264  20.725   3.126
21203W        W92929  34.694  35.264   0.907
21204W        W92930  41.319  41.274  13.903
21205W        W92931  29.492  17.103  12.279
21206W        W92932  30.387  35.637   0.446
21207W        W92933  14.693  13.769  13.324
21208W        W92934   7.839  38.416  14.365
21209W        W92935   3.848  33.806   1.703
21210W        W92936  15.882   3.083   1.758
21211W        W92937  27.282  17.653   1.819
21212W        W92938   0.848   7.409  12.926
21213W        W92939  19.496  30.473   3.400
21214W        W92940  17.546  25.537  14.551
21215W        W92941  41.384  18.619   3.144
21216W        W92942   7.621  42.013  14.743
21217W        W92943  10.551  42.775   1.685
21218W        W92944   9.795  18.228  11.069
21219W        W92945  38.113   1.338   1.946
21220W        W92946  14.641   5.874   3.775
21221W        W92947  21.174  26.674   1.218
21222W        W92948   6.243  24.274  13.424
21223W        W92949  28.496  33.906   4.852
21224W        W92950  13.767  36.365  11.597
21225W        W92951  18.145  30.999   2.180
21226W        W92952  15.853  28.712   1.858
21227W        W92953  16.410   9.587   1.003
21228W        W92954  13.839  16.351   2.043
21229W        W92955  22.906  43.602  11.007
21230W        W92956  39.592   5.744   4.534
21231W        W92957  35.586  35.879   0.064
21232W        W92958  27.678  33.025   1.127
21233W        W92959  28.152  28.926  11.505
21234W        W92960   2.427  26.254   0.746
21235W        W92961  20.212  27.401  12.158
21236W        W92962  41.985   4.438  11.236
21237W        W92963  33.593  26.958  11.569
21238W        W92964  29.868  40.468  13.915
21239W        W92965  39.424  24.523   3.429
21240W        W92966  15.697  36.846   3.559
21241W        W92967  28.768   1.698  11.100
21242W        W92968  13.177  16.020   1.443
21243W        W92969  29.650  10.586   2.272
21244W        W92970   0.955   3.766  14.819
21245W        W92971  30.115  22.878  14.812
21246W        W92972  17.627  24.527  10.680
21247W        W92973  34.605  34.578  12.013
21248W        W92974  16.751  26.081   3.728
21249W        W92975  13.377  44.415   1.863
21250W        W92976  44.251  29.402  11.661
21251W        W92977   6.311  17.845   0.750
21252W        W92978  27.937  17.632   3.577
21253W        W92979  42.555   1.037   1.800
21254W        W92980  20.981  36.515   4.204
21255W        W92981  17.715   2.021   1.698
21256W        W92982  24.200   0.724   2.924
21257W        W92983  44.747  12.207   4.173
21258W        W92984  21.756  38.669  10.177
21259W        W92985   0.299   8.748  13.570
21260W        W92986   7.815  17.842   0.391
21261W        W92987   4.277   1.040  12.629
21262W        W92988  28.621  28.214  14.448
21263W        W92989   8.921  31.937   0.955
21264W        W92990  19.489  31.253   2.813
21265W        W92991  32.076  42.896   2.898
21266W        W92992   3.205  35.937  11.030
21267W        W92993  36.843   5.920  11.604
21268W        W92994  15.710   8.276   1.025
21269W        W92995  14.214   9.701  10.888
21270W        W92996  35.688  12.728  11.999
21271W        W92997  21.543  26.566  10.665
21272W        W92998   7.798  22.315  13.024
21273W        W92999  42.810  16.650   0.090
21274W        W93000   7.705  41.499   1.617
21275W        W93001   5.354   6.621  10.573
21276W        W93002   0.296  26.716   4.551
21277W        W93003   0.973  34.385  14.100
21278W        W93004   2.710   3.604   2.819
21279W        W93005  20.508  28.693   3.299
21280W        W93006  41.023  27.285   3.334
21281W        W93007  24.034  17.407   4.974
21282W        W93008   1.917  14.611  12.356
21283W        W93009   6.230   7.756   1.766
21284W        W93010  34.382  29.839   2.796
21285W        W93011  28.498  14.331  13.908
21286W        W93012  41.626  20.295   3.279
21287W        W93013  23.706  44.867   4.489
21288W        W93014  24.395  26.366   4.498
21289W        W93015   4.015  22.030   4.636
21290W        W93016   1.862  38.971   0.455
21291W        W93017   5.249   6.441  12.057
21292W        W93018  23.709  16.624   0.826
21293W        W93019   9.723  12.325   2.422
21294W        W93020  28.674  25.095   3.098
21295W        W93021  10.210  44.531  13.796
21296W        W93022  32.325  14.804  12.078
21297W        W93023  42.444   7.755   3.177
21298W        W93024   7.414   2.045  14.495
21299W        W93025  27.116  15.714   2.084
21300W        W93026  14.594  25.074   4.581
21301W        W93027  19.054  37.408  13.831
21302W        W93028  34.496  12.228  14.822
21303W        W93029  16.079  21.758   1.887
21304W        W93030  38.470  30.408   0.298
21305W        W93031  10.050  17.964  13.993
21306W        W93032  18.286  19.108   2.861
21307W        W93033  11.758  44.389  10.925
21308W        W93034  33.935   5.824  11.955
21309W        W93035  39.418  21.009  14.562
21310W        W93036   7.329   5.980   4.052
21311W        W93037  32.921  17.366   3.648
21312W        W93038  42.800  10.280  14.116
21313W        W93039  26.095  20.782  11.074
21314W        W93040  28.583  22.007  11.683
21315W        W93041  34.085   0.017  14.888
21316W        W93042  31.639  31.056  11.544
21317W        W93043   9.709  19.818   0.289
21318W        W93044  25.929  14.557   0.835
21319W        W93045   3.890  40.929  14.337
21320W        W93046  23.934  21.072  12.004
21321W        W93047  22.245  35.466   3.660
21322W        W93048   0.334   9.171  11.806
21323W        W93049  37.319  40.544  10.713
21324W        W93050  11.066  21.464   4.180
21325W        W93051  21.500  44.295   0.936
21326W        W93052  23.282  39.711  14.402
21327W        W93053  41.103  22.577   3.661
21328W        W93054   0.773   1.482  13.022
21329W        W93055   5.262  25.242   2.743
21330W        W93056  32.368  11.738  10.215
21331W        W93057  27.957   2.443  11.099
21332W        W93058  32.195  33.120   1.797
21333W        W93059  40.032  34.414  10.915
21334W        W93060  29.097  17.910   0.356
21335W        W93061  41.390  14.709   2.343
21336W        W93062  12.920  17.729  13.829
21337W        W93063   7.844  28.528  11.448
21338W        W93064   1.817  36.064  13.448
21339W        W93065   2.433  19.608   1.835
21340W        W93066  33.370  38.973  14.245
21341W        W93067  32.423  38.810  13.930
21342W        W93068  27.637  32.105   2.894
21343W        W93069  35.802  32.290  12.866
21344W        W93070   2.016  12.274   3.233
21345W        W93071  28.993  22.290   2.090
21346W        W93072  24.488  27.601   4.144
21347W        W93073   3.492  31.120   0.895
21348W        W93074  42.914  37.003   3.808
21349W        W93075  37.498  32.940   1.692
21350W        W93076  34.667  16.579   3.797
21351W        W93077  23.701  20.534   2.245
21352W        W93078  37.441  13.454  14.473
21353W        W93079  27.102  41.016   1.289
21354W        W93080   2.468  18.506  14.541
21355W        W93081  39.843  24.135   4.507
21356W        W93082  42.368   7.669   0.667
21357W        W93083  36.104   1.468   1.238
21358W        W93084  27.190  17.072  11.131
21359W        W93085  44.464   5.826   2.427
21360W        W93086   7.827  30.993   2.449
21361W        W93087   9.143  21.198  10.554
21362W        W93088  16.407  42.802  14.343
21363W        W93089  38.442  13.303   3.775
21364W        W93090  16.248  29.854  13.917
21365W        W93091  43.876  36.896   1.190
21366W        W93092  33.163  44.159  13.878
21367W        W93093  36.564  22.100  13.927
21368W        W93094   7.298  13.829   3.386
21369W        W93095  22.391  25.606   0.974
21370W        W93096   1.790  44.448  11.620
21371W        W93097  42.277  34.058  10.386
21372W        W93098  32.523   3.380  13.519
21373W        W93099  26.987  41.549  13.091
21374W        W93100  36.651  34.614   1.657
21375W        W93101   9.808  33.045   2.354
21376W        W93102  29.054  38.802  11.948
21377W        W93103   2.439  35.861  10.685
21378W        W93104  21.883  18.127   1.718
21379W        W93105  12.207  13.888   1.313
21380W        W93106  43.076  27.347   1.874
21381W        W93107   8.887  40.626   2.939
21382W        W93108  21.193  14.539  12.205
21383W        W93109  15.842  18.201   1.301
21384W        W93110  36.003  35.376   1.858
21385W        W93111  29.160  18.416   0.369
21386W        W93112  22.890  32.417  12.951
21387W        W93113  15.319  35.579  10.766
21388W        W93114   6.838   6.726  14.212
21389W        W93115   1.617  17.604   2.000
21390W        W93116  11.927  43.860   1.403
21391W        W93117  10.755   0.492   4.354
21392W        W93118  25.298  24.036   3.108
21393W        W93119  24.904  15.800  12.117
21394W        W93120  37.561  31.945  14.942
21395W        W93121  15.055  19.292  12.774
21396W        W93122   9.229  44.828  10.992
21397W        W93123  23.972  31.211   2.674
21398W        W93124  33.712  21.935  11.988
21399W        W93125  18.976  18.718   0.197
21400W        W93126  36.454  15.296  13.348
21401W        W93127  28.116   2.983   2.733
21402W        W93128  13.569   9.284  10.474
21403W        W93129  10.713  33.316  12.069
21404W        W93130  30.155  34.924   1.703
21405W        W93131  30.723  25.886   0.356
21406W        W93132  25.069  21.798   2.301
21407W        W93133   8.095   5.540  11.894
21408W        W93134  33.604  11.821  12.598
21409W        W93135  11.170  33.857  12.532
21410W        W93136  33.664   8.303   4.140
21411W        W93137   8.771  30.685   0.497
21412W        W93138  33.708  21.121  13.877
21413W        W93139   3.262  26.067  11.412
21414W        W93140  34.379  35.899   1.456
21415W        W93141   3.658   8.760  14.058
21416W        W93142  15.390  22.273   2.529
21417W        W93143   9.736  16.188   4.217
21418W        W93144  33.639  23.506  10.616
21419W        W93145  37.111  39.530  12.542
21420W        W93146  38.494  15.386  11.623
21421W        W93147  19.170  37.986  11.711
21422W        W93148  11.224  18.347   2.371
21423W        W93149  30.673  27.250  13.082
21424W        W93150  37.319  25.635   4.246
21425W        W93151  31.962  19.231   3.823
21426W        W93152  39.609  37.430   1.971
21427W        W93153  28.020   8.816   1.362
21428W        W93154  42.989  20.526   0.957
21429W        W93155  29.420  20.623   3.591
21430W        W93156  12.853  13.781   2.807
21431W        W93157  19.967  41.959  12.086
21432W        W93158   7.332  40.803   0.460
21433W        W93159  34.482  32.995   4.289
21434W        W93160  33.015   7.820  13.811
21435W        W93161  35.777  28.148   4.715
21436W        W93162   7.123  37.373  13.803
21437W        W93163  28.292   0.184   0.824
21438W        W93164  40.782  17.129   1.250
21439W        W93165  15.016  41.734  12.063
21440W        W93166   3.780  29.205   4.170
21441W        W93167  29.161  44.739  12.504
21442W        W93168  37.148  42.922  11.600
21443W        W93169   2.004   6.349   1.419
21444W        W93170   8.302  36.582   1.751
21445W        W93171  19.724  30.100  12.495
21446W        W93172  23.725  37.096  12.039
21447W        W93173  11.619   9.785   3.696
21448W        W93174   7.403  10.966  13.293
21449W        W93175  15.149  11.380   2.253
21450W        W93176  35.301  27.874  14.846
21451W        W93177  12.309   8.806  13.393
21452W        W93178  31.487  34.098  14.892
21453W        W93179  39.916   8.198  11.890
21454W        W93180  12.636   3.298  11.621
21455W        W93181  36.308  26.522  12.161
21456W        W93182  34.181  31.545   2.341
21457W        W93183  32.514  10.104   4.947
21458W        W93184  22.563  35.003   3.649
21459W        W93185  44.885   2.739  13.951
21460W        W93186  16.224  13.279   2.664
21461W        W93187  23.521  36.021   1.652
21462W        W93188   7.830  35.600  12.092
21463W        W93189  22.600  42.313   1.625
21464W        W93190  13.855  14.715   2.708
21465W        W93191  42.444  16.920   3.158
21466W        W93192  23.183   7.196  10.663
21467W        W93193  14.560  34.628  12.680
21468W        W93194  15.334   1.728   3.206
21469W        W93195  33.448  16.934   0.257
21470W        W93196   3.352  40.928  10.698
21471W        W93197  23.543   8.696   3.267
21472W        W93198  16.950  20.785  11.113
21473W        W93199  15.300  43.335  10.382
21474W        W93200  36.923  27.666   1.495
21475W        W93201  36.968  10.382  11.123
21476W        W93202  13.355  33.869   0.823
21477W        W93203   7.463  19.439  14.625
21478W        W93204  31.134  20.299  10.795
21479W        W93205   4.867  14.120  10.762
21480W        W93206   8.724  12.698  10.209
21481W        W93207  39.930  40.323   2.680
21482W        W93208  20.102  14.997  12.389
21483W        W93209  39.122  18.762   0.328
21484W        W93210  34.589   1.809  14.813
21485W        W93211   2.685  36.708   0.334
21486W        W93212   9.794  12.865   4.650
21487W        W93213   6.454   1.247  12.518
21488W        W93214   5.881  27.102  10.555
21489W        W93215  36.566  17.736  12.031
21490W        W93216   4.413  34.754  14.807
21491W        W93217   3.798   6.681   4.186
21492W        W93218  16.952  10.529   3.535
21493W        W93219   7.917  16.390  14.077
21494W        W93220  41.325  11.633  11.446
21495W        W93221  38.451   2.146  11.215
21496W        W93222  31.140  37.081  14.902
21497W        W93223  13.088  12.736   3.152
21498W        W93224  32.885  13.430  12.472
21499W        W93225  18.216  27.182  14.317
21500W        W93226  28.384   3.798  13.701
21501W        W93227   0.999  36.132   1.260
21502W        W93228  40.049  18.218   3.717
21503W        W93229  20.694   3.393   2.091
21504W        W93230  12.593  38.450  11.570
21505W        W93231  10.319  22.663   2.753
21506W        W93232  44.517   1.892   4.362
21507W        W93233  18.554  41.674  11.947
21508W        W93234  38.526  16.804  10.527
21509W        W93235  15.722  17.283   1.950
21510W        W93236  35.265  25.532   1.654
21511W        W93237  40.472  19.555  10.492
21512W        W93238  26.217  37.950  13.054
21513W        W93239  35.300  20.566   2.308
21514W        W93240   3.005  38.847   2.323
21515W        W93241  26.546  24.410  13.536
21516W        W93242  38.915   7.527  14.360
21517W        W93243   2.656   3.320   4.136
21518W        W93244  13.723   2.922  12.436
21519W        W93245  41.964  10.791  12.263
21520W        W93246  42.864  33.046   2.697
21521W        W93247  40.740   9.386   1.914
21522W        W93248  42.790  32.107   3.134
21523W        W93249  19.064  20.617  14.316
21524W        W93250   8.428   4.521  14.786
21525W        W93251  22.023  33.677  10.355
21526W        W93252  44.934  33.157   1.892
21527W        W93253  33.005   4.528  12.602
21528W        W93254   8.038  38.994  10.283
21529W        W93255  10.801  10.529  13.973
21530W        W93256  25.991  30.654  13.788
21531W        W93257   1.403  21.357   4.192
21532W        W93258  40.583  14.801   2.734
21533W        W93259  23.778  26.206  14.946
21534W        W93260  35.063  10.860  10.435
21535W        W93261  23.408   1.516  10.518
21536W        W93262  10.642  11.732  11.515
21537W        W93263  43.815  12.775   0.886
21538W        W93264  24.169   5.730   2.081
21539W        W93265   0.910  15.276   3.774
21540W        W93266  18.222  36.323   0.210
21541W        W93267  36.899   4.237  14.884
21542W        W93268  35.458  10.354   4.949
21543W        W93269  23.075  38.994   2.643
21544W        W93270   5.873  31.361   3.589
21545W        W93271   2.266   4.778  10.382
21546W        W93272   3.329  41.100  12.382
21547W        W93273  14.837  14.093   3.548
21548W        W93274  18.708  37.329   0.482
21549W        W93275  27.891  30.988   1.311
21550W        W93276  27.068  38.038   2.584
21551W        W93277   4.744  40.762   0.776
21552W        W93278  34.347  42.038   3.058
21553W        W93279  21.222  37.597   1.546
21554W        W93280  13.805  40.349  10.858
21555W        W93281  31.644   3.924   0.703
21556W        W93282  16.836   7.374  12.491
21557W        W93283   9.847   6.313  11.457
21558W        W93284   8.471  17.286   2.333
21559W        W93285   7.384  27.615   2.237
21560W        W93286  28.494   7.378  14.050
21561W        W93287  25.467   5.287  13.289
21562W        W93288  13.219  28.711  11.683
21563W        W93289  14.333  36.800  12.460
21564W        W93290  29.651   6.194  12.044
21565W        W93291  40.580  20.960  12.793
21566W        W93292  30.202  15.838  11.935
21567W        W93293  36.308  15.037  14.159
21568W        W93294  32.495  17.381   2.897
21569W        W93295  37.622  31.365   1.794
21570W        W93296  14.592  16.039  10.800
21571W        W93297  18.230  39.553  11.039
21572W        W93298  39.748  35.024  12.832
21573W        W93299  36.379   4.812  10.711
21574W        W93300   9.888  43.913   3.890
21575W        W93301  40.468  19.558   3.257
21576W        W93302  30.976  34.833  13.425
21577W        W93303  11.229  17.692  13.464
21578W        W93304  24.264  12.879   2.834
21579W        W93305  38.836  35.873   0.331
21580W        W93306  44.829   6.606  10.772
21581W        W93307  10.347  43.900   4.417
21582W        W93308  22.318  43.812   4.635
21583W        W93309  14.871  21.267   3.181
21584W        W93310   6.443  15.788   1.250
21585W        W93311  28.122  28.481  10.552
21586W        W93312   0.563  40.086   3.072
21587W        W93313  17.580  21.798   0.333
21588W        W93314  33.368  35.665   4.575
21589W        W93315  17.776  40.753   2.686
21590W        W93316   3.175  13.195  13.320
21591W        W93317  15.796  28.507   2.356
21592W        W93318   3.817  30.448  13.561
21593W        W93319  37.472  42.836  12.411
21594W        W93320  34.488  20.721   1.841
21595W        W93321  30.949  33.930  10.738
21596W        W93322  32.302  11.907   4.244
21597W        W93323  21.599   5.791   3.068
21598W        W93324  40.331  34.045  14.601
21599W        W93325  27.209  22.224  12.880
21600W        W93326  24.501   5.345  13.946
21601W        W93327  22.232  13.699   4.190
21602W        W93328  36.708  41.816   3.871
21603W        W93329   3.004  22.015  12.068
21604W        W93330   4.718  38.921   3.427
21605W        W93331  17.417   8.654   4.041
21606W        W93332  42.587   9.427   2.403
21607W        W93333  43.371  26.821  12.339
21608W        W93334  25.493  17.059  14.011
21609W        W93335  38.435  31.636  14.029
21610W        W93336  41.756   0.808  10.251
21611W        W93337  20.742  27.014  12.967
21612W        W93338  19.531  29.661  12.113
21613W        W93339  17.194  37.515  14.293
21614W        W93340   7.715  34.327   1.780
21615W        W93341  10.163  21.769   3.448
21616W        W93342  12.366  39.884   3.177
21617W        W93343  21.313  15.122  12.948
21618W        W93344   4.015  25.505   0.859
21619W        W93345   4.825   6.236  11.529
21620W        W93346  26.493  34.289  12.270
21621W        W93347  29.655  14.360  11.739
21622W        W93348   5.910  23.588   4.181
21623W        W93349  42.068  14.600   3.850
21624W        W93350  16.041  38.616   2.861
21625W        W93351  35.958  34.624  10.763
21626W        W93352  26.605   5.194   2.277
21627W        W93353  42.299  29.130   1.747
21628W        W93354  18.043   4.846   2.776
21629W        W93355  20.963  43.968  13.534
21630W        W93356  12.657  10.241   2.823
21631W        W93357  38.028  30.578   3.997
21632W        W93358  18.850   9.537  12.520
21633W        W93359  12.558  28.874   2.450
21634W        W93360   5.850  23.050  13.293
21635W        W93361   4.460  43.218   2.407
21636W        W93362  19.698  11.720   2.273
21637W        W93363   2.346   7.941  13.994
21638W        W93364   9.305   0.788   3.768
21639W        W93365  18.617   5.068  11.898
21640W        W93366  14.683  31.267  10.676
21641W        W93367  32.849  36.301   3.239
21642W        W93368   0.517  25.113   3.135
21643W        W93369   6.860  32.964   2.153
21644W        W93370   7.933  15.209   2.923
21645W        W93371  11.726  25.353  11.076
21646W        W93372  26.906  29.951  12.439
21647W        W93373  23.641  33.640  13.488
21648W        W93374  19.787  41.722   2.342
21649W        W93375   6.251  37.671   4.498
21650W        W93376  20.828  23.559  11.603
21651W        W93377  11.687  28.662  12.955
21652W        W93378  10.310  30.550  14.428
21653W        W93379  18.151  30.307   4.314
21654W        W93380  29.050  22.817   0.805
21655W        W93381  32.162   4.774  12.082
21656W        W93382  12.379   4.765   2.866
21657W        W93383  34.595  13.401  14.322
21658W        W93384  20.089  12.049   2.137
21659W        W93385  21.727  26.228  13.420
21660W        W93386  34.607  39.416   1.288
21661W        W93387  14.910  28.507  12.561
21662W        W93388  20.451  23.811   4.636
21663W        W93389   9.878   2.344  12.847
21664W        W93390  41.880  39.356  12.419
21665W        W93391  17.102   4.646   1.984
21666W        W93392  14.202  12.716   3.131
21667W        W93393  43.021   0.874   2.036
21668W        W93394  26.257  38.600   3.326
21669W        W93395   5.621  23.537   2.316
21670W        W93396   6.228  23.243  14.368
21671W        W93397   1.990  19.098  12.544
21672W        W93398  20.604  13.083  10.956
21673W        W93399  24.718  12.200   4.196
21674W        W93400   5.043   2.542   0.819
21675W        W93401  44.239  20.630   4.318
21676W        W93402  19.195   9.795   2.092
21677W        W93403  22.993  43.252   4.262
21678W        W93404   6.466  23.229   2.561
21679W        W93405  43.307   4.238  10.745
21680W        W93406  38.918  42.446  14.337
21681W        W93407  33.896   4.297  11.241
21682W        W93408  14.740   2.885   3.299
21683W        W93409  15.098   2.052   2.847
21684W        W93410  44.314  30.673   1.343
21685W        W93411   1.055   0.976  13.054
21686W        W93412  40.937  16.195   2.868
21687W        W93413  28.557  30.137  14.356
21688W        W93414   7.880  16.151   3.731
21689W        W93415  15.156  14.694  11.976
21690W        W93416  33.408  28.274   2.570
21691W        W93417  32.937   2.659   4.114
21692W        W93418  31.977  25.193   0.890
21693W        W93419  18.194   6.483   1.931
21694W        W93420  18.846  43.217  10.378
21695W        W93421  28.545   1.994  13.801
21696W        W93422  37.433  27.937   0.848
21697W        W93423   1.817   6.360   3.669
21698W        W93424   0.722  13.244  13.704
21699W        W93425  26.889  35.073  13.313
21700W        W93426  21.248  30.384   3.788
21701W        W93427  37.420  40.777   1.979
21702W        W93428  44.648  34.474   4.660
21703W        W93429  16.290  43.429   1.397
21704W        W93430   1.679   7.637   1.439
21705W        W93431  30.487   8.759  12.607
21706W        W93432  37.389  33.939   1.853
21707W        W93433  37.076   2.484   3.779
21708W        W93434  16.583  23.978   0.215
21709W        W93435   3.255  26.462  14.504
21710W        W93436  39.428  34.895   4.642
21711W        W93437  28.118   9.932  11.584
21712W        W93438  20.069  44.183   2.804
21713W        W93439  15.517  18.646   2.633
21714W        W93440   6.453  38.986   0.419
21715W        W93441  15.426   9.718   4.227
21716W        W93442   8.801  19.049   3.736
21717W        W93443  24.409  33.437   4.156
21718W        W93444  23.080  21.007  11.215
21719W        W93445  40.525  22.520  13.475
21720W        W93446  34.434  24.480   1.212
21721W        W93447  29.493  39.714  13.658
21722W        W93448  33.431   7.350   1.637
21723W        W93449  14.037  18.954   2.536
21724W        W93450  40.018  32.525  13.579
21725W        W93451  20.199  26.894  12.025
21726W        W93452  36.095  11.664  11.678
21727W        W93453  19.867  19.493   1.179
21728W        W93454  44.913  26.476   0.964
21729W        W93455  30.737  14.755   1.714
21730W        W93456  31.461  18.040  14.008
21731W        W93457   1.276  39.739   2.514
21732W        W93458  19.818  19.719  10.726
21733W        W93459  38.935  11.786  11.964
21734W        W93460  41.225  12.663   4.036
21735W        W93461   9.763  40.462  12.043
21736W        W93462   4.373   5.259   2.833
21737W        W93463  24.720  41.024   0.983
21738W        W93464  16.769  28.422   1.817
21739W        W93465  30.188  40.975  14.936
21740W        W93466  24.951  40.719   1.412
21741W        W93467  15.720  19.820   1.739
21742W        W93468   8.248  12.606   1.262
21743W        W93469  14.908  32.009   4.568
21744W        W93470  13.349  16.226   4.556
21745W        W93471  17.627  44.352  14.540
21746W        W93472   6.109  17.651  10.260
21747W        W93473  20.776  20.064   2.321
21748W        W93474  20.692  22.167  10.739
21749W        W93475  17.129  16.033   3.795
21750W        W93476  30.780  15.307  14.424
21751W        W93477   8.993  13.756   4.922
21752W        W93478  32.975  18.093  11.461
21753W        W93479   2.553   1.903  11.678
21754W        W93480  43.301  40.290  14.354
21755W        W93481  38.739  25.835  11.573
21756W        W93482  18.202   0.577   3.371
21757W        W93483   1.487  35.001  12.554
21758W        W93484  27.035  33.627  12.560
21759W        W93485   8.203   9.366  12.544
21760W        W93486  24.199  18.524   1.756
21761W        W93487   1.314  12.467   0.310
21762W        W93488  16.176  31.922  14.893
21763W        W93489  19.060  14.208   0.356
21764W        W93490  43.046   7.746  13.128
21765W        W93491   8.842   3.664   3.762
21766W        W93492  13.216  36.307   4.686
21767W        W93493  34.105  29.438  14.758
21768W        W93494  16.554  25.105  11.067
21769W        W93495   4.665  20.470  10.569
21770W        W93496  37.037   1.094  12.420
21771W        W93497  31.442   6.695  11.558
21772W        W93498   1.007  44.112  14.804
21773W        W93499  31.596   3.295  13.019
21774W        W93500  18.304  22.795  10.597
21775W        W93501   7.685  35.330   1.706
21776W        W93502  11.069  41.882  11.557
21777W        W93503  28.708  33.846  13.304
21778W        W93504  18.836  42.444   4.855
21779W        W93505   0.248  23.221   0.874
21780W        W93506   4.661  43.444  14.355
21781W        W93507   7.885  20.320  10.590
21782W        W93508  32.977   9.698   4.262
21783W        W93509  24.963  23.710  12.409
21784W        W93510  38.481  42.253  14.170
21785W        W93511  15.382  17.700  11.501
21786W        W93512  28.569  36.144  11.406
21787W        W93513  34.084  39.711   3.572
21788W        W93514  22.483  13.671   2.986
21789W        W93515  15.248  24.436   1.819
21790W        W93516   5.441  34.057  13.000
21791W        W93517  36.633  30.142  12.988
21792W        W93518   1.442  33.046  12.327
21793W        W93519  39.956  36.307   2.756
21794W        W93520  34.490  31.774   3.708
21795W        W93521  13.927  37.615  11.745
21796W        W93522  44.282   6.319   2.321
21797W        W93523   5.049  20.964   1.470
21798W        W93524  24.240  31.458  12.382
21799W        W93525  38.452  25.489  11.262
21800W        W93526  29.957  21.653  11.712
21801W        W93527  34.698  34.997   3.201
21802W        W93528   5.853  25.621   3.901
21803W        W93529  35.023  42.256   0.385
21804W        W93530  26.589   0.478   1.746
21805W        W93531  17.520  34.828  10.591
21806W        W93532  39.888  36.999   4.781
21807W        W93533  24.584  24.045  12.477
21808W        W93534   8.248  11.867   0.709
21809W        W93535  21.120  43.368   4.486
21810W        W93536  32.900  15.054  12.980
21811W        W93537  37.365  20.602   3.173
21812W        W93538  10.239  12.353  11.616
21813W        W93539  40.091  19.738  14.863
21814W        W93540  23.006  12.411  14.793
21815W        W93541   0.203   3.195   2.842
21816W        W93542  13.189  37.759   0.460
21817W        W93543  11.893   4.445   2.777
21818W        W93544  31.468  39.805  14.359
21819W        W93545   3.709  20.713  13.584
21820W        W93546   8.738   7.583   0.383
21821W        W93547  23.677   2.776   2.475
21822W        W93548  43.318  10.614   1.370
21823W        W93549   2.295  39.121   1.862
21824W        W93550  31.074  17.194  13.300
21825W        W93551   3.496  27.565   0.240
21826W        W93552  11.078  27.015  10.603
21827W        W93553  40.677   8.659   1.379
21828W        W93554  17.685   6.636  10.633
21829W        W93555  43.952  43.969  13.043
21830W        W93556   3.149   4.920  12.624
21831W        W93557  41.894  21.764   1.818
21832W        W93558  17.130  22.105  10.043
21833W        W93559  32.910  16.207   3.458
21834W        W93560  14.246   2.407  13.935
21835W        W93561  12.680  31.568   0.745
21836W        W93562   8.603  35.026   5.053
21837W        W93563  28.464  27.390   4.418
21838W        W93564  39.266   3.734  12.971
21839W        W93565  11.457  39.477  12.828
21840W        W93566  35.552  24.696  14.735
21841W        W93567  21.757  28.197  14.836
21842W        W93568  14.759  42.290   2.593
21843W        W93569  33.020  42.285   2.430
21844W        W93570  15.813  13.339   4.777
21845W        W93571  36.281  38.321  13.876
21846W        W93572  15.023   8.124  11.892
21847W        W93573  43.156  29.683   4.457
21848W        W93574  25.633  25.585   3.866
21849W        W93575  13.538  35.538   2.980
21850W        W93576  29.785  14.920  11.945
21851W        W93577   8.363   5.263   3.285
21852W        W93578   4.376  12.865  14.815
21853W        W93579  34.634  43.393  11.971
21854W        W93580  14.844  24.767   0.428
21855W        W93581  34.496  22.820  14.241
21856W        W93582  26.032   0.317  13.032
21857W        W93583  22.059  24.031   1.782
21858W        W93584  16.686  28.480  12.091
21859W        W93585   6.404  24.503   4.174
21860W        W93586   7.451  44.530   3.635
21861W        W93587  34.314  39.365   0.366
21862W        W93588  39.350  34.771   3.375
21863W        W93589   7.681   0.866   2.205
21864W        W93590  18.612  29.465  12.684
21865W        W93591   4.023  16.258   5.066
21866W        W93592  42.481  25.140   0.870
21867W        W93593  40.024  31.228   4.798
21868W        W93594  28.605  33.991  11.948
21869W        W93595  17.824  25.210  11.967
21870W        W93596  33.851  14.109  13.579
21871W        W93597  28.329  25.233  13.069
21872W        W93598  31.043  20.250  13.883
21873W        W93599  21.822   6.932  14.319
21874W        W93600  23.083  28.314  11.420
21875W        W93601  35.967  29.261   4.932
21876W        W93602   8.156  28.615  14.215
21877W        W93603  44.789   1.786   0.241
21878W        W93604  19.563  41.880  14.874
21879W        W93605   0.372  22.572   1.472
21880W        W93606  19.541  23.681   1.163
21881W        W93607  42.545  21.575   2.125
21882W        W93608  29.629  33.609   0.416
21883W        W93609  12.211  15.052   3.480
21884W        W93610  31.882   9.846  13.808
21885W        W93611   6.303   1.732  13.135
21886W        W93612  38.828  29.955   2.621
21887W        W93613   3.632  12.837   0.809
21888W        W93614   8.535  10.637  12.545
21889W        W93615  26.021  22.249   0.328
21890W        W93616  38.868  12.804  11.692
21891W        W93617  23.091  27.109   1.261
21892W        W93618  18.191  19.747   2.298
21893W        W93619  12.861   0.981  13.072
21894W        W93620   6.234  33.161   0.728
21895W        W93621  34.964  38.852  12.495
21896W        W93622  37.472  35.603  12.816
21897W        W93623  39.606   0.295  13.350
21898W        W93624  34.176  43.375  11.637
21899W        W93625  14.374  45.000   3.646
21900W        W93626  36.480  22.774  14.745
21901W        W93627   1.511   9.610   0.519
21902W        W93628  30.612   3.591   3.228
21903W        W93629  27.096  44.940   1.351
21904W        W93630  35.012   3.497  13.952
21905W        W93631  34.564   9.862   4.665
21906W        W93632  19.228  44.275  13.988
21907W        W93633  12.388  19.667   1.692
21908W        W93634  25.832   5.686  11.636
21909W        W93635  39.587  40.910  12.847
21910W        W93636  39.293   6.581   3.344
21911W        W93637  22.417  25.355  13.525
21912W        W93638  11.430  31.164   4.236
21913W        W93639  21.526  19.704   3.572
21914W        W93640  10.572  20.457   3.635
21915W        W93641  12.265  42.198  13.880
21916W        W93642  39.350  19.269  12.024
21917W        W93643  40.756  21.410   2.929
21918W        W93644  22.914   8.241  12.010
21919W        W93645  38.074  44.413  14.771
21920W        W93646  24.056  36.137   1.831
21921W        W93647   4.098  36.974  12.454
21922W        W93648  33.734  37.491   2.695
21923W        W93649  43.757  20.770   2.352
21924W        W93650   3.868  26.184  11.992
21925W        W93651  11.773  16.473   0.279
21926W        W93652  23.025  39.928  11.066
21927W        W93653   6.762  20.042   0.495
21928W        W93654  32.651  11.084   1.000
21929W        W93655  22.140  17.084   2.165
21930W        W93656  37.327  41.923  13.158
21931W        W93657  38.761  28.974   3.660
21932W        W93658  36.374  30.035   4.251
21933W        W93659  29.181   9.908   3.757
21934W        W93660  14.225  29.048  12.436
21935W        W93661  31.916  25.601  13.527
21936W        W93662  14.233   8.162   4.143
21937W        W93663  14.686  14.030   0.454
21938W        W93664  13.094   7.392   0.919
21939W        W93665  25.550  41.328  12.004
21940W        W93666  26.504  42.023  11.248
21941W        W93667  28.029  31.889   1.658
21942W        W93668   6.260   2.759   2.186
21943W        W93669  40.522  16.773   1.892
21944W        W93670  44.717  16.739  12.493
21945W        W93671  22.216   4.362   4.088
21946W        W93672  36.591   0.196  10.798
21947W        W93673  35.365  36.566   1.705
21948W        W93674  11.762  14.205   0.268
21949W        W93675  42.947   3.804   2.880
21950W        W93676  10.828   5.110  11.518
21951W        W93677  33.107  29.030  12.067
21952W        W93678  15.604  14.220   0.334
21953W        W93679  11.388  10.320  14.418
21954W        W93680  24.639   5.644   3.198
21955W        W93681   5.116  21.219  13.541
21956W        W93682  24.422   2.437   1.231
21957W        W93683  16.635  30.752  11.681
21958W        W93684  37.580  41.080   4.248
21959W        W93685  33.683  12.781  12.902
21960W        W93686  25.538   4.306   3.128
21961W        W93687  13.853   2.355  12.381
21962W        W93688  15.007  25.959  11.617
21963W        W93689   8.645  18.074   1.808
21964W        W93690   4.845  44.562  11.712
21965W        W93691  16.783  11.822   4.599
21966W        W93692  41.845  36.534   4.409
21967W        W93693  31.450  42.780   3.237
21968W        W93694  22.039  27.512   1.886
21969W        W93695  31.001  17.578   2.265
21970W        W93696  43.940  29.103  10.434
21971W        W93697  34.500  37.973   2.588
21972W        W93698   0.240  31.824   2.265
21973W        W93699  18.129   6.767   4.885
21974W        W93700   7.380   0.663  14.057
21975W        W93701  22.278  10.978   2.787
21976W        W93702   3.390  41.315  14.930
21977W        W93703  22.222  22.249  12.485
21978W        W93704   0.887  39.633   3.564
21979W        W93705   6.257   8.763   3.259
21980W        W93706  24.833  37.350  11.186
21981W        W93707  11.735  12.188  11.085
21982W        W93708   7.195  36.434  13.713
21983W        W93709  38.340   5.743   4.683
21984W        W93710   6.946   4.547  12.565
21985W        W93711  26.092   2.759   0.723
21986W        W93712  22.600  28.398   4.226
21987W        W93713  26.979  43.232  10.233
21988W        W93714   6.730  13.053   4.223
21989W        W93715  19.217  37.886  11.215
21990W        W93716  14.279  41.491   4.653
21991W        W93717  27.916  39.507   4.903
21992W        W93718  26.456  13.745  13.489
21993W        W93719  42.293  13.732  12.497
21994W        W93720   9.756   3.937   2.559
21995W        W93721  16.124   2.472  14.919
21996W        W93722  23.452  40.891  12.175
21997W        W93723  26.081   8.916   0.916
21998W        W93724  15.799   6.123  14.601
21999W        W93725  18.212  39.825  11.952
22000W        W93726  18.530  41.339   4.189
22001W        W93727   4.511   9.781  11.182
22002W        W93728  37.079  27.719   2.363
22003W        W93729  25.021   8.619   3.685
22004W        W93730   1.562  27.008   2.743
22005W        W93731  26.586  25.730   1.296
22006W        W93732  29.838  27.929   1.508
22007W        W93733  17.048  37.654  11.034
22008W        W93734  36.112  21.308  11.586
22009W        W93735  16.225  14.989   2.294
22010W        W93736  41.892  13.733   0.342
22011W        W93737  33.787  41.890   2.188
22012W        W93738  39.759  22.654  12.370
22013W        W93739  22.708  28.669   2.855
22014W        W93740  29.831   1.766   0.100
22015W        W93741  17.007   3.395   4.779
22016W        W93742  36.109   0.390  11.590
22017W        W93743  30.136  28.388  14.521
22018W        W93744   7.568  15.553   2.828
22019W        W93745   3.875  33.650  12.513
22020W        W93746   0.215  28.138  12.403
22021W        W93747  19.818   3.226  14.607
22022W        W93748  17.302  26.609   1.772
22023W        W93749  21.548  15.102   0.834
22024W        W93750  31.517  38.198   4.605
22025W        W93751  37.605  44.534  14.509
22026W        W93752  19.842  14.605  11.233
22027W        W93753  28.034  40.756  14.332
22028W        W93754   8.946  11.112   1.774
22029W        W93755  42.038  24.018  10.654
22030W        W93756  24.568  30.401  14.343
22031W        W93757  19.730  42.089   0.325
22032W        W93758  32.464   9.825   3.572
22033W        W93759  21.552  12.404  11.537
22034W        W93760   0.885  36.854   1.918
22035W        W93761  40.732  40.428  14.982
22036W        W93762  13.046  22.556   2.832
22037W        W93763  22.518   3.519  12.669
22038W        W93764  40.077  12.987   1.291
22039W        W93765  20.010  22.649  13.295
22040W        W93766  21.753  25.415   3.452
22041W        W93767  17.189  13.591   4.505
22042W        W93768  42.850   7.904   1.367
22043W        W93769   6.649  35.890  12.443
22044W        W93770  21.545  36.780   4.668
22045W        W93771   2.769   4.566   3.702
22046W        W93772  37.129  40.793   0.301
22047W        W93773  33.891  23.301  14.016
22048W        W93774   8.938  35.898  14.423
22049W        W93775  36.956  38.470   4.536
22050W        W93776  26.022  23.514  14.787
22051W        W93777  33.847  17.299   0.165
22052W        W93778  26.036   0.788   5.483
22053W        W93779  43.960  11.612  12.904
22054W        W93780   2.880  18.739  14.790
22055W        W93781  39.607  38.547  14.310
22056W        W93782   0.959  37.895  14.355
22057W        W93783   2.713  37.816   0.202
22058W        W93784  25.465  29.011   3.905
22059W        W93785  22.858  44.842  11.717
22060W        W93786   6.198  33.811   1.970
22061W        W93787  24.768  23.296   4.161
22062W        W93788  11.649   5.925   2.287
22063W        W93789   5.157   4.953   5.046
22064W        W93790  22.040  32.600  10.645
22065W        W93791   9.128  16.207  12.512
22066W        W93792   7.801  28.729   0.875
22067W        W93793  41.484   9.763   1.547
22068W        W93794  23.092  15.816  14.972
22069W        W93795  35.680  15.747  10.669
22070W        W93796   2.654  27.045   0.252
22071W        W93797   1.306  42.018  11.590
22072W        W93798  36.870  36.827  13.419
22073W        W93799  34.775   8.317  14.856
22074W        W93800   7.350  25.628  13.120
22075W        W93801   0.005  23.298  14.857
22076W        W93802  18.354  31.537   3.623
22077W        W93803  42.733  13.924  12.276
22078W        W93804  37.114  34.184  12.984
22079W        W93805  36.527  10.810  14.715
22080W        W93806  26.879  22.034   0.962
22081W        W93807  28.520  37.083   4.086
22082W        W93808  43.956  39.602   2.656
22083W        W93809  20.741  38.905  14.005
22084W        W93810  35.972  14.063   0.302
22085W        W93811  40.097  40.942  14.396
22086W        W93812  10.746  44.644   2.346
22087W        W93813   5.474  14.114  12.938
22088W        W93814  39.821  10.400   0.821
22089W        W93815  41.868  32.337  10.449
22090W        W93816  23.022  44.199  11.970
22091W        W93817   1.222  27.872   1.748
22092W        W93818  15.421  43.900  14.213
22093W        W93819  37.613  25.622   2.471
22094W        W93820   0.335   7.817  13.627
22095W        W93821  31.856  39.012  11.119
22096W        W93822   4.143  27.179  10.636
22097W        W93823  43.604  25.916  14.337
22098W        W93824  27.132  23.663   2.936
22099W        W93825  21.056  17.971  11.912
22100W        W93826  13.786  36.167  14.871
22101W        W93827  11.901  18.003   4.573
22102W        W93828  36.438  22.513  13.408
22103W        W93829  31.131  26.931   4.701
22104W        W93830  21.257   6.802  12.478
22105W        W93831  13.375   2.293   1.901
22106W        W93832   7.231  40.878   0.983
22107W        W93833  40.282  28.157   1.193
22108W        W93834   5.787  16.516   0.921
22109W        W93835  24.202  14.077   0.122
22110W        W93836   3.688  42.285   2.840
22111W        W93837  14.801  43.287  11.097
22112W        W93838  22.330  38.047  14.068
22113W        W93839  21.745  34.274  12.462
22114W        W93840   2.911  21.800   3.345
22115W        W93841  35.228  28.081   4.776
22116W        W93842  18.281   4.661  13.482
22117W        W93843  18.701   4.688  10.569
22118W        W93844   1.588  18.324   0.115
22119W        W93845  16.710   9.284   4.711
22120W        W93846  21.042  39.296  11.869
22121W        W93847  29.810  30.679  11.999
22122W        W93848  44.378   0.442   5.172
22123W        W93849  23.708  28.222   4.512
22124W        W93850  39.257  29.876  11.656
22125W        W93851  27.549   1.137  10.971
22126W        W93852  42.759  41.795   4.292
22127W        W93853  13.569  32.852   0.439
22128W        W93854  31.150  11.621   2.193
22129W        W93855  27.035  44.769  12.353
22130W        W93856  31.841  15.750  13.033
22131W        W93857  36.649   1.927   3.732
22132W        W93858  23.082  18.604   4.875
22133W        W93859  38.043   1.764  11.930
22134W        W93860  34.148  36.735  12.394
22135W        W93861  15.284   6.869  13.149
22136W        W93862  44.385   2.447   3.182
22137W        W93863  44.011   6.186   2.756
22138W        W93864   0.803  36.597  11.308
22139W        W93865  10.381  18.813   5.040
22140W        W93866  39.054  29.991   4.272
22141W        W93867  20.025  19.659  11.189
22142W        W93868  32.517  40.241   2.835
22143W        W93869  20.252  44.374   2.361
22144W        W93870   0.305  40.075  12.897
22145W        W93871   2.710  12.668   0.948
22146W        W93872  20.306   3.244   1.790
22147W        W93873  17.456  27.146   0.311
22148W        W93874  24.756  13.268  13.951
22149W        W93875  44.883  17.252  11.029
22150W        W93876  26.981  38.882  11.693
22151W        W93877  13.730  11.815   4.059
22152W        W93878  12.692   0.810   0.012
22153W        W93879   7.976  36.487   0.288
22154W        W93880  33.519  36.199  10.729
22155W        W93881  38.624   4.386  10.714
22156W        W93882   1.536  39.293  14.583
22157W        W93883  31.955  40.418  13.860
22158W        W93884   0.280  36.180  13.903
22159W        W93885   6.141   8.974  11.666
22160W        W93886  18.659  41.013  13.751
22161W        W93887  22.663  40.371  13.814
22162W        W93888  11.121  13.812  12.672
22163W        W93889  28.442  22.172   1.188
22164W        W93890  32.625   6.319  12.030
22165W        W93891  27.216   6.509   0.860
22166W        W93892  26.219   7.343   4.152
22167W        W93893  18.165  22.762   1.886
22168W        W93894  27.138  23.972  11.616
22169W        W93895  29.016  41.893  14.453
22170W        W93896  42.463  13.861  13.547
22171W        W93897  11.579  23.160   0.430
22172W        W93898  18.513   4.621  11.046
22173W        W93899  26.740  39.874   0.339
22174W        W93900  35.110  11.591  11.624
22175W        W93901  39.989   1.449  12.329
22176W        W93902   3.468   3.141  14.236
22177W        W93903  25.472  40.676   1.630
22178W        W93904  21.799  24.922   2.159
22179W        W93905  40.108   9.231  11.800
22180W        W93906  43.591  41.829  13.023
22181W        W93907  25.703  37.141  13.032
22182W        W93908  34.589  12.812   1.501
22183W        W93909  33.444  28.783   4.727
22184W        W93910   8.452   4.140   3.695
22185W        W93911  29.931  29.822   3.206
22186W        W93912  18.182  44.918   4.197
22187W        W93913  32.852  15.644   2.326
22188W        W93914   1.495   2.973   3.528
22189W        W93915  13.371  17.354   3.295
22190W        W93916   3.203  23.010  10.512
22191W        W93917   4.574   0.054  11.735
22192W        W93918  37.428  12.746   0.447
22193W        W93919  18.228  34.610  11.699
22194W        W93920  21.777  40.863  10.641
22195W        W93921  16.070   6.763  11.574
22196W        W93922  26.471  28.684   2.177
22197W        W93923  44.282  16.449  13.366
22198W        W93924   6.186  17.495   3.377
22199W        W93925  35.994  31.275   3.698
22200W        W93926  21.995  27.031   4.767
22201W        W93927  37.622  37.526   1.459
22202W        W93928  41.183  18.317   4.331
22203W        W93929  19.711   5.859  13.852
22204W        W93930   1.256  27.230   3.606
22205W        W93931   8.406  32.017  13.420
22206W        W93932  23.141  28.003   0.027
22207W        W93933  36.146   8.672   2.477
22208W        W93934   8.174  16.185  10.613
22209W        W93935  19.780  33.480   1.308
22210W        W93936  19.467   6.920   3.229
22211W        W93937  25.563  35.382   0.876
22212W        W93938  33.301   7.333  11.911
22213W        W93939  32.062  15.195  13.044
22214W        W93940  22.111  31.128   4.744
22215W        W93941   2.347   8.130  13.467
22216W        W93942  32.392  40.257   1.264
22217W        W93943  38.901  23.888  12.320
22218W        W93944  23.546  26.180  13.429
22219W        W93945  16.534   5.805   4.244
22220W        W93946  29.451  12.108  13.891
22221W        W93947   4.411  42.556   0.434
22222W        W93948   9.377  44.850   4.106
22223W        W93949  40.086   1.641  11.112
22224W        W93950  38.597  32.698  14.881
22225W        W93951  33.215  40.478  11.528
22226W        W93952   3.498  12.974  12.063
22227W        W93953  12.298  31.093  11.624
22228W        W93954  26.426  15.456  14.523
22229W        W93955  32.045  31.913  14.495
22230W        W93956  38.340  19.317   1.164
22231W        W93957   7.247  32.265   2.392
22232W        W93958  23.001  21.609  12.459
22233W        W93959  34.562  19.617  14.346
22234W        W93960  43.073  15.197  12.532
22235W        W93961  15.180  38.318  13.360
22236W        W93962  19.663   2.686  12.944
22237W        W93963  15.426  37.987   0.840
22238W        W93964  39.247  20.037   2.874
22239W        W93965  36.177  12.092   4.221
22240W        W93966  36.974   4.570  12.975
22241W        W93967   5.048   4.743  14.553
22242W        W93968  40.376  34.136   1.699
22243W        W93969  25.405  28.471   1.219
22244W        W93970  29.567  28.516   2.827
22245W        W93971  21.100  22.505   4.664
22246W        W93972  18.681  44.343  14.534
22247W        W93973  28.396  41.490  11.820
22248W        W93974  25.733  13.174   4.542
22249W        W93975  20.068  37.945  12.483
22250W        W93976  14.278  14.856   3.724
22251W        W93977  17.116   5.742  11.947
22252W        W93978  27.757   8.817  10.539
22253W        W93979  15.795  29.020   4.167
22254W        W93980  10.165   3.485  13.587
22255W        W93981  30.510   4.425   4.357
22256W        W93982  41.757  30.866   1.990
22257W        W93983  32.326  12.422   1.330
22258W        W93984   4.701  12.840  11.944
22259W        W93985  31.076  25.183   2.006
22260W        W93986   9.759  33.809   9.708
22261W        W93987   7.859  19.996   1.777
22262W        W93988   7.353   5.213  10.144
22263W        W93989  16.317  20.566  14.404
22264W        W93990  14.709   4.909   4.787
22265W        W93991   7.972  39.546  12.055
22266W        W93992  36.393   6.813   1.322
22267W        W93993  41.978  13.854  13.372
22268W        W93994  42.997   3.783   1.920
22269W        W93995  15.263  17.743   2.902
22270W        W93996   5.374  22.281   2.624
22271W        W93997  23.157  21.760   2.302
22272W        W93998   8.601  43.207  11.598
22273W        W93999  23.489  35.995  10.878
22274W        W94000  36.524   4.195   4.422
22275W        W94001  44.812  22.097   2.574
22276W        W94002  14.531  43.216   3.509
22277W        W94003   4.970   6.304  13.575
22278W        W94004  19.587   1.814  14.399
22279W        W94005   3.559  40.272  14.492
22280W        W94006   6.668  13.273   3.758
22281W        W94007  36.077  36.823   0.928
22282W        W94008  35.559  10.406   1.672
22283W        W94009  28.259  19.078   2.816
22284W        W94010  15.174  38.099  11.458
22285W        W94011  15.323  43.369  10.900
22286W        W94012  36.038   3.605  12.527
22287W        W94013  29.172  26.859  14.021
22288W        W94014  40.646  43.936   1.708
22289W        W94015  26.447  16.560  13.002
22290W        W94016   7.848  32.169  13.977
22291W        W94017   9.537   6.062  14.843
22292W        W94018  43.361   5.221   2.763
22293W        W94019  24.495   9.169  13.460
22294W        W94020   7.848  14.573   0.268
22295W        W94021  24.937  35.129   2.334
22296W        W94022   0.316  31.414  14.955
22297W        W94023  29.497  29.490   2.195
22298W        W94024  28.815  21.443  11.160
22299W        W94025   5.656   4.611   1.879
22300W        W94026  13.535   6.297   4.117
22301W        W94027  33.561  24.680  10.973
22302W        W94028  34.854  15.324   4.805
22303W        W94029   4.672   2.374  13.892
22304W        W94030  37.966  11.906   1.223
22305W        W94031  13.289   5.768  10.718
22306W        W94032  12.111   7.292  10.402
22307W        W94033  36.415  41.521   4.553
22308W        W94034  17.689  41.345  13.984
22309W        W94035   6.459   4.699   2.132
22310W        W94036   1.867  41.583  11.154
22311W        W94037   8.415  16.270  13.882
22312W        W94038  20.442  37.789  12.144
22313W        W94039   5.910   6.479  14.848
22314W        W94040  20.519  15.296  12.493
22315W        W94041  29.647  35.863   4.516
22316W        W94042  28.047   0.960  13.565
22317W        W94043  32.138  16.723  11.120
22318W        W94044   9.250   1.898   2.839
22319W        W94045  35.102   3.401  10.911
22320W        W94046  36.652  29.616   4.278
22321W        W94047  22.579  24.792   1.723
22322W        W94048  33.472   1.263  11.396
22323W        W94049  21.768   8.573   2.755
22324W        W94050   4.426   5.309  12.386
22325W        W94051  25.657  33.527  14.358
22326W        W94052   8.673   0.022  13.391
22327W        W94053  39.730  17.150  12.201
22328W        W94054  16.582   3.045  13.659
22329W        W94055  26.320  32.547   2.688
22330W        W94056   2.437  29.530   2.616
22331W        W94057  25.477  31.850  12.428
22332W        W94058  13.189  34.497   5.062
22333W        W94059  42.025   2.594   2.393
22334W        W94060  14.182  22.968  13.043
22335W        W94061  21.311  35.063  13.490
22336W        W94062   4.713  38.582  10.067
22337W        W94063   4.973  17.858  10.885
22338W        W94064  29.711  41.253  12.367
22339W        W94065  13.174  27.725  10.450
22340W        W94066  33.989  44.322  12.792
22341W        W94067  23.124  24.253   1.671
22342W        W94068  23.388  16.877  14.447
22343W        W94069  22.795  15.331   3.777
22344W        W94070  18.089  13.736  12.590
22345W        W94071  36.471  37.849  13.934
22346W        W94072  12.777  10.642   2.468
22347W        W94073  17.185  23.458   1.934
22348W        W94074  14.666  40.388   0.421
22349W        W94075  16.867  28.655  13.051
22350W        W94076  10.619  44.381  13.429
22351W        W94077  32.172  38.651   1.271
22352W        W94078   5.723  25.295  12.091
22353W        W94079  33.362  26.489  13.985
22354W        W94080  23.008   4.334   0.866
22355W        W94081   7.876  39.353   0.026
22356W        W94082   9.659  14.089   1.831
22357W        W94083  21.019  39.240   0.366
22358W        W94084  29.725  26.287  11.941
22359W        W94085  26.991  31.279  10.435
22360W        W94086   0.399  15.910   2.724
22361W        W94087  36.195  42.371  14.514
22362W        W94088  32.943  29.512   4.770
22363W        W94089   2.071  31.458  13.988
22364W        W94090  23.486  24.712   0.690
22365W        W94091  31.844  24.191   5.149
22366W        W94092  28.413   9.225   1.377
22367W        W94093  12.073   7.206  12.442
22368W        W94094  17.281  31.037   1.710
22369W        W94095   2.283  36.858  11.613
22370W        W94096   7.814  33.596  13.041
22371W        W94097  34.651  11.371  12.021
22372W        W94098  14.052  40.510  11.876
22373W        W94099  22.798   5.478   1.668
22374W        W94100  16.605  29.073   0.241
22375W        W94101  43.316  19.045  13.252
22376W        W94102  41.530  26.670   3.694
22377W        W94103  18.187   3.070  12.927
22378W        W94104  44.398  27.942  10.710
22379W        W94105  44.017  15.339  10.552
22380W        W94106  10.106   7.356  12.910
22381W        W94107  26.059   7.355  13.311
22382W        W94108  15.074  44.048  13.840
22383W        W94109  35.013  14.847   4.986
22384W        W94110  15.253   4.901   0.884
22385W        W94111  13.225  26.621  12.852
22386W        W94112  16.131  19.322   0.842
22387W        W94113  34.441   5.368  10.943
22388W        W94114  27.171  36.459  13.795
22389W        W94115   6.545  44.020  12.408
22390W        W94116  44.827  44.834  13.354
22391W        W94117  36.119  22.103  14.630
22392W        W94118   3.468  17.130  12.447
22393W        W94119  15.668  30.899   3.628
22394W        W94120  14.513  42.858   4.411
22395W        W94121  37.962  42.942   2.180
22396W        W94122  27.091  28.691   3.606
22397W        W94123  36.855  26.467  13.619
22398W        W94124  37.793  23.482   2.439
22399W        W94125  25.410  31.032   1.155
22400W        W94126  43.968   4.839   4.870
22401W        W94127  42.171  25.223   3.471
22402W        W94128  36.991   4.121   2.267
22403W        W94129  34.232  15.261  12.118
22404W        W94130  41.525   7.092   3.447
22405W        W94131  24.742   2.474   2.677
22406W        W94132  32.524  30.745   3.359
22407W        W94133  32.954  37.450  14.908
22408W        W94134   9.206  24.438  14.590
22409W        W94135  17.266  44.406   1.263
22410W        W94136   3.393  40.314  12.805
22411W        W94137  23.609  19.071  12.107
22412W        W94138  10.657  11.677  14.561
22413W        W94139  17.567  41.989   4.090
22414W        W94140  40.330  44.817   2.350
22415W        W94141  13.101   0.628  11.073
22416W        W94142  38.404  13.309   1.850
22417W        W94143  18.204  33.177  11.508
22418W        W94144   2.442   0.903   4.531
22419W        W94145   4.028  12.666   1.559
22420W        W94146   6.314  41.389  12.362
22421W        W94147  35.381  24.943  11.987
22422W        W94148   8.766  24.250  13.186
22423W        W94149   2.962  31.539   2.210
22424W        W94150  30.100  21.709  10.671
22425W        W94151  42.964  40.570  10.997
22426W        W94152  17.805  19.076  12.019
22427W        W94153  11.033  19.075  11.359
22428W        W94154  29.911   8.161   4.181
22429W        W94155  36.495   4.660  12.440
22430W        W94156  18.791  27.541  11.474
22431W        W94157   7.951  40.041   4.108
22432W        W94158  19.802  10.249  12.469
22433W        W94159  21.021  31.334   3.778
22434W        W94160  40.378  31.907   2.192
22435W        W94161  15.122  38.269  14.404
22436W        W94162  44.573   5.250  10.240
22437W        W94163  32.962  40.477   2.471
22438W        W94164  15.422  11.699   2.600
22439W        W94165  42.972  35.624   1.384
22440W        W94166  43.737  38.414   2.213
22441W        W94167  16.613  36.554  12.146
22442W        W94168  23.160  27.193  13.119
22443W        W94169  28.007  35.909  14.493
22444W        W94170  33.268  20.534  11.900
22445W        W94171   2.294   6.526   3.781
22446W        W94172  15.312   9.674  13.431
22447W        W94173  16.083  29.477   4.154
22448W        W94174  21.667  16.882   1.347
22449W        W94175   8.408  32.891  13.754
22450W        W94176   0.186  40.906   3.145
22451W        W94177  27.267  39.076   2.820
22452W        W94178  35.160  29.427  13.753
22453W        W94179  36.917  16.863   4.989
22454W        W94180  13.742  40.322  14.562
22455W        W94181  33.960  22.956  12.467
22456W        W94182   8.325  23.210  14.819
22457W        W94183  19.048  15.526  11.102
22458W        W94184  21.785  27.231   2.800
22459W        W94185   9.913  17.007   1.625
22460W        W94186  11.962  13.270   0.282
22461W        W94187  32.880  32.372   1.891
22462W        W94188   2.665  40.430   1.294
22463W        W94189  27.630  18.300  10.187
22464W        W94190  39.470   2.797   0.015
22465W        W94191  42.649   9.779   5.099
22466W        W94192  29.850  30.153  12.005
22467W        W94193   1.340   5.109   0.731
22468W        W94194  11.386  21.364   3.768
22469W        W94195  23.399   3.876  10.646
22470W        W94196   1.248  41.077   1.752
22471W        W94197  34.897   7.709   4.497
22472W        W94198  26.111  42.834  12.866
22473W        W94199  36.898   2.140   3.222
22474W        W94200   8.680   4.485  12.310
22475W        W94201  26.613  20.010  11.008
22476W        W94202   8.124   3.824  12.602
22477W        W94203   7.095  44.822   2.248
22478W        W94204  33.714  39.921  13.913
22479W        W94205  26.006  14.093  14.781
22480W        W94206  20.658  30.676  13.197
22481W        W94207  31.525  42.774  10.580
22482W        W94208   1.328  13.472  11.314
22483W        W94209  37.973  39.771   4.672
22484W        W94210  13.203  44.186   1.398
22485W        W94211  39.149   6.231  13.758
22486W        W94212  42.596  44.009   2.895
22487W        W94213  44.833  41.470  12.946
22488W        W94214  29.004  44.817   4.548
22489W        W94215  10.655  17.279  12.428
22490W        W94216  19.901   2.479  13.358
22491W        W94217  15.582  23.059   2.296
22492W        W94218  19.122  40.827  14.433
22493W        W94219  31.606  38.197  10.549
22494W        W94220  32.338  13.724   5.027
22495W        W94221   4.929  28.662  13.006
22496W        W94222  26.682  20.109   1.370
22497W        W94223  29.526  43.575  14.850
22498W        W94224  10.283   3.951   0.934
22499W        W94225  24.240  36.139   0.027
22500W        W94226   7.710  12.738   5.086
22501W        W94227  43.463  37.447   1.605
22502W        W94228  23.405  35.917  13.807
22503W        W94229  17.734   5.265  12.820
22504W        W94230  25.187  36.881  12.878
22505W        W94231  23.113   0.860  14.793
22506W        W94232   1.719  43.022   2.117
22507W        W94233  24.511   6.638  10.737
22508W        W94234  36.443  40.018   4.118
22509W        W94235   9.419   1.669  12.956
22510W        W94236  19.013  22.955  13.317
22511W        W94237  42.387  15.396   3.299
22512W        W94238  34.102   7.791  12.130
22513W        W94239   9.621  33.412   1.985
22514W        W94240  30.033  31.212   2.406
22515W        W94241  34.468  21.638  11.316
22516W        W94242  25.696  34.105   4.172
22517W        W94243   8.036  13.187   0.718
22518W        W94244  38.742   7.207  12.178
22519W        W94245  41.324  13.581   1.986
22520W        W94246  14.425  37.593  11.923
22521W        W94247  20.531  35.042   1.356
22522W        W94248  16.386  21.066  12.914
22523W        W94249  12.162   4.802   0.404
22524W        W94250  23.193  11.969  13.868
22525W        W94251  25.162  12.113   3.884
22526W        W94252   0.109   4.329   1.333
22527W        W94253  18.558  44.801   1.327
22528W        W94254   0.768   5.778  12.662
22529W        W94255   8.936  24.209   2.469
22530W        W94256  33.505  31.964   3.077
22531W        W94257   8.807  39.429   2.136
22532W        W94258  22.782  12.848   4.141
22533W        W94259  37.815  35.332   1.381
22534W        W94260  27.935  21.979   3.293
22535W        W94261  12.216  36.975  11.443
22536W        W94262  19.078  43.691  10.596
22537W        W94263   5.988  30.166  12.900
22538W        W94264  22.034  23.191  13.378
22539W        W94265  15.470   7.789   3.823
22540W        W94266  36.569   9.940  14.625
22541W        W94267   5.405  27.004   3.716
22542W        W94268  18.115   4.746   0.927
22543W        W94269  26.502   1.834  11.821
22544W        W94270  12.611   2.864   3.902
22545W        W94271  25.547   1.977  14.826
22546W        W94272  29.995   8.921  14.408
22547W        W94273  22.476  44.016  13.360
22548W        W94274  18.834  41.337  11.638
22549W        W94275  11.272  20.777   2.328
22550W        W94276  34.353  16.162   3.547
22551W        W94277  15.750   1.287   4.974
22552W        W94278  41.044  16.172   0.498
22553W        W94279  21.098   6.779   4.570
22554W        W94280  12.756  23.105   3.990
22555W        W94281  12.149  28.367  13.869
22556W        W94282  11.584  27.263  14.906
22557W        W94283  36.852  13.250   2.752
22558W        W94284   0.932  15.819  10.803
22559W        W94285  42.727   1.222  11.437
22560W        W94286  44.364  18.431  14.996
22561W        W94287  24.632   1.290  14.224
22562W        W94288  39.738  11.205  10.686
22563W        W94289  34.264  37.410   1.945
22564W        W94290  41.636  38.761  12.037
22565W        W94291  25.121  40.219  11.575
22566W        W94292  30.931  18.226  14.910
22567W        W94293  39.463  12.100  10.033
22568W        W94294  30.816  14.338  12.851
22569W        W94295  16.212   0.704  13.350
22570W        W94296  23.283  20.832  10.605
22571W        W94297  14.638   4.296   1.147
22572W        W94298  27.447  20.123  11.234
22573W        W94299  34.649  40.099  11.947
22574W        W94300  42.996  36.021  12.788
22575W        W94301   6.989  22.437  11.105
22576W        W94302  34.145   1.256  12.371
22577W        W94303  20.577  30.149   2.326
22578W        W94304  20.588  16.690  12.793
22579W        W94305  13.223  38.079   4.600
22580W        W94306  29.676  40.535   2.120
22581W        W94307   7.704  25.441   3.628
22582W        W94308  11.354  22.702  10.932
22583W        W94309  21.371   9.911   1.235
22584W        W94310  20.569  18.036   3.545
22585W        W94311  18.242   0.911  11.900
22586W        W94312  17.630  37.010  12.545
22587W        W94313   8.671  16.373  14.494
22588W        W94314   0.329  36.751   0.315
22589W        W94315  39.835   1.085  14.716
22590W        W94316  43.579  20.235   4.865
22591W        W94317  30.580  23.588  11.486
22592W        W94318  36.271  14.685  12.046
22593W        W94319  17.556  10.665   4.570
22594W        W94320  12.028  25.127  11.574
22595W        W94321  34.509  16.882  13.468
22596W        W94322  16.150  12.374   4.111
22597W        W94323  23.263   1.702   0.356
22598W        W94324   2.461   7.003  10.269
22599W        W94325  22.543  11.207   3.607
22600W        W94326  12.724  21.772   0.880
22601W        W94327  27.591  27.679   1.078
22602W        W94328  14.834  35.430  10.713
22603W        W94329  32.908  41.566  13.361
22604W        W94330  27.673  38.437   2.291
22605W        W94331  24.500   5.399   3.647
22606W        W94332  20.585  26.781  14.271
22607W        W94333  37.331   1.600   0.863
22608W        W94334  40.431  41.520  11.578
22609W        W94335  16.680  21.950  10.476
22610W        W94336   3.990  41.000  11.550
22611W        W94337  32.407  29.503  12.767
22612W        W94338  29.251  14.829  12.555
22613W        W94339   6.730   9.379   0.447
22614W        W94340  22.049  42.279  13.897
22615W        W94341  26.558   0.713   2.202
22616W        W94342   1.578  43.443   1.655
22617W        W94343  22.041   1.858   2.284
22618W        W94344   1.737  26.628  10.839
22619W        W94345  42.512  19.492   1.469
22620W        W94346   2.083  31.131  12.625
22621W        W94347  36.437  42.949  13.371
22622W        W94348  19.585  11.797  11.665
22623W        W94349  38.930  44.967   0.860
22624W        W94350  11.194  34.428   5.502
22625W        W94351  20.797  43.984   2.917
22626W        W94352  17.986  11.624  13.521
22627W        W94353   8.431  41.823  10.769
22628W        W94354  35.115  17.540   4.246
22629W        W94355   5.285  36.493  12.429
22630W        W94356  10.899  34.476   3.834
22631W        W94357  39.186  35.387   0.095
22632W        W94358  36.584   0.711   2.348
22633W        W94359  24.666  32.593  14.628
22634W        W94360   2.762  42.910   1.331
22635W        W94361  16.771  25.074   1.305
22636W        W94362  41.438  43.321   3.764
22637W        W94363  16.304   8.968   0.963
22638W        W94364   6.149  40.422   1.670
22639W        W94365  26.532   3.824   1.355
22640W        W94366  21.657   5.437  13.499
22641W        W94367  15.794   4.816   3.140
22642W        W94368  14.267  21.272   2.318
22643W        W94369   8.677  39.815  13.199
22644W        W94370  11.269  20.768  12.475
22645W        W94371  14.790   4.885  12.086
22646W        W94372  23.160   8.718   4.363
22647W        W94373  14.266  27.563  10.432
22648W        W94374  26.166   0.205  11.002
22649W        W94375   9.417   5.178  13.884
22650W        W94376   4.243  30.419  11.107
22651W        W94377  17.892   4.819   1.485
22652W        W94378  26.174   7.278  11.845
22653W        W94379  42.320  41.368  11.211
22654W        W94380  14.501  22.404   1.780
22655W        W94381  10.592  14.629   3.385
22656W        W94382  35.940  23.504  10.760
22657W        W94383  31.466  30.097   1.278
22658W        W94384  21.717  13.626  10.973
22659W        W94385   3.232  17.207   4.848
22660W        W94386  35.551  38.064  14.950
22661W        W94387  21.544  30.360  13.897
22662W        W94388  25.437   4.801  13.111
22663W        W94389  11.812  15.647  14.640
22664W        W94390  19.722  35.625  12.169
22665W        W94391  13.171   1.152   1.229
22666W        W94392   9.327  12.274   3.200
22667W        W94393   8.548   3.222   3.735
22668W        W94394   9.470  25.581   0.109
22669W        W94395  27.246  39.886  11.398
22670W        W94396  42.045  32.930  13.061
22671W        W94397  16.025  28.255  10.790
22672W        W94398  20.326  42.397   4.449
22673W        W94399  34.667   5.145  14.377
22674W        W94400   1.842  42.927   3.582
22675W        W94401   1.759  24.269   5.343
22676W        W94402   9.640  19.156   3.112
22677W        W94403  18.533  32.967   2.675
22678W        W94404   6.465   6.324   2.737
22679W        W94405  29.529  29.160  12.492
22680W        W94406  14.143  44.995  12.508
22681W        W94407  27.993  29.413  11.510
22682W        W94408  36.469  19.991  14.543
22683W        W94409  16.514  20.481  11.947
22684W        W94410   5.297  31.597   0.843
22685W        W94411  15.584  40.867  13.541
22686W        W94412  18.082  24.755   4.193
22687W        W94413  43.990  40.596   2.689
22688W        W94414   8.691   9.930  11.953
22689W        W94415   1.761  13.380   4.592
22690W        W94416  28.477   4.923  12.886
22691W        W94417   9.325  26.231  10.646
22692W        W94418  14.895   0.009   3.641
22693W        W94419  42.788  31.992  12.410
22694W        W94420   6.398  27.170  10.754
22695W        W94421  14.657  15.355  11.581
22696W        W94422  13.393  10.287   0.571
22697W        W94423  15.968  42.642  12.898
22698W        W94424  44.255  13.873   0.418
22699W        W94425  17.834  11.083  13.499
22700W        W94426  32.639  43.571  10.402
22701W        W94427  11.618  30.968   2.006
22702W        W94428   9.458  34.650  13.606
22703W        W94429  40.553   7.321   4.198
22704W        W94430  12.429  24.975   3.787
22705W        W94431  43.373   2.939  13.073
22706W        W94432  20.810   7.690   1.803
22707W        W94433  34.729  38.750  12.021
22708W        W94434   2.756  24.113   2.368
22709W        W94435  13.766  10.455  11.878
22710W        W94436  26.761  28.488  11.522
22711W        W94437  30.708  30.028  14.405
22712W        W94438  41.774  21.791  13.825
22713W        W94439  18.698  38.397  10.979
22714W        W94440  12.851  16.052   2.086
22715W        W94441  19.630   0.253   0.026
22716W        W94442  29.942  30.901   3.291
22717W        W94443  34.847  11.307   2.358
22718W        W94444  20.035   6.132  12.484
22719W        W94445   3.426  14.834   1.644
22720W        W94446  36.572  25.700  10.563
22721W        W94447  16.545   5.260   1.015
22722W        W94448  27.776  21.153   0.341
22723W        W94449  14.809  40.510  12.419
22724W        W94450   0.358  20.490  14.911
22725W        W94451   1.811   3.397   0.426
22726W        W94452   5.319  11.291   4.674
22727W        W94453  22.719   2.742  12.980
22728W        W94454   6.309  39.769  11.863
22729W        W94455   6.431   0.382   2.182
22730W        W94456   1.370  17.240  14.953
22731W        W94457  33.148  15.757   2.779
22732W        W94458  32.884   4.837  13.500
22733W        W94459   1.444  10.437  14.336
22734W        W94460   8.854  20.963   0.263
22735W        W94461  31.197  30.905  12.995
22736W        W94462  13.407   9.150   2.738
22737W        W94463   4.128  19.610   4.610
22738W        W94464  17.619  41.966  11.761
22739W        W94465  19.826   9.777  12.695
22740W        W94466  29.881  11.776  14.384
22741W        W94467  13.212  44.606   2.397
22742W        W94468   4.760   1.559  13.302
22743W        W94469  21.073  16.687   3.488
22744W        W94470   7.938   3.791  11.065
22745W        W94471   0.471   2.750   2.690
22746W        W94472  36.901  34.631   2.623
22747W        W94473  36.479  25.665   0.117
22748W        W94474   5.309  13.822   4.803
22749W        W94475  28.725  40.100   0.315
22750W        W94476  43.582  37.496  11.597
22751W        W94477  10.416   8.904  14.087
22752W        W94478  16.700   9.211  11.005
22753W        W94479  42.789  40.697  13.233
22754W        W94480  12.377   0.644  13.472
22755W        W94481  12.700  38.518   0.552
22756W        W94482   3.237   9.057   2.591
22757W        W94483  30.817   7.835   1.146
22758W        W94484  26.445  15.060  12.914
22759W        W94485  22.128  10.147  11.240
22760W        W94486  22.745  27.044  10.751
22761W        W94487  37.565   1.982  13.203
22762W        W94488  26.240  42.447   2.700
22763W        W94489  27.372  30.593  14.401
22764W        W94490   7.460  23.150   0.951
22765W        W94491  40.741  14.638  12.503
22766W        W94492   0.189  18.302   1.338
22767W        W94493   9.299   1.924   1.502
22768W        W94494  40.981  34.605  13.935
22769W        W94495  25.609  42.859   2.023
22770W        W94496  22.711  37.917   3.444
22771W        W94497  18.207   0.932   4.409
22772W        W94498  41.012  41.178   1.767
22773W        W94499  28.444  22.604  12.963
22774W        W94500   9.249  37.357  11.011
22775W        W94501  23.487   5.252   4.158
22776W        W94502  14.712  29.538  13.506
22777W        W94503  41.547   3.733  13.636
22778W        W94504  37.093  34.136  10.739
22779W        W94505  34.872  39.717  10.305
22780W        W94506  21.781  24.132  13.879
22781W        W94507  41.770  42.094  12.362
22782W        W94508   5.897  38.918   4.183
22783W        W94509   2.411  24.892  12.027
22784W        W94510   0.010  26.153  13.558
22785W        W94511   2.448  43.860   4.615
22786W        W94512  22.983  37.483   1.158
22787W        W94513  22.350  41.999  11.973
22788W        W94514  44.779  18.096   4.923
22789W        W94515   9.881  20.536   3.283
22790W        W94516   3.824   7.379   0.991
22791W        W94517  25.239  34.830  10.823
22792W        W94518  17.395  28.201   4.563
22793W        W94519  25.946  42.932   4.216
22794W        W94520  32.094  25.959   0.258
22795W        W94521  22.990  17.298  11.441
22796W        W94522   5.210  17.075  12.015
22797W        W94523  12.903   5.854   2.843
22798W        W94524   8.394  13.638   1.236
22799W        W94525  12.988  42.525   2.627
22800W        W94526  11.826  21.074   3.810
22801W        W94527   9.334  18.795   2.473
22802W        W94528  18.115   9.788  13.915
22803W        W94529  29.454  33.510  11.958
22804W        W94530  24.265  11.284   3.971
22805W        W94531  13.100  38.403  12.503
22806W        W94532  25.206  34.337   4.099
22807W        W94533  25.668  14.878  11.587
22808W        W94534  34.501  16.821  10.708
22809W        W94535  26.456  39.080  12.538
22810W        W94536   9.871   5.218  12.019
22811W        W94537  41.876  17.847   4.637
22812W        W94538  44.885  11.723  12.257
22813W        W94539   2.273  33.334   4.042
22814W        W94540   9.411  24.542  11.950
22815W        W94541   6.180  31.077   0.959
22816W        W94542  13.424  37.663   1.786
22817W        W94543   2.774  14.081  13.890
22818W        W94544   6.762  16.323  13.461
22819W        W94545   4.855   5.305  11.566
22820W        W94546  30.818  16.557   2.371
22821W        W94547  34.241   7.573   5.179
22822W        W94548  27.465  27.492   4.284
22823W        W94549  27.655   6.963   2.342
22824W        W94550   2.961  42.719   3.278
22825W        W94551  18.323  42.790  12.340
22826W        W94552  11.383  24.136   4.267
22827W        W94553   3.732  30.644  14.590
22828W        W94554  10.718   3.594  14.828
22829W        W94555  27.802  12.671   2.888
22830W        W94556   0.169  27.411  12.986
22831W        W94557  31.571  28.584   0.770
22832W        W94558  11.777  22.556  11.186
22833W        W94559   2.190  35.016   4.546
22834W        W94560  23.265  41.365  14.068
22835W        W94561  37.339  11.269   1.706
22836W        W94562  31.647   7.979   0.711
22837W        W94563   1.849  29.951  11.404
22838W        W94564   0.225   4.980   0.683
22839W        W94565   8.374  41.515  12.822
22840W        W94566   1.979   0.644  14.399
22841W        W94567  16.595  12.676   1.918
22842W        W94568  32.491  31.474  10.597
22843W        W94569  35.535  19.096   3.347
22844W        W94570  38.626  22.199   4.872
22845W        W94571  16.575  32.875   0.388
22846W        W94572   5.393  41.277  11.417
22847W        W94573   6.944  24.074  13.962
22848W        W94574  35.385   3.010   3.369
22849W        W94575  41.781  24.855   5.012
22850W        W94576  35.148  22.524   5.047
22851W        W94577  28.225  33.440   3.060
22852W        W94578  31.913  44.243  10.654
22853W        W94579  23.878  35.347   3.841
22854W        W94580   5.922  18.500  13.500
22855W        W94581  43.034  39.347  10.841
22856W        W94582   7.242   1.954   2.654
22857W        W94583   7.022  40.375  12.852
22858W        W94584  19.593  40.307   1.297
22859W        W94585  22.770   3.925  13.612
22860W        W94586  28.923  22.019  14.223
22861W        W94587  23.778  38.428  13.090
22862W        W94588  29.611  39.956  11.154
22863W        W94589  35.069  29.940   4.899
22864W        W94590   8.918  37.940  13.900
22865W        W94591   6.457  35.362  14.341
22866W        W94592  43.573  15.568   4.872
22867W        W94593   7.257  17.597  13.442
22868W        W94594   7.658  31.438   1.298
22869W        W94595   0.414  23.870   2.709
22870W        W94596   1.227   4.835   4.777
22871W        W94597  39.677  13.779  12.804
22872W        W94598   0.425   0.009   0.640
22873W        W94599  17.737   6.692  14.988
22874W        W94600   5.873   4.973  14.836
22875W        W94601   5.732  34.156  10.784
22876W        W94602  31.286  26.069   2.588
22877W        W94603  34.926  33.310   0.453
22878W        W94604  32.362   0.259  12.172
22879W        W94605  10.241  27.423  12.471
22880W        W94606  26.890  13.521   1.765
22881W        W94607  12.787  34.081  14.248
22882W        W94608  29.730   2.932  11.949
22883W        W94609  18.313  37.345  11.518
22884W        W94610   1.106  30.418  11.452
22885W        W94611  15.060  40.000  14.945
22886W        W94612  17.361  43.387  14.780
22887W        W94613  44.934  31.021  11.009
22888W        W94614  10.625  27.071  10.886
22889W        W94615  19.767  27.233   1.246
22890W        W94616  30.167   6.230  12.005
22891W        W94617  16.640   3.776   2.589
22892W        W94618  15.440  30.121   1.111
22893W        W94619   6.661  32.461   0.994
22894W        W94620  31.011   8.302   0.302
22895W        W94621  11.120  36.388   4.604
22896W        W94622  11.006  14.113   4.094
22897W        W94623   6.388  10.263  14.410
22898W        W94624  27.721  13.304   3.266
22899W        W94625   4.939  16.069  12.432
22900W        W94626   8.312  44.354  14.876
22901W        W94627   0.945   3.145  10.787
22902W        W94628  21.824  11.221   2.881
22903W        W94629  24.816  29.750  13.497
22904W        W94630   3.429  23.592  12.750
22905W        W94631  16.096  26.750   3.882
22906W        W94632  27.024  20.614  14.879
22907W        W94633  17.034  33.031  13.908
22908W        W94634   2.543  34.573   1.396
22909W        W94635  31.467   4.087   3.591
22910W        W94636   6.626  11.313   1.333
22911W        W94637  24.126  26.172   9.886
22912W        W94638  23.181  12.569  11.492
22913W        W94639  12.195  40.809  10.622
22914W        W94640   7.219  37.922  13.885
22915W        W94641   9.722  36.879   4.662
22916W        W94642  40.336   7.274  14.345
22917W        W94643   4.261  42.850   1.652
22918W        W94644  29.828  42.360  14.323
22919W        W94645  21.820  38.967  10.605
22920W        W94646  42.289  19.135  13.508
22921W        W94647  29.043  43.968   2.350
22922W        W94648   0.475  39.026  11.894
22923W        W94649  20.081  23.370  14.760
22924W        W94650   4.857  11.102  11.932
22925W        W94651   7.053  15.473   2.852
22926W        W94652  12.178  10.242  12.983
22927W        W94653  44.907  32.110  10.142
22928W        W94654  31.433   8.544  10.397
22929W        W94655  16.899   8.546  12.648
22930W        W94656  36.890  38.454   0.002
22931W        W94657   8.876  32.702   0.474
22932W        W94658  26.487   3.955  10.689
22933W        W94659  24.115  11.984   2.793
22934W        W94660  22.681  27.138   2.316
22935W        W94661  34.568  32.081   0.510
22936W        W94662  26.215   3.273  10.708
22937W        W94663  12.725  42.460  14.744
22938W        W94664  22.018   8.451  13.096
22939W        W94665  42.493  26.669   1.770
22940W        W94666  42.005   6.480   0.197
22941W        W94667  21.274  42.229   4.214
22942W        W94668  37.973  15.153   4.472
22943W        W94669  44.073  37.299  13.046
22944W        W94670  31.011  34.434  10.708
22945W        W94671   4.443  21.775   3.809
22946W        W94672   5.727  39.224   2.276
22947W        W94673  22.331  22.111   1.360
22948W        W94674  12.192  35.098  13.402
22949W        W94675  15.366  23.929   4.484
22950W        W94676  19.070  11.806  11.627
22951W        W94677   8.560  34.876   0.080
22952W        W94678  43.838  23.547  10.658
22953W        W94679  19.700   7.954   4.098
22954W        W94680  17.392  23.395  11.933
22955W        W94681  32.882  33.605  13.149
22956W        W94682  10.587  27.452  12.080
22957W        W94683  44.330  26.944   1.879
22958W        W94684   0.644  29.067  14.825
22959W        W94685  42.840  28.687  13.746
22960W        W94686  30.013   7.385   4.606
22961W        W94687   2.973  36.534   3.189
22962W        W94688  13.273  25.991   2.641
22963W        W94689  43.276  11.943   4.687
22964W        W94690  15.794   7.938   1.654
22965W        W94691   4.678  41.800   4.193
22966W        W94692  26.168  22.298  11.580
22967W        W94693  19.700   3.672  14.871
22968W        W94694  11.881  15.604   5.080
22969W        W94695   5.171  13.567  11.006
22970W        W94696  18.579  29.726   0.367
22971W        W94697  12.073   4.765  12.072
22972W        W94698   2.511   6.063   3.749
22973W        W94699  35.790  44.276  12.506
22974W        W94700  14.879  14.466  11.559
22975W        W94701   3.954  26.515   3.732
22976W        W94702  24.619  44.421  10.263
22977W        W94703  17.363  26.993  11.999
22978W        W94704  11.403   2.250  10.735
22979W        W94705  42.904  31.523  13.501
22980W        W94706  14.773   9.850  11.661
22981W        W94707  29.174  18.524  13.185
22982W        W94708  41.735   8.825   4.739
22983W        W94709  43.015  23.598   3.585
22984W        W94710   4.372  35.327  11.051
22985W        W94711  16.755  41.039   3.559
22986W        W94712  14.876  30.920  14.040
22987W        W94713  31.627  11.108  13.397
22988W        W94714   1.797  12.086  14.290
22989W        W94715  28.064  17.678  13.376
22990W        W94716  23.537  36.399  13.614
22991W        W94717  33.668  21.465  11.028
22992W        W94718  29.035  20.793   2.842
22993W        W94719  41.569  25.011   3.085
22994W        W94720   5.735  11.092  14.380
22995W        W94721   9.812  39.484   3.853
22996W        W94722   9.672  31.572   4.642
22997W        W94723   8.085  43.679   3.490
22998W        W94724   2.985   1.996   1.444
22999W        W94725  32.726  29.050  11.691
23000W        W94726  40.815  23.941  11.042
23001W        W94727  20.470  21.679   3.254
23002W        W94728  29.581  22.991  14.869
23003W        W94729  18.308  28.466  11.771
23004W        W94730  20.510  14.789   4.509
23005W        W94731  43.390  40.209  11.158
23006W        W94732  32.085  12.429   0.871
23007W        W94733  44.297  22.241  11.221
23008W        W94734  27.155  43.874   5.099
23009W        W94735  11.174   5.300   4.642
23010W        W94736  25.694  14.265  10.975
23011W        W94737  19.522   4.785   0.312
23012W        W94738  14.721  19.739   3.199
23013W        W94739   8.020  11.712   1.224
23014W        W94740  14.314  32.536   3.983
23015W        W94741  10.471   1.451   4.062
23016W        W94742  11.178  44.854   1.774
23017W        W94743  26.277  33.129  10.741
23018W        W94744  11.209  41.083   3.149
23019W        W94745   0.983   8.843   4.131
23020W        W94746  27.349   9.844   1.833
23021W        W94747  41.459   4.864  12.186
23022W        W94748   1.254   9.897  12.522
23023W        W94749  42.785   0.007  12.910
23024W        W94750  35.280  37.389   3.622
23025W        W94751   4.695  11.431   1.705
23026W        W94752  33.094  29.210   4.008
23027W        W94753  17.339  20.573   0.248
23028W        W94754  31.483  41.374  10.775
23029W        W94755  14.489  35.855  11.757
23030W        W94756  29.368  38.516  14.335
23031W        W94757  23.231  22.109  12.554
23032W        W94758  43.078  37.467  12.871
23033W        W94759   4.893  24.883   2.311
23034W        W94760  12.568  37.395  12.371
23035W        W94761   3.493  38.351   1.737
23036W        W94762  29.699  31.907   3.289
23037W        W94763  31.235   1.892   4.617
23038W        W94764  19.843  17.021  12.005
23039W        W94765   6.690  29.764   2.791
23040W        W94766  26.474  24.605   3.094
23041W        W94767   1.982  27.293   1.480
23042W        W94768  32.482  25.670   1.502
23043W        W94769  13.469  12.293   2.182
23044W        W94770  10.603   9.930  14.974
23045W        W94771  16.658  11.760  10.701
23046W        W94772  13.603  38.874  14.584
23047W        W94773  22.563  37.718   0.340
23048W        W94774  19.600  36.596   0.079
23049W        W94775  24.240  17.655   1.738
23050W        W94776  12.159   8.365   2.417
23051W        W94777  38.306  14.149   1.456
23052W        W94778   6.985  22.152   0.472
23053W        W94779  22.505   9.214  12.612
23054W        W94780  39.059  35.986   3.454
23055W        W94781  10.746  41.730   4.692
23056W        W94782  42.858  27.091   0.459
23057W        W94783  38.799  21.416   1.433
23058W        W94784   1.484  18.115   2.003
23059W        W94785  22.693   4.651   1.358
23060W        W94786  42.349  34.836  11.731
23061W        W94787  19.134   1.022   2.294
23062W        W94788  20.585   0.253   2.391
23063W        W94789   6.149  39.405   4.165
23064W        W94790  25.451   9.770  13.562
23065W        W94791   5.761  16.680  13.521
23066W        W94792  13.629   7.379  12.104
23067W        W94793  44.729  41.550  11.551
23068W        W94794   0.562  23.737   3.707
23069W        W94795   5.277  44.558  10.678
23070W        W94796  37.456  30.480  12.333
23071W        W94797  13.271  37.379   0.810
23072W        W94798  24.111   2.132   0.276
23073W        W94799  32.464  22.987  13.420
23074W        W94800  21.739   3.431  10.502
23075W        W94801  36.989  39.301   0.975
23076W        W94802  11.160  19.209   4.711
23077W        W94803  13.063  11.283   3.637
23078W        W94804  18.079   4.716   1.954
23079W        W94805  15.669   2.808  14.034
23080W        W94806  10.765  42.812  12.306
23081W        W94807   4.173  29.042  11.575
23082W        W94808  44.341  44.892  11.600
23083W        W94809  39.071   6.649   2.255
23084W        W94810  40.766  16.651   2.676
23085W        W94811  39.300   1.443   0.240
23086W        W94812  40.427   8.858  13.523
23087W        W94813   5.696   7.793  14.904
23088W        W94814  42.740  35.883  10.753
23089W        W94815  42.074  17.225  12.216
23090W        W94816  21.133  43.468  14.980
23091W        W94817   6.688  15.498  11.175
23092W        W94818  18.484  37.559   0.037
23093W        W94819  37.485  40.261  11.558
23094W        W94820  15.464  27.138  12.249
23095W        W94821   2.424  17.196  12.185
23096W        W94822  27.371  21.756  11.215
23097W        W94823  28.121  38.538  12.472
23098W        W94824  33.525  21.747  12.447
23099W        W94825  20.040  25.297   2.668
23100W        W94826  36.904  35.913  13.541
23101W        W94827  12.233  41.538  12.583
23102W        W94828  40.860  26.065  11.883
23103W        W94829  24.045  39.868   1.925
23104W        W94830  11.372  11.205  14.250
23105W        W94831  44.937  38.151   4.226
23106W        W94832  14.249  28.281   3.758
23107W        W94833  19.604  29.594  13.595
23108W        W94834  41.260  39.777   0.912
23109W        W94835   3.463   2.248   4.555
23110W        W94836  37.292  42.475  13.682
23111W        W94837  30.053   1.174   3.395
23112W        W94838   7.211  41.648   1.763
23113W        W94839   6.885  28.694  13.005
23114W        W94840  30.176   5.789   1.372
23115W        W94841  19.127  41.278   2.176
23116W        W94842  40.352  24.109   3.643
23117W        W94843  17.522  11.993   0.855
23118W        W94844  32.906   3.673   2.183
23119W        W94845  22.283   5.555  11.109
23120W        W94846  16.040  28.582  13.343
23121W        W94847  26.775  40.601  12.943
23122W        W94848   6.219  13.744   5.556
23123W        W94849  38.019  24.482   3.755
23124W        W94850  13.271  20.537  13.865
23125W        W94851  30.041  19.574  13.842
23126W        W94852  22.948  33.507  10.667
23127W        W94853  11.841  36.512   0.358
23128W        W94854   2.349  15.331   2.826
23129W        W94855  23.245   1.524   1.845
23130W        W94856  36.616  26.172   0.221
23131W        W94857  40.213  24.454  11.046
23132W        W94858  43.747  36.952  12.869
23133W        W94859  35.125  14.184  13.795
23134W        W94860   4.012  41.837   1.955
23135W        W94861  19.573  34.683  11.033
23136W        W94862  36.598  42.198  14.825
23137W        W94863   4.304  18.635  14.114
23138W        W94864  17.735  39.618   4.101
23139W        W94865   0.249  38.486   1.317
23140W        W94866  16.861  26.592  13.211
23141W        W94867   4.411  27.650  12.433
23142W        W94868   7.128  24.560  11.049
23143W        W94869  20.435  25.169  12.405
23144W        W94870   0.935  33.159   2.735
23145W        W94871  23.051  25.134   4.240
23146W        W94872  16.795  26.154  12.010
23147W        W94873  40.385  37.435  13.686
23148W        W94874   6.088   1.269  11.167
23149W        W94875   0.427   8.256   4.452
23150W        W94876  30.460  11.685  12.389
23151W        W94877   5.937  22.229  14.811
23152W        W94878   6.164  42.916   2.613
23153W        W94879  27.912  44.347   3.452
23154W        W94880   2.862   1.317  13.388
23155W        W94881  17.047  20.775   2.731
23156W        W94882  11.270   4.744  14.080
23157W        W94883  39.714   0.152  12.880
23158W        W94884   7.842  18.684  11.531
23159W        W94885  34.100  35.289  10.889
23160W        W94886  42.435   1.917   4.637
23161W        W94887  24.353   2.262  14.406
23162W        W94888  20.178  30.897  13.051
23163W        W94889  43.922   5.970   3.622
23164W        W94890  19.508  19.750  11.156
23165W        W94891  13.301  33.021   1.799
23166W        W94892  40.492  11.303  12.929
23167W        W94893   7.380  41.057  11.115
23168W        W94894  17.998   9.773   1.029
23169W        W94895  33.009  17.302  14.866
23170W        W94896  11.560  40.576   3.778
23171W        W94897  17.028  37.535  14.969
23172W        W94898  10.310  11.910  13.854
23173W        W94899  37.416   1.372   4.694
23174W        W94900  16.080  28.958   0.281
23175W        W94901  11.524  11.741  14.015
23176W        W94902  11.767  16.766   3.363
23177W        W94903  27.654  32.904   0.198
23178W        W94904  37.630  25.062  13.949
23179W        W94905  21.283  34.052  13.309
23180W        W94906  20.688  20.789   2.846
23181W        W94907  22.677  23.538  10.952
23182W        W94908  19.732  41.932  10.639
23183W        W94909  34.116  36.057   1.857
23184W        W94910   0.217  19.665   0.553
23185W        W94911   7.899  14.709   1.702
23186W        W94912  17.321  21.340  11.676
23187W        W94913  22.113  21.169  10.886
23188W        W94914  34.984  38.623   3.572
23189W        W94915  32.210  19.743   0.369
23190W        W94916  38.909  35.328  11.614
23191W        W94917   2.851   9.143   1.943
23192W        W94918  42.519  43.024   1.906
23193W        W94919  20.846  10.526   0.795
23194W        W94920  18.315  21.990  11.132
23195W        W94921  14.090  38.392  11.582
23196W        W94922  39.153   7.183   2.180
23197W        W94923  23.029  35.112   1.381
23198W        W94924  39.391  38.302  13.830
23199W        W94925  36.053  44.745  12.425
23200W        W94926  12.521  42.026   2.613
23201W        W94927  14.670  42.873   2.153
23202W        W94928  43.335  37.792   4.309
23203W        W94929  25.286   2.076   1.878
23204W        W94930   6.955  24.544  13.435
23205W        W94931   3.687  20.462  12.577
23206W        W94932  12.209  44.990  13.986
23207W        W94933  29.716   7.329   0.813
23208W        W94934  18.404  16.211   3.635
23209W        W94935  39.842  27.134   0.503
23210W        W94936  14.837   4.837   3.070
23211W        W94937  26.596  17.217  11.891
23212W        W94938  20.194  14.414   2.472
23213W        W94939  34.046  39.551  14.439
23214W        W94940  31.674  23.218   2.074
23215W        W94941  41.062  29.471  13.348
23216W        W94942  30.408  35.622   2.293
23217W        W94943   3.840   6.980  14.304
23218W        W94944  29.665   6.643  11.281
23219W        W94945  29.481  21.078  14.791
23220W        W94946   5.839   2.265   1.768
23221W        W94947   3.838   0.172   3.374
23222W        W94948  39.434   7.935  13.457
23223W        W94949  19.250  22.039  13.410
23224W        W94950  36.346   9.941  12.479
23225W        W94951  41.976  37.558   3.662
23226W        W94952  26.940  37.426  14.598
23227W        W94953  12.581  38.099   1.521
23228W        W94954  33.601  14.583   0.688
23229W        W94955  42.399  31.566   1.965
23230W        W94956  10.387  24.002   3.311
23231W        W94957  23.529  41.565   4.131
23232W        W94958   4.394  32.775  12.011
23233W        W94959  28.267  39.282   3.373
23234W        W94960  12.701  18.554  11.472
23235W        W94961  31.394  18.782  10.532
23236W        W94962  17.743  37.974   1.372
23237W        W94963  26.438  21.662  13.019
23238W        W94964  32.675  37.482   3.719
23239W        W94965  29.961  28.098  10.558
23240W        W94966  13.600  19.232  13.149
23241W        W94967  28.183  23.812  12.979
23242W        W94968  44.507  23.806  11.015
23243W        W94969  27.970  41.353  10.664
23244W        W94970  15.618  37.129   2.041
23245W        W94971  14.786  15.344  14.161
23246W        W94972  26.495  18.315  14.032
23247W        W94973  29.634  24.410   2.427
23248W        W94974   3.933  24.463   1.212
23249W        W94975  20.650   4.439   1.487
23250W        W94976  30.815  33.544   1.898
23251W        W94977  10.135   5.372  11.595
23252W        W94978   4.039  34.169   1.355
23253W        W94979  17.258   1.307  11.126
23254W        W94980  41.334  31.663  13.571
23255W        W94981  23.653  18.987   2.369
23256W        W94982   2.052  42.454  14.963
23257W        W94983  35.904   9.622   0.729
23258W        W94984  22.674  36.128  12.059
23259W        W94985   2.882   7.828  10.676
23260W        W94986  36.788  31.952   3.575
23261W        W94987   5.853  12.034   1.404
23262W        W94988  23.972   6.200  11.206
23263W        W94989  11.190   6.778  12.883
23264W        W94990   5.397   7.412   3.852
23265W        W94991  30.094  18.448  12.213
23266W        W94992  39.941  40.237   4.071
23267W        W94993   2.754  11.692  12.965
23268W        W94994  38.512  27.730  10.637
23269W        W94995  30.439  40.018   3.136
23270W        W94996  28.909   9.830   4.662
23271W        W94997  27.977  18.793  13.047
23272W        W94998  25.515  36.079  13.297
23273W        W94999  27.317  32.391  11.208
23274W        W95000   8.312  14.592   1.363
23275W        W95001   4.756  10.403   4.648
23276W        W95002   7.916  24.644   0.240
23277W        W95003  19.792  30.652  14.823
23278W        W95004  21.775  27.397  10.512
23279W        W95005   5.579  27.981   0.334
23280W        W95006  27.397  31.389   0.500
23281W        W95007  23.160  30.087   2.744
23282W        W95008  20.235  18.441  14.627
23283W        W95009   9.084  44.442   1.366
23284W        W95010   0.088  22.256   1.807
23285W        W95011  44.166  42.254   2.231
23286W        W95012  13.878  40.336   1.076
23287W        W95013   3.819  14.720  10.003
23288W        W95014  39.410  30.452   4.653
23289W        W95015   2.694  36.429   3.790
23290W        W95016   4.886  35.395  11.911
23291W        W95017   5.820   1.831  11.948
23292W        W95018  44.084   9.299  13.536
23293W        W95019  33.181   1.823  13.863
23294W        W95020  17.343  31.190  13.022
23295W        W95021  15.223  21.612   3.859
23296W        W95022   5.580  26.743   2.610
23297W        W95023  23.268  41.992  12.991
23298W        W95024   8.466  22.296  14.892
23299W        W95025  33.528  18.271   3.222
23300W        W95026  38.020  43.267  12.919
23301W        W95027  35.687   3.322   3.106
23302W        W95028  34.469   5.654   3.823
23303W        W95029   4.829  33.110   1.776
23304W        W95030   0.898  37.274  12.544
23305W        W95031  42.324  43.776  14.224
23306W        W95032  42.303  41.807   4.049
23307W        W95033  40.870  11.828  11.686
23308W        W95034   1.721  15.291   3.154
23309W        W95035  14.119  36.887  14.271
23310W        W95036  19.165  10.458   1.326
23311W        W95037  13.243  10.851  13.727
23312W        W95038   2.000  34.513   1.271
23313W        W95039  12.656  17.321   1.281
23314W        W95040   8.201  31.324   2.870
23315W        W95041   2.214  30.354   0.463
23316W        W95042  29.013  23.522   3.034
23317W        W95043  23.101   2.719   3.231
23318W        W95044  40.437   8.665   0.534
23319W        W95045  44.257  31.465   0.862
23320W        W95046  28.822  34.005   4.472
23321W        W95047   1.356  15.764  14.734
23322W        W95048  17.305  27.382   2.435
23323W        W95049  27.627  39.619  13.739
23324W        W95050  10.645  31.570   3.691
23325W        W95051   3.595   4.314  10.641
23326W        W95052  32.366  37.069   3.833
23327W        W95053   3.805  40.938  12.524
23328W        W95054  12.302  16.384  11.189
23329W        W95055   8.226  12.609  10.980
23330W        W95056  36.762  11.357  14.261
23331W        W95057   8.281   5.313   9.750
23332W        W95058   8.757  12.744   4.508
23333W        W95059  30.047   4.184   0.376
23334W        W95060  29.462  39.854   0.027
23335W        W95061  28.950  12.273  11.655
23336W        W95062  31.406   8.747  13.453
23337W        W95063  26.039  29.179  13.469
23338W        W95064   2.862  31.047   4.836
23339W        W95065  10.778  44.596  12.206
23340W        W95066  40.787  34.996   2.714
23341W        W95067   2.349  15.495  13.349
23342W        W95068  37.472   1.539  12.909
23343W        W95069  21.803  36.925   4.244
23344W        W95070  44.546  25.971  13.870
23345W        W95071  44.984  32.318  12.451
23346W        W95072  18.229  37.393   2.801
23347W        W95073  22.210   2.229  14.379
23348W        W95074  18.684   0.694  14.971
23349W        W95075   1.692  10.405   0.949
23350W        W95076  38.951  16.734  14.777
23351W        W95077  34.942  31.370   4.791
23352W        W95078   0.000  39.525  13.981
23353W        W95079  16.821  21.695   1.295
23354W        W95080  12.173  36.154  10.950
23355W        W95081   1.201  37.834   2.359
23356W        W95082  22.285  26.380  12.896
23357W        W95083   1.396  10.716   1.306
23358W        W95084   8.668  26.040   1.072
23359W        W95085   3.207  11.874   3.284
23360W        W95086   0.404  34.758  11.213
23361W        W95087  20.750   7.366  10.779
23362W        W95088  43.249   8.896  12.419
23363W        W95089  16.349  15.986  11.126
23364W        W95090  39.615  41.018   0.269
23365W        W95091  28.753  40.885  13.886
23366W        W95092  22.791   5.661  11.095
23367W        W95093  13.573  24.530   2.694
23368W        W95094  10.723  13.195   5.023
23369W        W95095  44.235  11.081  14.960
23370W        W95096  20.877  39.406   4.701
23371W        W95097  44.430  38.951   3.429
23372W        W95098  40.101   1.498   1.838
23373W        W95099  28.221  35.573  11.956
23374W        W95100  18.163  20.593   2.789
23375W        W95101  38.050  19.366   4.274
23376W        W95102  24.765  36.611   1.472
23377W        W95103   4.819  13.505   0.955
23378W        W95104  41.770  20.566  13.498
23379W        W95105  34.593  43.300   1.894
23380W        W95106  41.552  23.757   2.827
23381W        W95107  29.521  15.198  10.616
23382W        W95108  17.246  38.540  11.127
23383W        W95109  29.948   6.624  11.710
23384W        W95110  30.040  33.865  14.095
23385W        W95111   6.449  36.863   0.084
23386W        W95112  28.554  23.228  14.496
23387W        W95113  20.641   5.824   4.587
23388W        W95114  10.451  23.751  12.194
23389W        W95115   8.383  27.136  11.462
23390W        W95116  13.727   2.391  14.710
23391W        W95117  44.209  43.020   2.729
23392W        W95118  19.583  40.601  12.863
23393W        W95119   9.647  36.968  10.994
23394W        W95120  43.242  15.271   4.055
23395W        W95121  33.363  21.187  13.515
23396W        W95122  25.574  37.234   2.832
23397W        W95123  32.965  20.672  13.003
23398W        W95124  24.612   9.601   0.258
23399W        W95125  19.660  41.103  10.632
23400W        W95126   6.270  40.505   2.649
23401W        W95127   7.688  10.080  11.162
23402W        W95128  39.573  11.848  14.476
23403W        W95129  19.274  37.873   3.140
23404W        W95130   6.300  27.476  13.024
23405W        W95131  19.202   6.559  10.695
23406W        W95132   2.567  21.555   1.410
23407W        W95133   3.704  38.311   0.387
23408W        W95134  36.882  35.399   0.353
23409W        W95135  18.101  33.579  13.343
23410W        W95136  10.188  31.888   4.254
23411W        W95137  23.901  39.027  11.879
23412W        W95138   0.722  33.170   3.260
23413W        W95139  40.838  39.595   4.766
23414W        W95140  41.234  37.425  13.981
23415W        W95141  32.060  33.401  10.444
23416W        W95142  42.155  13.405   4.643
23417W        W95143  18.598  27.462  12.493
23418W        W95144  11.589  28.894  13.403
23419W        W95145   4.812   8.243  11.835
23420W        W95146  27.851  20.096  11.550
23421W        W95147  30.637  11.628   0.979
23422W        W95148  40.833  25.279  13.000
23423W        W95149   3.955  35.512   4.563
23424W        W95150  11.092   6.683  14.022
23425W        W95151   6.290  38.468   2.669
23426W        W95152   9.326  17.018  11.942
23427W        W95153  15.374  43.258   0.752
23428W        W95154   1.191  25.726   2.294
23429W        W95155  42.309  43.738  14.741
23430W        W95156   0.342  36.876  14.788
23431W        W95157  34.634   5.019   1.320
23432W        W95158  38.533  39.401   1.940
23433W        W95159  24.633   7.286   0.161
23434W        W95160  25.150   8.739  10.576
23435W        W95161  18.087  20.719  11.673
23436W        W95162  27.714  30.476  11.139
23437W        W95163  42.728  15.176   4.733
23438W        W95164  39.961  24.259  14.319
23439W        W95165  10.845  21.541   2.847
23440W        W95166  17.215   5.914  12.542
23441W        W95167   0.714  40.000   0.442
23442W        W95168  19.567  14.160  14.002
23443W        W95169   3.735  22.832  14.898
23444W        W95170  36.080  42.745  12.411
23445W        W95171   6.680   6.792  13.273
23446W        W95172   2.045   7.217  14.413
23447W        W95173  20.306  42.044  13.872
23448W        W95174  34.435   9.658  10.673
23449W        W95175  22.575  19.269   1.841
23450W        W95176  18.752  27.437   4.625
23451W        W95177   9.317   1.937   3.794
23452W        W95178   8.952  34.553  13.776
23453W        W95179  33.471   9.733   1.276
23454W        W95180  35.972  39.872   4.386
23455W        W95181  23.652  25.994   1.715
23456W        W95182  27.455  25.005   2.702
23457W        W95183  22.179  12.306   3.153
23458W        W95184  26.113  29.664   2.836
23459W        W95185  39.093  39.512  13.423
23460W        W95186  42.400  37.841   3.780
23461W        W95187  20.752  24.207  14.077
23462W        W95188  26.941  21.798  12.961
23463W        W95189  19.707   8.175  12.705
23464W        W95190  43.278  15.491  12.923
23465W        W95191  14.806  24.205  14.904
23466W        W95192  43.248  24.509   2.202
23467W        W95193  17.847  30.565  11.486
23468W        W95194  27.588  21.742   0.995
23469W        W95195  26.937  14.575   3.229
23470W        W95196  32.126   5.331  13.351
23471W        W95197  24.070  13.013   2.362
23472W        W95198  38.572  28.683  10.752
23473W        W95199  26.059  16.513  14.012
23474W        W95200   4.918  25.711   3.398
23475W        W95201  11.403  37.050   2.310
23476W        W95202   4.323  26.003  13.354
23477W        W95203   2.861   9.252   4.643
23478W        W95204  43.360  36.427   4.182
23479W        W95205   9.505   0.943  14.039
23480W        W95206  36.373  34.403  14.443
23481W        W95207  23.874  36.135  13.890
23482W        W95208  23.382  37.563  11.273
23483W        W95209  19.392  29.376   5.108
23484W        W95210  44.945  26.204   0.412
23485W        W95211   6.295  24.759  11.233
23486W        W95212  28.963  17.301   1.726
23487W        W95213  18.385   6.931   1.757
23488W        W95214  26.120  15.989  14.019
23489W        W95215  35.962   0.447  12.900
23490W        W95216   7.194  19.594   2.577
23491W        W95217  11.755  44.827  13.788
23492W        W95218  39.235  39.394   3.375
23493W        W95219   7.154  32.877  10.415
23494W        W95220  17.006   8.209  14.005
23495W        W95221   1.849   0.335  11.526
23496W        W95222  13.244   5.880   0.727
23497W        W95223  27.055  38.065   3.086
23498W        W95224  37.857  13.237   0.920
23499W        W95225  44.938  14.798  13.097
23500W        W95226  11.393  19.589   0.786
23501W        W95227  41.402  39.557   0.277
23502W        W95228   7.601  36.005   3.179
23503W        W95229  13.858  16.017   4.956
23504W        W95230  26.910  20.027   1.830
23505W        W95231   5.237  28.222  12.942
23506W        W95232  41.238   4.693  10.714
23507W        W95233  34.026   5.191  10.173
23508W        W95234  42.965   6.887   4.103
23509W        W95235  43.210  37.862   1.814
23510W        W95236  43.965  22.633  14.772
23511W        W95237  11.486  10.673   3.876
23512W        W95238  10.080  16.340   0.713
23513W        W95239  23.876  42.657   3.612
23514W        W95240   5.025  27.178  10.421
23515W        W95241  44.839   0.204  14.581
23516W        W95242  27.694  13.119  12.876
23517W        W95243  40.028  14.751   4.561
23518W        W95244  28.166  38.491   2.044
23519W        W95245   4.220   5.353  10.422
23520W        W95246   8.660  20.961  10.643
23521W        W95247   4.892  17.515   3.311
23522W        W95248  36.685  12.320  12.303
23523W        W95249  34.504  14.360   3.031
23524W        W95250  19.802  30.497  13.525
23525W        W95251  40.781  29.429  12.896
23526W        W95252  18.638  15.235   1.842
23527W        W95253  12.345  27.087   1.816
23528W        W95254   7.424  14.105   1.320
23529W        W95255  11.343   7.930   2.367
23530W        W95256  10.528  34.863  10.229
23531W        W95257   8.704   7.845   0.881
23532W        W95258  14.359  20.595   1.438
23533W        W95259  14.647  43.055   4.861
23534W        W95260  38.469  40.934  14.952
23535W        W95261  44.940  16.627  12.051
23536W        W95262  13.751  27.224   4.202
23537W        W95263  26.649  26.958   1.783
23538W        W95264  27.594   1.993  14.931
23539W        W95265  16.320  37.297  11.575
23540W        W95266  30.431  14.415   0.891
23541W        W95267  40.549  20.131   0.703
23542W        W95268  42.398  29.240  14.905
23543W        W95269  35.618  18.648  11.632
23544W        W95270  23.529  33.426   3.208
23545W        W95271  30.032  18.132  13.939
23546W        W95272  29.053  19.484   2.259
23547W        W95273  15.702  39.788   5.012
23548W        W95274  36.207  42.522  14.021
23549W        W95275   8.835  32.592  12.827
23550W        W95276  39.051  33.755   2.702
23551W        W95277  14.369   8.895  10.788
23552W        W95278   8.328  24.412  11.425
23553W        W95279  19.100  42.966  14.779
23554W        W95280  43.728  44.766   2.768
23555W        W95281  17.585  26.151  11.381
23556W        W95282  29.859  33.205  13.350
23557W        W95283  27.017  31.246   1.697
23558W        W95284   4.363  24.610   3.558
23559W        W95285  44.949  34.981   2.969
23560W        W95286  20.712  29.353   0.510
23561W        W95287  31.957  25.564   3.750
23562W        W95288   8.931   4.374   5.057
23563W        W95289  26.753  25.979  14.943
23564W        W95290  29.441  19.441  11.118
23565W        W95291  39.078   9.394  12.512
23566W        W95292   8.237  25.990   0.312
23567W        W95293  40.923  20.792  12.404
23568W        W95294  14.220  22.474   3.313
23569W        W95295   2.297   7.715   4.793
23570W        W95296  19.282   3.481   0.902
23571W        W95297  14.280  19.503  11.164
23572W        W95298   4.258  29.540   3.385
23573W        W95299  10.453  31.491  12.026
23574W        W95300  44.711  44.199   2.294
23575W        W95301   5.683  25.790  12.162
23576W        W95302   0.411  11.113  13.843
23577W        W95303   0.726  27.907   3.591
23578W        W95304   7.227  10.165   0.014
23579W        W95305  43.539  39.533  10.782
23580W        W95306  40.495  18.080  14.295
23581W        W95307  39.533   8.326  12.700
23582W        W95308  37.828   0.621   5.104
23583W        W95309  18.493  43.000  10.681
23584W        W95310  16.965  43.330   1.995
23585W        W95311  22.581   3.503   3.116
23586W        W95312  31.427   2.558   0.332
23587W        W95313  16.721  18.440   0.808
23588W        W95314  27.312  28.952   2.765
23589W        W95315  19.121  15.346  13.383
23590W        W95316  20.048  10.857   3.150
23591W        W95317  40.943  26.927   2.954
23592W        W95318   5.962  22.554  10.352
23593W        W95319   9.522   9.045  12.854
23594W        W95320  11.201   8.073  12.551
23595W        W95321  29.705  12.348   3.130
23596W        W95322  12.627  10.889  14.057
23597W        W95323  39.333  22.589  11.364
23598W        W95324   7.946  24.140  11.130
23599W        W95325   6.077  31.847  12.503
23600W        W95326  34.895  33.101   2.436
23601W        W95327   6.625  16.838  12.013
23602W        W95328  44.412  32.629  12.243
23603W        W95329   9.930   6.522   3.844
23604W        W95330  18.602  39.891  14.789
23605W        W95331  18.006   9.378   2.365
23606W        W95332   5.736  19.926   0.298
23607W        W95333   5.367  41.506  10.504
23608W        W95334  17.672  42.942   4.173
23609W        W95335  39.301  18.770   4.271
23610W        W95336  44.051  33.153   2.087
23611W        W95337   6.753  10.393  14.035
23612W        W95338   5.731  33.919  12.449
23613W        W95339  19.232  44.482   1.473
23614W        W95340   9.007  40.088   4.156
23615W        W95341  35.958  33.960   1.922
23616W        W95342  28.013  39.163  13.823
23617W        W95343  12.365  37.263   3.927
23618W        W95344  34.443  33.138  13.425
23619W        W95345   9.363  36.357   4.116
23620W        W95346  22.566   3.771   0.299
23621W        W95347  10.312  26.761   4.175
23622W        W95348  41.927   6.429   1.980
23623W        W95349  21.805  40.971  13.546
23624W        W95350   2.041  41.921   0.727
23625W        W95351  12.342  39.292   1.656
23626W        W95352  24.106  31.003  12.629
23627W        W95353  26.257  44.015   0.378
23628W        W95354  38.248  42.909   4.583
23629W        W95355  25.471  41.300  10.687
23630W        W95356   1.188  18.360   4.215
23631W        W95357  15.432   4.919   4.689
23632W        W95358  40.876  39.452  12.049
23633W        W95359  18.304  39.498   3.329
23634W        W95360  15.749  14.906   2.044
23635W        W95361  26.088  22.155   2.613
23636W        W95362  44.957  15.404   0.055
23637W        W95363  39.252   0.699   2.340
23638W        W95364  12.108  36.040   3.247
23639W        W95365  30.588   7.655   1.874
23640W        W95366  31.117  38.955   2.324
23641W        W95367  31.879  13.766   1.837
23642W        W95368   6.184  38.547  13.094
23643W        W95369  26.052  42.105   1.707
23644W        W95370   9.110   8.526   0.570
23645W        W95371  36.678  30.460   4.041
23646W        W95372  31.405  18.348  11.009
23647W        W95373  20.638   1.745   4.171
23648W        W95374   1.362  23.441  13.850
23649W        W95375  25.662  22.600  11.817
23650W        W95376   8.314  15.830  11.952
23651W        W95377  16.036  15.543  11.155
23652W        W95378  14.653  28.349  12.049
23653W        W95379  44.686  21.101  11.454
23654W        W95380  27.999  27.650   4.186
23655W        W95381   3.704  23.076   3.589
23656W        W95382  12.242  38.090   2.758
23657W        W95383  15.048  43.907  12.948
23658W        W95384  20.284  21.065   0.141
23659W        W95385  38.903  31.514   4.320
23660W        W95386  15.157  40.915  12.405
23661W        W95387  25.230  18.639  12.956
23662W        W95388  21.136   5.689   2.158
23663W        W95389  24.745  13.338   4.610
23664W        W95390   3.859  26.115   4.073
23665W        W95391  16.048   8.888   0.472
23666W        W95392  28.165   8.962   4.175
23667W        W95393  37.499   2.446  10.937
23668W        W95394   0.746   1.147  11.624
23669W        W95395  42.555  22.112   1.316
23670W        W95396  41.603  26.721  13.568
23671W        W95397  34.629  12.216   3.304
23672W        W95398  20.193  34.684   3.941
23673W        W95399  29.394  32.010   2.420
23674W        W95400  26.609  12.107   4.583
23675W        W95401   4.751  20.591   2.391
23676W        W95402  16.181  28.444   0.470
23677W        W95403  12.686  20.844  12.632
23678W        W95404  29.429  21.284  10.683
23679W        W95405   7.362  31.979   2.799
23680W        W95406  38.455  44.783   0.905
23681W        W95407   3.513  42.301   0.019
23682W        W95408  13.903  10.393   0.492
23683W        W95409  10.163  30.471  11.169
23684W        W95410  30.517   4.698  14.542
23685W        W95411  33.388  41.504   4.566
23686W        W95412  39.082  24.086   9.992
23687W        W95413  18.590  22.500   1.775
23688W        W95414   6.339  30.898  11.199
23689W        W95415  25.938   5.899  12.850
23690W        W95416  37.117   2.116   2.239
23691W        W95417  13.178  21.957   1.804
23692W        W95418   1.253  44.294   4.657
23693W        W95419   1.067   8.265  14.482
23694W        W95420  40.892   7.135   2.303
23695W        W95421  23.611  12.779   5.454
23696W        W95422  22.096  27.221  14.610
23697W        W95423  21.226  13.201  11.917
23698W        W95424  39.675  19.523  13.782
23699W        W95425  28.432  24.571   2.905
23700W        W95426  24.093   0.239   1.867
23701W        W95427   3.903  33.502  14.675
23702W        W95428  29.649  41.772  12.340
23703W        W95429  43.040  21.060  13.447
23704W        W95430  31.066  39.018  12.362
23705W        W95431  36.231   3.499  13.388
23706W        W95432   8.991  33.830   4.298
23707W        W95433  40.295  29.552   1.345
23708W        W95434   6.675   3.916  13.561
23709W        W95435  15.648  20.252   2.600
23710W        W95436  39.284  41.629   3.480
23711W        W95437  41.822   3.339  13.410
23712W        W95438  44.802  12.423  10.715
23713W        W95439  43.606   8.016   4.085
23714W        W95440  25.396  11.901   1.879
23715W        W95441  27.182  11.269   3.352
23716W        W95442   9.789  34.243  11.506
23717W        W95443  20.201  37.386  12.447
23718W        W95444  37.443  42.105   1.412
23719W        W95445  41.040   3.041  14.687
23720W        W95446  27.698   0.117   5.035
23721W        W95447  43.920  11.367  12.051
23722W        W95448  22.212  20.496   3.870
23723W        W95449  39.375  34.250  12.471
23724W        W95450  39.789  37.026   1.367
23725W        W95451   2.685   3.843   4.220
23726W        W95452   6.927   5.709   4.616
23727W        W95453  39.369  24.947   3.853
23728W        W95454  36.414  23.652   1.866
23729W        W95455  37.471  38.257  11.140
23730W        W95456  10.787  39.803   4.593
23731W        W95457   7.670  38.128  11.034
23732W        W95458  21.109  20.943   0.252
23733W        W95459  36.460  18.129   3.130
23734W        W95460  14.089  27.139  12.071
23735W        W95461  34.905  23.689   3.637
23736W        W95462  14.095  16.746   4.918
23737W        W95463  44.484  15.625  14.903
23738W        W95464   9.285  44.335   4.298
23739W        W95465   0.886   0.736  14.046
23740W        W95466  24.026  16.590   3.099
23741W        W95467  26.471   1.731  13.089
23742W        W95468  29.943  30.340   3.329
23743W        W95469  37.858  44.858  13.488
23744W        W95470  38.453  17.501   1.943
23745W        W95471   0.844   0.266   1.414
23746W        W95472   8.784  21.746  11.501
23747W        W95473  35.292  30.449   0.925
23748W        W95474  44.097   3.291  11.953
23749W        W95475  28.908  17.961   3.854
23750W        W95476  21.314  41.472  11.882
23751W        W95477   9.576  35.121  14.985
23752W        W95478   2.787  32.128  10.336
23753W        W95479   1.829  18.537  13.454
23754W        W95480   3.409  12.193  13.368
23755W        W95481  23.139  18.537  11.753
23756W        W95482  18.855  24.432  11.266
23757W        W95483  17.341  17.022  10.962
23758W        W95484  40.293  24.572  14.792
23759W        W95485   0.256   6.162   4.700
23760W        W95486  40.535   7.471   0.913
23761W        W95487  27.077  11.673  13.097
23762W        W95488  21.057   6.502   4.147
23763W        W95489  21.649  36.895  11.380
23764W        W95490  19.007  26.249   4.208
23765W        W95491  36.623   6.745  13.270
23766W        W95492   1.897  14.984  11.429
23767W        W95493  39.039  12.322   4.325
23768W        W95494  20.763  40.406  13.518
23769W        W95495  11.591  13.841   3.162
23770W        W95496   3.614   7.820   2.687
23771W        W95497  37.049  44.172  10.949
23772W        W95498   9.177   9.456  11.148
23773W        W95499  17.517   3.457   4.642
23774W        W95500  22.018  34.557   1.280
23775W        W95501  34.066  32.034  11.633
23776W        W95502   4.194  14.044   2.098
23777W        W95503  28.017  19.120  10.694
23778W        W95504  17.585   0.924  11.071
23779W        W95505  24.350  23.122  10.820
23780W        W95506   1.251  42.457  13.815
23781W        W95507  12.439  42.627   0.496
23782W        W95508  12.364  33.973  11.882
23783W        W95509  16.215   6.500   2.358
23784W        W95510  14.756   5.779  13.006
23785W        W95511  34.745  43.892  14.982
23786W        W95512  25.711  33.664  14.848
23787W        W95513  29.964  16.184  13.822
23788W        W95514  26.735   4.037   3.226
23789W        W95515  10.214   7.140   1.971
23790W        W95516   6.598  31.687   0.895
23791W        W95517  27.484  19.121   4.161
23792W        W95518  12.934   9.575   4.296
23793W        W95519  41.345  11.152  11.636
23794W        W95520  36.485   4.553  10.168
23795W        W95521  32.377  23.467  11.145
23796W        W95522  22.006  40.790   3.293
23797W        W95523   4.645   9.605  14.976
23798W        W95524  28.792  44.916   0.400
23799W        W95525  44.936  28.951  11.267
23800W        W95526  42.587  38.462   3.182
23801W        W95527  43.104  24.159  10.642
23802W        W95528  26.634  30.179   0.513
23803W        W95529  15.306  14.255   0.737
23804W        W95530  22.994  27.045  11.214
23805W        W95531  44.457  23.244   4.058
23806W        W95532  40.789  36.369   0.918
23807W        W95533  12.910  25.611   4.655
23808W        W95534  29.523  13.058  14.937
23809W        W95535   0.665  20.267   3.193
23810W        W95536  12.568  31.427  13.895
23811W        W95537  14.372  33.522   3.110
23812W        W95538  33.894   6.742   0.183
23813W        W95539  21.342  10.884  12.970
23814W        W95540  41.781  21.120  14.985
23815W        W95541  11.028   3.773  14.458
23816W        W95542  29.665   1.426  14.217
23817W        W95543  10.111   7.644   0.300
23818W        W95544   2.504  39.679  10.136
23819W        W95545  16.549  17.705  10.832
23820W        W95546   3.270  11.852  12.982
23821W        W95547  42.319  20.566   1.295
23822W        W95548   5.274   3.781   1.218
23823W        W95549  14.357  13.389  10.505
23824W        W95550  19.867  44.024   0.313
23825W        W95551  12.852  28.912  13.052
23826W        W95552  25.661  30.366  13.462
23827W        W95553   4.270  44.404   0.376
23828W        W95554  37.414  13.377   4.924
23829W        W95555  22.949  12.596   9.582
23830W        W95556  18.080   6.647   0.409
23831W        W95557  31.946  43.823  13.250
23832W        W95558  43.534  40.437   4.615
23833W        W95559   2.961  40.265  11.193
23834W        W95560  11.869  34.159   3.563
23835W        W95561  27.614   2.503   1.715
23836W        W95562  37.102   3.710   3.200
23837W        W95563  16.574   0.219   0.879
23838W        W95564  34.883  33.550  10.800
23839W        W95565  11.949   5.023   1.662
23840W        W95566  31.153  23.143  12.721
23841W        W95567  42.014  40.828  12.895
23842W        W95568   4.697  28.808  14.657
23843W        W95569  35.257  34.415  12.666
23844W        W95570  42.777  44.952   3.597
23845W        W95571  26.556  29.931   1.507
23846W        W95572   0.255   6.500  14.443
23847W        W95573  24.864  18.815   4.610
23848W        W95574  42.896  19.702   2.699
23849W        W95575   5.945  20.978  12.659
23850W        W95576  26.405   8.814  14.735
23851W        W95577  24.473  27.400   3.210
23852W        W95578  30.144   4.256   2.209
23853W        W95579  20.301   2.555   1.415
23854W        W95580  34.921  33.590   1.749
23855W        W95581  13.089   4.068   1.044
23856W        W95582  15.509  28.069   2.383
23857W        W95583  35.681   5.866   3.772
23858W        W95584  24.518   5.671  10.413
23859W        W95585  30.251  32.488  12.357
23860W        W95586  14.775  16.096   1.293
23861W        W95587  24.519   1.016   5.509
23862W        W95588  44.228  42.846   5.099
23863W        W95589   1.075  33.518   2.384
23864W        W95590   7.079   1.876  14.874
23865W        W95591  35.569   4.074   0.247
23866W        W95592  38.295  37.540   2.722
23867W        W95593  23.243  29.126  12.082
23868W        W95594   2.190  27.702   4.259
23869W        W95595  26.588  41.493  12.755
23870W        W95596  42.464  18.643   2.261
23871W        W95597  19.207   6.856   2.772
23872W        W95598   0.694  24.168  12.964
23873W        W95599  31.877  35.526   0.328
23874W        W95600  42.884   4.922  12.484
23875W        W95601  36.387  15.790   1.920
23876W        W95602  12.778  17.623   3.967
23877W        W95603  32.551   6.988  10.889
23878W        W95604  23.631  17.874  11.411
23879W        W95605  19.597  18.347   1.286
23880W        W95606  29.571  30.204   0.235
23881W        W95607  19.808  42.422  14.556
23882W        W95608  19.316  12.780  10.684
23883W        W95609   4.256  38.923   3.135
23884W        W95610  30.011  21.139   0.531
23885W        W95611   3.811  21.433  14.765
23886W        W95612  17.591  34.892   3.599
23887W        W95613   5.893  20.433   0.270
23888W        W95614  29.434  44.915  13.420
23889W        W95615  39.967  42.127   1.985
23890W        W95616  24.947  20.568   0.388
23891W        W95617  25.822   6.225   4.009
23892W        W95618  25.727  25.341  14.732
23893W        W95619  39.275  10.664  13.068
23894W        W95620  44.815  15.647  12.938
23895W        W95621  27.133   7.895   2.110
23896W        W95622   1.481  21.754  11.619
23897W        W95623   0.474  11.783   2.978
23898W        W95624  21.256   9.670  12.097
23899W        W95625  34.580   6.555  14.271
23900W        W95626  11.655  39.914  11.992
23901W        W95627  41.090  24.236   3.099
23902W        W95628   1.015   0.889   2.742
23903W        W95629  10.574  44.850   0.903
23904W        W95630   4.656  37.334   3.768
23905W        W95631   9.800  11.836   4.600
23906W        W95632  38.112  14.851  13.507
23907W        W95633  14.035  15.078   3.022
23908W        W95634  43.265  44.264   0.735
23909W        W95635  14.766  28.768   5.005
23910W        W95636  19.291  35.079   0.877
23911W        W95637  14.828  43.407  10.601
23912W        W95638  35.828  24.499   1.803
23913W        W95639   0.470  26.261   2.726
23914W        W95640  40.018  32.599   3.532
23915W        W95641  21.216  14.019   1.268
23916W        W95642  26.860  16.651  11.131
23917W        W95643  42.498   3.237  14.101
23918W        W95644  20.399   0.136   4.914
23919W        W95645  40.445  10.831  10.349
23920W        W95646  43.320  44.955  12.895
23921W        W95647  30.447  22.271   4.658
23922W        W95648  40.386   2.982   1.841
23923W        W95649   1.290  26.879  10.893
23924W        W95650  27.973  29.916  11.564
23925W        W95651  12.290  27.529   4.261
23926W        W95652  24.510  37.051   2.440
23927W        W95653   1.898  25.333   3.501
23928W        W95654   2.907  31.615   4.037
23929W        W95655  41.683  30.495  10.087
23930W        W95656  33.119   8.722  14.086
23931W        W95657   2.590  35.943   9.940
23932W        W95658  44.754   6.719  13.380
23933W        W95659   9.963  18.767   3.282
23934W        W95660  17.592  39.352   1.848
23935W        W95661  22.696   4.984  12.011
23936W        W95662  11.751  33.020   0.073
23937W        W95663  23.679  44.310   1.269
23938W        W95664  24.903  38.106  13.343
23939W        W95665   7.064   7.768   0.169
23940W        W95666  28.611  12.661  10.756
23941W        W95667   7.149  15.390  11.024
23942W        W95668  30.122  28.974  11.265
23943W        W95669  33.548   7.334   3.835
23944W        W95670  18.099   8.848  14.902
23945W        W95671  40.347  43.975  11.982
23946W        W95672   5.414  26.909   4.641
23947W        W95673  19.477  42.836   1.252
23948W        W95674  13.324  13.025  10.361
23949W        W95675   3.190  27.455   3.266
23950W        W95676  35.382  25.578   4.247
23951W        W95677  36.177  42.968  12.935
23952W        W95678  33.139  32.834  13.445
23953W        W95679  20.793  36.314  13.345
23954W        W95680  12.137  32.465   0.755
23955W        W95681   8.239  14.704  11.474
23956W        W95682   0.467  14.609  10.768
23957W        W95683  39.565  25.235  10.650
23958W        W95684  37.156   7.254   3.332
23959W        W95685  43.502  42.399  14.275
23960W        W95686   3.750  23.086   4.094
23961W        W95687  13.178  41.378   0.837
23962W        W95688  23.584   0.201  12.620
23963W        W95689   2.710   4.779  11.165
23964W        W95690  26.453  21.011  14.299
23965W        W95691   9.722   0.352   0.317
23966W        W95692   5.893  22.260   4.481
23967W        W95693   2.753   3.931   0.320
23968W        W95694  11.143  30.971  14.285
23969W        W95695  40.855  44.158  12.012
23970W        W95696   2.935   4.937   2.380
23971W        W95697  33.490   7.962   3.402
23972W        W95698   4.965  37.492  12.588
23973W        W95699  22.331   1.022  13.386
23974W        W95700  27.476   1.965   4.579
23975W        W95701  28.987  31.991  14.051
23976W        W95702  38.627  12.639  12.118
23977W        W95703  34.524  12.267  11.130
23978W        W95704  31.376  26.746   9.864
23979W        W95705   5.752  34.039   2.164
23980W        W95706  18.978  15.273   3.831
23981W        W95707  42.072  20.644  11.283
23982W        W95708  23.514  40.046  11.153
23983W        W95709  30.603   8.201  11.370
23984W        W95710  16.594  29.625   0.369
23985W        W95711  15.183   4.019  12.168
23986W        W95712   5.451   5.948   2.123
23987W        W95713   7.820   2.948   4.320
23988W        W95714  33.335  19.585   1.801
23989W        W95715   7.949  12.222   2.627
23990W        W95716  20.268  23.771   0.777
23991W        W95717  12.867  18.106   0.412
23992W        W95718  42.718  44.650   4.049
23993W        W95719   2.499  10.883  11.186
23994W        W95720  10.888  14.814  10.974
23995W        W95721   4.042  35.338   4.079
23996W        W95722  43.292   1.736  11.714
23997W        W95723  10.604  24.128   3.774
23998W        W95724  10.173  16.754   4.697
23999W        W95725  28.903  43.544   1.397
24000W        W95726  32.097  10.693  13.358
24001W        W95727  25.503   3.953  10.658
24002W        W95728   7.390  41.345  10.491
24003W        W95729   1.450  33.149  14.413
24004W        W95730  14.562  37.012   3.798
24005W        W95731   4.691   6.251   1.726
24006W        W95732  20.344  43.817  12.824
24007W        W95733  22.745  19.560   2.273
24008W        W95734  10.364  24.556   3.335
24009W        W95735  41.921   4.486   1.359
24010W        W95736  30.624  25.400  13.554
24011W        W95737  43.042  31.799   0.461
24012W        W95738  12.271   1.816  11.960
24013W        W95739  33.738  19.125   2.757
24014W        W95740  30.643  22.767  12.179
24015W        W95741  42.570  16.468  12.103
24016W        W95742  41.739  21.981  11.843
24017W        W95743  40.260  15.957  12.208
24018W        W95744  26.740  41.204  12.361
24019W        W95745  33.455  41.621  10.470
24020W        W95746  44.885  15.373  12.317
24021W        W95747   9.354  39.041   0.291
24022W        W95748  32.719  32.360   4.588
24023W        W95749  14.807  10.401  13.350
24024W        W95750  22.422  36.447  11.134
24025W        W95751  23.654  14.753  10.138
24026W        W95752  35.328   1.113  11.727
24027W        W95753   1.151  23.807  10.770
24028W        W95754  17.369  15.595   4.695
24029W        W95755   4.672  32.304   2.764
24030W        W95756  37.944   2.498   2.211
24031W        W95757   4.687  40.003   4.590
24032W        W95758   6.779  23.021  13.318
24033W        W95759  23.741  40.867   3.147
24034W        W95760   6.234   7.404   4.626
24035W        W95761  40.374  42.855  13.054
24036W        W95762  29.820  36.167  11.082
24037W        W95763  37.860  26.623  10.633
24038W        W95764   4.219  29.383   4.413
24039W        W95765   9.094  44.846  10.498
24040W        W95766  35.549  41.629   3.584
24041W        W95767  34.867  21.571   1.836
24042W        W95768  41.761   2.879  11.556
24043W        W95769   8.380  30.351   0.505
24044W        W95770  13.202   3.451  12.865
24045W        W95771  41.294  12.815  12.176
24046W        W95772  40.401   6.884  12.598
24047W        W95773  41.548   6.125  13.013
24048W        W95774  32.887  27.206  13.040
24049W        W95775   9.180  35.657   3.644
24050W        W95776  44.848  20.152   4.160
24051W        W95777  43.069  25.426  11.458
24052W        W95778  22.206   8.844   2.416
24053W        W95779   7.659   3.000   0.860
24054W        W95780   3.064  14.313   3.145
24055W        W95781  37.486  24.274  12.838
24056W        W95782  18.110  27.135   3.483
24057W        W95783  15.818  11.784  11.652
24058W        W95784   2.629   2.922  11.680
24059W        W95785  16.115  38.578  10.508
24060W        W95786  36.290  25.108   3.759
24061W        W95787   7.018   9.204  13.793
24062W        W95788  24.150   3.483  11.502
24063W        W95789   0.723  34.373  12.607
24064W        W95790  22.667  43.304   3.703
24065W        W95791  14.810  18.801   1.686
24066W        W95792  16.018  10.385  10.714
24067W        W95793  13.752   4.319  12.450
24068W        W95794  38.487  29.376   3.851
24069W        W95795  42.405  10.543  14.307
24070W        W95796  32.692   9.397   3.763
24071W        W95797  12.599   9.267   1.322
24072W        W95798  15.570  27.911  14.451
24073W        W95799  44.395  38.559   1.429
24074W        W95800  14.493  23.650  11.786
24075W        W95801  29.260  33.599   0.794
24076W        W95802  21.234  32.366   3.602
24077W        W95803  30.686  19.779   1.300
24078W        W95804  32.580   9.224   3.273
24079W        W95805  34.422  17.832  14.350
24080W        W95806  37.837   4.342   0.116
24081W        W95807  23.592  31.563   2.716
24082W        W95808  20.526  23.178   2.892
24083W        W95809   3.907  31.194  12.818
24084W        W95810  32.131   1.964   0.260
24085W        W95811  40.260  18.437   4.178
24086W        W95812   7.046  39.396  11.961
24087W        W95813  42.924   1.617   1.187
24088W        W95814  41.406  34.984  11.869
24089W        W95815  32.032  17.124  13.422
24090W        W95816   7.909  39.777   3.667
24091W        W95817   1.476   8.005   1.769
24092W        W95818  32.518  35.112   1.922
24093W        W95819   2.711  38.433   1.512
24094W        W95820  38.926  35.711  12.899
24095W        W95821  24.574  24.576  14.657
24096W        W95822  34.333  16.534  11.106
24097W        W95823  33.652   5.816   2.684
24098W        W95824  13.605  44.875   4.095
24099W        W95825  14.189  21.906  13.099
24100W        W95826  18.145  14.636  12.974
24101W        W95827   2.239   3.481   0.743
24102W        W95828   1.847   4.800  14.744
24103W        W95829  11.408   0.283   3.558
24104W        W95830   6.738  21.699  11.973
24105W        W95831  41.050  19.267  12.531
24106W        W95832  38.982  33.629  10.891
24107W        W95833  37.022  28.422   4.372
24108W        W95834  16.678  43.989   2.639
24109W        W95835  24.982  18.548  12.110
24110W        W95836  27.573   7.966   2.360
24111W        W95837  42.337  35.996   4.153
24112W        W95838  40.511  34.358  13.153
24113W        W95839  10.039  37.556  14.563
24114W        W95840   4.149  31.020  10.671
24115W        W95841  35.852  11.725   4.126
24116W        W95842  34.610  19.284  13.915
24117W        W95843   0.276  15.946  11.229
24118W        W95844   6.937   5.272   1.791
24119W        W95845  26.500   7.211   2.168
24120W        W95846  20.237  42.914  13.053
24121W        W95847  32.200  37.506   4.637
24122W        W95848  29.457  41.917   4.296
24123W        W95849  37.843  18.196  14.939
24124W        W95850  31.119   5.018   1.282
24125W        W95851  33.691  18.577   2.150
24126W        W95852  39.984  10.780   1.721
24127W        W95853  10.827  31.386  11.079
24128W        W95854   0.873   5.211  10.692
24129W        W95855  33.338  31.089   4.340
24130W        W95856  37.483  14.579  10.717
24131W        W95857  37.144  25.846   3.798
24132W        W95858  37.438  43.063   2.339
24133W        W95859  31.329  37.053   0.954
24134W        W95860  41.721  17.668   4.151
24135W        W95861  12.155  35.368  11.096
24136W        W95862  39.740  42.844  10.747
24137W        W95863  33.619  12.812  14.871
24138W        W95864  38.826  15.004   0.302
24139W        W95865  31.410  24.647   0.653
24140W        W95866   3.396  18.927   4.967
24141W        W95867  44.864  24.146  10.863
24142W        W95868  24.216  20.583  14.941
24143W        W95869  11.505   3.738   2.282
24144W        W95870  12.158  17.130   1.417
24145W        W95871  29.172   7.756   0.387
24146W        W95872  38.536  33.829   4.773
24147W        W95873   8.220  30.667   2.264
24148W        W95874  29.082  42.797   0.882
24149W        W95875   4.840   6.713   1.566
24150W        W95876  40.203  40.784  13.546
24151W        W95877  30.551  14.086  13.909
24152W        W95878  17.134  26.954   3.410
24153W        W95879  20.719  20.086   4.603
24154W        W95880  16.333   7.116   1.281
24155W        W95881  20.547   4.868  13.798
24156W        W95882  14.444  10.518   3.133
24157W        W95883  35.063  44.777   3.259
24158W        W95884  30.006   5.267  11.505
24159W        W95885   2.963  16.410   1.264
24160W        W95886  19.482  40.847   1.425
24161W        W95887   0.869  13.212   4.096
24162W        W95888  16.638  34.398  14.339
24163W        W95889  44.192  21.200   2.273
24164W        W95890  24.735  40.238  11.938
24165W        W95891  10.049  12.540  11.143
24166W        W95892  20.304  20.780  12.556
24167W        W95893  32.984   9.180  11.061
24168W        W95894  41.299  31.935   1.300
24169W        W95895  39.928   5.425  12.897
24170W        W95896  11.791  29.219   2.589
24171W        W95897   8.817   2.700  12.435
24172W        W95898  22.692   5.965  10.663
24173W        W95899  42.414  11.660   3.634
24174W        W95900  16.126  44.274  12.629
24175W        W95901  38.953  30.632  13.501
24176W        W95902   4.247  26.617  14.890
24177W        W95903  12.574  38.545   2.787
24178W        W95904  31.117  29.196   1.724
24179W        W95905  35.349  31.521  14.417
24180W        W95906   3.851  14.257   3.655
24181W        W95907  35.994  20.494   0.405
24182W        W95908  18.559  34.004   1.253
24183W        W95909  44.443   0.526  13.837
24184W        W95910  21.640  35.047  12.015
24185W        W95911   2.865   5.697  11.308
24186W        W95912  31.706  23.210   2.605
24187W        W95913  12.583  16.682   1.925
24188W        W95914  31.532  15.289   2.298
24189W        W95915  42.898  14.780  13.555
24190W        W95916  32.915  22.077  13.490
24191W        W95917  20.827   5.299  11.716
24192W        W95918  24.176  30.178   4.388
24193W        W95919  36.850  32.149  13.184
24194W        W95920  27.977   9.920  10.203
24195W        W95921  36.878  18.241  12.043
24196W        W95922  31.456   4.578  13.433
24197W        W95923  20.622   5.799   3.621
24198W        W95924  12.175   5.305   4.211
24199W        W95925  17.121  13.881  14.753
24200W        W95926   7.803   3.378   0.258
24201W        W95927  16.593   2.701  14.923
24202W        W95928  35.631  25.492  13.464
24203W        W95929   7.228  23.496   3.661
24204W        W95930   8.763  17.756   1.287
24205W        W95931  38.134  15.011   1.437
24206W        W95932   0.857  27.296  13.379
24207W        W95933  22.687  35.885  11.556
24208W        W95934  20.593   0.188  12.865
24209W        W95935  16.806  22.814  11.128
24210W        W95936  21.337  27.967   1.758
24211W        W95937  18.830  20.137  14.952
24212W        W95938  38.030   9.661   4.195
24213W        W95939  22.686   2.522   4.439
24214W        W95940  32.942  29.906   2.702
24215W        W95941  18.278   0.246  11.259
24216W        W95942  40.600   8.127   0.017
24217W        W95943  29.152   3.738  12.042
24218W        W95944  37.801  28.227   3.642
24219W        W95945  14.219  34.539  13.054
24220W        W95946  43.313  42.955   1.421
24221W        W95947  25.615  44.920   4.004
24222W        W95948   0.443  32.566  14.194
24223W        W95949  36.396  40.037  12.116
24224W        W95950  23.917  40.838   1.336
24225W        W95951  23.420  10.220  12.158
24226W        W95952  22.660  20.465  13.551
24227W        W95953  44.971  42.375  10.511
24228W        W95954  42.218   9.313   0.567
24229W        W95955  24.414  12.619   2.414
24230W        W95956   4.256  26.782  11.529
24231W        W95957  43.364  11.816  10.719
24232W        W95958  28.580   9.713  12.816
24233W        W95959  43.306  11.029  13.980
24234W        W95960  30.773   9.755   1.821
24235W        W95961  42.858  21.647   0.249
24236W        W95962  10.785   6.398  11.158
24237W        W95963  34.415  15.066  12.948
24238W        W95964  43.815   3.765  14.321
24239W        W95965   4.244  18.312  11.600
24240W        W95966  12.315  24.623   3.335
24241W        W95967  44.823   2.426   3.853
24242W        W95968  28.960  12.655  12.905
24243W        W95969  30.652  19.073   4.624
24244W        W95970  36.428  40.910   3.721
24245W        W95971  18.298   4.419  13.030
24246W        W95972  33.929  26.343  12.090
24247W        W95973  33.295  29.008  10.796
24248W        W95974  11.116   9.704   3.730
24249W        W95975  14.239  21.554   4.119
24250W        W95976   5.349   6.896   2.887
24251W        W95977  15.077  40.161   2.396
24252W        W95978   8.512  25.943  12.031
24253W        W95979  41.633  11.054  10.687
24254W        W95980  41.264  10.786   1.473
24255W        W95981   2.470  18.105  12.192
24256W        W95982  18.232   8.925   0.837
24257W        W95983  27.399   6.492  14.083
24258W        W95984  21.224  40.574   2.827
24259W        W95985  11.182  19.143   2.689
24260W        W95986  22.531  32.181   1.396
24261W        W95987  42.864  29.240   5.015
24262W        W95988   4.906  37.966   0.715
24263W        W95989   0.421  32.814  13.507
24264W        W95990  28.674   3.474   0.453
24265W        W95991  23.982  22.706   3.619
24266W        W95992  24.244  42.414  12.684
24267W        W95993   7.192  13.268   0.989
24268W        W95994  40.410  34.616   2.754
24269W        W95995  14.858   9.705  12.504
24270W        W95996  12.255  41.863   0.334
24271W        W95997  11.946  39.846  11.568
24272W        W95998  22.212  39.887   3.112
24273W        W95999  30.444  26.958  14.470
24274W        W96000   0.954  40.965  11.699
24275W        W96001  37.941  23.285  12.039
24276W        W96002  32.183  15.304  12.140
24277W        W96003  10.461  11.797  11.997
24278W        W96004  34.104  37.944  11.910
24279W        W96005  37.589  18.624  11.501
24280W        W96006   4.290   2.711   2.300
24281W        W96007  10.432   8.181   4.605
24282W        W96008   7.383  42.868  13.911
24283W        W96009   2.085  32.001   0.771
24284W        W96010  13.214  13.840  10.847
24285W        W96011  10.232   2.935  12.420
24286W        W96012  36.419  42.338  12.384
24287W        W96013  37.559  31.997   3.794
24288W        W96014  42.098   9.386  13.426
24289W        W96015   7.071  36.430  12.029
24290W        W96016  33.900  23.479  12.797
24291W        W96017   2.797  25.928  11.596
24292W        W96018  10.325   9.845   2.344
24293W        W96019  23.943  42.863  10.457
24294W        W96020  23.091  16.633   3.643
24295W        W96021  35.998  40.324   4.141
24296W        W96022  30.142  37.139  11.001
24297W        W96023  11.449  30.594  13.497
24298W        W96024  19.736  18.490  12.304
24299W        W96025  12.688  39.757  14.974
24300W        W96026  28.025  34.677   4.793
24301W        W96027  35.422  44.343  10.730
24302W        W96028  27.084  12.666   3.416
24303W        W96029   4.379  22.221   0.230
24304W        W96030  23.099   5.234  11.149
24305W        W96031  28.493  10.186   4.581
24306W        W96032  23.582  11.592   1.244
24307W        W96033  32.190  20.679  13.532
24308W        W96034   9.291  44.258  14.910
24309W        W96035  18.066  40.986  14.340
24310W        W96036  33.044  42.337   3.488
24311W        W96037  41.064   6.206  10.708
24312W        W96038  42.792   5.100  14.301
24313W        W96039   3.229  29.969   0.486
24314W        W96040  38.646  31.683   0.058
24315W        W96041   1.554   2.995   1.292
24316W        W96042  33.102   9.726   4.763
24317W        W96043   8.701   6.864  14.794
24318W        W96044  26.505  19.669  11.970
24319W        W96045   2.885  20.114   3.671
24320W        W96046  32.952  23.629   0.019
24321W        W96047  39.499   1.416   3.281
24322W        W96048   1.169  13.286   4.572
24323W        W96049  11.183  13.190   1.474
24324W        W96050  25.410   0.274  11.244
24325W        W96051  38.398   0.885   2.814
24326W        W96052  42.898  12.181   2.098
24327W        W96053  23.990  33.472   2.986
24328W        W96054  26.073  16.237  11.094
24329W        W96055  35.008  30.889   0.444
24330W        W96056   7.728   0.264  13.322
24331W        W96057   4.912  10.756  12.313
24332W        W96058  21.216  13.620  14.257
24333W        W96059  20.697  39.296   2.791
24334W        W96060  43.439  31.508  11.647
24335W        W96061  10.853  40.853   2.859
24336W        W96062  36.896   5.082  12.984
24337W        W96063  36.606  19.227  14.158
24338W        W96064  22.499  25.636  14.504
24339W        W96065  11.319   6.328  12.169
24340W        W96066  30.667   2.929  13.975
24341W        W96067  27.644  15.828   3.295
24342W        W96068   9.473  37.087   1.372
24343W        W96069   8.291  10.200   2.996
24344W        W96070   1.650  27.253  14.078
24345W        W96071   8.391  36.167   0.294
24346W        W96072  23.648  31.076  12.302
24347W        W96073  21.175   4.258   5.075
24348W        W96074  37.181  44.873   0.411
24349W        W96075  20.045  15.289  13.535
24350W        W96076   9.415   9.431   0.915
24351W        W96077   5.796  18.126   4.033
24352W        W96078  40.977  13.803   1.188
24353W        W96079   1.855   0.430   1.696
24354W        W96080  42.923  32.145  11.927
24355W        W96081  32.904  41.184  10.120
24356W        W96082  32.133   9.937   2.260
24357W        W96083  10.886  16.757  10.703
24358W        W96084  42.750   4.342  13.486
24359W        W96085  24.061  22.276   2.622
24360W        W96086   3.064  34.097  11.077
24361W        W96087  11.157   9.741   0.256
24362W        W96088  13.443   7.718   4.554
24363W        W96089   9.243   6.146   4.480
24364W        W96090   3.336  27.197   3.752
24365W        W96091   2.293  10.092  13.362
24366W        W96092  19.799  10.930   2.710
24367W        W96093  36.343  14.245  13.431
24368W        W96094   2.967   7.422   1.220
24369W        W96095  16.092   0.259  12.484
24370W        W96096  30.501   2.479   4.750
24371W        W96097   4.751   6.713  13.278
24372W        W96098  36.858  16.746   2.717
24373W        W96099  29.064  43.320  11.437
24374W        W96100   0.012   0.897   0.725
24375W        W96101  34.988  24.654   4.949
24376W        W96102   2.341  32.891   2.251
24377W        W96103   4.391  25.070  13.499
24378W        W96104  36.794  34.536   0.225
24379W        W96105  42.790  20.091  11.574
24380W        W96106   4.403  33.120  14.137
24381W        W96107  17.022  23.798  10.039
24382W        W96108   8.496   4.092   5.031
24383W        W96109  30.890  13.850   0.413
24384W        W96110  12.585  22.370   4.248
24385W        W96111  17.283  25.168   3.369
24386W        W96112  23.081  28.007   3.886
24387W        W96113  35.991  33.709   4.525
24388W        W96114  42.542  36.936  12.075
24389W        W96115  44.007   6.746  11.290
24390W        W96116  14.403  17.278  13.341
24391W        W96117  17.744  32.638   3.156
24392W        W96118  25.592  14.816   3.250
24393W        W96119  27.665  28.304  10.226
24394W        W96120  20.736  26.493   9.702
24395W        W96121  29.600  11.112   2.294
24396W        W96122  35.948  15.068   0.406
24397W        W96123  14.710  15.715  14.545
24398W        W96124  24.618   8.696   1.352
24399W        W96125  33.558  19.450   2.312
24400W        W96126  22.476  26.103   3.167
24401W        W96127  21.313  21.287   3.559
24402W        W96128  22.094  16.118  10.488
24403W        W96129  33.015  39.949  12.478
24404W        W96130  21.787  39.564   4.206
24405W        W96131  29.702  10.625  13.806
24406W        W96132  25.101  25.024   3.784
24407W        W96133  15.345  25.121  11.477
24408W        W96134   5.740  37.963  14.649
24409W        W96135  24.588  13.043   1.216
24410W        W96136  23.486  31.974  14.842
24411W        W96137   8.182  25.233   9.827
24412W        W96138  16.968  26.088   1.453
24413W        W96139  23.987   4.363   0.441
24414W        W96140  24.680  25.467   4.574
24415W        W96141  35.873  15.851   1.789
24416W        W96142  18.638  21.267   3.329
24417W        W96143  21.805  38.594   2.219
24418W        W96144  17.401   2.853  14.363
24419W        W96145   2.238  35.502   4.738
24420W        W96146  39.375   2.802  12.120
24421W        W96147   8.211  13.400   1.675
24422W        W96148  35.069  18.077  12.481
24423W        W96149  26.478   8.118   3.638
24424W        W96150  27.584   8.135   1.197
24425W        W96151  14.784  30.382   1.357
24426W        W96152  23.746  35.823   3.616
24427W        W96153  16.740  20.080   1.456
24428W        W96154  36.922  18.760  12.055
24429W        W96155  44.684  12.336   3.208
24430W        W96156  21.474   6.282  12.564
24431W        W96157  43.241  21.110   4.545
24432W        W96158   4.748   1.770   3.616
24433W        W96159  42.130  40.279  13.378
24434W        W96160  40.640   0.938   1.876
24435W        W96161  36.839   2.180   4.597
24436W        W96162  31.762   7.755   2.739
24437W        W96163  44.333  32.955  10.405
24438W        W96164  13.302   6.702  12.408
24439W        W96165   6.754   1.974  13.185
24440W        W96166  13.837  42.329  13.005
24441W        W96167  44.374  12.611  14.058
24442W        W96168  30.557  15.514   2.707
24443W        W96169  22.558  24.608   4.675
24444W        W96170  27.903   6.275  14.016
24445W        W96171  35.660   4.850  14.913
24446W        W96172  16.251   2.558   2.313
24447W        W96173  13.707   6.119   0.777
24448W        W96174  29.893  22.756  11.467
24449W        W96175  24.099   1.491   4.720
24450W        W96176   0.245  18.100  11.060
24451W        W96177   1.809  20.227   3.394
24452W        W96178  34.773  13.927   2.778
24453W        W96179  16.516  42.073   3.263
24454W        W96180   3.375  41.338  11.896
24455W        W96181   9.349  41.868  12.337
24456W        W96182  29.975   5.176  12.939
24457W        W96183  44.569   0.659  14.325
24458W        W96184   2.896  32.949   2.862
24459W        W96185   6.577   2.016  14.891
24460W        W96186  24.393  31.865   1.557
24461W        W96187  14.291  19.642  11.649
24462W        W96188   1.082   4.332   4.727
24463W        W96189  44.267  10.470  12.619
24464W        W96190   2.222  39.896   4.672
24465W        W96191  28.462  33.496  12.075
24466W        W96192   9.632  39.552   1.305
24467W        W96193  16.516  24.594  13.020
24468W        W96194  17.728  40.301  13.828
24469W        W96195  40.758   3.879  12.901
24470W        W96196  22.646  20.665  13.054
24471W        W96197   9.207  40.400   0.174
24472W        W96198  37.195  36.345  11.473
24473W        W96199  18.487   9.260   2.230
24474W        W96200  11.393   0.001  12.527
24475W        W96201  20.137  18.221   1.315
24476W        W96202  15.680   0.977  11.177
24477W        W96203  28.259  36.625   2.258
24478W        W96204  28.831  16.739   4.480
24479W        W96205  17.216   7.199  10.782
24480W        W96206   4.406  35.027   4.328
24481W        W96207   4.473  25.636   0.358
24482W        W96208  34.697  13.837   0.166
24483W        W96209  15.412  16.723   3.934
24484W        W96210  15.358  15.879  11.842
24485W        W96211  18.740  26.144  12.475
24486W        W96212  29.941  32.631  13.817
24487W        W96213   6.310  44.752   3.489
24488W        W96214   2.155   9.603   3.012
24489W        W96215   8.868  35.542  14.912
24490W        W96216  10.433  41.320  13.076
24491W        W96217  15.035  12.388   3.267
24492W        W96218  36.312  24.275  11.117
24493W        W96219  40.129  33.756   2.772
24494W        W96220  17.372   7.892  11.890
24495W        W96221  38.643  16.233  13.961
24496W        W96222   7.718  13.626  10.045
24497W        W96223  19.477  10.455  13.931
24498W        W96224   4.236   5.786   0.440
24499W        W96225   5.010  16.329  12.893
24500W        W96226  38.510  31.165   4.327
24501W        W96227  31.451  30.415   0.423
24502W        W96228  41.766  28.946  11.933
24503W        W96229  38.160  23.069  11.597
24504W        W96230   6.212  26.537   3.394
24505W        W96231   5.246  34.571   3.591
24506W        W96232  18.292  41.462   0.890
24507W        W96233  43.787  33.460   4.503
24508W        W96234   6.812  18.759  11.492
24509W        W96235  19.616  22.987  11.122
24510W        W96236  18.496   4.931   0.589
24511W        W96237  15.225  30.507   4.269
24512W        W96238  33.663  25.065  11.634
24513W        W96239  11.640  33.035   3.246
24514W        W96240  21.047  20.554   3.779
24515W        W96241  17.838  35.389  11.725
24516W        W96242  38.834   9.810  13.996
24517W        W96243  22.844  22.529  12.054
24518W        W96244  41.508  32.135   4.360
24519W        W96245  18.466  33.131   3.768
24520W        W96246  35.306   5.553   2.507
24521W        W96247  41.065  37.313   2.314
24522W        W96248  18.362  26.650  12.963
24523W        W96249  31.210  37.634   0.852
24524W        W96250  41.441  31.438   1.325
24525W        W96251  18.795  15.315   3.310
24526W        W96252   5.004  40.248   0.736
24527W        W96253  14.770  17.164  10.806
24528W        W96254  38.036   5.275  14.925
24529W        W96255  32.385   7.170  11.576
24530W        W96256  23.706   6.698   2.197
24531W        W96257  39.933  12.630  12.354
24532W        W96258   7.774  36.382  13.450
24533W        W96259  10.078  10.555  10.407
24534W        W96260  25.804  43.835  12.025
24535W        W96261  41.530  38.009  14.745
24536W        W96262  36.404  33.473  10.589
24537W        W96263  31.751  14.508   1.970
24538W        W96264   4.699  41.887   3.688
24539W        W96265  21.147  25.499   0.263
24540W        W96266   5.270  32.965   2.038
24541W        W96267  25.088  15.338  12.021
24542W        W96268  13.859   4.309   4.674
24543W        W96269  37.405  30.170   1.655
24544W        W96270  37.153  27.147   2.362
24545W        W96271  21.227   8.817  13.654
24546W        W96272  33.128   4.918   2.934
24547W        W96273  24.621  10.160   0.749
24548W        W96274  19.616  14.338  12.981
24549W        W96275  22.433  19.273  12.898
24550W        W96276  43.894  17.298  14.764
24551W        W96277  13.820  32.316   1.754
24552W        W96278  21.169  19.208  11.597
24553W        W96279  24.911  14.898   4.326
24554W        W96280   2.800  31.600   0.474
24555W        W96281   9.682  26.670  12.685
24556W        W96282  28.921  24.956   9.507
24557W        W96283  21.631  19.753  13.612
24558W        W96284  15.206  38.103  10.572
24559W        W96285  39.460  22.975  12.994
24560W        W96286   3.360  11.117   3.608
24561W        W96287   3.512  36.868  13.854
24562W        W96288  28.723  40.500   1.936
24563W        W96289  32.918  38.322   4.112
24564W        W96290  19.648  22.295  12.151
24565W        W96291  21.133  25.199   3.481
24566W        W96292  22.253   1.256   4.848
24567W        W96293  11.669  14.853  10.718
24568W        W96294   8.288  29.287  14.676
24569W        W96295  10.816  32.732   1.123
24570W        W96296   1.176  30.095   1.261
24571W        W96297  31.659  18.271  14.453
24572W        W96298  38.077   5.908  11.248
24573W        W96299  10.864  20.644   0.492
24574W        W96300   1.405  22.160   4.650
24575W        W96301  32.036  27.694   0.548
24576W        W96302  32.336  10.278   3.340
24577W        W96303  11.359  18.007   3.830
24578W        W96304  14.918   6.162   1.875
24579W        W96305  24.182  21.881  13.347
24580W        W96306  27.647   2.768   2.631
24581W        W96307   4.662  13.679  10.958
24582W        W96308  14.694  39.862  12.043
24583W        W96309  40.802  42.257  14.193
24584W        W96310  36.617  12.864  14.963
24585W        W96311  19.887  22.029  11.122
24586W        W96312  37.912  26.448   3.414
24587W        W96313  30.542  16.602   2.815
24588W        W96314  28.591  27.253   3.607
24589W        W96315  35.423  39.810   2.136
24590W        W96316  36.075  35.540  12.412
24591W        W96317  23.756  30.975  10.621
24592W        W96318  42.415  44.448  14.077
24593W        W96319  32.502  25.691  14.335
24594W        W96320  10.133  14.870   1.774
24595W        W96321   0.988   9.365   4.103
24596W        W96322   2.647  24.764  10.183
24597W        W96323  16.071  15.861  12.950
24598W        W96324  38.895  11.295  13.501
24599W        W96325  11.226  40.953  13.134
24600W        W96326   1.885  21.749  10.913
24601W        W96327  14.320  17.265   3.608
24602W        W96328  14.392  16.545  10.755
24603W        W96329  14.280  39.588   4.275
24604W        W96330  15.233  17.678   4.466
24605W        W96331  17.171  18.076   4.787
24606W        W96332  20.127   4.786   1.808
24607W        W96333  24.055  23.939  14.944
24608W        W96334   8.218  21.109  12.515
24609W        W96335  14.454   3.411   1.639
24610W        W96336  16.836  33.315   0.256
24611W        W96337  10.629  27.577   4.221
24612W        W96338   4.414  30.578  10.618
24613W        W96339  31.095  43.598  13.575
24614W        W96340   6.470  43.070  13.791
24615W        W96341  14.001   3.164   4.166
24616W        W96342   7.836  30.588   1.877
24617W        W96343  31.915  30.256  11.123
24618W        W96344   5.246  24.053   2.338
24619W        W96345  14.253   7.391  11.901
24620W        W96346  26.615   0.994   1.768
24621W        W96347   4.285   3.840  14.516
24622W        W96348   1.794  33.518   1.888
24623W        W96349  34.995  38.333  11.873
24624W        W96350   2.369  42.526  13.409
24625W        W96351  15.815  28.713  10.685
24626W        W96352  38.476  35.028  13.849
24627W        W96353  10.634  15.680  13.750
24628W        W96354  33.799  19.218  13.441
24629W        W96355  39.459   6.475   9.839
24630W        W96356  42.868  28.036  13.083
24631W        W96357   0.966  21.393   1.415
24632W        W96358  14.473   2.672   0.614
24633W        W96359  38.880  25.572  14.029
24634W        W96360  37.084  18.209  12.517
24635W        W96361  29.010  37.543   0.415
24636W        W96362  34.174  10.716  12.418
24637W        W96363  35.353  35.954   2.318
24638W        W96364   9.240  37.972   4.754
24639W        W96365  29.645   8.010  13.366
24640W        W96366   1.958  37.583  11.102
24641W        W96367   7.987  24.533  13.434
24642W        W96368  32.600  17.011  14.088
24643W        W96369  31.753   6.861   1.164
24644W        W96370   6.732   8.289   0.706
24645W        W96371  21.805   8.147  13.486
24646W        W96372  44.962  13.910  12.992
24647W        W96373  12.387  12.860   0.866
24648W        W96374  19.708  31.009  10.546
24649W        W96375   6.236  36.140   2.224
24650W        W96376  36.453  35.450   2.155
24651W        W96377  15.563  36.856  13.396
24652W        W96378  33.047  31.687  14.995
24653W        W96379  18.121   4.651   0.387
24654W        W96380   5.898  34.856   3.289
24655W        W96381   1.499  29.080  11.807
24656W        W96382  40.283  25.478   3.103
24657W        W96383  23.720  32.972  10.610
24658W        W96384  30.592  13.095   0.545
24659W        W96385  39.968   8.719  14.827
24660W        W96386  15.763  44.523   2.810
24661W        W96387  25.918  16.717  12.811
24662W        W96388  26.743  28.540  14.990
24663W        W96389   5.341  33.137  12.446
24664W        W96390  16.976  35.521   3.339
24665W        W96391   6.691  29.581   3.819
24666W        W96392   1.612  32.430  14.354
24667W        W96393   4.170  26.955   4.320
24668W        W96394   2.339  31.629  14.822
24669W        W96395  29.902   2.453  11.823
24670W        W96396   3.333  41.640  14.505
24671W        W96397  20.844  12.839   3.248
24672W        W96398  36.410  35.246  13.542
24673W        W96399  37.018   4.800  12.518
24674W        W96400  34.804   9.275  12.101
24675W        W96401   1.962   5.283  10.484
24676W        W96402  17.483  12.588  13.616
24677W        W96403  18.393  39.951   3.618
24678W        W96404  22.760  42.050  12.971
24679W        W96405   7.098  20.089  11.077
24680W        W96406  31.709  18.735  12.951
24681W        W96407   4.328  22.589  14.316
24682W        W96408  37.580   4.116  14.571
24683W        W96409  40.607  38.760  12.448
24684W        W96410   3.488  15.768   0.015
24685W        W96411  16.860  12.149   3.286
24686W        W96412  16.263  37.770   4.113
24687W        W96413  10.551  18.788  12.585
24688W        W96414  21.191  21.667   3.875
24689W        W96415  17.345  12.816  14.760
24690W        W96416  33.014  28.943   3.026
24691W        W96417  35.965  18.802   0.186
24692W        W96418   3.745  12.378   5.135
24693W        W96419  43.503  19.933  13.213
24694W        W96420  36.635  12.261  13.812
24695W        W96421  24.784  40.734   0.005
24696W        W96422   4.793  26.301  12.051
24697W        W96423  32.910  37.410   2.351
24698W        W96424  16.330  31.451   3.664
24699W        W96425  13.640  35.904  12.144
24700W        W96426  16.637  28.697   3.846
24701W        W96427  26.054  32.898  11.131
24702W        W96428  44.834  18.063  14.045
24703W        W96429  20.137  40.562  12.157
24704W        W96430   6.306  16.621  13.397
24705W        W96431  31.204  16.737  10.647
24706W        W96432  25.491  12.557   5.027
24707W        W96433  23.738  27.111   4.243
24708W        W96434  19.622   2.784  14.837
24709W        W96435  37.145  12.100  12.499
24710W        W96436   1.744  33.085   3.275
24711W        W96437  33.615  25.962  12.531
24712W        W96438   3.939  20.725  12.193
24713W        W96439   5.710  22.057  12.525
24714W        W96440  33.994  32.541  11.480
24715W        W96441   6.865   3.179  12.037
24716W        W96442  11.714  43.909  12.865
24717W        W96443  36.455  36.903  12.933
24718W        W96444  31.622  21.595  10.385
24719W        W96445   3.159  22.391  13.812
24720W        W96446   9.251  15.176   0.844
24721W        W96447  32.105  13.310   1.563
24722W        W96448  20.117  35.245  11.533
24723W        W96449  25.179  33.940   1.247
24724W        W96450  15.613  33.934   4.044
24725W        W96451  15.070   2.458  12.036
24726W        W96452  23.981  40.486  11.574
24727W        W96453  33.894  38.813  14.921
24728W        W96454  24.270  17.022   3.241
24729W        W96455   4.436  24.713   0.405
24730W        W96456  11.726  35.094   0.337
24731W        W96457  32.510  31.098  10.958
24732W        W96458   2.219  14.263  12.059
24733W        W96459  42.103   4.838   9.910
24734W        W96460   6.722  35.884   4.204
24735W        W96461  13.715  12.788   3.383
24736W        W96462  23.124  31.176   1.767
24737W        W96463   9.553  20.030   4.117
24738W        W96464  20.031  16.515  11.148
24739W        W96465  43.353  37.452  13.345
24740W        W96466  36.048  38.453  14.380
24741W        W96467  37.838  12.818  12.965
24742W        W96468  19.755  42.025  13.900
24743W        W96469  29.448  39.022  12.922
24744W        W96470  21.634  40.751  13.094
24745W        W96471  33.053  40.401   2.972
24746W        W96472   6.732  26.659  14.839
24747W        W96473  30.104  30.075   1.738
24748W        W96474   9.379   5.702   4.744
24749W        W96475  22.753  43.785   1.995
24750W        W96476  33.313  41.828  13.000
24751W        W96477  32.418  38.634  10.333
24752W        W96478  32.871   2.661   1.263
24753W        W96479  36.376  26.554  10.670
24754W        W96480   9.339  22.771  10.164
24755W        W96481  25.075  31.553  11.658
24756W        W96482  40.225   4.772  14.313
24757W        W96483  30.121  15.783  12.434
24758W        W96484  10.789  13.153  13.352
24759W        W96485  20.073  13.302  11.420
24760W        W96486   2.413  27.552   1.297
24761W        W96487  16.117  35.996   4.605
24762W        W96488  14.961  40.921   5.530
24763W        W96489  40.629  24.645   4.364
24764W        W96490  22.562  24.650   2.615
24765W        W96491  10.286  26.162   2.636
24766W        W96492  39.882  27.442   3.332
24767W        W96493   1.366  40.134  11.535
24768W        W96494  17.516   1.587   2.740
24769W        W96495  29.032  34.125   4.932
24770W        W96496  34.562   6.246   0.305
24771W        W96497  10.673  42.227   4.818
24772W        W96498  34.982   7.096  12.539
24773W        W96499   5.608  24.137  14.298
24774W        W96500  34.794  29.715  13.521
24775W        W96501  42.357  39.500   0.249
24776W        W96502  31.312  11.923  11.646
24777W        W96503   7.698  27.648  13.028
24778W        W96504  20.117  39.488  13.938
24779W        W96505  41.069  36.340   1.356
24780W        W96506  25.510  10.379   1.115
24781W        W96507  27.965  28.500  13.289
24782W        W96508  13.521  16.957  12.405
24783W        W96509   4.791   9.796   3.338
24784W        W96510  17.362  23.599  11.054
24785W        W96511  22.729  35.919   0.407
24786W        W96512  26.640   6.320   1.693
24787W        W96513  23.158  38.825  12.999
24788W        W96514  44.170   4.125   2.777
24789W        W96515   5.740  22.558  13.366
24790W        W96516  35.351   6.841   1.196
24791W        W96517  33.435   4.004  12.858
24792W        W96518  15.379  30.872   1.772
24793W        W96519  17.067  12.865   1.794
24794W        W96520   0.712  41.828  11.494
24795W        W96521  24.839   7.475   3.953
24796W        W96522  32.562  18.756   0.900
24797W        W96523  21.084   2.109   5.147
24798W        W96524  39.538   7.234   5.044
24799W        W96525  38.832  21.042  10.776
24800W        W96526   5.841   8.116   2.427
24801W        W96527  10.731  38.602  10.058
24802W        W96528  17.582  20.554  11.497
24803W        W96529  33.131   3.954   1.778
24804W        W96530  11.164  29.825  13.031
24805W        W96531  33.567  43.484   5.099
24806W        W96532  23.691  39.503   1.735
24807W        W96533   2.263  39.172   3.303
24808W        W96534  19.559   5.839   3.661
24809W        W96535  27.192  14.642  13.004
24810W        W96536   2.399  44.230  12.004
24811W        W96537  23.456  39.701  12.883
24812W        W96538   7.841  10.785   4.788
24813W        W96539  19.238  38.748   0.803
24814W        W96540   9.439  14.258  12.341
24815W        W96541  15.507   0.402   1.203
24816W        W96542   7.571   6.672   3.344
24817W        W96543  22.263  32.416   2.818
24818W        W96544   3.126   9.698  12.929
24819W        W96545  27.630  16.083   0.271
24820W        W96546  16.595  28.013   2.272
24821W        W96547  37.986  27.685  12.614
24822W        W96548  11.873  39.528   0.546
24823W        W96549   0.279  13.169  14.039
24824W        W96550  14.791  33.849   3.185
24825W        W96551   8.443  32.022  11.569
24826W        W96552  22.438  29.621   0.780
24827W        W96553  28.526  30.425   3.176
24828W        W96554  20.541  34.666   1.887
24829W        W96555  15.514  25.517  14.318
24830W        W96556  22.593  44.440  13.066
24831W        W96557  35.036  43.839  11.965
24832W        W96558  34.694  37.601  12.846
24833W        W96559  41.034  12.723   4.797
24834W        W96560  37.486   9.166  10.829
24835W        W96561  10.400  38.297   0.137
24836W        W96562   8.637  39.986  14.692
24837W        W96563  24.936  30.005   0.305
24838W        W96564  16.060  40.293  10.190
24839W        W96565   4.806   9.000   5.123
24840W        W96566  12.863  39.558   3.627
24841W        W96567  32.065   7.077  10.988
24842W        W96568   7.691  34.811   3.579
24843W        W96569  21.867  25.611   4.133
24844W        W96570  24.629  44.787   4.160
24845W        W96571   0.216  21.224   2.257
24846W        W96572  43.513  20.192  12.365
24847W        W96573  28.143  36.762  12.497
24848W        W96574  33.575  18.557  12.057
24849W        W96575   8.628  29.449  11.571
24850W        W96576  21.780  15.705  13.920
24851W        W96577  17.306  19.080  12.084
24852W        W96578  32.070  31.393  13.519
24853W        W96579  38.534  12.615  13.405
24854W        W96580   7.820   9.771   0.891
24855W        W96581  10.376  32.516   0.270
24856W        W96582   5.461  33.051  11.109
24857W        W96583  33.565  44.086   1.364
24858W        W96584  34.810  18.513   4.117
24859W        W96585  36.530  18.969   2.306
24860W        W96586  31.618  11.794  10.595
24861W        W96587  26.139   8.148  14.375
24862W        W96588  35.496  27.162   4.207
24863W        W96589  16.066  42.988  11.980
24864W        W96590  30.582  23.573  12.585
24865W        W96591   2.681   4.400   1.173
24866W        W96592  34.495  15.884   3.134
24867W        W96593  38.682  16.977   4.094
24868W        W96594  17.462  41.257   1.303
24869W        W96595  25.033   3.019   4.614
24870W        W96596   7.218   0.334   2.928
24871W        W96597  31.565  40.238  12.461
24872W        W96598  10.528  21.860  14.509
24873W        W96599  34.450   8.680  11.514
24874W        W96600  22.812  44.254  10.652
24875W        W96601  30.525  38.399   4.851
24876W        W96602   0.745  30.900  10.725
24877W        W96603  43.215  34.252   1.759
24878W        W96604  41.627  26.453   3.234
24879W        W96605  21.341  41.195  13.669
24880W        W96606  29.985  32.027   0.241
24881W        W96607  27.347  11.630   5.127
24882W        W96608  23.549   0.330   3.164
24883W        W96609  16.817  29.902   4.350
24884W        W96610  15.278  23.148  12.405
24885W        W96611  37.102   0.501   3.492
24886W        W96612  20.346  25.624   4.884
24887W        W96613  12.397   2.427   0.016
24888W        W96614  26.571  21.690  10.772
24889W        W96615   8.203  21.169  14.302
24890W        W96616  27.026  39.863  13.852
24891W        W96617  38.863   1.799  12.910
24892W        W96618  25.750  30.353  12.493
24893W        W96619  25.059  24.548  14.856
24894W        W96620  29.439   0.654  10.637
24895W        W96621  23.325  14.182  12.164
24896W        W96622  30.415   6.294  11.543
24897W        W96623  43.201  22.915   0.855
24898W        W96624  30.935  20.272  13.029
24899W        W96625   6.792   3.679  14.018
24900W        W96626   4.652  10.372  12.597
24901W        W96627  25.272  16.739  14.947
24902W        W96628  21.437  26.905  11.041
24903W        W96629  27.923  27.601  13.231
24904W        W96630   2.794   5.979  11.729
24905W        W96631   1.763  43.940   1.821
24906W        W96632  39.702  14.580  12.588
24907W        W96633  25.115  14.660  13.580
24908W        W96634   1.868  27.630   3.623
24909W        W96635  32.864  20.166  14.834
24910W        W96636  36.104  16.217   4.937
24911W        W96637  20.080   6.054   0.446
24912W        W96638   5.342   8.643  11.041
24913W        W96639   4.726  33.811   0.397
24914W        W96640  29.068  40.502   0.265
24915W        W96641  27.547  38.054  10.700
24916W        W96642  42.914  29.440   4.052
24917W        W96643  12.973   2.182   0.903
24918W        W96644  30.462  33.400   4.159
24919W        W96645   2.522  28.418  10.633
24920W        W96646  27.762  32.908   4.619
24921W        W96647  13.338  24.589   1.236
24922W        W96648  34.148  20.345   1.733
24923W        W96649  38.915  34.131   2.321
24924W        W96650  33.416  39.042   0.708
24925W        W96651  21.362  31.058  14.709
24926W        W96652   0.688  42.800  12.484
24927W        W96653  11.400  15.124  13.830
24928W        W96654   6.447  41.687   3.701
24929W        W96655   3.206  25.578  14.913
24930W        W96656  40.748  20.720  13.608
24931W        W96657   7.188  13.091   4.981
24932W        W96658  44.805  14.133  14.346
24933W        W96659  14.958  41.272  11.260
24934W        W96660  27.884   4.071  11.375
24935W        W96661   8.196  35.083  13.282
24936W        W96662  25.196   3.452  14.896
24937W        W96663  17.725  29.657   0.778
24938W        W96664   7.882   1.339  14.644
24939W        W96665  14.363  17.577   2.723
24940W        W96666   6.908   0.183   0.429
24941W        W96667  36.358  33.686   2.640
24942W        W96668  22.163  27.919  12.901
24943W        W96669   0.191  12.218   2.816
24944W        W96670   3.384  40.509   2.331
24945W        W96671  13.441  19.987   2.258
24946W        W96672  35.323  34.575   2.771
24947W        W96673  44.657  43.303  12.997
24948W        W96674  33.588  19.498  12.876
24949W        W96675   4.351   6.358   5.461
24950W        W96676  24.298  13.658  12.586
24951W        W96677  36.716  37.646  11.951
24952W        W96678  13.166  18.614   4.310
24953W        W96679   1.027  26.985   3.991
24954W        W96680  29.931  25.133   3.030
24955W        W96681   8.859  39.254   4.801
24956W        W96682  13.727  30.974   4.844
24957W        W96683  43.680   8.490   1.890
24958W        W96684  21.994  10.392  12.204
24959W        W96685  18.395  32.541  12.446
24960W        W96686  28.922   7.741  12.861
24961W        W96687   2.546  24.400   0.980
24962W        W96688  25.955  29.185   4.583
24963W        W96689   5.734  24.801   2.019
24964W        W96690   8.327   4.708   1.858
24965W        W96691  30.558  22.614   4.277
24966W        W96692  14.087  20.103  10.563
24967W        W96693  17.767  25.962   4.071
24968W        W96694  22.197  18.801   2.707
24969W        W96695   5.240  17.393   0.946
24970W        W96696   2.032  20.635  14.012
24971W        W96697   5.240  15.778   0.653
24972W        W96698   2.013   1.654   1.328
24973W        W96699  11.683  40.590  13.375
24974W        W96700  43.915  36.405  14.011
24975W        W96701  41.860  33.354   4.578
24976W        W96702  13.543   0.779   4.179
24977W        W96703  41.311  10.350  14.352
24978W        W96704  27.092  15.020   0.817
24979W        W96705   8.268  10.280   0.377
24980W        W96706  27.547  22.010   1.424
24981W        W96707  26.220  20.561   4.306
24982W        W96708  34.401  17.045  11.178
24983W        W96709   0.245   2.903   3.261
24984W        W96710  24.200  15.239  13.539
24985W        W96711  44.924   1.045  14.337
24986W        W96712  37.985  19.087  13.971
24987W        W96713   4.456  42.485  10.573
24988W        W96714  30.179  32.496   2.239
24989W        W96715  43.317   6.581   4.523
24990W        W96716  25.976   0.715  14.744
24991W        W96717   2.421  16.054   3.295
24992W        W96718  11.663   7.948   0.508
24993W        W96719  13.903   9.947   4.188
24994W        W96720   5.744   1.364   4.075
24995W        W96721   4.661  18.417   3.457
24996W        W96722  25.653  37.034  11.171
24997W        W96723  17.041  25.142  11.211
24998W        W96724  43.890  43.011   3.721
24999W        W96725   4.853  29.925  13.794
25000W        W96726  16.729  30.868   4.626
25001W        W96727  34.609  35.040  14.773
25002W        W96728  24.777  16.602  14.804
25003W        W96729  25.121   3.981  14.918
25004W        W96730  17.392  43.717  13.566
25005W        W96731  35.125  28.974   0.034
25006W        W96732   0.054  34.877  12.389
25007W        W96733  36.111   1.024  12.108
25008W        W96734   7.648   5.305   4.811
25009W        W96735  38.344  40.058  11.626
25010W        W96736   5.333   7.296   0.537
25011W        W96737  24.112  34.504   2.225
25012W        W96738  36.014  30.251   1.359
25013W        W96739   2.709   0.248   1.924
25014W        W96740  42.375  16.110   4.937
25015W        W96741  41.776  24.153  11.098
25016W        W96742   4.445  15.861  12.367
25017W        W96743  24.440  27.860  12.415
25018W        W96744  39.758  39.837   2.682
25019W        W96745   1.816  11.716   2.198
25020W        W96746  38.388  17.681   1.470
25021W        W96747  38.858  24.587   2.179
25022W        W96748  43.486  10.894  12.469
25023W        W96749  41.518  14.719  11.925
25024W        W96750  26.796  29.041   1.925
25025W        W96751  24.993  22.988  13.373
25026W        W96752   1.353  12.730   0.779
25027W        W96753  28.473  40.443  10.525
25028W        W96754   0.674  29.001   3.773
25029W        W96755  19.379  38.373  13.359
25030W        W96756  24.084  14.174   0.616
25031W        W96757  26.114   9.259  14.798
25032W        W96758  36.408  15.227  14.630
25033W        W96759  31.744   9.449   1.827
25034W        W96760  28.510  37.131  12.383
25035W        W96761  27.938  15.174  13.130
25036W        W96762  38.463  35.103   1.022
25037W        W96763  41.366  33.968  13.420
25038W        W96764  37.273  38.697  14.710
25039W        W96765  31.994  28.945   2.222
25040W        W96766  23.812   5.289  14.890
25041W        W96767  41.853   7.914   1.840
25042W        W96768   8.339  26.090  12.557
25043W        W96769  16.559   5.704   2.320
25044W        W96770   2.215  26.774  13.387
25045W        W96771  22.744  35.407   2.314
25046W        W96772   7.964  30.118   3.705
25047W        W96773  33.576  28.833  11.890
25048W        W96774   1.420  33.603   1.482
25049W        W96775  38.853  44.737   1.311
25050W        W96776  12.431  13.869  13.935
25051W        W96777  13.912  30.045   3.788
25052W        W96778  17.191  20.611  10.654
25053W        W96779  28.028  37.231   3.885
25054W        W96780  22.546  35.859   1.477
25055W        W96781  28.584  20.288   3.278
25056W        W96782  41.851  41.007  12.447
25057W        W96783  36.387  18.751   2.807
25058W        W96784  17.673   7.352   3.312
25059W        W96785  15.856  18.682  13.405
25060W        W96786  18.207   6.566   2.447
25061W        W96787  35.803  14.568  11.135
25062W        W96788   0.816  12.229   3.744
25063W        W96789   1.842  18.767   0.225
25064W        W96790  23.527   7.351   0.544
25065W        W96791  39.752  14.321   4.517
25066W        W96792  20.693   3.922   0.820
25067W        W96793  30.566  26.737  11.037
25068W        W96794  27.097  11.301   0.446
25069W        W96795  17.175  34.698   5.038
25070W        W96796   0.012  24.591   4.678
25071W        W96797  13.292  25.933  14.147
25072W        W96798  29.696   2.228   4.977
25073W        W96799   7.670  24.895  14.284
25074W        W96800  39.165   2.746   5.063
25075W        W96801   2.748  38.211   5.026
25076W        W96802  11.196   1.256   3.451
25077W        W96803  16.097  18.799  13.996
25078W        W96804   8.370  11.720  11.020
25079W        W96805  35.614  29.946   2.057
25080W        W96806   3.912  14.939   3.050
25081W        W96807  31.028   2.123  10.781
25082W        W96808  33.527  26.421  11.593
25083W        W96809  15.322  19.738   4.852
25084W        W96810  16.159  22.133   0.757
25085W        W96811  38.089  13.374   0.483
25086W        W96812  27.882  19.490   0.308
25087W        W96813  27.942  24.670   4.077
25088W        W96814  34.650   1.759  11.007
25089W        W96815   9.222  14.317  11.506
25090W        W96816   4.170  13.773   3.643
25091W        W96817  14.361  12.471   0.804
25092W        W96818  35.320  19.656   1.496
25093W        W96819  14.105  19.235   1.681
25094W        W96820  32.131  15.237   3.517
25095W        W96821  14.142  29.618  12.043
25096W        W96822  21.275  30.836   1.611
25097W        W96823  30.094  11.447   2.300
25098W        W96824   2.223  35.038  14.901
25099W        W96825   5.387  35.473  13.803
25100W        W96826  37.622   7.399   3.164
25101W        W96827  12.623  19.115  12.171
25102W        W96828  41.300  25.667   2.863
25103W        W96829  30.175  43.722  13.561
25104W        W96830  12.956   3.720  11.581
25105W        W96831  41.231  33.444  13.288
25106W        W96832   8.517  30.146   1.668
25107W        W96833   7.696  13.161  11.108
25108W        W96834  35.219  35.475  11.950
25109W        W96835  15.889  24.174  14.805
25110W        W96836  20.598  40.417  13.034
25111W        W96837  10.716  36.192  14.903
25112W        W96838  20.063  13.736  12.175
25113W        W96839  10.866  44.720   0.083
25114W        W96840   8.760  41.486   0.037
25115W        W96841  31.481  39.585   1.684
25116W        W96842  36.118  31.562   3.251
25117W        W96843  23.916  23.794   1.723
25118W        W96844  10.420  35.723  10.782
25119W        W96845  37.589   7.706   1.386
25120W        W96846  30.675  14.050  11.124
25121W        W96847   2.729   6.783   1.220
25122W        W96848  34.897  32.863  13.471
25123W        W96849  31.592  29.380   1.866
25124W        W96850  19.258   7.293  12.943
25125W        W96851  24.191  14.872   5.165
25126W        W96852  38.769  35.425   2.271
25127W        W96853  17.151   1.205  13.582
25128W        W96854  29.099  20.053  10.541
25129W        W96855  19.505  35.703   2.280
25130W        W96856   2.604  18.674  11.097
25131W        W96857  11.818   5.129   2.175
25132W        W96858   6.703  10.657  11.066
25133W        W96859  24.228  42.023  14.978
25134W        W96860  20.563   8.439   3.474
25135W        W96861   2.014  42.768  14.227
25136W        W96862   4.480  14.849  10.662
25137W        W96863  37.263  28.825   4.178
25138W        W96864  42.005  35.485   2.889
25139W        W96865  16.226  16.768  11.480
25140W        W96866  30.543  12.183  14.209
25141W        W96867  41.000  38.190   4.993
25142W        W96868  32.400  14.265   3.686
25143W        W96869  16.858  16.493  14.459
25144W        W96870  13.214  43.276   4.641
25145W        W96871  44.228  30.537  11.020
25146W        W96872  19.047  40.852   0.319
25147W        W96873  31.460   6.173  11.688
25148W        W96874  25.485  34.482   2.288
25149W        W96875  24.457  40.477  14.630
25150W        W96876  31.107   2.368   2.757
25151W        W96877   7.431  41.964  13.508
25152W        W96878  36.015   4.605  14.585
25153W        W96879  24.636  18.010   3.189
25154W        W96880   4.822  28.186   2.889
25155W        W96881  10.359  28.674   2.676
25156W        W96882  31.687  36.559   2.747
25157W        W96883  44.470   0.938  14.944
25158W        W96884  18.489  17.537   2.644
25159W        W96885   4.395  33.386  10.646
25160W        W96886  40.249  37.322  11.363
25161W        W96887  25.180  39.324   1.428
25162W        W96888   4.929  20.456   0.277
25163W        W96889  33.187   0.482   1.871
25164W        W96890  25.754  34.416  11.490
25165W        W96891   0.391   9.856  12.369
25166W        W96892   4.834  38.435   2.195
25167W        W96893  28.770  13.337   0.929
25168W        W96894  20.709  26.215  13.442
25169W        W96895  25.829   5.957   1.205
25170W        W96896   1.375  15.766  13.718
25171W        W96897  21.603  43.467  13.754
25172W        W96898   8.687  30.642  14.995
25173W        W96899  24.254  16.631   0.800
25174W        W96900  12.593  28.694   3.624
25175W        W96901  41.458  30.569   2.291
25176W        W96902  26.606  37.878   1.873
25177W        W96903   3.780  34.319  10.518
25178W        W96904   4.428  34.596   0.326
25179W        W96905  30.968  14.770  13.084
25180W        W96906   8.314  32.943  14.253
25181W        W96907  39.541   9.340  11.180
25182W        W96908  16.803  34.079   1.989
25183W        W96909  26.439  39.649   0.699
25184W        W96910   5.436   1.067  12.732
25185W        W96911  14.716  13.919  11.608
25186W        W96912   4.713  44.775   2.121
25187W        W96913  27.622  34.119  14.783
25188W        W96914  23.235  10.733  14.118
25189W        W96915  25.183  35.408   2.704
25190W        W96916  22.576   6.379  12.325
25191W        W96917   2.265  10.716  11.621
25192W        W96918   6.420  44.135  11.446
25193W        W96919   4.343  14.755   5.243
25194W        W96920  28.504  44.246   1.721
25195W        W96921  11.902  39.625   3.924
25196W        W96922  17.546  23.579  12.438
25197W        W96923  14.589   4.685   2.105
25198W        W96924  20.800  26.696   3.385
25199W        W96925  40.422   6.890  13.981
25200W        W96926  27.008  26.638   3.129
25201W        W96927  24.696  21.697  13.965
25202W        W96928   0.754  42.761   0.224
25203W        W96929  42.235  22.741  10.991
25204W        W96930  28.723  23.587  14.857
25205W        W96931   0.213  24.957   1.404
25206W        W96932  21.497  29.118  11.060
25207W        W96933   0.897   4.038   1.696
25208W        W96934  22.477  22.803  12.505
25209W        W96935   6.729  24.072  13.460
25210W        W96936  17.733  40.895   3.188
25211W        W96937  15.072  22.473  10.934
25212W        W96938  14.715   2.333   2.384
25213W        W96939  27.459  28.475   1.922
25214W        W96940  21.589  40.851   4.442
25215W        W96941  10.833  36.900  11.137
25216W        W96942  44.395  17.108   1.449
25217W        W96943  39.743  42.560  11.175
25218W        W96944   0.841  20.023   1.337
25219W        W96945  38.294  33.559  10.175
25220W        W96946  32.037  17.649  11.582
25221W        W96947   7.316  21.029  13.953
25222W        W96948  22.711  42.754  13.511
25223W        W96949   9.713  42.025  11.535
25224W        W96950  38.149   4.761   4.081
25225W        W96951  24.116  24.240  12.483
25226W        W96952  24.804  24.107   2.928
25227W        W96953   7.554  16.965  12.882
25228W        W96954  37.399  31.070  11.288
25229W        W96955  42.373  41.747  13.620
25230W        W96956  20.008  39.344  12.510
25231W        W96957  13.357  34.090  11.122
25232W        W96958  14.030  26.274   3.615
25233W        W96959  35.455  25.786   3.757
25234W        W96960  34.960  40.619  12.850
25235W        W96961  24.676  42.291  14.885
25236W        W96962  41.876  44.509   3.197
25237W        W96963   2.402  27.292   4.532
25238W        W96964  10.113  24.510  12.446
25239W        W96965  26.254  29.390  11.254
25240W        W96966  19.095  29.706  13.486
25241W        W96967  36.655   7.649   3.704
25242W        W96968  10.356  28.964   4.703
25243W        W96969  34.412  27.590  11.188
25244W        W96970  16.648  34.847   3.515
25245W        W96971  16.277  20.018  12.002
25246W        W96972  13.813  34.761   1.828
25247W        W96973  33.792   0.870  11.487
25248W        W96974  40.994   8.114  10.729
25249W        W96975  10.713  10.807  13.533
25250W        W96976   3.903  43.172   3.218
25251W        W96977  38.928   2.784   3.429
25252W        W96978  32.759  12.113   1.752
25253W        W96979  13.824  34.102  10.686
25254W        W96980  29.832  20.523  11.113
25255W        W96981  23.180  27.815  12.589
25256W        W96982  20.892  30.771   2.900
25257W        W96983  40.987  27.785   3.236
25258W        W96984  11.347  36.372   0.306
25259W        W96985  31.847  22.265   4.201
25260W        W96986  16.192  34.589  14.565
25261W        W96987  28.378  25.095  14.834
25262W        W96988  24.648  42.704   4.089
25263W        W96989   9.298  14.884  12.836
25264W        W96990  40.271  38.047   3.664
25265W        W96991  40.955  21.174  13.107
25266W        W96992  31.650  28.844   1.818
25267W        W96993  26.910  31.559   3.339
25268W        W96994  26.048  43.337   4.684
25269W        W96995  18.804  34.095  13.520
25270W        W96996  11.163  13.324   4.351
25271W        W96997   0.308  29.418  14.609
25272W        W96998   9.649  22.496  12.849
25273W        W96999  27.819  34.465  13.977
25274W        W97000  11.332   0.798   0.366
25275W        W97001  24.916   6.034   0.757
25276W        W97002  25.664  10.322  11.614
25277W        W97003  26.519   8.694  14.259
25278W        W97004  12.358  15.350  13.000
25279W        W97005  27.994  10.824  14.383
25280W        W97006  20.997  41.713  10.884
25281W        W97007  40.171  27.071   4.129
25282W        W97008  28.337   0.942   1.198
25283W        W97009  22.997  16.137  10.438
25284W        W97010  44.755   3.065   2.648
25285W        W97011  14.633  30.643   2.713
25286W        W97012  14.645  35.954  10.805
25287W        W97013  38.108  27.058   4.246
25288W        W97014  16.261   6.362   3.892
25289W        W97015  43.250  36.480  12.739
25290W        W97016  40.881  29.580   4.844
25291W        W97017  30.192  13.661   2.761
25292W        W97018  26.935  29.076  14.000
25293W        W97019  38.521  35.988   0.744
25294W        W97020  39.987   6.924  12.922
25295W        W97021  20.119  36.516   1.507
25296W        W97022  19.292   4.000   0.790
25297W        W97023  29.259  10.280  13.549
25298W        W97024  23.034  10.324   2.875
25299W        W97025   7.385   9.774  11.481
25300W        W97026   9.883   6.834  10.667
25301W        W97027  31.677  32.882  12.381
25302W        W97028  44.029  29.713   3.280
25303W        W97029   6.516  28.954  14.548
25304W        W97030  41.548  18.218  11.497
25305W        W97031  13.665  29.979   0.526
25306W        W97032   8.283  16.348  14.840
25307W        W97033  39.746  12.650  11.222
25308W        W97034  44.045  21.129   4.177
25309W        W97035   2.860  30.236   0.884
25310W        W97036  40.403  26.517  11.166
25311W        W97037  36.945  13.663  11.520
25312W        W97038  31.908   2.912   1.228
25313W        W97039  15.129   9.638   1.552
25314W        W97040  24.691   7.578  10.848
25315W        W97041  13.197   7.241   4.551
25316W        W97042  43.941   9.376   3.689
25317W        W97043  16.307   9.331  14.249
25318W        W97044  41.289  28.759   2.978
25319W        W97045  25.055  28.952   2.175
25320W        W97046  20.421  28.733   1.447
25321W        W97047  24.091  29.967  12.071
25322W        W97048  43.436  39.250  14.470
25323W        W97049  14.258  13.565   4.526
25324W        W97050  43.850  34.376   1.456
25325W        W97051  15.933  40.874   4.605
25326W        W97052   1.293  16.915   4.029
25327W        W97053  32.278  19.739   2.120
25328W        W97054   9.898   4.323  12.039
25329W        W97055  15.782  18.537   3.604
25330W        W97056  34.352  35.048  12.105
25331W        W97057  38.866  22.999  12.269
25332W        W97058  29.499  26.225   3.847
25333W        W97059  17.796  28.515   3.148
25334W        W97060   6.252   6.323   2.267
25335W        W97061  20.474   8.226  12.042
25336W        W97062  18.055  33.910  13.825
25337W        W97063  16.140  37.678  13.799
25338W        W97064  39.544  34.118   4.101
25339W        W97065  44.243   7.178  11.109
25340W        W97066  39.126  18.048   0.122
25341W        W97067  14.755  39.230   3.772
25342W        W97068  20.457  18.991  14.887
25343W        W97069  25.450  27.771  13.043
25344W        W97070  17.275  34.359  11.986
25345W        W97071  18.779   2.183  12.538
25346W        W97072  39.921  23.106  13.184
25347W        W97073   2.790   5.808   1.665
25348W        W97074  42.511  20.295  12.045
25349W        W97075   8.095  32.433   2.509
25350W        W97076   0.395  26.427   0.348
25351W        W97077  22.570  14.326   1.205
25352W        W97078  25.998  24.374  10.561
25353W        W97079  39.948  28.934   0.823
25354W        W97080   5.485  10.220   3.498
25355W        W97081  33.835  14.605  14.862
25356W        W97082  38.469  40.292  11.177
25357W        W97083   9.725  18.211  10.564
25358W        W97084  19.784  38.781   4.321
25359W        W97085   9.291  40.775  10.914
25360W        W97086  33.128  26.016   0.764
25361W        W97087  25.951  31.941   1.351
25362W        W97088  13.786  23.323  12.412
25363W        W97089  24.979  26.234  10.273
25364W        W97090  35.675  15.739   3.710
25365W        W97091  26.531  23.608  11.900
25366W        W97092  10.833  32.943   2.611
25367W        W97093  33.458   4.813   3.336
25368W        W97094  35.320  23.757   1.834
25369W        W97095  25.692  33.760   4.683
25370W        W97096  35.593  42.161   3.532
25371W        W97097  34.988  12.609  13.319
25372W        W97098   3.621  44.820  14.119
25373W        W97099   5.898  38.205   2.269
25374W        W97100  35.594   8.384  13.084
25375W        W97101  39.569  16.184  11.082
25376W        W97102  17.567  38.921   3.304
25377W        W97103   7.822   8.716   0.826
25378W        W97104  40.367  25.933   1.306
25379W        W97105  40.420  15.047  12.483
25380W        W97106   0.908  29.444   2.291
25381W        W97107   3.218  30.677   1.769
25382W        W97108  34.901  17.620  12.676
25383W        W97109  42.506  17.759  12.582
25384W        W97110  12.272  20.623   1.333
25385W        W97111   5.314  25.546   4.652
25386W        W97112  32.335   2.195   1.825
25387W        W97113  25.764  13.402   0.867
25388W        W97114  43.418  17.089  11.232
25389W        W97115  21.197  21.254  10.622
25390W        W97116  13.285  37.403   3.816
25391W        W97117  15.842   6.287   4.591
25392W        W97118  37.195  24.767   4.157
25393W        W97119  15.223   7.393   3.237
25394W        W97120  44.826   6.679   0.155
25395W        W97121  11.960  18.868   2.184
25396W        W97122   3.912   3.267   0.095
25397W        W97123  33.983  22.477  14.405
25398W        W97124   1.304  37.733  12.018
25399W        W97125  42.290  33.069  11.534
25400W        W97126   5.392  17.368  14.627
25401W        W97127  40.733  34.730  12.863
25402W        W97128  41.844  43.296   0.525
25403W        W97129  24.027  32.898  11.024
25404W        W97130  39.625  41.532   0.535
25405W        W97131  41.234  10.794  10.866
25406W        W97132   5.413  18.580  11.169
25407W        W97133  31.957  42.845   3.388
25408W        W97134  24.217  22.772   2.678
25409W        W97135  28.377  23.446   3.277
25410W        W97136   0.464   7.169  12.054
25411W        W97137   9.912  19.755  11.250
25412W        W97138  42.810  35.604  14.765
25413W        W97139  23.290  38.397   2.812
25414W        W97140  23.657  33.239   5.004
25415W        W97141  31.264  13.778   4.214
25416W        W97142  10.641  12.707   0.318
25417W        W97143  29.739  28.227   2.435
25418W        W97144  38.648   3.994   4.187
25419W        W97145  17.155  23.603  10.573
25420W        W97146  38.512  30.633  13.817
25421W        W97147  35.131  22.038   4.315
25422W        W97148  41.359   3.728   4.633
25423W        W97149  37.014  16.538   0.397
25424W        W97150  21.028  34.030  12.847
25425W        W97151  39.503  34.533  12.908
25426W        W97152  34.429  12.100   4.884
25427W        W97153  38.439  31.164  12.103
25428W        W97154  26.663   7.571  12.797
25429W        W97155  34.096  14.789   1.251
25430W        W97156  39.200  26.060   3.131
25431W        W97157  15.653  16.993   2.944
25432W        W97158  19.589  35.456  14.164
25433W        W97159   9.610   1.010   3.166
25434W        W97160  21.640  27.408  11.881
25435W        W97161  19.625  22.629  10.725
25436W        W97162   7.247   8.409  11.245
25437W        W97163  41.973  30.987   0.781
25438W        W97164  30.584  37.749   4.280
25439W        W97165   3.847   3.229  14.578
25440W        W97166  36.552  34.077   0.353
25441W        W97167   5.273  30.101   1.552
25442W        W97168   1.409  14.540  10.639
25443W        W97169   9.190  23.439   3.471
25444W        W97170  19.611  41.771  12.444
25445W        W97171  34.315  39.030   4.796
25446W        W97172  34.881  17.593   0.014
25447W        W97173  40.293   3.768  13.995
25448W        W97174  39.787  13.548  12.365
25449W        W97175  28.219   5.543   0.697
25450W        W97176  13.070  35.046  12.929
25451W        W97177   8.720  37.425   2.369
25452W        W97178  40.937   0.767  13.341
25453W        W97179   6.185  39.609  11.381
25454W        W97180  20.573  43.872   0.577
25455W        W97181  13.034  32.503   1.499
25456W        W97182   5.659  41.123  13.505
25457W        W97183  41.130  42.353   3.188
25458W        W97184  17.308   6.838   4.627
25459W        W97185   9.747  17.014   3.309
25460W        W97186   3.601  31.941  12.443
25461W        W97187   4.344   0.925   2.141
25462W        W97188  27.013  29.400  10.651
25463W        W97189  41.344   7.315   4.696
25464W        W97190  19.551  32.444  14.344
25465W        W97191   9.383  36.050  11.565
25466W        W97192  41.958   6.186  13.342
25467W        W97193  44.641  42.400   2.030
25468W        W97194   8.442  20.589   0.513
25469W        W97195  39.420  24.641  10.667
25470W        W97196  32.023  39.328   0.980
25471W        W97197  20.508   0.759  12.211
25472W        W97198  17.386  37.028  12.058
25473W        W97199  44.038  23.990  10.864
25474W        W97200  37.479  35.530  10.488
25475W        W97201  30.962  35.140  14.936
25476W        W97202  38.644  32.580   3.343
25477W        W97203  13.845  41.786  11.195
25478W        W97204  11.663   5.943  10.737
25479W        W97205  38.472  21.722  11.561
25480W        W97206  26.272  10.384  13.457
25481W        W97207   1.251   7.611  12.018
25482W        W97208  18.251  24.119   4.346
25483W        W97209   6.311  35.082   4.576
25484W        W97210  15.613  43.002  13.070
25485W        W97211  22.292  25.968   4.954
25486W        W97212  27.906  31.808  11.687
25487W        W97213   1.899  39.117   2.208
25488W        W97214  41.219  21.650   2.893
25489W        W97215  40.364  29.206  13.879
25490W        W97216  18.676  40.656   1.338
25491W        W97217   9.794  33.454  11.027
25492W        W97218  26.843  10.837  11.829
25493W        W97219  33.338  32.341  12.069
25494W        W97220  32.167  39.810  13.827
25495W        W97221  17.515  26.617  11.150
25496W        W97222  35.198  42.917  12.399
25497W        W97223  32.982  20.824  11.130
25498W        W97224   4.824  25.264  13.796
25499W        W97225  24.576   8.435   4.246
25500W        W97226  32.038  29.178  12.981
25501W        W97227  27.169   0.042   5.068
25502W        W97228   4.424   8.703  10.697
25503W        W97229  38.374  35.637   1.078
25504W        W97230  33.124   6.162  13.818
25505W        W97231  22.987  24.519   0.842
25506W        W97232   4.808  38.280  13.053
25507W        W97233  27.864  24.784  11.378
25508W        W97234  28.486  27.153   0.632
25509W        W97235  13.765  19.034  14.432
25510W        W97236  38.811  32.453  12.923
25511W        W97237  19.039  13.552  14.914
25512W        W97238   3.382  31.513  14.973
25513W        W97239  36.396   0.213   2.348
25514W        W97240  17.553  44.809   1.444
25515W        W97241   1.272   4.725  13.746
25516W        W97242   2.056  14.142  12.580
25517W        W97243   3.777  11.683  12.901
25518W        W97244   4.171  30.988  11.561
25519W        W97245  29.920  35.099  13.976
25520W        W97246  40.115  21.204  12.973
25521W        W97247  31.445  14.799   2.335
25522W        W97248   1.739   3.814  10.682
25523W        W97249  42.822  37.893  13.085
25524W        W97250   7.946  28.727  10.932
25525W        W97251   4.226  12.303   4.903
25526W        W97252   2.345   5.073   1.944
25527W        W97253  22.936  41.816  14.001
25528W        W97254  19.129  33.648   4.941
25529W        W97255  25.090  25.578  13.431
25530W        W97256   0.945  17.497  14.777
25531W        W97257  33.249  12.906  11.088
25532W        W97258  29.538  20.238   3.250
25533W        W97259  25.449  18.192   4.592
25534W        W97260  42.351  18.557   4.755
25535W        W97261   9.817  32.886   5.085
25536W        W97262  16.597  37.937  13.870
25537W        W97263  18.226  41.432   2.577
25538W        W97264  12.682  34.568   1.021
25539W        W97265  18.219   7.726   2.927
25540W        W97266  33.337  11.247   0.413
25541W        W97267  21.627  21.613   3.232
25542W        W97268  21.793  18.247  14.431
25543W        W97269  13.723  15.757  14.351
25544W        W97270  26.983   5.388   0.411
25545W        W97271  12.026   7.182  14.446
25546W        W97272  16.685  23.468  14.713
25547W        W97273  25.693   4.003  13.989
25548W        W97274  33.608  20.736  12.589
25549W        W97275   7.961  42.536  12.046
25550W        W97276  43.404  38.110  13.476
25551W        W97277  17.343  17.262   0.230
25552W        W97278   3.398  41.337   1.472
25553W        W97279  32.722  30.052   2.225
25554W        W97280  25.957   3.144   2.979
25555W        W97281  37.502  11.346  14.902
25556W        W97282  25.128  29.498   4.597
25557W        W97283  41.880  24.765  14.257
25558W        W97284  16.330  43.110   4.200
25559W        W97285  39.376  10.330   0.555
25560W        W97286  40.980  25.650  13.519
25561W        W97287  29.748   8.339   3.220
25562W        W97288   7.900  18.281   1.371
25563W        W97289  37.360  23.641   3.809
25564W        W97290  13.201  19.299   0.344
25565W        W97291  35.394  43.861   4.095
25566W        W97292  38.133  31.062  13.535
25567W        W97293  10.902  36.288  10.722
25568W        W97294   5.853  10.367  13.873
25569W        W97295   7.276  28.487  11.603
25570W        W97296  29.246  24.378   0.993
25571W        W97297   6.420   3.260  10.348
25572W        W97298  16.948  18.056  13.881
25573W        W97299  29.686  25.243  11.629
25574W        W97300  44.079   5.269  13.013
25575W        W97301  33.079  21.640   2.239
25576W        W97302  37.972  38.789  15.000
25577W        W97303  15.683   8.817   1.775
25578W        W97304  36.071   4.205  10.434
25579W        W97305  41.121   0.779   2.728
25580W        W97306  25.901   4.213  11.589
25581W        W97307  31.143  19.369   3.980
25582W        W97308  21.615  31.259   4.854
25583W        W97309  42.910  38.365   0.917
25584W        W97310  31.099  25.887  10.889
25585W        W97311  13.405  15.093   0.545
25586W        W97312  16.152  36.478  11.924
25587W        W97313  17.774  23.671   2.685
25588W        W97314  10.410  19.794  11.396
25589W        W97315  17.681  38.434   2.196
25590W        W97316   7.318  18.488  14.754
25591W        W97317  21.938   2.724  12.644
25592W        W97318  41.019  32.984  13.432
25593W        W97319   4.491  37.052   0.496
25594W        W97320  31.578  26.242  14.420
25595W        W97321  25.163  14.917   0.052
25596W        W97322   4.430  29.672   1.315
25597W        W97323  40.789  35.427   4.063
25598W        W97324  19.112  39.424  12.280
25599W        W97325  18.258  16.937  10.782
25600W        W97326  16.351  43.999   3.910
25601W        W97327  15.045  10.535   1.730
25602W        W97328   3.209   4.853   3.730
25603W        W97329  36.058  15.273  13.770
25604W        W97330  19.979  26.607   2.140
25605W        W97331  31.628   2.231   2.601
25606W        W97332  38.372  18.935  12.924
25607W        W97333  12.563  39.326   3.198
25608W        W97334  24.050   5.682  12.930
25609W        W97335  23.946   3.046   2.825
25610W        W97336   4.415  18.066   1.729
25611W        W97337  42.830  34.942  10.969
25612W        W97338  17.008   3.232   3.039
25613W        W97339  22.498  17.303  10.167
25614W        W97340  13.113  30.418   2.314
25615W        W97341  33.891   1.236  10.596
25616W        W97342  27.172  40.856   0.784
25617W        W97343  40.612  44.591   0.714
25618W        W97344  34.913  36.634   1.931
25619W        W97345   2.152  15.325   1.271
25620W        W97346   8.665  13.653  13.021
25621W        W97347  42.782  36.148   3.380
25622W        W97348  42.945   3.926  13.729
25623W        W97349   0.260  14.825  11.204
25624W        W97350   1.104  32.012   3.389
25625W        W97351  35.989  22.976   1.734
25626W        W97352  25.945  25.453   1.680
25627W        W97353  39.304   6.723  14.923
25628W        W97354   6.798   5.735   1.485
25629W        W97355  15.867  37.101  14.423
25630W        W97356   3.304  37.330  13.855
25631W        W97357   4.964   1.215   2.772
25632W        W97358  11.434  23.212  14.334
25633W        W97359  25.753   1.412   4.117
25634W        W97360  37.028  32.428  12.376
25635W        W97361  20.781   0.209   3.205
25636W        W97362  11.228  11.261  10.371
25637W        W97363  32.078  27.511   1.801
25638W        W97364  32.758  28.426   3.391
25639W        W97365  35.500   9.086  12.587
25640W        W97366  15.259  39.360  11.942
25641W        W97367  43.378  27.471  14.106
25642W        W97368  15.563  33.516   4.550
25643W        W97369  33.933  34.410   3.760
25644W        W97370   7.700  43.866  14.757
25645W        W97371  37.986   4.452   3.682
25646W        W97372  44.489  28.199  11.953
25647W        W97373  41.093  38.377  14.635
25648W        W97374  40.774  33.491  14.085
25649W        W97375  15.837  34.938  11.110
25650W        W97376  32.680  43.501  13.578
25651W        W97377   1.742  34.801   4.810
25652W        W97378  23.187   2.995  12.970
25653W        W97379  33.386  14.698  11.254
25654W        W97380   4.915  19.137  10.638
25655W        W97381   9.791  17.540  14.311
25656W        W97382  27.645  10.686   3.623
25657W        W97383   8.388  39.643  12.311
25658W        W97384  26.996  41.751  10.644
25659W        W97385   4.742  27.164   4.552
25660W        W97386  30.854  39.186   4.768
25661W        W97387   2.834  44.658   4.171
25662W        W97388   7.348   3.142  13.011
25663W        W97389  35.816  21.455   2.013
25664W        W97390  38.023  10.874   3.711
25665W        W97391  12.599  33.637  11.074
25666W        W97392   3.404  34.418   3.700
25667W        W97393   1.206   3.937  12.545
25668W        W97394  20.171  10.323  14.727
25669W        W97395   3.445   8.457  12.206
25670W        W97396  27.571  33.614  10.587
25671W        W97397   2.906  44.817   4.664
25672W        W97398  39.921   3.976   3.771
25673W        W97399  33.829  10.422   0.552
25674W        W97400  40.739  20.270  11.763
25675W        W97401   2.607   0.763   0.269
25676W        W97402  32.439   8.200   4.674
25677W        W97403  44.329   8.772   4.661
25678W        W97404  43.434  34.973  14.444
25679W        W97405  32.344  15.828  12.983
25680W        W97406  27.648  40.086   4.299
25681W        W97407   1.461  40.422   4.395
25682W        W97408   8.538  34.775  13.541
25683W        W97409  10.235  18.154  10.767
25684W        W97410   8.581  32.524  13.426
25685W        W97411  11.159  26.021   1.782
25686W        W97412  36.811   2.086   2.707
25687W        W97413  18.270   6.317  13.878
25688W        W97414  23.029   6.310  12.039
25689W        W97415  36.314  40.058   1.850
25690W        W97416  41.646   7.730   3.631
25691W        W97417  10.749   5.784  10.529
25692W        W97418   4.460  10.679   1.513
25693W        W97419  20.516  17.032  11.573
25694W        W97420  26.435  21.886  12.534
25695W        W97421  22.993   3.469   3.608
25696W        W97422  41.622  22.933   4.219
25697W        W97423  18.904  27.128   0.642
25698W        W97424  39.478  21.611  11.596
25699W        W97425  16.346  33.998   4.489
25700W        W97426  23.069   0.289   4.403
25701W        W97427  31.379  10.322  12.834
25702W        W97428  31.951  38.428  12.267
25703W        W97429   5.645  13.311   1.305
25704W        W97430  18.218  34.650   0.936
25705W        W97431  18.805  21.427   0.435
25706W        W97432   9.159  16.393  11.038
25707W        W97433  40.964  26.925  14.751
25708W        W97434  36.512  42.556   2.844
25709W        W97435  17.347  33.846   2.431
25710W        W97436  32.102  44.405   3.569
25711W        W97437  34.668   9.208   4.632
25712W        W97438  29.908  25.029  14.808
25713W        W97439  20.095  18.098  11.251
25714W        W97440  12.371  17.440   2.917
25715W        W97441   1.474   0.208   4.220
25716W        W97442   1.808  42.095  12.081
25717W        W97443  34.808  38.872   0.757
25718W        W97444  18.821  42.510  12.427
25719W        W97445  32.771   7.295  14.350
25720W        W97446  12.899  29.693  14.511
25721W        W97447  26.094  36.333   3.661
25722W        W97448   6.408  24.614   2.807
25723W        W97449  18.261   5.196   1.806
25724W        W97450  24.227  34.010   2.369
25725W        W97451   4.894  16.220   5.627
25726W        W97452  16.252  39.559  13.045
25727W        W97453   9.235  39.977   3.320
25728W        W97454  17.305  24.941   0.633
25729W        W97455  37.695  17.596  14.372
25730W        W97456  29.554   1.527  12.031
25731W        W97457  40.314  39.341   1.222
25732W        W97458  11.212  24.744   3.596
25733W        W97459  33.943   9.481  12.302
25734W        W97460  41.887  23.725   0.530
25735W        W97461  20.484  39.844   2.180
25736W        W97462  42.317  18.223   1.959
25737W        W97463  39.896   3.948   0.405
25738W        W97464  26.757  35.092   4.058
25739W        W97465  33.698   6.767   2.788
25740W        W97466  13.770  39.303  14.311
25741W        W97467  11.654  32.202   1.451
25742W        W97468   0.972   0.445  13.096
25743W        W97469  37.342   9.384  10.320
25744W        W97470  24.074  15.816  11.107
25745W        W97471  21.529  10.662  11.049
25746W        W97472   5.723  24.502   0.846
25747W        W97473   7.330  10.230  14.039
25748W        W97474  41.846  38.342   4.891
25749W        W97475  14.632  20.209  13.392
25750W        W97476  33.691  36.954  14.782
25751W        W97477  17.705   2.064  14.380
25752W        W97478  24.254  16.776   1.685
25753W        W97479  37.514  42.397   2.758
25754W        W97480   6.024  40.479  14.854
25755W        W97481   8.380   4.821   4.635
25756W        W97482   7.258  16.663  10.731
25757W        W97483  27.913   7.683  12.029
25758W        W97484   6.327  16.936   1.647
25759W        W97485  24.653  14.077   1.329
25760W        W97486   1.201   7.951   3.203
25761W        W97487   1.103  20.983   1.168
25762W        W97488  38.836   4.878  10.677
25763W        W97489  26.799  11.099  11.003
25764W        W97490  25.426  41.417   5.089
25765W        W97491   3.510  11.692  14.324
25766W        W97492   7.888  38.914   0.787
25767W        W97493  34.467  38.487   0.863
25768W        W97494  18.011  42.414  11.440
25769W        W97495   2.448  39.848   1.202
25770W        W97496  44.896  29.429  13.838
25771W        W97497  25.088   2.961  14.855
25772W        W97498   2.725  28.880   2.093
25773W        W97499  18.133   4.291  11.084
25774W        W97500  26.694  27.189   2.240
25775W        W97501  26.165  31.983   3.392
25776W        W97502   2.980  15.197   3.173
25777W        W97503  22.161  11.325   2.278
25778W        W97504  42.797  44.547  10.719
25779W        W97505  36.790  28.050  12.117
25780W        W97506   4.744  34.809   4.659
25781W        W97507   2.802   0.469   3.884
25782W        W97508  18.828  13.109  11.618
25783W        W97509  13.172  23.499   1.157
25784W        W97510  26.150   2.672  11.578
25785W        W97511  23.077  33.919  12.837
25786W        W97512  21.194  25.011   3.949
25787W        W97513  23.625  24.228   1.820
25788W        W97514  34.019  24.087   4.223
25789W        W97515  42.014  31.394   2.292
25790W        W97516  38.118   6.913  12.844
25791W        W97517  20.798  43.920   4.396
25792W        W97518   2.902  16.563  13.628
25793W        W97519  39.345  17.692  13.364
25794W        W97520  28.696  31.209  14.313
25795W        W97521   7.455  20.149  11.464
25796W        W97522  25.464  23.113   2.120
25797W        W97523  18.954  32.232   3.624
25798W        W97524   9.201   3.270  12.177
25799W        W97525  12.125  31.582   0.798
25800W        W97526  37.256  24.683  11.038
25801W        W97527  26.989  44.852  11.028
25802W        W97528  21.682  27.947  13.499
25803W        W97529   2.219   2.764  11.253
25804W        W97530   0.215   9.207   4.602
25805W        W97531  20.576  35.549   2.249
25806W        W97532  35.808  38.903  14.324
25807W        W97533   5.164  41.319   3.237
25808W        W97534  10.734   4.524  14.354
25809W        W97535   8.237  19.176  11.223
25810W        W97536  20.841  32.187   3.880
25811W        W97537  14.770  22.313  12.704
25812W        W97538  40.092  30.487  14.999
25813W        W97539  26.017   3.709  11.549
25814W        W97540  25.551   1.675   0.235
25815W        W97541  22.298  40.817  10.731
25816W        W97542  31.832  41.326   3.309
25817W        W97543  30.869  13.183  12.013
25818W        W97544  16.214  34.116  14.273
25819W        W97545  15.072  44.375  14.276
25820W        W97546  17.177  30.024   4.692
25821W        W97547   6.916  44.848   4.667
25822W        W97548  10.164  33.553   3.614
25823W        W97549  11.743   6.810  11.570
25824W        W97550  36.517   1.257  14.406
25825W        W97551   4.750  40.319  13.063
25826W        W97552  18.786   5.807  12.615
25827W        W97553  36.046  41.447  10.718
25828W        W97554  16.431  26.918  14.854
25829W        W97555  16.360  26.905   4.292
25830W        W97556  23.530  18.828  11.562
25831W        W97557  15.512  16.744   2.520
25832W        W97558  32.434  17.645  12.915
25833W        W97559  42.718  39.133   0.217
25834W        W97560  16.296   2.199  12.411
25835W        W97561   2.206   8.906   5.126
25836W        W97562  16.175   1.256   2.686
25837W        W97563   6.145  18.043  13.357
25838W        W97564  10.599   7.100  12.519
25839W        W97565  19.022  31.064   1.829
25840W        W97566   8.952  20.325   3.669
25841W        W97567  23.083  17.604  13.885
25842W        W97568   3.584  25.670  14.516
25843W        W97569  30.091  28.483  10.866
25844W        W97570  25.197  28.263  12.000
25845W        W97571  23.709  10.384  12.555
25846W        W97572  39.557  26.198   2.302
25847W        W97573  11.840   6.597   4.139
25848W        W97574  42.514  38.110   0.271
25849W        W97575  12.205  41.352  10.625
25850W        W97576  13.008  27.425   2.912
25851W        W97577  36.632   2.927   0.913
25852W        W97578  34.636  24.909  12.321
25853W        W97579  31.935   5.881   0.525
25854W        W97580  29.907   1.736   4.971
25855W        W97581  42.496  11.700  10.982
25856W        W97582   8.208  36.091  13.552
25857W        W97583  36.785  24.255   2.704
25858W        W97584  31.831  22.130   1.101
25859W        W97585  26.201  25.643  11.544
25860W        W97586   8.410  17.991   3.092
25861W        W97587  22.247  27.673  12.440
25862W        W97588   9.582  25.220   1.027
25863W        W97589  22.213   7.384   4.399
25864W        W97590  19.801   7.858   1.044
25865W        W97591  28.602  37.679  12.218
25866W        W97592  41.010  30.855   4.565
25867W        W97593   2.997  21.300   0.425
25868W        W97594  29.633  34.664  14.473
25869W        W97595   7.877  41.346  10.665
25870W        W97596  39.408  40.506  10.783
25871W        W97597  38.001  10.644   1.754
25872W        W97598  43.719  32.112  12.989
25873W        W97599  37.423  13.776  12.934
25874W        W97600   2.022  34.581   3.246
25875W        W97601   4.535  25.063   4.170
25876W        W97602   4.700  20.997  10.606
25877W        W97603   3.464  42.476   3.910
25878W        W97604  11.420  29.219  11.559
25879W        W97605  25.420  22.019  11.172
25880W        W97606  27.941  11.335  14.500
25881W        W97607   2.450  39.260  10.489
25882W        W97608   3.537  13.149  12.920
25883W        W97609  25.607   1.922  11.674
25884W        W97610   6.429   6.755   3.853
25885W        W97611  15.645  33.714  13.896
25886W        W97612  10.070  31.707   2.379
25887W        W97613  34.298  23.760   2.006
25888W        W97614  29.684  15.111  13.729
25889W        W97615  14.353  13.811   1.874
25890W        W97616  41.345   5.414   0.087
25891W        W97617  25.086  19.663  14.524
25892W        W97618   8.289  21.768  10.611
25893W        W97619  12.441   3.847  11.588
25894W        W97620   7.152  22.677   1.840
25895W        W97621  24.842  44.498   2.260
25896W        W97622  32.037  29.465   4.107
25897W        W97623  24.631   1.210  14.753
25898W        W97624  11.919   2.955   1.813
25899W        W97625  29.145  15.982   4.188
25900W        W97626  39.204  12.562   1.361
25901W        W97627  24.727  33.422   0.002
25902W        W97628   4.825  34.599   0.789
25903W        W97629  44.382  28.994   1.975
25904W        W97630  35.014   0.912   4.492
25905W        W97631  26.034  16.586  11.484
25906W        W97632   3.469  28.166  13.495
25907W        W97633  33.052  37.888  10.400
25908W        W97634  20.550   0.212   0.783
25909W        W97635  13.140  19.039   0.806
25910W        W97636  29.920   2.428  12.959
25911W        W97637  33.220  18.736   1.998
25912W        W97638  11.237  15.780  12.550
25913W        W97639  13.783  28.974   1.748
25914W        W97640  42.866  16.007   3.807
25915W        W97641  30.191  23.483  12.935
25916W        W97642  24.609  16.154  10.817
25917W        W97643  31.046  33.430  10.653
25918W        W97644  30.933   5.163  13.845
25919W        W97645   4.154  23.981   4.301
25920W        W97646   8.189   5.868   0.890
25921W        W97647  34.132  26.233   4.229
25922W        W97648  25.292  38.205   3.074
25923W        W97649  31.938  29.302  10.140
25924W        W97650  28.477  20.131  14.719
25925W        W97651  11.405  27.524   3.712
25926W        W97652  43.489   5.822   1.616
25927W        W97653  30.826  35.510   3.085
25928W        W97654  32.592  37.001   4.338
25929W        W97655  39.310  25.408   1.487
25930W        W97656  18.196  43.754   3.742
25931W        W97657  35.225  22.283  11.066
25932W        W97658  15.784  25.093   0.077
25933W        W97659  24.407  36.900   4.289
25934W        W97660   3.446   8.885   0.793
25935W        W97661  10.912  35.068   0.829
25936W        W97662  43.465  31.708  12.268
25937W        W97663  15.561  33.870  13.425
25938W        W97664  20.540  25.628   3.715
25939W        W97665  36.973  12.662   1.719
25940W        W97666  25.530  18.052   1.462
25941W        W97667  24.019   9.930   4.165
25942W        W97668  30.843  42.425   4.142
25943W        W97669  29.368   0.961  13.587
25944W        W97670  24.816   0.303   2.164
25945W        W97671  29.860  27.062   1.311
25946W        W97672  35.155   9.792  13.791
25947W        W97673  28.456  25.192   0.776
25948W        W97674  31.096   4.218   1.708
25949W        W97675  43.515  21.628  14.788
25950W        W97676   6.947  16.360   5.470
25951W        W97677  43.981  24.619  13.841
25952W        W97678  44.498   1.586   2.232
25953W        W97679  44.976  17.741   4.522
25954W        W97680   8.421  42.299  11.632
25955W        W97681  29.363   6.914  12.483
25956W        W97682  21.137  14.905  13.891
25957W        W97683  31.061  40.257   4.134
25958W        W97684   6.668  33.259  12.600
25959W        W97685  13.114  19.235   2.850
25960W        W97686  19.713  18.934   2.601
25961W        W97687  42.358  40.729  13.519
25962W        W97688  20.026  22.817  11.395
25963W        W97689  33.929  42.193  13.575
25964W        W97690  19.503   2.978   0.888
25965W        W97691  42.998  36.562   1.361
25966W        W97692  23.197  14.149  13.975
25967W        W97693  14.032  30.540  14.442
25968W        W97694  43.196   5.886  11.121
25969W        W97695  26.021  37.846  11.448
25970W        W97696  43.655  23.461  13.493
25971W        W97697  27.584  13.877  13.620
25972W        W97698   0.892  41.161  14.383
25973W        W97699  24.055   7.454   0.753
25974W        W97700  17.752   2.269  11.528
25975W        W97701  13.280  42.362  12.112
25976W        W97702  29.117  42.780   2.941
25977W        W97703   9.470  44.661   2.179
25978W        W97704  35.924   5.252   1.715
25979W        W97705   8.432  28.533  12.497
25980W        W97706   3.298  30.987  13.920
25981W        W97707   1.354  35.503  14.396
25982W        W97708  33.438  20.998  14.787
25983W        W97709   8.625  40.046   2.821
25984W        W97710   3.654  33.323   1.605
25985W        W97711  28.493  34.595   1.778
25986W        W97712  35.974   9.527  11.645
25987W        W97713  13.116   8.885   3.841
25988W        W97714   5.150  18.126   0.436
25989W        W97715  22.785  19.763  12.101
25990W        W97716  25.702  38.769  10.757
25991W        W97717   2.826  25.784   1.364
25992W        W97718  39.168  34.769   1.538
25993W        W97719   0.018  15.874   1.259
25994W        W97720   9.760  16.754  13.784
25995W        W97721  11.645  34.163  12.531
25996W        W97722  16.094   2.972  14.941
25997W        W97723  26.606  10.201  11.935
25998W        W97724   1.945  10.666   4.586
25999W        W97725  33.101   4.012   0.843
26000W        W97726   8.026   6.668   4.493
26001W        W97727   9.922  41.867   3.241
26002W        W97728   9.670  22.084  12.043
26003W        W97729  15.745   7.466   3.066
26004W        W97730  15.338  19.656  13.102
26005W        W97731  44.376   6.309  14.082
26006W        W97732  32.692  20.413  14.404
26007W        W97733  11.391  15.129   0.234
26008W        W97734  33.552  26.013  13.913
26009W        W97735   5.140  35.207   3.736
26010W        W97736  30.140  30.690   2.375
26011W        W97737  15.409  38.486  12.029
26012W        W97738  29.743  44.948   3.040
26013W        W97739  18.625  19.106   0.021
26014W        W97740   8.380  42.815  14.311
26015W        W97741  25.968  17.788   2.329
26016W        W97742  40.342   7.851   1.873
26017W        W97743  10.621  15.623   4.499
26018W        W97744  33.165   3.088   3.129
26019W        W97745   3.313  15.491   4.018
26020W        W97746   7.816  37.898   0.818
26021W        W97747  42.017  20.577  13.967
26022W        W97748  20.787  22.390  12.903
26023W        W97749  37.865  43.933   1.718
26024W        W97750   7.406  38.244   0.725
26025W        W97751   3.327   9.312   3.025
26026W        W97752  21.099  20.322   3.312
26027W        W97753   8.444  20.260   1.372
26028W        W97754   0.360  44.602   1.020
26029W        W97755  19.527  33.903  13.629
26030W        W97756  42.831  18.021  14.678
26031W        W97757  28.676  18.323  13.422
26032W        W97758  30.596  24.922  13.347
26033W        W97759  22.226  18.091  10.642
26034W        W97760   1.427  38.501  12.298
26035W        W97761  44.772  27.610  12.109
26036W        W97762  23.742  32.397  13.042
26037W        W97763  21.946   9.228   1.457
26038W        W97764  35.742  22.248  11.138
26039W        W97765  36.555   1.791  14.918
26040W        W97766  17.466  13.160  13.507
26041W        W97767  12.173  32.989  11.653
26042W        W97768  30.239  41.787  10.763
26043W        W97769  27.791  42.158   0.405
26044W        W97770  26.572   4.937  10.645
26045W        W97771  42.868  18.147  11.862
26046W        W97772  26.184  23.628   4.629
26047W        W97773  38.609   1.408   1.853
26048W        W97774   0.110   0.723  12.825
26049W        W97775  25.970  35.526   4.677
26050W        W97776  21.021  11.429   1.910
26051W        W97777  19.436   1.183   4.057
26052W        W97778  38.070   1.249   0.281
26053W        W97779  38.492  26.132  14.479
26054W        W97780  36.393   7.475  12.607
26055W        W97781  34.862  43.348   2.859
26056W        W97782  29.818  26.639   0.372
26057W        W97783  30.944  13.378   0.186
26058W        W97784  17.020  28.023  10.600
26059W        W97785  25.968  18.480  10.965
26060W        W97786  38.516  24.739  14.380
26061W        W97787  37.135  27.233   3.708
26062W        W97788  36.688  29.044  13.584
26063W        W97789  34.320  39.083  11.861
26064W        W97790  22.410   8.928  10.845
26065W        W97791  18.633  43.972   0.770
26066W        W97792   6.554  14.170   4.192
26067W        W97793  18.564  25.429   1.867
26068W        W97794  40.751  17.034  12.437
26069W        W97795  12.654  43.865  14.440
26070W        W97796  13.710  35.519  11.286
26071W        W97797   1.091  28.183  13.439
26072W        W97798  39.953  23.240   1.317
26073W        W97799  24.161  32.334  13.350
26074W        W97800  17.615  19.764   1.972
26075W        W97801   5.431   5.567  11.498
26076W        W97802  26.553   1.391   0.465
26077W        W97803  13.417  22.550  13.474
26078W        W97804   7.483  16.093  14.027
26079W        W97805  35.343  12.149   3.765
26080W        W97806  20.082  21.488   2.932
26081W        W97807  10.894  27.328  11.689
26082W        W97808  38.487   0.695   3.289
26083W        W97809  25.083  28.441   0.782
26084W        W97810  37.541  19.147  14.522
26085W        W97811  21.729   4.039  12.627
26086W        W97812  39.281  25.522   0.949
26087W        W97813   2.188  20.747   2.518
26088W        W97814   8.776  35.370   3.762
26089W        W97815  14.214  11.808  11.224
26090W        W97816   9.685  19.759  14.240
26091W        W97817  17.173  11.365   1.799
26092W        W97818  11.706  34.675   1.762
26093W        W97819   5.513   2.239  13.583
26094W        W97820  24.990  42.364   0.980
26095W        W97821  20.661   1.470  10.949
26096W        W97822   2.780  38.569  10.661
26097W        W97823  32.814   7.233  11.912
26098W        W97824  26.881   8.890   2.400
26099W        W97825   4.552   3.378   2.330
26100W        W97826  40.737  19.853  14.059
26101W        W97827  31.684  41.354  11.675
26102W        W97828  14.836  15.144   1.156
26103W        W97829  34.654  37.293   1.202
26104W        W97830  40.554  32.113   1.714
26105W        W97831  28.706  11.820   4.084
26106W        W97832  32.444  29.581  13.256
26107W        W97833   8.379  22.388   1.853
26108W        W97834  33.871   0.496   3.071
26109W        W97835  33.641   9.810  12.577
26110W        W97836   3.349  28.022   2.420
26111W        W97837  22.310  20.584  12.486
26112W        W97838  12.830  19.673   2.645
26113W        W97839   1.732  20.807  12.142
26114W        W97840   5.378  36.238  14.322
26115W        W97841  32.997  34.136  14.947
26116W        W97842  41.070   1.881  13.441
26117W        W97843  31.430  33.073   4.129
26118W        W97844  42.888  32.131   2.622
26119W        W97845   0.424  37.309  11.550
26120W        W97846  17.745  15.086   3.214
26121W        W97847  17.240  12.978   0.226
26122W        W97848   7.523  17.475   2.269
26123W        W97849   1.865  12.411  12.056
26124W        W97850   7.859   2.416  10.695
26125W        W97851  31.576   7.329  14.964
26126W        W97852  42.261  25.143  12.383
26127W        W97853  33.898   4.177   2.851
26128W        W97854  14.092  25.984  11.196
26129W        W97855   9.573  39.495   0.348
26130W        W97856  29.887  19.754  12.231
26131W        W97857  24.025  40.364  10.303
26132W        W97858  26.256  10.148   0.412
26133W        W97859  26.461   5.272   1.313
26134W        W97860   9.672  19.024  13.080
26135W        W97861  23.780  44.748  11.733
26136W        W97862  22.712  36.730  13.602
26137W        W97863  40.264  43.769  13.806
26138W        W97864   9.724  29.695   4.581
26139W        W97865  23.184  18.688   2.900
26140W        W97866  41.456   5.818   0.420
26141W        W97867  27.173   1.472   2.308
26142W        W97868  18.562  41.071   3.743
26143W        W97869  44.445  44.224  13.915
26144W        W97870  27.590  23.892   3.733
26145W        W97871  10.264  25.788   2.045
26146W        W97872  13.478  26.034   0.583
26147W        W97873  15.734  33.205  13.831
26148W        W97874  19.658  10.436   4.017
26149W        W97875  43.759  26.786  11.956
26150W        W97876  23.266  40.346   0.441
26151W        W97877   0.525  26.669   1.721
26152W        W97878  43.213  18.695   3.669
26153W        W97879  20.215  37.831  13.393
26154W        W97880  41.160  16.327   4.205
26155W        W97881  19.538  13.295   0.364
26156W        W97882  25.263  44.211  10.685
26157W        W97883  24.505  34.111  11.976
26158W        W97884  16.849   9.550  12.647
26159W        W97885   2.459  42.967  10.350
26160W        W97886  28.743   2.723  14.467
26161W        W97887  32.959  22.599  11.683
26162W        W97888  27.945  10.358  14.065
26163W        W97889  42.108  40.755   0.478
26164W        W97890  32.534  42.381  13.239
26165W        W97891   2.956  20.948   2.811
26166W        W97892  17.501  26.369   4.552
26167W        W97893   5.726   3.708  11.589
26168W        W97894  20.668  33.018   2.627
26169W        W97895  28.864  28.672   3.278
26170W        W97896  28.475   6.307   1.207
26171W        W97897  41.385  19.227  12.933
26172W        W97898   8.367  29.461   1.512
26173W        W97899   4.084  17.677  11.191
26174W        W97900  12.945   6.829  14.361
26175W        W97901  21.093  18.573   3.689
26176W        W97902  44.072  20.043   4.951
26177W        W97903  13.749   2.091  12.862
26178W        W97904  34.468  32.103  13.333
26179W        W97905  25.553  29.310  13.320
26180W        W97906  12.658  33.414   2.275
26181W        W97907  24.112  39.070  11.422
26182W        W97908  43.098  41.581   2.740
26183W        W97909  10.694   8.618   4.372
26184W        W97910  37.236  26.346   2.082
26185W        W97911  44.322  13.404   2.133
26186W        W97912  35.675  43.310   1.931
26187W        W97913  36.019  37.880   1.675
26188W        W97914  30.849  25.040  12.864
26189W        W97915   4.710   6.498   3.354
26190W        W97916   5.223  42.842  10.215
26191W        W97917  10.436  22.207   1.776
26192W        W97918  15.303  41.292  10.512
26193W        W97919   1.849  16.027   4.568
26194W        W97920  13.650  12.295   2.691
26195W        W97921  26.253  28.047   1.254
26196W        W97922  11.987   1.502  10.536
26197W        W97923   3.802  39.548   4.753
26198W        W97924   2.024  19.436  11.013
26199W        W97925  32.571   7.425  10.629
26200W        W97926  28.284  43.434   4.188
26201W        W97927  33.908  15.749  13.900
26202W        W97928  16.754  37.588   4.241
26203W        W97929  27.551   0.230   1.294
26204W        W97930  38.659  19.186   2.736
26205W        W97931  39.466   3.277  11.912
26206W        W97932  44.898  33.610  12.907
26207W        W97933  24.956  41.739  11.447
26208W        W97934  12.250  10.292   3.583
26209W        W97935  43.528  28.972   4.275
26210W        W97936  38.975  28.994  14.906
26211W        W97937  39.675  31.029   3.428
26212W        W97938   0.268  11.497   4.626
26213W        W97939  14.604  31.322   1.950
26214W        W97940  11.323  39.500  11.074
26215W        W97941   0.425   3.217   1.892
26216W        W97942  10.664  12.785  10.603
26217W        W97943  25.004  23.932  11.964
26218W        W97944  16.655  26.714   0.729
26219W        W97945   7.312  34.923   2.912
26220W        W97946  37.432   1.383  14.048
26221W        W97947   0.536  29.596   3.401
26222W        W97948   7.477   5.430   0.453
26223W        W97949  40.219  17.492   2.346
26224W        W97950   6.548  29.845  11.095
26225W        W97951  39.460  26.885   1.237
26226W        W97952  16.587  21.449  12.108
26227W        W97953  25.919  39.062  12.416
26228W        W97954   2.505   3.941  13.894
26229W        W97955  16.534  25.642  14.408
26230W        W97956  36.486  15.902   5.070
26231W        W97957  44.313   0.310  14.633
26232W        W97958  10.340  44.737  11.709
26233W        W97959  17.780  24.966  13.933
26234W        W97960  40.886  20.317  12.583
26235W        W97961  28.017   3.765   3.756
26236W        W97962  44.911  32.696   4.336
26237W        W97963  17.715  28.313   0.621
26238W        W97964  36.375  31.613   0.322
26239W        W97965  31.464   3.696   1.163
26240W        W97966  20.585  35.893   0.958
26241W        W97967  35.445   8.953   1.950
26242W        W97968  17.647  34.123   4.078
26243W        W97969  32.238  16.341   4.144
26244W        W97970  16.023  35.158  13.772
26245W        W97971  10.706   4.863  12.096
26246W        W97972  39.039  37.297   3.649
26247W        W97973  10.589  25.131   0.891
26248W        W97974  12.908  13.709  14.046
26249W        W97975  44.572  22.019  10.858
26250W        W97976  33.226  22.942  11.392
26251W        W97977  15.787  10.191   2.100
26252W        W97978  18.702   2.832  13.931
26253W        W97979  33.940  21.255   4.224
26254W        W97980  34.120  39.027   3.153
26255W        W97981   4.313  21.099   3.597
26256W        W97982  33.556  25.592   4.571
26257W        W97983  11.341  17.797   2.240
26258W        W97984  13.761  17.775   3.361
26259W        W97985  24.041  14.746  10.494
26260W        W97986  20.775  17.745  10.215
26261W        W97987  15.076  19.971  12.057
26262W        W97988  16.310   5.357  11.548
26263W        W97989  27.226  33.910  10.921
26264W        W97990  19.088   7.125  13.854
26265W        W97991  35.402   7.105  11.106
26266W        W97992   0.976  23.742  13.721
26267W        W97993  39.810  44.898   3.728
26268W        W97994  29.494  11.804  12.481
26269W        W97995  29.153  28.424  12.901
26270W        W97996  13.209  28.152  13.431
26271W        W97997  17.290   4.658  13.825
26272W        W97998   1.540  42.980   4.416
26273W        W97999   5.162   7.140   5.343
26274W        W98000   3.729  42.454  13.559
26275W        W98001   4.736  25.731   2.404
26276W        W98002  30.848  22.821  14.019
26277W        W98003  35.492  38.631   1.385
26278W        W98004  26.579  12.851   4.125
26279W        W98005  42.579  14.442  12.005
26280W        W98006  21.990  25.787   5.350
26281W        W98007  19.576  33.541  14.502
26282W        W98008  35.426  20.754   1.736
26283W        W98009  24.438  41.052  10.676
26284W        W98010  37.795  22.971  12.431
26285W        W98011  42.509  14.113   2.917
26286W        W98012  21.192  40.000  10.080
26287W        W98013  33.368  18.774  14.240
26288W        W98014  38.961  38.066  11.162
26289W        W98015  12.438  27.063   4.028
26290W        W98016   0.039  40.041  14.827
26291W        W98017  30.107   0.746   4.672
26292W        W98018  30.054  24.638  14.396
26293W        W98019  36.466  20.702  12.859
26294W        W98020  40.363  15.555   3.316
26295W        W98021  20.997  36.948  12.061
26296W        W98022  38.276   9.130   0.951
26297W        W98023  30.107  38.394   0.322
26298W        W98024   5.325  13.530  10.178
26299W        W98025  34.438  16.846   2.793
26300W        W98026  33.081  42.715   2.694
26301W        W98027  35.051   5.260   2.145
26302W        W98028  42.829   1.954  11.503
26303W        W98029  15.380   2.951   2.675
26304W        W98030  43.393  17.685   1.796
26305W        W98031  14.600  43.447  13.465
26306W        W98032  25.461   3.296  13.574
26307W        W98033  15.641   3.873  11.162
26308W        W98034  24.738  31.208  10.752
26309W        W98035  29.552  19.091   4.921
26310W        W98036  38.464  35.835  12.383
26311W        W98037  35.621  40.961   2.781
26312W        W98038   6.217  34.895  13.842
26313W        W98039   3.266  22.539  12.965
26314W        W98040   6.361  42.031  14.782
26315W        W98041   3.758  26.070   4.604
26316W        W98042   2.796  12.355  11.183
26317W        W98043  24.154   9.713   0.039
26318W        W98044   4.669  12.297   3.575
26319W        W98045   0.804  42.329  11.593
26320W        W98046  28.800  23.531  13.909
26321W        W98047  20.539  20.975  13.023
26322W        W98048  39.039  10.674   0.273
26323W        W98049  42.474  30.107  13.303
26324W        W98050   2.696  37.486   4.043
26325W        W98051  43.904  24.919  14.442
26326W        W98052   8.414  24.663   4.594
26327W        W98053  29.438  28.961  13.406
26328W        W98054  36.386  25.757   4.329
26329W        W98055  28.322  10.054  10.586
26330W        W98056  10.198  31.531   4.626
26331W        W98057  31.559  24.393  14.687
26332W        W98058   2.105  18.164  14.415
26333W        W98059  10.907  18.207   1.471
26334W        W98060  11.796  23.952   0.332
26335W        W98061  19.254  26.422   3.786
26336W        W98062   8.853   2.419  14.358
26337W        W98063  32.393   1.167   0.836
26338W        W98064  40.978  38.422   4.166
26339W        W98065  21.250  34.373  10.764
26340W        W98066  36.378  10.287   2.873
26341W        W98067  20.845  22.664  10.638
26342W        W98068   8.195  18.086   2.634
26343W        W98069  34.097  34.892   3.927
26344W        W98070   9.961  26.622   1.780
26345W        W98071  38.983  16.283  14.386
26346W        W98072   1.620  10.935  14.295
26347W        W98073  12.684   8.885  13.803
26348W        W98074   5.674   5.806   2.584
26349W        W98075  11.643   9.187  10.592
26350W        W98076   0.494  22.787   1.016
26351W        W98077  30.649  33.347  11.944
26352W        W98078  20.734  15.426  10.763
26353W        W98079   8.961   7.406   2.850
26354W        W98080  24.222  27.580   0.009
26355W        W98081  30.994  30.809   0.897
26356W        W98082  11.121  27.614   0.510
26357W        W98083  10.346  44.222  10.423
26358W        W98084  44.951  43.337  12.512
26359W        W98085   2.928   6.987  14.244
26360W        W98086  15.060  12.456  11.744
26361W        W98087   7.406  14.707   1.200
26362W        W98088  13.340  37.954  12.367
26363W        W98089   1.761  11.155   4.005
26364W        W98090  39.830  20.533   0.382
26365W        W98091  29.708   8.636  11.922
26366W        W98092  12.269  43.019   0.824
26367W        W98093  10.626  24.364  11.383
26368W        W98094  19.567  15.593  11.130
26369W        W98095  42.791   0.378  12.523
26370W        W98096  11.078   5.135  14.349
26371W        W98097  41.212  15.230   0.434
26372W        W98098   4.894   3.428   1.143
26373W        W98099   4.154  16.538   4.182
26374W        W98100  17.017  42.561   0.584
26375W        W98101  40.017   6.901   2.295
26376W        W98102  27.986   0.774   0.088
26377W        W98103  35.888  13.778  10.772
26378W        W98104  31.060  29.701   1.928
26379W        W98105   4.948  18.234   3.843
26380W        W98106  25.701  43.314  12.393
26381W        W98107  17.820  38.935   5.491
26382W        W98108  10.905   1.889   0.424
26383W        W98109  28.063  17.067  11.664
26384W        W98110   0.506  39.350   2.700
26385W        W98111   1.213  13.399  12.965
26386W        W98112   3.805  41.464  14.302
26387W        W98113  18.563  29.422   4.898
26388W        W98114  10.677   0.791   1.828
26389W        W98115  33.288  27.483  13.353
26390W        W98116  13.269  22.461   1.330
26391W        W98117  12.690  24.453   2.517
26392W        W98118  35.545   1.967  12.054
26393W        W98119  32.567  40.841  12.629
26394W        W98120   8.607   8.461   3.272
26395W        W98121  15.112  21.434  13.119
26396W        W98122  39.997  44.209   0.541
26397W        W98123  38.872  14.750  12.373
26398W        W98124  18.544   0.441  13.868
26399W        W98125  18.628   1.184   0.133
26400W        W98126   2.621  18.242   0.454
26401W        W98127  37.057  33.891   2.266
26402W        W98128  11.179  32.415  12.387
26403W        W98129  27.028  24.561   0.795
26404W        W98130   2.235  10.690  12.541
26405W        W98131  38.492  10.835   1.766
26406W        W98132  29.052  17.027   4.017
26407W        W98133  40.866   9.354   3.757
26408W        W98134  24.436   6.008  12.881
26409W        W98135  11.681  26.580  13.113
26410W        W98136  24.148   0.383  13.984
26411W        W98137  31.789  24.355   1.885
26412W        W98138  32.481  40.297   2.308
26413W        W98139  32.178  30.022  14.987
26414W        W98140  43.459  12.377  13.056
26415W        W98141   4.992  18.698  10.892
26416W        W98142  20.536  35.540  11.556
26417W        W98143  42.036  35.400   0.446
26418W        W98144  36.965  15.057   1.996
26419W        W98145  18.037  39.627   1.824
26420W        W98146  16.091  23.972   1.408
26421W        W98147   3.429  10.870   4.077
26422W        W98148   5.676  16.851  12.027
26423W        W98149  26.190  12.813   2.818
26424W        W98150  10.911  18.502   3.189
26425W        W98151  33.943  28.553   1.159
26426W        W98152  21.059  37.465  14.831
26427W        W98153   6.685   9.379  14.258
26428W        W98154  23.445  27.671   2.300
26429W        W98155  40.988  21.341  11.592
26430W        W98156  36.339  25.018   2.398
26431W        W98157  41.060  31.921   4.423
26432W        W98158  43.485   6.803  11.500
26433W        W98159  26.684  12.920  10.439
26434W        W98160  42.152  26.390  14.530
26435W        W98161  16.638  18.281   1.689
26436W        W98162  29.912  21.845   2.662
26437W        W98163  21.710   1.265   3.168
26438W        W98164   6.139  39.495   0.735
26439W        W98165  26.159   9.124  13.514
26440W        W98166  38.921   5.738   1.340
26441W        W98167  38.032  28.579   3.355
26442W        W98168  19.950  35.817  13.875
26443W        W98169  20.517  44.595   1.938
26444W        W98170   6.206  34.970  12.575
26445W        W98171   1.364   6.770   4.679
26446W        W98172  18.746  41.948  13.811
26447W        W98173   0.811  24.505   3.085
26448W        W98174  16.853  44.052  12.044
26449W        W98175  30.164  23.488   4.193
26450W        W98176  42.947  41.789  12.113
26451W        W98177  15.381  35.918  11.983
26452W        W98178   3.852   7.128   4.508
26453W        W98179  36.027  17.420  14.807
26454W        W98180  22.139   5.923   2.968
26455W        W98181   8.614  33.227   1.852
26456W        W98182  29.183  34.396  13.387
26457W        W98183  33.630  23.686   0.613
26458W        W98184  38.083   2.740  14.880
26459W        W98185   8.433  24.944   2.870
26460W        W98186  30.554   0.023  14.846
26461W        W98187  37.345  40.318   1.698
26462W        W98188  19.342  43.426  11.533
26463W        W98189  19.708   6.354   0.698
26464W        W98190  37.305  25.191  11.080
26465W        W98191   9.812  21.130   2.472
26466W        W98192  43.512  32.630   1.623
26467W        W98193  12.695   4.228  13.423
26468W        W98194  17.270   4.979  13.433
26469W        W98195  43.239   7.242  11.382
26470W        W98196  23.464  37.380   1.258
26471W        W98197   8.763  31.048  14.682
26472W        W98198   3.940  17.851  13.411
26473W        W98199  25.922  15.304  11.992
26474W        W98200  20.543  18.084  11.914
26475W        W98201  35.045  17.164   1.694
26476W        W98202  44.913  43.287   1.723
26477W        W98203  25.253  13.905   4.263
26478W        W98204  24.203  11.748  11.586
26479W        W98205  28.239  17.765  13.851
26480W        W98206  44.373  41.051  10.218
26481W        W98207  15.647   8.643   4.580
26482W        W98208  38.794  37.382  14.861
26483W        W98209   3.117  14.647   1.291
26484W        W98210  44.304  24.923  14.124
26485W        W98211  22.996  21.800   4.079
26486W        W98212  32.140   1.681  13.008
26487W        W98213   8.380  43.844  12.969
26488W        W98214   6.253   6.330  10.669
26489W        W98215  15.234  21.861   2.276
26490W        W98216  28.704  10.848  11.625
26491W        W98217  34.091  10.546  10.674
26492W        W98218  31.982   4.354   1.514
26493W        W98219  41.544  30.451   1.747
26494W        W98220  10.068  37.808  12.106
26495W        W98221  29.721  12.589  14.794
26496W        W98222   1.359   6.345   3.917
26497W        W98223  25.884  37.511   2.543
26498W        W98224  34.062   8.742  12.422
26499W        W98225  29.479  14.113   4.172
26500W        W98226  30.425  39.448   4.893
26501W        W98227   7.497  28.355   4.209
26502W        W98228   2.862  22.157   1.919
26503W        W98229  23.069  43.312  12.189
26504W        W98230  40.469   6.935   1.986
26505W        W98231  32.740  25.898   4.737
26506W        W98232  43.516   1.350  11.021
26507W        W98233  12.175  28.501   2.629
26508W        W98234  11.630  23.694  13.437
26509W        W98235  35.457  25.530  12.630
26510W        W98236  16.060  27.766   3.594
26511W        W98237  28.701  31.515   0.139
26512W        W98238  41.303   7.913   0.726
26513W        W98239  20.564  14.181  10.049
26514W        W98240  38.432  23.222   0.448
26515W        W98241  38.986  26.552   4.553
26516W        W98242  33.698  10.838   0.875
26517W        W98243  43.090  23.796  11.012
26518W        W98244  38.297   6.978   1.164
26519W        W98245  19.545  37.557  14.940
26520W        W98246  23.605   0.739  11.426
26521W        W98247  19.295   3.485  10.888
26522W        W98248   1.210  29.598   1.231
26523W        W98249  35.992  25.611  14.892
26524W        W98250  20.535  43.769   3.951
26525W        W98251  17.801  23.743   1.274
26526W        W98252  14.997  18.038   3.236
26527W        W98253  14.003  20.942   3.892
26528W        W98254  18.137  28.066   3.300
26529W        W98255  39.891  44.527   4.115
26530W        W98256  15.144  13.790   0.288
26531W        W98257   9.601  22.466   3.205
26532W        W98258  20.276  15.724  10.679
26533W        W98259  27.440  26.627   2.226
26534W        W98260  40.904  32.867   4.735
26535W        W98261   1.322  42.197  12.293
26536W        W98262   5.479  10.513   1.273
26537W        W98263  35.137  28.665  14.196
26538W        W98264   9.400  17.545   4.858
26539W        W98265  43.586  37.720  12.460
26540W        W98266  27.077  23.814   3.872
26541W        W98267   9.939   0.500   4.838
26542W        W98268  25.459  30.883  14.784
26543W        W98269  34.073  43.870   1.326
26544W        W98270   8.633  41.513  11.137
26545W        W98271   0.010  16.554   1.979
26546W        W98272  25.809  37.791  13.851
26547W        W98273  40.410  24.060  11.349
26548W        W98274  11.184  21.296  11.020
26549W        W98275  29.939  18.794   3.842
26550W        W98276   4.787   2.927   2.340
26551W        W98277   7.908  32.920   2.872
26552W        W98278  41.554  32.389  11.820
26553W        W98279  34.039  33.859   0.071
26554W        W98280  29.894  41.458   4.784
26555W        W98281  19.167  44.206  10.659
26556W        W98282  33.963  42.869   2.700
26557W        W98283   2.895  35.650   4.576
26558W        W98284   2.397  32.685   1.791
26559W        W98285  40.861   5.766   4.134
26560W        W98286  25.192  33.179   3.682
26561W        W98287  19.412  30.564  10.646
26562W        W98288  35.859  22.219   0.485
26563W        W98289  37.509   8.609   0.673
26564W        W98290  27.988  39.729   3.525
26565W        W98291  22.628  18.495   4.154
26566W        W98292  31.926  18.607   0.690
26567W        W98293  26.313  15.485   0.019
26568W        W98294  21.155  42.218   4.736
26569W        W98295  32.966  27.766  13.996
26570W        W98296  10.771  17.087   1.008
26571W        W98297  24.447  35.968  11.505
26572W        W98298   0.400  41.816   3.948
26573W        W98299  23.724  15.648   1.653
26574W        W98300  18.847  13.674   2.704
26575W        W98301  39.630   6.225  11.635
26576W        W98302  26.536  28.902  13.430
26577W        W98303  18.666   1.697   0.207
26578W        W98304  41.388  38.742  11.546
26579W        W98305  42.866  33.914   4.789
26580W        W98306   5.827   5.736   3.070
26581W        W98307  22.021  25.454  13.153
26582W        W98308  14.339  37.935  10.159
26583W        W98309  31.090  27.022   3.842
26584W        W98310  44.262  40.294  12.834
26585W        W98311  26.214  10.647  12.657
26586W        W98312   1.894  14.388   0.489
26587W        W98313   0.483   7.296   1.366
26588W        W98314  35.179   1.492   2.892
26589W        W98315  38.498  35.618   1.862
26590W        W98316  12.671  21.226   1.877
26591W        W98317  14.682  25.595  13.959
26592W        W98318  44.871  34.980  14.070
26593W        W98319  17.198  28.158   9.906
26594W        W98320  30.457  33.069  12.577
26595W        W98321  42.414  25.631  11.617
26596W        W98322  28.898  14.639  10.645
26597W        W98323  10.368  30.126  11.475
26598W        W98324  38.996   3.746   2.434
26599W        W98325  12.427  18.360   3.649
26600W        W98326  35.928  23.504   1.727
26601W        W98327  13.553   4.843   2.228
26602W        W98328  12.196   2.592  12.581
26603W        W98329  38.622  19.709  13.414
26604W        W98330  23.272  42.695  11.151
26605W        W98331   5.879  38.565   4.572
26606W        W98332  18.617  40.609  13.419
26607W        W98333  24.742  23.673  11.163
26608W        W98334  40.351   7.930  11.859
26609W        W98335  30.966  35.985   4.525
26610W        W98336  24.021   5.223  11.138
26611W        W98337  20.499  14.217  14.357
26612W        W98338  24.160  27.641   0.516
26613W        W98339  18.763   2.470   0.809
26614W        W98340  43.361   5.681  10.634
26615W        W98341  28.654  13.017  11.174
26616W        W98342  18.008  25.065   4.608
26617W        W98343  10.106  13.964   4.484
26618W        W98344  36.596  33.217  14.804
26619W        W98345   9.766  30.979  14.971
26620W        W98346  43.767   8.370  12.966
26621W        W98347  22.928  13.921  12.002
26622W        W98348  14.994   2.911   4.163
26623W        W98349  39.992  24.740  12.633
26624W        W98350  31.591  28.947   2.871
26625W        W98351  27.664  15.014   4.503
26626W        W98352   0.470  11.610  10.429
26627W        W98353  32.383  22.765  11.655
26628W        W98354  40.444  32.930  14.764
26629W        W98355  42.960   4.822   1.971
26630W        W98356   8.963  35.980  11.260
26631W        W98357  31.048  27.049  13.355
26632W        W98358  28.239  20.637   1.975
26633W        W98359  29.089  20.754  12.696
26634W        W98360  22.599  20.015  13.315
26635W        W98361  42.674  22.095   2.227
26636W        W98362  33.003  29.063  11.273
26637W        W98363  30.162   1.905   1.982
26638W        W98364  10.794  36.595   2.750
26639W        W98365  26.529   9.182   1.897
26640W        W98366  35.054   3.265  14.494
26641W        W98367  20.546  38.600   4.896
26642W        W98368   1.957   2.555  12.867
26643W        W98369  37.605  26.031   2.997
26644W        W98370  30.974  18.509  12.038
26645W        W98371  31.108  10.316  12.401
26646W        W98372   2.778   6.748  10.616
26647W        W98373  39.375  11.199   2.191
26648W        W98374  36.078   8.327  14.334
26649W        W98375  41.877  35.535   3.388
26650W        W98376   3.078  40.172   4.524
26651W        W98377  44.714  15.614   2.226
26652W        W98378  36.915  34.000  12.094
26653W        W98379  15.326   1.789  12.496
26654W        W98380   5.188  33.327   1.212
26655W        W98381  28.047  18.793   4.031
26656W        W98382  44.448  21.636   3.167
26657W        W98383  38.015  11.162  14.926
26658W        W98384   1.351  12.315   4.536
26659W        W98385  10.397  23.601  11.183
26660W        W98386  20.779   7.281  12.114
26661W        W98387  14.076   7.420   0.496
26662W        W98388  16.751  24.921  10.612
26663W        W98389  14.218   0.234  10.761
26664W        W98390  21.067  26.142   5.037
26665W        W98391   3.637   1.489  11.030
26666W        W98392   1.140   0.650  12.649
26667W        W98393  19.236  42.406  12.089
26668W        W98394  14.566   9.094   3.192
26669W        W98395  10.402   2.062   0.428
26670W        W98396  22.241  15.366   5.529
26671W        W98397   5.845  44.318   1.645
26672W        W98398  27.743   0.613   9.839
26673W        W98399  10.846  40.881   1.969
26674W        W98400  33.545  40.302  14.256
26675W        W98401   5.736   6.187  13.971
26676W        W98402  19.700  18.292  10.951
26677W        W98403  12.114  30.052  12.978
26678W        W98404  38.335   2.830   2.827
26679W        W98405  31.369   7.454   3.918
26680W        W98406  36.889  10.137  11.597
26681W        W98407  40.056   2.160  11.168
26682W        W98408  20.587   3.808   3.671
26683W        W98409   3.548  40.913  13.902
26684W        W98410  24.520  14.825  10.213
26685W        W98411  30.445  12.629   0.351
26686W        W98412  41.540  28.138  14.938
26687W        W98413   2.975   2.797  12.916
26688W        W98414   8.638  22.180   5.144
26689W        W98415  39.664  24.178   1.244
26690W        W98416  25.732   6.685  12.118
26691W        W98417  39.827  34.974   3.310
26692W        W98418  13.719  10.258  11.399
26693W        W98419  22.381   9.560   1.296
26694W        W98420  30.044  44.803  14.820
26695W        W98421  28.389  27.830   1.143
26696W        W98422  14.111  43.679   3.158
26697W        W98423  15.130  40.799  13.300
26698W        W98424   1.508  31.458   1.389
26699W        W98425  11.754  44.238  14.567
26700W        W98426  36.082  15.039  11.139
26701W        W98427  32.983  37.892  10.906
26702W        W98428  41.024  22.122   4.067
26703W        W98429  24.054  35.394   0.334
26704W        W98430  19.108  12.257  11.393
26705W        W98431  30.103  23.503   2.374
26706W        W98432   6.184  17.081   0.236
26707W        W98433   3.305  44.508  10.692
26708W        W98434  35.144  39.873   4.423
26709W        W98435  23.796  28.536  14.895
26710W        W98436   8.619  12.719  13.025
26711W        W98437  40.917   6.657   2.144
26712W        W98438  14.979  29.921   1.277
26713W        W98439  11.628   6.748   1.936
26714W        W98440  13.247  23.071  10.477
26715W        W98441  10.425   0.496  10.363
26716W        W98442  10.843   1.538   3.671
26717W        W98443  33.580  32.038  10.140
26718W        W98444   5.941  19.014  10.538
26719W        W98445  15.663   1.843  13.033
26720W        W98446   4.161   8.732  14.978
26721W        W98447  20.081  16.435   1.251
26722W        W98448  34.013  41.097  12.801
26723W        W98449   9.298  34.938   2.269
26724W        W98450  39.987  42.914   1.254
26725W        W98451  26.735   7.453   0.359
26726W        W98452  28.213  12.128   4.717
26727W        W98453  12.730  17.164   1.763
26728W        W98454  28.166  12.235   0.713
26729W        W98455   0.237  34.133  13.539
26730W        W98456   2.603  15.395   2.177
26731W        W98457  42.248   9.391   2.792
26732W        W98458  11.796  25.133   0.619
26733W        W98459  39.583  29.579   0.533
26734W        W98460  37.091  23.287  14.424
26735W        W98461  21.131  12.165  14.186
26736W        W98462  40.838  34.969   4.344
26737W        W98463  18.155  19.088   0.275
26738W        W98464   1.072  11.096   0.512
26739W        W98465  35.455  43.180   2.389
26740W        W98466  16.757  13.304   4.584
26741W        W98467   6.429  44.953   4.886
26742W        W98468   0.393  42.922  10.744
26743W        W98469  11.858   9.374   3.852
26744W        W98470  30.719  43.712   9.876
26745W        W98471   1.551  35.803   3.766
26746W        W98472  25.500  28.644   3.053
26747W        W98473  27.298  22.051   0.670
26748W        W98474  26.977  36.512  14.941
26749W        W98475  40.115  44.331   2.326
26750W        W98476  16.626   8.925   3.138
26751W        W98477  25.465  40.121   4.040
26752W        W98478   2.942  27.417   1.522
26753W        W98479  37.224   0.934   3.773
26754W        W98480   6.785   8.249  11.420
26755W        W98481  17.029  35.998   3.107
26756W        W98482  19.773  17.367  12.791
26757W        W98483  16.324  39.418  10.195
26758W        W98484  39.831  10.072  14.776
26759W        W98485  42.809  36.858   4.704
26760W        W98486  27.017  28.602  12.129
26761W        W98487  20.660  44.390  12.248
26762W        W98488  12.096  44.943   4.071
26763W        W98489   2.316  16.263   4.344
26764W        W98490  17.221  15.620   1.694
26765W        W98491   2.441   9.372   2.270
26766W        W98492   9.056  12.325  10.974
26767W        W98493   2.475  31.323   2.198
26768W        W98494  38.139   6.789  10.581
26769W        W98495  17.759   8.620   1.854
26770W        W98496  21.365  16.257   3.653
26771W        W98497  40.146  18.470  12.482
26772W        W98498   5.775  38.706   2.207
26773W        W98499  19.637   6.588  14.317
26774W        W98500  17.171  18.595   1.018
26775W        W98501  39.382   4.100  13.322
26776W        W98502  17.004  19.918  11.173
26777W        W98503  29.480  11.099   3.579
26778W        W98504  15.147   5.304   2.842
26779W        W98505  28.604  27.725   3.432
26780W        W98506   5.875  11.189   1.715
26781W        W98507  39.549   8.675   1.080
26782W        W98508  20.554   2.213  10.779
26783W        W98509  21.458  33.009   1.364
26784W        W98510  39.258  24.426  12.873
26785W        W98511  43.501  28.777  10.283
26786W        W98512  23.729  25.342   3.427
26787W        W98513   5.596  44.011   1.314
26788W        W98514  11.349  30.550   3.697
26789W        W98515  32.639  37.391   0.580
26790W        W98516  19.607  41.541  10.999
26791W        W98517  12.861   0.793   0.979
26792W        W98518  19.703   9.209  14.046
26793W        W98519  32.180   8.882   0.852
26794W        W98520  43.516  23.937   0.945
26795W        W98521  21.559   1.373   4.186
26796W        W98522  40.637  32.372  12.930
26797W        W98523  33.478  25.609   3.155
26798W        W98524  39.567  26.047  13.590
26799W        W98525   3.174  31.498   2.688
26800W        W98526  15.709  24.144   2.716
26801W        W98527  22.295   6.168  13.970
26802W        W98528  21.416  12.421  14.533
26803W        W98529   9.537  37.454  12.454
26804W        W98530  24.727   3.811  11.133
26805W        W98531  16.307  10.692  14.432
26806W        W98532  30.089  32.903  11.091
26807W        W98533  24.596  30.057   4.135
26808W        W98534  43.017  23.087   2.307
26809W        W98535  37.011  40.538   0.751
26810W        W98536  13.638  20.014   1.408
26811W        W98537  29.482  34.430   4.595
26812W        W98538  32.244   9.740  12.486
26813W        W98539  16.271  32.418   0.422
26814W        W98540   1.988  25.534   1.876
26815W        W98541  38.793   0.741   2.132
26816W        W98542  42.486  37.557  14.310
26817W        W98543  14.128   7.963  11.344
26818W        W98544  17.094  40.879   1.279
26819W        W98545  23.982  37.504  13.984
26820W        W98546  26.570  37.089  11.498
26821W        W98547   3.271  44.843   3.426
26822W        W98548   4.922  29.064  13.774
26823W        W98549   1.040  27.101   2.823
26824W        W98550  35.531  12.759   4.821
26825W        W98551   7.530  34.118  14.738
26826W        W98552   4.697   2.154  14.524
26827W        W98553  43.428   1.322   1.314
26828W        W98554  21.105  44.689   1.921
26829W        W98555  23.734   0.635  12.336
26830W        W98556   4.203  17.869   1.283
26831W        W98557   7.165  23.487   1.304
26832W        W98558  34.640   4.352   2.235
26833W        W98559  27.255  39.606   2.802
26834W        W98560  15.552  13.338   3.884
26835W        W98561  34.611  22.283   1.013
26836W        W98562  34.655  25.178  13.534
26837W        W98563  13.791   5.014   1.759
26838W        W98564  43.682   7.130  11.141
26839W        W98565  38.133  36.538  10.680
26840W        W98566  20.870  17.279  14.406
26841W        W98567  31.408  22.766   0.747
26842W        W98568   4.355  14.739   2.813
26843W        W98569   4.738   4.897   1.910
26844W        W98570  35.769  10.147  14.511
26845W        W98571  19.659   0.462  14.357
26846W        W98572  31.904  26.019  11.856
26847W        W98573  38.883   7.934   0.254
26848W        W98574   6.383   4.018   2.863
26849W        W98575  27.277   7.405  12.813
26850W        W98576  34.903  15.289  12.870
26851W        W98577  44.748  11.090   0.011
26852W        W98578  39.351  14.705   3.405
26853W        W98579  15.752  36.397   3.179
26854W        W98580  15.629  43.530  12.432
26855W        W98581  33.144  36.500   4.570
26856W        W98582  41.412  39.271  11.466
26857W        W98583   8.512   9.040  12.832
26858W        W98584  43.237  16.743  14.271
26859W        W98585  39.546   2.435   3.306
26860W        W98586  32.058  33.894  12.676
26861W        W98587  27.855  13.675  10.630
26862W        W98588  18.117   1.381  12.148
26863W        W98589  34.468  17.108  13.922
26864W        W98590  19.186   9.757  13.468
26865W        W98591  23.486  44.271  14.887
26866W        W98592  41.312   8.782   4.470
26867W        W98593  38.595   8.915   4.523
26868W        W98594  36.550  34.416   3.426
26869W        W98595  23.155  21.233  11.664
26870W        W98596  13.073  21.779   2.389
26871W        W98597   3.223  43.763  12.952
26872W        W98598  18.297  32.166   4.115
26873W        W98599  18.509   9.902   3.836
26874W        W98600   0.832  31.035   4.564
26875W        W98601  40.542  23.898  10.386
26876W        W98602  15.872  21.013  13.033
26877W        W98603  40.695  24.031   0.430
26878W        W98604   5.963   7.246   2.106
26879W        W98605  44.652  39.671   4.007
26880W        W98606  15.548  15.731   3.622
26881W        W98607  10.070  13.157   2.798
26882W        W98608  22.023  24.081  13.385
26883W        W98609   3.006   1.435   0.758
26884W        W98610   2.834  41.868   4.303
26885W        W98611   3.410   2.971   4.218
26886W        W98612  36.541  12.822  11.536
26887W        W98613  40.178  17.286   2.803
26888W        W98614  25.676  21.570  11.180
26889W        W98615   2.886  18.302  12.888
26890W        W98616  38.657  27.662   0.716
26891W        W98617  17.656  22.283  14.422
26892W        W98618  22.804  23.272   2.604
26893W        W98619  16.010  10.130   1.600
26894W        W98620  30.224   0.348   2.318
26895W        W98621  16.676  25.388  12.579
26896W        W98622  12.599  11.372   2.232
26897W        W98623  30.573  37.571   3.804
26898W        W98624  32.438  35.086  10.764
26899W        W98625  40.994  38.043  13.363
26900W        W98626  20.246  36.248   1.087
26901W        W98627  31.021   9.385  11.473
26902W        W98628  25.024   6.664   1.612
26903W        W98629  33.082  25.857  12.978
26904W        W98630  34.814  14.500   1.932
26905W        W98631   0.454   9.667  11.904
26906W        W98632   7.707  34.118  12.584
26907W        W98633   2.966  12.699  14.825
26908W        W98634  21.217  42.005   3.752
26909W        W98635  24.573  41.687  14.039
26910W        W98636  33.580  14.272   4.205
26911W        W98637  12.744  43.938  11.894
26912W        W98638   7.889  15.633   3.270
26913W        W98639  29.715  12.657  11.567
26914W        W98640   9.668  40.944  12.209
26915W        W98641  29.812  18.608   1.274
26916W        W98642  21.589   1.198   2.664
26917W        W98643  32.448  26.540  10.525
26918W        W98644  35.890  29.210  12.110
26919W        W98645  43.463  36.182   3.679
26920W        W98646  25.585  36.416   1.048
26921W        W98647  13.660  17.111   1.969
26922W        W98648  23.245  40.436   4.642
26923W        W98649   0.880  41.873  13.821
26924W        W98650  14.152  21.040   1.751
26925W        W98651  14.175  10.719   2.196
26926W        W98652  23.205  37.442   4.612
26927W        W98653  36.478  21.647   3.185
26928W        W98654  27.157  25.567  12.443
26929W        W98655  25.496  42.901  14.404
26930W        W98656  44.201  17.234   4.573
26931W        W98657  42.286  13.607  12.994
26932W        W98658  21.318  42.874   0.819
26933W        W98659  38.828   8.292   1.300
26934W        W98660  14.185  27.288   3.889
26935W        W98661   8.076  21.662  11.067
26936W        W98662  12.356  17.088   3.349
26937W        W98663  32.476  42.937   0.903
26938W        W98664  17.666  26.980   3.228
26939W        W98665  32.100  42.056   4.594
26940W        W98666  19.627  43.572   0.412
26941W        W98667   5.936  16.046   0.052
26942W        W98668  13.332   3.361   4.661
26943W        W98669  28.884  22.735   2.355
26944W        W98670   0.282  27.657  11.193
26945W        W98671  32.943  11.228  12.092
26946W        W98672  23.243   7.869   2.923
26947W        W98673   7.289   6.409  11.585
26948W        W98674  18.605  18.610   0.810
26949W        W98675   8.671   2.577  13.000
26950W        W98676  29.880  29.232  13.427
26951W        W98677  25.004   5.090  13.132
26952W        W98678  29.209   0.478   0.967
26953W        W98679  44.747  16.405   3.367
26954W        W98680  32.066  19.979   0.831
26955W        W98681  44.413  34.150  12.593
26956W        W98682  18.609  13.310  12.901
26957W        W98683  26.076   9.724   3.754
26958W        W98684  13.301  11.902  10.266
26959W        W98685  20.575   5.429   2.378
26960W        W98686  28.460  40.331  11.571
26961W        W98687   2.345  14.404  11.544
26962W        W98688  41.274  38.257  11.473
26963W        W98689  12.143  25.256   4.105
26964W        W98690  17.668  15.659   3.813
26965W        W98691  31.621  28.546  11.118
26966W        W98692  37.544  10.687  10.902
26967W        W98693  11.618  12.819  10.600
26968W        W98694  18.199  20.068   1.518
26969W        W98695  25.456  19.725  13.488
26970W        W98696  36.668  29.583   1.595
26971W        W98697   7.798   0.590  13.731
26972W        W98698  35.906  20.520   1.706
26973W        W98699  25.723  38.971  14.327
26974W        W98700   8.798   8.687   1.863
26975W        W98701   5.365  43.553   1.342
26976W        W98702  30.910  12.152   4.474
26977W        W98703   4.261  35.811   3.250
26978W        W98704  22.631  21.323   0.906
26979W        W98705  14.627  12.013  10.549
26980W        W98706  23.602  34.050  11.113
26981W        W98707  32.147  37.067  14.837
26982W        W98708   0.444   0.468  10.959
26983W        W98709  25.851   5.050  12.945
26984W        W98710  41.434  32.130   4.856
26985W        W98711  25.189  21.437  13.972
26986W        W98712  30.588  26.380  13.762
26987W        W98713  43.058  25.157  13.938
26988W        W98714   0.798  37.626  12.166
26989W        W98715  27.955  43.567   2.644
26990W        W98716  11.837  21.124  10.611
26991W        W98717  29.363  37.918  11.200
26992W        W98718   5.761  10.151  14.724
26993W        W98719   5.702  15.984   1.641
26994W        W98720   6.617   7.836   0.963
26995W        W98721  28.558  11.665   2.604
26996W        W98722   3.779  41.596   3.350
26997W        W98723  27.451  35.922  13.878
26998W        W98724  21.645   2.225   1.782
26999W        W98725   9.913  14.323  14.532
27000W        W98726  17.190  10.639   0.633
27001W        W98727  41.409  23.199   1.951
27002W        W98728  44.155  39.100   1.753
27003W        W98729   2.236  37.050  12.522
27004W        W98730   5.382  14.803  12.584
27005W        W98731  21.109  36.982  11.554
27006W        W98732  22.406  15.753   2.259
27007W        W98733   5.279  23.743   1.506
27008W        W98734   9.890  39.894   0.291
27009W        W98735  36.462  40.542   4.087
27010W        W98736  10.460   4.310  11.205
27011W        W98737  44.480  18.117  12.756
27012W        W98738  40.957   4.365   3.046
27013W        W98739  30.543  31.426   3.761
27014W        W98740   1.073  37.547  13.044
27015W        W98741  24.730  18.240  14.846
27016W        W98742  24.280  16.140   3.245
27017W        W98743  19.597  18.381  13.108
27018W        W98744  32.588  26.739  12.971
27019W        W98745  12.367  12.152   3.191
27020W        W98746  17.751  30.631  13.545
27021W        W98747  21.495  26.674   2.115
27022W        W98748  26.846  22.593   2.329
27023W        W98749  25.536  42.314  14.764
27024W        W98750  16.754  42.420  14.287
27025W        W98751  19.495  28.453   5.080
27026W        W98752  29.356  39.805   0.903
27027W        W98753  37.726  37.923   4.646
27028W        W98754  10.468  28.466  14.393
27029W        W98755   2.308  26.441  12.048
27030W        W98756  14.541   6.297   0.865
27031W        W98757  28.966   8.874  12.455
27032W        W98758  42.726  28.884   4.679
27033W        W98759   9.078  34.646   0.790
27034W        W98760  37.370  18.358  14.771
27035W        W98761  14.320   3.655   0.967
27036W        W98762  28.093   6.383  12.467
27037W        W98763   8.472  18.617  14.260
27038W        W98764   2.873  27.535   4.665
27039W        W98765  38.834  42.009  13.154
27040W        W98766  13.763  23.149  14.558
27041W        W98767  25.478  38.462   3.548
27042W        W98768  37.111  20.347  12.150
27043W        W98769  12.864  21.766  11.152
27044W        W98770   4.927  19.071  10.117
27045W        W98771  31.891   4.869  14.299
27046W        W98772  44.399  33.445  10.736
27047W        W98773  31.673  38.288   3.327
27048W        W98774  23.452  32.386  11.613
27049W        W98775   0.857  29.204  13.106
27050W        W98776  22.173  33.974  12.142
27051W        W98777  22.962  16.602   2.225
27052W        W98778  30.386  41.918  13.810
27053W        W98779  35.682  28.142   1.262
27054W        W98780  28.796  43.300   1.878
27055W        W98781  44.438  13.182   0.299
27056W        W98782  37.546  15.193  10.936
27057W        W98783  15.803  28.074  12.054
27058W        W98784  36.508  38.924  10.201
27059W        W98785  43.471   6.085   4.651
27060W        W98786   5.257  28.662  13.636
27061W        W98787  21.209  41.387  12.380
27062W        W98788  28.102  29.537   2.325
27063W        W98789   9.142  22.049  12.662
27064W        W98790  35.111  13.603  12.536
27065W        W98791   2.957  23.278  14.487
27066W        W98792  21.461  41.586   0.655
27067W        W98793   9.959  22.047  13.585
27068W        W98794  44.416  40.458   3.404
27069W        W98795  28.874  22.310   3.576
27070W        W98796  38.540  22.175   2.001
27071W        W98797  21.141  13.266   2.447
27072W        W98798  29.765  43.405  13.558
27073W        W98799  41.257   7.207  11.636
27074W        W98800  27.109  26.216   2.228
27075W        W98801  23.339  27.851  11.530
27076W        W98802  34.024  39.840   2.695
27077W        W98803   8.411   3.828   2.799
27078W        W98804  36.613  22.156   1.460
27079W        W98805  10.890  12.272  12.841
27080W        W98806   8.889  19.724   2.392
27081W        W98807  13.108  22.209   4.200
27082W        W98808  44.091   1.077   4.948
27083W        W98809  15.730   7.890  11.172
27084W        W98810  43.960   0.281  10.570
27085W        W98811   7.891  21.834  13.952
27086W        W98812   2.913  30.941   4.326
27087W        W98813   9.454  36.576   4.988
27088W        W98814   4.699  10.540  14.794
27089W        W98815  30.315  30.088  14.912
27090W        W98816  37.762  40.122  13.113
27091W        W98817   6.284  16.736  11.161
27092W        W98818   8.331  35.013  14.290
27093W        W98819   2.070   5.848  14.051
27094W        W98820   6.641  43.933   1.240
27095W        W98821  21.270   3.839   1.729
27096W        W98822  39.396  28.908  12.484
27097W        W98823   6.912   4.419   1.341
27098W        W98824  27.212   9.073  14.967
27099W        W98825  27.985  29.985   2.696
27100W        W98826  42.583   8.640   0.796
27101W        W98827  39.963   9.594   0.053
27102W        W98828   4.806  29.601   3.255
27103W        W98829  10.513  29.114   1.436
27104W        W98830   6.494  30.465   0.212
27105W        W98831   0.817  13.759   3.296
27106W        W98832   2.282   3.219   3.772
27107W        W98833  35.415  16.809   0.786
27108W        W98834  21.274  42.450   1.882
27109W        W98835  34.224  33.006  11.587
27110W        W98836  28.938  27.323   3.228
27111W        W98837  31.933   1.483  12.433
27112W        W98838  19.840  39.631  12.948
27113W        W98839  37.992  31.368  14.528
27114W        W98840  10.144  14.754   0.886
27115W        W98841  12.917   0.953   2.254
27116W        W98842   2.226  11.775  12.863
27117W        W98843  12.745  15.566   0.853
27118W        W98844  12.146  20.271  10.720
27119W        W98845   7.658  30.189   2.832
27120W        W98846  44.041  33.467  14.867
27121W        W98847   6.151  37.845  12.030
27122W        W98848  21.003  44.026  11.026
27123W        W98849  12.673  21.453   3.738
27124W        W98850   5.707  35.345   3.157
27125W        W98851   9.886  37.242   0.563
27126W        W98852  44.003  20.111   1.784
27127W        W98853   4.948  13.637  13.903
27128W        W98854  14.579   6.304  12.699
27129W        W98855  39.958  19.214   0.354
27130W        W98856  20.627  44.254  12.773
27131W        W98857  15.990  41.043   5.532
27132W        W98858  29.517  32.081   1.424
27133W        W98859   2.452  23.267  11.066
27134W        W98860  15.328  27.981   1.256
27135W        W98861  41.714  19.616   3.630
27136W        W98862  38.856  22.643   2.392
27137W        W98863  19.011  19.201   1.370
27138W        W98864  19.044  42.889   4.324
27139W        W98865  20.576  40.897  13.457
27140W        W98866  28.195  19.890   5.023
27141W        W98867  27.160  32.203   0.828
27142W        W98868  37.433  16.236   0.303
27143W        W98869   1.432   8.872   1.224
27144W        W98870  42.698  30.523  11.068
27145W        W98871  28.631   1.726   3.584
27146W        W98872  18.927  37.663  12.080
27147W        W98873  11.744   1.729  13.837
27148W        W98874   7.097  41.566  13.406
27149W        W98875   5.506  40.520  14.746
27150W        W98876  27.175   8.582   1.783
27151W        W98877  25.470   1.100   0.877
27152W        W98878  43.482   2.801  14.943
27153W        W98879  16.899  18.672  13.463
27154W        W98880   3.210  30.012  11.494
27155W        W98881   2.759   2.756   4.073
27156W        W98882  41.394  35.939  12.170
27157W        W98883   7.818  36.577  11.997
27158W        W98884  14.383  12.990   0.689
27159W        W98885  30.236  42.294   0.327
27160W        W98886  31.232  26.199  13.126
27161W        W98887  36.791  21.597  14.825
27162W        W98888  18.608   7.032   5.357
27163W        W98889   6.044  29.972  11.123
27164W        W98890  23.842  26.491  14.502
27165W        W98891  31.023  13.867  12.775
27166W        W98892  11.753  36.403  10.366
27167W        W98893  19.535  15.837   0.865
27168W        W98894   1.107  27.966   0.753
27169W        W98895  11.586   6.821   3.141
27170W        W98896  24.983  33.429   2.403
27171W        W98897   0.821  22.308  14.847
27172W        W98898  14.183  39.268   3.195
27173W        W98899  30.058  15.911   1.938
27174W        W98900  18.431  43.283   3.906
27175W        W98901  17.579   5.393   0.848
27176W        W98902  34.366  17.320  10.732
27177W        W98903  32.645  23.438  10.648
27178W        W98904  36.140  23.046  10.629
27179W        W98905  15.217  38.793  14.369
27180W        W98906  33.661  36.781   1.444
27181W        W98907  36.540  38.597  10.692
27182W        W98908  16.497  30.369  10.361
27183W        W98909  42.514  31.468  14.957
27184W        W98910  12.879  12.165   0.924
27185W        W98911  30.215  43.080  12.686
27186W        W98912  11.789  16.014  11.911
27187W        W98913   9.675  17.548   0.400
27188W        W98914  35.149   5.933  14.060
27189W        W98915   5.384  35.782  13.372
27190W        W98916  16.816   3.015   1.710
27191W        W98917  39.270  30.492   5.147
27192W        W98918   5.498  35.570   0.365
27193W        W98919  19.551  36.638  13.683
27194W        W98920  33.997  18.243  12.095
27195W        W98921  39.343   8.678  11.893
27196W        W98922  11.299   9.513  14.795
27197W        W98923  18.344   5.295  14.790
27198W        W98924  43.470   5.053   3.245
27199W        W98925  37.222  30.001   3.680
27200W        W98926  37.450  13.045  10.667
27201W        W98927  17.566  24.943   4.919
27202W        W98928   4.808   8.704  11.595
27203W        W98929  35.789  25.042   4.594
27204W        W98930  17.244  37.100   3.630
27205W        W98931  41.574   4.818  13.610
27206W        W98932  30.623  29.486   2.822
27207W        W98933  21.725   7.222  12.939
27208W        W98934  26.818  22.662  12.002
27209W        W98935  37.953  11.340   3.914
27210W        W98936   6.961  15.783  13.792
27211W        W98937  25.145  33.525   1.928
27212W        W98938  27.941  36.597   4.515
27213W        W98939   8.286  24.082  13.371
27214W        W98940  41.361  42.878   4.743
27215W        W98941   4.970  30.855   2.851
27216W        W98942  42.983  21.029   4.103
27217W        W98943  36.465  34.613  13.041
27218W        W98944  32.340  37.140  11.584
27219W        W98945  10.680  32.018   0.373
27220W        W98946  26.135  34.801  10.478
27221W        W98947  32.351   6.813   3.167
27222W        W98948  34.243  12.106  11.526
27223W        W98949  17.755  14.729   3.635
27224W        W98950   8.296  38.889  10.715
27225W        W98951  28.045   7.819   2.342
27226W        W98952  12.419  40.127   4.576
27227W        W98953   5.034  13.106  13.169
27228W        W98954  33.484   8.836   0.863
27229W        W98955  21.838  22.137   2.311
27230W        W98956   8.852  32.133  13.676
27231W        W98957  13.895  43.798  14.461
27232W        W98958  10.477  18.032   3.762
27233W        W98959   8.274  22.515   3.632
27234W        W98960  14.678  28.165  13.101
27235W        W98961   7.839  20.090  14.714
27236W        W98962   5.828   4.911   2.672
27237W        W98963   2.779  25.492  13.521
27238W        W98964  44.275  35.071   3.689
27239W        W98965   3.444   5.494  13.817
27240W        W98966   9.276   3.076  13.181
27241W        W98967  29.934   3.220   1.995
27242W        W98968  44.995   1.672   3.588
27243W        W98969  31.863   3.514  11.527
27244W        W98970  20.237  28.922   1.926
27245W        W98971  11.889  24.768   1.354
27246W        W98972  27.576  40.507   3.441
27247W        W98973  28.805  17.739  10.636
27248W        W98974  30.070   5.216  13.904
27249W        W98975   4.421  43.754  12.401
27250W        W98976  15.661  42.719  13.507
27251W        W98977  14.775   2.417   4.646
27252W        W98978  41.314  21.012  14.726
27253W        W98979   6.869  24.790  13.003
27254W        W98980  30.866  26.058   9.958
27255W        W98981  24.146  18.613  11.629
27256W        W98982   6.987  41.008  13.852
27257W        W98983  17.070  38.172   3.680
27258W        W98984  32.318  42.826   0.418
27259W        W98985  10.804   8.767  12.055
27260W        W98986  40.304  21.980  14.023
27261W        W98987   9.114  39.015  12.391
27262W        W98988  33.637  19.702   3.282
27263W        W98989  33.991  15.373   1.895
27264W        W98990  42.092   5.955   2.850
27265W        W98991  30.497  21.528   1.320
27266W        W98992  27.699  19.107  11.127
27267W        W98993  27.019  29.491   2.284
27268W        W98994  19.582  28.933   4.824
27269W        W98995  33.456  29.736  11.899
27270W        W98996  10.379  37.953   3.325
27271W        W98997  24.366  13.830   0.917
27272W        W98998  20.655  15.652   0.843
27273W        W98999  44.444  14.130  13.974
27274W        W99000  18.971  18.010  12.543
27275W        W99001  21.027   2.853   4.712
27276W        W99002  33.378  44.731   2.575
27277W        W99003  27.878  42.322   3.310
27278W        W99004   5.751  22.302  10.827
27279W        W99005  38.048  11.175   0.880
27280W        W99006  38.295  24.027   3.678
27281W        W99007  16.130  42.423   3.232
27282W        W99008   4.966  24.817  11.023
27283W        W99009  36.676  28.079  13.548
27284W        W99010  20.145  18.574   1.923
27285W        W99011  33.939  32.290   4.207
27286W        W99012   8.602  36.535  14.988
27287W        W99013  42.573  40.413  11.507
27288W        W99014  41.560  26.961  12.462
27289W        W99015   1.822   9.955  11.480
27290W        W99016  18.254  36.346  12.477
27291W        W99017  26.012  40.327   0.897
27292W        W99018   3.833   8.784  11.552
27293W        W99019  23.559   0.090   1.880
27294W        W99020  12.371  35.549   0.157
27295W        W99021   6.411  44.868  12.124
27296W        W99022   0.987   3.090   4.048
27297W        W99023  10.695  22.609  10.200
27298W        W99024  28.218   6.258   1.673
27299W        W99025  22.455   6.103  11.087
27300W        W99026  23.186  17.550   4.603
27301W        W99027  22.402  18.706  11.180
27302W        W99028   2.660  12.394   4.862
27303W        W99029   7.721  35.085  12.363
27304W        W99030  15.189  12.169  14.490
27305W        W99031  20.681  14.561   1.113
27306W        W99032   9.893   8.353   0.256
27307W        W99033   4.175  39.768  12.395
27308W        W99034   2.971   4.694  13.076
27309W        W99035  44.783  20.144  10.354
27310W        W99036  21.566   6.276   3.726
27311W        W99037   1.107   0.332  14.518
27312W        W99038  39.185  24.228  14.772
27313W        W99039   1.734  25.569   4.957
27314W        W99040   7.349   2.560  14.573
27315W        W99041  44.889  32.149   2.789
27316W        W99042  31.617  39.383  13.529
27317W        W99043  13.608  16.192  12.637
27318W        W99044  11.741  40.256  13.881
27319W        W99045  10.383  19.191   1.533
27320W        W99046  10.522  14.350  13.398
27321W        W99047  28.003  44.514  10.710
27322W        W99048  33.431  19.321  12.406
27323W        W99049   7.470   3.312   4.112
27324W        W99050  23.611  17.652  14.563
27325W        W99051  13.358  34.052  12.071
27326W        W99052  10.004  44.848   2.316
27327W        W99053  25.618  13.326  14.997
27328W        W99054   6.544  40.447  14.842
27329W        W99055  27.971  16.001  10.652
27330W        W99056   9.655  21.510   4.316
27331W        W99057  43.220  35.943   4.623
27332W        W99058  36.434   2.871   3.342
27333W        W99059  30.400  32.554   2.822
27334W        W99060  43.867  22.529   1.518
27335W        W99061  17.418  13.706  13.377
27336W        W99062  36.508  34.986   4.677
27337W        W99063  14.722  28.062   3.595
27338W        W99064  20.986  28.424   2.412
27339W        W99065  17.176   4.770  11.418
27340W        W99066  39.321   5.003   0.739
27341W        W99067  13.777  12.624  14.060
27342W        W99068  42.554  22.869   0.720
27343W        W99069  42.324  32.972  12.421
27344W        W99070  21.136  38.269   4.252
27345W        W99071   4.613   0.918  14.588
27346W        W99072   8.481   3.363   0.863
27347W        W99073  17.539  12.306   0.433
27348W        W99074   2.402  39.420  11.012
27349W        W99075  35.306  19.071  14.448
27350W        W99076  15.867  12.042   2.309
27351W        W99077  43.776  42.738   2.677
27352W        W99078  28.583  19.105  12.898
27353W        W99079  11.660  36.554  11.370
27354W        W99080   9.562   8.678   3.269
27355W        W99081   2.942   8.754   0.846
27356W        W99082  28.926   0.210  13.365
27357W        W99083  13.645   9.695   4.728
27358W        W99084  38.605  44.428   0.526
27359W        W99085   0.520  14.373  12.371
27360W        W99086   3.217  18.479  12.525
27361W        W99087  37.164  43.850  12.973
27362W        W99088  38.892  43.458  10.627
27363W        W99089  33.556   7.775   2.388
27364W        W99090   0.899  39.462  10.881
27365W        W99091  41.590  40.779   0.426
27366W        W99092   6.371  21.992  13.020
27367W        W99093  43.924   1.310  14.368
27368W        W99094   1.258  17.684  12.880
27369W        W99095  36.061   9.693  14.868
27370W        W99096  19.731  28.479  13.890
27371W        W99097   7.819   8.708  13.551
27372W        W99098  21.538  43.984   3.278
27373W        W99099  34.993   8.631  11.450
27374W        W99100  36.780  18.134   4.805
27375W        W99101   0.372  31.316  13.231
27376W        W99102   8.568   8.498   0.380
27377W        W99103  26.138   2.300   3.652
27378W        W99104  15.107  27.936   4.223
27379W        W99105   6.176   3.379   2.942
27380W        W99106  17.692  41.983  11.262
27381W        W99107  10.644  15.849   0.231
27382W        W99108   5.749  34.039   0.185
27383W        W99109  19.205  24.189  13.106
27384W        W99110  40.566   3.123   2.340
27385W        W99111  16.756  29.028   2.251
27386W        W99112  21.600   8.111   2.893
27387W        W99113  36.539  16.644  12.195
27388W        W99114  18.613  44.514   2.825
27389W        W99115  34.675  17.132  13.005
27390W        W99116  44.719  38.158   2.475
27391W        W99117  13.915  13.907  12.090
27392W        W99118  22.769  24.449   4.022
27393W        W99119  44.955  31.491  10.684
27394W        W99120   2.940   3.999  14.394
27395W        W99121  23.021  13.540   2.176
27396W        W99122  33.492  37.605  13.606
27397W        W99123   7.405  37.756  10.760
27398W        W99124  32.551   3.176  12.527
27399W        W99125  41.823   9.495  14.762
27400W        W99126  44.453   7.554   1.263
27401W        W99127  34.768  19.797   1.410
27402W        W99128  29.963  20.598  13.302
27403W        W99129  35.560  14.230  11.455
27404W        W99130  29.688  23.847  13.871
27405W        W99131  42.432  21.913   3.102
27406W        W99132   6.731  12.212   2.804
27407W        W99133   8.857  24.242   4.103
27408W        W99134  18.772  35.247  11.977
27409W        W99135  21.649  42.918  12.746
27410W        W99136  32.550  23.722   5.604
27411W        W99137  11.524  26.969   4.444
27412W        W99138  28.591  24.697   4.281
27413W        W99139   4.282   4.796  11.071
27414W        W99140  19.008  13.281   0.392
27415W        W99141  21.164  26.194   3.709
27416W        W99142  38.954   8.784   0.195
27417W        W99143  10.363  29.158   0.547
27418W        W99144  39.234   7.085  14.525
27419W        W99145  16.500  25.800  13.552
27420W        W99146   6.134   7.750  10.573
27421W        W99147  12.917   5.324  11.104
27422W        W99148  15.239   2.205   3.390
27423W        W99149  39.523  22.005   2.332
27424W        W99150  16.855  16.077  13.203
27425W        W99151  24.643  29.176   4.061
27426W        W99152  13.794  14.430   2.297
27427W        W99153   3.305  15.143   1.228
27428W        W99154  35.167  22.093  13.843
27429W        W99155  35.481  34.808  13.537
27430W        W99156  29.075  19.624  12.834
27431W        W99157  19.888  26.958  13.850
27432W        W99158   8.343   9.197   1.267
27433W        W99159  12.540   1.232  14.396
27434W        W99160  29.962  29.409  11.497
27435W        W99161  18.311  12.038  11.041
27436W        W99162   8.730  18.100   3.673
27437W        W99163  12.551  34.093  12.365
27438W        W99164  40.300  37.312   3.250
27439W        W99165  10.937  32.854  12.148
27440W        W99166  24.235  34.048  11.559
27441W        W99167  16.107  13.836   1.268
27442W        W99168  21.777  15.277   2.922
27443W        W99169   7.961  27.244  10.773
27444W        W99170  11.657   2.238   3.692
27445W        W99171   9.291  13.191  13.545
27446W        W99172  11.610  43.451   0.328
27447W        W99173  43.258  34.926  10.614
27448W        W99174  17.003  33.503  11.061
27449W        W99175   2.333  16.707  10.903
27450W        W99176  24.475  25.900   1.309
27451W        W99177  11.689  22.762  10.030
27452W        W99178   1.646  11.337  14.774
27453W        W99179   7.652  32.400  14.395
27454W        W99180  17.153  26.980  11.220
27455W        W99181  26.160  26.730   2.670
27456W        W99182  40.068  36.954  13.842
27457W        W99183  19.064  16.982  14.445
27458W        W99184  32.792  31.424  12.020
27459W        W99185  19.994  32.606   4.611
27460W        W99186  12.781  44.207  12.369
27461W        W99187   2.931   7.301  11.486
27462W        W99188  21.937  13.750   1.860
27463W        W99189   9.483  29.285  13.092
27464W        W99190  23.706  25.744   9.827
27465W        W99191  36.158  26.968  11.567
27466W        W99192  33.527  28.304   3.706
27467W        W99193  11.709  16.422   1.423
27468W        W99194   0.918   2.463  14.424
27469W        W99195   9.130   7.659  13.792
27470W        W99196   6.338  30.705   4.549
27471W        W99197  30.576  19.979   0.403
27472W        W99198  15.889  14.203  12.792
27473W        W99199  44.805  14.542   1.250
27474W        W99200  41.386  30.419  10.559
27475W        W99201   9.714  18.547  12.898
27476W        W99202   8.795  26.247  12.334
27477W        W99203  27.060  12.660  11.669
27478W        W99204  28.563  37.497   2.605
27479W        W99205  22.515  22.114  11.921
27480W        W99206  27.081  25.052  14.488
27481W        W99207  23.718  14.285   4.149
27482W        W99208  32.397  40.376   3.797
27483W        W99209  18.048   7.120  11.812
27484W        W99210  14.648  16.660  14.555
27485W        W99211   6.788  21.524   2.441
27486W        W99212   4.509  18.599  11.088
27487W        W99213  18.818  25.726  11.534
27488W        W99214  18.134  30.709  11.078
27489W        W99215  29.078  18.973   2.168
27490W        W99216  24.610  36.372  10.557
27491W        W99217  11.463   4.642  12.628
27492W        W99218  19.031  34.545  13.458
27493W        W99219  42.388  15.211   2.341
27494W        W99220  14.977  24.409  11.358
27495W        W99221  21.545  36.412   0.092
27496W        W99222  39.839  33.436   0.901
27497W        W99223   4.847  10.697   3.684
27498W        W99224  38.360  18.135  14.813
27499W        W99225  36.536  13.251  10.971
27500W        W99226  41.965   0.952  12.590
27501W        W99227  36.203  26.256  14.340
27502W        W99228  29.607  20.055   4.597
27503W        W99229  33.940   1.913   1.507
27504W        W99230  20.928  16.710   2.394
27505W        W99231  36.457  15.133   2.200
27506W        W99232   1.439  22.372   2.115
27507W        W99233  18.575  30.393  10.116
27508W        W99234  28.727   3.832  11.074
27509W        W99235   7.754  11.344  12.506
27510W        W99236   5.136  28.718  14.956
27511W        W99237   3.910  35.429  14.011
27512W        W99238  17.748  10.633  11.612
27513W        W99239  37.338  11.721  10.961
27514W        W99240  19.266  41.807  11.513
27515W        W99241  14.075  10.343  12.642
27516W        W99242  31.626   5.211   4.705
27517W        W99243  16.179  19.300   1.357
27518W        W99244  29.920  37.570  13.890
27519W        W99245  43.806  23.493  12.569
27520W        W99246  44.535  20.672   4.732
27521W        W99247  14.145  17.330  11.951
27522W        W99248  15.589   0.241   2.264
27523W        W99249  34.855  19.777  12.118
27524W        W99250  36.640  38.980   0.450
27525W        W99251   6.402  12.613   4.830
27526W        W99252  21.061  26.457   2.225
27527W        W99253  39.836  29.945   0.816
27528W        W99254  19.975  44.454  14.450
27529W        W99255  21.411   5.605   1.696
27530W        W99256  41.277   6.960  12.558
27531W        W99257  36.579  27.535  12.142
27532W        W99258  41.603   2.366   1.162
27533W        W99259  11.847   4.978   5.075
27534W        W99260  29.645   7.181   4.118
27535W        W99261  32.570  32.278   0.870
27536W        W99262  42.886  42.819  11.258
27537W        W99263  42.286   5.422  12.025
27538W        W99264  36.285  18.207   4.655
27539W        W99265  33.581   3.224   3.784
27540W        W99266  12.255  39.783  10.473
27541W        W99267  17.135  16.790   0.346
27542W        W99268   1.406  25.732   4.595
27543W        W99269  11.537  21.552  14.525
27544W        W99270   7.924  35.981   0.430
27545W        W99271  42.492   1.592   1.865
27546W        W99272  18.234  34.377   1.946
27547W        W99273  11.332  30.129  12.632
27548W        W99274  22.725  14.854   3.603
27549W        W99275  19.244  22.144   1.801
27550W        W99276  44.461  14.290   2.414
27551W        W99277  22.308  26.136   3.666
27552W        W99278  21.280  38.493   3.785
27553W        W99279  31.475  32.743  11.911
27554W        W99280  21.568  23.209  13.621
27555W        W99281  25.720   2.414  11.568
27556W        W99282  25.512  11.010   3.844
27557W        W99283  38.656  41.010  10.718
27558W        W99284  39.357  22.501  14.299
27559W        W99285   5.287  44.370  11.984
27560W        W99286   1.284  16.242  14.945
27561W        W99287   2.566  39.615  12.994
27562W        W99288  15.921  30.127   2.682
27563W        W99289  23.996  27.481   1.476
27564W        W99290  20.543  27.960  11.160
27565W        W99291  12.142   6.473  11.517
27566W        W99292  28.559  44.733   1.849
27567W        W99293  21.548  13.640  12.528
27568W        W99294  38.063  30.850   1.666
27569W        W99295   7.218  44.363  10.917
27570W        W99296  42.305  25.218   3.966
27571W        W99297  23.240  43.366  13.210
27572W        W99298  36.089   5.693  13.947
27573W        W99299  17.294  13.348   3.159
27574W        W99300  39.393  34.920  14.253
27575W        W99301   3.403  33.546  14.821
27576W        W99302  41.782  24.450  12.032
27577W        W99303  43.015  43.773   0.841
27578W        W99304  11.148  43.322  10.734
27579W        W99305  13.725  23.973   1.757
27580W        W99306  24.232  21.445  13.045
27581W        W99307  21.856  17.675  11.399
27582W        W99308  25.929  12.734   0.741
27583W        W99309  44.034  36.565  11.495
27584W        W99310  16.084   9.778   1.979
27585W        W99311  40.595  17.160   5.162
27586W        W99312  24.985  21.735  14.391
27587W        W99313  27.973  13.601  13.843
27588W        W99314  36.012  17.442  10.732
27589W        W99315   6.169  13.288   3.625
27590W        W99316  28.023  25.435   0.007
27591W        W99317   9.841  16.349   2.410
27592W        W99318  37.052  10.666  10.697
27593W        W99319  41.229  39.309  12.822
27594W        W99320   4.107  11.404   3.197
27595W        W99321  24.591  12.701  14.921
27596W        W99322  25.465  31.398   2.088
27597W        W99323  38.871  43.926  13.577
27598W        W99324   9.775  28.946   2.341
27599W        W99325  18.170  44.792   0.801
27600W        W99326  34.324  25.571   0.283
27601W        W99327  43.025   1.380  12.250
27602W        W99328  30.136  10.871  13.983
27603W        W99329   7.741  36.614   2.318
27604W        W99330  10.387   6.595   3.546
27605W        W99331   0.764  36.582   2.428
27606W        W99332  22.060  42.078   4.776
27607W        W99333  44.930  28.939   3.920
27608W        W99334   7.508  10.283   4.180
27609W        W99335  14.307  31.909  11.526
27610W        W99336  39.778   5.709   5.023
27611W        W99337   9.183   2.905  10.892
27612W        W99338  18.995  30.063   0.309
27613W        W99339  12.697   7.184   4.747
27614W        W99340  30.686  28.699   0.267
27615W        W99341  11.052   0.446   3.091
27616W        W99342  42.627   3.999   3.736
27617W        W99343  23.767  29.545   1.422
27618W        W99344  27.786   1.300  14.317
27619W        W99345  33.423  14.774   5.005
27620W        W99346  25.996   7.391  14.763
27621W        W99347   2.017  25.790  14.404
27622W        W99348  39.470  34.138   0.975
27623W        W99349  44.332  14.725   1.379
27624W        W99350  18.338  32.678  11.509
27625W        W99351   8.787  27.230   0.279
27626W        W99352   9.625   5.401   1.489
27627W        W99353   3.108  32.094   0.802
27628W        W99354  31.403  24.501   3.557
27629W        W99355  44.765  34.055  14.984
27630W        W99356  38.957  40.334   4.684
27631W        W99357  32.568  35.012   1.411
27632W        W99358  43.512   1.199   2.185
27633W        W99359  25.515  42.596   1.190
27634W        W99360  40.547  35.100   1.812
27635W        W99361  26.774  33.961  11.268
27636W        W99362  41.224  26.047   0.883
27637W        W99363  12.357  37.824   3.217
27638W        W99364  24.483   7.915  13.887
27639W        W99365  40.533  14.592  13.771
27640W        W99366  37.408  34.586  14.459
27641W        W99367  10.206  13.231   4.283
27642W        W99368   9.638  16.179  12.621
27643W        W99369  27.670  41.576  11.193
27644W        W99370  44.554  25.563  11.554
27645W        W99371  30.916  18.867  12.594
27646W        W99372   0.816   4.883  13.569
27647W        W99373  19.810  28.135   3.850
27648W        W99374  23.069  40.448   2.369
27649W        W99375  44.199  21.073   0.431
27650W        W99376  26.713  21.163  11.194
27651W        W99377  25.042  30.214  10.355
27652W        W99378   3.354  39.008   4.570
27653W        W99379  29.775  17.445   3.681
27654W        W99380   4.929   0.988   3.245
27655W        W99381   5.846  33.708   3.612
27656W        W99382   0.908  44.314   2.664
27657W        W99383  28.745   3.136   1.278
27658W        W99384  30.494   8.858   1.955
27659W        W99385  23.136  40.388   0.951
27660W        W99386  38.625  11.203   3.299
27661W        W99387   6.638  29.154  10.347
27662W        W99388  23.351   6.362   4.695
27663W        W99389  12.718  37.557  11.923
27664W        W99390  13.354  28.135   3.784
27665W        W99391   5.888  35.007   4.088
27666W        W99392  43.884   9.805   4.939
27667W        W99393  33.700  33.869   2.279
27668W        W99394   3.398  38.448   2.743
27669W        W99395   8.674  25.475   3.790
27670W        W99396  40.081  26.149   0.458
27671W        W99397  40.957   5.304  12.683
27672W        W99398  23.163  27.436   2.713
27673W        W99399  22.264  13.252   0.174
27674W        W99400  27.626  37.939  12.161
27675W        W99401   8.374  37.930  13.911
27676W        W99402  32.863  35.836   2.335
27677W        W99403  37.417  20.371   3.634
27678W        W99404  24.073  44.914   0.749
27679W        W99405  35.366  14.754   3.609
27680W        W99406  15.691  38.772   0.849
27681W        W99407  25.790  29.906   2.534
27682W        W99408   4.879  21.661   3.553
27683W        W99409  15.764  32.571   4.815
27684W        W99410  22.167  33.098  10.682
27685W        W99411  15.760  42.849   1.848
27686W        W99412  25.922   5.236   1.545
27687W        W99413  31.492  29.982   3.180
27688W        W99414  23.921   2.278   1.393
27689W        W99415   6.201  32.144  14.351
27690W        W99416  36.332  44.024  13.384
27691W        W99417   4.919  18.063  14.091
27692W        W99418   1.158  22.934   1.207
27693W        W99419  12.105  24.079   3.639
27694W        W99420   3.026  13.370  11.210
27695W        W99421  13.799  11.670  12.671
27696W        W99422  20.817  26.604   4.910
27697W        W99423  10.113   5.401   1.823
27698W        W99424   8.812   9.427  14.664
27699W        W99425  43.478  20.435  13.073
27700W        W99426  10.398  41.471  13.937
27701W        W99427  43.767   1.599   4.010
27702W        W99428  13.677  29.544  13.968
27703W        W99429  28.131  35.023   0.285
27704W        W99430   2.227   8.570  12.557
27705W        W99431  43.484   5.753   0.667
27706W        W99432   2.273  22.359   4.426
27707W        W99433  13.218   2.292   2.401
27708W        W99434  31.200  27.920   2.444
27709W        W99435  39.096  43.447   3.179
27710W        W99436   1.788  19.116  14.766
27711W        W99437  42.058  14.594   2.955
27712W        W99438  24.631   9.058   2.386
27713W        W99439  11.800  40.456  10.628
27714W        W99440   7.980  35.747   9.718
27715W        W99441  36.398  20.738   3.093
27716W        W99442  13.337  32.343  12.866
27717W        W99443  17.075  14.434  13.768
27718W        W99444   7.002   8.138   2.637
27719W        W99445  14.681   5.439  14.321
27720W        W99446  25.733   9.089  12.914
27721W        W99447  22.587   7.404  10.269
27722W        W99448   6.284   6.786   2.507
27723W        W99449   3.476  12.622  14.378
27724W        W99450  40.464   9.238  11.074
27725W        W99451  30.511  26.315   1.813
27726W        W99452  17.346  35.560  10.476
27727W        W99453   7.251  19.568  13.531
27728W        W99454  32.920  41.879   4.140
27729W        W99455   9.342  43.765  12.794
27730W        W99456   6.489   8.671   4.619
27731W        W99457  34.578  44.739  12.039
27732W        W99458  42.595   2.689   3.224
27733W        W99459   3.250  26.725   1.955
27734W        W99460  13.832  13.367  12.033
27735W        W99461   1.479  19.650  14.387
27736W        W99462  15.285  14.356  14.529
27737W        W99463  21.095  37.290   0.546
27738W        W99464  40.958   4.864   3.210
27739W        W99465  11.787  33.176   3.729
27740W        W99466  15.297  29.028   2.479
27741W        W99467  17.130   4.313   3.614
27742W        W99468   5.846  36.957   0.924
27743W        W99469  20.059  28.263  13.130
27744W        W99470  40.745  22.481  11.202
27745W        W99471   5.250  39.260   0.824
27746W        W99472   5.241  40.955   2.716
27747W        W99473  10.139  37.342  11.595
27748W        W99474   7.573  38.013   1.871
27749W        W99475  16.496  34.932  13.769
27750W        W99476  33.063  31.605  14.037
27751W        W99477   8.444  36.150  14.407
27752W        W99478  20.251  22.494   1.805
27753W        W99479  24.328  28.047  10.154
27754W        W99480  34.877  12.969  14.301
27755W        W99481  31.688  39.462   4.330
27756W        W99482   4.367  29.331   0.346
27757W        W99483  32.141  41.523   2.704
27758W        W99484  36.513  11.792  14.442
27759W        W99485  34.722  23.712  10.680
27760W        W99486  23.419   5.794  14.429
27761W        W99487  31.501  15.760  13.487
27762W        W99488  24.696   9.628   3.593
27763W        W99489   0.782   7.683   4.306
27764W        W99490  40.393  37.928   4.500
27765W        W99491  28.882  12.015   2.833
27766W        W99492  12.378  23.168   3.123
27767W        W99493  10.103  28.556   2.201
27768W        W99494  39.582  29.434  11.585
27769W        W99495  43.171  24.933   4.528
27770W        W99496  28.441  44.266  12.919
27771W        W99497   4.156  16.579  13.794
27772W        W99498  27.203  12.976  12.117
27773W        W99499   9.566   2.894  11.216
27774W        W99500   1.433  21.156  14.666
27775W        W99501  23.195  25.809  13.322
27776W        W99502  21.285  16.513   4.291
27777W        W99503  42.052  14.046  10.603
27778W        W99504   7.793  14.144  13.319
27779W        W99505  31.698  22.806   1.174
27780W        W99506  35.506  15.058  12.209
27781W        W99507  31.549   9.068   3.371
27782W        W99508  38.159  14.113   1.954
27783W        W99509  39.439  27.835   2.997
27784W        W99510  36.816  32.880   2.293
27785W        W99511  40.714  20.096  10.463
27786W        W99512   2.649  38.951  11.000
27787W        W99513   3.244  38.930  11.046
27788W        W99514  26.485  35.991   4.073
27789W        W99515   7.602  24.198  13.974
27790W        W99516  22.478   2.437   4.926
27791W        W99517  39.453  43.019  12.366
27792W        W99518  11.171  13.275   0.042
27793W        W99519  42.766  41.440  10.953
27794W        W99520  31.127  33.892   4.573
27795W        W99521  17.447   6.255   1.271
27796W        W99522  17.287  27.438   3.326
27797W        W99523   6.396   9.159  12.921
27798W        W99524  37.854  34.956  14.814
27799W        W99525  18.224  40.212  14.059
27800W        W99526   0.764   9.417  13.125
27801W        W99527  32.894   8.531   3.787
27802W        W99528   8.325  26.536  13.405
27803W        W99529  41.286   2.047   0.944
27804W        W99530  32.512   4.873  14.956
27805W        W99531  44.811  14.599  11.224
27806W        W99532  13.667  10.849   0.432
27807W        W99533  17.214  13.430  14.983
27808W        W99534   4.940   8.384   2.233
27809W        W99535  18.273  20.425   3.268
27810W        W99536  31.431  11.665   2.805
27811W        W99537  22.601  22.600  10.692
27812W        W99538   2.092  18.320   0.284
27813W        W99539  16.580   2.057   2.730
27814W        W99540  26.674   2.678  11.207
27815W        W99541   5.368  31.017  12.036
27816W        W99542   6.183  20.265   1.300
27817W        W99543  13.598  16.638  13.357
27818W        W99544  20.311   5.397   3.735
27819W        W99545  30.598   8.141  10.878
27820W        W99546   5.946  42.336   2.807
27821W        W99547  22.455  40.504   4.247
27822W        W99548  33.485   5.861  13.622
27823W        W99549   9.805  32.806   2.827
27824W        W99550   3.858  17.470  13.755
27825W        W99551  30.428  34.596  10.486
27826W        W99552  20.519   0.012  10.633
27827W        W99553  29.970  20.081   1.666
27828W        W99554  20.614  36.401  11.390
27829W        W99555  20.613  32.903   0.364
27830W        W99556   7.757  39.871   2.788
27831W        W99557  44.823  24.912   2.300
27832W        W99558  21.084  10.161  12.087
27833W        W99559  27.566   4.623   0.359
27834W        W99560  26.403  12.577  13.019
27835W        W99561   3.739  17.700   1.125
27836W        W99562  16.679  14.801   4.049
27837W        W99563  41.540  20.065   2.757
27838W        W99564  42.243  44.149   3.263
27839W        W99565   2.217  13.419   0.940
27840W        W99566  13.879  39.314   3.615
27841W        W99567  44.920  23.800   2.605
27842W        W99568  15.358  26.464   3.708
27843W        W99569  40.818   2.944   4.634
27844W        W99570  38.745   6.325  12.856
27845W        W99571  36.125   0.000   1.341
27846W        W99572  23.485  13.860   3.917
27847W        W99573   4.871  42.794  10.659
27848W        W99574   9.476   7.539   2.933
27849W        W99575   5.029  33.998  13.875
27850W        W99576  13.138  24.209  10.967
27851W        W99577  12.600   5.947   0.312
27852W        W99578  26.572  33.874  12.582
27853W        W99579  23.006  44.527   4.620
27854W        W99580  33.144  29.728  11.477
27855W        W99581  10.356  41.779   5.222
27856W        W99582   7.957  17.151   2.273
27857W        W99583  35.452  36.159   1.426
27858W        W99584  13.589  28.183   1.184
27859W        W99585  36.514  36.627  12.008
27860W        W99586  20.429  22.790   1.397
27861W        W99587  35.987   6.707  11.708
27862W        W99588   1.027   3.094  12.788
27863W        W99589  24.659  35.875  14.840
27864W        W99590  29.628   0.462  14.296
27865W        W99591  31.937  33.376  13.613
27866W        W99592  27.634  15.328  14.802
27867W        W99593  23.053   3.238   3.078
27868W        W99594   5.202  28.158  12.402
27869W        W99595   7.890  29.453   1.308
27870W        W99596  31.525  26.430  13.911
27871W        W99597  24.552  20.291  13.790
27872W        W99598  41.841  38.605  14.044
27873W        W99599   5.902   1.756   1.897
27874W        W99600   1.400   5.206  13.915
27875W        W99601  13.621   4.894   3.999
27876W        W99602  10.062  37.600   3.101
27877W        W99603  31.683  40.891  13.817
27878W        W99604   1.538   9.436  13.538
27879W        W99605   1.311  15.905  12.092
27880W        W99606   7.338  25.609   3.239
27881W        W99607  42.631  35.850   3.752
27882W        W99608  40.583  40.185   2.815
27883W        W99609  39.445  16.696  14.927
27884W        W99610   2.471   0.877   4.007
27885W        W99611   6.350   7.656  12.880
27886W        W99612  41.093  26.497   3.284
27887W        W99613  28.176  21.144   4.208
27888W        W99614  37.928   4.884   2.241
27889W        W99615  23.193  10.821  12.077
27890W        W99616  33.847  38.805   4.126
27891W        W99617  23.280   0.176   3.858
27892W        W99618  32.453   0.435  11.221
27893W        W99619  37.502  37.043   1.621
27894W        W99620  18.785   1.923   2.209
27895W        W99621   9.874  14.723   1.339
27896W        W99622  41.387  23.892  12.652
27897W        W99623   4.860  15.601  10.173
27898W        W99624  22.491  28.511   5.408
27899W        W99625   3.331  20.132   4.532
27900W        W99626  35.920  19.613  11.269
27901W        W99627  17.517  10.104   3.699
27902W        W99628   2.331  24.670  11.585
27903W        W99629  30.689  25.016  14.333
27904W        W99630  28.068  30.982   1.787
27905W        W99631  25.147  39.839   0.854
27906W        W99632  22.295  25.490  10.210
27907W        W99633  30.517  23.498   1.454
27908W        W99634  40.932   4.480  11.159
27909W        W99635  24.704   3.482   4.677
27910W        W99636  29.848  34.922   2.128
27911W        W99637  22.152  33.001   0.693
27912W        W99638  38.958  27.143   1.906
27913W        W99639  24.152  15.087   0.177
27914W        W99640  35.267  17.900   0.817
27915W        W99641  32.586  28.451   0.029
27916W        W99642  28.700  10.242  14.543
27917W        W99643  30.461  35.654  10.666
27918W        W99644   1.682  19.727   3.575
27919W        W99645  23.310  35.617  11.192
27920W        W99646  24.651  28.191   0.888
27921W        W99647  20.551  41.843   0.713
27922W        W99648   0.273  40.754   0.907
27923W        W99649  38.559  21.690   0.226
27924W        W99650  12.504  13.789  13.081
27925W        W99651  35.335  30.943   0.862
27926W        W99652  38.384   4.820  10.360
27927W        W99653  24.869  20.428   3.349
27928W        W99654   3.213  29.722  10.756
27929W        W99655  40.482   3.213   3.667
27930W        W99656  34.628   3.965   4.607
27931W        W99657  35.071  26.899  13.901
27932W        W99658  37.770  27.924  11.887
27933W        W99659  35.518  42.735  11.638
27934W        W99660  25.601  14.701   0.311
27935W        W99661  30.139  36.362   2.251
27936W        W99662  11.834  11.855   2.395
27937W        W99663  40.054  28.140   4.513
27938W        W99664  32.090  11.770  11.930
27939W        W99665  43.215  23.752  13.373
27940W        W99666  32.335  24.391   4.490
27941W        W99667   7.602  40.938   2.846
27942W        W99668  35.936  40.029   2.406
27943W        W99669  39.392  16.054   2.966
27944W        W99670  37.027   7.493   1.257
27945W        W99671  29.548   6.959  13.488
27946W        W99672  43.381   9.663   4.089
27947W        W99673  21.770   3.142   4.647
27948W        W99674  12.147  26.381  12.981
27949W        W99675  37.567  37.082   4.060
27950W        W99676  19.284  36.517   1.936
27951W        W99677  16.281   9.391  14.755
27952W        W99678  11.091   9.100  13.437
27953W        W99679  11.731  14.785  14.055
27954W        W99680  23.602   8.191  10.751
27955W        W99681   6.761  32.479   2.392
27956W        W99682  14.271  33.515  10.669
27957W        W99683   2.901  34.501  13.443
27958W        W99684   8.396  12.854   2.230
27959W        W99685  41.709   3.175   0.331
27960W        W99686  10.023  35.425   2.707
27961W        W99687  18.957   0.965   1.805
27962W        W99688  37.839  23.155   1.724
27963W        W99689  24.533  39.260   4.602
27964W        W99690  32.395   0.498  10.711
27965W        W99691   0.231  42.334   1.832
27966W        W99692  15.789  43.362  10.625
27967W        W99693   0.141  44.236   1.339
27968W        W99694   1.176   5.458   1.670
27969W        W99695  12.746  22.059   3.819
27970W        W99696  22.925  22.233  11.579
27971W        W99697  12.841  44.399   3.101
27972W        W99698  38.862  38.378  11.581
27973W        W99699   8.649  21.653   2.883
27974W        W99700   4.417  29.826   0.480
27975W        W99701  10.348  35.562  14.319
27976W        W99702  21.040  44.835  12.336
27977W        W99703   2.663  29.159   3.650
27978W        W99704  37.974  18.761  11.182
27979W        W99705   8.677  43.254  12.443
27980W        W99706  36.508  19.821   1.383
27981W        W99707  32.817  15.541  11.461
27982W        W99708  28.215  10.319  12.664
27983W        W99709  40.897  36.049  14.571
27984W        W99710   1.308  24.037   0.809
27985W        W99711  38.848  14.108  13.519
27986W        W99712   3.214   5.233   1.326
27987W        W99713   3.954  15.864   0.264
27988W        W99714  14.636  40.178   4.982
27989W        W99715   5.065  17.522   1.426
27990W        W99716  39.767  32.106   4.192
27991W        W99717  13.313  23.554   3.920
27992W        W99718  30.135  18.964  12.090
27993W        W99719  24.674   9.810   3.112
27994W        W99720  10.146  15.942  12.609
27995W        W99721  32.525   4.363  10.502
27996W        W99722   2.113  32.894   4.300
27997W        W99723  36.001  34.073   4.900
27998W        W99724  24.127   3.026   3.307
27999W        W99725  20.697  39.360  11.046
28000W        W99726   3.983  12.552  14.990
28001W        W99727  21.226   6.174   2.325
28002W        W99728  24.509   2.833  11.297
28003W        W99729  10.324  35.558  13.248
28004W        W99730  42.322  40.416   0.836
28005W        W99731  12.750  15.351  12.674
28006W        W99732  36.206  37.583  11.889
28007W        W99733   2.613  21.995   3.730
28008W        W99734  27.712  10.684  10.613
28009W        W99735  26.521  19.055   4.110
28010W        W99736  28.136  27.475   1.439
28011W        W99737  12.201  39.728   0.912
28012W        W99738   1.490  20.000  11.523
28013W        W99739  29.508  40.747  14.410
28014W        W99740   5.816  41.910  12.056
28015W        W99741  44.459  34.126  14.000
28016W        W99742  23.532  11.278  12.014
28017W        W99743   6.953  42.698   2.283
28018W        W99744  37.541  16.129   4.116
28019W        W99745  36.345  41.178   5.197
28020W        W99746  41.788  38.810   0.311
28021W        W99747  14.656  11.358  13.017
28022W        W99748  12.876  13.384  14.737
28023W        W99749  19.814  11.134  14.658
28024W        W99750  36.799  40.676  11.147
28025W        W99751  19.970  36.018   2.014
28026W        W99752  13.752  13.756   0.186
28027W        W99753   6.737  37.348  14.126
28028W        W99754  24.975  34.455  11.175
28029W        W99755  32.672  39.056   3.610
28030W        W99756   7.763  21.326  14.014
28031W        W99757  18.055   5.816   2.644
28032W        W99758   6.576   2.017  10.854
28033W        W99759  14.077  37.555  12.703
28034W        W99760  26.824  23.647  12.881
28035W        W99761  25.989  17.629  10.739
28036W        W99762  38.443  27.204   2.655
28037W        W99763  26.075  19.143  12.635
28038W        W99764  44.305   6.353  12.502
28039W        W99765  31.686   9.522   3.608
28040W        W99766  23.913  14.388   2.346
28041W        W99767   9.918  14.007  10.190
28042W        W99768  38.949  40.784  14.762
28043W        W99769  28.330  26.180  13.882
28044W        W99770   2.274  43.330   4.566
28045W        W99771  43.200   2.889  10.473
28046W        W99772  10.227  38.869   3.259
28047W        W99773   8.633  37.288   3.374
28048W        W99774  28.454  35.936  14.232
28049W        W99775  28.879  44.416  11.674
28050W        W99776  15.621   6.696   1.310
28051W        W99777  39.037  30.466  12.052
28052W        W99778  36.585  39.555  13.799
28053W        W99779  17.581  19.907   4.542
28054W        W99780  18.690  34.805   1.113
28055W        W99781  20.271  39.194   2.022
28056W        W99782  14.667  19.029   0.320
28057W        W99783  12.275  36.989   0.726
28058W        W99784  18.721   2.067   1.204
28059W        W99785   2.232  35.581  11.079
28060W        W99786   6.794  24.073  11.648
28061W        W99787  11.077  26.255   3.167
28062W        W99788  17.818  13.749  12.140
28063W        W99789  24.294   7.966  13.068
28064W        W99790   8.808  10.914  14.993
28065W        W99791   4.720  21.796   3.045
28066W        W99792  33.675  33.013  14.210
28067W        W99793  11.076  40.923   1.512
28068W        W99794  43.501   4.660  11.639
28069W        W99795   9.095  29.567  12.936
28070W        W99796  42.065   8.893   2.815
28071W        W99797  24.417  35.878  10.589
28072W        W99798  21.553  27.782   3.058
28073W        W99799  27.716  31.461   1.189
28074W        W99800  21.971  22.099  12.950
28075W        W99801  11.273  40.799  13.628
28076W        W99802  11.300  32.087  11.202
28077W        W99803   6.754   0.432  13.091
28078W        W99804  36.852  20.027  12.490
28079W        W99805  40.129  14.939  12.900
28080W        W99806   4.697  44.067   1.632
28081W        W99807   5.469  24.623  14.530
28082W        W99808   3.324  20.617   0.834
28083W        W99809   0.389  39.886   2.626
28084W        W99810  29.673  40.262  12.426
28085W        W99811  39.822  33.984  12.128
28086W        W99812  34.020  25.242   3.309
28087W        W99813  21.597  14.616   3.362
28088W        W99814  38.337  10.600  12.787
28089W        W99815  22.479  43.346   1.945
28090W        W99816  25.043  28.125   4.056
28091W        W99817   9.863  41.345   4.185
28092W        W99818  31.039   6.140  13.928
28093W        W99819  20.321  43.220  13.531
28094W        W99820  21.590  25.555  10.576
28095W        W99821  18.178  37.804  14.670
28096W        W99822  44.406  22.609   2.312
28097W        W99823  30.921  24.317   5.167
28098W        W99824  31.102  19.030   2.599
28099W        W99825  24.178  36.953   0.138
28100W        W99826  37.851  27.483   1.376
28101W        W99827  19.221  43.402  11.020
28102W        W99828  26.594  16.062  11.772
28103W        W99829  35.140  13.921   4.221
28104W        W99830   3.524  31.239  11.162
28105W        W99831  24.012  17.855   3.169
28106W        W99832   3.865  37.782  10.206
28107W        W99833  44.191  18.070   1.890
28108W        W99834  21.588  10.074  11.511
28109W        W99835  27.376   8.810   2.278
28110W        W99836   7.269  31.948  12.895
28111W        W99837  32.371  36.290   3.416
28112W        W99838   4.341  28.875   2.346
28113W        W99839  35.526  44.565   2.809
28114W        W99840   5.476  35.989   1.065
28115W        W99841  23.788   0.353   2.303
28116W        W99842   0.215  31.277   2.266
28117W        W99843   5.413  44.595   1.587
28118W        W99844  33.213  11.064   0.895
28119W        W99845   2.330  35.579   1.340
28120W        W99846  42.979   2.128  13.363
28121W        W99847  30.028  26.216  11.516
28122W        W99848   2.721  14.154   2.793
28123W        W99849  39.027  34.504  11.111
28124W        W99850  33.499  29.427  14.527
28125W        W99851  11.579  35.152  11.044
28126W        W99852   6.888  22.136   3.741
28127W        W99853   0.423   1.275  13.418
28128W        W99854  20.546  34.234   5.096
28129W        W99855  31.350   7.865   0.277
28130W        W99856  33.141  36.532   3.679
28131W        W99857   2.898  18.137  11.390
28132W        W99858   3.489  24.169  11.222
28133W        W99859  17.993  19.326   1.331
28134W        W99860   3.273   7.059   2.391
28135W        W99861   9.157  20.410   2.932
28136W        W99862  22.709  24.614   0.410
28137W        W99863   1.166   4.356   0.484
28138W        W99864  44.413  38.108  13.428
28139W        W99865   8.052  35.052  10.130
28140W        W99866  37.553  14.854  12.620
28141W        W99867  26.449  41.468  14.788
28142W        W99868  13.775  36.531   3.863
28143W        W99869  33.097  13.230  14.595
28144W        W99870  43.509  25.043  13.716
28145W        W99871   1.995  35.845   3.001
28146W        W99872  27.963  25.989   0.288
28147W        W99873   8.757  30.163   4.812
28148W        W99874  43.944   2.660  14.729
28149W        W99875  33.087  21.536   3.688
28150W        W99876  23.507  24.563  13.860
28151W        W99877   6.231  34.055  12.472
28152W        W99878   7.696   8.134   3.890
28153W        W99879  31.463  42.551  14.163
28154W        W99880  25.657  40.135   5.103
28155W        W99881  42.000  41.740  11.087
28156W        W99882  27.903  36.869  13.911
28157W        W99883  11.696  35.876  10.153
28158W        W99884  12.357  14.775   1.353
28159W        W99885  32.078   5.911  11.574
28160W        W99886  42.556  16.191  14.370
28161W        W99887   1.789  20.878  10.685
28162W        W99888  25.652  40.031  12.587
28163W        W99889  11.929  28.746  12.143
28164W        W99890  36.494  29.397   5.144
28165W        W99891   4.133  29.173  13.027
28166W        W99892  12.766  13.142   3.118
28167W        W99893  35.625   9.225   2.820
28168W        W99894   4.386   0.727   4.859
28169W        W99895   4.782  37.888   4.437
28170W        W99896   1.760  28.587   4.644
28171W        W99897  20.425  31.014  12.225
28172W        W99898  27.563  22.342   3.220
28173W        W99899  38.896   8.353   3.357
28174W        W99900  28.403   2.026  12.291
28175W        W99901  34.465  22.212  10.657
28176W        W99902  12.325  34.405  13.928
28177W        W99903  23.504  41.716   0.327
28178W        W99904  16.069  20.524   2.800
28179W        W99905  24.590  43.799  13.146
28180W        W99906  38.969  13.765   3.658
28181W        W99907  26.518  39.182   2.399
28182W        W99908   8.741   0.245  14.168
28183W        W99909  31.096  33.483   2.373
28184W        W99910  36.400   6.945  12.534
28185W        W99911  10.889  32.495   0.316
28186W        W99912  22.205  37.623  13.404
28187W        W99913  23.582  25.521   2.536
28188W        W99914  37.858  15.160  12.272
28189W        W99915  35.783   6.694   0.945
28190W        W99916  11.176  37.322  13.383
28191W        W99917  37.311  39.494  10.626
28192W        W99918  42.654  21.780  13.658
28193W        W99919  29.478  44.273  12.538
28194W        W99920  15.150  35.455  12.105
28195W        W99921  44.966  32.916  11.032
28196W        W99922  40.447  22.005   0.794
28197W        W99923  31.467  25.981  11.558
28198W        W99924  15.338   8.627  11.095
28199W        W99925  29.575  18.072   0.480
28200W        W99926   3.801  44.066  14.750
28201W        W99927  43.914   4.974  11.608
28202W        W99928  39.848   9.890   4.568
28203W        W99929   7.620  38.331  12.853
28204W        W99930   2.333  22.305  12.887
28205W        W99931  22.644  27.282  12.400
28206W        W99932  14.834  17.524  13.974
28207W        W99933  44.559   0.350   2.758
28208W        W99934  33.002   8.902   5.027
28209W        W99935  14.481  22.334   4.298
28210W        W99936   3.942  27.398   1.437
28211W        W99937  31.650  20.783  13.537
28212W        W99938   0.265  31.351   0.482
28213W        W99939  41.637  17.123   0.342
28214W        W99940  39.094   2.354   1.153
28215W        W99941  20.503  24.399   1.708
28216W        W99942   3.383   2.283   3.721
28217W        W99943  22.057  38.658   4.244
28218W        W99944  15.310  28.203   4.642
28219W        W99945   2.860   4.018   0.855
28220W        W99946  17.576  44.061  14.121
28221W        W99947  27.012  20.153   3.627
28222W        W99948  25.140  17.143  12.321
28223W        W99949  39.286  14.693  13.035
28224W        W99950  19.523  43.401   4.830
28225W        W99951   9.694   4.990  14.279
28226W        W99952  43.352  11.761  10.189
28227W        W99953  34.001  41.333   1.410
28228W        W99954   3.314  38.411   4.194
28229W        W99955  14.757  38.268  14.841
28230W        W99956  36.729  42.995   3.715
28231W        W99957  37.854  44.610   4.644
28232W        W99958  34.501  43.902   4.520
28233W        W99959   1.487  37.924   3.829
28234W        W99960  32.538  17.088  14.962
28235W        W99961   3.164  42.126   3.691
28236W        W99962  11.123   7.264  12.126
28237W        W99963  17.055   0.074   2.293
28238W        W99964   3.172   2.492   4.190
28239W        W99965  34.005  28.881   5.043
28240W        W99966  43.958   1.472   3.104
28241W        W99967  23.549  27.506  12.376
28242W        W99968  16.929  30.666   3.113
28243W        W99969  21.590  23.172  10.607
28244W        W99970  43.092   6.245   3.690
28245W        W99971  16.103  37.393  14.795
28246W        W99972  42.954  38.385  12.442
28247W        W99973  30.744  20.090   3.659
28248W        W99974  22.144   7.018  11.793
28249W        W99975  18.809  28.894   0.918
28250W        W99976  36.030  11.247   4.114
28251W        W99977  12.203  18.338   2.358
28252W        W99978  40.684  27.868  13.849
28253W        W99979   8.722  38.343   1.714
28254W        W99980   0.316  43.657   1.675
28255W        W99981   3.192  23.085   1.405
28256W        W99982  16.728  17.518  14.742
28257W        W99983  32.615  13.875  12.984
28258W        W99984  22.559  39.772   2.726
28259W        W99985  15.346  33.529   1.349
28260W        W99986   5.699  38.762  13.001
28261W        W99987  36.395  31.445   4.578
28262W        W99988  32.006   8.424  11.645
28263W        W99989  37.554  28.325   3.193
28264W        W99990  20.677  22.969   2.260
28265W        W99991  29.563  10.639  14.300
28266W        W99992  34.251  42.122  11.457
28267W        W99993  43.984  37.341   1.450
28268W        W99994  31.403  35.484  12.400
28269W        W99995   2.727   9.909  13.613
28270W        W99996  16.171  23.228  13.912
28271W        W99997   3.910   3.090  12.127
28272W        W99998  11.610  14.669   0.479
28273W        W99999  35.186  40.673   1.388
28274W        W    0  37.103  18.383   0.819
28275W        W    1   8.494  26.658  10.983
28276W        W    2   3.669  35.460   0.830
28277W        W    3  28.716  24.651   3.378
28278W        W    4  28.512  26.072  10.982
28279W        W    5  22.456   0.291  13.115
28280W        W    6  10.932  34.994   4.720
28281W        W    7  16.025   2.913  12.029
28282W        W    8  25.530  25.654   0.441
28283W        W    9  10.568  37.469   3.231
28284W        W   10  31.515  19.803   3.292
28285W        W   11  40.566  21.999  13.559
28286W        W   12   7.579  42.749  11.216
28287W        W   13   2.709  10.405  11.576
28288W        W   14  29.906   1.672  13.447
28289W        W   15  24.490  15.349   2.334
28290W        W   16  44.853  32.135   0.719
28291W        W   17  29.438  30.474   0.679
28292W        W   18  14.943  25.420  11.629
28293W        W   19  34.187   2.480   1.354
28294W        W   20  25.026  32.891  12.903
28295W        W   21  26.857  25.904  13.080
28296W        W   22  25.981  34.227   5.049
28297W        W   23  30.359  24.238   2.657
28298W        W   24  14.266  17.730  14.452
28299W        W   25  26.634  11.853  12.516
28300W        W   26  25.038  25.367  10.634
28301W        W   27  37.335  33.738  11.411
28302W        W   28   3.733  18.462  12.531
28303W        W   29   3.176   2.212   5.031
28304W        W   30  42.991  12.361  13.806
28305W        W   31  13.476  21.761  12.630
28306W        W   32  27.092  21.781   2.645
28307W        W   33  20.375  43.980  12.105
28308W        W   34   6.011   5.343   0.516
28309W        W   35   0.956  26.292  11.146
28310W        W   36  34.146  38.601  14.494
28311W        W   37  22.587  12.546  12.042
28312W        W   38  31.737  17.754   1.773
28313W        W   39  25.027  33.425  11.737
28314W        W   40  10.312  34.253   5.184
28315W        W   41  21.283  11.567  13.756
28316W        W   42   4.620  36.401   1.620
28317W        W   43  20.127   3.856   4.687
28318W        W   44  14.241   4.451  13.395
28319W        W   45  15.273  12.062  13.966
28320W        W   46  23.685  44.115   2.848
28321W        W   47  44.474   8.180   0.857
28322W        W   48  43.449  25.055  10.660
28323W        W   49   1.755  24.485  10.923
28324W        W   50  41.126   0.686  14.380
28325W        W   51  17.568   2.080   2.666
28326W        W   52  40.981  30.023  11.177
28327W        W   53  29.475  11.337  11.706
28328W        W   54  28.197  12.117  13.855
28329W        W   55  31.179  21.029   4.563
28330W        W   56  20.140   8.731  14.833
28331W        W   57  41.935  12.519  10.683
28332W        W   58  20.677  42.021   4.595
28333W        W   59   8.271   7.005   0.497
28334W        W   60  15.241  15.179  10.646
28335W        W   61  31.858  22.024  14.291
28336W        W   62  18.167  41.359   4.786
28337W        W   63  24.433  29.991   0.469
28338W        W   64  43.702  14.789   2.195
28339W        W   65   3.173   2.172  13.397
28340W        W   66  33.085  12.155   3.102
28341W        W   67  11.764  37.841  13.386
28342W        W   68  22.122  15.363  10.940
28343W        W   69  16.894  25.188   0.812
28344W        W   70  35.918  23.498   0.784
28345W        W   71   2.353   9.753   4.016
28346W        W   72   2.244  19.029  11.350
28347W        W   73  25.437  18.655   0.392
28348W        W   74  19.150   9.255  11.308
28349W        W   75  12.841   4.416   1.356
28350W        W   76  44.322  41.024  10.742
28351W        W   77  22.902  40.977   1.243
28352W        W   78   3.500  37.880  11.164
28353W        W   79  27.634  10.386   3.189
28354W        W   80  28.718   4.726  11.410
28355W        W   81  43.321  39.825   1.703
28356W        W   82  28.467  12.899   1.805
28357W        W   83   0.935  41.934  12.919
28358W        W   84   2.338  10.420  14.858
28359W        W   85  13.183   2.249   2.914
28360W        W   86  39.485  43.501  13.765
28361W        W   87  17.811   9.675  13.011
28362W        W   88  36.454  23.103   1.984
28363W        W   89  19.744  34.621   4.168
28364W        W   90  19.748  34.541   3.164
28365W        W   91  13.667  39.732  13.073
28366W        W   92   8.725  21.246  14.410
28367W        W   93  25.492  14.620   4.949
28368W        W   94  15.519   1.385   1.233
28369W        W   95  38.249  36.858  14.471
28370W        W   96  39.505  16.699  12.006
28371W        W   97   3.929  15.674  14.772
28372W        W   98  18.772  38.914   4.080
28373W        W   99   5.925   0.259  13.899
28374W        W  100   4.513  28.097  13.525
28375W        W  101  22.125   2.777   2.270
28376W        W  102   6.752  28.543  12.414
28377W        W  103   1.220  26.532   0.593
28378W        W  104  38.471  18.565   1.851
28379W        W  105   7.402   9.470  13.483
28380W        W  106  15.202  17.316  14.263
28381W        W  107  38.237  41.983   2.801
28382W        W  108  16.081  19.543  11.888
28383W        W  109   5.304  18.515   4.136
28384W        W  110  36.129  26.787  11.087
28385W        W  111  12.274   3.673  12.028
28386W        W  112  25.679  25.667  11.636
28387W        W  113  24.133  23.864   4.843
28388W        W  114  16.815  28.084  13.648
28389W        W  115  18.991  16.756  12.116
28390W        W  116   2.852  31.804  11.585
28391W        W  117  27.004  32.451  13.886
28392W        W  118   5.732   0.161   3.672
28393W        W  119  34.470   0.862   4.392
28394W        W  120  34.158  21.112   1.283
28395W        W  121  34.441  18.865  12.589
28396W        W  122  18.224  16.178  13.993
28397W        W  123  16.638  38.061   2.336
28398W        W  124  19.728  19.782   3.128
28399W        W  125   4.703   8.776   4.287
28400W        W  126  42.558   2.444  14.545
28401W        W  127  37.261  11.616   2.406
28402W        W  128  32.096  26.039  13.356
28403W        W  129  21.719  33.810  13.441
28404W        W  130  25.445  11.246   3.370
28405W        W  131  23.224  37.033  14.276
28406W        W  132   3.174  23.066   0.543
28407W        W  133  14.873  27.948   4.740
28408W        W  134   4.486   9.256  11.040
28409W        W  135  16.117  17.784   2.784
28410W        W  136  12.651   2.940   0.417
28411W        W  137  37.809   6.480  12.814
28412W        W  138  39.936   2.451  11.599
28413W        W  139  29.246  12.400   2.908
28414W        W  140  25.940  22.041   4.651
28415W        W  141  10.163  38.473   4.061
28416W        W  142  37.445   5.685   2.734
28417W        W  143  42.317   0.233  12.618
28418W        W  144  30.693  20.278  14.265
28419W        W  145   5.726  44.608  13.324
28420W        W  146  10.214  12.077   3.685
28421W        W  147  36.881  40.341   0.289
28422W        W  148  28.144   4.318   1.389
28423W        W  149  43.333   6.242  14.338
28424W        W  150  38.361   7.256   2.474
28425W        W  151  41.227  14.286  13.322
28426W        W  152  27.470  42.976   2.841
28427W        W  153  43.039   2.439  10.668
28428W        W  154  43.882  18.293  10.489
28429W        W  155  16.974  33.584   4.288
28430W        W  156  20.202  42.869   1.936
28431W        W  157  19.711   2.657   4.145
28432W        W  158   1.334  26.323  10.775
28433W        W  159  42.932   2.501   0.739
28434W        W  160   6.408   7.281   3.759
28435W        W  161   7.885  30.652   3.716
28436W        W  162  22.356  30.225   2.527
28437W        W  163  31.627  35.015   0.443
28438W        W  164  10.657   3.865   3.756
28439W        W  165   5.686  18.522   4.937
28440W        W  166  35.648  25.834   0.510
28441W        W  167  39.805  18.479  12.082
28442W        W  168   5.348  43.663   2.805
28443W        W  169  20.757   4.959   1.176
28444W        W  170  10.888  34.461   1.286
28445W        W  171   5.660  10.717  11.154
28446W        W  172   1.680  19.605   4.982
28447W        W  173  33.399  21.558  13.916
28448W        W  174  24.402  23.311   0.584
28449W        W  175   4.410  43.796  13.739
28450W        W  176  38.751  39.606   3.326
28451W        W  177  22.530  39.589  12.015
28452W        W  178  17.646  38.965   2.222
28453W        W  179   2.732  31.748  12.628
28454W        W  180  18.456  26.020   0.092
28455W        W  181  34.839   0.817   4.029
28456W        W  182  25.463  19.276   3.571
28457W        W  183  40.450   9.423   2.852
28458W        W  184  38.937  37.143   1.269
28459W        W  185  37.132  16.274  12.493
28460W        W  186  42.476   7.721   2.206
28461W        W  187  29.464  36.152  14.331
28462W        W  188  15.987  32.131   0.775
28463W        W  189   3.782  44.349  13.826
28464W        W  190   1.922  30.819   2.890
28465W        W  191  17.122  23.103   0.416
28466W        W  192  32.102   6.144  14.896
28467W        W  193  41.825  19.863  10.717
28468W        W  194  22.788  27.709   0.812
28469W        W  195  40.740  17.206   1.760
28470W        W  196  16.714  21.831  11.487
28471W        W  197  34.377  27.158  12.712
28472W        W  198  40.390  34.076  11.012
28473W        W  199  44.568   1.275   1.338
28474W        W  200  12.342  42.341   0.075
28475W        W  201   1.903  26.589  14.708
28476W        W  202  24.611  44.473   2.761
28477W        W  203  29.131  41.803   4.673
28478W        W  204   6.694  35.893   1.977
28479W        W  205  18.170  25.093   3.110
28480W        W  206   7.694  20.449  12.370
28481W        W  207  12.809  10.083   4.235
28482W        W  208  43.331  27.899  13.306
28483W        W  209  10.622   0.955  11.724
28484W        W  210  34.997  44.416  13.597
28485W        W  211  36.732   4.877  13.436
28486W        W  212  38.357  39.293   3.240
28487W        W  213  36.819   2.902   2.843
28488W        W  214  18.021  36.954   2.571
28489W        W  215  44.739   2.532  10.968
28490W        W  216  44.270  42.749   2.184
28491W        W  217  43.800   8.847  13.356
28492W        W  218  40.835  20.620  10.629
28493W        W  219  38.741  27.463  11.962
28494W        W  220  35.276   6.560   2.378
28495W        W  221  10.063  15.040  11.194
28496W        W  222   3.704  10.538   2.815
28497W        W  223  38.781  19.235  12.215
28498W        W  224   1.111  25.233  10.203
28499W        W  225  42.393  14.759  12.398
28500W        W  226  26.569  25.402  13.301
28501W        W  227  29.326  35.027  11.081
28502W        W  228  44.711  12.822   3.358
28503W        W  229   0.283  32.386  14.656
28504W        W  230  28.892   1.809  12.469
28505W        W  231  10.674   2.896  13.378
28506W        W  232  18.643  18.164   4.600
28507W        W  233  10.889  42.338  11.401
28508W        W  234   5.458   7.452   1.978
28509W        W  235  18.534  34.863  13.867
28510W        W  236  16.811  28.950   4.255
28511W        W  237  16.586  39.941  10.551
28512W        W  238  21.383  25.878  10.180
28513W        W  239  22.495  28.991   2.220
28514W        W  240   9.218  35.000   3.070
28515W        W  241  17.630  11.825   1.367
28516W        W  242  13.202  30.194   1.833
28517W        W  243  35.775  35.869  10.707
28518W        W  244   5.309  29.997  14.022
28519W        W  245  38.937  26.454   3.586
28520W        W  246  10.405   5.167  11.202
28521W        W  247  32.610  13.898   4.040
28522W        W  248  39.159   4.017   4.270
28523W        W  249  30.930   6.905   4.503
28524W        W  250  24.425  38.928  10.994
28525W        W  251  40.819  26.618   1.471
28526W        W  252  44.981  30.009   4.359
28527W        W  253  19.669  23.013   4.922
28528W        W  254  13.164   0.111  13.448
28529W        W  255  12.993   0.342   0.748
28530W        W  256  39.569  10.261  11.148
28531W        W  257  32.684  18.635  13.128
28532W        W  258  13.312   7.107   4.063
28533W        W  259  44.803  30.994  13.816
28534W        W  260  22.110  36.349  14.390
28535W        W  261   0.519  36.403  14.991
28536W        W  262  23.052  35.491  11.638
28537W        W  263  34.392  29.330   2.865
28538W        W  264  12.857  23.415   3.155
28539W        W  265   1.507   4.310   2.265
28540W        W  266  15.867  28.953  11.135
28541W        W  267  41.103  11.616  14.431
28542W        W  268  29.900  43.038   4.587
28543W        W  269  37.570   8.123  10.972
28544W        W  270  12.084   7.221  10.925
28545W        W  271  32.103   2.940   2.237
28546W        W  272  13.755  40.538   0.601
28547W        W  273  29.720  28.618  13.707
28548W        W  274  36.008  36.345  10.712
28549W        W  275  28.435  19.273  10.368
28550W        W  276  13.144   9.083   4.299
28551W        W  277  32.450  20.011   1.197
28552W        W  278   2.906   9.691   0.914
28553W        W  279  43.202   1.658  13.395
28554W        W  280   5.354  24.210  13.656
28555W        W  281  21.450   9.745  13.821
28556W        W  282   7.645   5.333  10.541
28557W        W  283  34.274  41.053  11.973
28558W        W  284  39.581  12.660  11.972
28559W        W  285  31.961  13.468  13.547
28560W        W  286  41.617  37.388  12.842
28561W        W  287  10.399  22.030  12.349
28562W        W  288  28.473  34.073   0.229
28563W        W  289  35.342  25.414   0.411
28564W        W  290  44.455  37.800   2.209
28565W        W  291  38.647  43.172   4.225
28566W        W  292  24.623  29.147  14.927
28567W        W  293  16.611  43.144  12.478
28568W        W  294  20.617   3.283   2.749
28569W        W  295  14.679  19.301   0.776
28570W        W  296  21.066  32.388  14.989
28571W        W  297  34.592  14.755   3.679
28572W        W  298   0.045   0.749  11.132
28573W        W  299  31.904  24.670   0.916
28574W        W  300  30.027   6.283  10.506
28575W        W  301  18.670   7.212  10.293
28576W        W  302   7.395  39.640   3.722
28577W        W  303  11.591  40.031   1.271
28578W        W  304  39.836  22.912  14.948
28579W        W  305  16.061  20.050  14.471
28580W        W  306  14.194   6.181  14.007
28581W        W  307  19.815  20.567   2.065
28582W        W  308  27.108  20.122  13.408
28583W        W  309   9.155  25.138  10.609
28584W        W  310  23.057  35.566  13.292
28585W        W  311  12.374  35.984  12.412
28586W        W  312  29.008  43.566   3.669
28587W        W  313  13.654  43.961   3.234
28588W        W  314  14.632  13.708   3.235
28589W        W  315  13.987  26.001   1.356
28590W        W  316  35.500  36.602   0.670
28591W        W  317  43.532  26.872   2.551
28592W        W  318  38.850  17.614  13.473
28593W        W  319  16.178   5.766  13.924
28594W        W  320  27.053  21.092   2.409
28595W        W  321  40.395   0.049  13.461
28596W        W  322  34.998  31.403   0.235
28597W        W  323  21.768  23.261   3.057
28598W        W  324  44.425  25.048  11.678
28599W        W  325  15.068   9.587  11.165
28600W        W  326  21.918  44.937   3.804
28601W        W  327  30.194  33.007   3.471
28602W        W  328  10.232  16.244   2.035
28603W        W  329   6.849   2.386  12.828
28604W        W  330  26.642  15.300   0.960
28605W        W  331   9.753  26.285  14.479
28606W        W  332   0.639  20.422   1.042
28607W        W  333  26.921  21.756  11.716
28608W        W  334  25.701  33.859  12.410
28609W        W  335  33.116  20.250   0.405
28610W        W  336  44.337  43.046   4.041
28611W        W  337  38.866  11.101  12.477
28612W        W  338  18.195  18.645  10.594
28613W        W  339   9.633  33.110   0.313
28614W        W  340  30.835  39.557   2.335
28615W        W  341  37.529  27.003  10.974
28616W        W  342   5.627  21.636  13.315
28617W        W  343  44.444  14.356   0.412
28618W        W  344  17.934  31.909   0.540
28619W        W  345  17.481  16.541   2.885
28620W        W  346   8.317  13.872   2.452
28621W        W  347  25.631  17.022  12.132
28622W        W  348  25.475  37.896   4.197
28623W        W  349  30.598  24.522   4.640
28624W        W  350  21.515   6.808   4.999
28625W        W  351  21.789  10.742   2.700
28626W        W  352  23.938  34.058   0.951
28627W        W  353  36.779   6.662  14.511
28628W        W  354   0.647  39.345   4.084
28629W        W  355  23.955  30.948  14.041
28630W        W  356   3.874  41.346   1.726
28631W        W  357  14.603  37.798  12.978
28632W        W  358  12.865  35.562   4.594
28633W        W  359  25.897  12.318  12.910
28634W        W  360   9.867   0.947  13.016
28635W        W  361  22.621  14.163   4.710
28636W        W  362   2.823  37.776   4.417
28637W        W  363  26.687  37.304  10.902
28638W        W  364  18.111   7.135   2.626
28639W        W  365  31.382  22.001   3.303
28640W        W  366   7.303  28.538  10.680
28641W        W  367  37.964  38.809  10.618
28642W        W  368  41.444  43.978  10.940
28643W        W  369   9.205  36.537  11.642
28644W        W  370   5.392   0.261   2.710
28645W        W  371  35.473   1.999   2.336
28646W        W  372  21.546   7.199   3.730
28647W        W  373  10.845  22.792   1.963
28648W        W  374  38.469  13.204  14.542
28649W        W  375  28.739  40.945  12.553
28650W        W  376   3.443  36.395  11.253
28651W        W  377   6.810  32.489  11.873
28652W        W  378  10.149  12.659   2.561
28653W        W  379  32.457  40.964  14.998
28654W        W  380  28.009  22.290  13.878
28655W        W  381  11.255  14.681  12.473
28656W        W  382  15.597  10.887  12.981
28657W        W  383  39.361  14.183   5.114
28658W        W  384   9.378   4.859   4.464
28659W        W  385  43.976   4.555   1.864
28660W        W  386  23.162  44.383   1.380
28661W        W  387   8.902  44.657  13.106
28662W        W  388  41.051  14.762  14.451
28663W        W  389  29.612  27.223   3.764
28664W        W  390  15.813  11.664  12.524
28665W        W  391  34.857  23.538   1.674
28666W        W  392  28.554  28.061  10.761
28667W        W  393  19.093  14.601  11.632
28668W        W  394  23.038  41.038  13.076
28669W        W  395  30.030  43.969  14.513
28670W        W  396  28.964  30.444   1.886
28671W        W  397  24.272  11.490  12.540
28672W        W  398  37.794  37.195  13.568
28673W        W  399  23.384  30.416   4.746
28674W        W  400   4.700   9.355  11.503
28675W        W  401  35.814  10.859   2.459
28676W        W  402   3.305   6.455  12.830
28677W        W  403  16.690  30.514   1.002
28678W        W  404  24.083   5.197   4.853
28679W        W  405   3.692  43.761   0.931
28680W        W  406  27.139  40.897  14.789
28681W        W  407   3.694  20.944  14.053
28682W        W  408   7.200  12.793   4.183
28683W        W  409   8.821  11.783  14.322
28684W        W  410  15.245   1.762  11.260
28685W        W  411  22.087  13.345  11.995
28686W        W  412   9.702  24.619  13.614
28687W        W  413   7.709  28.526  11.956
28688W        W  414  44.516   2.475  13.047
28689W        W  415  39.397   4.520   0.938
28690W        W  416  29.144  35.009   4.749
28691W        W  417  17.192  29.615   2.004
28692W        W  418  43.923  17.123   0.256
28693W        W  419  19.803  19.622  13.942
28694W        W  420   1.765   5.625  11.671
28695W        W  421  26.622  34.997  12.316
28696W        W  422  27.581  31.961  11.332
28697W        W  423  29.441  31.965  11.562
28698W        W  424   4.252   1.778  13.396
28699W        W  425  17.999  33.120   2.584
28700W        W  426  31.360  33.988   1.317
28701W        W  427  27.489  22.732  11.030
28702W        W  428  20.051  23.240  11.730
28703W        W  429  27.896  32.595   4.229
28704W        W  430  16.522  12.306  11.424
28705W        W  431  23.214  16.336  14.970
28706W        W  432   0.847  33.387  12.802
28707W        W  433  12.312  43.564   4.320
28708W        W  434  24.112  27.586  10.561
28709W        W  435   8.106  40.780   1.189
28710W        W  436   0.532  35.328   4.289
28711W        W  437  40.347  18.798  12.871
28712W        W  438  44.805  39.284  14.459
28713W        W  439  40.826  20.604   1.359
28714W        W  440  37.036  29.491  13.543
28715W        W  441  43.828   2.760  11.512
28716W        W  442  35.023  26.962   3.278
28717W        W  443  40.305  26.577  14.175
28718W        W  444  10.601  30.523  13.963
28719W        W  445  28.408  27.424   1.913
28720W        W  446  27.730   9.660  12.373
28721W        W  447  26.178  18.689  13.367
28722W        W  448  16.837  41.462  11.552
28723W        W  449  38.574  26.023  12.931
28724W        W  450  12.728   8.791  14.663
28725W        W  451  29.941  26.134   0.035
28726W        W  452  19.490  30.469   1.098
28727W        W  453  18.306  40.503   0.978
28728W        W  454   4.401   6.630   0.767
28729W        W  455   9.318  27.722  14.788
28730W        W  456   4.707  41.729  12.878
28731W        W  457   6.516  29.506   0.945
28732W        W  458  21.697   8.569   4.761
28733W        W  459   7.278  26.777   4.573
28734W        W  460  13.665  10.924  12.163
28735W        W  461  10.916   3.120  14.929
28736W        W  462  33.147   6.376   0.173
28737W        W  463  40.056   1.286  13.766
28738W        W  464  11.761   1.995  13.388
28739W        W  465  34.590  41.571   4.314
28740W        W  466   9.591  14.024  13.370
28741W        W  467  31.925  43.165  11.992
28742W        W  468  35.576   4.332   0.811
28743W        W  469  23.792  18.649  13.499
28744W        W  470  24.291  12.551  10.984
28745W        W  471   5.968  33.064  11.102
28746W        W  472  31.043   8.845   5.103
28747W        W  473  34.532   8.788  14.810
28748W        W  474   0.298  19.463  13.832
28749W        W  475   2.752  14.742   3.080
28750W        W  476  39.336  36.347   3.251
28751W        W  477  40.534   2.159   3.727
28752W        W  478   1.041  19.655  13.574
28753W        W  479   6.852  22.510  11.589
28754W        W  480  14.544  14.917   4.146
28755W        W  481  21.635  38.038   1.213
28756W        W  482  41.799  44.041  13.351
28757W        W  483  10.853  33.471   4.179
28758W        W  484  33.596  24.381   4.321
28759W        W  485  36.367   9.494   0.927
28760W        W  486  29.667   7.567  11.153
28761W        W  487   9.207  32.157  12.013
28762W        W  488  25.722  40.543   4.777
28763W        W  489  12.284   6.231   0.910
28764W        W  490  20.658   3.396  11.527
28765W        W  491  35.804  19.419   1.663
28766W        W  492  40.900  28.714   2.238
28767W        W  493  19.548   5.899   1.880
28768W        W  494  35.135  37.397  10.343
28769W        W  495   0.351   9.658  14.833
28770W        W  496  19.268  40.063  14.871
28771W        W  497  10.145  35.582  11.583
28772W        W  498  18.716   2.201   3.301
28773W        W  499   7.321  38.887   2.061
28774W        W  500  21.973   0.710  14.562
28775W        W  501  16.294  42.751   1.874
28776W        W  502   2.675  29.899   1.262
28777W        W  503  19.586   4.774  14.788
28778W        W  504  40.309  13.678  13.935
28779W        W  505  20.682  22.158  14.956
28780W        W  506  23.530  35.655  11.642
28781W        W  507  16.382  31.182   4.330
28782W        W  508   9.433  21.675  12.330
28783W        W  509   0.338  20.511  12.342
28784W        W  510  24.236  26.661   5.420
28785W        W  511  19.246  32.180   4.238
28786W        W  512   2.496  37.825   3.661
28787W        W  513  37.203  23.202  13.489
28788W        W  514   0.270  26.681  11.515
28789W        W  515  44.929  30.006  11.124
28790W        W  516  42.488   8.667  10.321
28791W        W  517  30.717  32.852  12.185
28792W        W  518  16.639   7.677   2.756
28793W        W  519  24.387  21.643   3.597
28794W        W  520  18.112  24.983  12.685
28795W        W  521  30.761   5.413   2.866
28796W        W  522  11.946  11.194   4.359
28797W        W  523  30.636  33.639  12.843
28798W        W  524  17.725  27.565  12.791
28799W        W  525   4.216  17.989   4.367
28800W        W  526  31.635  33.951   1.765
28801W        W  527  15.581  37.435   4.853
28802W        W  528  10.436  32.215  11.709
28803W        W  529  33.017  12.653   4.809
28804W        W  530  22.293   6.872   0.718
28805W        W  531  11.260  39.358  13.742
28806W        W  532  32.575  44.190  11.024
28807W        W  533  20.701  14.151   0.341
28808W        W  534  26.523  19.766  11.462
28809W        W  535   8.434  35.330   5.486
28810W        W  536  30.224  38.577  13.872
28811W        W  537  13.333  44.666  10.239
28812W        W  538  36.911   5.244  14.553
28813W        W  539   4.985  25.621   0.432
28814W        W  540  31.636  37.398   2.884
28815W        W  541  31.841   8.628  14.370
28816W        W  542  36.521  30.880  14.574
28817W        W  543   9.697  35.726   0.605
28818W        W  544  15.857   1.451  12.686
28819W        W  545  23.358  18.232   2.720
28820W        W  546  43.301  20.302  11.630
28821W        W  547   1.757   1.244   0.414
28822W        W  548  27.168  37.744   1.231
28823W        W  549   8.127  36.808   1.317
28824W        W  550  38.920   1.200   0.494
28825W        W  551   5.695  28.130   3.680
28826W        W  552  14.350  38.841   4.632
28827W        W  553   1.277  35.808  13.988
28828W        W  554  15.529  41.434  12.947
28829W        W  555  36.327  42.880   3.214
28830W        W  556   6.241  27.453   4.673
28831W        W  557  11.619   6.389   3.458
28832W        W  558  10.819  31.187   1.342
28833W        W  559  20.721  13.161   2.179
28834W        W  560  32.545  44.441   1.216
28835W        W  561   9.142   5.269   4.628
28836W        W  562  10.925   5.604   4.297
28837W        W  563   5.878  41.248   1.409
28838W        W  564  30.314  40.548  11.132
28839W        W  565  38.590   6.824   3.895
28840W        W  566  34.511  39.407   3.914
28841W        W  567  11.099   2.768   4.746
28842W        W  568   9.640  15.842  11.010
28843W        W  569  25.712  15.321   0.803
28844W        W  570  39.353   4.489   1.474
28845W        W  571  42.891  35.145   3.242
28846W        W  572  28.951  39.312  12.893
28847W        W  573  34.967  19.015  14.855
28848W        W  574   7.724  28.685  10.416
28849W        W  575  10.884   0.859  13.359
28850W        W  576  25.598   1.613  14.409
28851W        W  577  42.406  33.099   4.622
28852W        W  578  29.705  30.364  10.711
28853W        W  579  13.294  33.240   4.560
28854W        W  580  44.417  25.712   2.683
28855W        W  581  10.253  23.936   1.783
28856W        W  582  12.554  11.319   3.676
28857W        W  583  31.000  27.006  10.143
28858W        W  584   5.308  19.097   3.342
28859W        W  585  11.421  18.376   1.406
28860W        W  586  21.625  22.139   0.450
28861W        W  587  43.040   6.060   2.625
28862W        W  588  34.238   6.158   2.134
28863W        W  589  30.130   8.373  11.566
28864W        W  590  43.855  34.995   4.662
28865W        W  591   9.591   0.032   3.131
28866W        W  592   6.362  20.523  14.057
28867W        W  593  15.276  16.914  11.904
28868W        W  594  17.269  19.034  13.186
28869W        W  595   8.219  27.793  14.785
28870W        W  596  28.996   2.755   4.689
28871W        W  597  16.903  35.029   3.102
28872W        W  598  36.735  34.448  12.620
28873W        W  599   2.361   6.701  11.969
28874W        W  600  28.509  27.947  11.241
28875W        W  601  42.989  34.165  12.959
28876W        W  602   5.546  10.120   4.014
28877W        W  603  14.747  43.933  13.450
28878W        W  604  11.188   5.502  13.360
28879W        W  605  34.069  10.811   4.643
28880W        W  606  18.267   8.602   0.385
28881W        W  607   8.937  37.200   1.352
28882W        W  608  14.336  14.297   0.772
28883W        W  609   0.875  23.669  11.541
28884W        W  610  40.974   2.429   3.734
28885W        W  611  36.342  18.636   4.373
28886W        W  612   8.494  20.682  12.305
28887W        W  613  31.483  42.022  10.227
28888W        W  614  42.498  42.356   2.946
28889W        W  615   6.280  16.168   2.228
28890W        W  616   3.153  13.880  10.729
28891W        W  617  39.387  35.261   3.191
28892W        W  618  43.939  44.175  13.991
28893W        W  619  35.147  23.104  14.481
28894W        W  620  41.891  42.905  10.589
28895W        W  621  18.622  43.006  11.168
28896W        W  622  34.068  40.983   0.553
28897W        W  623  30.385  24.128  10.595
28898W        W  624  25.291  29.961   1.822
28899W        W  625   4.163  14.573   3.290
28900W        W  626  21.575   2.390  11.573
28901W        W  627  31.464   9.818  12.874
28902W        W  628  14.630   3.445   2.617
28903W        W  629  14.814  26.566  13.484
28904W        W  630  42.744  27.816   3.697
28905W        W  631  11.882   9.209   3.376
28906W        W  632  40.558   7.876   2.840
28907W        W  633  13.352   0.240  10.840
28908W        W  634  16.089  34.500   4.574
28909W        W  635   2.958  27.893  11.621
28910W        W  636  31.923  39.613  12.893
28911W        W  637  42.722  25.410   2.147
28912W        W  638   2.281  40.867  13.038
28913W        W  639  27.043  26.269   2.752
28914W        W  640  24.677  26.935  11.519
28915W        W  641  28.477  23.217   0.497
28916W        W  642   2.797  13.931  13.053
28917W        W  643  12.114  37.123  10.423
28918W        W  644   1.692  40.364  12.429
28919W        W  645  36.575  38.070   2.809
28920W        W  646  11.669  40.792  11.436
28921W        W  647  43.489  24.193  13.378
28922W        W  648  17.204   4.750   4.688
28923W        W  649  15.724  19.644  10.674
28924W        W  650  44.996  37.867   3.753
28925W        W  651  41.515  31.197   3.794
28926W        W  652  28.050  27.192  12.638
28927W        W  653  14.858  22.206  10.426
28928W        W  654  29.071   5.015   2.026
28929W        W  655  38.793  34.665  14.061
28930W        W  656  22.019  43.930  10.717
28931W        W  657   1.067  16.654  14.304
28932W        W  658  17.059  29.574   3.841
28933W        W  659   4.843  34.902  11.665
28934W        W  660  11.620  43.497   1.646
28935W        W  661   9.218  32.705  10.228
28936W        W  662  39.303  39.338  11.657
28937W        W  663  44.555  25.788  11.099
28938W        W  664  29.717   7.345  14.728
28939W        W  665   3.985   5.167  14.885
28940W        W  666   3.892  38.007   1.310
28941W        W  667  11.262  44.432   0.958
28942W        W  668  39.218  26.381   2.663
28943W        W  669  37.125  38.133   2.766
28944W        W  670  40.104  13.186  13.851
28945W        W  671  15.243   9.796  10.734
28946W        W  672  12.230  24.008   1.659
28947W        W  673  14.035   9.524   5.030
28948W        W  674  24.693   3.811  14.033
28949W        W  675  26.011   2.719  12.471
28950W        W  676  10.101  32.144   3.337
28951W        W  677   1.512   5.239  10.787
28952W        W  678  38.543  14.061   3.367
28953W        W  679  33.931  18.293   1.747
28954W        W  680  20.332   3.732   1.916
28955W        W  681  25.723   7.890   2.469
28956W        W  682  29.671  37.174  12.568
28957W        W  683  38.983  22.971  12.787
28958W        W  684  40.046  34.565  11.555
28959W        W  685  38.416  23.006   0.910
28960W        W  686   7.257  43.034   0.373
28961W        W  687  44.896  15.395  10.627
28962W        W  688  21.131  29.924   0.824
28963W        W  689  13.419  39.438  11.126
28964W        W  690  23.380  33.732  11.585
28965W        W  691  43.547   6.276   1.901
28966W        W  692  38.018   2.440   3.857
28967W        W  693  31.246   9.196   4.767
28968W        W  694  37.221   4.549   3.720
28969W        W  695   3.206   9.088   0.326
28970W        W  696   4.810  30.414   0.917
28971W        W  697  23.737  31.520  12.537
28972W        W  698  15.159  20.652   0.803
28973W        W  699   0.899  40.062   3.864
28974W        W  700  37.658  23.728  12.015
28975W        W  701  20.013  23.518   3.146
28976W        W  702  31.703   6.490   2.548
28977W        W  703  34.979  17.217   3.374
28978W        W  704  38.463  16.529   2.832
28979W        W  705  38.519   0.785  10.513
28980W        W  706  35.100   6.236   4.147
28981W        W  707  16.771  22.047  12.958
28982W        W  708  43.990  15.405  14.953
28983W        W  709  11.447  23.201  13.526
28984W        W  710  16.141   0.269   0.338
28985W        W  711  33.893  13.616   4.592
28986W        W  712  29.322  10.390   1.292
28987W        W  713   0.462  25.951  13.745
28988W        W  714  23.300  10.749   3.858
28989W        W  715  33.993   3.657  13.038
28990W        W  716  33.285  44.176  11.613
28991W        W  717   9.185   3.345  10.615
28992W        W  718  33.431  31.078  11.419
28993W        W  719  11.181   4.968  11.837
28994W        W  720   1.371  16.213  12.859
28995W        W  721   7.640   6.789   0.978
28996W        W  722  26.720  21.695   3.221
28997W        W  723   4.210   8.816  12.748
28998W        W  724   4.199  18.490   4.196
28999W        W  725  39.087  42.967   0.187
29000W        W  726  15.305  17.748   0.285
29001W        W  727  42.004  37.802  14.493
29002W        W  728  17.119   7.699  14.024
29003W        W  729  41.304  34.430   0.944
29004W        W  730  17.011  28.003  14.253
29005W        W  731  25.188  19.317  11.044
29006W        W  732   5.929  33.427   4.064
29007W        W  733  43.227  19.292  11.522
29008W        W  734   9.065  13.249  14.946
29009W        W  735  44.792   5.360  10.699
29010W        W  736   5.257   4.822  13.868
29011W        W  737  32.628   4.186   0.720
29012W        W  738   0.279  23.463  12.587
29013W        W  739  24.520  20.490   0.971
29014W        W  740   4.339  30.489   3.349
29015W        W  741  16.633  22.440  10.645
29016W        W  742  36.116  27.015  12.313
29017W        W  743  35.983  40.043  11.815
29018W        W  744  36.909  27.601  13.477
29019W        W  745   7.710   1.978  12.421
29020W        W  746   5.584   2.414   1.291
29021W        W  747  43.263  18.462  11.984
29022W        W  748  15.215   3.032  11.107
29023W        W  749  13.330  39.344   1.871
29024W        W  750  27.097  25.459  10.605
29025W        W  751  11.624  24.497   4.545
29026W        W  752  23.779  41.504  14.164
29027W        W  753  14.817   5.633  10.652
29028W        W  754  30.677  10.710   4.176
29029W        W  755  28.532   9.706   0.469
29030W        W  756   0.596  22.131   1.265
29031W        W  757  20.739   9.943   3.268
29032W        W  758   2.217   8.638  13.324
29033W        W  759   8.849  32.322   3.654
29034W        W  760  39.860  12.694  14.160
29035W        W  761  30.062  40.757  13.025
29036W        W  762  17.165  23.082  10.445
29037W        W  763  24.924   8.387  12.109
29038W        W  764  42.263  15.361  13.434
29039W        W  765  35.072  20.077   2.213
29040W        W  766  31.124  31.056   2.263
29041W        W  767  25.338  15.457   2.708
29042W        W  768  29.577  23.984   2.019
29043W        W  769  26.681  28.603  13.967
29044W        W  770  34.095   9.147   1.683
29045W        W  771  25.261  44.488  12.301
29046W        W  772  36.835  33.510   4.409
29047W        W  773  25.176   9.819   3.328
29048W        W  774   1.411   3.955   4.641
29049W        W  775  28.120  11.632   4.601
29050W        W  776   1.916   0.817   2.789
29051W        W  777  33.088  30.013   0.392
29052W        W  778  14.547  23.105  13.399
29053W        W  779  36.506  37.584   0.831
29054W        W  780  26.545  25.557   5.070
29055W        W  781   6.241   1.265   2.278
29056W        W  782  12.259  24.115   3.125
29057W        W  783  20.173  35.983  14.776
29058W        W  784   0.534   6.661  11.204
29059W        W  785  38.298   0.935   3.909
29060W        W  786  36.390   0.016   1.842
29061W        W  787  43.543  36.482  14.339
29062W        W  788  41.475  34.049  14.444
29063W        W  789  28.883  26.500  11.114
29064W        W  790  31.425  41.154   5.372
29065W        W  791   1.653  32.504   4.531
29066W        W  792  44.397  41.225   4.883
29067W        W  793  34.061   9.746  13.876
29068W        W  794  39.764   1.405  11.432
29069W        W  795  30.390  39.432  13.043
29070W        W  796  22.485  29.718   2.632
29071W        W  797  25.264  12.872   2.508
29072W        W  798  29.229  38.767   4.386
29073W        W  799  14.910  30.621   3.182
29074W        W  800  33.814  25.124   4.584
29075W        W  801  21.506   2.719   4.717
29076W        W  802  15.619  23.258  14.041
29077W        W  803  35.159  10.272   3.408
29078W        W  804  44.478   9.421   0.322
29079W        W  805  31.898  27.995  14.654
29080W        W  806  29.618  37.562   4.066
29081W        W  807  17.957  24.092  10.698
29082W        W  808   7.384   3.825   3.415
29083W        W  809   0.703  44.549  14.749
29084W        W  810   4.903  15.346   0.464
29085W        W  811  16.083  14.675  14.396
29086W        W  812  31.257  42.378   3.834
29087W        W  813  14.540  35.574  11.113
29088W        W  814  23.446  14.533   0.242
29089W        W  815  27.689  43.011   0.742
29090W        W  816  31.602  44.365   1.302
29091W        W  817  17.908  17.649   2.123
29092W        W  818   9.490  12.647  13.386
29093W        W  819  18.674   6.308  11.547
29094W        W  820  35.648  27.198  14.031
29095W        W  821  14.503   7.276   0.750
29096W        W  822  12.984   8.692   4.600
29097W        W  823  13.789  33.441  13.157
29098W        W  824  24.613  24.733  12.907
29099W        W  825  32.612  38.790  11.319
29100W        W  826  35.845  16.633   4.708
29101W        W  827  44.764  16.611   4.232
29102W        W  828  28.109  22.621  11.894
29103W        W  829  30.579  44.271   1.010
29104W        W  830  27.829   1.038   1.064
29105W        W  831  42.891  23.056  12.115
29106W        W  832   1.516  15.034   4.554
29107W        W  833   8.911  14.465  11.905
29108W        W  834  27.646   9.349  11.029
29109W        W  835  31.667  33.254  11.934
29110W        W  836   1.199   2.283   3.752
29111W        W  837  30.045  38.117   0.772
29112W        W  838  19.078   9.502  14.503
29113W        W  839   9.101   4.642  11.989
29114W        W  840   3.774  30.947   1.332
29115W        W  841  22.675  29.896   4.606
29116W        W  842   7.178  18.766  10.453
29117W        W  843   9.312  27.103   4.122
29118W        W  844  13.138  29.200  14.502
29119W        W  845  11.095  30.867  14.794
29120W        W  846  41.036  36.413   0.467
29121W        W  847  33.663   6.761   4.584
29122W        W  848   8.763  21.988  10.599
29123W        W  849  35.618  15.051  14.971
29124W        W  850  41.947  17.174   5.052
29125W        W  851  20.022   0.848  12.349
29126W        W  852  27.484  24.516  11.202
29127W        W  853   6.854  10.156  10.419
29128W        W  854   9.637   1.984  11.270
29129W        W  855  15.181   8.499  11.584
29130W        W  856  24.310   5.876   3.517
29131W        W  857  38.006  34.834  13.635
29132W        W  858   8.776  22.231   2.330
29133W        W  859  27.745  43.818   1.242
29134W        W  860  26.912  34.688   4.807
29135W        W  861   8.124   3.529  11.565
29136W        W  862  43.385  34.028  13.632
29137W        W  863  40.519  19.248  12.595
29138W        W  864  13.166   2.916   0.255
29139W        W  865  10.207  13.828  12.582
29140W        W  866   5.973  26.512   3.885
29141W        W  867  15.840  32.425   1.194
29142W        W  868  35.402  30.407  13.367
29143W        W  869  23.738  16.889  11.518
29144W        W  870  19.347   6.716  12.434
29145W        W  871   0.322  42.352   2.862
29146W        W  872  25.019  31.404   0.655
29147W        W  873  31.543  18.335  12.682
29148W        W  874   9.940  20.538  12.109
29149W        W  875  27.248  26.015  14.815
29150W        W  876  11.890  14.773   2.654
29151W        W  877   6.769  10.389   4.117
29152W        W  878  38.758  10.262  12.667
29153W        W  879  28.587  32.717   3.875
29154W        W  880  34.666   6.898  11.544
29155W        W  881  29.934  41.462  14.214
29156W        W  882  29.017  26.897  13.511
29157W        W  883  43.226  41.910   2.357
29158W        W  884  44.773   2.208  14.919
29159W        W  885  16.589   3.909  12.966
29160W        W  886  14.589  14.219   2.640
29161W        W  887  35.913   9.050   4.273
29162W        W  888   5.496  43.165   2.048
29163W        W  889  12.504   9.706  13.485
29164W        W  890   5.792  36.728  13.073
29165W        W  891  10.369  24.609  10.598
29166W        W  892  19.307  14.088   1.992
29167W        W  893  44.317  28.485  11.560
29168W        W  894  21.942  31.517  13.038
29169W        W  895  41.689  43.465  11.995
29170W        W  896   7.491  27.962   1.830
29171W        W  897  24.579  33.656  11.137
29172W        W  898   1.311  19.211   0.725
29173W        W  899   4.928  23.183   0.861
29174W        W  900  24.706  22.146  10.622
29175W        W  901  36.416  32.078   1.217
29176W        W  902   9.893  42.486  11.537
29177W        W  903  30.856  42.935  11.905
29178W        W  904  10.488  11.025  11.051
29179W        W  905  16.540  25.609   3.633
29180W        W  906  16.519  29.952  13.472
29181W        W  907  35.755  35.569   3.747
29182W        W  908   6.838  13.404  10.545
29183W        W  909  20.704  22.213   4.401
29184W        W  910  31.599  43.042  14.905
29185W        W  911   8.631   3.454  13.561
29186W        W  912  10.064  27.349  13.288
29187W        W  913  44.886   1.377  13.377
29188W        W  914   3.397  34.157  14.166
29189W        W  915  12.743   3.004   2.916
29190W        W  916  42.770  20.831   1.322
29191W        W  917  13.546  32.561   3.269
29192W        W  918  37.918   6.700  11.879
29193W        W  919  22.375  36.825  14.448
29194W        W  920  40.289  28.206  13.822
29195W        W  921  26.287  29.898  11.100
29196W        W  922  33.588   0.411   3.807
29197W        W  923  26.035  13.590   1.391
29198W        W  924  29.399  39.261   0.885
29199W        W  925  34.293  26.237   1.492
29200W        W  926   8.319  18.843  11.598
29201W        W  927  12.477  29.790  13.348
29202W        W  928  31.768   7.183  13.968
29203W        W  929  33.892  40.345   2.641
29204W        W  930  40.475  13.999  13.003
29205W        W  931   4.974   8.838   2.787
29206W        W  932  20.397   1.756   0.424
29207W        W  933  11.339   0.767  10.721
29208W        W  934  36.435   9.441  14.552
29209W        W  935   9.684  23.344   5.447
29210W        W  936  10.340   2.534  12.699
29211W        W  937  26.173   7.823   3.946
29212W        W  938  28.072  33.978  11.876
29213W        W  939  13.765   9.202  14.754
29214W        W  940  34.117  32.924   0.010
29215W        W  941  43.239  28.662   4.625
29216W        W  942  31.791   2.334   4.775
29217W        W  943   1.310  35.090   4.480
29218W        W  944   9.335  25.455  10.265
29219W        W  945  21.473  23.272   1.834
29220W        W  946   6.342  34.930   0.271
29221W        W  947  38.031   6.959  13.367
29222W        W  948   3.539   4.331  11.919
29223W        W  949  37.432  23.897   0.940
29224W        W  950  22.151   7.361  12.189
29225W        W  951  22.051  40.824   0.521
29226W        W  952  14.754  33.132   3.829
29227W        W  953  11.617  15.137  14.745
29228W        W  954   3.283  23.881   0.443
29229W        W  955  17.748  43.080  13.982
29230W        W  956   4.921  39.370   2.666
29231W        W  957   6.499  24.005  14.784
29232W        W  958  13.823   4.838   4.499
29233W        W  959  34.388   8.443   0.155
29234W        W  960  25.018  42.013  10.961
29235W        W  961  35.112  13.625   4.643
29236W        W  962  20.716   8.247  14.015
29237W        W  963   7.403   9.116  14.895
29238W        W  964  41.365   4.670  12.659
29239W        W  965  26.461  14.546   4.799
29240W        W  966  11.687  22.466   2.710
29241W        W  967   8.876  42.757  12.454
29242W        W  968  35.082  16.362  13.859
29243W        W  969  36.905   3.437  14.545
29244W        W  970  44.443  17.747  12.394
29245W        W  971   0.925  12.137  12.163
29246W        W  972  42.368  37.585  13.338
29247W        W  973  10.279  40.106   4.420
29248W        W  974  24.024  14.007   9.854
29249W        W  975  26.864  33.937   0.462
29250W        W  976  11.798  17.508   2.144
29251W        W  977  15.868   4.685   4.616
29252W        W  978  17.654  21.081  11.407
29253W        W  979  16.121   4.408  14.545
29254W        W  980  14.807  29.711  10.609
29255W        W  981  36.347  16.820  13.587
29256W        W  982   0.807  30.037   3.124
29257W        W  983  38.193  20.098   2.849
29258W        W  984   3.098  10.360   2.189
29259W        W  985  23.075   7.299   4.693
29260W        W  986  11.763  41.914  14.605
29261W        W  987   8.041  30.805  14.080
29262W        W  988  12.470  22.879   0.283
29263W        W  989  16.374  44.436  13.825
29264W        W  990  21.977   0.749  12.029
29265W        W  991  21.600  23.565   0.490
29266W        W  992  14.663  16.641   0.977
29267W        W  993  41.370  37.397  10.684
29268W        W  994   2.337   3.457  14.822
29269W        W  995   8.474  26.103  13.114
29270W        W  996  34.708  19.039   4.577
29271W        W  997   7.790   7.078  14.427
29272W        W  998  38.407   7.402   1.948
29273W        W  999  18.388  30.223   3.841
29274W        W 1000   8.695   1.085  12.605
29275W        W 1001  40.506  32.569   4.535
29276W        W 1002  17.832  22.147   4.222
29277W        W 1003  27.270  14.675  12.490
29278W        W 1004   7.884  17.703  10.899
29279W        W 1005  37.321  24.663  13.157
29280W        W 1006  18.129   7.146   0.651
29281W        W 1007   9.502   0.625  14.917
29282W        W 1008  31.875  25.705  14.868
29283W        W 1009  40.891   6.664   4.633
29284W        W 1010   1.371  34.880  11.196
29285W        W 1011   6.335  11.656  11.251
29286W        W 1012  32.412   5.903   0.261
29287W        W 1013  11.152  32.853   3.304
29288W        W 1014   3.028   2.754   0.873
29289W        W 1015   9.684  23.244  11.661
29290W        W 1016  42.298   5.660  12.505
29291W        W 1017  38.296  38.549   3.913
29292W        W 1018   8.909  27.607   3.937
29293W        W 1019  28.398  44.466  13.798
29294W        W 1020   2.776  38.570   0.487
29295W        W 1021  31.017  23.606  12.886
29296W        W 1022   6.766  33.794  11.844
29297W        W 1023  44.012  10.394  11.223
29298W        W 1024  39.126  21.606   4.068
29299W        W 1025  24.515  13.852   2.752
29300W        W 1026  38.441  32.087  10.888
29301W        W 1027  14.893  36.794   1.435
29302W        W 1028  43.990  16.769   1.577
29303W        W 1029  11.568  37.447  14.368
29304W        W 1030  12.220  28.644  11.411
29305W        W 1031  27.676   9.662  14.213
29306W        W 1032  14.627  33.009   0.846
29307W        W 1033  11.721   1.512   0.789
29308W        W 1034  28.213  19.739   4.153
29309W        W 1035  15.413   5.907   3.134
29310W        W 1036   5.812   9.094   2.274
29311W        W 1037  17.110  44.531   0.330
29312W        W 1038  26.203  35.426  13.818
29313W        W 1039   5.831   1.520  13.038
29314W        W 1040   6.990  39.186   2.875
29315W        W 1041  11.163  31.602  11.421
29316W        W 1042  25.715   0.841   4.233
29317W        W 1043   2.836  20.226  13.126
29318W        W 1044  26.985  27.653   0.797
29319W        W 1045  12.877  42.779   2.132
29320W        W 1046  28.181   3.417  11.215
29321W        W 1047  43.823  18.893   0.600
29322W        W 1048  29.648  31.662  12.137
29323W        W 1049  13.360   9.999   1.308
29324W        W 1050  23.361   7.706  14.746
29325W        W 1051  32.915   7.016   2.801
29326W        W 1052  11.677  38.982  10.325
29327W        W 1053  23.770  29.150  14.346
29328W        W 1054  33.104   7.839   2.674
29329W        W 1055  32.452   6.449  13.973
29330W        W 1056  36.164   7.298  10.927
29331W        W 1057  17.544  15.053  11.572
29332W        W 1058  23.723  15.757  13.785
29333W        W 1059  30.953   1.913  14.806
29334W        W 1060  13.310  42.919  13.461
29335W        W 1061  31.905  44.489   2.296
29336W        W 1062  43.068  16.030   2.975
29337W        W 1063  16.675   0.926  14.735
29338W        W 1064  16.328  25.101  13.839
29339W        W 1065  17.795   7.998   2.700
29340W        W 1066  37.690  27.489   0.829
29341W        W 1067  26.193  37.055   0.922
29342W        W 1068  25.038   2.198   0.495
29343W        W 1069   7.178  22.741   4.110
29344W        W 1070  20.456  36.542   2.485
29345W        W 1071  35.558  32.624   3.605
29346W        W 1072  37.443  24.922  14.965
29347W        W 1073  28.205  37.127  12.874
29348W        W 1074  37.413  41.720   3.369
29349W        W 1075   2.753  13.421  12.998
29350W        W 1076  28.952  44.667  13.392
29351W        W 1077  43.591  18.335  11.588
29352W        W 1078   4.217  28.678  14.817
29353W        W 1079  24.759  23.265  14.094
29354W        W 1080  24.225  11.243  11.597
29355W        W 1081   6.338  35.867  14.256
29356W        W 1082  39.807  16.787   2.736
29357W        W 1083  38.875  44.814  10.030
29358W        W 1084  43.545  22.066   1.321
29359W        W 1085   8.904  24.633   2.851
29360W        W 1086  14.284  33.539  12.987
29361W        W 1087  18.034   8.794  14.276
29362W        W 1088  34.937  11.869  14.101
29363W        W 1089  13.766  27.168   0.762
29364W        W 1090   9.428  28.966  11.587
29365W        W 1091  28.480  36.446   1.731
29366W        W 1092   0.428   3.924   0.740
29367W        W 1093  15.742   0.018   2.705
29368W        W 1094  36.100  19.035   4.127
29369W        W 1095  19.140  31.026   3.216
29370W        W 1096  15.756  22.209   4.919
29371W        W 1097  10.824   7.097   2.723
29372W        W 1098   1.033  11.573   4.038
29373W        W 1099  21.463  43.353   1.899
29374W        W 1100  22.812   1.796  12.545
29375W        W 1101   3.881  18.633  13.810
29376W        W 1102  34.186  42.407   9.645
29377W        W 1103  34.431  28.674   0.451
29378W        W 1104   5.609   1.038  14.331
29379W        W 1105   5.149  19.210  13.374
29380W        W 1106  29.947  13.637   1.803
29381W        W 1107  10.912   0.250  12.390
29382W        W 1108   5.397  23.222   2.659
29383W        W 1109  12.111  40.097   1.285
29384W        W 1110  16.439  27.057  11.951
29385W        W 1111  29.578   2.116   4.473
29386W        W 1112  16.565  15.783   2.805
29387W        W 1113  15.714   6.879  12.853
29388W        W 1114  13.282  43.220  13.046
29389W        W 1115  23.123  27.612   5.028
29390W        W 1116  12.160  32.009  12.109
29391W        W 1117  39.433  13.411   0.884
29392W        W 1118   7.574  38.280   4.153
29393W        W 1119   5.016  14.612   1.224
29394W        W 1120  25.404  35.652   3.260
29395W        W 1121  31.185   6.822   1.727
29396W        W 1122   1.231   9.555  12.928
29397W        W 1123  38.005  35.732  12.144
29398W        W 1124  27.731  27.045   2.302
29399W        W 1125  21.353  35.189   3.150
29400W        W 1126   0.452   4.808   3.442
29401W        W 1127   3.261  14.718   4.814
29402W        W 1128   5.346  20.582   2.715
29403W        W 1129  21.288  25.085  14.474
29404W        W 1130  13.620  27.899   1.644
29405W        W 1131  38.430  25.097  12.474
29406W        W 1132  23.916  15.264  13.984
29407W        W 1133  41.580   8.523  11.635
29408W        W 1134  27.482  27.346  13.408
29409W        W 1135   5.261   6.503  11.544
29410W        W 1136  17.098  12.475   0.236
29411W        W 1137  11.668   1.328   1.632
29412W        W 1138  35.857  21.971   1.916
29413W        W 1139   8.365  13.882  11.175
29414W        W 1140   3.925  10.446  11.156
29415W        W 1141  29.375  19.951   2.796
29416W        W 1142   2.229  12.776  11.995
29417W        W 1143  28.182  35.853   2.956
29418W        W 1144  34.984  24.483  14.030
29419W        W 1145  10.862  11.380  11.207
29420W        W 1146   6.356  25.702  11.531
29421W        W 1147   4.670  19.632  13.675
29422W        W 1148  26.197  37.628   3.352
29423W        W 1149  32.006  41.072   2.176
29424W        W 1150  28.122  40.300   4.227
29425W        W 1151  25.970   6.758   4.714
29426W        W 1152  19.549  31.725   1.210
29427W        W 1153  43.767  30.803   4.769
29428W        W 1154  15.234  16.410  14.648
29429W        W 1155  35.186  13.330  11.141
29430W        W 1156  31.861   4.201  11.269
29431W        W 1157  29.489  41.459   1.242
29432W        W 1158  24.437   8.675  10.762
29433W        W 1159  17.694  12.745   1.310
29434W        W 1160  29.315  42.038  10.618
29435W        W 1161  38.968  38.574  11.089
29436W        W 1162   3.327  13.304  12.472
29437W        W 1163  24.020  29.764   0.228
29438W        W 1164  38.333   6.268   3.424
29439W        W 1165  28.772  38.393   0.061
29440W        W 1166  24.086   7.861   4.052
29441W        W 1167  22.738  15.324   4.714
29442W        W 1168   2.551  27.941  11.969
29443W        W 1169   9.298  23.274  13.961
29444W        W 1170  34.521  33.937   0.743
29445W        W 1171  40.025   5.230  14.489
29446W        W 1172  43.018   2.406  14.263
29447W        W 1173  26.423  44.068   0.871
29448W        W 1174  11.815  10.256   3.877
29449W        W 1175  32.504  21.283  12.978
29450W        W 1176   3.348  39.312  13.110
29451W        W 1177   9.720  10.700  14.406
29452W        W 1178   4.536  15.659  13.740
29453W        W 1179  10.603  12.625  14.468
29454W        W 1180  23.242  25.775   1.218
29455W        W 1181  24.265  13.562  13.493
29456W        W 1182  26.930   1.865  11.523
29457W        W 1183   7.930  18.090  12.616
29458W        W 1184  15.080  20.807  12.412
29459W        W 1185  23.795   4.454   2.408
29460W        W 1186  27.401  40.438  12.474
29461W        W 1187  28.577  26.918   4.617
29462W        W 1188   4.738  10.944  10.825
29463W        W 1189  12.073  35.399   5.175
29464W        W 1190  16.559   8.088   3.778
29465W        W 1191  44.677  31.842   3.138
29466W        W 1192  25.239  43.061   0.775
29467W        W 1193  10.878  23.767  11.452
29468W        W 1194  13.184   0.625  13.303
29469W        W 1195   8.643  38.666  11.534
29470W        W 1196  43.269   5.300  13.735
29471W        W 1197  12.669   9.875  11.910
29472W        W 1198  32.714  43.537  14.095
29473W        W 1199  44.987   3.593   2.588
29474W        W 1200  39.377  39.337   4.745
29475W        W 1201  33.134   8.727   2.267
29476W        W 1202  29.008  16.169   0.864
29477W        W 1203   6.783  20.616   4.580
29478W        W 1204   6.637   6.752   3.376
29479W        W 1205  32.326   3.330  10.750
29480W        W 1206  14.510   2.468  13.447
29481W        W 1207  30.882  23.020   4.372
29482W        W 1208  31.969  26.438  10.638
29483W        W 1209   4.269  25.543  14.889
29484W        W 1210   4.059  40.213  11.148
29485W        W 1211  42.977  23.605  11.471
29486W        W 1212  36.099  24.849   4.187
29487W        W 1213  41.492  17.958   0.894
29488W        W 1214  43.300  31.040   4.636
29489W        W 1215  24.335  20.935  11.100
29490W        W 1216  43.225  17.248   1.959
29491W        W 1217  44.415   7.999   2.166
29492W        W 1218  33.238  42.062  11.171
29493W        W 1219  37.879  14.376  10.432
29494W        W 1220   1.524   1.874   3.821
29495W        W 1221  42.137  38.586  11.983
29496W        W 1222  29.467   4.336  11.098
29497W        W 1223  41.334  15.626   0.127
29498W        W 1224  22.084  10.013   2.638
29499W        W 1225  27.720  42.305  12.922
29500W        W 1226  24.061  10.513  12.102
29501W        W 1227   2.393   0.398  14.687
29502W        W 1228   4.007  14.381  13.502
29503W        W 1229  33.781  12.327   1.735
29504W        W 1230  19.570  39.258   3.668
29505W        W 1231   2.329   6.300   3.289
29506W        W 1232  32.626  10.248  12.863
29507W        W 1233  20.454  31.856  14.533
29508W        W 1234  30.101   9.874   0.920
29509W        W 1235  43.030  24.571   1.238
29510W        W 1236  18.593  41.508   0.066
29511W        W 1237  32.418  26.901  12.363
29512W        W 1238   3.203   7.424  10.735
29513W        W 1239  12.368  10.610  11.908
29514W        W 1240   0.038  29.175   1.836
29515W        W 1241  14.721  41.735   1.637
29516W        W 1242  12.137   4.260   0.537
29517W        W 1243   4.378  27.361   4.071
29518W        W 1244  13.928  39.420  11.144
29519W        W 1245   8.088  10.674   2.885
29520W        W 1246  16.172   4.960   2.798
29521W        W 1247  20.496  41.940   3.156
29522W        W 1248  44.468  29.221  11.210
29523W        W 1249  20.676  14.663  14.594
29524W        W 1250  14.333  26.538  10.528
29525W        W 1251  34.666  42.952  12.328
29526W        W 1252  22.780  19.008  13.959
29527W        W 1253   4.798  14.529   2.584
29528W        W 1254  35.181  41.101   2.179
29529W        W 1255  22.597   6.745  13.157
29530W        W 1256  38.898  42.422  12.376
29531W        W 1257   0.717  32.616  10.961
29532W        W 1258  33.391  25.798  14.800
29533W        W 1259  42.280  37.069  14.432
29534W        W 1260   2.472  12.873  12.431
29535W        W 1261  27.638   5.790  13.564
29536W        W 1262  10.133  28.617  14.766
29537W        W 1263   1.413   7.434  12.547
29538W        W 1264   9.806  32.742  12.399
29539W        W 1265  34.919  10.214  13.006
29540W        W 1266   0.871  16.188  14.197
29541W        W 1267   9.142  20.428  12.977
29542W        W 1268  12.201  36.431   4.594
29543W        W 1269  44.343  37.051  11.548
29544W        W 1270   3.393  40.544   3.867
29545W        W 1271  32.810  33.532  13.886
29546W        W 1272   3.815  19.950  12.522
29547W        W 1273  11.004   4.813  10.326
29548W        W 1274  13.159  39.381   1.380
29549W        W 1275   3.386  30.522  12.623
29550W        W 1276  26.639  11.054   0.297
29551W        W 1277  20.094   2.027   2.367
29552W        W 1278  26.741  25.205   3.705
29553W        W 1279  38.011   2.764  12.823
29554W        W 1280   1.339  24.974   4.158
29555W        W 1281  10.283  40.512  14.165
29556W        W 1282   3.292   6.342  13.703
29557W        W 1283  26.935  36.922  10.650
29558W        W 1284  26.247   5.355  10.731
29559W        W 1285  24.643  26.420  11.353
29560W        W 1286  29.963  43.803   3.341
29561W        W 1287  16.610  19.552   3.598
29562W        W 1288   6.020  27.741   2.189
29563W        W 1289   7.139  10.230   3.789
29564W        W 1290  19.049   7.710   3.330
29565W        W 1291  11.679  26.042   4.524
29566W        W 1292  30.987  37.440   4.157
29567W        W 1293  11.902  43.004  11.585
29568W        W 1294  39.868  42.845   5.091
29569W        W 1295  39.846  22.770  13.994
29570W        W 1296   7.483  21.153   4.581
29571W        W 1297  13.529  28.092  10.586
29572W        W 1298  14.493  13.721   0.068
29573W        W 1299  41.574  38.364   1.630
29574W        W 1300   6.579  24.658   2.319
29575W        W 1301  22.636  42.319  10.796
29576W        W 1302  35.126  18.281   3.091
29577W        W 1303   8.084  23.274   4.648
29578W        W 1304   8.430  29.892   0.733
29579W        W 1305  13.165  32.960   1.292
29580W        W 1306  22.141  18.456   0.819
29581W        W 1307   1.353   2.468  11.498
29582W        W 1308  37.330  13.271  13.013
29583W        W 1309   4.196  24.409   2.255
29584W        W 1310  13.361  31.953   1.179
29585W        W 1311  37.452  41.288   0.781
29586W        W 1312  37.476  15.864   3.629
29587W        W 1313  43.779  12.255   1.828
29588W        W 1314  36.073  20.682  14.901
29589W        W 1315  32.981  19.136  14.376
29590W        W 1316  10.443   9.915  12.613
29591W        W 1317  28.340  21.838   2.465
29592W        W 1318  12.204  44.686  10.633
29593W        W 1319  24.164  24.078  13.685
29594W        W 1320  25.632  39.485  12.600
29595W        W 1321  22.658  43.884   0.245
29596W        W 1322  18.028  38.432  11.447
29597W        W 1323  30.438  21.272   4.421
29598W        W 1324  30.408  40.961   3.173
29599W        W 1325   3.975  10.750   1.316
29600W        W 1326   3.357  22.446   2.164
29601W        W 1327   6.002  11.664  12.409
29602W        W 1328   6.903  33.069  13.034
29603W        W 1329  32.166   2.269  12.195
29604W        W 1330   1.317  27.642  13.337
29605W        W 1331  44.889  43.728   1.988
29606W        W 1332  22.240  27.716   0.351
29607W        W 1333  39.344  18.380  12.313
29608W        W 1334   0.406  23.169   3.146
29609W        W 1335  33.934  13.691  13.307
29610W        W 1336  42.374  23.937   3.322
29611W        W 1337  36.452  30.845  11.517
29612W        W 1338  35.658   6.351   3.093
29613W        W 1339  29.402  31.099   0.258
29614W        W 1340  10.742  19.717   0.347
29615W        W 1341   9.804  20.223  13.977
29616W        W 1342   7.372  42.557   4.851
29617W        W 1343   1.641  30.531  13.150
29618W        W 1344  30.146   4.809   0.969
29619W        W 1345  13.616  43.831   1.941
29620W        W 1346  20.502  11.780  12.820
29621W        W 1347  35.416  11.255  14.586
29622W        W 1348  42.974   2.536  13.694
29623W        W 1349   7.690   3.370  10.724
29624W        W 1350  32.894  29.968  12.140
29625W        W 1351  30.046  11.742   4.808
29626W        W 1352   6.411  38.650  11.647
29627W        W 1353  36.548  44.935  13.216
29628W        W 1354  17.669   9.792   3.296
29629W        W 1355  13.169  42.640  11.682
29630W        W 1356  13.772   0.849   0.228
29631W        W 1357  13.589  14.274   2.903
29632W        W 1358  21.454  27.969  11.065
29633W        W 1359  38.098  10.360   0.406
29634W        W 1360   3.941   7.464  14.511
29635W        W 1361   2.821  10.634  14.858
29636W        W 1362  36.570  31.073  14.036
29637W        W 1363  22.696   3.413  10.810
29638W        W 1364  16.637   8.389  14.310
29639W        W 1365   6.741   0.071  13.468
29640W        W 1366   3.033  31.142  14.921
29641W        W 1367   5.205   0.179   3.701
29642W        W 1368  21.671  40.552   2.185
29643W        W 1369  41.853  16.732   0.020
29644W        W 1370  43.099  40.588   3.768
29645W        W 1371  22.621  35.395   0.291
29646W        W 1372  23.704  23.551   4.804
29647W        W 1373  38.313  26.585   4.208
29648W        W 1374  10.850  18.576  13.568
29649W        W 1375  42.437  36.061  14.378
29650W        W 1376   6.080  16.548  12.925
29651W        W 1377   2.939  41.687  11.123
29652W        W 1378  36.478  17.142   3.246
29653W        W 1379  30.599  42.554  10.660
29654W        W 1380  16.715  34.802  12.764
29655W        W 1381  37.382  39.465   3.390
29656W        W 1382   2.794  36.398  14.307
29657W        W 1383  22.768   9.204  12.149
29658W        W 1384  14.077  16.711   0.424
29659W        W 1385  21.532  32.430  13.125
29660W        W 1386  20.482   1.373   2.862
29661W        W 1387  43.439  39.545  14.900
29662W        W 1388   1.210  36.615   1.326
29663W        W 1389  25.562  30.221   2.863
29664W        W 1390  17.056  19.417  13.474
29665W        W 1391   1.207  43.527   3.138
29666W        W 1392  16.553  41.138  12.368
29667W        W 1393  41.865  17.652   0.372
29668W        W 1394   1.461  23.873  12.628
29669W        W 1395  38.604  23.148  10.403
29670W        W 1396  37.889  24.473   4.764
29671W        W 1397  10.264   9.711   0.747
29672W        W 1398  14.740   3.311   3.623
29673W        W 1399  30.731   5.287  13.387
29674W        W 1400   5.933  42.368   4.152
29675W        W 1401   0.684  19.558   2.193
29676W        W 1402  30.707  10.712  10.626
29677W        W 1403  33.429  12.260   2.701
29678W        W 1404   6.341  29.321  13.866
29679W        W 1405   2.514  12.648  14.533
29680W        W 1406  28.272   0.273  13.884
29681W        W 1407  43.746  44.985   1.823
29682W        W 1408  20.194  13.102   4.825
29683W        W 1409  17.171  38.975  11.414
29684W        W 1410  21.787  33.767  12.419
29685W        W 1411  27.600  36.409   3.854
29686W        W 1412  34.338   0.280   3.166
29687W        W 1413  15.525  40.837  10.632
29688W        W 1414  30.745   5.846  11.118
29689W        W 1415  32.670  27.946   2.246
29690W        W 1416  11.791   0.173   1.203
29691W        W 1417  31.528  19.976  11.603
29692W        W 1418   6.862   8.131   1.756
29693W        W 1419  29.075  35.425  12.567
29694W        W 1420  33.394   8.585  13.462
29695W        W 1421  31.486  19.586  13.317
29696W        W 1422  22.264  34.865  12.350
29697W        W 1423  13.722  20.731  13.011
29698W        W 1424   2.018   7.767  11.544
29699W        W 1425  43.942   2.306   2.886
29700W        W 1426   9.046  32.543   2.310
29701W        W 1427   9.684  10.257   4.559
29702W        W 1428   8.196  12.859   1.731
29703W        W 1429   4.739  13.056   2.680
29704W        W 1430   0.790  10.278   0.965
29705W        W 1431  38.569  25.764   2.333
29706W        W 1432  36.055   7.755   4.621
29707W        W 1433  28.278  41.018   3.720
29708W        W 1434  16.681  11.809   3.645
29709W        W 1435  15.319  18.744   3.451
29710W        W 1436   0.780  41.551   3.705
29711W        W 1437   4.880  30.209   3.797
29712W        W 1438  40.581  14.504   1.845
29713W        W 1439  43.418  35.618  11.626
29714W        W 1440  14.136  25.300   0.938
29715W        W 1441  40.015  15.455  12.832
29716W        W 1442   3.653  13.718   3.549
29717W        W 1443  41.175  31.401  10.991
29718W        W 1444  26.792  28.620   0.494
29719W        W 1445  39.527  44.474  13.361
29720W        W 1446  39.065  38.557  13.410
29721W        W 1447  13.207  10.446   3.380
29722W        W 1448  21.571  21.255   4.698
29723W        W 1449  21.637  19.745   1.835
29724W        W 1450   3.864  22.952   0.820
29725W        W 1451  31.417  26.608   3.232
29726W        W 1452  35.433  24.400   5.089
29727W        W 1453   1.871   6.192  12.912
29728W        W 1454  19.652  18.095   2.237
29729W        W 1455  11.815  18.622   4.171
29730W        W 1456  29.902  21.488  12.222
29731W        W 1457  35.629   3.441   2.600
29732W        W 1458  26.749  25.846  12.250
29733W        W 1459  27.975  29.080  13.897
29734W        W 1460  17.708  43.587  13.975
29735W        W 1461   1.880  19.917   0.801
29736W        W 1462  41.183  44.183  11.618
29737W        W 1463  16.566  22.315  11.607
29738W        W 1464  38.059  32.951  11.974
29739W        W 1465  35.370  22.623  14.273
29740W        W 1466  41.971  38.520   1.331
29741W        W 1467  33.413  37.337   2.313
29742W        W 1468   1.875  24.015   2.944
29743W        W 1469  32.661   6.730  13.237
29744W        W 1470  41.040  43.744  11.192
29745W        W 1471  42.445  31.957  14.752
29746W        W 1472  11.306   5.650  10.497
29747W        W 1473   9.691  19.403   1.698
29748W        W 1474  21.808  31.221  13.431
29749W        W 1475  42.253   3.008   3.885
29750W        W 1476  43.907  19.301   3.788
29751W        W 1477   2.245  35.639  13.843
29752W        W 1478  32.475  10.988  12.077
29753W        W 1479  24.949   0.709  14.329
29754W        W 1480   7.359  11.737  12.601
29755W        W 1481   6.843  36.854   0.921
29756W        W 1482   2.519  26.776   0.793
29757W        W 1483  30.773  10.437  11.078
29758W        W 1484  36.896  36.867   0.058
29759W        W 1485  19.957  34.087  13.820
29760W        W 1486   2.230   7.744   1.378
29761W        W 1487   9.920  15.226   1.386
29762W        W 1488  33.071  11.338   1.324
29763W        W 1489  44.300   6.449  11.613
29764W        W 1490  22.216   3.538   4.225
29765W        W 1491  37.177   9.961  12.790
29766W        W 1492   9.860  36.226   5.378
29767W        W 1493  44.780  12.218   0.203
29768W        W 1494  34.962  36.458   1.413
29769W        W 1495  41.955  39.074   1.463
29770W        W 1496  12.618  32.837  10.798
29771W        W 1497  44.520  35.470   0.696
29772W        W 1498  11.213  28.108  12.155
29773W        W 1499  14.510  26.572   5.047
29774W        W 1500   3.272  27.107  10.357
29775W        W 1501   4.027   2.329   1.608
29776W        W 1502  17.657  35.139   2.764
29777W        W 1503  12.482  14.144  13.470
29778W        W 1504  36.544   8.394   0.984
29779W        W 1505   8.802  13.331   1.272
29780W        W 1506  40.110   1.539  11.833
29781W        W 1507  42.714  33.000   1.379
29782W        W 1508  28.491  43.304   2.394
29783W        W 1509  36.914  13.150  11.697
29784W        W 1510  21.571  16.791  13.079
29785W        W 1511  30.330  18.633  14.817
29786W        W 1512   1.483  25.462   1.972
29787W        W 1513  38.003  44.125   4.481
29788W        W 1514  21.120  20.237   0.734
29789W        W 1515   5.397  18.328   0.027
29790W        W 1516  25.148   0.274   4.624
29791W        W 1517  13.274  25.257  14.564
29792W        W 1518  27.504  37.289  13.984
29793W        W 1519  20.843  42.506  14.426
29794W        W 1520   6.431  34.178  11.016
29795W        W 1521  26.739   1.283  13.114
29796W        W 1522  23.909   4.925  10.724
29797W        W 1523  15.046  12.257   0.441
29798W        W 1524  20.934  11.620   2.998
29799W        W 1525  40.182  20.060  10.559
29800W        W 1526  19.114  39.026  12.589
29801W        W 1527  40.550  10.251   0.474
29802W        W 1528   2.804  21.310   3.163
29803W        W 1529  21.955  30.239   2.166
29804W        W 1530  42.501   4.364  14.849
29805W        W 1531  38.059  33.483   0.095
29806W        W 1532  35.181  33.263  11.164
29807W        W 1533  41.581  10.610   4.068
29808W        W 1534  40.225  15.898   4.166
29809W        W 1535   4.204  32.765   3.873
29810W        W 1536  32.477  36.572   2.174
29811W        W 1537  20.314   8.157  10.802
29812W        W 1538  13.837   9.845   1.412
29813W        W 1539  20.534   3.540  12.018
29814W        W 1540  22.077  31.176   0.446
29815W        W 1541  21.953  34.419  12.904
29816W        W 1542   4.989  39.102  13.449
29817W        W 1543  41.625  21.532  12.133
29818W        W 1544  16.105  15.099   3.702
29819W        W 1545  25.873  39.840   1.483
29820W        W 1546  15.806  16.683  14.494
29821W        W 1547  12.291   5.186   0.761
29822W        W 1548  31.484  34.321  13.400
29823W        W 1549  13.294  19.065  10.676
29824W        W 1550   2.369  20.158   4.119
29825W        W 1551  35.956  25.248  11.128
29826W        W 1552  21.093  19.503   3.805
29827W        W 1553  27.387  31.505  14.182
29828W        W 1554  21.062  20.150  11.571
29829W        W 1555  43.236  24.516  14.432
29830W        W 1556  44.827  30.098   2.966
29831W        W 1557  20.068  42.323  10.569
29832W        W 1558  19.660  28.599   1.817
29833W        W 1559  36.083  25.121   3.261
29834W        W 1560  39.820  41.378   4.082
29835W        W 1561  29.311  29.451   0.237
29836W        W 1562  23.190  36.024  11.553
29837W        W 1563  13.206  24.490  13.187
29838W        W 1564  13.295  21.550   2.839
29839W        W 1565  23.529   1.305  10.979
29840W        W 1566  40.830   4.828  10.405
29841W        W 1567  43.100  32.112   4.050
29842W        W 1568  21.201  14.822   2.397
29843W        W 1569  14.327  24.698   4.839
29844W        W 1570  14.397   3.266  11.467
29845W        W 1571  18.585  21.797  14.581
29846W        W 1572  43.788  37.976  10.727
29847W        W 1573  43.571  12.273   0.049
29848W        W 1574   0.298  16.709   4.193
29849W        W 1575  15.205  23.315   3.106
29850W        W 1576   9.989  17.704   0.801
29851W        W 1577  34.368  30.705  11.525
29852W        W 1578  23.584  13.021  10.100
29853W        W 1579  22.022   3.832   3.834
29854W        W 1580  37.978  43.421  12.428
29855W        W 1581  24.703  43.314   2.694
29856W        W 1582   3.754  16.699   3.284
29857W        W 1583  37.141  32.031  14.616
29858W        W 1584   5.900  18.189  12.445
29859W        W 1585  18.817  11.161   0.990
29860W        W 1586  44.884  38.549  11.963
29861W        W 1587  14.669  11.784   3.763
29862W        W 1588  11.643  31.846  14.455
29863W        W 1589  10.212  36.545   4.105
29864W        W 1590   2.157  16.135   0.033
29865W        W 1591   5.561  11.030   1.307
29866W        W 1592  14.760  37.860  10.687
29867W        W 1593  20.115  13.416   3.344
29868W        W 1594  25.679  32.364  13.401
29869W        W 1595  21.144  35.768   4.225
29870W        W 1596   6.505  34.911   2.758
29871W        W 1597  24.240  37.059  14.090
29872W        W 1598  35.068  40.272  12.486
29873W        W 1599  31.438  31.887  12.441
29874W        W 1600  21.390  30.593   2.818
29875W        W 1601   2.441  44.285  14.841
29876W        W 1602  34.344  14.640  14.771
29877W        W 1603  25.622  29.363  14.690
29878W        W 1604   3.207  22.211   0.140
29879W        W 1605   3.946  38.261  11.931
29880W        W 1606  38.284  29.773   1.478
29881W        W 1607  42.971   8.651   0.423
29882W        W 1608  21.284  40.551   3.661
29883W        W 1609   1.021  18.062  12.602
29884W        W 1610   1.727  39.060  11.992
29885W        W 1611  26.125  19.898   2.908
29886W        W 1612  15.726   7.219   0.322
29887W        W 1613   9.853  19.476   0.672
29888W        W 1614  30.968  16.311   2.808
29889W        W 1615  32.928  20.003  10.498
29890W        W 1616  33.937  43.350   4.153
29891W        W 1617   2.543  31.163  14.840
29892W        W 1618  29.063   6.615  14.731
29893W        W 1619   0.480  18.637   4.650
29894W        W 1620  44.093  40.439  11.506
29895W        W 1621  41.034  20.686  12.929
29896W        W 1622  27.128  27.229  14.364
29897W        W 1623   0.388  29.200   2.639
29898W        W 1624  22.032  32.676  11.161
29899W        W 1625  31.167  34.596   2.436
29900W        W 1626  23.558  24.098  14.835
29901W        W 1627  34.095   0.942   0.065
29902W        W 1628  42.197  17.048   3.616
29903W        W 1629  38.477  39.840   4.530
29904W        W 1630   0.055  20.202   1.776
29905W        W 1631  24.455  44.344  14.879
29906W        W 1632   1.194  12.220   0.745
29907W        W 1633   4.940  22.758  11.105
29908W        W 1634  42.324  28.995   2.329
29909W        W 1635   5.428  42.923  14.218
29910W        W 1636  31.675  43.860   1.270
29911W        W 1637  35.158  33.375   4.095
29912W        W 1638  26.393  30.582   2.400
29913W        W 1639  40.163   8.305   4.041
29914W        W 1640  40.120  23.658   1.955
29915W        W 1641  24.062  34.865   2.931
29916W        W 1642  31.150  29.666   3.630
29917W        W 1643  25.115  44.416   2.705
29918W        W 1644   2.637  40.454   0.460
29919W        W 1645  36.833  27.401   4.101
29920W        W 1646  20.100  34.926  11.942
29921W        W 1647   6.324  38.045   0.843
29922W        W 1648  38.054  24.010   1.282
29923W        W 1649  39.890  16.673   3.695
29924W        W 1650   2.184   8.899   4.261
29925W        W 1651  43.640  30.385   0.589
29926W        W 1652  30.402  11.679  13.489
29927W        W 1653  41.997  44.248   3.712
29928W        W 1654   7.767  39.924   1.802
29929W        W 1655  15.684  18.099   0.391
29930W        W 1656  22.613   6.728   4.371
29931W        W 1657  39.046  23.180  13.757
29932W        W 1658   0.443  27.276  14.313
29933W        W 1659   4.431   3.307  13.796
29934W        W 1660   7.663  44.759  13.506
29935W        W 1661   4.891  21.454   1.363
29936W        W 1662  22.748  19.321   4.780
29937W        W 1663  30.480   5.376  11.851
29938W        W 1664  13.690  35.604  12.557
29939W        W 1665  35.548  20.029  14.035
29940W        W 1666  42.194  10.688  13.038
29941W        W 1667  23.541  15.126  11.050
29942W        W 1668   5.253  16.769  13.646
29943W        W 1669  32.477  20.242   2.817
29944W        W 1670  42.968  37.927  14.984
29945W        W 1671  11.666  44.985   1.939
29946W        W 1672  37.744  24.751  13.479
29947W        W 1673   6.665  31.612   4.181
29948W        W 1674  18.130   3.389  13.398
29949W        W 1675  12.894   9.620  14.290
29950W        W 1676  41.380   5.398   2.048
29951W        W 1677  16.287  18.792  14.916
29952W        W 1678  20.520  25.880   1.298
29953W        W 1679  16.081   6.489  12.086
29954W        W 1680  30.813  15.866  14.428
29955W        W 1681  37.792  21.042  12.454
29956W        W 1682  27.818  11.866  12.430
29957W        W 1683  32.941   0.445  12.799
29958W        W 1684   3.413  39.502  13.963
29959W        W 1685  24.248  10.465   0.427
29960W        W 1686  19.039  40.893   4.339
29961W        W 1687  30.139  19.682   0.393
29962W        W 1688  21.160   8.209  13.764
29963W        W 1689  42.454  36.118   0.798
29964W        W 1690  35.592  32.912   1.838
29965W        W 1691  43.709  15.154   4.265
29966W        W 1692  40.591  30.490   2.774
29967W        W 1693   2.281  14.846   0.887
29968W        W 1694  21.680  23.079  11.970
29969W        W 1695   6.951  19.613   0.813
29970W        W 1696  41.225  24.050   0.352
29971W        W 1697   7.221   5.154   4.548
29972W        W 1698  24.198  30.628   1.284
29973W        W 1699  28.614   3.616   1.325
29974W        W 1700   2.758  15.211  14.906
29975W        W 1701  35.988   1.391  12.867
29976W        W 1702  24.881  14.125   3.044
29977W        W 1703   1.865  41.076   2.345
29978W        W 1704  44.979  28.089  11.954
29979W        W 1705   6.290  36.249  12.528
29980W        W 1706  10.300  32.486   4.721
29981W        W 1707   0.574   2.462   4.520
29982W        W 1708  41.202  42.132  14.498
29983W        W 1709  14.280  21.921   1.226
29984W        W 1710  39.836  18.296  14.371
29985W        W 1711  22.009  42.362  10.552
29986W        W 1712  27.693   0.439   1.779
29987W        W 1713  35.183  16.578  11.484
29988W        W 1714   2.236  38.930   5.155
29989W        W 1715  20.436  37.887   0.935
29990W        W 1716  20.115  23.183   3.550
29991W        W 1717   4.902  22.635   3.670
29992W        W 1718   4.884  17.072   1.152
29993W        W 1719  26.136  29.160   1.380
29994W        W 1720  42.889  41.020  11.217
29995W        W 1721  11.397  21.140  13.899
29996W        W 1722  43.216  18.176   1.812
29997W        W 1723   1.178  15.230  11.154
29998W        W 1724  28.545  35.461   3.763
29999W        W 1725  11.681  11.889  14.988
30000W        W 1726   3.843  17.638   0.628
30001W        W 1727  35.341  21.713  12.569
30002W        W 1728  37.070  20.677   3.854
30003W        W 1729  14.100  17.304   2.154
30004W        W 1730   5.182  36.481   0.829
30005W        W 1731  37.133  23.022   3.060
30006W        W 1732   1.942  23.225  11.071
30007W        W 1733  29.057  39.341   2.575
30008W        W 1734  40.792  31.068   0.876
30009W        W 1735  20.276  21.658   3.789
30010W        W 1736  17.613  27.691  13.368
30011W        W 1737  10.299  34.044  11.625
30012W        W 1738   6.898   7.887  14.054
30013W        W 1739   9.179  32.155  11.146
30014W        W 1740  31.537  30.520   1.953
30015W        W 1741  27.112  33.873  13.917
30016W        W 1742  22.960  30.509  11.988
30017W        W 1743  21.705  31.030   3.363
30018W        W 1744   3.886  26.267  13.383
30019W        W 1745   2.539  23.206  11.990
30020W        W 1746  21.639  21.151  11.166
30021W        W 1747  44.929  41.975  12.803
30022W        W 1748  35.614  44.704  14.699
30023W        W 1749  16.872  27.147  14.991
30024W        W 1750  21.719  32.525   3.702
30025W        W 1751  35.929  27.425   4.255
30026W        W 1752   0.540   6.819  13.780
30027W        W 1753  26.682  36.545   2.991
30028W        W 1754  33.509  26.842   3.629
30029W        W 1755  25.990  43.712   3.908
30030W        W 1756  24.462  21.018  12.809
30031W        W 1757  17.188  26.036  11.084
30032W        W 1758  15.738  40.423  13.910
30033W        W 1759  44.897   2.537   3.349
30034W        W 1760  28.704  17.669  12.877
30035W        W 1761  31.620  14.987   1.868
30036W        W 1762  11.854  43.023   2.469
30037W        W 1763  26.119   9.097   4.743
30038W        W 1764  29.444  43.899   2.682
30039W        W 1765  36.366  40.314  14.354
30040W        W 1766  34.054  22.712  11.923
30041W        W 1767  16.185  32.505   1.958
30042W        W 1768  13.287  12.303  14.210
30043W        W 1769  32.149   1.065  14.955
30044W        W 1770  42.086  34.871   1.706
30045W        W 1771  29.422  42.363  11.812
30046W        W 1772  31.625  26.208   0.370
30047W        W 1773  20.551  10.879   3.174
30048W        W 1774  10.263  34.481  13.478
30049W        W 1775  27.165  23.357  10.208
30050W        W 1776  18.297  13.226  12.466
30051W        W 1777  41.286  31.787   0.369
30052W        W 1778   1.724  15.198  12.545
30053W        W 1779  38.800  26.703   0.795
30054W        W 1780   1.378  17.782  10.386
30055W        W 1781  34.958  21.233   3.586
30056W        W 1782   8.918  10.784   2.532
30057W        W 1783  19.327  25.978   2.371
30058W        W 1784  27.656  35.602   0.865
30059W        W 1785  26.987  40.302  12.172
30060W        W 1786  11.874   5.709  13.673
30061W        W 1787  31.442  42.249  11.634
30062W        W 1788  21.538  29.606   3.214
30063W        W 1789  28.172  38.257  10.531
30064W        W 1790  23.462  16.377  14.417
30065W        W 1791  11.373   2.306   4.789
30066W        W 1792  43.500  34.192  11.080
30067W        W 1793   2.887  12.164   0.965
30068W        W 1794  38.937  31.401  14.741
30069W        W 1795  12.521  35.847   0.610
30070W        W 1796   5.385   9.643   2.698
30071W        W 1797  39.289  21.697  12.481
30072W        W 1798  15.638  36.339  14.973
30073W        W 1799  26.676  31.617   0.381
30074W        W 1800   1.008  41.125   1.290
30075W        W 1801  28.896   5.160  11.860
30076W        W 1802  38.419  24.051  12.363
30077W        W 1803  30.173  25.105   4.023
30078W        W 1804  29.285  12.615   2.068
30079W        W 1805  13.200  33.299   3.533
30080W        W 1806   7.173  13.704   4.230
30081W        W 1807   1.500  42.023   0.742
30082W        W 1808  21.726  42.062   2.192
30083W        W 1809  42.444  40.112   1.818
30084W        W 1810  32.678  21.190   3.710
30085W        W 1811  36.466  13.350   3.657
30086W        W 1812  19.189   5.992  11.853
30087W        W 1813  14.055  34.320   3.654
30088W        W 1814  18.722  43.004  13.156
30089W        W 1815  31.966  28.433   1.670
30090W        W 1816  17.794  33.868   0.682
30091W        W 1817  32.596  12.069   0.137
30092W        W 1818  13.663  36.332   1.812
30093W        W 1819  19.187   4.208   1.381
30094W        W 1820  37.655  25.216   1.459
30095W        W 1821   9.284  12.610   4.695
30096W        W 1822  16.581   9.779  13.054
30097W        W 1823  16.041  38.156  13.973
30098W        W 1824  24.897  42.919   3.601
30099W        W 1825  44.698  19.085  12.897
30100W        W 1826   9.764   1.638  14.868
30101W        W 1827  26.014  21.341  14.478
30102W        W 1828   2.469  17.740   3.536
30103W        W 1829  13.874  44.296   1.950
30104W        W 1830  31.497   1.786   0.880
30105W        W 1831  24.562  33.441  13.384
30106W        W 1832  19.240  12.686  11.628
30107W        W 1833   4.865  24.294  11.038
30108W        W 1834  38.996   5.754  13.928
30109W        W 1835   6.776  13.653   2.778
30110W        W 1836   3.175  36.524   2.716
30111W        W 1837  31.419  28.853  14.727
30112W        W 1838  40.351  26.238  10.712
30113W        W 1839   1.934  14.182  13.505
30114W        W 1840  36.218  22.443   0.017
30115W        W 1841  14.407  19.502   2.827
30116W        W 1842  37.059  34.111   0.263
30117W        W 1843  15.802  22.047   2.260
30118W        W 1844  36.356   5.452   3.329
30119W        W 1845  10.237  13.382  13.304
30120W        W 1846  21.749  15.199   4.488
30121W        W 1847  14.389  38.494  12.779
30122W        W 1848  11.307  40.999   0.064
30123W        W 1849  17.792  33.463  13.810
30124W        W 1850  19.305   5.179  13.281
30125W        W 1851   4.402  16.253  11.159
30126W        W 1852  14.226  22.115  11.108
30127W        W 1853  11.690   2.928   2.730
30128W        W 1854   0.827  35.817  13.382
30129W        W 1855  30.709  17.592   1.459
30130W        W 1856  17.587   0.846   3.173
30131W        W 1857  26.987  22.605  11.490
30132W        W 1858  24.581   7.837   4.246
30133W        W 1859  23.772  44.824  12.973
30134W        W 1860  40.090  34.542   3.177
30135W        W 1861  19.044  33.569  12.422
30136W        W 1862  19.194  13.751  14.379
30137W        W 1863  22.793  11.857   4.617
30138W        W 1864  31.396  28.539   1.381
30139W        W 1865  29.222   6.880  13.942
30140W        W 1866  35.485   5.414  13.034
30141W        W 1867  16.185   5.335   1.400
30142W        W 1868  27.445   6.733  14.544
30143W        W 1869   4.311  10.814  11.137
30144W        W 1870  35.046  38.297   3.173
30145W        W 1871  17.270  42.439  14.365
30146W        W 1872  25.597  13.405  14.477
30147W        W 1873  17.315   0.983  11.637
30148W        W 1874  24.238   7.421  13.164
30149W        W 1875  27.687  17.250   4.357
30150W        W 1876  22.240  25.535   3.214
30151W        W 1877  28.022  17.249   1.805
30152W        W 1878   4.852   1.748  10.729
30153W        W 1879  35.914  22.883  14.974
30154W        W 1880   1.584  15.700   1.464
30155W        W 1881   7.906   6.670  13.386
30156W        W 1882  13.577  25.982  11.095
30157W        W 1883  30.694   9.931  11.100
30158W        W 1884  23.146  44.282   3.654
30159W        W 1885  12.614  10.243  10.470
30160W        W 1886  33.098   7.456   0.276
30161W        W 1887   9.015  21.466   0.356
30162W        W 1888  27.406  16.907   4.092
30163W        W 1889   0.022  27.677  12.571
30164W        W 1890  38.065  23.679   2.811
30165W        W 1891  31.148  10.942  11.587
30166W        W 1892  15.645  20.887  14.929
30167W        W 1893  23.611  37.590  12.181
30168W        W 1894  33.061  36.048  11.396
30169W        W 1895  24.022  29.098   2.312
30170W        W 1896  19.299   3.335  12.435
30171W        W 1897  15.291  12.588   3.676
30172W        W 1898  36.841  18.871   0.862
30173W        W 1899  17.358   1.658   1.736
30174W        W 1900  18.731  28.995  10.160
30175W        W 1901  22.977  31.172  11.403
30176W        W 1902  43.051  15.563   4.862
30177W        W 1903  35.389   8.768   2.921
30178W        W 1904  19.261  17.279   4.836
30179W        W 1905  27.774  25.287   4.547
30180W        W 1906  29.972  16.175  11.593
30181W        W 1907   5.290  32.895   0.241
30182W        W 1908  24.000   9.458  12.570
30183W        W 1909  23.832  39.009   0.999
30184W        W 1910  39.338   0.497   2.809
30185W        W 1911  38.003   5.196  10.478
30186W        W 1912   6.414   1.795   4.642
30187W        W 1913   0.463  12.854   4.127
30188W        W 1914   2.696  14.344   2.265
30189W        W 1915  36.427  43.800  13.840
30190W        W 1916  16.622  40.820  14.940
30191W        W 1917  36.057  17.768   4.519
30192W        W 1918  24.124   0.947   3.871
30193W        W 1919  22.180  40.040   4.361
30194W        W 1920   0.171  28.180   1.012
30195W        W 1921  33.333  25.715   5.045
30196W        W 1922  25.698  35.848  11.989
30197W        W 1923  22.037   0.762   3.595
30198W        W 1924  10.180  12.376   4.087
30199W        W 1925  31.051   3.412   1.052
30200W        W 1926   2.661   4.414   0.161
30201W        W 1927   7.209  24.757   3.297
30202W        W 1928  10.814  19.324  12.594
30203W        W 1929  17.301  15.741  11.337
30204W        W 1930  22.089   1.180  11.607
30205W        W 1931  13.080  17.051   1.370
30206W        W 1932   5.327  14.587  11.109
30207W        W 1933  42.176  31.179   2.762
30208W        W 1934   9.539  35.242   1.880
30209W        W 1935  27.779  36.058  12.003
30210W        W 1936  17.542   2.479   3.659
30211W        W 1937  21.957  17.011  13.694
30212W        W 1938  34.216   9.112   2.756
30213W        W 1939   1.025  25.243   2.432
30214W        W 1940  42.796  27.109   4.700
30215W        W 1941  14.817  30.589  11.408
30216W        W 1942  21.254  19.965  12.029
30217W        W 1943  40.026  13.072  14.500
30218W        W 1944  19.523  16.821   4.985
30219W        W 1945   7.200  37.868  11.231
30220W        W 1946  34.982   8.410  12.170
30221W        W 1947   5.784  23.101   2.059
30222W        W 1948   4.402  31.845  13.914
30223W        W 1949  31.897  12.887   2.488
30224W        W 1950  11.341  34.528   4.165
30225W        W 1951  25.287  33.057   2.122
30226W        W 1952  44.820  13.541  12.056
30227W        W 1953  16.779  23.048  12.060
30228W        W 1954  20.792  28.682  10.859
30229W        W 1955   7.150  26.580  12.069
30230W        W 1956  10.191  26.155   1.653
30231W        W 1957  24.039  25.706   2.780
30232W        W 1958  27.998   0.453  13.480
30233W        W 1959  12.511   0.027   4.408
30234W        W 1960  24.054  12.128  11.904
30235W        W 1961  27.562   5.953   2.327
30236W        W 1962   2.276  31.869   2.225
30237W        W 1963  42.837  32.489  11.106
30238W        W 1964  29.907   8.267  11.113
30239W        W 1965  19.927   9.088   0.474
30240W        W 1966  16.857  41.920   4.808
30241W        W 1967   8.944  36.885   3.243
30242W        W 1968  16.291  40.781   3.866
30243W        W 1969  34.345  29.538   1.389
30244W        W 1970  39.041  11.685   0.355
30245W        W 1971   5.748  38.271  12.899
30246W        W 1972  17.357  44.382  13.798
30247W        W 1973  17.114  32.681   3.772
30248W        W 1974  23.172  18.627   2.384
30249W        W 1975  38.311  19.788  14.232
30250W        W 1976  22.130  40.730  11.482
30251W        W 1977  44.083  26.973  14.937
30252W        W 1978   7.716  37.306   3.581
30253W        W 1979   0.822  39.614  11.975
30254W        W 1980  41.485  15.756   2.277
30255W        W 1981  21.956  22.702  12.491
30256W        W 1982  19.240  41.891   4.206
30257W        W 1983  22.685  31.434   4.688
30258W        W 1984   0.559  40.369   4.862
30259W        W 1985  12.579  43.414   2.784
30260W        W 1986   2.440  41.476  14.752
30261W        W 1987   1.533  23.653   1.767
30262W        W 1988  40.879  12.262  13.459
30263W        W 1989  43.200  14.553   3.782
30264W        W 1990  35.504  36.492   2.172
30265W        W 1991  17.785  42.492  10.554
30266W        W 1992  10.542  36.606   3.364
30267W        W 1993   6.886  11.765  12.394
30268W        W 1994  32.775  44.974  13.106
30269W        W 1995  35.884  28.528  12.624
30270W        W 1996  12.159  30.554  13.731
30271W        W 1997  37.308  21.103  12.216
30272W        W 1998   5.986  33.978  11.189
30273W        W 1999  44.068  37.525   2.451
30274W        W 2000   3.591   8.436  10.745
30275W        W 2001  11.808   4.511   1.722
30276W        W 2002  40.050  15.563   4.528
30277W        W 2003   2.208   9.154  11.659
30278W        W 2004   0.497  30.766  14.279
30279W        W 2005  41.910   0.475  14.902
30280W        W 2006  32.973  21.131   0.919
30281W        W 2007  30.399   4.449   2.627
30282W        W 2008  12.953  34.045   4.896
30283W        W 2009  29.378  37.625  12.496
30284W        W 2010  18.984  21.616  13.655
30285W        W 2011  37.345  30.919   1.868
30286W        W 2012  34.919  23.016  14.010
30287W        W 2013  26.462   2.215   0.547
30288W        W 2014  24.964   1.425  13.814
30289W        W 2015  23.636   1.742  14.001
30290W        W 2016   4.298  12.822   2.536
30291W        W 2017  32.005  15.771   1.746
30292W        W 2018  26.955  37.403  14.083
30293W        W 2019  32.135  21.619  14.416
30294W        W 2020  28.657  21.338   0.354
30295W        W 2021   0.231  16.324   1.418
30296W        W 2022   9.674  44.551   3.277
30297W        W 2023  33.275  19.106  11.961
30298W        W 2024  11.595  39.901   4.216
30299W        W 2025  11.560  12.134   2.713
30300W        W 2026  38.531  21.158  14.602
30301W        W 2027  37.546  11.076   4.828
30302W        W 2028   1.217  13.026  11.118
30303W        W 2029  21.164   8.587  14.949
30304W        W 2030   5.439  10.690   3.299
30305W        W 2031  43.537  34.388  12.932
30306W        W 2032  40.068   5.023   2.820
30307W        W 2033  36.324  16.132  11.871
30308W        W 2034  20.345  37.219  11.106
30309W        W 2035  32.623  37.846  11.271
30310W        W 2036  19.279  19.335   3.937
30311W        W 2037  12.170   2.349  10.749
30312W        W 2038  19.280  28.714  11.677
30313W        W 2039   4.705  44.831  14.491
30314W        W 2040  30.016   6.252  12.928
30315W        W 2041  11.127  38.914  13.492
30316W        W 2042  17.043   1.450  14.542
30317W        W 2043  22.539  33.620   4.378
30318W        W 2044   9.365  10.367   3.598
30319W        W 2045  43.794  23.991   4.548
30320W        W 2046  40.859  11.832  14.842
30321W        W 2047  29.552  30.835  14.829
30322W        W 2048  24.115  27.046   2.229
30323W        W 2049  29.930  40.952   1.873
30324W        W 2050  44.924  13.635  14.283
30325W        W 2051  34.394  10.742   2.218
30326W        W 2052  24.462  12.097  12.609
30327W        W 2053  15.250  22.037   4.697
30328W        W 2054   4.457   8.901   2.735
30329W        W 2055  24.162  42.466  11.218
30330W        W 2056  36.210   6.939   0.819
30331W        W 2057  22.783  43.715  12.395
30332W        W 2058  35.499  33.050   1.327
30333W        W 2059  30.351  35.018   3.581
30334W        W 2060  10.720  31.305   2.675
30335W        W 2061  18.771  37.531  12.548
30336W        W 2062  36.102  39.050   1.903
30337W        W 2063  30.890  18.762   4.208
30338W        W 2064   4.938  44.523   4.667
30339W        W 2065  31.339  15.723  13.010
30340W        W 2066  39.633  23.176   0.917
30341W        W 2067  44.975  27.121   4.672
30342W        W 2068   1.215  22.988   2.745
30343W        W 2069  24.027  25.926   3.250
30344W        W 2070   2.490  39.382  12.524
30345W        W 2071  16.112  14.589   3.803
30346W        W 2072  41.820   5.511   4.123
30347W        W 2073  35.086  32.417   3.617
30348W        W 2074  35.492  37.776  13.050
30349W        W 2075  28.568   3.388  10.849
30350W        W 2076   9.961   2.549   1.755
30351W        W 2077  27.343   5.323   3.640
30352W        W 2078   7.864  25.436  12.584
30353W        W 2079  29.930  28.983  12.159
30354W        W 2080  42.679  13.179  13.789
30355W        W 2081  20.230   1.306  13.128
30356W        W 2082  39.838  20.741   3.074
30357W        W 2083  41.532  19.028  12.499
30358W        W 2084   6.700  34.999   2.265
30359W        W 2085  44.526  29.003   4.771
30360W        W 2086  16.859  11.608   2.601
30361W        W 2087  38.474  38.715   2.028
30362W        W 2088  31.427   7.785  10.642
30363W        W 2089  16.131  32.316   3.661
30364W        W 2090  40.889  41.971   1.214
30365W        W 2091   8.212  33.765  12.170
30366W        W 2092  13.452   6.748   2.913
30367W        W 2093  28.760   5.227  10.514
30368W        W 2094  44.876  25.158  11.455
30369W        W 2095  44.010   9.614   2.734
30370W        W 2096   6.890  20.608   0.414
30371W        W 2097  43.665   4.387   1.461
30372W        W 2098  10.820  18.270  11.584
30373W        W 2099   3.334  11.318  12.081
30374W        W 2100  40.693   2.349  14.739
30375W        W 2101  35.571  21.070  13.722
30376W        W 2102  19.512  42.413  13.613
30377W        W 2103  31.400  21.615   3.718
30378W        W 2104  12.623  11.150  10.688
30379W        W 2105  43.241  29.510   0.327
30380W        W 2106  43.357  18.943  12.174
30381W        W 2107  30.159  42.286  10.686
30382W        W 2108   8.225  38.305  11.616
30383W        W 2109  22.812   5.732   3.775
30384W        W 2110  36.883  30.395  13.615
30385W        W 2111  36.373  23.773  14.872
30386W        W 2112  15.191  29.383   0.730
30387W        W 2113   3.247  12.111   0.291
30388W        W 2114  21.095  31.841   1.760
30389W        W 2115  11.673  37.162  14.848
30390W        W 2116  14.297  24.692  14.568
30391W        W 2117  44.070  38.839  12.860
30392W        W 2118  26.262   5.727   0.161
30393W        W 2119   9.279  19.152  13.370
30394W        W 2120   0.335  38.594  12.192
30395W        W 2121  13.630  19.493   2.303
30396W        W 2122  11.118  21.271  12.348
30397W        W 2123  30.425  44.267  10.652
30398W        W 2124  17.908  34.003  13.084
30399W        W 2125   2.773  13.836   2.393
30400W        W 2126  35.443  31.419  12.371
30401W        W 2127  21.613  16.255  13.043
30402W        W 2128  17.642  16.883   0.480
30403W        W 2129   7.861  11.085  10.959
30404W        W 2130  15.117  13.172  14.560
30405W        W 2131  35.057  16.783  12.983
30406W        W 2132   9.342  28.485   2.894
30407W        W 2133  34.617  38.629   3.196
30408W        W 2134   9.537   7.338  13.808
30409W        W 2135  18.667  13.408   3.268
30410W        W 2136  34.502  44.582  11.574
30411W        W 2137  11.312  40.102   3.692
30412W        W 2138  15.227  38.375  10.095
30413W        W 2139  36.397  39.453  11.063
30414W        W 2140  12.205  36.706   2.671
30415W        W 2141  22.276  31.887  12.892
30416W        W 2142  36.374  13.611  14.450
30417W        W 2143   6.954  18.578   2.732
30418W        W 2144  39.964  38.020  11.660
30419W        W 2145   4.493  20.795   3.214
30420W        W 2146  27.167  15.027   2.874
30421W        W 2147  18.381  43.039   1.271
30422W        W 2148  15.253  27.157   1.660
30423W        W 2149   1.041  35.717  12.930
30424W        W 2150  31.572  22.369  14.603
30425W        W 2151  36.956  10.668  14.946
30426W        W 2152   7.694  14.055   0.812
30427W        W 2153  26.771  36.843   4.325
30428W        W 2154   0.274  40.603  13.748
30429W        W 2155  29.484  21.635  13.038
30430W        W 2156  11.862   7.918   2.331
30431W        W 2157  36.227  44.109  14.798
30432W        W 2158  32.486  40.859   0.484
30433W        W 2159  37.930  28.456  13.579
30434W        W 2160   7.466   2.897   3.295
30435W        W 2161  22.509  27.081   1.352
30436W        W 2162  27.142   7.242   1.373
30437W        W 2163  37.438  44.305  14.011
30438W        W 2164  18.313  40.421   2.405
30439W        W 2165  26.881   8.000  11.969
30440W        W 2166  12.546   0.688  10.830
30441W        W 2167  36.609  32.950   2.844
30442W        W 2168  36.718  26.900   3.677
30443W        W 2169  25.147  16.832   1.365
30444W        W 2170  32.822  26.655   3.248
30445W        W 2171  34.870  22.118   3.743
30446W        W 2172  20.172  18.517   4.232
30447W        W 2173  17.588  24.992   4.337
30448W        W 2174  30.006  25.299  12.609
30449W        W 2175  43.855  18.737  13.078
30450W        W 2176  44.701  14.357  12.936
30451W        W 2177   4.534  41.085   1.117
30452W        W 2178  19.236  19.237  12.561
30453W        W 2179  29.421  34.079  10.701
30454W        W 2180  12.108  33.564  13.600
30455W        W 2181   0.681  40.328  12.480
30456W        W 2182   8.230  32.069   2.152
30457W        W 2183  23.116  28.292   4.321
30458W        W 2184  14.132  31.358  13.894
30459W        W 2185  29.695  15.052   1.858
30460W        W 2186  26.881  21.087   1.909
30461W        W 2187  31.582  43.471  10.303
30462W        W 2188   3.122   4.415   0.673
30463W        W 2189  10.141   2.011   2.678
30464W        W 2190  28.706  26.625  14.799
30465W        W 2191  39.318  29.967   2.813
30466W        W 2192  28.668  37.214  14.303
30467W        W 2193  17.204  40.982  14.805
30468W        W 2194  34.338  39.100  13.942
30469W        W 2195   1.967  30.386  11.696
30470W        W 2196  18.821   7.663   0.725
30471W        W 2197  11.948   2.617  14.812
30472W        W 2198  28.917  36.516   2.886
30473W        W 2199   1.248   2.900   0.861
30474W        W 2200  15.360  24.072  12.719
30475W        W 2201  30.389   0.330  13.531
30476W        W 2202   9.581  36.849  11.868
30477W        W 2203  44.921   0.766  13.881
30478W        W 2204  30.077   2.514   1.311
30479W        W 2205  16.214  28.807   2.485
30480W        W 2206  14.255  15.196  13.426
30481W        W 2207  24.442  17.575  11.480
30482W        W 2208  37.024  19.610   1.377
30483W        W 2209  40.041   4.289  10.684
30484W        W 2210  23.593  40.761  13.053
30485W        W 2211  27.437  31.613  10.526
30486W        W 2212   1.930   5.689  13.043
30487W        W 2213  10.546  18.564  10.800
30488W        W 2214  43.977   8.948  11.715
30489W        W 2215  34.598  39.522  12.057
30490W        W 2216  41.017  37.282   0.421
30491W        W 2217  21.920  20.678  13.981
30492W        W 2218   2.236  28.488   5.010
30493W        W 2219  41.000  21.924   0.156
30494W        W 2220  37.390  28.342  12.958
30495W        W 2221  30.447  24.373   1.487
30496W        W 2222  40.524   4.357  12.968
30497W        W 2223  22.799   6.845   0.845
30498W        W 2224  18.665  17.285  14.484
30499W        W 2225  30.696  20.189  13.495
30500W        W 2226  16.116  16.251   0.218
30501W        W 2227  41.392  34.900  13.561
30502W        W 2228  43.294  14.877   3.377
30503W        W 2229   4.931  17.646  12.411
30504W        W 2230  21.577  25.610   0.004
30505W        W 2231  16.237  44.255   2.795
30506W        W 2232  16.535  25.682   2.342
30507W        W 2233  29.657  14.813  12.882
30508W        W 2234   8.648  44.341   1.057
30509W        W 2235   0.844   5.538   0.999
30510W        W 2236  32.384  24.390  11.518
30511W        W 2237   1.775  30.247  12.259
30512W        W 2238   5.738   3.356   3.338
30513W        W 2239   1.990  27.198   4.209
30514W        W 2240  38.489  23.122   2.399
30515W        W 2241  41.764  32.510   0.061
30516W        W 2242   4.393  26.992  11.980
30517W        W 2243  16.271  10.691  13.303
30518W        W 2244  32.520  14.196   4.464
30519W        W 2245  25.218  29.947  11.088
30520W        W 2246  38.264   6.632  13.719
30521W        W 2247  20.652   8.659  14.928
30522W        W 2248  33.823  22.053   3.730
30523W        W 2249   5.983  37.485   1.338
30524W        W 2250  44.853  32.566  12.893
30525W        W 2251  15.214  26.944  11.387
30526W        W 2252   3.457   8.889  10.371
30527W        W 2253  26.648  25.058  14.183
30528W        W 2254  42.357   8.243  13.113
30529W        W 2255   2.038   7.270  11.535
30530W        W 2256  30.920  20.575   3.771
30531W        W 2257  10.227  29.893   3.843
30532W        W 2258  32.172  33.128  13.204
30533W        W 2259  37.391  12.031   3.756
30534W        W 2260  37.491   1.815   1.317
30535W        W 2261  26.764  34.937   2.544
30536W        W 2262  12.300  31.921  14.088
30537W        W 2263  38.270  20.960   2.026
30538W        W 2264  28.112  34.922   3.146
30539W        W 2265  40.080  33.684   0.509
30540W        W 2266   5.850  40.744   1.407
30541W        W 2267   3.686  12.177   4.095
30542W        W 2268  39.466  28.634  12.037
30543W        W 2269   2.882  24.989  14.407
30544W        W 2270  11.746  34.637   3.621
30545W        W 2271  39.575  28.372  11.610
30546W        W 2272  35.006   1.916  11.965
30547W        W 2273  43.082  34.663  12.904
30548W        W 2274  18.295  37.623  12.831
30549W        W 2275  17.115  20.258  12.962
30550W        W 2276   8.135   5.454  10.626
30551W        W 2277  30.102   2.911   2.384
30552W        W 2278  32.190  34.848  13.095
30553W        W 2279  37.510  26.093   4.072
30554W        W 2280  42.741  23.512  13.370
30555W        W 2281  44.026  33.362  13.795
30556W        W 2282   1.720  30.844  10.770
30557W        W 2283  17.722  12.080  11.482
30558W        W 2284   6.664   3.971  14.439
30559W        W 2285  20.232   3.363  14.903
30560W        W 2286  20.195  37.999  11.729
30561W        W 2287   1.956  23.953  13.424
30562W        W 2288  15.194  37.643  14.714
30563W        W 2289   7.000  41.427   4.281
30564W        W 2290  33.021  16.825  10.541
30565W        W 2291  37.978  35.661   4.818
30566W        W 2292  37.204   1.262  13.593
30567W        W 2293  31.123   8.089  14.853
30568W        W 2294  16.982   8.382   3.723
30569W        W 2295  38.923  17.708   1.840
30570W        W 2296  39.254  11.433  14.505
30571W        W 2297  19.571  21.219   3.173
30572W        W 2298  16.874  12.042  11.101
30573W        W 2299  38.566  29.046   2.679
30574W        W 2300  39.500  19.823  11.074
30575W        W 2301  14.579  37.983   2.873
30576W        W 2302  15.267  43.526  11.962
30577W        W 2303  13.212  31.055   3.176
30578W        W 2304  11.918   5.709  14.468
30579W        W 2305  26.371   5.216  10.251
30580W        W 2306   6.934  41.956   3.639
30581W        W 2307  16.169  31.127   1.022
30582W        W 2308  13.054  41.578   0.307
30583W        W 2309  22.017  14.284  14.080
30584W        W 2310  31.145  44.411   5.085
30585W        W 2311  18.750  22.276   3.132
30586W        W 2312  37.988  30.926   4.416
30587W        W 2313   3.470  44.912   1.422
30588W        W 2314  38.554  23.207   4.173
30589W        W 2315  40.024  28.684  14.577
30590W        W 2316  30.152  17.792   2.241
30591W        W 2317  16.355  33.926   2.329
30592W        W 2318  44.432  44.992  10.681
30593W        W 2319  38.380  33.440   1.976
30594W        W 2320  17.154   1.080   5.142
30595W        W 2321  25.093  38.175  11.274
30596W        W 2322   6.935  33.204   0.324
30597W        W 2323   5.767  25.196  13.916
30598W        W 2324  28.484  11.242   4.665
30599W        W 2325  32.148   5.693  11.093
30600W        W 2326  30.502  41.945  11.466
30601W        W 2327  28.473   3.650   4.777
30602W        W 2328   6.159  39.502  10.879
30603W        W 2329  43.231  35.337  13.411
30604W        W 2330  12.003  32.604  12.885
30605W        W 2331  16.585  22.668   2.874
30606W        W 2332  34.375   6.253   3.088
30607W        W 2333  35.423  25.081   2.421
30608W        W 2334  13.622   6.718   2.004
30609W        W 2335  13.301  28.568  10.640
30610W        W 2336  17.797  43.060   0.418
30611W        W 2337  26.259   0.570  10.150
30612W        W 2338  16.172   4.310   4.209
30613W        W 2339  31.114  37.422  10.644
30614W        W 2340  38.719   9.438   1.803
30615W        W 2341  27.980  30.398  13.533
30616W        W 2342  36.511  18.633   4.887
30617W        W 2343  28.551  20.809   2.374
30618W        W 2344  42.312  10.399   1.419
30619W        W 2345  14.910  44.198   2.475
30620W        W 2346  35.010  26.088   1.945
30621W        W 2347  43.965  14.885  14.898
30622W        W 2348   4.008  22.551  11.246
30623W        W 2349   6.240  19.313  14.952
30624W        W 2350   5.742  32.581   2.431
30625W        W 2351  42.757   0.755   0.169
30626W        W 2352  42.790  39.780  13.518
30627W        W 2353  30.426  43.944   2.739
30628W        W 2354  12.111   9.194   2.202
30629W        W 2355  33.525  25.229  10.214
30630W        W 2356  33.072   5.176   2.333
30631W        W 2357  29.523  43.397  13.109
30632W        W 2358   7.335  17.956   2.202
30633W        W 2359  26.124  20.437  13.052
30634W        W 2360  29.541  43.512   1.274
30635W        W 2361  16.189   7.606  11.184
30636W        W 2362  44.578   0.899  13.487
30637W        W 2363   6.638   4.725  14.337
30638W        W 2364   1.696  10.773  13.418
30639W        W 2365   3.810  21.465   3.313
30640W        W 2366  40.101  26.942  11.146
30641W        W 2367   3.909  31.042   4.277
30642W        W 2368  33.492  14.654  14.164
30643W        W 2369   0.199  18.638   4.213
30644W        W 2370  38.740  37.084  13.610
30645W        W 2371  14.075  21.085   0.162
30646W        W 2372  43.807  25.255   4.943
30647W        W 2373   3.783   6.250  12.856
30648W        W 2374  41.527  34.546   2.396
30649W        W 2375   9.656  16.095   1.886
30650W        W 2376  35.427  30.084   0.526
30651W        W 2377  20.164  14.993   3.320
30652W        W 2378  37.953   9.199  14.018
30653W        W 2379  19.259  20.205  11.894
30654W        W 2380  35.975   4.194  14.268
30655W        W 2381   2.561  10.280   9.842
30656W        W 2382  31.112  11.187   3.112
30657W        W 2383  17.254  17.277  13.281
30658W        W 2384  26.181  23.692  10.613
30659W        W 2385  21.638  15.634   1.690
30660W        W 2386  38.095   0.050  13.915
30661W        W 2387   8.833  14.694   0.448
30662W        W 2388  10.767  15.353   1.369
30663W        W 2389  21.834  43.712   1.757
30664W        W 2390  10.788  15.114   3.405
30665W        W 2391  31.976  12.926   0.692
30666W        W 2392  21.411  38.076  14.365
30667W        W 2393  44.680  39.464   2.243
30668W        W 2394   0.849  36.288  14.382
30669W        W 2395  37.451  26.922  13.179
30670W        W 2396  33.940   5.965   0.858
30671W        W 2397  42.512  37.001  11.202
30672W        W 2398  35.821   2.391   0.847
30673W        W 2399   8.865  40.612   4.819
30674W        W 2400  21.561  37.814  13.952
30675W        W 2401  13.323  42.544   2.268
30676W        W 2402   1.981  43.553  10.971
30677W        W 2403   5.831  16.193   2.950
30678W        W 2404  28.155   6.390  14.490
30679W        W 2405  32.147  34.450   1.189
30680W        W 2406  26.427  25.666   3.684
30681W        W 2407   0.189  44.340   2.338
30682W        W 2408   5.300  37.237   3.367
30683W        W 2409   0.230  44.685  10.571
30684W        W 2410  40.982   3.929   1.321
30685W        W 2411  30.636  41.434  13.425
30686W        W 2412  31.641  24.043   1.489
30687W        W 2413  17.029   8.904  10.131
30688W        W 2414  36.250   2.301   3.919
30689W        W 2415  28.955   2.741   2.907
30690W        W 2416  20.462  30.910   0.361
30691W        W 2417  15.256  29.990  10.745
30692W        W 2418  11.600  18.631   0.447
30693W        W 2419  21.077  28.894  11.948
30694W        W 2420   1.272  30.135  14.399
30695W        W 2421  16.371  18.671  13.553
30696W        W 2422  14.634  20.572  14.434
30697W        W 2423  36.393   0.931   4.137
30698W        W 2424   4.338  22.226  10.608
30699W        W 2425  33.998  35.355   4.162
30700W        W 2426  44.389  22.531   1.349
30701W        W 2427  41.406  23.137   4.629
30702W        W 2428  39.920   8.984   0.887
30703W        W 2429  35.995   3.897  10.849
30704W        W 2430  18.050  10.278  14.592
30705W        W 2431   2.485  17.733   0.914
30706W        W 2432   1.939  25.704  13.563
30707W        W 2433  23.979  24.518  12.067
30708W        W 2434   5.418  44.908   1.183
30709W        W 2435  29.169  41.407  14.819
30710W        W 2436  17.677  23.855  12.909
30711W        W 2437   8.387  15.559  14.479
30712W        W 2438   9.934  29.576   4.134
30713W        W 2439  22.523   1.480   0.728
30714W        W 2440   1.237  36.657  11.561
30715W        W 2441  23.528  40.260   1.272
30716W        W 2442  23.632  33.613   0.967
30717W        W 2443  27.170  30.442   1.267
30718W        W 2444  19.520  10.085  10.490
30719W        W 2445  36.403  42.016   4.254
30720W        W 2446   1.003  39.879   0.006
30721W        W 2447  15.704  40.675   4.116
30722W        W 2448  28.501   8.785   1.077
30723W        W 2449   0.758   5.183  14.396
30724W        W 2450  28.390  22.957  10.963
30725W        W 2451  18.157  40.927   2.352
30726W        W 2452  30.845  39.625  13.962
30727W        W 2453  15.747  15.609  11.606
30728W        W 2454  36.445   0.256   2.950
30729W        W 2455   0.932  30.516   2.166
30730W        W 2456  33.213  23.211  14.802
30731W        W 2457  34.759  44.741  14.354
30732W        W 2458  28.645  34.347  13.408
30733W        W 2459   2.661  38.787  14.987
30734W        W 2460  27.671   5.328   1.848
30735W        W 2461  40.307  25.004  11.261
30736W        W 2462   6.090  30.704  14.333
30737W        W 2463  30.909   7.774  10.683
30738W        W 2464   1.702  14.638  13.385
30739W        W 2465   1.453  11.429   4.324
30740W        W 2466  22.555  16.788   0.384
30741W        W 2467  34.544   7.817   4.859
30742W        W 2468  39.213  17.165  12.059
30743W        W 2469  13.327  24.303   1.685
30744W        W 2470  18.549  36.687   4.531
30745W        W 2471  30.623  35.065   0.387
30746W        W 2472  30.611  36.127  14.397
30747W        W 2473  43.936  28.809  13.039
30748W        W 2474  17.644   6.253  11.421
30749W        W 2475  22.127   9.689  13.830
30750W        W 2476  22.316  42.858   4.551
30751W        W 2477  44.621  17.688  14.757
30752W        W 2478  30.356  42.895   4.748
30753W        W 2479  30.979  12.541  13.845
30754W        W 2480   0.530  16.768   3.154
30755W        W 2481  25.616  27.906  13.544
30756W        W 2482  39.804  41.910  12.856
30757W        W 2483   1.783  34.250  14.510
30758W        W 2484   7.785  44.816   4.138
30759W        W 2485  26.025  42.958  10.246
30760W        W 2486  32.296  41.394  12.718
30761W        W 2487  42.356  20.674   3.724
30762W        W 2488  15.447  42.562  12.820
30763W        W 2489  28.564   8.573  12.638
30764W        W 2490  44.809  13.368  14.959
30765W        W 2491  23.700   6.126  13.492
30766W        W 2492  14.716  22.016   4.618
30767W        W 2493  29.943   9.660   3.258
30768W        W 2494  31.612  30.830   3.774
30769W        W 2495  41.170  34.889  13.087
30770W        W 2496  34.933  10.477  10.087
30771W        W 2497  16.061  26.507   4.404
30772W        W 2498   1.980  37.063  10.995
30773W        W 2499  34.552  30.225  14.759
30774W        W 2500  19.780  14.805   0.711
30775W        W 2501   2.871  18.893   4.377
30776W        W 2502  43.701   1.530  11.466
30777W        W 2503  36.586  42.413  12.888
30778W        W 2504   6.360  19.917   2.811
30779W        W 2505   4.247  36.248  14.909
30780W        W 2506  43.035  13.895   0.128
30781W        W 2507   6.523  27.677   2.330
30782W        W 2508  11.535  31.940   3.774
30783W        W 2509  34.958   2.565  10.860
30784W        W 2510  11.799   7.836   4.692
30785W        W 2511   9.436   4.228  11.084
30786W        W 2512  32.383  22.076  13.496
30787W        W 2513  40.007  30.218   4.912
30788W        W 2514  38.935  36.288  14.987
30789W        W 2515  31.680  17.808   0.350
30790W        W 2516  34.773  25.057   4.651
30791W        W 2517  24.719  26.033   0.893
30792W        W 2518   8.619   0.849  14.031
30793W        W 2519   5.737  24.615   3.340
30794W        W 2520   5.918  37.537   0.016
30795W        W 2521  44.976  26.460  14.730
30796W        W 2522  41.899  13.708   2.680
30797W        W 2523   6.490  24.611   4.697
30798W        W 2524  16.369  16.967   2.301
30799W        W 2525  42.426   9.410   4.375
30800W        W 2526  43.096  26.378  14.316
30801W        W 2527  27.025  43.341   1.208
30802W        W 2528  34.459   9.678  14.825
30803W        W 2529  35.809  20.886  14.486
30804W        W 2530   9.793  42.355  13.530
30805W        W 2531  38.062   8.287  13.035
30806W        W 2532  22.674  38.129  14.519
30807W        W 2533  14.822   8.872  13.419
30808W        W 2534  20.255   3.427   2.352
30809W        W 2535  38.057  35.139   0.263
30810W        W 2536  23.485  34.028   0.020
30811W        W 2537  43.883  39.506  14.300
30812W        W 2538  13.153  29.547  14.095
30813W        W 2539   0.452  12.348  10.969
30814W        W 2540  15.256  16.404  11.894
30815W        W 2541   3.409  43.226  12.423
30816W        W 2542  43.694   4.311   2.785
30817W        W 2543  41.872  10.094   1.350
30818W        W 2544  20.655  18.965  10.492
30819W        W 2545  27.633  26.719  11.422
30820W        W 2546   4.275  12.610  13.710
30821W        W 2547  37.562  26.663   4.747
30822W        W 2548  27.530  39.399   4.563
30823W        W 2549  34.602   9.136   0.885
30824W        W 2550  14.214  17.550  11.474
30825W        W 2551  20.988  36.478  11.752
30826W        W 2552  37.921  12.233  11.819
30827W        W 2553  25.798   5.297  10.500
30828W        W 2554  42.925  41.041   1.261
30829W        W 2555  43.756  15.735   1.962
30830W        W 2556  41.436  32.603  14.636
30831W        W 2557  38.126  17.009  10.762
30832W        W 2558  22.653  44.290   1.212
30833W        W 2559   6.677  28.589   1.986
30834W        W 2560  40.004   3.227   4.233
30835W        W 2561  20.606  41.573  10.256
30836W        W 2562  43.471   9.843   0.678
30837W        W 2563   3.794  23.206  13.961
30838W        W 2564  20.230  33.331   2.780
30839W        W 2565   1.836   3.051   3.993
30840W        W 2566  12.608  44.867  10.903
30841W        W 2567   7.658   7.688   0.767
30842W        W 2568  29.665  38.508   1.637
30843W        W 2569  34.469  43.995  11.586
30844W        W 2570  11.901  34.849   0.743
30845W        W 2571  38.858   7.364  11.198
30846W        W 2572  41.752  19.306  11.205
30847W        W 2573  28.335  37.776  11.693
30848W        W 2574  17.766  43.787  14.509
30849W        W 2575  22.768   6.482  10.783
30850W        W 2576  21.535  17.996   2.602
30851W        W 2577   3.717  29.059  12.669
30852W        W 2578  10.305  16.568   3.655
30853W        W 2579  16.175  32.046  11.210
30854W        W 2580  21.482   4.426   2.765
30855W        W 2581   8.421  28.272  12.954
30856W        W 2582  19.008   7.784   1.249
30857W        W 2583  22.521  36.458  10.614
30858W        W 2584  31.252  15.490  14.506
30859W        W 2585  34.876  24.246   0.885
30860W        W 2586  22.202   4.787   1.448
30861W        W 2587   1.248   6.646   1.554
30862W        W 2588  29.635  34.212  11.165
30863W        W 2589  39.299  18.052   1.787
30864W        W 2590  35.812  13.626  12.058
30865W        W 2591  39.654  44.346   0.942
30866W        W 2592  28.886  35.073   1.784
30867W        W 2593  24.819  32.968  14.256
30868W        W 2594  24.016   5.184  13.819
30869W        W 2595  15.268  12.902   4.133
30870W        W 2596   2.367  23.866   4.626
30871W        W 2597   6.704  19.581   1.262
30872W        W 2598   8.250  10.903   1.775
30873W        W 2599  20.618  19.049   2.263
30874W        W 2600  43.844  23.045   1.399
30875W        W 2601  34.980  18.703  10.960
30876W        W 2602  26.095   1.703  12.148
30877W        W 2603  14.113  42.480  13.427
30878W        W 2604  14.683  12.993  10.345
30879W        W 2605  31.284  17.008  13.764
30880W        W 2606  31.233  24.066  13.014
30881W        W 2607   7.287  11.230  12.661
30882W        W 2608  41.815  39.552  11.660
30883W        W 2609   1.144   8.823   1.650
30884W        W 2610  34.563  40.562   4.078
30885W        W 2611  11.635  42.994   1.990
30886W        W 2612  11.240  34.912   1.768
30887W        W 2613  10.335   4.230  10.351
30888W        W 2614  13.960  17.737   2.400
30889W        W 2615  43.014   1.381  13.794
30890W        W 2616  11.463  20.117   3.852
30891W        W 2617  22.104  16.895  10.949
30892W        W 2618   5.375   9.190  11.054
30893W        W 2619   7.826   3.418  13.024
30894W        W 2620  21.595  11.133   2.412
30895W        W 2621  40.361  33.413   2.441
30896W        W 2622   1.689   7.559   0.921
30897W        W 2623  44.677   3.993   2.714
30898W        W 2624   5.327   5.924  13.729
30899W        W 2625   9.179  26.566  14.452
30900W        W 2626  27.961  15.794   4.643
30901W        W 2627  13.193  35.112   4.220
30902W        W 2628  44.748  27.588   4.571
30903W        W 2629  34.704  18.267   2.221
30904W        W 2630  41.838  18.972   0.795
30905W        W 2631  15.125  11.602  12.900
30906W        W 2632  24.481  17.206   1.877
30907W        W 2633  20.129  35.928   0.709
30908W        W 2634   9.866   2.487  14.458
30909W        W 2635  19.562   9.158  10.972
30910W        W 2636  12.137  44.559   0.903
30911W        W 2637   5.910  12.760  10.221
30912W        W 2638   1.748  43.958  12.509
30913W        W 2639  31.169   8.126  13.100
30914W        W 2640  11.199   8.933  11.483
30915W        W 2641   6.841  34.033   2.338
30916W        W 2642  40.462   8.897  10.289
30917W        W 2643   3.985  23.621  11.610
30918W        W 2644   8.897   9.325  10.715
30919W        W 2645   1.403   3.465  11.625
30920W        W 2646   6.262  26.609  11.925
30921W        W 2647  11.826  22.534   1.802
30922W        W 2648   4.516  43.467  10.509
30923W        W 2649  22.439  23.483  12.109
30924W        W 2650  25.182   1.930   3.339
30925W        W 2651  29.956  18.817  13.283
30926W        W 2652  41.722  29.131  10.972
30927W        W 2653   6.526  32.124  12.505
30928W        W 2654  24.119  21.078  11.535
30929W        W 2655   4.492  12.762  11.429
30930W        W 2656  19.811  19.062   4.769
30931W        W 2657  43.754  41.833  13.534
30932W        W 2658  34.004  35.731   3.601
30933W        W 2659  32.713  26.156   4.276
30934W        W 2660  38.790  31.667  10.959
30935W        W 2661  36.060  14.103   4.509
30936W        W 2662   6.443   3.739  14.838
30937W        W 2663  26.983  36.145   3.153
30938W        W 2664  23.627  36.924   1.933
30939W        W 2665  24.428  43.235  11.896
30940W        W 2666  12.375  38.304   2.293
30941W        W 2667   6.255  12.749  14.764
30942W        W 2668  36.990  32.916  12.565
30943W        W 2669  22.331  33.171   2.250
30944W        W 2670  29.122  30.195  12.728
30945W        W 2671  17.170  11.072   1.254
30946W        W 2672  43.472  19.254   4.664
30947W        W 2673  22.249  24.685  10.639
30948W        W 2674  15.234  37.567  11.487
30949W        W 2675  33.820  19.562  10.470
30950W        W 2676  22.396   8.364  12.031
30951W        W 2677  43.535  42.835  14.576
30952W        W 2678  30.157  25.493  12.162
30953W        W 2679   5.167  33.196   2.948
30954W        W 2680  22.480   9.793  11.471
30955W        W 2681  14.581  13.083  12.625
30956W        W 2682  19.174  11.739   3.755
30957W        W 2683   2.921  42.356   1.378
30958W        W 2684   7.854  16.251  13.296
30959W        W 2685  32.172   5.117  12.457
30960W        W 2686  23.474   9.760  12.417
30961W        W 2687  29.120  18.091  10.827
30962W        W 2688  32.413   6.115  10.200
30963W        W 2689  17.113   9.308   2.707
30964W        W 2690  31.011  17.841  12.411
30965W        W 2691  26.243  18.582   4.188
30966W        W 2692  42.975  32.154  10.588
30967W        W 2693  33.510  27.934  13.514
30968W        W 2694  29.409  21.235   0.893
30969W        W 2695  43.484  42.703   3.798
30970W        W 2696  11.648  41.984  13.104
30971W        W 2697  39.474  42.806  13.889
30972W        W 2698  35.832  31.884  13.954
30973W        W 2699  42.684  39.466   2.576
30974W        W 2700   7.860  35.138   0.794
30975W        W 2701  10.872  26.753   1.577
30976W        W 2702  29.973  36.895  14.322
30977W        W 2703  13.747   8.304   4.113
30978W        W 2704  23.493  29.452   1.862
30979W        W 2705  11.902  13.737  12.047
30980W        W 2706   7.911  31.356  11.884
30981W        W 2707  14.972  44.397   0.797
30982W        W 2708  23.188  13.137  12.971
30983W        W 2709  29.801   3.747  14.230
30984W        W 2710   6.151  41.534   3.066
30985W        W 2711  25.772   6.630  14.011
30986W        W 2712  15.347  37.028  13.856
30987W        W 2713  33.011   7.251   4.073
30988W        W 2714  25.969  34.631   4.703
30989W        W 2715  44.387  37.303   2.080
30990W        W 2716  27.944  16.872   2.709
30991W        W 2717   6.604   9.858   2.260
30992W        W 2718  28.709  44.780  11.051
30993W        W 2719  23.672  30.195   2.801
30994W        W 2720  39.604  12.125  11.178
30995W        W 2721  26.489  23.304  14.990
30996W        W 2722  44.024   7.217   1.759
30997W        W 2723  21.340  14.791   5.103
30998W        W 2724  41.558  36.706   2.635
30999W        W 2725   2.771   9.473   1.436
31000W        W 2726  19.999  25.834  11.177
31001W        W 2727  29.015  34.543   1.684
31002W        W 2728  30.864  26.581  13.354
31003W        W 2729   1.474  12.687   2.726
31004W        W 2730  39.007  22.097   3.968
31005W        W 2731  23.549  22.763  10.475
31006W        W 2732  17.672  42.282   3.388
31007W        W 2733  44.281  36.835  12.882
31008W        W 2734  13.355  21.131   3.136
31009W        W 2735  27.148  21.339  11.002
31010W        W 2736  20.533   9.824  13.529
31011W        W 2737   8.139   4.548   3.219
31012W        W 2738  35.608  10.006   3.367
31013W        W 2739   9.579   6.152   0.637
31014W        W 2740  40.941  43.372  10.695
31015W        W 2741   2.193   6.756  11.490
31016W        W 2742  25.470  41.014   4.061
31017W        W 2743  39.847  42.943   3.258
31018W        W 2744  26.956   2.398   0.423
31019W        W 2745  18.054  22.013   2.404
31020W        W 2746  28.851  44.528   1.433
31021W        W 2747  27.152   2.482  10.895
31022W        W 2748  28.648  13.311  10.756
31023W        W 2749   7.437  18.957   2.313
31024W        W 2750  15.783  12.365   3.602
31025W        W 2751  37.304  14.412  12.498
31026W        W 2752  14.393   7.763   4.602
31027W        W 2753   6.071  14.424   3.013
31028W        W 2754  33.385   9.886   3.374
31029W        W 2755  27.145  37.957  14.408
31030W        W 2756   6.662  20.199  11.935
31031W        W 2757  25.444  17.859   2.283
31032W        W 2758  34.073  19.667  14.561
31033W        W 2759   3.789  30.642   4.583
31034W        W 2760  33.761  35.024  10.493
31035W        W 2761  24.866  25.067   4.311
31036W        W 2762  32.963  19.395  10.714
31037W        W 2763  17.049   8.739  11.125
31038W        W 2764  25.502   9.723   4.529
31039W        W 2765  15.819   3.827  12.471
31040W        W 2766  14.789  17.528  14.535
31041W        W 2767   0.643   0.828  12.697
31042W        W 2768  12.310   7.726   3.965
31043W        W 2769  32.833  24.477   4.649
31044W        W 2770  36.448  41.771  10.789
31045W        W 2771  25.607  23.722   0.042
31046W        W 2772  30.535  10.643  14.846
31047W        W 2773  26.615   5.396  13.780
31048W        W 2774  40.021  21.961   4.134
31049W        W 2775  26.335  18.776  11.251
31050W        W 2776  28.638  27.511  10.993
31051W        W 2777   5.536  18.933   1.155
31052W        W 2778  15.206  14.857  11.086
31053W        W 2779   9.698  37.514  10.814
31054W        W 2780   5.127  12.697   2.389
31055W        W 2781  29.565   9.672   0.192
31056W        W 2782  20.664  14.615   0.613
31057W        W 2783  22.772  39.846  11.514
31058W        W 2784  29.730  44.916   0.316
31059W        W 2785  42.635   5.502   3.761
31060W        W 2786  26.696   5.322  12.870
31061W        W 2787  33.116  14.331   2.321
31062W        W 2788   9.660  30.450   2.874
31063W        W 2789  27.032  26.102  11.615
31064W        W 2790  16.489  33.496   4.206
31065W        W 2791  37.207  16.876  13.408
31066W        W 2792  32.676  20.178   1.891
31067W        W 2793  30.920  43.715   2.808
31068W        W 2794   1.411  44.417  11.159
31069W        W 2795  38.474  30.052  14.918
31070W        W 2796  38.603  29.063  13.408
31071W        W 2797  27.442   6.599  12.506
31072W        W 2798  31.056   0.170  14.475
31073W        W 2799  21.011  12.164  13.359
31074W        W 2800  36.056  36.450   0.547
31075W        W 2801  24.081   0.272  12.472
31076W        W 2802  27.044   2.915  12.997
31077W        W 2803  44.778  26.699  10.578
31078W        W 2804   7.914  23.254  14.004
31079W        W 2805  12.109  17.591  12.475
31080W        W 2806  18.223   0.692   2.467
31081W        W 2807  26.494  43.597  10.689
31082W        W 2808  44.418  33.828   0.366
31083W        W 2809  42.286  38.004  11.943
31084W        W 2810  41.028  25.169  11.487
31085W        W 2811  22.191  16.742   1.762
31086W        W 2812  38.297  33.161  14.119
31087W        W 2813  23.645  38.466  13.626
31088W        W 2814  22.435  26.916   4.033
31089W        W 2815   1.528  18.156  12.585
31090W        W 2816  37.927  34.037  11.418
31091W        W 2817  20.304   4.757   1.289
31092W        W 2818   0.028   3.177  13.078
31093W        W 2819   8.717   8.381   0.883
31094W        W 2820  31.391  18.274  12.203
31095W        W 2821   0.394  33.794  14.621
31096W        W 2822  37.128  39.566  14.444
31097W        W 2823  28.645  32.545  13.264
31098W        W 2824  11.780  11.955  14.424
31099W        W 2825  28.583   4.640   1.269
31100W        W 2826  40.063  16.737  10.757
31101W        W 2827  26.530  33.499  10.506
31102W        W 2828  15.942  10.304   0.195
31103W        W 2829   5.928  28.477  14.371
31104W        W 2830  32.506  25.635  12.022
31105W        W 2831  39.802  36.365   0.950
31106W        W 2832  35.450  19.878  12.963
31107W        W 2833  27.173  43.069   0.788
31108W        W 2834  39.839  13.379  10.663
31109W        W 2835  32.469   3.678   1.893
31110W        W 2836  14.658  22.601  10.686
31111W        W 2837  21.123  15.427   5.098
31112W        W 2838  16.649  30.684  13.806
31113W        W 2839  26.432  38.984  14.944
31114W        W 2840  42.004  19.938   2.142
31115W        W 2841  23.771  31.529   3.224
31116W        W 2842  14.189  38.282  14.228
31117W        W 2843  30.826   5.377   0.282
31118W        W 2844  12.432  12.632  14.832
31119W        W 2845  21.563  14.080   0.899
31120W        W 2846   4.300   0.431   1.401
31121W        W 2847   8.656  43.830  14.826
31122W        W 2848  38.752  35.493   0.730
31123W        W 2849  44.768  30.981   4.441
31124W        W 2850  19.518  36.884   4.617
31125W        W 2851  39.945  29.199  13.173
31126W        W 2852  44.843  33.965   2.367
31127W        W 2853  32.058   3.209  14.508
31128W        W 2854  27.060  26.708  14.260
31129W        W 2855  10.530  21.292   4.562
31130W        W 2856  36.496   6.307  10.135
31131W        W 2857   4.837  39.379   1.127
31132W        W 2858  36.773  11.731   2.308
31133W        W 2859  16.190  17.797  13.724
31134W        W 2860  21.966  26.891  12.103
31135W        W 2861   1.236   3.600  14.283
31136W        W 2862  42.259  25.564  13.106
31137W        W 2863  10.816  26.399  13.070
31138W        W 2864  43.190  31.501  11.151
31139W        W 2865  20.568  33.624   1.886
31140W        W 2866  16.413  16.887   0.263
31141W        W 2867  25.423   6.173  10.874
31142W        W 2868  10.091   0.963  11.181
31143W        W 2869  11.317  18.059  10.590
31144W        W 2870  13.359   5.416  11.987
31145W        W 2871  28.153  27.702  10.933
31146W        W 2872  36.114  33.628  13.974
31147W        W 2873  20.329   6.210   2.394
31148W        W 2874   2.537  20.703  13.865
31149W        W 2875  36.140  31.436  14.024
31150W        W 2876  23.834   5.695   3.639
31151W        W 2877   0.280  16.147   4.760
31152W        W 2878  26.046   7.730  12.065
31153W        W 2879   7.350  26.213   0.382
31154W        W 2880  18.738   8.121  12.795
31155W        W 2881  33.377  11.892  14.508
31156W        W 2882  12.812  27.937   4.686
31157W        W 2883  10.396  33.671  12.886
31158W        W 2884   2.480  24.789   1.321
31159W        W 2885  14.058  11.266   3.684
31160W        W 2886   1.672  37.003  12.429
31161W        W 2887  21.257  11.477  12.482
31162W        W 2888  14.122  38.374   4.676
31163W        W 2889  33.821  29.101  13.871
31164W        W 2890  26.142  43.398   1.926
31165W        W 2891  21.030   2.707  14.946
31166W        W 2892  25.903  25.218  11.574
31167W        W 2893   7.697  28.442  13.320
31168W        W 2894  27.704  15.766   0.742
31169W        W 2895  39.208  44.787  11.574
31170W        W 2896  29.486  26.117  12.380
31171W        W 2897  10.225  42.356  14.472
31172W        W 2898  31.905  26.067  12.858
31173W        W 2899  16.312  18.584   3.691
31174W        W 2900  15.565  27.580   4.185
31175W        W 2901   2.759  34.722  11.819
31176W        W 2902   4.191  31.004   3.327
31177W        W 2903  27.469   0.689   4.129
31178W        W 2904  43.642  38.815   1.869
31179W        W 2905  39.303  38.488   1.171
31180W        W 2906  23.045  15.841   3.438
31181W        W 2907  35.875  10.239  12.898
31182W        W 2908  16.260  16.696  10.535
31183W        W 2909  26.876  16.334  10.524
31184W        W 2910  12.686  24.149   4.864
31185W        W 2911  34.629  20.141  14.290
31186W        W 2912  28.670   1.212   3.736
31187W        W 2913  25.626  31.128  11.443
31188W        W 2914  31.720  24.592   3.134
31189W        W 2915  22.725   8.156  10.847
31190W        W 2916  15.771  33.098  11.423
31191W        W 2917   5.156   1.381   1.753
31192W        W 2918  17.713  12.278  13.977
31193W        W 2919  20.751  20.827  12.291
31194W        W 2920  25.290   0.513  14.665
31195W        W 2921  21.647  14.758  13.048
31196W        W 2922  13.417  15.106   4.131
31197W        W 2923  42.947  38.311  13.360
31198W        W 2924   4.072   0.310  10.852
31199W        W 2925  27.526  15.333   4.117
31200W        W 2926  22.737  12.065  12.200
31201W        W 2927  27.775  26.682  14.987
31202W        W 2928  11.119  43.468   0.467
31203W        W 2929  17.367  19.571   3.262
31204W        W 2930  19.168  22.959  14.860
31205W        W 2931  24.018  18.181  11.938
31206W        W 2932  31.330   2.221   1.550
31207W        W 2933  12.335  10.511   2.144
31208W        W 2934   3.769  37.718   2.803
31209W        W 2935  20.166  24.685   4.579
31210W        W 2936  11.722  26.623   9.879
31211W        W 2937  26.030   9.843  12.953
31212W        W 2938   3.831  15.626   1.249
31213W        W 2939  16.752  39.374  11.479
31214W        W 2940   0.490  37.129  13.784
31215W        W 2941  32.654  43.954   1.121
31216W        W 2942   6.092  12.803  11.947
31217W        W 2943  37.079  44.832   4.169
31218W        W 2944  21.785  16.713   4.249
31219W        W 2945  12.927  13.870  11.264
31220W        W 2946  39.778  26.644  14.247
31221W        W 2947  13.004  41.420  11.314
31222W        W 2948  15.517   9.375  10.997
31223W        W 2949   1.921  23.640   2.159
31224W        W 2950   0.920  42.837  11.544
31225W        W 2951  28.697  12.306   0.687
31226W        W 2952  36.003  12.244  14.714
31227W        W 2953  17.072  30.993  13.881
31228W        W 2954  24.982  39.894  14.722
31229W        W 2955  43.433  40.965  13.571
31230W        W 2956  15.304  38.821   0.280
31231W        W 2957  24.789  25.680  12.444
31232W        W 2958  14.541   5.791   0.039
31233W        W 2959  20.616  40.650   0.420
31234W        W 2960  34.502   4.232   1.746
31235W        W 2961  35.873  38.840   2.321
31236W        W 2962   7.865  22.263   0.457
31237W        W 2963  13.181  13.519  12.523
31238W        W 2964  44.846  35.086  14.609
31239W        W 2965  29.259   6.931   2.249
31240W        W 2966  22.125  24.134  10.646
31241W        W 2967  35.291   7.690   4.130
31242W        W 2968  23.567  19.828  10.706
31243W        W 2969  16.528   3.021  12.184
31244W        W 2970   6.810  14.634   3.549
31245W        W 2971  33.530  11.315  12.580
31246W        W 2972   9.766   6.195   3.467
31247W        W 2973  42.168  42.543   3.319
31248W        W 2974  25.983   7.632   0.442
31249W        W 2975  26.587   1.728  10.850
31250W        W 2976  17.294  33.939  11.013
31251W        W 2977   8.430  19.090   1.302
31252W        W 2978  11.568  38.931   1.912
31253W        W 2979  17.064   5.890   3.714
31254W        W 2980  19.929   2.839   2.653
31255W        W 2981  41.848   3.445  14.911
31256W        W 2982  25.498   6.847   1.379
31257W        W 2983  28.145   0.425  11.245
31258W        W 2984  37.833   6.372  10.411
31259W        W 2985  43.915  15.853   1.489
31260W        W 2986  36.097  23.031  11.547
31261W        W 2987  40.444  28.914  14.294
31262W        W 2988  41.490   7.150   0.772
31263W        W 2989  29.130  31.068  10.542
31264W        W 2990   4.948   9.314  12.865
31265W        W 2991   8.219  15.109  11.799
31266W        W 2992  11.853  40.432  14.948
31267W        W 2993  37.088  18.303   3.814
31268W        W 2994   0.874  31.681  12.051
31269W        W 2995   7.144  23.370  14.205
31270W        W 2996  42.307  27.130   3.121
31271W        W 2997  34.129  35.527  14.190
31272W        W 2998  13.233   2.015   4.045
31273W        W 2999  21.200   2.726  10.625
31274W        W 3000  20.744  15.956  10.701
31275W        W 3001  38.021  25.470  12.990
31276W        W 3002   2.301  11.716   3.358
31277W        W 3003   8.322  35.976   2.739
31278W        W 3004  31.695  24.126   3.361
31279W        W 3005  33.564   7.796   0.944
31280W        W 3006  39.573  16.692  10.584
31281W        W 3007   2.690  35.860  11.133
31282W        W 3008   0.787   4.356   0.834
31283W        W 3009  34.818  22.345   0.539
31284W        W 3010  11.067  14.349  13.524
31285W        W 3011  31.481  22.501   3.365
31286W        W 3012  14.445  19.860   2.418
31287W        W 3013   4.332   3.823  13.929
31288W        W 3014  27.630   6.768  12.037
31289W        W 3015  14.485   2.847   4.307
31290W        W 3016   5.898   6.216   2.875
31291W        W 3017  34.643  21.469   0.445
31292W        W 3018  28.454  15.733   1.352
31293W        W 3019  23.459  32.467   1.194
31294W        W 3020  21.568  11.093  11.577
31295W        W 3021  16.128  34.881  13.348
31296W        W 3022  23.380  36.485  14.993
31297W        W 3023  16.738   5.449   0.329
31298W        W 3024   0.772  39.405   1.392
31299W        W 3025  13.608   6.125   5.100
31300W        W 3026  37.026  29.964  11.199
31301W        W 3027  42.760   6.089   1.704
31302W        W 3028   0.691   2.615  10.752
31303W        W 3029  27.504  16.449   2.050
31304W        W 3030   9.394  35.303  12.907
31305W        W 3031  42.046  33.464  14.914
31306W        W 3032  29.812  39.864  11.616
31307W        W 3033  28.997  34.064  14.603
31308W        W 3034   7.238   6.903   4.199
31309W        W 3035  20.501  35.575  14.514
31310W        W 3036  30.967  10.178   3.324
31311W        W 3037   7.943  35.542  13.942
31312W        W 3038  35.614  40.559  13.365
31313W        W 3039  20.016   1.535   1.282
31314W        W 3040  42.311  32.410  11.211
31315W        W 3041  37.835  29.051   2.216
31316W        W 3042  15.192  11.051  10.856
31317W        W 3043  33.497  40.759  14.504
31318W        W 3044  13.677  28.929   3.245
31319W        W 3045  39.056   3.691  13.431
31320W        W 3046  40.140  15.224   1.916
31321W        W 3047  44.058  14.272  11.621
31322W        W 3048  27.940  44.980  13.307
31323W        W 3049  32.686  23.178  14.790
31324W        W 3050  15.034  28.080   0.797
31325W        W 3051  43.245  26.560   2.245
31326W        W 3052   8.719   8.142  14.498
31327W        W 3053   3.770  24.432   3.857
31328W        W 3054  10.774   3.975   1.728
31329W        W 3055  42.303  14.784   2.007
31330W        W 3056  32.541   3.152   1.915
31331W        W 3057   2.655  22.601  13.814
31332W        W 3058  18.257  24.105  13.831
31333W        W 3059   7.738  41.522  14.517
31334W        W 3060  32.991  28.697   3.891
31335W        W 3061   0.448   0.140  10.519
31336W        W 3062  35.555  11.933  11.923
31337W        W 3063  36.396  20.480   2.195
31338W        W 3064  16.313  12.604  10.628
31339W        W 3065   6.794   9.983  12.871
31340W        W 3066   2.292   5.666  14.478
31341W        W 3067  18.973   7.316  11.414
31342W        W 3068  12.612  29.060  13.567
31343W        W 3069  21.498   7.628   3.088
31344W        W 3070  20.077   9.282  13.680
31345W        W 3071  36.465  11.673  12.883
31346W        W 3072   1.648   0.791   0.158
31347W        W 3073   6.080  17.648   1.202
31348W        W 3074  24.938  41.252  10.642
31349W        W 3075  26.677  32.954  13.822
31350W        W 3076  30.540  19.189   1.852
31351W        W 3077  18.553  39.839  13.861
31352W        W 3078  28.047  22.401   3.790
31353W        W 3079  13.839  14.286  13.541
31354W        W 3080  25.489  37.877  11.750
31355W        W 3081  10.248  40.425  13.139
31356W        W 3082  42.462  38.355   1.173
31357W        W 3083  34.983  35.602  13.909
31358W        W 3084   1.294  31.020  11.551
31359W        W 3085   0.842   9.162  14.043
31360W        W 3086  37.708   0.292  10.560
31361W        W 3087   4.066  27.588  13.939
31362W        W 3088  42.497  35.592   1.663
31363W        W 3089  33.058  38.890   4.816
31364W        W 3090  28.557  31.119   4.593
31365W        W 3091  39.357   4.908   4.683
31366W        W 3092   4.467  16.612   4.601
31367W        W 3093  22.851  18.206  12.505
31368W        W 3094  44.790  18.208  10.862
31369W        W 3095  15.211  13.892   1.417
31370W        W 3096   3.254  25.072  11.745
31371W        W 3097   1.385   6.096   0.777
31372W        W 3098  13.877  41.209   3.269
31373W        W 3099  21.194  24.835  11.058
31374W        W 3100  38.299  32.406   0.224
31375W        W 3101   9.107   4.502   3.285
31376W        W 3102   0.038  24.730  12.986
31377W        W 3103  23.596  31.314   4.603
31378W        W 3104  41.801  25.904   2.764
31379W        W 3105  32.420  43.525   4.283
31380W        W 3106  14.842  19.170   4.247
31381W        W 3107  17.142  14.751  11.405
31382W        W 3108   3.209  16.215  10.446
31383W        W 3109   8.326   5.361   1.700
31384W        W 3110  36.834  39.733  12.127
31385W        W 3111  43.772  42.270   3.973
31386W        W 3112  42.369   6.723  10.466
31387W        W 3113  10.181   8.989  13.336
31388W        W 3114  34.340  27.419   2.915
31389W        W 3115  18.752  37.038  12.428
31390W        W 3116  40.027  36.561  12.550
31391W        W 3117   0.030  27.141   2.709
31392W        W 3118  26.959  15.885   3.728
31393W        W 3119  24.149   8.653   3.634
31394W        W 3120  42.342  28.956  14.453
31395W        W 3121  42.028  21.995   4.138
31396W        W 3122  21.116  29.612   4.577
31397W        W 3123  22.560  24.203  11.572
31398W        W 3124  12.869   0.397   4.466
31399W        W 3125  23.673  44.323   3.757
31400W        W 3126  44.943  28.480   4.239
31401W        W 3127  40.964  19.006  13.915
31402W        W 3128  17.507   9.370   0.376
31403W        W 3129  40.049  37.351   3.739
31404W        W 3130  13.865  37.534  11.233
31405W        W 3131  43.373  20.762  11.074
31406W        W 3132   0.868   9.919  13.037
31407W        W 3133  17.815  15.598   3.284
31408W        W 3134  34.788  15.094  13.361
31409W        W 3135  27.671  11.432   4.747
31410W        W 3136  37.879  43.474  10.708
31411W        W 3137  13.332  27.293   0.997
31412W        W 3138  19.831   8.827  14.425
31413W        W 3139  14.032  32.695   3.132
31414W        W 3140  43.334  39.516  12.020
31415W        W 3141  44.371  40.076  13.614
31416W        W 3142  35.605  15.415   1.720
31417W        W 3143   4.974   4.301  11.673
31418W        W 3144  36.619  27.169  13.484
31419W        W 3145  31.502  12.753   1.666
31420W        W 3146  28.376  28.552  10.099
31421W        W 3147  31.099  38.604  11.608
31422W        W 3148  28.884  22.829  11.025
31423W        W 3149  23.518  19.570   0.926
31424W        W 3150   7.738  22.549  11.709
31425W        W 3151   1.299  33.928  10.614
31426W        W 3152  21.256  20.621  14.340
31427W        W 3153   9.659  11.393  13.937
31428W        W 3154  21.995  44.405  14.818
31429W        W 3155  13.663  25.054   2.709
31430W        W 3156  20.059  12.426   3.337
31431W        W 3157  26.588  10.169   3.591
31432W        W 3158  25.947  43.019  13.350
31433W        W 3159   4.032  18.924   2.384
31434W        W 3160  18.599  11.715   1.713
31435W        W 3161  38.798  44.470  12.335
31436W        W 3162  12.991  11.582  11.111
31437W        W 3163  30.981  42.141  11.376
31438W        W 3164  13.782  27.196  11.541
31439W        W 3165   8.395  22.143   4.189
31440W        W 3166  11.930   3.410   2.833
31441W        W 3167  21.763  17.662   4.209
31442W        W 3168  44.840  36.369  12.541
31443W        W 3169   2.989  30.613   2.246
31444W        W 3170  33.482  13.056   3.312
31445W        W 3171   8.069  15.690   2.770
31446W        W 3172  39.302  11.610  12.892
31447W        W 3173   2.749   6.370  13.504
31448W        W 3174  36.466  14.223   0.190
31449W        W 3175  18.962  43.889  11.057
31450W        W 3176  26.065   3.759  13.341
31451W        W 3177  24.957  30.870  14.958
31452W        W 3178   6.603  23.609   0.938
31453W        W 3179  44.459  22.943   0.393
31454W        W 3180  42.190  34.434  13.504
31455W        W 3181  19.754  26.068  11.559
31456W        W 3182   7.293  32.851   0.274
31457W        W 3183  23.311  14.717   4.972
31458W        W 3184  26.735  13.865  10.551
31459W        W 3185  27.097   6.508  13.505
31460W        W 3186  12.766  29.515   4.829
31461W        W 3187  30.580  17.871   1.032
31462W        W 3188  42.920  34.345   1.280
31463W        W 3189  43.388  38.377   0.742
31464W        W 3190  32.614   8.752   2.259
31465W        W 3191  22.426   0.548  11.151
31466W        W 3192  17.584  11.108   2.751
31467W        W 3193  13.813   0.725   4.625
31468W        W 3194  34.710  40.896   2.315
31469W        W 3195  12.726  14.684  11.802
31470W        W 3196  21.695  31.163   2.861
31471W        W 3197   2.728  26.533  14.455
31472W        W 3198   1.293  10.239  11.672
31473W        W 3199  40.404  28.077   1.691
31474W        W 3200  41.284  14.208  11.968
31475W        W 3201  20.281  19.151   0.355
31476W        W 3202  42.833  37.244   0.309
31477W        W 3203  22.032  41.844   3.135
31478W        W 3204   0.834  39.901  13.637
31479W        W 3205  32.363   5.618   0.694
31480W        W 3206  34.046  24.730  11.653
31481W        W 3207   3.041  36.697  12.461
31482W        W 3208  15.840  28.711   2.875
31483W        W 3209  14.244   7.214   4.606
31484W        W 3210  26.231  23.273   1.268
31485W        W 3211  26.652  12.634  14.377
31486W        W 3212  13.676  32.490  10.569
31487W        W 3213  31.164  27.370  10.583
31488W        W 3214  27.250  21.690   3.138
31489W        W 3215  22.011   7.017  12.565
31490W        W 3216  42.437  16.454  13.391
31491W        W 3217  36.305  12.301  11.482
31492W        W 3218  36.430  28.448  11.976
31493W        W 3219  33.097   0.472  13.794
31494W        W 3220   6.167  21.165   3.779
31495W        W 3221  35.769  41.503  12.633
31496W        W 3222  21.641  28.827  11.465
31497W        W 3223   4.821  40.380   2.630
31498W        W 3224  27.018  25.483   0.832
31499W        W 3225  16.113  12.589   2.753
31500W        W 3226  41.844  15.651  13.566
31501W        W 3227   2.241  23.928   1.214
31502W        W 3228  19.268  14.386  13.357
31503W        W 3229  16.055  39.082  11.061
31504W        W 3230  13.400  27.363   3.804
31505W        W 3231  42.324  30.103  14.354
31506W        W 3232  17.704  34.159   1.297
31507W        W 3233   6.630  25.463  13.858
31508W        W 3234   5.357   9.248   2.101
31509W        W 3235   9.612  26.109   2.912
31510W        W 3236  12.774  42.903   0.800
31511W        W 3237   2.005  33.629   2.716
31512W        W 3238  23.724   5.324  10.432
31513W        W 3239   9.256  29.651   2.298
31514W        W 3240  44.830  18.049   1.097
31515W        W 3241   9.680  39.035   4.664
31516W        W 3242  11.689   1.507   4.247
31517W        W 3243  25.358   4.189   1.719
31518W        W 3244  20.740  32.523  10.542
31519W        W 3245  35.560  16.329   0.608
31520W        W 3246  44.453   4.593   1.551
31521W        W 3247  34.386  14.761   4.703
31522W        W 3248  24.640  12.703   4.171
31523W        W 3249  25.364  20.164  12.504
31524W        W 3250  33.094  37.886  11.994
31525W        W 3251  16.184  43.753   2.926
31526W        W 3252  14.593  21.765  13.402
31527W        W 3253  35.885   0.707  14.522
31528W        W 3254   6.352  32.040  13.854
31529W        W 3255  40.860   3.759   3.355
31530W        W 3256  33.350   6.160  11.437
31531W        W 3257  40.895  28.532   2.731
31532W        W 3258  26.592  43.946  13.930
31533W        W 3259  23.047   6.762   4.080
31534W        W 3260   8.632  37.867  14.348
31535W        W 3261   9.269  29.136  13.864
31536W        W 3262   9.746   2.488  11.454
31537W        W 3263  39.448  15.487   0.853
31538W        W 3264   0.809  10.896  10.739
31539W        W 3265  43.290  12.947   1.770
31540W        W 3266  20.923  34.681  12.183
31541W        W 3267  40.442   9.215  13.971
31542W        W 3268  35.915  18.391  12.843
31543W        W 3269   2.266  33.917  11.594
31544W        W 3270  29.851  15.132  12.524
31545W        W 3271   8.320  21.714   2.455
31546W        W 3272  36.333  42.620  14.947
31547W        W 3273  40.801  38.431  11.259
31548W        W 3274   7.370  29.020   0.894
31549W        W 3275  24.738  36.774  11.939
31550W        W 3276  43.335  37.244  11.099
31551W        W 3277  26.169  32.642  14.244
31552W        W 3278  28.913  17.821   1.740
31553W        W 3279  32.393  43.912  13.497
31554W        W 3280  19.173   8.740  11.447
31555W        W 3281  23.582  17.658  13.990
31556W        W 3282   5.913   9.773   1.757
31557W        W 3283  19.282  35.583   3.240
31558W        W 3284  40.229  15.845  11.462
31559W        W 3285  17.797  35.311  10.536
31560W        W 3286  32.865  42.562  12.390
31561W        W 3287   3.488  26.622  12.498
31562W        W 3288   4.629  31.858  13.018
31563W        W 3289  14.632  27.006  12.101
31564W        W 3290  23.599   2.854   0.536
31565W        W 3291  43.282   0.100  14.888
31566W        W 3292  22.118  12.921   5.393
31567W        W 3293  38.941  10.689   4.155
31568W        W 3294  36.574  30.155   0.376
31569W        W 3295  24.604   1.803  14.507
31570W        W 3296  10.910  25.150   1.767
31571W        W 3297   7.457  10.257  14.547
31572W        W 3298   5.226   2.454   0.293
31573W        W 3299  17.075  27.222  13.791
31574W        W 3300  27.592  30.501   2.902
31575W        W 3301   9.751  40.539   2.505
31576W        W 3302   5.369  24.730   1.149
31577W        W 3303   8.906  31.147   0.696
31578W        W 3304   7.541  30.209   1.654
31579W        W 3305  28.080  35.438  13.520
31580W        W 3306  17.821   9.193  12.549
31581W        W 3307  29.944  24.749   5.033
31582W        W 3308  20.529  17.729   0.289
31583W        W 3309  33.645  41.756  14.986
31584W        W 3310  42.542   0.455  13.018
31585W        W 3311  16.652  14.383   1.342
31586W        W 3312  13.760  10.966  13.026
31587W        W 3313  25.149  21.906  12.888
31588W        W 3314  36.493  33.263   4.116
31589W        W 3315   4.561  22.579   4.650
31590W        W 3316   3.793  24.026   2.619
31591W        W 3317  24.081   6.990   2.456
31592W        W 3318   7.274  13.165  11.580
31593W        W 3319  20.739  39.978  11.535
31594W        W 3320   6.169  35.068   3.674
31595W        W 3321  16.527  37.855   9.817
31596W        W 3322  14.492  42.048  14.272
31597W        W 3323  14.370  32.119  11.987
31598W        W 3324  28.552   4.387   0.388
31599W        W 3325  40.702  16.630   1.314
31600W        W 3326  22.114   9.659   0.835
31601W        W 3327   9.671  30.209   4.646
31602W        W 3328  40.469  26.629   1.881
31603W        W 3329  42.821  40.839  11.694
31604W        W 3330  18.729  13.590   3.799
31605W        W 3331  39.831  21.042  10.665
31606W        W 3332  38.428  33.989   1.022
31607W        W 3333  34.133  44.442   4.173
31608W        W 3334  32.117  12.234  12.315
31609W        W 3335   4.304  19.860   0.521
31610W        W 3336  13.727   2.494   4.556
31611W        W 3337  21.235  44.961  13.272
31612W        W 3338  34.230   9.480   2.370
31613W        W 3339  16.768   6.096   2.669
31614W        W 3340  21.961   2.458  13.487
31615W        W 3341  33.419  16.558  10.283
31616W        W 3342  40.870  44.775   0.316
31617W        W 3343  30.357  25.132   2.748
31618W        W 3344  21.575  44.792   1.696
31619W        W 3345   2.839  41.868  14.555
31620W        W 3346   9.880   1.332   1.245
31621W        W 3347   3.440  20.046   3.647
31622W        W 3348  28.124  34.473  13.517
31623W        W 3349  40.523  14.785  12.055
31624W        W 3350  27.114  17.707  10.536
31625W        W 3351  26.218  12.226   1.970
31626W        W 3352  20.694  30.121  14.967
31627W        W 3353  29.436  16.706   4.673
31628W        W 3354  44.924  29.814   3.497
31629W        W 3355  11.450   5.151  10.311
31630W        W 3356  16.604  29.295   3.898
31631W        W 3357  26.088  41.142  13.447
31632W        W 3358  10.258   0.649   2.143
31633W        W 3359   5.942  20.827  10.959
31634W        W 3360  22.912   1.914   1.871
31635W        W 3361  33.648   7.285   2.644
31636W        W 3362   0.374  10.091  13.441
31637W        W 3363  12.887  13.853  14.942
31638W        W 3364  33.699  37.929   0.800
31639W        W 3365   9.675   5.836   2.279
31640W        W 3366  23.166  13.821   0.289
31641W        W 3367  10.154  22.302  11.953
31642W        W 3368  11.080  40.982  14.483
31643W        W 3369  26.417  39.171   5.024
31644W        W 3370  32.434   2.947  14.787
31645W        W 3371  36.839  30.896   3.309
31646W        W 3372  22.740   1.221  14.843
31647W        W 3373  20.152  41.877  12.557
31648W        W 3374  40.829  23.003   3.749
31649W        W 3375  27.876   2.402   2.179
31650W        W 3376  22.991   4.240  12.186
31651W        W 3377  11.622  28.406  10.716
31652W        W 3378  16.756  18.693   3.416
31653W        W 3379  39.860   3.499   2.884
31654W        W 3380  34.853  41.807  14.573
31655W        W 3381  21.937  29.569  12.857
31656W        W 3382  35.913  26.421   3.984
31657W        W 3383  28.017  43.477   4.627
31658W        W 3384  39.512  31.027   1.634
31659W        W 3385  38.958   7.797  11.470
31660W        W 3386  35.284  15.035   0.954
31661W        W 3387  41.499   9.836  10.507
31662W        W 3388  36.405   0.716  12.442
31663W        W 3389  24.898  11.904  13.984
31664W        W 3390  34.619   7.399  11.608
31665W        W 3391  20.246   9.671  12.974
31666W        W 3392  26.157  12.006   2.468
31667W        W 3393  24.926  40.032   3.329
31668W        W 3394  32.938  40.030  11.017
31669W        W 3395   2.373  40.915  10.784
31670W        W 3396  39.803  37.626  12.432
31671W        W 3397  11.258  14.617  13.931
31672W        W 3398  32.818  25.714   2.413
31673W        W 3399  38.906  32.225  12.473
31674W        W 3400  35.296  32.622   4.557
31675W        W 3401  40.977  43.044   3.910
31676W        W 3402  27.880  34.580  13.015
31677W        W 3403   7.743  19.061  14.014
31678W        W 3404  31.982  25.392   5.087
31679W        W 3405   4.753   4.381   1.407
31680W        W 3406  26.099  28.654  13.360
31681W        W 3407  40.988   5.924   1.282
31682W        W 3408  33.482  11.404   4.455
31683W        W 3409  26.696  36.411   2.500
31684W        W 3410  44.759  24.979  13.392
31685W        W 3411   2.401  30.333  14.972
31686W        W 3412  14.279  10.003   3.222
31687W        W 3413  22.499  41.224  12.962
31688W        W 3414   3.288  30.394   3.196
31689W        W 3415  31.501   4.164   1.375
31690W        W 3416  34.969   8.687  14.530
31691W        W 3417  34.825  42.307   3.822
31692W        W 3418  16.879  40.349  14.854
31693W        W 3419   6.815  16.301   0.332
31694W        W 3420  33.528   0.032   4.638
31695W        W 3421  31.943  22.765  13.924
31696W        W 3422  29.497  17.150  10.595
31697W        W 3423  11.848  40.977  14.989
31698W        W 3424  38.453  33.420   0.470
31699W        W 3425  22.726  28.007   0.355
31700W        W 3426   0.308   0.345   3.581
31701W        W 3427  26.373  25.590  11.066
31702W        W 3428  35.809   6.445  13.584
31703W        W 3429  29.057  15.095  13.070
31704W        W 3430  31.122  26.168   0.201
31705W        W 3431  18.103  36.517   4.757
31706W        W 3432   3.728  23.063  10.506
31707W        W 3433  10.514  32.333   4.239
31708W        W 3434  24.824  19.921   3.290
31709W        W 3435   3.225  26.176  12.449
31710W        W 3436  37.910  24.994  14.739
31711W        W 3437  38.157  43.272   2.795
31712W        W 3438  43.684  39.270   2.123
31713W        W 3439  12.155  19.621   4.207
31714W        W 3440  27.552  27.307  12.551
31715W        W 3441  20.077  31.172   1.262
31716W        W 3442  42.418  39.809   1.377
31717W        W 3443   7.037   6.368   0.389
31718W        W 3444   8.971  26.537  10.870
31719W        W 3445  16.733  18.538   2.468
31720W        W 3446  29.405   2.392   2.266
31721W        W 3447   3.723  33.536  12.028
31722W        W 3448  29.613  24.351  13.794
31723W        W 3449  31.357   3.518   2.178
31724W        W 3450  19.040  37.919   3.597
31725W        W 3451  16.257  26.758  10.647
31726W        W 3452  35.876  17.641   1.948
31727W        W 3453  20.695  27.592   4.568
31728W        W 3454  36.568   9.005  12.357
31729W        W 3455  38.479  34.345  11.547
31730W        W 3456  20.666  21.914  14.457
31731W        W 3457  16.152  36.275   2.597
31732W        W 3458  10.348  37.366  12.111
31733W        W 3459  12.716  18.145   3.229
31734W        W 3460   9.250  34.854  14.074
31735W        W 3461  26.127  30.637   1.502
31736W        W 3462  24.926  38.536  14.377
31737W        W 3463  44.949  36.316  13.374
31738W        W 3464  40.450  31.323   1.356
31739W        W 3465  15.269   0.772   4.387
31740W        W 3466  26.050   7.325  14.270
31741W        W 3467  17.763  31.560  13.493
31742W        W 3468  40.026   9.789  10.566
31743W        W 3469   1.727   2.376   3.782
31744W        W 3470  36.657  21.718   0.719
31745W        W 3471  29.992  29.382  12.514
31746W        W 3472  38.564  27.737  13.752
31747W        W 3473   8.258   6.824  14.046
31748W        W 3474  27.203  19.655   0.007
31749W        W 3475  25.777  44.182   3.765
31750W        W 3476   8.456  43.030   0.797
31751W        W 3477  17.128   8.450  10.700
31752W        W 3478  18.574  38.515   3.202
31753W        W 3479  18.723   4.446   0.293
31754W        W 3480  23.497  27.153   0.224
31755W        W 3481  41.079  30.440   1.944
31756W        W 3482   8.207  20.354  11.287
31757W        W 3483  12.738  37.430  13.584
31758W        W 3484  10.074  42.876   3.315
31759W        W 3485  32.038  14.661  13.860
31760W        W 3486  32.552  18.406  14.490
31761W        W 3487   9.924  42.843   0.892
31762W        W 3488   6.806  37.285   3.640
31763W        W 3489  36.640  29.415  13.227
31764W        W 3490  23.468   0.623   3.630
31765W        W 3491   1.191  41.541   2.558
31766W        W 3492  27.364  22.589  11.815
31767W        W 3493   6.633   0.812  11.804
31768W        W 3494  29.994  21.388   2.844
31769W        W 3495  17.141  39.496   4.671
31770W        W 3496  27.489  37.473  12.897
31771W        W 3497   3.244  33.779   4.240
31772W        W 3498  11.499  17.037  14.249
31773W        W 3499  36.558   7.235   1.072
31774W        W 3500   8.319  37.463  14.405
31775W        W 3501  15.191  24.304   2.330
31776W        W 3502  19.658   5.860  13.330
31777W        W 3503  10.857  44.206  10.258
31778W        W 3504   7.925   9.724  13.378
31779W        W 3505  38.215  19.178   2.475
31780W        W 3506   2.188  36.472   1.286
31781W        W 3507  34.081  26.079  14.769
31782W        W 3508  11.681  42.139   3.696
31783W        W 3509  44.707   2.352  12.564
31784W        W 3510   3.194  38.377   0.869
31785W        W 3511  38.696  12.903   0.923
31786W        W 3512  36.848  33.929  11.153
31787W        W 3513  15.643  33.072  12.874
31788W        W 3514   8.025   4.248   2.804
31789W        W 3515  12.807  28.619   3.169
31790W        W 3516   1.492  14.127  11.535
31791W        W 3517  35.879  12.094   2.865
31792W        W 3518  34.227  42.468  10.222
31793W        W 3519  24.579  23.742   1.219
31794W        W 3520  32.916   8.794   4.535
31795W        W 3521   5.689   6.780  11.349
31796W        W 3522  42.734   8.902  12.554
31797W        W 3523  18.559  27.096  10.763
31798W        W 3524  41.421  17.703   3.708
31799W        W 3525  17.762  41.257  11.597
31800W        W 3526  13.124  14.019  12.615
31801W        W 3527   6.586  19.990  11.096
31802W        W 3528  31.011  22.704  11.473
31803W        W 3529   0.517  11.149   1.352
31804W        W 3530  10.292  23.545   4.836
31805W        W 3531   3.182  16.332   3.729
31806W        W 3532  36.103  20.116   2.468
31807W        W 3533  17.477  38.755  10.583
31808W        W 3534  31.527  21.293  13.480
31809W        W 3535  17.422  21.241  13.149
31810W        W 3536  18.295  17.380  11.035
31811W        W 3537  24.865   4.339   0.346
31812W        W 3538  29.681  21.042   1.712
31813W        W 3539  17.194  19.694  13.026
31814W        W 3540  20.057  23.889  14.822
31815W        W 3541  40.759  14.299  12.102
31816W        W 3542  20.503  44.362   4.534
31817W        W 3543   8.170   5.236   2.444
31818W        W 3544  34.940  19.285  13.515
31819W        W 3545  27.663  18.155   4.627
31820W        W 3546  20.668   0.440  13.306
31821W        W 3547  21.722   6.232  13.045
31822W        W 3548  15.118  24.568  12.298
31823W        W 3549  28.985   4.752   0.069
31824W        W 3550  38.974  19.295   1.844
31825W        W 3551   5.223  18.028   4.266
31826W        W 3552  44.473  23.108   2.198
31827W        W 3553  44.669  26.096   1.677
31828W        W 3554   8.847  27.004  10.679
31829W        W 3555  42.206   3.048   4.871
31830W        W 3556   5.204  39.262   2.252
31831W        W 3557  15.671  36.481   2.665
31832W        W 3558  12.001  18.582   3.404
31833W        W 3559  14.929   2.977  10.688
31834W        W 3560  11.897  11.446  13.373
31835W        W 3561  10.188  34.564  12.921
31836W        W 3562   2.781  15.154  13.886
31837W        W 3563  12.327   8.378   4.666
31838W        W 3564  38.430   3.272  14.878
31839W        W 3565   8.778  18.257  14.457
31840W        W 3566  36.908  26.234   1.199
31841W        W 3567  38.258  32.819   3.590
31842W        W 3568   1.511  31.186  11.104
31843W        W 3569  14.590  10.495  14.573
31844W        W 3570  10.798  41.314   2.272
31845W        W 3571  22.677  17.320   1.266
31846W        W 3572   9.313  12.824  12.494
31847W        W 3573  19.995  15.788   3.682
31848W        W 3574  39.233   8.248   2.251
31849W        W 3575  25.402  38.088  13.534
31850W        W 3576  10.325   4.994  13.242
31851W        W 3577  31.087  34.134  11.198
31852W        W 3578  43.474   2.414   4.567
31853W        W 3579  33.836  12.591   3.267
31854W        W 3580  21.186  15.024  12.006
31855W        W 3581   4.398  31.613   4.157
31856W        W 3582  29.810  23.357  13.958
31857W        W 3583   8.126  19.671  11.483
31858W        W 3584  19.884  31.324   3.184
31859W        W 3585  23.436  44.721  12.523
31860W        W 3586  10.506  44.812   2.817
31861W        W 3587  21.303   6.889  13.463
31862W        W 3588  30.909  36.596  11.971
31863W        W 3589   4.265   2.282  12.809
31864W        W 3590   6.491  11.134   0.871
31865W        W 3591  27.492  15.284  13.787
31866W        W 3592  18.534  19.803   2.828
31867W        W 3593  18.558   4.601   9.965
31868W        W 3594  25.470  17.672  10.754
31869W        W 3595  13.559  13.137  12.448
31870W        W 3596  41.170  25.169   1.286
31871W        W 3597  38.048  30.948  13.028
31872W        W 3598  19.205   8.069  10.788
31873W        W 3599  39.944  23.084  12.657
31874W        W 3600  12.384  15.232  14.055
31875W        W 3601  29.383  33.378  13.203
31876W        W 3602  15.610  29.272  14.023
31877W        W 3603  39.508  36.654  14.493
31878W        W 3604   2.864  12.736  13.782
31879W        W 3605  11.848  34.632   4.122
31880W        W 3606  19.266   0.905   4.512
31881W        W 3607  44.597  24.123   2.356
31882W        W 3608  41.032  15.911   3.754
31883W        W 3609  25.404   4.298  11.882
31884W        W 3610  14.935  16.791   2.435
31885W        W 3611  30.080  29.191   1.961
31886W        W 3612  29.921  17.736   0.854
31887W        W 3613   1.574   5.230  12.061
31888W        W 3614   4.524  17.163   2.092
31889W        W 3615  18.116  42.532   3.493
31890W        W 3616  32.584  31.949  11.450
31891W        W 3617  13.158   4.209  11.571
31892W        W 3618  31.366  34.137   2.224
31893W        W 3619   4.310  27.100  11.139
31894W        W 3620  24.997  13.734  11.421
31895W        W 3621  10.456  40.704  11.613
31896W        W 3622   8.286  31.568  14.369
31897W        W 3623  36.550   3.445   2.598
31898W        W 3624   2.529  16.712   1.855
31899W        W 3625   7.508   0.539   3.783
31900W        W 3626  27.723  36.849   4.082
31901W        W 3627   7.403  15.631  11.900
31902W        W 3628  22.014   5.763  13.736
31903W        W 3629   7.676  19.771   1.287
31904W        W 3630  10.421  25.635   3.373
31905W        W 3631  41.876  12.376   1.814
31906W        W 3632   0.811  39.493  12.831
31907W        W 3633  37.147  34.915   4.759
31908W        W 3634   5.004  14.280   0.327
31909W        W 3635  31.788  22.099  11.788
31910W        W 3636   3.732  14.793   3.527
31911W        W 3637   6.202   2.849   3.679
31912W        W 3638  10.051   3.050  11.101
31913W        W 3639   4.958  38.496  14.969
31914W        W 3640  42.324  18.680   3.242
31915W        W 3641   1.771  35.662   0.347
31916W        W 3642  11.622   4.435   4.804
31917W        W 3643   0.513  25.139   4.241
31918W        W 3644  18.096  41.002   0.246
31919W        W 3645  23.258  21.157   0.395
31920W        W 3646  43.900  35.846   4.209
31921W        W 3647   7.822  19.183   3.658
31922W        W 3648   5.890  35.487  13.521
31923W        W 3649  41.549  35.500  12.438
31924W        W 3650   4.236  36.467   2.773
31925W        W 3651  16.783   7.030   0.294
31926W        W 3652  14.891  15.573   3.321
31927W        W 3653  11.722   5.458   2.658
31928W        W 3654  23.709   4.303   3.357
31929W        W 3655  34.860  15.330   0.783
31930W        W 3656  44.896  31.851  14.356
31931W        W 3657  27.740  21.762   5.008
31932W        W 3658  41.849  16.767  13.991
31933W        W 3659  23.679  13.337   1.663
31934W        W 3660  16.749  13.803   4.736
31935W        W 3661  25.237  29.431  11.144
31936W        W 3662  11.712  24.471  10.010
31937W        W 3663   1.613  42.747  12.109
31938W        W 3664   6.343   5.998  12.897
31939W        W 3665   2.281  18.797  10.696
31940W        W 3666  36.161  33.532   2.155
31941W        W 3667   9.553   9.737  14.035
31942W        W 3668  14.361  18.764   3.265
31943W        W 3669  31.898  35.104   0.922
31944W        W 3670   3.356  25.180  14.604
31945W        W 3671  44.454  29.007   0.406
31946W        W 3672  22.659  23.016  11.982
31947W        W 3673  25.802   4.186   2.599
31948W        W 3674   9.350  41.933   0.429
31949W        W 3675   4.187   9.303  11.488
31950W        W 3676   4.262  38.468   3.827
31951W        W 3677  34.944  14.679   3.314
31952W        W 3678  10.620   8.417   2.040
31953W        W 3679   1.275  43.043  14.108
31954W        W 3680  15.081   8.391   4.654
31955W        W 3681  16.125   5.528   2.756
31956W        W 3682   9.225  33.403  14.297
31957W        W 3683  35.067  33.420   3.247
31958W        W 3684   8.688  38.759  14.137
31959W        W 3685  22.057  12.807  11.174
31960W        W 3686  43.966  35.528   3.589
31961W        W 3687  21.384  21.979  11.172
31962W        W 3688  11.594  34.062   3.126
31963W        W 3689   4.607   2.334   1.498
31964W        W 3690  34.939  36.858   4.696
31965W        W 3691  11.773   5.789  10.241
31966W        W 3692  21.158   3.369  12.790
31967W        W 3693  23.276  38.788  10.630
31968W        W 3694  19.012  20.480   1.203
31969W        W 3695  40.055  22.243  11.292
31970W        W 3696  16.617  37.902   5.435
31971W        W 3697  33.412  32.039  14.700
31972W        W 3698  14.641  12.092  11.319
31973W        W 3699  12.780  11.813   1.748
31974W        W 3700   1.707  40.892  14.463
31975W        W 3701   7.969  22.240   4.525
31976W        W 3702  11.681  15.093   3.891
31977W        W 3703  22.812  41.861   1.762
31978W        W 3704   6.999   6.329   2.873
31979W        W 3705   9.039  23.013   3.752
31980W        W 3706  21.397  17.648   3.764
31981W        W 3707  27.022  35.188   2.093
31982W        W 3708  17.723   1.964  10.667
31983W        W 3709  18.278  29.312   3.428
31984W        W 3710   6.485  35.993   3.726
31985W        W 3711  23.990  35.110   3.384
31986W        W 3712  13.862  19.089   4.553
31987W        W 3713  14.348  22.590   4.799
31988W        W 3714   8.911  33.517   1.541
31989W        W 3715  13.738  30.563  14.854
31990W        W 3716  28.000   9.568  11.938
31991W        W 3717  27.221   3.899   3.327
31992W        W 3718  32.382   9.938  13.858
31993W        W 3719  26.103   9.654   1.355
31994W        W 3720  26.502  17.587   3.256
31995W        W 3721  43.062  40.446   2.471
31996W        W 3722  29.715  29.013   2.914
31997W        W 3723  43.979  14.355  10.746
31998W        W 3724  18.495   7.848  13.193
31999W        W 3725  32.648   8.319  14.332
32000W        W 3726  14.934  31.872   0.068
32001W        W 3727  35.543  26.262   0.207
32002W        W 3728  15.935  24.039  10.245
32003W        W 3729  25.557   8.501  11.048
32004W        W 3730  41.450  10.153  12.696
32005W        W 3731  34.066  17.164  13.576
32006W        W 3732  41.884   7.755  13.490
32007W        W 3733  25.298  44.791  12.738
32008W        W 3734  28.438  35.095   0.923
32009W        W 3735   2.300  41.976   4.207
32010W        W 3736  10.192  25.385  14.360
32011W        W 3737  29.479   0.938  14.080
32012W        W 3738  10.670  36.105   5.539
32013W        W 3739  22.603  16.072   0.926
32014W        W 3740  32.129  33.620   0.998
32015W        W 3741  43.432  17.306  14.996
32016W        W 3742  16.619  32.241   5.112
32017W        W 3743  28.036  29.343   5.034
32018W        W 3744  25.295   2.605   1.749
32019W        W 3745  24.175  43.303   2.437
32020W        W 3746  21.084  18.915   4.065
32021W        W 3747  42.500   1.024   2.725
32022W        W 3748  10.315   8.182   2.955
32023W        W 3749  41.061   5.125  14.451
32024W        W 3750  38.273  41.724  11.009
32025W        W 3751   8.409  31.513  11.990
32026W        W 3752  37.956  31.123   2.654
32027W        W 3753  10.361  22.961   4.159
32028W        W 3754  13.372  17.081  13.171
32029W        W 3755  30.703  29.393  10.619
32030W        W 3756   1.493  35.193  11.582
32031W        W 3757  16.370  13.906  12.012
32032W        W 3758   4.991   3.233   3.675
32033W        W 3759  20.260  39.365   2.509
32034W        W 3760  36.738  21.208   4.450
32035W        W 3761  10.910  34.073   0.011
32036W        W 3762  19.509   0.168   2.300
32037W        W 3763  21.613  19.742   4.873
32038W        W 3764   8.383  24.087   5.052
32039W        W 3765  33.600  26.247  14.958
32040W        W 3766  35.999   5.855  14.928
32041W        W 3767   0.796  43.664  12.437
32042W        W 3768  29.440  35.925   0.696
32043W        W 3769   3.928  43.535  11.545
32044W        W 3770  22.935  32.435   4.226
32045W        W 3771   9.950   2.467  10.442
32046W        W 3772  30.504  11.439   4.775
32047W        W 3773  11.135  23.969  14.874
32048W        W 3774  11.073  13.525  13.101
32049W        W 3775  38.759  10.664   2.236
32050W        W 3776  16.505   5.863  13.541
32051W        W 3777  15.129  31.523   4.593
32052W        W 3778  29.034  29.221  12.402
32053W        W 3779  12.814  26.486  11.998
32054W        W 3780  17.970   5.345  12.361
32055W        W 3781  19.338  14.550   3.401
32056W        W 3782   4.270  41.451  13.958
32057W        W 3783  31.878   3.255  10.961
32058W        W 3784  10.268  44.671   4.928
32059W        W 3785  20.990  36.084  11.165
32060W        W 3786   7.734  12.204  14.561
32061W        W 3787   6.716  20.699  11.670
32062W        W 3788   5.980  17.601   4.693
32063W        W 3789  28.946  24.655   2.899
32064W        W 3790   2.449  42.786   3.246
32065W        W 3791   4.412   2.390  12.332
32066W        W 3792  14.119  13.389   3.538
32067W        W 3793   6.789  28.641  10.555
32068W        W 3794  43.020  25.991   3.779
32069W        W 3795  25.045  39.366   4.266
32070W        W 3796  29.419  26.707   2.220
32071W        W 3797  23.337  35.353   4.235
32072W        W 3798   2.568  10.731  13.925
32073W        W 3799  14.877  28.711  10.852
32074W        W 3800  13.057  42.818   4.478
32075W        W 3801  10.025  44.805   0.945
32076W        W 3802  31.110   5.178  14.867
32077W        W 3803  30.015  17.833   4.528
32078W        W 3804  35.591  39.340  10.539
32079W        W 3805   4.684   0.877  12.345
32080W        W 3806  32.789  39.211   1.741
32081W        W 3807  15.359  20.695   1.282
32082W        W 3808  32.474  35.827  11.955
32083W        W 3809   2.794   2.495   4.762
32084W        W 3810  22.580  30.198  12.322
32085W        W 3811  14.254  22.113  13.566
32086W        W 3812  38.371  44.882   2.956
32087W        W 3813  44.957  27.360  14.938
32088W        W 3814  44.026   9.149  10.819
32089W        W 3815  33.187   9.211   4.394
32090W        W 3816   3.717   5.860  12.413
32091W        W 3817  42.453  37.631   4.256
32092W        W 3818  21.694  41.009   2.445
32093W        W 3819  30.000  36.291  12.877
32094W        W 3820   6.673  43.522  12.511
32095W        W 3821  40.050  14.712   0.986
32096W        W 3822   4.789  21.677  14.505
32097W        W 3823  35.086  26.231   2.803
32098W        W 3824  36.569  10.731  13.013
32099W        W 3825   2.892  37.842   2.660
32100W        W 3826  27.961  19.941   3.341
32101W        W 3827   6.392  17.116   2.387
32102W        W 3828   4.367  25.555   4.109
32103W        W 3829   1.489  24.879  11.946
32104W        W 3830  30.533  18.043  14.079
32105W        W 3831  34.690  14.093  10.995
32106W        W 3832  28.240  25.636  10.383
32107W        W 3833  21.014  23.104  13.050
32108W        W 3834  35.001  17.062  13.437
32109W        W 3835   2.985  24.049  12.524
32110W        W 3836  33.316  34.381   1.689
32111W        W 3837  21.947  41.901   2.637
32112W        W 3838  35.431  43.466   4.754
32113W        W 3839  35.249  34.322  13.505
32114W        W 3840  38.240  27.479  13.468
32115W        W 3841  18.187  20.993   0.216
32116W        W 3842  26.919  31.193  13.933
32117W        W 3843   8.925  33.335   4.238
32118W        W 3844   0.385  30.028   3.635
32119W        W 3845  37.492  13.696   3.106
32120W        W 3846  40.746  24.418   1.766
32121W        W 3847  24.761  33.982  11.514
32122W        W 3848   2.372   9.310   1.761
32123W        W 3849  34.089  21.751  11.002
32124W        W 3850  19.123  22.756  12.858
32125W        W 3851  31.409  14.276   0.787
32126W        W 3852  15.654  11.804  10.648
32127W        W 3853  43.510  38.978   3.420
32128W        W 3854  44.172  23.494  14.333
32129W        W 3855   5.814  18.112   4.559
32130W        W 3856  19.421   7.813  13.513
32131W        W 3857   5.976  11.902  11.936
32132W        W 3858   3.538  28.129   1.954
32133W        W 3859  42.394  15.667   1.798
32134W        W 3860  10.109  36.037   0.545
32135W        W 3861  13.622   6.121  11.617
32136W        W 3862   4.306  10.461   4.374
32137W        W 3863  29.982  10.944   3.609
32138W        W 3864  37.335  17.222  14.442
32139W        W 3865   0.530   7.751   0.635
32140W        W 3866  16.782   5.273  12.876
32141W        W 3867  39.511  35.661   1.781
32142W        W 3868   8.446  18.065  14.804
32143W        W 3869  38.763  29.602  14.547
32144W        W 3870  37.319  29.683  11.978
32145W        W 3871  33.430   5.785  12.181
32146W        W 3872  13.371  15.040  13.880
32147W        W 3873  32.861  10.214   4.091
32148W        W 3874  17.803  34.122   1.813
32149W        W 3875  13.690  33.168   2.666
32150W        W 3876  31.321  23.212   0.979
32151W        W 3877  16.919   2.265  11.233
32152W        W 3878  42.040  25.182  10.560
32153W        W 3879  24.757  39.538   3.284
32154W        W 3880  29.717  31.677   4.126
32155W        W 3881  25.685  36.366  13.987
32156W        W 3882  15.332  33.673  13.008
32157W        W 3883  18.606   1.170   1.491
32158W        W 3884  12.573  21.255  11.102
32159W        W 3885  38.494  38.759   0.747
32160W        W 3886  35.959  32.058  14.705
32161W        W 3887   3.349  30.580  10.672
32162W        W 3888  18.681  44.722   4.711
32163W        W 3889  21.264  22.723  13.519
32164W        W 3890  40.121   2.227   4.530
32165W        W 3891   4.331  19.822  12.376
32166W        W 3892   0.427  38.070   0.120
32167W        W 3893  15.818  38.188  11.898
32168W        W 3894  20.157  30.079  10.688
32169W        W 3895  24.751  14.825  12.456
32170W        W 3896   9.071  20.757  14.654
32171W        W 3897  36.999  43.550   0.053
32172W        W 3898  35.559   5.441   1.040
32173W        W 3899  21.210   4.737  12.586
32174W        W 3900  23.501  16.558   1.333
32175W        W 3901  17.062  34.999   1.783
32176W        W 3902  12.805  19.078   3.757
32177W        W 3903  43.030  26.537  12.091
32178W        W 3904  12.098  14.534   3.648
32179W        W 3905  13.352  39.768   3.158
32180W        W 3906   7.647  23.769   2.368
32181W        W 3907  36.902  10.880  14.360
32182W        W 3908  14.855  36.778  13.033
32183W        W 3909  17.159  19.378  11.187
32184W        W 3910   5.961   8.742   3.857
32185W        W 3911  11.661   2.910   0.925
32186W        W 3912   5.957  43.929   1.975
32187W        W 3913  25.440   6.468   4.725
32188W        W 3914  32.644   4.872  13.003
32189W        W 3915  41.786  14.335  11.480
32190W        W 3916  36.456  20.618  13.789
32191W        W 3917  26.324   9.082   3.218
32192W        W 3918   7.895  18.559   1.919
32193W        W 3919   7.639  26.936   1.198
32194W        W 3920  18.101  40.562   3.431
32195W        W 3921   3.253  44.850  13.286
32196W        W 3922  28.678  13.382   4.224
32197W        W 3923  21.771   3.374   2.789
32198W        W 3924  28.098  20.038   1.219
32199W        W 3925  25.704  19.333  12.346
32200W        W 3926  12.110  38.725  14.493
32201W        W 3927  19.137   5.149  11.103
32202W        W 3928  27.180  12.730   2.373
32203W        W 3929  32.454  15.891  11.536
32204W        W 3930  35.296   2.824  14.352
32205W        W 3931  30.646  15.415   0.783
32206W        W 3932   0.438   2.015   2.276
32207W        W 3933  38.054  25.505  12.466
32208W        W 3934   2.924  19.837  10.656
32209W        W 3935  44.737  11.897  10.670
32210W        W 3936  27.598  24.745   3.133
32211W        W 3937  36.481   4.750  12.987
32212W        W 3938  18.808  14.253   2.458
32213W        W 3939  16.387  28.681   2.961
32214W        W 3940  37.084  31.054   1.390
32215W        W 3941  14.786  25.508   1.960
32216W        W 3942  30.538   9.292  13.359
32217W        W 3943  22.123  41.792   0.031
32218W        W 3944  16.090  14.650   0.844
32219W        W 3945  14.553  24.635  12.304
32220W        W 3946   0.791  42.073   3.686
32221W        W 3947  42.658  10.732  14.721
32222W        W 3948   6.409  29.683   2.343
32223W        W 3949  33.028  31.689  10.971
32224W        W 3950   6.872  17.299  11.699
32225W        W 3951  30.039  38.866   2.353
32226W        W 3952  37.063  22.026  14.001
32227W        W 3953  31.096  13.709   2.805
32228W        W 3954   6.860   2.709  13.813
32229W        W 3955  20.988  38.680   0.482
32230W        W 3956  11.625  28.142  12.919
32231W        W 3957   4.259  23.700  10.509
32232W        W 3958   5.264  18.296   2.797
32233W        W 3959   1.196  39.815  11.118
32234W        W 3960   5.895   6.185   4.399
32235W        W 3961  11.141  39.288  11.562
32236W        W 3962  16.727  11.253   1.559
32237W        W 3963  19.596  13.953   3.794
32238W        W 3964  10.664  33.446  14.297
32239W        W 3965  23.267  38.855  12.494
32240W        W 3966  28.558  15.092  11.830
32241W        W 3967  27.203  19.140  11.963
32242W        W 3968  15.824   4.356  11.210
32243W        W 3969  36.599  14.926  11.097
32244W        W 3970  31.188   3.067  12.760
32245W        W 3971  37.836   9.364  13.454
32246W        W 3972  10.431  36.935  14.202
32247W        W 3973  22.593  27.372  14.429
32248W        W 3974  35.074  44.649  12.125
32249W        W 3975  28.528  15.219   1.409
32250W        W 3976   1.383  16.426   3.892
32251W        W 3977  13.680  34.055  13.930
32252W        W 3978  32.971  10.680   3.873
32253W        W 3979  35.467  26.636   4.143
32254W        W 3980   2.382  43.153  10.855
32255W        W 3981  23.974  17.108  12.937
32256W        W 3982  34.083  27.709  14.793
32257W        W 3983  42.835  30.196  11.454
32258W        W 3984  35.101  23.544  14.815
32259W        W 3985  17.271  41.445   0.299
32260W        W 3986   0.802  17.513  14.281
32261W        W 3987  35.559  41.377  14.398
32262W        W 3988  16.088   3.042   2.223
32263W        W 3989  40.654   6.043   3.773
32264W        W 3990   4.167  37.468   0.474
32265W        W 3991  23.124   2.688  11.655
32266W        W 3992  32.191  21.133   4.641
32267W        W 3993  42.262  35.687   4.568
32268W        W 3994  30.453   1.670  13.339
32269W        W 3995   4.827  16.115  10.220
32270W        W 3996  27.195   1.628   0.027
32271W        W 3997  11.431   2.798  13.693
32272W        W 3998  20.527  39.569  14.432
32273W        W 3999  37.524  15.095   2.702
32274W        W 4000  30.900  40.453  13.858
32275W        W 4001   3.522   5.796  12.895
32276W        W 4002  17.626  30.199   1.410
32277W        W 4003  27.294  42.065   0.451
32278W        W 4004  26.201  20.680  13.974
32279W        W 4005  19.425  21.990   2.801
32280W        W 4006  11.940  37.070  12.969
32281W        W 4007  18.416   1.334  14.400
32282W        W 4008   3.013  31.494  12.034
32283W        W 4009  24.167  26.495   0.892
32284W        W 4010  24.810  37.840  13.942
32285W        W 4011  32.207  30.026   0.495
32286W        W 4012   1.956  27.700  13.278
32287W        W 4013  11.794  21.245  11.538
32288W        W 4014  37.905  23.584  10.692
32289W        W 4015   1.461   4.402   4.303
32290W        W 4016  25.212  11.449   1.710
32291W        W 4017   9.375   8.304  10.585
32292W        W 4018   6.220  14.086   5.163
32293W        W 4019  15.110  20.267   0.326
32294W        W 4020  24.445  18.698  14.999
32295W        W 4021  41.860  21.200   1.444
32296W        W 4022   4.706  34.098   0.938
32297W        W 4023   2.296  16.207  12.001
32298W        W 4024   9.774  29.164   0.625
32299W        W 4025  13.687   0.333  14.371
32300W        W 4026  24.216  13.333  13.022
32301W        W 4027  24.151  19.572  14.072
32302W        W 4028   4.829   3.934  11.291
32303W        W 4029  33.647  32.006   0.152
32304W        W 4030  27.718  23.015  10.661
32305W        W 4031  27.624   3.027   1.796
32306W        W 4032   2.637  18.565   4.020
32307W        W 4033  34.351   5.075  12.127
32308W        W 4034  32.899   5.400   4.223
32309W        W 4035  30.099   0.264  14.000
32310W        W 4036  19.124  37.389   4.799
32311W        W 4037  28.504  16.271  11.990
32312W        W 4038  28.175   2.941  11.933
32313W        W 4039  44.351  15.626   4.133
32314W        W 4040  32.394  20.102  12.874
32315W        W 4041  19.088  40.940   2.981
32316W        W 4042  15.902  30.301  14.494
32317W        W 4043  16.118  10.224   2.905
32318W        W 4044  25.752   6.396   0.772
32319W        W 4045  21.132   2.396  12.934
32320W        W 4046  23.643   4.384   3.884
32321W        W 4047   6.369  19.286  14.460
32322W        W 4048   7.906  42.696   0.453
32323W        W 4049  16.465  43.548  14.988
32324W        W 4050   9.638  16.652   4.911
32325W        W 4051  29.503   4.091  14.492
32326W        W 4052  40.300  35.506  13.061
32327W        W 4053  41.462  17.849  14.998
32328W        W 4054  25.703  10.644  14.866
32329W        W 4055  31.000  15.188   2.347
32330W        W 4056  32.588  20.997  11.621
32331W        W 4057   9.339   8.604   1.071
32332W        W 4058   4.721  16.151   3.204
32333W        W 4059  10.368  32.445  14.749
32334W        W 4060   8.998   6.220  10.207
32335W        W 4061   5.646  37.119   4.189
32336W        W 4062   0.080   9.342   1.438
32337W        W 4063   3.771  30.601   1.762
32338W        W 4064  27.189   2.412   3.105
32339W        W 4065  21.322   4.280  12.833
32340W        W 4066  24.878  33.423  10.774
32341W        W 4067  23.585   8.467  13.846
32342W        W 4068  28.102  41.892  11.973
32343W        W 4069  28.240   6.688  13.868
32344W        W 4070  10.281  35.833   1.398
32345W        W 4071  19.754   7.058  14.456
32346W        W 4072   3.300  29.928  13.897
32347W        W 4073  21.647  17.382   1.285
32348W        W 4074  28.382  17.791   0.726
32349W        W 4075  29.064   8.598   0.318
32350W        W 4076  31.042  29.442  12.756
32351W        W 4077   8.131  41.314   0.260
32352W        W 4078  16.598  43.341  14.048
32353W        W 4079  20.697   2.554  11.750
32354W        W 4080  10.393  20.015   3.872
32355W        W 4081  31.043  18.768  11.600
32356W        W 4082  14.790   5.681  12.125
32357W        W 4083  24.799  13.670   4.227
32358W        W 4084   8.902   9.462  11.989
32359W        W 4085  30.071  25.464  11.109
32360W        W 4086  16.788  26.355   1.845
32361W        W 4087  37.100  17.327   1.724
32362W        W 4088  32.472  31.909   4.677
32363W        W 4089  23.579  32.004  14.310
32364W        W 4090  14.566  34.902   4.604
32365W        W 4091   1.834  32.534  12.835
32366W        W 4092  34.169   1.095   1.526
32367W        W 4093  34.779  23.947  11.149
32368W        W 4094  25.023   8.219  11.617
32369W        W 4095  25.701  38.389   0.070
32370W        W 4096   5.923  38.406  11.374
32371W        W 4097  34.129  17.072  14.822
32372W        W 4098  14.173   2.707   1.640
32373W        W 4099  18.684  22.908  10.246
32374W        W 4100  39.917  31.750  13.367
32375W        W 4101  30.083  23.724  13.401
32376W        W 4102  25.633  37.281  10.703
32377W        W 4103  10.892  19.526   1.724
32378W        W 4104  33.087  12.654   2.860
32379W        W 4105  23.575  19.093   4.216
32380W        W 4106   2.805   5.271   1.792
32381W        W 4107  13.822  31.010  14.609
32382W        W 4108  30.556  35.505   1.796
32383W        W 4109  43.747  29.938   4.155
32384W        W 4110  38.965  14.984   1.253
32385W        W 4111  14.211  29.715  13.374
32386W        W 4112  44.998  25.011   0.922
32387W        W 4113  14.630  34.052   3.743
32388W        W 4114  34.000  12.370  11.123
32389W        W 4115  33.954   5.644   1.284
32390W        W 4116   8.036  29.846   2.647
32391W        W 4117  11.170  18.687  13.146
32392W        W 4118   0.455  16.751   1.257
32393W        W 4119  33.986   9.285   3.189
32394W        W 4120  20.938  33.912   4.907
32395W        W 4121   4.884  28.438   4.173
32396W        W 4122  29.041   6.136  10.842
32397W        W 4123  23.784  14.862  14.427
32398W        W 4124  20.068   2.958  13.474
32399W        W 4125  13.609  34.706   0.963
32400W        W 4126  34.096  28.084  10.600
32401W        W 4127  20.762  33.400   2.300
32402W        W 4128  38.890  13.740   4.648
32403W        W 4129  24.136  17.609  14.751
32404W        W 4130  30.230  44.869  10.123
32405W        W 4131  12.158  32.615  11.026
32406W        W 4132  41.746  33.452   3.161
32407W        W 4133  14.566  34.797  14.909
32408W        W 4134   7.684  31.171  12.921
32409W        W 4135  30.426  43.761  10.644
32410W        W 4136   2.972  10.144   3.248
32411W        W 4137  26.521  24.434  12.398
32412W        W 4138  23.489  10.401  13.045
32413W        W 4139  23.094  31.135  14.939
32414W        W 4140  30.157  31.506   1.986
32415W        W 4141  38.436  36.154  14.769
32416W        W 4142  11.089  26.276  11.654
32417W        W 4143  15.607   6.254  12.018
32418W        W 4144  14.828  31.966   0.740
32419W        W 4145  34.349   3.777  12.511
32420W        W 4146  39.543  11.659  10.887
32421W        W 4147  36.287  43.026   5.022
32422W        W 4148   3.759  34.552  10.008
32423W        W 4149  22.749  26.631   2.170
32424W        W 4150  13.282  22.634  12.110
32425W        W 4151  17.048  12.544   2.837
32426W        W 4152  16.824  39.972  11.001
32427W        W 4153   0.240  41.923  10.556
32428W        W 4154  27.361  44.921   0.913
32429W        W 4155  24.735  20.656  10.385
32430W        W 4156  44.988  11.712   2.824
32431W        W 4157  39.386  18.998   2.638
32432W        W 4158  34.553  16.312   1.880
32433W        W 4159  23.770   0.251   1.429
32434W        W 4160   5.282  42.830   3.399
32435W        W 4161  18.762  25.466  13.014
32436W        W 4162  20.613  34.655   2.759
32437W        W 4163  41.891   3.367   4.532
32438W        W 4164  34.787  11.363   3.393
32439W        W 4165  22.267  42.523   0.273
32440W        W 4166  37.522  14.245  12.059
32441W        W 4167  20.580  23.533  11.135
32442W        W 4168  14.230  28.538   4.802
32443W        W 4169  20.651  30.060  13.453
32444W        W 4170  21.009  27.050   5.056
32445W        W 4171  32.256  19.192  11.477
32446W        W 4172  35.152  40.936   0.500
32447W        W 4173   3.865  32.110  10.650
32448W        W 4174  21.291  12.716  10.159
32449W        W 4175  26.080  19.553   1.388
32450W        W 4176   2.440  30.752   4.226
32451W        W 4177  17.567  37.304  10.615
32452W        W 4178  19.238  14.229   4.703
32453W        W 4179  29.685  22.068   3.779
32454W        W 4180  24.260   3.944   0.275
32455W        W 4181  24.973   2.483   1.316
32456W        W 4182  37.434  14.261  11.173
32457W        W 4183  17.374  31.326   4.243
32458W        W 4184   8.433  34.107   1.781
32459W        W 4185   6.834  35.924  13.369
32460W        W 4186  26.375   2.569   4.957
32461W        W 4187  18.599   5.133  11.028
32462W        W 4188   0.772  21.657   2.760
32463W        W 4189   2.275   2.657  14.369
32464W        W 4190  11.949  12.074   0.895
32465W        W 4191   1.793  31.043  13.834
32466W        W 4192   3.473  37.410  10.930
32467W        W 4193  14.720  28.677  13.070
32468W        W 4194  41.624  42.709   2.120
32469W        W 4195  32.328  26.525   3.166
32470W        W 4196   4.287  13.851   2.805
32471W        W 4197   9.006  28.666  13.883
32472W        W 4198  13.073  25.110   4.586
32473W        W 4199   0.830  33.662   4.947
32474W        W 4200   7.103  24.646   2.288
32475W        W 4201   3.852   4.946  13.536
32476W        W 4202  18.789  14.195  13.456
32477W        W 4203   7.257  40.211  14.278
32478W        W 4204  15.160   4.200   0.935
32479W        W 4205  40.032   3.197  12.873
32480W        W 4206  17.982  32.344   2.233
32481W        W 4207  25.610  35.575  13.202
32482W        W 4208  37.045  27.959   1.908
32483W        W 4209  20.032  14.283  10.076
32484W        W 4210  16.179  10.032   4.637
32485W        W 4211  42.470   8.493  11.666
32486W        W 4212  28.820   0.884   4.103
32487W        W 4213  25.238  32.140  13.433
32488W        W 4214   5.713   4.135   0.490
32489W        W 4215  27.927   5.171   4.628
32490W        W 4216  10.375  23.634  11.708
32491W        W 4217  39.795  35.421  13.166
32492W        W 4218  24.482  38.394   4.284
32493W        W 4219  27.742   6.161  13.198
32494W        W 4220  15.054   6.284  14.383
32495W        W 4221   6.195   5.835   2.720
32496W        W 4222  19.663   6.786  10.635
32497W        W 4223  36.622  27.791  14.423
32498W        W 4224   5.107   4.009  14.329
32499W        W 4225  40.006  42.875  12.373
32500W        W 4226  35.745  38.496  13.004
32501W        W 4227  13.553  12.753   2.383
32502W        W 4228  33.687  34.323   1.318
32503W        W 4229  37.956  33.472  13.912
32504W        W 4230  29.357  33.382  14.790
32505W        W 4231  17.342  39.022   4.696
32506W        W 4232  44.233  39.935   4.184
32507W        W 4233  22.192  42.192   1.907
32508W        W 4234  40.094  43.133  11.937
32509W        W 4235  40.866   8.996  13.769
32510W        W 4236  31.029  32.615  11.021
32511W        W 4237  42.423  42.027  12.953
32512W        W 4238  12.756  38.067   2.879
32513W        W 4239  14.998  18.184  12.444
32514W        W 4240  41.766   9.289   2.668
32515W        W 4241  31.892   3.408  13.874
32516W        W 4242  25.905  13.340   4.039
32517W        W 4243  11.724  19.162  12.886
32518W        W 4244  39.879  44.331  11.416
32519W        W 4245  10.241  41.964  13.856
32520W        W 4246  35.604  22.726   3.731
32521W        W 4247  12.829  39.289   4.084
32522W        W 4248  30.627  33.873  11.154
32523W        W 4249   0.220  24.383   0.263
32524W        W 4250  43.165  18.066   2.842
32525W        W 4251   5.763  38.621  12.516
32526W        W 4252  19.468  24.598  13.383
32527W        W 4253   5.013  38.551  14.427
32528W        W 4254  37.316  21.521  13.881
32529W        W 4255  20.543  32.608   4.787
32530W        W 4256  16.041  22.787  12.980
32531W        W 4257   2.486  31.671  10.636
32532W        W 4258  13.497  23.486   1.853
32533W        W 4259  24.019   5.637   0.849
32534W        W 4260  13.163  16.274  12.883
32535W        W 4261  27.626   0.977   2.774
32536W        W 4262  40.404  31.919   5.001
32537W        W 4263  12.607   1.316  10.663
32538W        W 4264   1.831  17.689  12.169
32539W        W 4265  39.818   7.813  14.773
32540W        W 4266   2.126  38.572   2.757
32541W        W 4267  13.293   5.668  13.768
32542W        W 4268   3.350  16.144   2.925
32543W        W 4269  17.205  33.220  14.373
32544W        W 4270  22.245   5.185  12.115
32545W        W 4271  35.182  36.752  11.174
32546W        W 4272  25.106   2.809   2.184
32547W        W 4273  13.655  10.591   0.907
32548W        W 4274  30.868  24.503  12.821
32549W        W 4275  24.312  32.889  11.451
32550W        W 4276  10.846  24.577   5.044
32551W        W 4277   5.819   0.394   2.944
32552W        W 4278  34.141   4.141  13.069
32553W        W 4279  31.946   2.526   0.902
32554W        W 4280  40.228   3.223  14.856
32555W        W 4281  39.937   0.398  11.269
32556W        W 4282  31.039  31.561   2.414
32557W        W 4283   8.240   4.028   3.238
32558W        W 4284  34.815  36.126   0.705
32559W        W 4285  31.561   9.443   4.218
32560W        W 4286  42.941   0.378   1.896
32561W        W 4287  23.430  39.758   1.373
32562W        W 4288   6.429  14.588   4.529
32563W        W 4289  44.881  22.688   0.255
32564W        W 4290   2.974  31.015  13.063
32565W        W 4291  15.586  28.126   4.192
32566W        W 4292  32.005  17.779   3.933
32567W        W 4293  34.148  27.452  13.093
32568W        W 4294  20.113   1.821   0.859
32569W        W 4295   3.236  29.538   5.030
32570W        W 4296   9.642  39.122   2.317
32571W        W 4297  22.525  20.526   3.356
32572W        W 4298   6.795  22.258   2.853
32573W        W 4299  21.455  32.028  14.607
32574W        W 4300  13.815  30.018  11.469
32575W        W 4301  26.201  26.199   1.858
32576W        W 4302   3.689  19.155  12.893
32577W        W 4303  11.057  23.314   0.498
32578W        W 4304  43.808  25.934   4.252
32579W        W 4305   7.664  36.914   0.363
32580W        W 4306  34.592  16.791  14.390
32581W        W 4307  37.034  30.682  13.107
32582W        W 4308  14.352   3.224  14.234
32583W        W 4309   7.714  17.307   2.728
32584W        W 4310  39.078   4.400  11.435
32585W        W 4311  36.058  26.282  11.024
32586W        W 4312  18.987  19.363   2.217
32587W        W 4313  19.403   4.368  11.098
32588W        W 4314  16.834  22.833  13.390
32589W        W 4315  27.228  13.724  10.756
32590W        W 4316  30.096  39.988  14.214
32591W        W 4317  19.145  12.071  14.368
32592W        W 4318   0.679  22.498  12.047
32593W        W 4319  43.729   2.428   1.883
32594W        W 4320  20.135  13.287  11.924
32595W        W 4321  35.476  25.999  14.488
32596W        W 4322  14.031   9.706  12.061
32597W        W 4323  31.600  43.105   0.883
32598W        W 4324  26.718  22.076   3.583
32599W        W 4325  34.479  30.400  11.913
32600W        W 4326   8.922  19.689  11.048
32601W        W 4327  40.820  30.133   0.506
32602W        W 4328  37.589  35.885  12.417
32603W        W 4329  42.069  33.996  12.444
32604W        W 4330  15.146  44.264  13.359
32605W        W 4331  38.444  37.542  10.703
32606W        W 4332  38.557  29.286   4.378
32607W        W 4333  41.775  13.653   4.302
32608W        W 4334  28.794  33.124  14.422
32609W        W 4335  25.486  34.433   2.834
32610W        W 4336   6.961  35.449   4.390
32611W        W 4337   6.757  21.334   0.765
32612W        W 4338  17.622  23.494  14.795
32613W        W 4339  19.125   4.215  13.915
32614W        W 4340  32.672   0.091  14.937
32615W        W 4341   2.263  28.676   2.021
32616W        W 4342  14.870   3.742   0.298
32617W        W 4343   7.644  29.184   1.941
32618W        W 4344  37.123   6.946   1.886
32619W        W 4345  11.441   0.768   2.778
32620W        W 4346  40.748  42.401   2.242
32621W        W 4347  19.099  35.995  12.005
32622W        W 4348  22.064  18.357  13.934
32623W        W 4349  19.225   9.862   3.135
32624W        W 4350   9.184   7.311  13.410
32625W        W 4351  36.429  33.552   1.703
32626W        W 4352  31.907  15.813   2.918
32627W        W 4353   4.762   5.489  14.314
32628W        W 4354  27.516  36.490  12.841
32629W        W 4355  12.845   4.299   4.810
32630W        W 4356  14.857   6.826   2.602
32631W        W 4357  20.517  28.254   2.292
32632W        W 4358   6.667  41.507   2.396
32633W        W 4359  38.343  12.668  12.917
32634W        W 4360  42.920   2.812   0.293
32635W        W 4361  19.785  28.026   4.350
32636W        W 4362  15.572  30.507  12.092
32637W        W 4363  21.322   4.243   0.450
32638W        W 4364  23.517  16.103  11.969
32639W        W 4365  20.173  11.785   3.217
32640W        W 4366  41.938  15.666  12.202
32641W        W 4367  24.193  41.724  14.535
32642W        W 4368  21.381  12.508  13.361
32643W        W 4369  31.482   6.414   1.089
32644W        W 4370  22.190  24.817   1.408
32645W        W 4371  40.461  11.111  12.462
32646W        W 4372  13.653  25.666   1.134
32647W        W 4373  44.218  35.759  10.217
32648W        W 4374  30.259  40.454   3.333
32649W        W 4375  10.398  40.968   3.141
32650W        W 4376  32.997  10.073   1.714
32651W        W 4377  35.446  33.026   3.272
32652W        W 4378  31.654  39.914  13.839
32653W        W 4379  34.868   0.223  14.422
32654W        W 4380  13.038  43.715   1.217
32655W        W 4381  37.574   2.853  14.888
32656W        W 4382  38.931  23.551  10.484
32657W        W 4383   1.732  17.150   2.702
32658W        W 4384  14.163  10.471  11.557
32659W        W 4385  15.931   7.429   0.763
32660W        W 4386  19.575  42.428  10.532
32661W        W 4387  18.228  43.118  11.941
32662W        W 4388  42.869  44.221   4.280
32663W        W 4389  15.559  27.108   2.984
32664W        W 4390  33.117  35.742   4.040
32665W        W 4391  42.884  19.238   2.950
32666W        W 4392  24.044  21.176  10.739
32667W        W 4393  38.873  28.142  10.725
32668W        W 4394  22.287  13.142   1.682
32669W        W 4395  28.086  42.712   4.935
32670W        W 4396  35.285   7.247  14.425
32671W        W 4397  35.279  37.466  12.081
32672W        W 4398  11.248  17.075   4.202
32673W        W 4399   1.902   3.882   0.648
32674W        W 4400   2.313  38.908  13.599
32675W        W 4401  34.097  17.852  12.982
32676W        W 4402  28.758  22.996   1.433
32677W        W 4403  22.215  43.760  12.955
32678W        W 4404  16.701  11.366  12.879
32679W        W 4405  17.164   9.822   3.189
32680W        W 4406  11.863   9.869  13.499
32681W        W 4407  32.146  19.403   2.580
32682W        W 4408  39.542  10.733  10.904
32683W        W 4409   0.840  22.484   3.331
32684W        W 4410  39.262   0.817  13.973
32685W        W 4411  17.489  20.069  10.710
32686W        W 4412  43.327  20.191   3.864
32687W        W 4413  42.748   7.327   0.551
32688W        W 4414  17.271  43.284   1.046
32689W        W 4415  16.690  10.548   1.841
32690W        W 4416  18.205  43.538  14.610
32691W        W 4417  39.867  14.860   2.291
32692W        W 4418  12.753   5.146  10.638
32693W        W 4419  43.959  15.230   2.378
32694W        W 4420   6.002  43.005   2.070
32695W        W 4421  24.534  44.896   0.475
32696W        W 4422  16.514  33.062   0.893
32697W        W 4423   5.434  42.930  14.741
32698W        W 4424   6.376  15.043   1.419
32699W        W 4425  44.781  27.009  11.556
32700W        W 4426  33.916  16.680   4.095
32701W        W 4427  19.924  36.436   3.375
32702W        W 4428  32.206  36.431  14.054
32703W        W 4429  32.555  37.888  14.024
32704W        W 4430   2.976  43.026  14.037
32705W        W 4431  30.932  38.664  11.118
32706W        W 4432  42.583  10.828   1.683
32707W        W 4433  37.982   0.751  11.914
32708W        W 4434  18.121   5.946   3.612
32709W        W 4435  17.161  22.256  14.750
32710W        W 4436  27.379   0.773   3.174
32711W        W 4437  26.498   3.329  11.180
32712W        W 4438  41.280  37.470  14.967
32713W        W 4439  17.586  41.758   1.354
32714W        W 4440  34.264   6.353   0.931
32715W        W 4441  15.308   8.337  12.255
32716W        W 4442  28.255   4.757   3.841
32717W        W 4443   2.471  17.172  13.199
32718W        W 4444  23.201   1.463   2.772
32719W        W 4445  31.545  14.099  13.356
32720W        W 4446  11.984  32.075   4.704
32721W        W 4447  13.901  30.465   4.822
32722W        W 4448  25.377  25.130   2.331
32723W        W 4449  15.762  20.535   4.631
32724W        W 4450  27.654   6.883  11.100
32725W        W 4451   6.374  40.898   2.273
32726W        W 4452   2.586   5.902  14.121
32727W        W 4453  43.275  24.693   4.075
32728W        W 4454  13.571  26.567   2.936
32729W        W 4455   7.632  15.584   0.725
32730W        W 4456  13.711  21.845   2.812
32731W        W 4457  17.214  40.534   3.557
32732W        W 4458   2.439   0.106   2.932
32733W        W 4459  37.484  34.431   3.316
32734W        W 4460  11.974  12.531  11.841
32735W        W 4461   5.234   0.873  11.471
32736W        W 4462  26.277  26.764  13.086
32737W        W 4463  13.065   0.929   5.083
32738W        W 4464   6.165  27.116   0.301
32739W        W 4465  31.350   9.821   3.314
32740W        W 4466  13.749   1.413  11.647
32741W        W 4467   2.438  29.527  12.543
32742W        W 4468   1.893  25.992   4.673
32743W        W 4469   8.912   3.875  10.625
32744W        W 4470  42.677  24.593  13.102
32745W        W 4471  15.238   0.541  10.524
32746W        W 4472   6.355  13.108  13.486
32747W        W 4473  16.586  24.421  10.594
32748W        W 4474  17.094  35.492   0.702
32749W        W 4475   4.963  19.624   4.534
32750W        W 4476  28.472  25.760  13.553
32751W        W 4477   8.688  26.142   0.073
32752W        W 4478  21.782   1.699  14.748
32753W        W 4479  31.899  28.893  14.833
32754W        W 4480  19.517  35.863  11.760
32755W        W 4481  12.078  11.416   2.329
32756W        W 4482   6.623  14.208   2.263
32757W        W 4483  23.518  16.893   0.402
32758W        W 4484  26.093  19.298   0.254
32759W        W 4485  27.257  33.369   4.064
32760W        W 4486   6.667  21.551   4.546
32761W        W 4487   9.628   7.203  11.680
32762W        W 4488  21.681  30.572   1.395
32763W        W 4489  39.950  21.540  10.795
32764W        W 4490   4.909  33.580  14.959
32765W        W 4491  44.390   2.084   0.924
32766W        W 4492   7.302  26.942   2.644
32767W        W 4493  11.274  25.511   1.830
32768W        W 4494  36.006   8.882  10.536
32769W        W 4495   1.897  36.637   4.957
32770W        W 4496  26.293  32.884   1.785
32771W        W 4497  44.943  22.559   2.256
32772W        W 4498  18.085  13.230   1.853
32773W        W 4499  35.456  12.683   0.765
32774W        W 4500  28.486  34.588  11.665
32775W        W 4501  18.737  20.007  13.890
32776W        W 4502   4.437  29.188  14.854
32777W        W 4503  15.610  32.077  11.436
32778W        W 4504  14.510  15.653   0.011
32779W        W 4505  28.092  33.470   0.703
32780W        W 4506   2.713  20.690  13.340
32781W        W 4507  22.579  44.491  11.995
32782W        W 4508  28.515  36.018   0.831
32783W        W 4509  12.720  37.096  11.672
32784W        W 4510  24.241  12.303   9.601
32785W        W 4511  14.429   7.905  10.650
32786W        W 4512  18.324  30.847   1.307
32787W        W 4513   9.079  25.107  11.450
32788W        W 4514  26.068  26.234   2.747
32789W        W 4515  23.757  11.674   3.556
32790W        W 4516  19.916  22.719  12.334
32791W        W 4517  38.761  26.713   2.664
32792W        W 4518  18.147  39.424   4.360
32793W        W 4519   1.815  13.885  10.702
32794W        W 4520   7.649  31.707  11.604
32795W        W 4521  10.293  25.941   4.985
32796W        W 4522  17.040   6.441  13.430
32797W        W 4523  35.473  16.926  12.017
32798W        W 4524  15.842  23.248  13.102
32799W        W 4525  21.984  40.333  14.831
32800W        W 4526   4.765  19.849   4.047
32801W        W 4527   1.869  24.110   2.447
32802W        W 4528  34.492  38.584   3.696
32803W        W 4529  38.880  33.417  14.788
32804W        W 4530   4.802  21.150   3.688
32805W        W 4531  28.082   0.661   0.661
32806W        W 4532  12.609  33.008   0.026
32807W        W 4533  33.902   2.248   3.706
32808W        W 4534   5.475   4.535  11.411
32809W        W 4535  21.875  19.633   3.193
32810W        W 4536  22.268  24.020   4.561
32811W        W 4537  39.586  20.581  14.819
32812W        W 4538  41.068   0.741   4.225
32813W        W 4539  30.435  24.299   2.119
32814W        W 4540   2.258  32.575   3.892
32815W        W 4541   1.918   8.675  14.527
32816W        W 4542  24.307  26.622  10.125
32817W        W 4543   2.187  18.927  14.470
32818W        W 4544  11.330  11.637  12.533
32819W        W 4545  10.614   9.835   4.849
32820W        W 4546  36.545  31.891   2.214
32821W        W 4547  17.123  43.564   4.126
32822W        W 4548  18.969  12.759  12.054
32823W        W 4549  43.821  13.593  13.440
32824W        W 4550   7.279  14.626  13.825
32825W        W 4551  13.804  14.261   0.060
32826W        W 4552  28.200   7.696   3.672
32827W        W 4553   9.901  18.657  12.001
32828W        W 4554  28.892  34.817  10.920
32829W        W 4555  44.436  23.932   0.198
32830W        W 4556  21.375   2.258   3.334
32831W        W 4557   1.465  10.887   0.821
32832W        W 4558  34.177  15.170   2.355
32833W        W 4559  43.834  17.572   4.409
32834W        W 4560  43.517  17.922   4.186
32835W        W 4561  12.243  15.222   1.971
32836W        W 4562   7.005   7.647  10.176
32837W        W 4563  14.117  12.163  13.394
32838W        W 4564   8.154   9.229   3.300
32839W        W 4565  26.928  30.528   2.189
32840W        W 4566   9.477  13.612   3.807
32841W        W 4567  24.433  35.618  13.891
32842W        W 4568   6.730  27.536   0.757
32843W        W 4569  32.600  16.686  11.368
32844W        W 4570  21.504  43.313  11.795
32845W        W 4571   5.461  39.880  10.417
32846W        W 4572   3.304   1.884   3.160
32847W        W 4573  44.927  43.523   3.375
32848W        W 4574   4.929  38.523  11.016
32849W        W 4575  43.924  33.111  12.967
32850W        W 4576  23.981  39.852   3.428
32851W        W 4577  36.921   4.816   3.335
32852W        W 4578  10.731  27.878   0.774
32853W        W 4579  30.988   9.658  11.947
32854W        W 4580  19.415  42.413  13.108
32855W        W 4581  30.523  18.897  14.427
32856W        W 4582  16.020   8.981  14.520
32857W        W 4583  11.761  28.861  14.342
32858W        W 4584   5.919  24.608   4.307
32859W        W 4585  40.812  15.292   2.734
32860W        W 4586  15.508  33.343   5.042
32861W        W 4587   9.787  18.090   4.383
32862W        W 4588   8.288  28.778  14.714
32863W        W 4589  43.044  18.772  11.087
32864W        W 4590  40.854   5.239  14.942
32865W        W 4591  16.827  22.427   0.571
32866W        W 4592  42.049  39.993   0.697
32867W        W 4593   9.828  20.602   2.388
32868W        W 4594  21.737  37.531  13.576
32869W        W 4595  38.470  15.002   2.873
32870W        W 4596  37.811  26.497   4.292
32871W        W 4597  27.164  27.689   3.876
32872W        W 4598   9.833  23.820  14.969
32873W        W 4599  29.117  39.849   2.654
32874W        W 4600  40.882  24.226   1.307
32875W        W 4601  43.519  39.876  13.076
32876W        W 4602  39.546  15.610   4.747
32877W        W 4603  29.557  26.029   3.388
32878W        W 4604   8.021   0.904  10.377
32879W        W 4605   9.344  27.185  10.553
32880W        W 4606  33.456  44.485  12.694
32881W        W 4607  13.341  37.519  11.081
32882W        W 4608  43.773  14.158  14.459
32883W        W 4609  18.354   4.166  13.527
32884W        W 4610  42.200  22.048   3.615
32885W        W 4611  14.284  33.611  12.082
32886W        W 4612  10.214   4.743   1.318
32887W        W 4613  13.168  13.830  14.487
32888W        W 4614  42.917  16.987  12.932
32889W        W 4615  41.911  17.493   3.665
32890W        W 4616   0.894   9.748  12.168
32891W        W 4617  11.323  31.142  11.205
32892W        W 4618  20.080   4.304  13.798
32893W        W 4619  11.607   2.790   4.589
32894W        W 4620  39.881  42.282  11.593
32895W        W 4621  27.504   9.171   4.596
32896W        W 4622  38.102  14.032  11.279
32897W        W 4623  11.474  26.310   4.965
32898W        W 4624  28.043  14.263   4.629
32899W        W 4625  38.063  37.917  11.201
32900W        W 4626  17.083  38.491  11.616
32901W        W 4627   2.535  17.727   1.622
32902W        W 4628  27.150  21.694   1.292
32903W        W 4629  16.074  21.110   2.228
32904W        W 4630   5.399  31.342  13.959
32905W        W 4631  42.312  24.726  11.579
32906W        W 4632  25.510  15.550   4.590
32907W        W 4633  28.047  44.053   1.891
32908W        W 4634  39.094   6.975   2.674
32909W        W 4635  38.642   5.286   1.294
32910W        W 4636   3.229  21.745  12.523
32911W        W 4637  21.045  37.355  13.971
32912W        W 4638  26.073  16.287  14.482
32913W        W 4639   3.311  13.760   4.562
32914W        W 4640  41.087   9.671   0.711
32915W        W 4641  39.379  37.801  11.011
32916W        W 4642  17.593  22.737   2.331
32917W        W 4643   5.012   8.876   1.870
32918W        W 4644   9.838  12.928  12.524
32919W        W 4645  28.637  39.532  10.359
32920W        W 4646  19.558  15.070  13.490
32921W        W 4647  32.158  14.325   3.209
32922W        W 4648   7.155  30.905   4.184
32923W        W 4649  25.964  25.591   0.150
32924W        W 4650   4.819  34.028   3.084
32925W        W 4651  22.568  42.321   3.714
32926W        W 4652   6.359  44.380   4.227
32927W        W 4653  37.041   7.178   0.832
32928W        W 4654  42.022  17.109   0.696
32929W        W 4655  31.357  16.779   3.300
32930W        W 4656  29.569  14.342   4.648
32931W        W 4657  29.649  34.518   2.397
32932W        W 4658  10.768  10.395  14.813
32933W        W 4659  42.382  40.844   1.473
32934W        W 4660  25.927  16.891   3.756
32935W        W 4661  12.908   0.855  14.541
32936W        W 4662  30.610  31.661  12.987
32937W        W 4663  11.267  13.124  12.125
32938W        W 4664  24.548  23.731   2.675
32939W        W 4665  41.829  25.625   2.338
32940W        W 4666  44.345  13.590  14.997
32941W        W 4667   4.867   8.618   0.470
32942W        W 4668  39.460  35.404  14.127
32943W        W 4669   8.160  23.869   0.641
32944W        W 4670  33.323  38.429  11.014
32945W        W 4671  43.843  41.808   2.903
32946W        W 4672  28.915  26.954  10.879
32947W        W 4673   6.524  41.959  12.599
32948W        W 4674  44.725  26.484  13.887
32949W        W 4675   9.760  12.460   2.917
32950W        W 4676  40.025   6.396  13.175
32951W        W 4677  29.552  27.157  11.884
32952W        W 4678   9.442  23.798  12.876
32953W        W 4679  16.251  23.518   1.601
32954W        W 4680   0.812   6.878   2.882
32955W        W 4681  41.747  24.559   1.985
32956W        W 4682  22.246  11.024   1.810
32957W        W 4683  31.766   2.800   3.244
32958W        W 4684  30.703   1.508   1.313
32959W        W 4685  13.250  22.128  12.374
32960W        W 4686   2.360  42.477  12.897
32961W        W 4687   0.698  34.817  14.214
32962W        W 4688  16.827  34.556   2.873
32963W        W 4689  11.579  27.066  10.127
32964W        W 4690   8.049  37.029  14.435
32965W        W 4691  15.390  30.018   3.564
32966W        W 4692  41.825  40.368   4.290
32967W        W 4693  39.348  35.991   2.257
32968W        W 4694  38.309   1.882   0.026
32969W        W 4695  29.015  15.291   0.895
32970W        W 4696  29.146  30.356   2.833
32971W        W 4697  22.692  22.236  14.233
32972W        W 4698  15.228  40.076   1.915
32973W        W 4699  24.225   1.005   3.372
32974W        W 4700  13.393  15.078   1.834
32975W        W 4701  43.260   8.906  11.910
32976W        W 4702  23.121  38.711   1.736
32977W        W 4703  30.894  21.518   3.752
32978W        W 4704   1.232  18.164   0.483
32979W        W 4705  39.314  41.907   0.755
32980W        W 4706   5.417   6.097   4.187
32981W        W 4707  30.047  38.010   3.503
32982W        W 4708  24.180   2.457   4.234
32983W        W 4709  16.584  40.724  13.212
32984W        W 4710  22.382  18.831   2.229
32985W        W 4711  40.394   2.757   0.051
32986W        W 4712  28.457   1.301   4.670
32987W        W 4713   2.397  19.452   1.316
32988W        W 4714  30.850  32.690   0.249
32989W        W 4715  17.578   5.514  12.071
32990W        W 4716  24.163  36.961   3.818
32991W        W 4717  16.329  14.726   0.376
32992W        W 4718  42.178  41.875  14.795
32993W        W 4719  38.830  22.555  11.509
32994W        W 4720  23.614   8.906  12.004
32995W        W 4721  37.013  30.531   3.626
32996W        W 4722  27.215  23.661   0.415
32997W        W 4723  30.981  31.741   0.448
32998W        W 4724   7.270  21.983  11.943
32999W        W 4725  17.209  29.609  12.703
33000W        W 4726  17.049   1.758  11.179
33001W        W 4727   7.428  12.639  12.449
33002W        W 4728   9.108   8.667   4.614
33003W        W 4729  32.676   8.947   0.865
33004W        W 4730  17.665  34.266   4.671
33005W        W 4731   0.928  16.032   2.640
33006W        W 4732  30.378  23.144   4.555
33007W        W 4733  41.518  30.519   2.938
33008W        W 4734  19.550  33.541   2.643
33009W        W 4735  43.898  23.396   0.334
33010W        W 4736  30.048   5.214   0.666
33011W        W 4737  17.522   9.124   3.656
33012W        W 4738  28.674  12.657   4.689
33013W        W 4739  13.566  23.337  13.518
33014W        W 4740  17.912  34.142   3.238
33015W        W 4741   9.314  15.099   3.062
33016W        W 4742  32.950  17.296  10.313
33017W        W 4743  12.688  44.714  12.387
33018W        W 4744  16.157  24.013  11.194
33019W        W 4745  38.358   2.355  10.735
33020W        W 4746  19.172  33.358   0.256
33021W        W 4747  36.473  19.202  12.101
33022W        W 4748  18.096   2.456  14.952
33023W        W 4749  33.589  31.592   4.440
33024W        W 4750  10.888  24.570  14.480
33025W        W 4751   0.491  27.733   4.684
33026W        W 4752  21.815  38.547   3.791
33027W        W 4753  10.240   6.912   4.520
33028W        W 4754  35.420  28.999   1.695
33029W        W 4755  40.305  37.349  10.863
33030W        W 4756  16.809   8.341   4.217
33031W        W 4757  24.540  31.020   3.901
33032W        W 4758   3.286  19.188  13.699
33033W        W 4759   1.825   5.136  13.033
33034W        W 4760   1.405  43.220  13.197
33035W        W 4761  17.253  15.633   0.191
33036W        W 4762  40.090  38.593  12.442
33037W        W 4763   7.186   3.139   1.011
33038W        W 4764  28.671  18.285  10.671
33039W        W 4765  30.183  35.877   1.436
33040W        W 4766  24.250  34.329  12.566
33041W        W 4767  23.535  14.237   0.690
33042W        W 4768  32.103  40.413   5.177
33043W        W 4769  35.629  33.352  11.593
33044W        W 4770   3.955   7.124  12.302
33045W        W 4771  25.673   9.969  12.566
33046W        W 4772   3.265  25.203  10.756
33047W        W 4773  25.926  27.046   4.020
33048W        W 4774  40.968   0.589  12.043
33049W        W 4775  10.624  14.083   4.459
33050W        W 4776  17.019   2.073  10.780
33051W        W 4777  10.081  39.486  10.645
33052W        W 4778  10.700  30.631   1.405
33053W        W 4779  36.853   9.316  12.025
33054W        W 4780  19.109  34.053   4.044
33055W        W 4781  15.038  33.986  13.304
33056W        W 4782  16.052  23.410   3.251
33057W        W 4783  37.756  41.947  10.389
33058W        W 4784  43.191  33.904   0.883
33059W        W 4785  16.369   8.784   2.701
33060W        W 4786  43.833  20.592   1.382
33061W        W 4787   1.024  29.032  11.577
33062W        W 4788   7.273  10.949   1.831
33063W        W 4789  24.283   0.379  14.961
33064W        W 4790   7.063   4.643   0.805
33065W        W 4791  38.851  23.880   4.524
33066W        W 4792  11.211  30.118  10.790
33067W        W 4793  39.390  31.752  13.950
33068W        W 4794  28.786   0.294   0.750
33069W        W 4795  37.552  22.309  11.309
33070W        W 4796  30.081  36.842   0.402
33071W        W 4797  37.015   9.058   2.232
33072W        W 4798   3.862  40.510   2.125
33073W        W 4799  39.026   8.675  14.146
33074W        W 4800   8.038  13.839  11.581
33075W        W 4801  11.690  12.853   4.767
33076W        W 4802  41.826   1.244   2.184
33077W        W 4803  37.231   8.543   0.044
33078W        W 4804  34.441   7.173   2.360
33079W        W 4805  27.582  11.167   1.699
33080W        W 4806  25.046  22.925  12.861
33081W        W 4807  29.238  27.515  14.784
33082W        W 4808  21.605  12.773   2.788
33083W        W 4809  15.603  34.209  11.603
33084W        W 4810  32.641  18.475   3.748
33085W        W 4811  23.594   6.411  12.535
33086W        W 4812  18.103  19.981  13.334
33087W        W 4813   0.957  31.972  14.745
33088W        W 4814   5.235  30.054  10.712
33089W        W 4815  39.013  11.387   4.592
33090W        W 4816   4.573  41.480  10.287
33091W        W 4817  32.090  17.191  11.871
33092W        W 4818  27.983   4.467  12.090
33093W        W 4819  25.028  39.402  14.884
33094W        W 4820  18.112  37.630   4.175
33095W        W 4821  19.757   2.002  13.428
33096W        W 4822  30.138  13.781  12.944
33097W        W 4823  26.171   1.071  10.246
33098W        W 4824  37.071  41.475   3.747
33099W        W 4825  20.737   0.646  12.669
33100W        W 4826  28.094  23.496  13.390
33101W        W 4827  12.818  17.021   2.267
33102W        W 4828  12.363  21.808  12.413
33103W        W 4829  11.485  28.104   1.193
33104W        W 4830  25.532   4.986   1.257
33105W        W 4831  44.431  21.393   1.850
33106W        W 4832  43.908   0.379   2.147
33107W        W 4833  10.839   8.318   3.553
33108W        W 4834  16.605   2.800   3.709
33109W        W 4835   6.190  19.620   3.646
33110W        W 4836  14.489  28.435  14.027
33111W        W 4837  20.501  44.301   0.873
33112W        W 4838  23.668  16.201   2.428
33113W        W 4839   5.458  23.112  12.382
33114W        W 4840  25.713  31.615  12.814
33115W        W 4841   5.233  42.856   3.920
33116W        W 4842  44.219  11.182  14.439
33117W        W 4843  42.931  21.675   3.156
33118W        W 4844  41.249  40.528  12.081
33119W        W 4845   4.110  34.096  14.043
33120W        W 4846   6.144  33.349  10.716
33121W        W 4847   1.537   7.317  14.387
33122W        W 4848   2.800  22.531   2.730
33123W        W 4849  44.919  21.222  12.492
33124W        W 4850  28.737   1.848   0.803
33125W        W 4851  16.344   1.852   3.171
33126W        W 4852  30.921  17.429   0.150
33127W        W 4853   8.632  40.265  13.809
33128W        W 4854   8.234  40.007   1.477
33129W        W 4855  34.023  41.357   2.893
33130W        W 4856  10.350  13.473   3.630
33131W        W 4857  44.870   6.331  14.768
33132W        W 4858   1.517   4.363  11.226
33133W        W 4859  13.771   9.364  13.729
33134W        W 4860  33.358  11.301   3.634
33135W        W 4861  41.971  34.613   2.969
33136W        W 4862  41.052  19.872   2.573
33137W        W 4863   7.121  34.931   1.962
33138W        W 4864  35.074  33.089  13.049
33139W        W 4865  27.364   1.955   2.886
33140W        W 4866   5.487  25.601   0.533
33141W        W 4867  40.005  27.593  13.892
33142W        W 4868  13.533  14.565   1.869
33143W        W 4869  24.212  29.652   1.151
33144W        W 4870   7.126  12.917  11.999
33145W        W 4871   8.557  24.587  12.244
33146W        W 4872  31.500  27.087   3.500
33147W        W 4873  31.131  29.739   2.769
33148W        W 4874  40.732  40.489  13.814
33149W        W 4875  29.990  10.883  13.457
33150W        W 4876  28.347  42.577   3.242
33151W        W 4877  23.282   0.772   3.169
33152W        W 4878  10.309  36.885   0.615
33153W        W 4879   5.442  21.152  11.613
33154W        W 4880  15.723  24.148   4.173
33155W        W 4881  37.573  17.556   1.811
33156W        W 4882   6.878  33.407   0.801
33157W        W 4883  15.837   7.217  11.630
33158W        W 4884  30.143   9.930  14.468
33159W        W 4885  30.914  43.508  13.076
33160W        W 4886  34.768  14.756  12.003
33161W        W 4887  26.972   4.322   4.251
33162W        W 4888   2.484  31.512   1.307
33163W        W 4889   8.920  20.300  13.473
33164W        W 4890  37.537  35.283   4.736
33165W        W 4891  40.896  34.324   4.305
33166W        W 4892  22.012   9.850   3.756
33167W        W 4893   8.129  35.840  11.100
33168W        W 4894  40.449  20.961   1.317
33169W        W 4895  22.580  35.241   3.209
33170W        W 4896  13.607  38.540   1.732
33171W        W 4897  17.206  40.991   3.274
33172W        W 4898  34.642  14.767   2.726
33173W        W 4899  29.935   6.669   4.154
33174W        W 4900   9.140   6.740  14.571
33175W        W 4901  36.604  28.240   4.120
33176W        W 4902   2.318   5.932   1.484
33177W        W 4903  13.246  26.165  11.982
33178W        W 4904  31.842   8.267   3.817
33179W        W 4905  18.166  39.909   4.158
33180W        W 4906  32.134  36.611   3.765
33181W        W 4907  11.913  16.341  11.536
33182W        W 4908  12.605  17.056  13.455
33183W        W 4909   4.365  27.665  14.852
33184W        W 4910  28.475  11.230   0.180
33185W        W 4911  39.523  18.529  11.513
33186W        W 4912  39.865   1.944   1.766
33187W        W 4913  24.130  31.764  11.516
33188W        W 4914   9.701  10.153   1.897
33189W        W 4915   9.212  14.660  14.898
33190W        W 4916   1.222  24.105  11.545
33191W        W 4917  32.680  36.362  13.855
33192W        W 4918  41.911  10.071   4.617
33193W        W 4919  18.151  24.569  10.633
33194W        W 4920  37.012   9.854  13.273
33195W        W 4921  17.340  23.176  11.358
33196W        W 4922  26.707  16.816  14.981
33197W        W 4923  38.827  16.780  12.033
33198W        W 4924  20.273   3.509  10.307
33199W        W 4925   8.377   4.928   1.402
33200W        W 4926  15.710  22.124  11.552
33201W        W 4927   9.683   0.964  12.442
33202W        W 4928  10.643  18.712   3.657
33203W        W 4929  33.080  40.015  14.701
33204W        W 4930   0.457  14.693  13.972
33205W        W 4931  21.703  38.609   0.946
33206W        W 4932   5.383  39.380  12.333
33207W        W 4933  20.682  44.851  11.969
33208W        W 4934  26.733   1.717  14.817
33209W        W 4935  28.038   6.896  14.701
33210W        W 4936  38.043  16.332   2.636
33211W        W 4937  37.587  18.120  14.347
33212W        W 4938  24.334  27.171  14.727
33213W        W 4939  23.240  11.815  10.654
33214W        W 4940  28.152  41.487   3.867
33215W        W 4941   9.591  41.208  11.175
33216W        W 4942  29.123   8.977  11.141
33217W        W 4943   2.788  30.479   4.535
33218W        W 4944   9.246  41.277   2.402
33219W        W 4945  17.232  31.133   2.223
33220W        W 4946  11.178  16.582   4.036
33221W        W 4947  27.006  24.451  12.609
33222W        W 4948  31.893  35.097  14.502
33223W        W 4949   9.438   2.519   0.369
33224W        W 4950  14.247  30.466   0.016
33225W        W 4951  17.813   3.728  10.704
33226W        W 4952  17.015  11.353  13.670
33227W        W 4953  19.857   3.427   4.551
33228W        W 4954  41.871  24.277   2.405
33229W        W 4955  10.307  26.516   0.904
33230W        W 4956  35.468   4.096  11.884
33231W        W 4957  23.167  11.407  14.939
33232W        W 4958  17.912  24.794  11.038
33233W        W 4959  15.181  27.598  13.485
33234W        W 4960  38.576  29.504   3.327
33235W        W 4961  17.481  29.242   3.701
33236W        W 4962  11.931  31.094   0.811
33237W        W 4963  38.939   1.405  14.575
33238W        W 4964  21.354  21.241   2.566
33239W        W 4965  22.323   4.228  14.010
33240W        W 4966   6.286  38.533   2.163
33241W        W 4967  30.089  11.256   2.780
33242W        W 4968  35.485  33.876   0.729
33243W        W 4969  39.344   2.343  10.980
33244W        W 4970  29.481  31.291  11.778
33245W        W 4971  13.667   4.250  11.456
33246W        W 4972   8.419   8.248   2.678
33247W        W 4973  34.851  26.936  11.027
33248W        W 4974   5.518  13.863   3.377
33249W        W 4975  20.779  32.149  11.989
33250W        W 4976  43.551  21.759  11.457
33251W        W 4977  17.255   7.269   0.325
33252W        W 4978   0.670  21.144  14.377
33253W        W 4979  13.393  38.035  13.321
33254W        W 4980  27.956  42.269  10.732
33255W        W 4981  20.759  44.218   3.571
33256W        W 4982  37.877   6.396   3.687
33257W        W 4983  33.258  43.027   3.214
33258W        W 4984   5.304  30.087   0.520
33259W        W 4985   3.947  24.666  11.991
33260W        W 4986  22.992  11.922   5.091
33261W        W 4987  32.853  13.791  12.087
33262W        W 4988  18.738  31.574   4.450
33263W        W 4989  17.202   6.235   0.182
33264W        W 4990   0.120  18.754  12.095
33265W        W 4991  11.195  15.411   0.631
33266W        W 4992   8.194  43.578  14.524
33267W        W 4993  29.726  43.440  11.255
33268W        W 4994  30.034  31.348  14.463
33269W        W 4995   1.499  24.742  14.476
33270W        W 4996  19.664   4.711  13.770
33271W        W 4997   9.024  23.559   2.933
33272W        W 4998   5.077  43.297   0.443
33273W        W 4999   4.287  26.003   3.813
33274W        W 5000  24.275  34.519   0.337
33275W        W 5001  25.457  33.823   0.273
33276W        W 5002   9.687  42.189  12.052
33277W        W 5003  13.839  29.701  13.002
33278W        W 5004  36.997  27.419  12.617
33279W        W 5005   3.732  11.339  12.438
33280W        W 5006  42.880  35.126  13.025
33281W        W 5007  15.232  37.302   2.776
33282W        W 5008  24.033   9.194   1.921
33283W        W 5009  30.141  23.995   5.465
33284W        W 5010  22.677  30.383  13.945
33285W        W 5011   7.178  32.025  12.373
33286W        W 5012   4.363  16.132  13.543
33287W        W 5013   2.932   0.732   1.980
33288W        W 5014  41.861  29.224  14.332
33289W        W 5015  17.514  33.457  11.050
33290W        W 5016  12.939  22.260  12.001
33291W        W 5017  12.200  18.806   2.652
33292W        W 5018  36.520  16.373   0.509
33293W        W 5019   4.863  19.540  11.149
33294W        W 5020  35.085  10.740  14.003
33295W        W 5021  32.521  38.206   0.306
33296W        W 5022  35.371  27.008  10.972
33297W        W 5023  25.458   2.790  11.822
33298W        W 5024   0.977  23.802   1.552
33299W        W 5025   4.879  18.668   2.443
33300W        W 5026  32.460   0.371   2.417
33301W        W 5027   6.200  40.976  12.686
33302W        W 5028  37.901  14.882  11.802
33303W        W 5029  13.767  38.873  12.622
33304W        W 5030  23.588  22.115   4.333
33305W        W 5031  43.963  15.859  10.668
33306W        W 5032  13.277  12.126  13.721
33307W        W 5033  41.653   9.097   3.224
33308W        W 5034   2.513  43.913   2.285
33309W        W 5035  25.975  41.123   3.239
33310W        W 5036  44.568  27.569  10.359
33311W        W 5037  44.702  27.967  11.516
33312W        W 5038  43.484   1.798   4.737
33313W        W 5039  14.125  20.547   1.928
33314W        W 5040  18.803  43.915   0.271
33315W        W 5041  17.057  16.281   1.296
33316W        W 5042  28.933  15.295   2.199
33317W        W 5043  39.556  39.202  11.206
33318W        W 5044  43.911  37.007  14.831
33319W        W 5045  36.863   3.316  11.041
33320W        W 5046  32.033   8.970  14.975
33321W        W 5047   0.043  36.152  12.106
33322W        W 5048  17.276  32.522   0.872
33323W        W 5049   7.526  13.605   1.418
33324W        W 5050  14.210  37.081  10.565
33325W        W 5051  25.011  26.106  12.014
33326W        W 5052   2.976   8.624   2.728
33327W        W 5053  18.190  21.565  14.324
33328W        W 5054  19.137  11.835   4.792
33329W        W 5055  14.574  38.449   4.309
33330W        W 5056  19.226   2.492   0.533
33331W        W 5057  33.762   7.764  12.532
33332W        W 5058  23.769   9.127   2.785
33333W        W 5059  40.834  41.750  14.371
33334W        W 5060  27.979   4.632   0.987
33335W        W 5061   4.875  43.746   2.624
33336W        W 5062   9.579  18.850  13.910
33337W        W 5063  42.028  41.701   0.280
33338W        W 5064  18.275   6.053   2.233
33339W        W 5065   5.678  28.680   4.565
33340W        W 5066  14.196  16.206   0.615
33341W        W 5067  32.406  44.892   5.573
33342W        W 5068  20.573  15.796   2.659
33343W        W 5069   1.527   4.012   3.992
33344W        W 5070  42.848  40.357  11.948
33345W        W 5071   1.205  23.437   4.116
33346W        W 5072   9.222  17.345   0.222
33347W        W 5073  35.949   6.931   4.101
33348W        W 5074  27.683  15.161   3.616
33349W        W 5075   1.937  39.066  14.835
33350W        W 5076  27.538   4.105   0.313
33351W        W 5077  31.557  15.341  13.772
33352W        W 5078  31.320  34.090   4.105
33353W        W 5079  24.654  27.153   2.379
33354W        W 5080  15.222  17.765  13.329
33355W        W 5081  16.680  31.368   4.821
33356W        W 5082  41.807   4.669   0.884
33357W        W 5083   0.502   3.651  11.545
33358W        W 5084  12.734   8.824   0.208
33359W        W 5085  20.139   4.421  14.797
33360W        W 5086  43.655  23.466  14.305
33361W        W 5087  37.324   9.744   1.762
33362W        W 5088   9.896  40.867   0.307
33363W        W 5089  16.854  23.165   3.663
33364W        W 5090  18.013  19.493  13.414
33365W        W 5091  33.182  33.260   2.664
33366W        W 5092  32.087  12.040  10.568
33367W        W 5093  10.299  44.180   1.719
33368W        W 5094  42.775  25.242  14.911
33369W        W 5095  15.184  35.500  14.928
33370W        W 5096  17.726  28.952  12.979
33371W        W 5097  44.250  44.379  14.395
33372W        W 5098  42.117  10.136  14.447
33373W        W 5099  37.019  13.403  12.140
33374W        W 5100  32.209   0.107   0.770
33375W        W 5101  17.305  39.451   2.255
33376W        W 5102  39.310  41.604   2.973
33377W        W 5103  23.027  18.102  12.983
33378W        W 5104  41.538   0.839   2.343
33379W        W 5105  36.417  18.785   1.391
33380W        W 5106   4.678   9.276  14.462
33381W        W 5107  14.339  19.551  14.873
33382W        W 5108  20.212  21.015   3.125
33383W        W 5109  27.053  19.778  11.200
33384W        W 5110  18.558   4.076   2.337
33385W        W 5111  27.552  15.859  14.789
33386W        W 5112  14.652  27.265   0.366
33387W        W 5113  37.012  44.709  11.063
33388W        W 5114  31.736  34.246  12.467
33389W        W 5115  23.132  39.811   0.956
33390W        W 5116  23.997  11.211   1.616
33391W        W 5117  43.995  15.551  12.442
33392W        W 5118  11.670  38.053  12.885
33393W        W 5119   1.712  12.897  12.055
33394W        W 5120   9.278  40.504  13.815
33395W        W 5121   9.858  13.302   1.278
33396W        W 5122  22.332  39.165  12.812
33397W        W 5123   7.152  32.219   1.451
33398W        W 5124   9.390   8.880  11.862
33399W        W 5125  42.477  38.499   0.674
33400W        W 5126  25.195  38.356   0.694
33401W        W 5127  30.114  43.652  11.027
33402W        W 5128  24.610  39.362  13.538
33403W        W 5129  13.805   9.180  14.225
33404W        W 5130  12.232  44.967  14.914
33405W        W 5131  28.562  34.983   3.979
33406W        W 5132   9.280  15.090  14.579
33407W        W 5133   2.221  35.515   3.773
33408W        W 5134  37.745   0.473   1.783
33409W        W 5135  35.818  12.051  11.465
33410W        W 5136  34.043   0.740  12.393
33411W        W 5137   2.394  33.153   2.709
33412W        W 5138   5.250  33.937  10.724
33413W        W 5139  20.560   0.757   1.335
33414W        W 5140   1.500   7.508  11.123
33415W        W 5141  35.866  27.650  13.593
33416W        W 5142  15.659  12.802   1.875
33417W        W 5143  44.781  36.403   4.140
33418W        W 5144  37.012  15.041  13.296
33419W        W 5145   5.955  30.364  11.453
33420W        W 5146   7.328  40.923  12.542
33421W        W 5147  24.713   1.427  12.773
33422W        W 5148  22.168  18.499   1.901
33423W        W 5149   5.371  34.362   2.290
33424W        W 5150  20.085  39.835  12.504
33425W        W 5151  12.860  29.439  13.291
33426W        W 5152  41.481  28.014   4.810
33427W        W 5153  14.152  33.114   4.577
33428W        W 5154  20.646  33.621   2.754
33429W        W 5155  13.071   4.909  14.701
33430W        W 5156  30.731  32.499  12.559
33431W        W 5157  18.442  30.883   4.815
33432W        W 5158  22.701  43.534   3.229
33433W        W 5159   4.627  38.785   5.278
33434W        W 5160  17.037  39.064   3.393
33435W        W 5161  37.475  12.532  10.720
33436W        W 5162  22.094  44.282   2.230
33437W        W 5163  15.242   1.787   0.958
33438W        W 5164  43.934  17.195  13.759
33439W        W 5165  15.958  40.018   3.275
33440W        W 5166  29.803  26.101  13.579
33441W        W 5167  32.569  23.642  12.625
33442W        W 5168  10.172   4.396  11.617
33443W        W 5169  42.993  37.895  11.163
33444W        W 5170  17.766  27.482   3.107
33445W        W 5171  16.772  23.571  11.886
33446W        W 5172  21.770  34.653   1.742
33447W        W 5173  37.866   3.714   0.918
33448W        W 5174   4.422   1.976  14.110
33449W        W 5175  38.477  36.441  14.276
33450W        W 5176  14.371  27.967  11.165
33451W        W 5177   9.268  26.416  12.470
33452W        W 5178   4.817  38.472   3.663
33453W        W 5179  41.294  35.456  11.999
33454W        W 5180  39.446   1.453  14.743
33455W        W 5181   0.956  35.294   4.853
33456W        W 5182  31.149  11.218  12.454
33457W        W 5183   3.325  30.362   4.603
33458W        W 5184  43.274   2.860   2.808
33459W        W 5185  20.118   7.657  10.762
33460W        W 5186  34.931   1.701   3.325
33461W        W 5187   3.436  41.344   0.971
33462W        W 5188  10.350  31.259  11.584
33463W        W 5189  44.772  21.512  14.372
33464W        W 5190  34.271  35.872  14.591
33465W        W 5191  26.195  37.633   1.603
33466W        W 5192  19.004   6.376   3.977
33467W        W 5193  12.390  33.629   3.215
33468W        W 5194  31.298  11.251  14.568
33469W        W 5195  35.059  29.518  14.813
33470W        W 5196  41.943  32.410   4.351
33471W        W 5197  10.728  44.824   3.688
33472W        W 5198  30.892  14.141   4.948
33473W        W 5199  37.457  29.346  12.903
33474W        W 5200   0.442  40.502   3.355
33475W        W 5201  33.624   0.453   4.371
33476W        W 5202   5.290  38.844  12.493
33477W        W 5203   9.374  20.179   1.418
33478W        W 5204   7.263  36.378  11.289
33479W        W 5205   6.581  41.072  10.596
33480W        W 5206   8.794  21.831   4.381
33481W        W 5207  43.497  44.713   0.819
33482W        W 5208  34.501   0.521   0.316
33483W        W 5209   6.177  15.045   3.754
33484W        W 5210  38.312  25.224   0.064
33485W        W 5211  41.030  11.766  13.509
33486W        W 5212  20.986  14.090  14.237
33487W        W 5213  43.203   4.915  13.085
33488W        W 5214   3.203   9.233  12.240
33489W        W 5215  33.039  42.757  14.963
33490W        W 5216   4.277  32.921  13.661
33491W        W 5217  30.975  10.401  13.144
33492W        W 5218   6.374   6.196  11.156
33493W        W 5219  27.707  23.911   1.180
33494W        W 5220  33.368  29.492  13.110
33495W        W 5221  14.554   9.805  13.876
33496W        W 5222  21.869   2.160   3.171
33497W        W 5223  28.968  36.644  14.871
33498W        W 5224  43.662  29.522   4.560
33499W        W 5225  41.980  33.474   4.100
33500W        W 5226   6.944   0.915   3.193
33501W        W 5227  44.324   6.588  10.778
33502W        W 5228  40.743   4.015   2.346
33503W        W 5229  10.258  34.622   1.792
33504W        W 5230  21.712  33.400  10.676
33505W        W 5231  30.508  25.767  11.187
33506W        W 5232  12.778  35.407   0.435
33507W        W 5233   6.709  29.888   4.646
33508W        W 5234  11.244  15.175   3.159
33509W        W 5235  22.065  26.578   1.402
33510W        W 5236  17.810   2.440  11.048
33511W        W 5237   7.511   4.786  14.000
33512W        W 5238  44.881   9.347  10.564
33513W        W 5239  26.647   0.803  10.888
33514W        W 5240  25.604  37.589  13.420
33515W        W 5241  36.860  43.677   1.876
33516W        W 5242  24.166   2.481   3.310
33517W        W 5243   1.835  18.979  12.058
33518W        W 5244  17.604  11.781   4.141
33519W        W 5245   9.192  23.899  10.579
33520W        W 5246  30.603   1.810  13.840
33521W        W 5247   7.320  10.715   1.359
33522W        W 5248   6.147  19.212  14.011
33523W        W 5249  33.038  44.319  10.879
33524W        W 5250   9.259  30.519   3.295
33525W        W 5251  12.836  42.388   0.251
33526W        W 5252  19.529   6.842  12.900
33527W        W 5253  19.748  12.835  11.597
33528W        W 5254  18.055  44.762  13.452
33529W        W 5255   6.095   5.179   1.444
33530W        W 5256   0.492   5.730  13.101
33531W        W 5257   3.286  44.273  12.491
33532W        W 5258   9.392   1.467  13.814
33533W        W 5259  26.149  16.244  12.630
33534W        W 5260  10.400  42.523   0.005
33535W        W 5261  20.395  15.330   2.504
33536W        W 5262  37.956  19.162   1.463
33537W        W 5263  27.147  40.450   0.079
33538W        W 5264  44.361  24.520  12.509
33539W        W 5265   9.360  33.794   5.048
33540W        W 5266  41.845  44.454  14.833
33541W        W 5267  29.467  33.376   4.313
33542W        W 5268   2.308  44.384  11.524
33543W        W 5269  15.074   4.339  10.497
33544W        W 5270  29.568  42.349   2.605
33545W        W 5271   1.239  20.712  14.977
33546W        W 5272  37.474  13.399   1.949
33547W        W 5273  23.549  15.816   3.231
33548W        W 5274  43.481  13.347  14.448
33549W        W 5275   6.829   8.390  12.831
33550W        W 5276  35.749  16.654  12.375
33551W        W 5277  15.748  37.246   5.713
33552W        W 5278   7.150   0.543  11.678
33553W        W 5279   7.745  23.677  11.236
33554W        W 5280   6.241  23.683   1.745
33555W        W 5281  27.073  26.115  12.606
33556W        W 5282  35.872  16.627  13.501
33557W        W 5283   0.897   1.996   1.878
33558W        W 5284  30.524  37.957  12.057
33559W        W 5285  18.397  10.884   3.704
33560W        W 5286   0.847  37.088   1.405
33561W        W 5287  30.373  36.065  13.933
33562W        W 5288   2.862  37.421   1.748
33563W        W 5289   9.748  26.123   3.420
33564W        W 5290  27.125   8.803  10.530
33565W        W 5291   2.564  29.005  12.631
33566W        W 5292  33.794  32.338  14.417
33567W        W 5293  31.454  43.819   0.427
33568W        W 5294   6.735  25.003   1.526
33569W        W 5295   0.666   2.933   2.248
33570W        W 5296  35.469  11.747  14.319
33571W        W 5297  30.887  16.804  14.538
33572W        W 5298  28.997  40.853  14.362
33573W        W 5299   2.366  27.914  10.640
33574W        W 5300  30.905  11.151  12.011
33575W        W 5301  24.728  20.354  13.317
33576W        W 5302  16.612  40.553  11.680
33577W        W 5303   2.428  21.600   3.417
33578W        W 5304  26.637  24.133  12.815
33579W        W 5305   5.554  17.846  11.641
33580W        W 5306  19.793  34.958  13.360
33581W        W 5307  21.752   1.451   1.390
33582W        W 5308  10.463  29.167  11.470
33583W        W 5309  26.121  19.596   2.034
33584W        W 5310  38.071  39.844  11.220
33585W        W 5311  19.495  25.090  12.546
33586W        W 5312  32.914  25.992  12.062
33587W        W 5313  40.812  27.907  12.238
33588W        W 5314  38.850  24.679   0.690
33589W        W 5315  37.243   4.294  12.564
33590W        W 5316  41.315  24.084   4.558
33591W        W 5317  24.243  41.273  14.289
33592W        W 5318   7.594  31.857   3.235
33593W        W 5319  20.237  13.359  13.534
33594W        W 5320  22.148  30.635  11.580
33595W        W 5321   6.175  29.985   4.624
33596W        W 5322  11.184   7.031  14.550
33597W        W 5323  24.969  35.287  12.097
33598W        W 5324  44.780  17.703  10.758
33599W        W 5325  26.430  18.651  10.763
33600W        W 5326  36.785  40.048   4.532
33601W        W 5327  17.051  19.163   4.641
33602W        W 5328  37.930  38.327   4.294
33603W        W 5329  32.907  28.532   4.812
33604W        W 5330   0.463  44.906   3.297
33605W        W 5331   5.667  19.301  13.448
33606W        W 5332   3.573   5.688   0.437
33607W        W 5333   8.181  27.680   0.831
33608W        W 5334   0.502  29.054   1.150
33609W        W 5335   1.267  10.229   4.617
33610W        W 5336  40.033  37.451   1.184
33611W        W 5337  44.381  31.918   2.724
33612W        W 5338  38.830  24.132  12.763
33613W        W 5339  13.235  37.474   2.810
33614W        W 5340  12.902  41.352  13.365
33615W        W 5341  33.078  15.783  11.075
33616W        W 5342  13.159  31.541  14.927
33617W        W 5343  10.849  21.013   4.902
33618W        W 5344   1.695  25.831   3.278
33619W        W 5345  19.346  12.301  10.478
33620W        W 5346  30.643  29.506   4.364
33621W        W 5347  18.774   5.275   1.920
33622W        W 5348  24.228  44.291   3.676
33623W        W 5349  16.874  15.773  14.858
33624W        W 5350  27.205  23.996   2.406
33625W        W 5351  19.014  40.916  12.088
33626W        W 5352  39.803  20.591  12.408
33627W        W 5353  21.760   1.360   3.680
33628W        W 5354   4.607   8.244  10.505
33629W        W 5355  17.522  30.746  13.997
33630W        W 5356   5.764  15.608  12.824
33631W        W 5357  41.822  37.801   3.244
33632W        W 5358  15.150   1.742   1.459
33633W        W 5359  31.341   7.860   1.143
33634W        W 5360  42.280   3.556  14.632
33635W        W 5361  29.139  42.700   3.448
33636W        W 5362  29.628  36.370   4.650
33637W        W 5363  30.879  23.851   4.942
33638W        W 5364   8.469  24.069  11.077
33639W        W 5365  35.823  11.173  14.293
33640W        W 5366  30.452   5.483  11.354
33641W        W 5367   9.262   9.462  14.402
33642W        W 5368  27.365  14.786   1.335
33643W        W 5369  17.055  26.058   0.351
33644W        W 5370  11.432  21.634  12.539
33645W        W 5371  17.930   6.915  13.054
33646W        W 5372   5.826  42.749  10.666
33647W        W 5373   3.460  36.032  13.365
33648W        W 5374  44.761  17.637  12.813
33649W        W 5375  26.113  24.735  11.592
33650W        W 5376  18.296  32.038  12.998
33651W        W 5377  43.098  21.597   3.652
33652W        W 5378  37.698  35.511   3.087
33653W        W 5379  41.274   5.617  13.021
33654W        W 5380   7.694   5.273  14.865
33655W        W 5381  15.786   2.983  11.539
33656W        W 5382  28.918  17.667   4.644
33657W        W 5383  36.569   8.424  14.465
33658W        W 5384  41.591  39.506  13.788
33659W        W 5385  28.181  29.237  11.054
33660W        W 5386  25.745  31.588   4.718
33661W        W 5387  21.412  23.673  11.925
33662W        W 5388  34.219  41.973   4.616
33663W        W 5389  35.871   9.195  14.807
33664W        W 5390   1.716   2.588  13.322
33665W        W 5391  35.489  26.694   0.516
33666W        W 5392  36.421   6.358   1.586
33667W        W 5393  14.075  42.485  12.592
33668W        W 5394   4.785  16.154  14.896
33669W        W 5395  36.971  16.358  11.065
33670W        W 5396  30.018   8.674  12.995
33671W        W 5397  40.884  10.586   4.526
33672W        W 5398  36.809  23.134   3.848
33673W        W 5399  25.096  18.814  11.105
33674W        W 5400  22.447  29.897  11.399
33675W        W 5401   3.293  34.348   2.809
33676W        W 5402  19.740  38.920   0.860
33677W        W 5403  34.129   4.670   1.211
33678W        W 5404  40.231  34.962  11.933
33679W        W 5405  25.342  14.164  14.008
33680W        W 5406  43.293  35.048  12.081
33681W        W 5407   2.800  31.108   2.959
33682W        W 5408  17.012  31.862  11.642
33683W        W 5409  44.070  16.078   0.319
33684W        W 5410  31.104  35.535  13.962
33685W        W 5411  19.588   9.766  13.149
33686W        W 5412  23.981  13.093  14.413
33687W        W 5413  37.317  26.441  13.359
33688W        W 5414  33.670  26.074  14.446
33689W        W 5415  31.025   7.292   2.633
33690W        W 5416  40.517  43.311   3.823
33691W        W 5417   1.659  14.658   1.460
33692W        W 5418  44.201  15.245   3.324
33693W        W 5419   7.215  39.876  14.980
33694W        W 5420   1.262   7.922   4.159
33695W        W 5421  43.439   7.172  10.568
33696W        W 5422   2.703  13.792   0.934
33697W        W 5423  30.001  26.884   2.207
33698W        W 5424  23.105  25.111   5.136
33699W        W 5425  15.136  26.706  12.333
33700W        W 5426   3.312  42.649   2.906
33701W        W 5427  20.532  22.600  13.322
33702W        W 5428   8.262  41.510   2.918
33703W        W 5429  31.565   0.906  12.013
33704W        W 5430  34.395  22.543  11.564
33705W        W 5431  25.704  17.755   2.751
33706W        W 5432  43.919  20.687   3.930
33707W        W 5433  36.060   9.023  11.501
33708W        W 5434   2.618  21.216  13.957
33709W        W 5435  10.605  20.782  14.048
33710W        W 5436  16.231  40.085   1.793
33711W        W 5437  22.446  37.546   4.245
33712W        W 5438  24.055  14.673   0.762
33713W        W 5439  44.344  23.984  11.660
33714W        W 5440  43.748  16.113   3.852
33715W        W 5441  14.556  36.426  12.791
33716W        W 5442  34.319   3.754  14.357
33717W        W 5443  27.561  12.193  11.089
33718W        W 5444   1.504   6.415  11.715
33719W        W 5445   0.411  21.062   1.779
33720W        W 5446  41.544  21.523  13.037
33721W        W 5447  39.997  11.669  10.667
33722W        W 5448  44.529  10.780  14.078
33723W        W 5449  29.757  17.149  13.816
33724W        W 5450  11.551  28.181   5.018
33725W        W 5451  37.079   2.207   1.706
33726W        W 5452  10.609   2.444  11.740
33727W        W 5453  26.605  44.732   1.333
33728W        W 5454  39.900  43.329  11.511
33729W        W 5455  30.474  10.398   4.527
33730W        W 5456  29.441  41.903   3.333
33731W        W 5457  25.939   6.206   3.333
33732W        W 5458  38.580  39.477  14.968
33733W        W 5459  17.494  19.769  11.142
33734W        W 5460  20.755  14.319  12.816
33735W        W 5461  41.083  44.223   2.148
33736W        W 5462   6.869  34.035  13.918
33737W        W 5463  17.820   2.920   2.416
33738W        W 5464  23.419  44.780  13.864
33739W        W 5465  35.483   2.047  14.173
33740W        W 5466  23.459  35.580   0.830
33741W        W 5467  12.773  27.718  13.755
33742W        W 5468  28.244   5.116  14.859
33743W        W 5469  18.053  12.399   3.695
33744W        W 5470  39.039  24.497   3.747
33745W        W 5471  43.028  14.386  12.227
33746W        W 5472   1.065  22.146   0.282
33747W        W 5473   4.802   2.421  11.449
33748W        W 5474  30.694  40.987  14.842
33749W        W 5475  29.747  27.522  14.685
33750W        W 5476  33.113  27.107   4.175
33751W        W 5477  16.239   5.196   1.908
33752W        W 5478  30.948  41.074   0.456
33753W        W 5479   4.528   3.424   9.544
33754W        W 5480  26.825  24.159   4.244
33755W        W 5481  21.620  42.696  11.889
33756W        W 5482   3.226  19.340  12.768
33757W        W 5483  20.281  33.982  12.468
33758W        W 5484  36.900  14.680  13.977
33759W        W 5485   7.343  37.358   2.454
33760W        W 5486  21.203  36.848  13.979
33761W        W 5487  18.837  29.701   2.870
33762W        W 5488  38.524  29.885   3.676
33763W        W 5489  38.116   9.281  11.435
33764W        W 5490  41.511  15.790   3.620
33765W        W 5491   1.480   3.347   2.307
33766W        W 5492   4.313  44.552   1.843
33767W        W 5493   4.783  29.032   1.029
33768W        W 5494  24.887  12.599  11.451
33769W        W 5495   5.312  24.640  13.356
33770W        W 5496  35.141  14.350  11.123
33771W        W 5497   9.466  43.757   0.792
33772W        W 5498  36.623   8.652   3.396
33773W        W 5499  15.423  16.165  10.921
33774W        W 5500   5.368  42.336   3.631
33775W        W 5501   9.291  11.619   3.785
33776W        W 5502  23.548  37.190   3.872
33777W        W 5503  33.190  36.280  13.813
33778W        W 5504  35.299  28.504  13.379
33779W        W 5505  38.875  18.320   0.515
33780W        W 5506  13.664  37.777   2.676
33781W        W 5507  30.997  17.490   9.996
33782W        W 5508  37.012  13.640   1.238
33783W        W 5509  36.922  28.271   3.726
33784W        W 5510  18.781  32.836  11.721
33785W        W 5511  36.430  18.775   0.442
33786W        W 5512  20.180  22.130  10.671
33787W        W 5513   7.453  27.872   3.560
33788W        W 5514  43.758  24.523   4.063
33789W        W 5515  23.104  32.924   3.340
33790W        W 5516  32.201   2.473   1.360
33791W        W 5517   6.850  19.297  11.578
33792W        W 5518   7.171   4.779  10.368
33793W        W 5519  41.785  35.972   1.326
33794W        W 5520  36.586  25.832   1.080
33795W        W 5521  11.785  28.085   2.179
33796W        W 5522  23.470  13.753   1.971
33797W        W 5523  19.697  13.384  12.748
33798W        W 5524   3.287   0.214  14.246
33799W        W 5525  10.769   6.275   3.652
33800W        W 5526  22.028  22.793  11.703
33801W        W 5527  10.726  23.723   0.491
33802W        W 5528   9.760  39.136   3.126
33803W        W 5529  26.595  28.014   1.726
33804W        W 5530   4.348   7.870  10.256
33805W        W 5531  38.728   0.687  11.422
33806W        W 5532   3.268  15.620  10.086
33807W        W 5533   0.887  12.741  14.545
33808W        W 5534  14.381  40.506   4.104
33809W        W 5535  22.638  14.661   4.562
33810W        W 5536  16.301   1.770  12.683
33811W        W 5537  32.283  17.587  13.425
33812W        W 5538  32.899  23.505   2.929
33813W        W 5539  12.407  29.206  13.116
33814W        W 5540  34.527  20.034  13.417
33815W        W 5541  10.641  32.413  12.133
33816W        W 5542   6.201  15.015  11.340
33817W        W 5543   4.717  24.405   2.168
33818W        W 5544  17.711   0.140   1.860
33819W        W 5545  32.212  36.586   2.784
33820W        W 5546   8.285  25.566  14.485
33821W        W 5547   5.598  23.581   3.780
33822W        W 5548  28.715  41.290  11.485
33823W        W 5549  44.240  25.920   0.877
33824W        W 5550  15.841  20.544  10.037
33825W        W 5551   0.979  11.697  14.366
33826W        W 5552  18.169  15.693   3.639
33827W        W 5553  30.655   2.708   1.692
33828W        W 5554   3.844  34.093   3.556
33829W        W 5555  22.146  15.810   0.922
33830W        W 5556  11.247   6.092   3.647
33831W        W 5557  27.588  21.049   4.767
33832W        W 5558  28.352  13.692  10.547
33833W        W 5559  25.978  13.043  10.771
33834W        W 5560  19.892  24.494   1.328
33835W        W 5561   2.003  43.080  11.978
33836W        W 5562  14.061   5.853   3.719
33837W        W 5563   4.164  25.555  11.540
33838W        W 5564   7.172  15.354   3.731
33839W        W 5565  10.380  22.661   3.721
33840W        W 5566  22.603  21.900  12.398
33841W        W 5567  28.648   7.369   0.801
33842W        W 5568  32.465  36.039  14.268
33843W        W 5569  43.807   7.289  13.059
33844W        W 5570  14.185  32.107  14.436
33845W        W 5571  41.324   2.234   2.170
33846W        W 5572  23.354  16.720   4.083
33847W        W 5573  36.138  17.286  13.707
33848W        W 5574  38.405   5.330   4.394
33849W        W 5575  11.990  33.854   4.554
33850W        W 5576   8.817  26.964  14.458
33851W        W 5577   3.928  30.162   0.830
33852W        W 5578   3.851  29.490  10.821
33853W        W 5579  17.024  26.162  14.012
33854W        W 5580  31.938  16.260  11.456
33855W        W 5581   9.727  12.340   4.646
33856W        W 5582   9.846  17.344   3.720
33857W        W 5583  10.664  20.851   1.960
33858W        W 5584  10.258   5.603   3.686
33859W        W 5585  35.591   7.892  14.858
33860W        W 5586  33.580  13.169   0.542
33861W        W 5587  15.701   8.752   0.833
33862W        W 5588  32.559   4.440   2.411
33863W        W 5589  35.545  22.962   1.466
33864W        W 5590   9.545   0.564  11.091
33865W        W 5591  10.251  38.750  11.654
33866W        W 5592  12.280  12.756  12.191
33867W        W 5593  28.220  40.540  12.995
33868W        W 5594  13.232  10.794   0.691
33869W        W 5595  11.020  15.248  12.546
33870W        W 5596  38.887  27.439   3.536
33871W        W 5597  21.050  24.973   5.021
33872W        W 5598  11.342   4.231   2.405
33873W        W 5599  14.411  35.042  10.488
33874W        W 5600  25.618  21.222  14.176
33875W        W 5601  15.892  14.687  11.506
33876W        W 5602  29.318  22.759  13.995
33877W        W 5603  24.236  20.161   1.303
33878W        W 5604  17.303  16.311  12.972
33879W        W 5605  43.610  26.006  11.057
33880W        W 5606  15.688  44.454  11.158
33881W        W 5607  33.357   9.121  13.712
33882W        W 5608  32.129  19.929  12.475
33883W        W 5609  31.800  21.587  12.189
33884W        W 5610   2.772  28.487   0.435
33885W        W 5611  15.053  11.052   1.827
33886W        W 5612  19.333  41.304  11.654
33887W        W 5613  34.361   3.910   2.186
33888W        W 5614   6.466  17.897  14.912
33889W        W 5615  33.818   9.802   0.606
33890W        W 5616  18.307  11.876  14.300
33891W        W 5617  30.607  21.951  12.668
33892W        W 5618  42.573   2.829  11.916
33893W        W 5619  25.935  28.941   0.946
33894W        W 5620  28.057  37.830   1.236
33895W        W 5621  35.612  12.945   2.242
33896W        W 5622  20.223  24.179  11.631
33897W        W 5623   3.421  14.618  13.076
33898W        W 5624   2.468  15.799   5.077
33899W        W 5625  26.447  19.196  10.617
33900W        W 5626  44.763  29.545  12.497
33901W        W 5627  10.971  11.822  11.898
33902W        W 5628  37.527  19.020  11.147
33903W        W 5629  38.503  40.036   1.320
33904W        W 5630   9.907  35.350  10.714
33905W        W 5631  33.359  23.726   3.148
33906W        W 5632   3.916  33.131  10.076
33907W        W 5633  17.344  43.794  12.566
33908W        W 5634  33.535  36.136   4.381
33909W        W 5635  11.295  36.933  11.411
33910W        W 5636  12.559  13.663   3.226
33911W        W 5637  39.722  38.820  12.144
33912W        W 5638  11.917   0.348   3.455
33913W        W 5639  20.065  17.557  11.185
33914W        W 5640  19.187  18.783  14.723
33915W        W 5641   5.911  23.953  11.631
33916W        W 5642  11.695  32.093  14.926
33917W        W 5643   5.389   9.691  14.414
33918W        W 5644  25.254  37.366   1.144
33919W        W 5645  12.124   2.316  12.128
33920W        W 5646  35.432  36.318  12.477
33921W        W 5647  22.749  28.459   0.039
33922W        W 5648  20.591  14.229  13.823
33923W        W 5649  28.132  15.762  13.939
33924W        W 5650  37.702  19.192   2.302
33925W        W 5651  11.314  21.265   2.145
33926W        W 5652  14.360  22.010  12.629
33927W        W 5653   9.391  33.763   1.675
33928W        W 5654   6.363  27.366   3.761
33929W        W 5655  40.056   3.481   3.788
33930W        W 5656  28.145   4.263   1.910
33931W        W 5657  35.597  11.603   2.729
33932W        W 5658  26.649  32.516  10.456
33933W        W 5659  16.887  29.936  14.307
33934W        W 5660  32.861   6.525   1.910
33935W        W 5661  30.460  26.448   4.236
33936W        W 5662  23.908   9.637   2.750
33937W        W 5663   7.870  18.539   4.219
33938W        W 5664  30.387  40.339  12.956
33939W        W 5665   8.361  29.883  11.515
33940W        W 5666  25.618   4.816   0.240
33941W        W 5667   1.820   8.723  14.014
33942W        W 5668  19.617  30.898  11.797
33943W        W 5669  21.027  25.920   0.544
33944W        W 5670  22.932  35.466   0.719
33945W        W 5671   3.688  37.977  14.978
33946W        W 5672   1.826   2.701  12.329
33947W        W 5673  30.635  15.272   1.792
33948W        W 5674  42.540  36.610  14.499
33949W        W 5675  25.355  26.464  13.197
33950W        W 5676   7.320   8.786  14.421
33951W        W 5677   7.453   0.218   4.167
33952W        W 5678  39.965  36.381  14.593
33953W        W 5679  25.141  22.277   0.810
33954W        W 5680   6.461  39.378   2.742
33955W        W 5681   3.370   3.937  14.695
33956W        W 5682  37.101  33.264  14.949
33957W        W 5683  38.873   0.946  14.302
33958W        W 5684   0.778  17.623   1.359
33959W        W 5685  28.571   1.789   4.801
33960W        W 5686   8.511  11.342   1.856
33961W        W 5687   9.110  20.553   1.143
33962W        W 5688  27.382   7.408   4.575
33963W        W 5689  42.078  15.278  11.594
33964W        W 5690  37.882  34.802  12.177
33965W        W 5691   7.392  11.905   3.908
33966W        W 5692  15.501  39.734   2.196
33967W        W 5693  15.042  20.579  12.871
33968W        W 5694  33.138  26.085   2.225
33969W        W 5695  19.331  35.821  12.430
33970W        W 5696  43.345  23.249  11.302
33971W        W 5697  17.844  14.894  14.541
33972W        W 5698   8.724  24.379   1.134
33973W        W 5699  22.301  19.152  12.403
33974W        W 5700   6.074   8.694   1.757
33975W        W 5701  43.585   0.946  14.539
33976W        W 5702  31.784  27.414  13.245
33977W        W 5703  24.100  44.854  13.373
33978W        W 5704  36.869   8.686   2.722
33979W        W 5705  19.260  33.159  14.761
33980W        W 5706  24.199  16.509   3.636
33981W        W 5707  14.611  44.089   4.879
33982W        W 5708  17.301   6.679  11.489
33983W        W 5709  25.198   3.282   3.783
33984W        W 5710  42.059  13.911  14.269
33985W        W 5711   3.251  36.921   1.357
33986W        W 5712  29.779  35.531  13.353
33987W        W 5713  39.297  27.484   1.716
33988W        W 5714  16.743  13.544  14.532
33989W        W 5715  21.353   4.675   0.149
33990W        W 5716  39.312  23.580   0.891
33991W        W 5717   7.472   6.292  12.869
33992W        W 5718  16.714   5.417   1.939
33993W        W 5719  16.500   3.835  10.748
33994W        W 5720  19.356  28.601  13.548
33995W        W 5721   7.062  27.511   4.241
33996W        W 5722   3.866   6.061   0.657
33997W        W 5723  27.161  32.547  12.514
33998W        W 5724  28.274  43.100   3.331
33999W        W 5725  13.738  31.864   1.959
34000W        W 5726   6.609  10.661   0.189
34001W        W 5727  20.281  22.600   5.287
34002W        W 5728  19.758  19.769   1.603
34003W        W 5729  40.876  12.767  13.383
34004W        W 5730   2.179  19.688   3.691
34005W        W 5731  37.563  34.069  12.671
34006W        W 5732   9.144  21.623  11.879
34007W        W 5733  17.286  43.757  12.055
34008W        W 5734  17.089   1.803   1.300
34009W        W 5735   0.367  24.228   3.094
34010W        W 5736   7.226   3.776   3.900
34011W        W 5737  15.798  43.446   1.248
34012W        W 5738  21.320  19.066  14.490
34013W        W 5739  23.500  21.222  12.991
34014W        W 5740  14.390   4.364   3.743
34015W        W 5741  20.131  28.738   4.614
34016W        W 5742  28.003  28.015   1.428
34017W        W 5743  21.722  30.182   3.752
34018W        W 5744  15.674   0.027  13.382
34019W        W 5745  22.045  18.548   4.611
34020W        W 5746  19.217  44.777  10.734
34021W        W 5747  38.830  36.696   4.177
34022W        W 5748  28.765   6.832   3.878
34023W        W 5749   5.780  34.922  13.350
34024W        W 5750  27.701   6.196  12.708
34025W        W 5751  15.214  15.518   2.329
34026W        W 5752  32.495   3.170  10.301
34027W        W 5753  36.477  41.764   0.089
34028W        W 5754   1.489  35.980   3.270
34029W        W 5755  11.136  27.311  14.061
34030W        W 5756  14.598  36.533  11.011
34031W        W 5757   4.701  34.418   2.724
34032W        W 5758  20.079  14.701   4.796
34033W        W 5759  29.485  18.761  12.849
34034W        W 5760  44.499   0.986   0.840
34035W        W 5761  22.850  37.156  13.817
34036W        W 5762  33.032  18.603   1.020
34037W        W 5763  26.826  32.576  11.310
34038W        W 5764  40.027   5.738   0.955
34039W        W 5765  24.569   3.212   2.144
34040W        W 5766  39.844   9.911  13.582
34041W        W 5767  13.889  20.932   2.229
34042W        W 5768  22.486  21.180  13.011
34043W        W 5769   5.945  42.035  14.497
34044W        W 5770  38.461   5.033   2.410
34045W        W 5771   5.265  43.043   1.375
34046W        W 5772   6.112  43.436  13.838
34047W        W 5773  40.487   9.232   4.803
34048W        W 5774   4.898  27.238  13.112
34049W        W 5775  23.655  35.847  14.261
34050W        W 5776  15.389  30.408   4.802
34051W        W 5777  15.602  22.043   1.350
34052W        W 5778  37.318  17.149  12.979
34053W        W 5779  16.056  41.404  11.194
34054W        W 5780  12.110   2.964  11.164
34055W        W 5781  31.576   5.759  12.361
34056W        W 5782  24.797   2.017   4.715
34057W        W 5783  43.279  16.036   3.467
34058W        W 5784  20.959  25.722  11.984
34059W        W 5785  31.893  36.321  14.927
34060W        W 5786   6.420   8.720  12.052
34061W        W 5787  19.181   7.299   1.172
34062W        W 5788  16.707  38.634   5.117
34063W        W 5789  15.273  11.827   4.159
34064W        W 5790  13.660  33.596   3.345
34065W        W 5791   9.389  16.740  10.653
34066W        W 5792   3.724  11.206   0.425
34067W        W 5793  32.349  15.593   3.217
34068W        W 5794  32.790   6.713  14.977
34069W        W 5795  44.736   5.377  11.598
34070W        W 5796  38.461  16.248   4.581
34071W        W 5797   4.477  15.698   4.588
34072W        W 5798  11.286  44.340  10.569
34073W        W 5799  22.605   4.192  14.964
34074W        W 5800  23.449  10.181  11.648
34075W        W 5801  19.492  22.822  12.084
34076W        W 5802  29.490  24.478   1.911
34077W        W 5803  29.644  41.986   3.786
34078W        W 5804  41.600  42.525  14.998
34079W        W 5805  25.635  34.189   1.315
34080W        W 5806  42.383  19.653  12.792
34081W        W 5807  15.430   7.560  11.642
34082W        W 5808  32.897  13.658  10.698
34083W        W 5809   9.834  34.248   1.780
34084W        W 5810  15.560   4.843   4.193
34085W        W 5811  28.384  29.694   0.306
34086W        W 5812  19.214  12.631  14.266
34087W        W 5813  29.981  11.310  11.811
34088W        W 5814   7.250  27.041   4.139
34089W        W 5815  18.700  16.145  13.819
34090W        W 5816  44.799  24.943  10.987
34091W        W 5817  18.576  42.113  12.233
34092W        W 5818  36.859  43.009  10.879
34093W        W 5819   0.058   5.793   0.567
34094W        W 5820  18.192  36.585  12.960
34095W        W 5821   8.332  38.557  11.127
34096W        W 5822  21.592  32.482   1.313
34097W        W 5823  25.615  35.975   4.596
34098W        W 5824  40.370  26.167  14.475
34099W        W 5825  31.266  33.361   4.528
34100W        W 5826  20.336  38.363  13.429
34101W        W 5827  16.004  18.762  12.217
34102W        W 5828  11.774   2.536   0.355
34103W        W 5829  26.946   3.741  11.699
34104W        W 5830  26.457   6.129   5.039
34105W        W 5831  26.466  13.808   2.798
34106W        W 5832   2.014  33.470   3.575
34107W        W 5833  34.060  31.144   1.231
34108W        W 5834  28.325   8.683   4.941
34109W        W 5835   9.447  13.699   4.660
34110W        W 5836  10.740  33.137  13.899
34111W        W 5837   0.092  26.972  14.581
34112W        W 5838  42.819  15.783  11.619
34113W        W 5839  25.972  28.925   4.107
34114W        W 5840  19.121  39.754  13.508
34115W        W 5841  16.135   2.064  10.799
34116W        W 5842  39.099  17.739   5.065
34117W        W 5843   4.851  27.239   0.940
34118W        W 5844   4.061  40.017  10.602
34119W        W 5845  10.223  40.741  10.768
34120W        W 5846  23.409  10.882   0.502
34121W        W 5847  40.768  25.754   0.804
34122W        W 5848  23.562  25.333   5.099
34123W        W 5849  34.950  32.898   3.251
34124W        W 5850  26.675  32.753  12.536
34125W        W 5851  40.770  36.901  10.598
34126W        W 5852  18.329  22.810  14.915
34127W        W 5853  43.063  17.139  12.465
34128W        W 5854  39.834  21.111  12.005
34129W        W 5855   2.919  39.254  12.843
34130W        W 5856  28.529  20.569   2.842
34131W        W 5857  15.695  41.842   3.853
34132W        W 5858  38.313  36.831  12.987
34133W        W 5859  11.336  12.600   2.455
34134W        W 5860   4.614   7.950   3.562
34135W        W 5861  38.761   1.921  14.784
34136W        W 5862  41.092  18.749  12.437
34137W        W 5863  17.245  26.087   3.370
34138W        W 5864   6.667   4.517  10.964
34139W        W 5865  40.291   5.930  12.121
34140W        W 5866  19.696  23.265  12.959
34141W        W 5867  19.771  26.922  12.952
34142W        W 5868  13.947  19.055  13.514
34143W        W 5869  25.238  38.932  14.555
34144W        W 5870   9.905  13.318   3.842
34145W        W 5871  36.570   7.456   1.524
34146W        W 5872  38.293  43.919  13.455
34147W        W 5873  14.636  42.523  13.444
34148W        W 5874  20.156   5.754  13.454
34149W        W 5875  14.350  25.473   2.680
34150W        W 5876  17.781  30.666  12.393
34151W        W 5877  28.601  21.743  12.110
34152W        W 5878  31.500  25.417   1.814
34153W        W 5879  30.001  42.904  11.632
34154W        W 5880  28.129  19.556   4.629
34155W        W 5881  37.562  30.577   0.819
34156W        W 5882  43.823  40.716   0.923
34157W        W 5883  29.352   0.032  12.110
34158W        W 5884   8.798  17.087   4.556
34159W        W 5885   4.761  15.902  11.060
34160W        W 5886  42.914  44.422   2.775
34161W        W 5887  10.787  11.200  13.142
34162W        W 5888  43.267   8.830   3.543
34163W        W 5889  32.601  12.986   4.809
34164W        W 5890   5.194   7.009  11.539
34165W        W 5891   6.501  41.089  14.772
34166W        W 5892  13.108   8.155   0.405
34167W        W 5893   8.440  39.604   3.574
34168W        W 5894  17.194   5.145   4.277
34169W        W 5895  37.619  12.169  14.864
34170W        W 5896  18.258  39.451  14.027
34171W        W 5897  36.909  42.854  14.758
34172W        W 5898  41.917   4.254  13.197
34173W        W 5899  32.691   1.813   1.758
34174W        W 5900  40.400  43.121   5.032
34175W        W 5901  30.535   5.413   0.726
34176W        W 5902  32.630  21.619  13.459
34177W        W 5903  26.641   4.466  14.727
34178W        W 5904  31.049  31.329   0.947
34179W        W 5905  14.274   8.910   2.810
34180W        W 5906  35.583  22.033   3.212
34181W        W 5907   6.474  24.732  14.340
34182W        W 5908  34.164  42.463  11.991
34183W        W 5909   3.470   4.014   0.837
34184W        W 5910  28.508  15.306   0.002
34185W        W 5911  14.549  23.688  12.287
34186W        W 5912   9.228  25.630   5.544
34187W        W 5913   4.212  20.466   4.432
34188W        W 5914  37.888   4.962   0.757
34189W        W 5915  15.311  27.129  10.907
34190W        W 5916  23.455  27.966  13.687
34191W        W 5917  10.414   1.806   3.635
34192W        W 5918  42.528  33.529  11.551
34193W        W 5919  38.267  21.776  11.092
34194W        W 5920  42.765   0.101  12.067
34195W        W 5921  39.887  35.059  11.545
34196W        W 5922   5.090  21.040  10.238
34197W        W 5923  37.967  27.152   0.537
34198W        W 5924  23.507  21.601   4.263
34199W        W 5925   7.455  13.315  12.042
34200W        W 5926   5.408  11.732   2.276
34201W        W 5927  26.072  13.593   4.593
34202W        W 5928  20.223  32.790   2.801
34203W        W 5929  29.999   4.830  10.550
34204W        W 5930  17.886  10.309  11.974
34205W        W 5931   1.493  28.997  10.794
34206W        W 5932  41.572  31.053  11.944
34207W        W 5933  18.839  36.645   1.222
34208W        W 5934   5.952  19.058   0.304
34209W        W 5935   5.235  40.936  14.419
34210W        W 5936  20.055   4.940   3.780
34211W        W 5937  42.246  39.563  12.731
34212W        W 5938  24.346   3.359   4.101
34213W        W 5939  38.344   4.359  11.144
34214W        W 5940   2.447   7.044   0.819
34215W        W 5941  38.645  37.288   3.242
34216W        W 5942  36.076   9.073  12.535
34217W        W 5943  15.716  41.792   1.230
34218W        W 5944  27.029  36.281   0.403
34219W        W 5945  20.731  42.464  12.952
34220W        W 5946  22.134  23.062   4.869
34221W        W 5947  40.805  41.377   4.136
34222W        W 5948   6.026  26.683  14.351
34223W        W 5949  40.317  21.230   1.792
34224W        W 5950  15.556  23.099   1.352
34225W        W 5951  35.988  38.550   4.884
34226W        W 5952  14.475  28.612   1.254
34227W        W 5953  14.283   0.840  13.927
34228W        W 5954  26.950  21.045  12.417
34229W        W 5955   1.234  26.377   5.036
34230W        W 5956  44.527  16.663   0.817
34231W        W 5957  22.472  42.857   2.781
34232W        W 5958  19.311  11.179  14.589
34233W        W 5959  15.372  43.458  12.891
34234W        W 5960  43.534   6.810   2.142
34235W        W 5961  40.776  29.598   2.657
34236W        W 5962  16.375   4.382   0.482
34237W        W 5963  37.573  32.998  12.273
34238W        W 5964   9.113   1.135  10.278
34239W        W 5965  11.736   9.981  11.924
34240W        W 5966  12.277  12.180   4.133
34241W        W 5967  30.641  37.468  11.950
34242W        W 5968   6.157  31.842  10.808
34243W        W 5969  40.527  34.384   3.721
34244W        W 5970  31.687  19.711  12.635
34245W        W 5971   0.371  27.701   3.925
34246W        W 5972  38.875  38.278  10.673
34247W        W 5973   5.320   7.296  14.288
34248W        W 5974  31.124  30.694   3.729
34249W        W 5975  32.626  21.743   0.261
34250W        W 5976  35.510   3.805   3.086
34251W        W 5977  31.042  19.789  11.568
34252W        W 5978   0.981  43.064   3.714
34253W        W 5979  31.330  25.466  10.664
34254W        W 5980  36.009  10.380   1.920
34255W        W 5981  20.028  41.076  13.972
34256W        W 5982  18.880  27.100  13.787
34257W        W 5983   6.072   4.077  10.670
34258W        W 5984  35.815  12.573   2.646
34259W        W 5985  39.968  41.464  14.296
34260W        W 5986  22.735   8.718   2.248
34261W        W 5987  40.273  17.940   4.082
34262W        W 5988  34.933  34.369  14.438
34263W        W 5989  24.002  30.502  11.996
34264W        W 5990  17.695  33.670   3.155
34265W        W 5991  15.354  44.436   2.497
34266W        W 5992   9.060  24.670  12.343
34267W        W 5993   5.942  28.102  10.673
34268W        W 5994   0.959  31.942  13.959
34269W        W 5995  10.953  31.129  12.334
34270W        W 5996   0.726  15.771   3.920
34271W        W 5997  28.658  32.164  11.980
34272W        W 5998  19.041   6.756   0.958
34273W        W 5999  11.292  11.930   4.133
34274W        W 6000  11.188  22.085   1.193
34275W        W 6001  11.612  18.743  14.085
34276W        W 6002  42.526  19.570  13.331
34277W        W 6003   7.780   3.514   2.204
34278W        W 6004  40.016  24.750  13.970
34279W        W 6005  28.501  11.727   3.106
34280W        W 6006  25.005  15.375   4.528
34281W        W 6007  19.671  40.498  10.696
34282W        W 6008  28.991  44.946  14.912
34283W        W 6009   8.344  32.351   3.815
34284W        W 6010  37.540  28.173  12.386
34285W        W 6011   6.808  26.266   2.711
34286W        W 6012  18.865   1.675  12.641
34287W        W 6013  27.984  35.542  12.847
34288W        W 6014  44.730   4.275  12.506
34289W        W 6015   8.251   2.522  13.973
34290W        W 6016  22.240   1.545   1.174
34291W        W 6017  34.984  14.263  12.056
34292W        W 6018  16.746  13.379   2.772
34293W        W 6019  23.191  30.586   3.498
34294W        W 6020   1.825  22.268   0.726
34295W        W 6021   7.433  18.597  14.247
34296W        W 6022  17.266  13.075  13.012
34297W        W 6023  20.621  17.159   2.452
34298W        W 6024  22.589  15.808  10.385
34299W        W 6025  44.517  17.253   0.028
34300W        W 6026  17.666  41.511   3.945
34301W        W 6027  14.832  25.919   1.634
34302W        W 6028   3.014  32.067   4.618
34303W        W 6029  32.108  27.945  11.552
34304W        W 6030   8.654  39.188  11.595
34305W        W 6031  15.373  44.870   1.890
34306W        W 6032  28.688  21.667   3.761
34307W        W 6033  35.128  33.716  12.109
34308W        W 6034   3.767  13.748  11.356
34309W        W 6035  27.371  40.796  12.096
34310W        W 6036  31.806  41.955  12.774
34311W        W 6037  17.007  15.759   5.084
34312W        W 6038  11.468  26.419   2.874
34313W        W 6039  27.679  17.672  13.037
34314W        W 6040  33.126  24.720   3.198
34315W        W 6041  38.369  41.708   3.199
34316W        W 6042   0.408  39.434   3.618
34317W        W 6043  30.349  33.638  11.542
34318W        W 6044  33.269   0.017   3.670
34319W        W 6045  43.267  33.677   3.163
34320W        W 6046  42.000  29.088  12.828
34321W        W 6047  37.157  25.816   2.242
34322W        W 6048  16.511  17.806   2.399
34323W        W 6049  34.294  22.990   3.612
34324W        W 6050  31.585  25.047  11.561
34325W        W 6051  38.118  21.257   2.434
34326W        W 6052  10.832   7.933   2.214
34327W        W 6053  37.535   9.638  12.597
34328W        W 6054  29.046   3.510   1.631
34329W        W 6055  19.897   7.601  13.645
34330W        W 6056  32.614  23.111   4.583
34331W        W 6057  35.823  26.253   1.374
34332W        W 6058   0.457   3.367   3.288
34333W        W 6059  37.558  39.054   3.640
34334W        W 6060  21.656  21.746  11.932
34335W        W 6061   6.389  11.868   0.483
34336W        W 6062  23.948   1.135   4.337
34337W        W 6063  32.895  17.374  12.904
34338W        W 6064   4.380   7.497  13.051
34339W        W 6065   4.381   3.043   0.594
34340W        W 6066  22.242  38.539   4.769
34341W        W 6067  44.911   8.713   2.423
34342W        W 6068  32.962  37.938   1.685
34343W        W 6069  42.031   4.278  14.548
34344W        W 6070   5.089  30.581  14.935
34345W        W 6071   1.330  28.024  11.641
34346W        W 6072   8.174  43.362   1.850
34347W        W 6073  11.883  18.469  14.434
34348W        W 6074  35.451  16.241  12.511
34349W        W 6075  38.316   9.755  11.543
34350W        W 6076  11.882  10.425  13.499
34351W        W 6077  40.471  30.263  12.064
34352W        W 6078  10.215  26.024   0.774
34353W        W 6079  19.808   3.370  12.514
34354W        W 6080  29.293   1.488  12.863
34355W        W 6081  16.506  33.549  11.147
34356W        W 6082  16.275  22.500   2.491
34357W        W 6083  30.045  14.459  12.041
34358W        W 6084  25.451  41.825  10.688
34359W        W 6085   0.748   5.441   2.853
34360W        W 6086  10.137  16.292  14.800
34361W        W 6087  38.450   2.958   3.338
34362W        W 6088   2.739  29.662   0.091
34363W        W 6089  22.232  35.448  12.098
34364W        W 6090  22.305   3.009  11.759
34365W        W 6091   6.404   7.205  13.096
34366W        W 6092  28.547  21.837   0.350
34367W        W 6093  18.101  19.057   1.844
34368W        W 6094  43.065  25.600   0.190
34369W        W 6095  18.698   7.872   0.273
34370W        W 6096  43.454  31.749  10.766
34371W        W 6097  29.276  22.995   1.410
34372W        W 6098  30.679   6.834   3.878
34373W        W 6099  29.779  36.002   1.806
34374W        W 6100  33.432  16.853  13.426
34375W        W 6101  36.176  21.687  13.069
34376W        W 6102  10.828  40.765   3.366
34377W        W 6103  13.806  31.039  11.542
34378W        W 6104  37.153  19.377  14.791
34379W        W 6105  16.497  34.398  11.093
34380W        W 6106  21.694   4.464  10.487
34381W        W 6107  41.642  36.521  14.037
34382W        W 6108  42.306   9.891   1.176
34383W        W 6109  24.245  24.990  14.958
34384W        W 6110  15.391  36.339  13.465
34385W        W 6111   9.533  24.808  10.686
34386W        W 6112  11.350  29.789  11.600
34387W        W 6113   4.859  32.848   1.294
34388W        W 6114  13.331  30.155  11.682
34389W        W 6115  35.905  41.396   2.839
34390W        W 6116  22.902  14.030  12.950
34391W        W 6117  10.428  38.070  10.912
34392W        W 6118  29.299  21.118  12.997
34393W        W 6119  34.315  39.998   0.857
34394W        W 6120  23.536   3.845  12.723
34395W        W 6121  15.377  14.604  11.508
34396W        W 6122  15.069   4.678  11.442
34397W        W 6123   7.411  15.307   2.412
34398W        W 6124  17.866  19.108  10.614
34399W        W 6125  26.011  25.031   1.410
34400W        W 6126  41.741  39.917  10.163
34401W        W 6127  42.255  16.625  11.532
34402W        W 6128  40.084  21.313   1.331
34403W        W 6129  15.700  32.676  13.865
34404W        W 6130   9.952   4.218  13.784
34405W        W 6131  24.157  37.860   0.292
34406W        W 6132  44.643  42.010  13.224
34407W        W 6133  20.044  22.118   0.668
34408W        W 6134  43.687  27.470   2.784
34409W        W 6135  23.501  30.110  14.492
34410W        W 6136  23.160  37.168   3.061
34411W        W 6137  35.526   5.271  12.505
34412W        W 6138  20.125  23.287  11.223
34413W        W 6139  34.090   7.839  14.394
34414W        W 6140   0.270  18.615  13.510
34415W        W 6141  17.791  33.151   3.083
34416W        W 6142  37.275  44.431   1.351
34417W        W 6143  38.508   4.152  14.302
34418W        W 6144  18.729   4.734   4.087
34419W        W 6145  27.558  36.999   3.216
34420W        W 6146  36.270  28.983   3.797
34421W        W 6147   9.840  34.350   2.760
34422W        W 6148  39.350   3.212  14.698
34423W        W 6149  21.722  30.875  10.628
34424W        W 6150  27.845  18.818  14.884
34425W        W 6151  33.899  25.419  11.042
34426W        W 6152  15.238   7.830  13.121
34427W        W 6153  39.963  38.861  11.200
34428W        W 6154  23.636  42.324  12.411
34429W        W 6155  42.863  40.315  12.904
34430W        W 6156   7.100  16.592   2.210
34431W        W 6157  33.077  32.350   0.915
34432W        W 6158  22.283   2.895  14.804
34433W        W 6159   8.245  21.942  11.461
34434W        W 6160  28.527  43.555  13.966
34435W        W 6161  37.962  28.832  11.090
34436W        W 6162  23.176  21.997  13.441
34437W        W 6163   6.222   7.629   1.245
34438W        W 6164  30.175  16.331  12.061
34439W        W 6165  15.856  36.899   1.161
34440W        W 6166   4.488  42.082  14.680
34441W        W 6167  21.769  27.024  12.733
34442W        W 6168  19.262   9.209  12.606
34443W        W 6169  25.608  16.079  11.021
34444W        W 6170  34.343  35.388   3.794
34445W        W 6171  26.028  22.018   2.106
34446W        W 6172  24.585   8.358  14.867
34447W        W 6173  44.327  15.412   0.373
34448W        W 6174  22.577  19.777   1.797
34449W        W 6175  16.950  28.592  13.981
34450W        W 6176   4.171  42.352  14.383
34451W        W 6177  31.539  15.869  10.378
34452W        W 6178  16.279   4.837  14.270
34453W        W 6179  10.890   6.265   0.867
34454W        W 6180  33.449  30.255   1.376
34455W        W 6181  26.003  39.692  11.763
34456W        W 6182  39.829   8.352   3.072
34457W        W 6183  30.637  14.400  11.473
34458W        W 6184  43.775  20.271   2.758
34459W        W 6185  41.465   0.384  13.055
34460W        W 6186  22.623  31.171   4.170
34461W        W 6187  37.547  19.733  13.280
34462W        W 6188  37.612  29.115  13.351
34463W        W 6189  16.696  44.417  11.666
34464W        W 6190  35.401  26.924  11.924
34465W        W 6191  20.595  36.107  13.780
34466W        W 6192  31.012  40.774  13.062
34467W        W 6193  32.909   5.918   0.100
34468W        W 6194  34.499   9.446  12.590
34469W        W 6195  44.427  28.530   0.186
34470W        W 6196  38.075   8.224   1.652
34471W        W 6197  37.521  28.667   0.376
34472W        W 6198   6.438  32.063   2.632
34473W        W 6199  27.921  26.479  14.449
34474W        W 6200  13.896  40.738  14.265
34475W        W 6201  44.586   9.519  13.573
34476W        W 6202   2.550  21.626   0.394
34477W        W 6203  31.648   4.308  13.052
34478W        W 6204  36.478  29.569  14.222
34479W        W 6205   9.919  35.854  10.859
34480W        W 6206   2.704   8.744  12.450
34481W        W 6207   3.410  26.689   3.732
34482W        W 6208  20.463   2.774  12.318
34483W        W 6209  37.593  39.387   1.286
34484W        W 6210  16.657  42.272  14.785
34485W        W 6211   5.273  44.820  13.491
34486W        W 6212  32.120  40.343   0.840
34487W        W 6213  36.855  42.763   4.193
34488W        W 6214  19.197  17.810  12.042
34489W        W 6215  27.766   4.741  11.143
34490W        W 6216   0.455  21.964  13.867
34491W        W 6217  16.054  26.504  12.866
34492W        W 6218  18.909  42.552   2.815
34493W        W 6219  26.518  17.983  12.399
34494W        W 6220  18.075  22.782   4.923
34495W        W 6221  37.568  19.688  14.735
34496W        W 6222   1.124  23.899  12.210
34497W        W 6223   4.693  18.805   1.927
34498W        W 6224  12.321  14.119  10.800
34499W        W 6225  34.865  19.130   1.988
34500W        W 6226   1.203   8.659   2.906
34501W        W 6227  28.707  31.506  13.050
34502W        W 6228  21.295  37.569  14.370
34503W        W 6229  42.746  29.344  14.370
34504W        W 6230  16.180  44.505   2.176
34505W        W 6231  10.906  37.476   1.780
34506W        W 6232  28.055  16.501  10.825
34507W        W 6233   0.840  24.233   4.380
34508W        W 6234   2.319   1.818   4.622
34509W        W 6235  10.120  24.936   4.647
34510W        W 6236   9.897  30.676   4.817
34511W        W 6237  41.550   4.443  11.861
34512W        W 6238  35.002  26.170   3.689
34513W        W 6239  31.035  16.076  10.442
34514W        W 6240   9.759  39.503   4.914
34515W        W 6241  33.512  44.931  11.035
34516W        W 6242   9.712  18.060  14.377
34517W        W 6243  14.120  39.588   0.544
34518W        W 6244  44.429  18.048   1.418
34519W        W 6245  32.634  18.194  10.518
34520W        W 6246  44.449  36.554   2.690
34521W        W 6247  41.445  18.956   2.711
34522W        W 6248   1.964  29.593  13.896
34523W        W 6249  31.544  31.412   3.159
34524W        W 6250  28.165  12.166   1.602
34525W        W 6251  18.585  41.189  12.088
34526W        W 6252  37.052   2.384  11.160
34527W        W 6253   4.718  15.420  10.865
34528W        W 6254   4.841  15.828   0.291
34529W        W 6255  28.191  28.018  12.503
34530W        W 6256  35.606  13.761  12.498
34531W        W 6257  27.714  40.603   4.277
34532W        W 6258   8.460  24.405   2.782
34533W        W 6259  24.501  15.684  14.945
34534W        W 6260   0.742  28.503   3.621
34535W        W 6261  13.683   5.371   4.556
34536W        W 6262   1.671  44.643  10.242
34537W        W 6263  10.082   9.835  14.720
34538W        W 6264  21.165  15.736  10.924
34539W        W 6265  16.180  22.064   4.654
34540W        W 6266  17.659  19.318   2.911
34541W        W 6267  29.192   6.205   2.732
34542W        W 6268  12.445  15.329  11.197
34543W        W 6269  22.880  38.670   2.987
34544W        W 6270   1.690  36.480   2.214
34545W        W 6271  39.320  34.557  13.428
34546W        W 6272  28.312   9.353  13.075
34547W        W 6273   3.319  22.711   0.889
34548W        W 6274  27.225  18.297   3.182
34549W        W 6275  32.152  23.093  12.999
34550W        W 6276   4.779  33.625   1.717
34551W        W 6277  27.764   8.357  11.087
34552W        W 6278   5.007   6.775  14.773
34553W        W 6279  21.582  35.424  10.748
34554W        W 6280  13.363  40.762   1.597
34555W        W 6281  23.040   1.193  10.722
34556W        W 6282  44.032  35.364   4.058
34557W        W 6283   0.051  12.707   1.499
34558W        W 6284  24.209   4.843   4.500
34559W        W 6285  41.943   4.797   1.779
34560W        W 6286  29.511  41.868   1.711
34561W        W 6287  40.438  33.138  14.270
34562W        W 6288   6.681   0.362   4.661
34563W        W 6289  39.590  39.601   4.318
34564W        W 6290  13.763   4.169  14.967
34565W        W 6291  35.308  17.179   2.186
34566W        W 6292  13.213  15.380  11.559
34567W        W 6293  23.996  13.209   4.235
34568W        W 6294  42.872   0.613  14.487
34569W        W 6295   9.414   4.322  12.968
34570W        W 6296   4.248  17.696   0.287
34571W        W 6297  38.623  44.956  14.049
34572W        W 6298  34.322   5.728   4.332
34573W        W 6299  35.397  31.135   2.693
34574W        W 6300  18.796  13.350   2.304
34575W        W 6301  33.286   6.208   1.185
34576W        W 6302   7.709  12.639  11.147
34577W        W 6303  40.888   7.656  10.438
34578W        W 6304  17.839  43.365  11.419
34579W        W 6305  29.938   7.008   1.869
34580W        W 6306  19.243  30.021   2.726
34581W        W 6307  26.721  18.535   4.043
34582W        W 6308  42.078   4.732  13.433
34583W        W 6309  32.109  43.846   0.252
34584W        W 6310  30.070  17.017   1.001
34585W        W 6311  30.580  33.660  10.493
34586W        W 6312  18.887  19.684   1.155
34587W        W 6313   5.008  20.561  13.846
34588W        W 6314  13.786  21.626  13.983
34589W        W 6315  11.098   6.377  13.603
34590W        W 6316  20.071  28.148   0.371
34591W        W 6317   4.863  25.804  14.081
34592W        W 6318  24.001   2.805  12.063
34593W        W 6319   2.890  29.803   3.901
34594W        W 6320  17.042  38.055  14.107
34595W        W 6321  38.114  18.322   3.804
34596W        W 6322  41.430  10.131   2.333
34597W        W 6323  35.531  19.553  13.778
34598W        W 6324  31.334  42.995   0.361
34599W        W 6325   9.187  20.058   3.298
34600W        W 6326   0.968  35.323  11.481
34601W        W 6327  12.129  20.064  14.987
34602W        W 6328  16.775   1.178   0.933
34603W        W 6329  42.843  14.555   4.159
34604W        W 6330  24.643   0.823   3.652
34605W        W 6331   4.244   5.879  13.557
34606W        W 6332   8.151  12.871   0.240
34607W        W 6333  14.475   2.560   2.817
34608W        W 6334  28.496  34.397   1.281
34609W        W 6335   8.371  16.689  12.495
34610W        W 6336  17.112   0.269   0.784
34611W        W 6337   3.804  29.094   9.865
34612W        W 6338  29.170  28.864   2.793
34613W        W 6339  38.588  16.271  12.544
34614W        W 6340  42.915  41.804   0.862
34615W        W 6341   0.404  23.254   3.652
34616W        W 6342  40.709  18.468  11.975
34617W        W 6343  32.285  12.910   4.201
34618W        W 6344  20.187  28.879  14.731
34619W        W 6345  17.661  33.088   1.737
34620W        W 6346  10.856  41.816  12.090
34621W        W 6347   0.428  15.437  12.882
34622W        W 6348  15.676  28.998   3.566
34623W        W 6349  36.042   5.493  11.100
34624W        W 6350   7.677   2.344   0.434
34625W        W 6351  38.315  42.538  13.765
34626W        W 6352  14.018  13.907  12.932
34627W        W 6353  29.433  20.466  12.465
34628W        W 6354   5.858  29.588   2.602
34629W        W 6355  29.625  17.854   4.005
34630W        W 6356  24.708  39.470   2.411
34631W        W 6357   4.512   6.226  12.457
34632W        W 6358  25.457  17.760  11.617
34633W        W 6359  30.000  44.472   5.070
34634W        W 6360   0.456  30.665  12.076
34635W        W 6361   0.687   9.125   1.738
34636W        W 6362  23.519  29.196   3.166
34637W        W 6363  22.425  18.263   3.344
34638W        W 6364  25.111   7.864   3.627
34639W        W 6365  40.482  35.524  11.617
34640W        W 6366  16.290  23.139  12.647
34641W        W 6367  23.608  44.793   4.000
34642W        W 6368  43.737   2.968   0.408
34643W        W 6369  39.843  38.376   3.731
34644W        W 6370  28.331  40.179   3.777
34645W        W 6371  31.049  22.681  13.553
34646W        W 6372  25.124  39.329   0.901
34647W        W 6373  39.081  33.651  11.866
34648W        W 6374  41.812  40.340   0.250
34649W        W 6375   2.993   2.349  10.929
34650W        W 6376  13.843  17.585   2.887
34651W        W 6377  26.751  35.126  12.810
34652W        W 6378  43.043  19.294  11.034
34653W        W 6379  22.348  37.058   4.847
34654W        W 6380  40.593  25.541  11.906
34655W        W 6381   6.818  29.049   4.026
34656W        W 6382  14.364  35.840   2.245
34657W        W 6383  36.075  22.635  11.207
34658W        W 6384  31.402   5.299  14.019
34659W        W 6385  41.962  25.078   0.773
34660W        W 6386  23.266  31.471   3.311
34661W        W 6387  39.652  30.227   2.142
34662W        W 6388  31.456  12.105   3.830
34663W        W 6389  24.922  26.581   3.174
34664W        W 6390  23.632  37.422   2.902
34665W        W 6391  32.378  41.358   0.402
34666W        W 6392  35.387   4.402  14.872
34667W        W 6393  39.734  33.963  11.106
34668W        W 6394  21.387   6.698   1.072
34669W        W 6395  33.175  18.005   4.322
34670W        W 6396  44.232  34.938   4.274
34671W        W 6397  39.461  17.833   0.446
34672W        W 6398  18.113  21.165   0.715
34673W        W 6399  44.014  41.446  11.710
34674W        W 6400  35.607  36.806   3.678
34675W        W 6401  36.002  22.156  11.584
34676W        W 6402  12.260   0.051  11.582
34677W        W 6403   7.248  27.428   3.763
34678W        W 6404  28.191   8.887  12.501
34679W        W 6405   2.469  33.376   0.196
34680W        W 6406  33.089  24.156  14.851
34681W        W 6407  13.337   2.876   1.193
34682W        W 6408   8.280  38.369   3.177
34683W        W 6409  28.820  21.872   3.296
34684W        W 6410  10.493  30.646   4.791
34685W        W 6411  11.906  33.016  12.074
34686W        W 6412  43.291  33.684  11.079
34687W        W 6413  39.029  16.337   1.714
34688W        W 6414  29.577  41.261  11.034
34689W        W 6415  39.226  32.145  14.410
34690W        W 6416  37.356  31.474  13.515
34691W        W 6417  23.721  25.025  12.368
34692W        W 6418  15.813  42.954   0.692
34693W        W 6419  26.270  17.196   3.529
34694W        W 6420  32.937  28.374   2.364
34695W        W 6421   9.988  40.534  11.586
34696W        W 6422  26.084  19.519   2.540
34697W        W 6423  24.088  28.161  14.347
34698W        W 6424  11.914  31.409  14.488
34699W        W 6425  25.428  40.776  10.754
34700W        W 6426  26.590   9.170   4.549
34701W        W 6427  33.004  35.351   4.341
34702W        W 6428  19.250   8.152  12.407
34703W        W 6429   0.947   4.778  11.611
34704W        W 6430  15.058  33.053   0.003
34705W        W 6431  22.465  28.983   1.215
34706W        W 6432  18.841  32.220   1.404
34707W        W 6433  36.803  38.334   3.632
34708W        W 6434  34.615  43.837  13.858
34709W        W 6435  14.274  20.043   1.932
34710W        W 6436  41.541  21.049  10.378
34711W        W 6437  17.201   5.248   4.796
34712W        W 6438  38.933  20.796  14.634
34713W        W 6439  33.601  10.427   2.820
34714W        W 6440  41.559  32.705   0.509
34715W        W 6441  22.486  42.432  10.321
34716W        W 6442  36.026  40.401  10.691
34717W        W 6443  19.557  26.619   0.085
34718W        W 6444   4.844   6.221   2.865
34719W        W 6445  44.843   3.807   1.320
34720W        W 6446  34.013   7.472   2.337
34721W        W 6447  26.941   3.860   4.625
34722W        W 6448   7.399  40.332   0.712
34723W        W 6449   0.509   9.247  13.563
34724W        W 6450  25.388   0.584   0.950
34725W        W 6451  42.089   8.758  13.071
34726W        W 6452  30.563  41.381   4.582
34727W        W 6453   1.632   3.055  13.516
34728W        W 6454  23.544  20.489  13.572
34729W        W 6455   8.369  37.987  10.564
34730W        W 6456  32.408  11.979   3.274
34731W        W 6457  36.358  41.400  13.460
34732W        W 6458  31.387  28.460  13.988
34733W        W 6459  13.045  20.507   1.811
34734W        W 6460  14.310  18.814   1.477
34735W        W 6461  26.235  43.842  12.897
34736W        W 6462   3.255  27.918   0.523
34737W        W 6463  14.096  26.583   4.681
34738W        W 6464   9.175  12.363   1.812
34739W        W 6465  41.457  26.218  13.574
34740W        W 6466  25.159  37.793   3.376
34741W        W 6467   4.029  34.463  14.979
34742W        W 6468  23.489   9.376  13.464
34743W        W 6469   1.157  35.396  11.968
34744W        W 6470  44.755  33.486  13.388
34745W        W 6471  38.592  31.169   2.503
34746W        W 6472  15.743  10.894  12.057
34747W        W 6473  44.748  40.298  14.453
34748W        W 6474  16.056  41.561  12.139
34749W        W 6475  28.706  33.165   4.130
34750W        W 6476  38.282   2.262   4.243
34751W        W 6477   2.400  26.967  12.938
34752W        W 6478   2.530  36.934  12.071
34753W        W 6479   9.913  37.346   1.995
34754W        W 6480   3.933  13.794  10.052
34755W        W 6481  25.518  21.548  12.588
34756W        W 6482   6.859  42.593   3.212
34757W        W 6483  28.167  25.622  10.901
34758W        W 6484   4.697  38.332  13.989
34759W        W 6485   1.882  44.446   4.105
34760W        W 6486  44.582  23.680  12.028
34761W        W 6487   1.229  17.163  13.607
34762W        W 6488   2.780   3.181  10.196
34763W        W 6489  11.467  43.327   4.071
34764W        W 6490  13.791  37.424   4.981
34765W        W 6491  16.865  22.661   4.139
34766W        W 6492  20.647  29.878   0.443
34767W        W 6493  31.890  44.190   0.605
34768W        W 6494  19.895  26.496   4.576
34769W        W 6495  40.646  18.094  11.594
34770W        W 6496  36.397  24.791  12.079
34771W        W 6497  39.592  31.995   2.613
34772W        W 6498  20.156  40.569  13.951
34773W        W 6499  12.410  28.477   4.046
34774W        W 6500   0.776  13.360  13.217
34775W        W 6501   3.191  19.421   2.237
34776W        W 6502   3.053   4.250  12.852
34777W        W 6503  18.543  16.817   3.203
34778W        W 6504  19.619   7.777  14.064
34779W        W 6505  39.335  36.537  13.526
34780W        W 6506  10.342  32.146   2.482
34781W        W 6507  22.032  10.283  14.467
34782W        W 6508  19.070  20.708  11.929
34783W        W 6509  28.980   6.334   1.374
34784W        W 6510  25.658   4.520  14.786
34785W        W 6511  14.288  44.910   0.595
34786W        W 6512   7.969  39.304  12.975
34787W        W 6513  14.646  21.367  10.306
34788W        W 6514  13.681  23.093  11.386
34789W        W 6515   4.706  10.953  11.465
34790W        W 6516   4.517   8.458   3.518
34791W        W 6517  31.041   7.616   3.098
34792W        W 6518  40.500  42.063   1.915
34793W        W 6519  37.260  37.658  12.945
34794W        W 6520  20.596  11.607   3.724
34795W        W 6521  10.831   1.448   2.638
34796W        W 6522  25.598  31.214  14.356
34797W        W 6523   5.036  36.146  13.597
34798W        W 6524   2.767   9.884  11.570
34799W        W 6525  32.491  15.242  13.354
34800W        W 6526   8.737  19.091  12.944
34801W        W 6527  19.162   0.887  12.079
34802W        W 6528   6.446  28.006  11.646
34803W        W 6529  32.427   1.327  13.599
34804W        W 6530  10.393  20.683   0.275
34805W        W 6531   2.548  41.946  11.449
34806W        W 6532   5.877  32.339   4.088
34807W        W 6533   9.771  44.016  12.920
34808W        W 6534  13.141  32.512   0.989
34809W        W 6535  38.983  18.393  13.159
34810W        W 6536  41.473  11.529  13.546
34811W        W 6537  23.472  23.576  13.879
34812W        W 6538  23.732   0.591   1.838
34813W        W 6539  28.667   1.242   1.482
34814W        W 6540  29.400   6.415  13.765
34815W        W 6541  17.681  24.331  11.156
34816W        W 6542  33.289  11.721   4.086
34817W        W 6543  10.306   5.207   0.310
34818W        W 6544  31.496   1.844   2.260
34819W        W 6545  38.326  29.952  11.671
34820W        W 6546  10.141   4.561   4.116
34821W        W 6547  22.364  37.989  12.023
34822W        W 6548  33.966  25.023   0.711
34823W        W 6549  10.781   1.965  13.081
34824W        W 6550  42.537  39.933   0.861
34825W        W 6551  43.990  21.953   0.416
34826W        W 6552  22.569  17.048  10.680
34827W        W 6553  10.861  22.526   1.142
34828W        W 6554  12.610  16.769   4.563
34829W        W 6555   1.225  27.234  10.519
34830W        W 6556  33.035  42.257   2.983
34831W        W 6557  33.700   8.831   0.326
34832W        W 6558  30.408  14.100   2.629
34833W        W 6559  30.243  26.732  12.522
34834W        W 6560  15.224  35.724   3.076
34835W        W 6561   7.763  13.627   1.904
34836W        W 6562  40.028  29.427  10.487
34837W        W 6563  24.212  12.166   4.330
34838W        W 6564  23.461  33.626  12.528
34839W        W 6565  41.493  41.291   3.791
34840W        W 6566  19.228  18.966  10.701
34841W        W 6567  41.888  30.129   2.843
34842W        W 6568  13.358  13.244  12.927
34843W        W 6569  11.894  20.626  10.386
34844W        W 6570  13.324  37.306   3.301
34845W        W 6571  24.012  41.376  10.716
34846W        W 6572  34.867  32.159   1.978
34847W        W 6573  36.963   0.892   3.148
34848W        W 6574  24.390  43.738   2.682
34849W        W 6575  26.695   5.499  11.551
34850W        W 6576  11.858  31.087   2.964
34851W        W 6577  26.537   6.845   3.658
34852W        W 6578  30.502  42.758   2.786
34853W        W 6579  43.280  19.563  12.918
34854W        W 6580  40.516   9.359   3.350
34855W        W 6581  41.978  12.390  11.571
34856W        W 6582  12.413   4.363  13.000
34857W        W 6583   8.411  13.589  14.774
34858W        W 6584  39.102  11.688  10.604
34859W        W 6585   9.189  23.266   0.343
34860W        W 6586  23.124  38.386   1.267
34861W        W 6587   0.709  25.379  14.299
34862W        W 6588  38.100  30.628   2.659
34863W        W 6589  38.009  25.781  11.516
34864W        W 6590   2.872  43.064  12.508
34865W        W 6591  15.509  21.318   1.802
34866W        W 6592  26.516  44.469   1.780
34867W        W 6593  14.856   4.894   0.035
34868W        W 6594   1.924  34.968   2.686
34869W        W 6595   8.108   3.021  11.547
34870W        W 6596  41.543  37.439   4.568
34871W        W 6597  24.921  23.778   4.119
34872W        W 6598  16.542  44.842  11.924
34873W        W 6599  34.001  23.212  11.977
34874W        W 6600  31.982  34.657  12.257
34875W        W 6601   2.123  14.371   4.339
34876W        W 6602  37.411  29.969  12.391
34877W        W 6603  24.110   9.440   1.026
34878W        W 6604  17.769   6.016   3.250
34879W        W 6605  25.438  31.664   0.303
34880W        W 6606  29.476  27.736  13.575
34881W        W 6607  26.713  25.568  11.496
34882W        W 6608  41.021  44.240   0.823
34883W        W 6609   4.725  33.450   4.722
34884W        W 6610   1.366  41.477  11.107
34885W        W 6611  44.500  38.410   4.546
34886W        W 6612  11.535   5.955  11.705
34887W        W 6613  41.595   8.321   0.934
34888W        W 6614  35.420  17.468  11.092
34889W        W 6615  15.783  39.862   0.442
34890W        W 6616  15.907  33.645   0.468
34891W        W 6617  24.645  34.106   2.728
34892W        W 6618  17.956   5.959   4.080
34893W        W 6619  33.449  20.193   3.410
34894W        W 6620  44.514   3.440  13.976
34895W        W 6621  42.291  18.315   3.723
34896W        W 6622  13.813  28.234   4.029
34897W        W 6623   8.074  13.554  14.388
34898W        W 6624  14.753   9.339  11.471
34899W        W 6625  13.814  11.172  13.501
34900W        W 6626   6.902  39.502   3.656
34901W        W 6627   9.326  23.935   4.177
34902W        W 6628  18.307  38.730  10.205
34903W        W 6629  28.401  12.728  12.058
34904W        W 6630  24.992  14.220  13.262
34905W        W 6631   3.919  13.275   0.731
34906W        W 6632  29.059  21.253   0.040
34907W        W 6633  38.654   1.209  13.433
34908W        W 6634   6.572  14.605   3.074
34909W        W 6635  13.422  13.627   1.907
34910W        W 6636  14.758  28.112   2.584
34911W        W 6637  24.255   1.804   3.560
34912W        W 6638   1.000  42.134   1.436
34913W        W 6639   2.759  18.104  10.357
34914W        W 6640  30.136  21.786   2.202
34915W        W 6641   1.312   0.772  13.447
34916W        W 6642  43.428  28.252  14.473
34917W        W 6643  26.901  39.990   2.712
34918W        W 6644   5.474   2.877  10.835
34919W        W 6645  31.240  37.351   4.656
34920W        W 6646  19.143   6.745  14.192
34921W        W 6647   5.901  25.124   3.269
34922W        W 6648  33.789  36.376  12.457
34923W        W 6649  25.381  24.572   1.863
34924W        W 6650  19.483  25.247   0.445
34925W        W 6651  13.127  42.039   4.132
34926W        W 6652  36.906  37.851   1.313
34927W        W 6653  31.081   8.869  11.473
34928W        W 6654  32.377  10.257   3.876
34929W        W 6655   0.533  26.253   4.524
34930W        W 6656  19.177  32.615  12.012
34931W        W 6657  31.153  14.252   2.916
34932W        W 6658  44.328  28.573   4.197
34933W        W 6659  40.118  23.936   4.094
34934W        W 6660  35.622  38.434  10.750
34935W        W 6661  12.910  12.455  13.878
34936W        W 6662  25.945  36.598  14.401
34937W        W 6663  34.079  33.539   2.117
34938W        W 6664   3.995   8.695   2.938
34939W        W 6665   7.823   9.071  11.155
34940W        W 6666  38.051  24.123   4.128
34941W        W 6667  34.937  18.869  12.000
34942W        W 6668   2.026   9.678   0.405
34943W        W 6669  39.861  40.905  11.906
34944W        W 6670  18.017  22.886  13.889
34945W        W 6671  18.529  13.616   0.830
34946W        W 6672   1.142  37.225  12.067
34947W        W 6673  39.105  20.456  14.985
34948W        W 6674  20.901  27.776  14.896
34949W        W 6675  27.875   3.815   0.655
34950W        W 6676  27.210  24.495   3.344
34951W        W 6677  40.332  36.187   4.107
34952W        W 6678  38.345  13.705   2.202
34953W        W 6679   3.738  33.156   3.376
34954W        W 6680  28.763  36.365   4.657
34955W        W 6681   8.024  30.002   1.695
34956W        W 6682   9.702  29.007  14.847
34957W        W 6683  12.630  30.648  14.363
34958W        W 6684  24.220  20.591  14.015
34959W        W 6685   6.832  41.091   1.472
34960W        W 6686   8.747  38.067  13.332
34961W        W 6687   0.580  24.370   2.643
34962W        W 6688  19.819  31.609   2.603
34963W        W 6689  26.160  18.619   0.903
34964W        W 6690   5.642  21.536   4.605
34965W        W 6691  20.626   1.880  14.347
34966W        W 6692   2.449   1.839  10.708
34967W        W 6693  36.663  18.340   0.254
34968W        W 6694  36.811  30.147   3.374
34969W        W 6695   4.276   9.358  13.471
34970W        W 6696   9.167  10.183   4.605
34971W        W 6697  17.583  25.407   4.694
34972W        W 6698  22.573  40.726   2.919
34973W        W 6699  26.025  14.451   5.054
34974W        W 6700  18.686  41.347   3.290
34975W        W 6701  31.900  28.581  10.681
34976W        W 6702  35.301  22.658  13.741
34977W        W 6703  22.679   6.746   1.385
34978W        W 6704  37.817  43.839  11.084
34979W        W 6705  24.675  41.483  12.647
34980W        W 6706  24.948  15.214   3.229
34981W        W 6707  28.583  14.209  11.847
34982W        W 6708  42.262   9.288   0.038
34983W        W 6709   6.689  37.974   4.622
34984W        W 6710  18.966  19.738  11.939
34985W        W 6711  28.950   1.941  11.560
34986W        W 6712   2.676   3.020  12.570
34987W        W 6713  27.530  15.295   0.727
34988W        W 6714  27.527  10.405  12.245
34989W        W 6715  10.706  44.511  13.958
34990W        W 6716  22.002  41.382  13.052
34991W        W 6717   9.593   8.236  12.989
34992W        W 6718   9.280  34.037  10.678
34993W        W 6719   1.250  29.611  13.462
34994W        W 6720  43.321  36.289  14.781
34995W        W 6721  42.875  11.860   3.633
34996W        W 6722  21.800  16.816  11.689
34997W        W 6723  13.051  37.535  14.016
34998W        W 6724  32.230  27.562  14.574
34999W        W 6725  25.203  14.701  14.081
35000W        W 6726  38.770  31.207  12.499
35001W        W 6727  40.304  13.671  10.627
35002W        W 6728  30.914  28.327   1.536
35003W        W 6729  42.816  31.892   5.057
35004W        W 6730  44.376   2.388  10.569
35005W        W 6731  25.079   5.667  14.376
35006W        W 6732   8.646  30.547   1.989
35007W        W 6733  33.112  25.718  13.918
35008W        W 6734   1.853   0.968   4.810
35009W        W 6735  16.842  20.936   3.219
35010W        W 6736  20.743  28.469  14.095
35011W        W 6737  41.549   1.282  13.981
35012W        W 6738  25.230  21.026  12.373
35013W        W 6739  35.406  44.842   3.669
35014W        W 6740  43.818  39.085  12.470
35015W        W 6741  11.089  24.557   2.697
35016W        W 6742  30.177  10.719   4.046
35017W        W 6743  36.950  35.888  14.525
35018W        W 6744  21.170  32.181   4.262
35019W        W 6745  40.984  13.245   0.508
35020W        W 6746  16.368  42.228   1.901
35021W        W 6747  32.910  26.544  14.478
35022W        W 6748  37.308   3.918   4.184
35023W        W 6749   9.192   2.849  14.216
35024W        W 6750  36.928  39.373   1.972
35025W        W 6751  20.725   3.891  13.385
35026W        W 6752  18.500   2.080  12.971
35027W        W 6753  12.359  38.483  12.903
35028W        W 6754  18.128  14.848  12.487
35029W        W 6755  25.161  41.035  11.146
35030W        W 6756  43.682   1.013  11.401
35031W        W 6757  16.201  42.081  13.004
35032W        W 6758  36.292   0.906  11.612
35033W        W 6759  36.879  22.680  10.776
35034W        W 6760  28.879   7.149   1.729
35035W        W 6761  21.335   5.212  11.800
35036W        W 6762  20.625  20.640   0.093
35037W        W 6763  34.833  36.087  13.376
35038W        W 6764  26.267  13.693   2.320
35039W        W 6765  26.196  21.508  12.032
35040W        W 6766  31.009  18.374   2.513
35041W        W 6767   0.499  28.567   1.002
35042W        W 6768   9.638   0.568  14.420
35043W        W 6769  23.606  27.148  12.008
35044W        W 6770  40.507  16.037  13.919
35045W        W 6771  43.508   8.802   4.554
35046W        W 6772   6.724  28.169   4.037
35047W        W 6773  30.488  33.002   0.479
35048W        W 6774  31.201  19.526  14.154
35049W        W 6775  15.669  34.928   0.431
35050W        W 6776  39.028  44.222  11.959
35051W        W 6777  15.491  10.231  10.794
35052W        W 6778   1.790  44.746  14.269
35053W        W 6779  10.400  15.350  11.506
35054W        W 6780  24.062   2.789  13.526
35055W        W 6781  43.531  27.568   1.814
35056W        W 6782  24.851  21.351   1.155
35057W        W 6783  35.027  26.606  13.117
35058W        W 6784  36.639   9.066  11.221
35059W        W 6785  34.118  19.186  10.661
35060W        W 6786  44.452  22.889  10.679
35061W        W 6787  21.790  40.576   3.750
35062W        W 6788   4.757   2.353   4.048
35063W        W 6789  13.376  12.947  13.371
35064W        W 6790  34.489  36.561   3.242
35065W        W 6791  26.682  27.714   1.303
35066W        W 6792  38.879   1.579   0.855
35067W        W 6793  45.000  41.959   4.251
35068W        W 6794  42.358   2.024  11.704
35069W        W 6795  16.125  11.131   2.805
35070W        W 6796  15.902  39.845   4.519
35071W        W 6797  26.083  29.553  10.775
35072W        W 6798  13.512   2.407   0.965
35073W        W 6799  22.103  21.059  10.330
35074W        W 6800   1.261   3.904  10.437
35075W        W 6801  10.689  10.627   3.907
35076W        W 6802   3.210   8.299  13.227
35077W        W 6803  36.490  43.606  11.839
35078W        W 6804  10.275  16.757   4.184
35079W        W 6805  27.149  31.393  14.632
35080W        W 6806  40.488  30.284  14.744
35081W        W 6807  44.699  13.623   0.404
35082W        W 6808  14.183  43.960  12.528
35083W        W 6809  12.808  21.260   0.845
35084W        W 6810  44.730  12.101   3.665
35085W        W 6811  36.891  12.214  11.656
35086W        W 6812  39.040  30.707  11.592
35087W        W 6813  31.050   8.361  11.520
35088W        W 6814  28.631  36.892   0.901
35089W        W 6815  16.662  33.827   1.186
35090W        W 6816   9.394  15.390   2.632
35091W        W 6817  43.764  41.210   0.780
35092W        W 6818  15.373  17.618   3.954
35093W        W 6819  41.031  24.058  13.351
35094W        W 6820  22.607  42.862  14.322
35095W        W 6821   3.179  35.545   2.792
35096W        W 6822   2.827  35.804   2.126
35097W        W 6823  40.406   7.688   2.373
35098W        W 6824  35.873   2.823  11.915
35099W        W 6825   1.247  38.854  14.780
35100W        W 6826  32.131  23.201   2.344
35101W        W 6827  18.380  27.037  13.847
35102W        W 6828  15.129   6.234  10.695
35103W        W 6829   1.595  14.200   4.356
35104W        W 6830  17.063   5.693   2.335
35105W        W 6831   8.459  18.820   2.140
35106W        W 6832  30.440  14.040   4.042
35107W        W 6833  21.695  18.181   0.850
35108W        W 6834  26.649  30.989   0.748
35109W        W 6835  18.129  23.626   0.871
35110W        W 6836  18.726  31.431   3.957
35111W        W 6837  25.567   7.060  12.990
35112W        W 6838  37.047  20.289  11.164
35113W        W 6839  32.851  11.309   0.582
35114W        W 6840  30.589  27.344  14.832
35115W        W 6841  11.186  41.850   1.377
35116W        W 6842   9.653  42.992   3.596
35117W        W 6843  36.413  12.889   3.386
35118W        W 6844  14.715  35.949  12.954
35119W        W 6845   0.874  31.520  14.950
35120W        W 6846  27.009   9.915  12.113
35121W        W 6847   5.341  41.988  11.689
35122W        W 6848  21.979  38.351  10.539
35123W        W 6849  16.736  37.244   1.172
35124W        W 6850  10.136  27.751   4.259
35125W        W 6851   6.897  36.146  10.993
35126W        W 6852   0.840  23.312  11.150
35127W        W 6853   1.356   9.415  14.031
35128W        W 6854   7.795   4.509  12.693
35129W        W 6855  25.719   2.908  11.384
35130W        W 6856  15.695  29.447  13.287
35131W        W 6857   7.184  39.912   0.482
35132W        W 6858   7.622  34.373   3.803
35133W        W 6859  17.111  31.542  10.097
35134W        W 6860  19.760   1.438   3.689
35135W        W 6861  18.570  38.893  14.920
35136W        W 6862   2.485   6.459   1.614
35137W        W 6863  29.156   6.007  13.989
35138W        W 6864  13.622   9.324   2.282
35139W        W 6865  28.189  16.805  13.472
35140W        W 6866  15.590  23.626   3.350
35141W        W 6867  34.119  37.252   3.647
35142W        W 6868  44.453  25.982   0.375
35143W        W 6869  32.524  15.615  12.405
35144W        W 6870   4.421  43.034  14.188
35145W        W 6871  10.309  38.422  11.248
35146W        W 6872   4.385  33.358  10.121
35147W        W 6873  44.932  44.741  14.373
35148W        W 6874   8.691  43.736  11.543
35149W        W 6875  22.405   8.864  11.356
35150W        W 6876  17.151  21.517   4.093
35151W        W 6877  27.014  37.429  13.537
35152W        W 6878  16.885  33.987  14.931
35153W        W 6879  30.083  19.610   3.481
35154W        W 6880  17.049   0.843  11.210
35155W        W 6881  24.709  36.427  11.378
35156W        W 6882  15.668   4.463  14.301
35157W        W 6883  37.398   6.660   0.775
35158W        W 6884  43.212  11.787   0.256
35159W        W 6885  20.471  16.751   4.135
35160W        W 6886  10.221  17.271   4.786
35161W        W 6887  14.209  11.223  10.610
35162W        W 6888  29.573  34.398  14.925
35163W        W 6889  43.738  44.526   3.256
35164W        W 6890  21.052  18.240   3.313
35165W        W 6891  34.606  41.607  14.985
35166W        W 6892  11.234  31.058   3.776
35167W        W 6893  19.373  16.605   1.291
35168W        W 6894  21.255  20.752   0.737
35169W        W 6895   3.356   5.923  14.077
35170W        W 6896  14.069  42.770  14.790
35171W        W 6897  32.444  32.388  12.848
35172W        W 6898   7.129  17.144   1.864
35173W        W 6899  21.540  43.020   3.170
35174W        W 6900  19.048  36.345  13.871
35175W        W 6901  42.032   9.820   1.788
35176W        W 6902  25.455  34.029  14.195
35177W        W 6903  38.330  17.852   3.163
35178W        W 6904  24.045  16.557  11.791
35179W        W 6905  44.469  23.700   0.795
35180W        W 6906   0.968  21.680  11.407
35181W        W 6907   4.723  26.980   0.321
35182W        W 6908  28.932  23.960   2.746
35183W        W 6909  37.821   6.321   2.677
35184W        W 6910  41.084  10.808   4.068
35185W        W 6911  14.435   5.894   2.815
35186W        W 6912  39.205  41.842  14.837
35187W        W 6913  16.684  16.268   2.868
35188W        W 6914  10.185  38.935   4.603
35189W        W 6915  23.057   2.143   4.083
35190W        W 6916  37.432  33.158   5.079
35191W        W 6917  44.471  21.546  11.669
35192W        W 6918  29.307  40.863   0.983
35193W        W 6919  13.148  25.037   1.453
35194W        W 6920  14.649  35.348   1.769
35195W        W 6921  33.903  21.147   5.050
35196W        W 6922  40.299  16.669  11.534
35197W        W 6923  16.292  16.898   4.051
35198W        W 6924  26.466  18.839   5.034
35199W        W 6925   3.425  36.847   0.803
35200W        W 6926  15.706   9.845   0.277
35201W        W 6927   7.635   4.389   4.857
35202W        W 6928   6.922   9.602   1.934
35203W        W 6929  18.552  11.243  12.961
35204W        W 6930  28.794  40.362   4.001
35205W        W 6931   0.710  12.115   0.969
35206W        W 6932  18.757  27.390   2.385
35207W        W 6933  13.354   2.436   3.784
35208W        W 6934  19.136  39.588   4.026
35209W        W 6935  16.337  30.030   1.167
35210W        W 6936  28.772   9.853  12.351
35211W        W 6937  24.235  21.490  13.991
35212W        W 6938  18.034  18.673  12.212
35213W        W 6939  44.831  20.167  10.869
35214W        W 6940   6.968  11.683   1.234
35215W        W 6941  42.153  43.100  13.771
35216W        W 6942  12.842  26.138  13.895
35217W        W 6943   8.042  10.346   4.548
35218W        W 6944  18.733   3.392   2.323
35219W        W 6945  29.899   0.647  12.826
35220W        W 6946   4.906  15.553  12.510
35221W        W 6947  42.435  27.371   0.440
35222W        W 6948  22.725  27.046  12.850
35223W        W 6949  41.154  13.175  11.124
35224W        W 6950   8.284   9.288  14.050
35225W        W 6951  23.781  29.885   1.857
35226W        W 6952  33.099   7.329   2.406
35227W        W 6953  41.302   6.563  12.929
35228W        W 6954  12.223  10.134  11.970
35229W        W 6955  29.991  22.981  12.007
35230W        W 6956  18.846  12.622  13.837
35231W        W 6957  44.150  22.155   2.298
35232W        W 6958  32.532  27.693   2.704
35233W        W 6959  44.938  24.083   1.506
35234W        W 6960  32.941   7.839   2.199
35235W        W 6961  12.105  35.433  13.826
35236W        W 6962  42.383  10.871   1.199
35237W        W 6963  22.137   3.251  12.459
35238W        W 6964  21.517   6.390   0.666
35239W        W 6965  34.994  23.762   0.724
35240W        W 6966  27.832  23.434  12.934
35241W        W 6967  16.548  19.287   4.792
35242W        W 6968  10.185   7.161   0.460
35243W        W 6969   8.299  26.524   1.785
35244W        W 6970  14.145  20.915   2.707
35245W        W 6971  39.455   9.312   2.268
35246W        W 6972  41.155  38.783  12.822
35247W        W 6973   4.495  18.155   0.852
35248W        W 6974  41.946  43.519  13.433
35249W        W 6975  20.987   0.936   3.463
35250W        W 6976   9.732  34.925  12.006
35251W        W 6977  28.988  21.561   0.801
35252W        W 6978   9.810  39.362  13.411
35253W        W 6979  18.494  39.955  12.434
35254W        W 6980  14.704  44.703  14.882
35255W        W 6981  43.991  28.087   4.646
35256W        W 6982   2.778  14.872   3.562
35257W        W 6983  44.475  18.643   0.848
35258W        W 6984  21.123  13.294   3.309
35259W        W 6985   8.779  19.567  10.573
35260W        W 6986  27.126  11.935  11.214
35261W        W 6987  43.850  36.355   3.337
35262W        W 6988  26.319  28.484   0.298
35263W        W 6989  19.571  10.422   1.664
35264W        W 6990  11.503  35.310  13.989
35265W        W 6991  43.844   9.826   0.279
35266W        W 6992   3.453  29.898  14.432
35267W        W 6993  23.941  40.299  12.457
35268W        W 6994  23.594  22.977  13.449
35269W        W 6995  23.452   6.243   2.365
35270W        W 6996  10.709   2.338   1.251
35271W        W 6997   5.151  34.319   4.025
35272W        W 6998  27.010  18.445   0.911
35273W        W 6999   2.022  20.193   2.579
35274W        W 7000  19.575  10.146   1.227
35275W        W 7001  18.310  26.408   0.953
35276W        W 7002  44.255   2.880  10.713
35277W        W 7003  10.939  37.991   1.904
35278W        W 7004  13.331  42.298  12.950
35279W        W 7005  42.234  33.504  12.516
35280W        W 7006  35.680  12.426   2.110
35281W        W 7007   1.878  19.299  14.262
35282W        W 7008  28.030   6.036  11.156
35283W        W 7009  24.119  22.706  11.573
35284W        W 7010  18.316  31.428  12.628
35285W        W 7011  42.995  37.306   2.428
35286W        W 7012  29.709  15.345   0.331
35287W        W 7013  11.278  11.306  12.993
35288W        W 7014   9.232   3.184   3.249
35289W        W 7015  40.250  30.349   3.594
35290W        W 7016  18.175  21.007   3.132
35291W        W 7017  29.159   3.657   0.293
35292W        W 7018  35.094   5.342  10.755
35293W        W 7019   7.006  10.273   0.904
35294W        W 7020  37.923   4.356   2.655
35295W        W 7021  39.521   2.787  11.607
35296W        W 7022   3.592  37.913   5.052
35297W        W 7023  35.492   3.126  11.696
35298W        W 7024  39.310  41.104  12.454
35299W        W 7025  23.622  15.105   1.853
35300W        W 7026  28.036   2.758  13.337
35301W        W 7027  30.625  21.695  10.717
35302W        W 7028  11.665  39.193   3.809
35303W        W 7029   0.864  35.859  12.462
35304W        W 7030  15.184  38.616  10.564
35305W        W 7031  18.766  42.680  10.390
35306W        W 7032  44.729  11.076  14.483
35307W        W 7033  26.895  42.313  11.397
35308W        W 7034   4.581  14.420   2.111
35309W        W 7035  36.599  15.183   1.167
35310W        W 7036  41.598  19.228   2.270
35311W        W 7037  33.383  16.786   2.917
35312W        W 7038  20.548   1.774   3.244
35313W        W 7039   2.308  38.791  10.619
35314W        W 7040  33.123  18.298   0.340
35315W        W 7041  20.227  33.404   0.361
35316W        W 7042  34.872  12.235   4.598
35317W        W 7043   2.719  38.108  13.357
35318W        W 7044   9.336  23.416  10.676
35319W        W 7045  12.444  39.480  12.918
35320W        W 7046   2.867  28.425   1.283
35321W        W 7047  37.331  13.094   2.376
35322W        W 7048   8.569  41.520  12.317
35323W        W 7049   8.143   9.551   4.127
35324W        W 7050   7.328  39.772  12.210
35325W        W 7051  11.845  33.640   1.864
35326W        W 7052  33.002   5.880   4.211
35327W        W 7053  17.334  10.972  14.396
35328W        W 7054   3.445  38.764  11.483
35329W        W 7055  19.264  27.468   1.350
35330W        W 7056  11.902   2.732  11.733
35331W        W 7057  20.558  29.593   1.817
35332W        W 7058  12.776  19.792  11.591
35333W        W 7059  21.207  21.129  13.403
35334W        W 7060  21.110  42.048  13.531
35335W        W 7061  11.356  29.424  10.633
35336W        W 7062  29.926   0.852   0.120
35337W        W 7063  23.260  13.706   4.347
35338W        W 7064  31.593   6.185   4.617
35339W        W 7065   8.910  10.818  12.221
35340W        W 7066  21.505  44.586  12.313
35341W        W 7067  23.149   7.777   4.909
35342W        W 7068   7.964  22.725   2.221
35343W        W 7069  44.359  30.956  11.748
35344W        W 7070  14.150  22.050   0.386
35345W        W 7071  24.671   1.970   2.597
35346W        W 7072  14.032  25.621   2.298
35347W        W 7073  27.884  38.069  12.602
35348W        W 7074  15.179  18.272   0.436
35349W        W 7075  32.934  36.893   0.274
35350W        W 7076  13.861   1.950   3.229
35351W        W 7077  34.463  43.599   0.325
35352W        W 7078  22.992  26.660  14.834
35353W        W 7079  15.262   0.742   2.908
35354W        W 7080  19.738  23.464  10.949
35355W        W 7081  27.537  32.381  13.895
35356W        W 7082   6.879  18.254  12.070
35357W        W 7083   8.242  39.345  14.266
35358W        W 7084   9.654  10.946   0.967
35359W        W 7085  42.796  43.020  14.492
35360W        W 7086  19.023  17.575   4.178
35361W        W 7087  29.258  13.243   0.773
35362W        W 7088  24.041  40.800   0.416
35363W        W 7089  36.815  35.772   3.303
35364W        W 7090  26.494  19.509   2.871
35365W        W 7091  43.321  42.337   4.740
35366W        W 7092  10.584  28.907   0.977
35367W        W 7093   9.323  11.757   9.982
35368W        W 7094  17.376  26.200   1.149
35369W        W 7095  39.028   9.267   3.309
35370W        W 7096  14.388  40.866  12.033
35371W        W 7097   6.859  14.850   1.146
35372W        W 7098  37.888   4.347   2.129
35373W        W 7099  37.863  31.734  12.518
35374W        W 7100  39.893  23.584  10.901
35375W        W 7101   2.578  44.361   1.636
35376W        W 7102  35.950  32.061   3.413
35377W        W 7103  22.770  23.233  12.463
35378W        W 7104  33.279  15.615  12.015
35379W        W 7105   0.258  21.794   2.748
35380W        W 7106  44.226  16.356   4.658
35381W        W 7107  26.106  14.253   4.230
35382W        W 7108  10.542  41.309   4.919
35383W        W 7109  36.394   8.857   4.273
35384W        W 7110  12.609  18.981  14.560
35385W        W 7111  28.659   8.353  10.697
35386W        W 7112  19.127  10.899   3.265
35387W        W 7113  13.428  18.764   1.181
35388W        W 7114   1.297   5.647  11.963
35389W        W 7115  40.222  25.126  14.799
35390W        W 7116  18.074   0.250  13.688
35391W        W 7117  40.365  43.008   1.748
35392W        W 7118  40.197  43.333   3.383
35393W        W 7119   1.448  39.619   2.006
35394W        W 7120  24.484   2.299  12.746
35395W        W 7121   2.708  32.445   4.779
35396W        W 7122  14.765  14.769   1.947
35397W        W 7123   0.008  39.078   2.245
35398W        W 7124  31.715  30.193  14.800
35399W        W 7125  22.315   9.369  11.122
35400W        W 7126  42.218  37.406  11.118
35401W        W 7127  31.050   7.818   4.113
35402W        W 7128  28.655   7.546   3.896
35403W        W 7129  23.126  11.860   0.364
35404W        W 7130  14.667   0.377  14.342
35405W        W 7131  39.062  34.609   2.257
35406W        W 7132  11.596  31.471   0.846
35407W        W 7133  44.217  12.569   1.801
35408W        W 7134  20.398   0.483   3.430
35409W        W 7135  38.014  26.517   1.322
35410W        W 7136  21.897  36.936  13.747
35411W        W 7137  43.963  15.259   0.866
35412W        W 7138  20.839  18.110   0.508
35413W        W 7139  36.850  29.416   4.718
35414W        W 7140  44.464  29.295  14.370
35415W        W 7141  15.980   6.774   3.124
35416W        W 7142  22.351   4.177   3.636
35417W        W 7143  20.547  39.812   4.629
35418W        W 7144   6.814  39.910  14.317
35419W        W 7145   4.281   0.272   4.650
35420W        W 7146  34.320  13.675   2.826
35421W        W 7147  11.650  14.366   0.893
35422W        W 7148   3.302  38.589  10.640
35423W        W 7149  36.179  27.040  10.636
35424W        W 7150   8.391   8.204  10.739
35425W        W 7151  11.903  12.521   3.960
35426W        W 7152  35.751   5.447   2.733
35427W        W 7153  19.610   1.213   3.216
35428W        W 7154  21.699  13.846   1.384
35429W        W 7155   7.929  30.599  10.740
35430W        W 7156  21.199  37.608  10.771
35431W        W 7157   5.250  22.202  10.722
35432W        W 7158  24.625  37.940   2.354
35433W        W 7159  22.529   1.300  10.679
35434W        W 7160  12.592  14.825  11.323
35435W        W 7161  16.775  37.071  12.109
35436W        W 7162  19.837  41.582  12.906
35437W        W 7163  31.067  22.707   3.587
35438W        W 7164  28.214   5.530  14.134
35439W        W 7165  14.609   9.299  10.466
35440W        W 7166  11.829  17.735   0.750
35441W        W 7167   4.483   2.531  14.825
35442W        W 7168   4.341  17.658   0.815
35443W        W 7169   1.228  11.266   4.752
35444W        W 7170  22.253  31.225   1.365
35445W        W 7171   7.258  39.974   1.963
35446W        W 7172  23.950   1.689  12.842
35447W        W 7173  31.906  15.238  11.137
35448W        W 7174  43.651  26.727   1.303
35449W        W 7175   6.735   1.470  14.917
35450W        W 7176  40.899  34.944  10.619
35451W        W 7177  37.023  27.148   1.494
35452W        W 7178  17.069   1.224  13.075
35453W        W 7179  23.839  22.244  14.073
35454W        W 7180  35.689  28.905  13.370
35455W        W 7181  34.675  22.595  12.539
35456W        W 7182  41.145  38.737  11.048
35457W        W 7183  12.568  10.097  10.975
35458W        W 7184  37.375  39.627   0.860
35459W        W 7185  12.366  20.703  13.618
35460W        W 7186  25.629  37.443  11.519
35461W        W 7187   4.180  41.830   3.602
35462W        W 7188  29.097  38.265   3.685
35463W        W 7189  36.346   6.906  12.011
35464W        W 7190  41.918  15.739  11.709
35465W        W 7191   6.902  19.431   4.732
35466W        W 7192  40.124  42.504   3.342
35467W        W 7193  30.651  24.239  11.044
35468W        W 7194   8.538  25.632  11.230
35469W        W 7195  30.203  18.975   0.989
35470W        W 7196  18.742  11.348   3.154
35471W        W 7197   9.930  44.430  11.589
35472W        W 7198  13.878   9.698  11.522
35473W        W 7199  12.364   0.719   1.859
35474W        W 7200   4.994  30.173  11.139
35475W        W 7201  41.051  12.250   2.286
35476W        W 7202  23.385  13.654   0.770
35477W        W 7203  44.927   0.432   1.459
35478W        W 7204  30.845  41.741   9.717
35479W        W 7205  41.945   4.355   4.292
35480W        W 7206  31.393  12.029  10.032
35481W        W 7207  33.205  12.683  10.481
35482W        W 7208  13.796  12.149  13.795
35483W        W 7209   0.031  35.378  11.627
35484W        W 7210  15.807  44.351  13.031
35485W        W 7211  13.845   4.388  10.603
35486W        W 7212   0.388   8.712   4.747
35487W        W 7213  26.618  34.988  10.599
35488W        W 7214  39.080  22.230  10.143
35489W        W 7215   8.132  11.185   1.302
35490W        W 7216  20.144  43.544   0.343
35491W        W 7217   5.851  20.342   1.691
35492W        W 7218  13.606  16.465   0.332
35493W        W 7219   0.187  44.913   4.191
35494W        W 7220   1.831  44.111  12.022
35495W        W 7221  41.375   0.018  14.403
35496W        W 7222  23.714  23.446  12.546
35497W        W 7223  29.866  37.523  11.573
35498W        W 7224  18.612  27.051   2.745
35499W        W 7225  43.728  32.634  13.022
35500W        W 7226   4.412  33.699   2.886
35501W        W 7227  16.294  11.058  12.862
35502W        W 7228   5.569  39.376  11.827
35503W        W 7229  18.788  32.946   3.134
35504W        W 7230  33.442  44.331   2.925
35505W        W 7231  43.076  33.869  12.517
35506W        W 7232  11.637   2.931  14.491
35507W        W 7233  37.585  26.685   2.319
35508W        W 7234   6.396  27.357  14.017
35509W        W 7235   7.967  44.524   3.742
35510W        W 7236   6.287  32.026  10.294
35511W        W 7237   1.857  15.792  10.807
35512W        W 7238  14.775  26.978   0.783
35513W        W 7239  41.943  11.093   3.134
35514W        W 7240  27.441   5.100  14.554
35515W        W 7241  12.337  29.629   0.264
35516W        W 7242  26.180  41.891   0.590
35517W        W 7243  34.453  13.577  13.535
35518W        W 7244   4.435  31.829   4.878
35519W        W 7245  10.584  18.528   0.766
35520W        W 7246  43.535  32.015   4.455
35521W        W 7247   6.849  10.180  10.930
35522W        W 7248  31.535  35.914  11.152
35523W        W 7249  12.533   1.715  12.401
35524W        W 7250  19.260  27.468  10.755
35525W        W 7251  29.379   9.651   0.664
35526W        W 7252  18.789  16.182  11.046
35527W        W 7253  23.196  44.344   2.335
35528W        W 7254  33.429   5.836  10.205
35529W        W 7255  12.189  31.614  11.309
35530W        W 7256   9.267   6.203  13.875
35531W        W 7257  15.698  13.326   0.882
35532W        W 7258  31.020  16.009  13.481
35533W        W 7259   4.497  40.927   0.232
35534W        W 7260   1.046  34.468   0.074
35535W        W 7261   2.702  25.503   2.212
35536W        W 7262   8.948  10.699  14.006
35537W        W 7263  44.539  10.626   4.799
35538W        W 7264  23.796  11.300  12.464
35539W        W 7265  15.437  25.638  11.585
35540W        W 7266  17.257  27.823  11.532
35541W        W 7267  22.288  25.156   0.693
35542W        W 7268  43.023  26.731   3.235
35543W        W 7269  10.705  20.794  12.639
35544W        W 7270  22.579  16.075   4.149
35545W        W 7271   7.757  24.652   3.278
35546W        W 7272  30.324  44.811   2.349
35547W        W 7273  41.608   4.525  14.080
35548W        W 7274   6.007  16.617   9.625
35549W        W 7275   1.925  39.073  13.316
35550W        W 7276  17.559  40.935   3.683
35551W        W 7277  30.133  36.303  10.692
35552W        W 7278  38.245   1.057   1.279
35553W        W 7279   9.259  22.338  13.141
35554W        W 7280  19.307   3.912   3.273
35555W        W 7281   8.255   5.939   1.957
35556W        W 7282  18.274  11.568   3.251
35557W        W 7283  39.871  16.695   0.251
35558W        W 7284  14.199  18.732   3.770
35559W        W 7285  43.801  17.349  10.480
35560W        W 7286   2.828  26.687  13.046
35561W        W 7287   9.532  44.889  12.015
35562W        W 7288  13.278  20.069   0.740
35563W        W 7289  42.856  43.260  12.609
35564W        W 7290  30.644   1.011   1.366
35565W        W 7291  38.450  24.584   2.483
35566W        W 7292  21.983  41.598   1.290
35567W        W 7293   6.802  41.908  14.518
35568W        W 7294  23.107  33.598  12.012
35569W        W 7295  19.064  43.616   2.626
35570W        W 7296  19.642  26.093   1.392
35571W        W 7297  26.841  36.461  13.409
35572W        W 7298  42.845  24.924  13.468
35573W        W 7299  35.622  24.953  11.531
35574W        W 7300  18.656  33.331  11.656
35575W        W 7301  43.953   6.120  14.401
35576W        W 7302  12.520  25.222  10.676
35577W        W 7303   3.230  22.256   2.669
35578W        W 7304  14.157  32.601   4.481
35579W        W 7305  30.834   7.806   5.046
35580W        W 7306   9.609  14.085  12.847
35581W        W 7307   8.469  41.783   3.982
35582W        W 7308   0.106  33.494   4.811
35583W        W 7309  42.759   4.982   1.160
35584W        W 7310  12.152  33.128   2.355
35585W        W 7311   9.671  35.791   2.616
35586W        W 7312   8.110  17.752  12.961
35587W        W 7313  21.120   2.702  13.949
35588W        W 7314  29.068  25.613  11.069
35589W        W 7315  32.407  24.911   0.809
35590W        W 7316  12.887  36.495  11.130
35591W        W 7317  20.851  16.064   1.760
35592W        W 7318  31.899   1.779   3.567
35593W        W 7319  43.228  44.821   2.685
35594W        W 7320  15.359  39.846  12.024
35595W        W 7321  30.646  26.710   3.810
35596W        W 7322  14.155  25.504  13.946
35597W        W 7323  27.947   6.290   1.242
35598W        W 7324  44.763   6.762   4.739
35599W        W 7325   3.198  43.505   0.024
35600W        W 7326   7.649   5.870   0.710
35601W        W 7327  39.273  26.259  12.538
35602W        W 7328  16.293  26.648  14.428
35603W        W 7329  29.361  28.118   1.452
35604W        W 7330  40.037  33.531  13.389
35605W        W 7331  28.955  42.194   1.712
35606W        W 7332  10.104   9.896  13.896
35607W        W 7333  21.155  29.628   5.110
35608W        W 7334  24.059  42.524   2.635
35609W        W 7335  28.390  15.293  13.811
35610W        W 7336  28.876  31.592   3.370
35611W        W 7337  15.718  11.496  14.617
35612W        W 7338  11.780   2.441  11.061
35613W        W 7339   6.940  32.065   0.781
35614W        W 7340  16.407   8.827  14.201
35615W        W 7341  17.096  17.075   4.533
35616W        W 7342   3.568  17.043  10.705
35617W        W 7343  23.187   0.354  13.790
35618W        W 7344   3.633  32.208  12.018
35619W        W 7345   5.250   4.330   3.125
35620W        W 7346  27.919  27.464  10.536
35621W        W 7347  32.662  35.626  12.470
35622W        W 7348  30.612  39.535  13.505
35623W        W 7349  15.001  15.874  11.054
35624W        W 7350   8.542  23.048   3.557
35625W        W 7351  32.112   6.258   4.561
35626W        W 7352  40.290  44.391  11.700
35627W        W 7353  34.971  18.136   1.223
35628W        W 7354  15.723  25.967  12.055
35629W        W 7355  25.790  41.943  13.982
35630W        W 7356   7.110  38.703   3.029
35631W        W 7357  36.996  24.996   1.813
35632W        W 7358  30.774  42.023  14.148
35633W        W 7359  27.016  40.934   0.291
35634W        W 7360  27.703  19.701   4.366
35635W        W 7361  43.429  12.239   2.786
35636W        W 7362  38.089  21.474   1.969
35637W        W 7363  29.960   8.685  10.811
35638W        W 7364  44.537   5.277  12.075
35639W        W 7365   9.059  24.042   0.842
35640W        W 7366  44.765  12.214  12.492
35641W        W 7367  25.683  28.865  10.799
35642W        W 7368  28.721  29.009   2.563
35643W        W 7369  43.312  37.021  11.572
35644W        W 7370  25.213  24.333  10.806
35645W        W 7371  44.795  42.236   2.485
35646W        W 7372  18.747   7.625   2.914
35647W        W 7373   5.238  19.298   2.854
35648W        W 7374  10.056  39.380   0.425
35649W        W 7375  29.007  44.615   3.720
35650W        W 7376  33.291  36.489  12.551
35651W        W 7377  10.238  25.012   1.424
35652W        W 7378  32.041   0.806  12.294
35653W        W 7379  10.195  41.122  14.938
35654W        W 7380  24.390  18.078   2.687
35655W        W 7381  36.844  21.772  12.346
35656W        W 7382  33.699  39.882  12.003
35657W        W 7383   0.752  44.739  10.653
35658W        W 7384  35.159   8.692   4.942
35659W        W 7385  16.237   5.786  11.845
35660W        W 7386  29.620  37.261  14.753
35661W        W 7387   6.678  33.552   2.896
35662W        W 7388  10.876  32.030   1.744
35663W        W 7389  24.760   6.713   0.773
35664W        W 7390  10.751  23.926  10.964
35665W        W 7391  38.864  25.498   2.656
35666W        W 7392  35.646  19.098   4.820
35667W        W 7393  12.383  21.215  12.893
35668W        W 7394   1.245  33.059  12.821
35669W        W 7395  29.577  38.683   2.121
35670W        W 7396   5.380   1.554   1.295
35671W        W 7397  23.462  29.950   1.418
35672W        W 7398  19.970  30.104  11.173
35673W        W 7399  18.814  13.108  10.663
35674W        W 7400  22.745   0.762   1.853
35675W        W 7401  41.837  32.104   3.589
35676W        W 7402   4.316  35.755  14.936
35677W        W 7403   7.762  33.472   0.938
35678W        W 7404   1.294  26.040  14.745
35679W        W 7405  44.757   8.117  14.160
35680W        W 7406  35.011  29.963  14.523
35681W        W 7407  13.324   9.763  10.396
35682W        W 7408  33.854  35.871  10.509
35683W        W 7409  35.685   4.454   4.101
35684W        W 7410  13.594  14.787  11.830
35685W        W 7411  36.964   5.581  12.029
35686W        W 7412  24.447   3.764   3.789
35687W        W 7413  19.010  25.009   2.656
35688W        W 7414  18.692  33.565   4.656
35689W        W 7415  12.637  12.414  11.317
35690W        W 7416   1.233  43.918  12.471
35691W        W 7417   4.372  34.342  13.454
35692W        W 7418  32.009  21.463   2.875
35693W        W 7419   0.112  33.721   3.211
35694W        W 7420  22.626  43.544   2.441
35695W        W 7421  23.553   5.825  12.931
35696W        W 7422  15.007  34.389  11.463
35697W        W 7423  42.972  21.076  10.012
35698W        W 7424  23.119  18.088   2.281
35699W        W 7425  15.634  13.287  13.807
35700W        W 7426  18.749   5.809  10.775
35701W        W 7427  16.960  39.617  13.991
35702W        W 7428  36.504   5.538   1.002
35703W        W 7429  28.207  35.505   5.007
35704W        W 7430  20.299  38.425  11.132
35705W        W 7431  38.353  25.774  10.396
35706W        W 7432  23.606  37.473   4.292
35707W        W 7433  12.603  27.100  10.648
35708W        W 7434  26.147  19.861  14.412
35709W        W 7435  30.433  40.972   1.792
35710W        W 7436  44.282  40.864   3.693
35711W        W 7437  34.897   2.811   2.610
35712W        W 7438  13.152  44.936   3.857
35713W        W 7439  16.821  38.740   4.286
35714W        W 7440  19.035  23.269  12.344
35715W        W 7441   0.232  28.928   0.719
35716W        W 7442   0.570  31.010   0.147
35717W        W 7443  31.966  13.851  11.582
35718W        W 7444  32.382  27.492   2.239
35719W        W 7445  23.684  31.992  10.510
35720W        W 7446  17.659  37.487   4.876
35721W        W 7447  11.654  22.559   4.532
35722W        W 7448  37.288   0.855  11.529
35723W        W 7449  12.697  29.408   1.844
35724W        W 7450  31.438  23.260  10.484
35725W        W 7451  11.847  10.557   1.746
35726W        W 7452  38.562  21.084  14.081
35727W        W 7453  43.865   5.727  14.744
35728W        W 7454  25.580  26.631   4.000
35729W        W 7455  21.957  44.766  14.043
35730W        W 7456  16.751  30.591  14.970
35731W        W 7457  25.755   8.570  13.805
35732W        W 7458  37.548  10.132   1.335
35733W        W 7459   2.819  21.375  12.615
35734W        W 7460   1.357  17.727  12.366
35735W        W 7461   8.295  23.107   2.450
35736W        W 7462  38.400  28.569  14.231
35737W        W 7463  37.577  43.377  11.136
35738W        W 7464  22.552  16.978   4.151
35739W        W 7465  29.184  29.789  11.118
35740W        W 7466  39.908   2.674   1.354
35741W        W 7467  17.428  32.271  13.536
35742W        W 7468  36.456   4.057  11.083
35743W        W 7469   7.321  36.872   1.743
35744W        W 7470  44.535  10.789   3.510
35745W        W 7471  18.139  36.881  12.552
35746W        W 7472  39.305   0.295  14.326
35747W        W 7473  11.687  27.501  11.728
35748W        W 7474  25.411  11.983  12.152
35749W        W 7475  43.940  20.139  13.054
35750W        W 7476   8.319  19.134   2.755
35751W        W 7477  22.553   2.003   4.262
35752W        W 7478  30.096  13.248   0.434
35753W        W 7479  41.439   4.986   3.300
35754W        W 7480  15.826  18.898   0.754
35755W        W 7481  29.385  30.383  11.936
35756W        W 7482  25.594  10.922  11.116
35757W        W 7483  20.759  30.036  12.450
35758W        W 7484   2.914  44.998  12.879
35759W        W 7485   7.952  31.480   1.716
35760W        W 7486  41.319   4.070   0.354
35761W        W 7487   0.709   4.833  10.209
35762W        W 7488   9.403  13.202  10.722
35763W        W 7489  38.047  20.305  11.961
35764W        W 7490  34.933  43.309  12.623
35765W        W 7491   7.326  22.115  14.694
35766W        W 7492   8.141  14.220   0.567
35767W        W 7493  14.648   5.324   3.042
35768W        W 7494   7.660  14.564   0.760
35769W        W 7495   5.879  18.746  13.956
35770W        W 7496   6.167  22.779   1.181
35771W        W 7497   7.926  20.298  13.411
35772W        W 7498  39.955  42.005   4.204
35773W        W 7499  12.424  43.536  12.829
35774W        W 7500  17.583  23.267   1.236
35775W        W 7501   0.694  15.562   2.479
35776W        W 7502  29.654  21.718  10.950
35777W        W 7503  23.398  13.157  12.153
35778W        W 7504  24.431  23.795   4.040
35779W        W 7505  43.840  33.037   0.066
35780W        W 7506  35.402  34.847   3.897
35781W        W 7507   6.143  16.578  12.049
35782W        W 7508  40.586  23.635   2.745
35783W        W 7509  28.630   8.301   1.234
35784W        W 7510  10.250  26.187  14.812
35785W        W 7511  13.326  12.643  12.480
35786W        W 7512  10.820   9.615  10.500
35787W        W 7513   5.490   9.411   4.836
35788W        W 7514  10.329  22.557   1.133
35789W        W 7515  10.866   0.966  10.778
35790W        W 7516  24.230   8.345  14.044
35791W        W 7517  10.918  17.238   1.950
35792W        W 7518  11.826  31.651  13.404
35793W        W 7519  20.207  40.758   2.384
35794W        W 7520  26.484  35.981  10.734
35795W        W 7521  37.575  18.244  13.432
35796W        W 7522  40.010  17.652   3.756
35797W        W 7523  44.816  10.911   4.448
35798W        W 7524  40.085  24.125   3.204
35799W        W 7525   0.350   4.697   4.889
35800W        W 7526  23.228  44.912  11.068
35801W        W 7527  14.767   5.990   2.391
35802W        W 7528  34.494  35.671  13.233
35803W        W 7529  31.447   6.353  14.162
35804W        W 7530  37.141   2.990   3.746
35805W        W 7531  12.646  21.158  13.723
35806W        W 7532  14.543   9.598  12.892
35807W        W 7533  24.567  26.032  14.126
35808W        W 7534  19.513  15.069  14.455
35809W        W 7535  43.502  41.306   3.067
35810W        W 7536  40.416  23.158   2.874
35811W        W 7537  25.708  11.718  11.519
35812W        W 7538  43.800  25.042  11.100
35813W        W 7539  38.128  29.031   1.735
35814W        W 7540  25.747   2.236  13.032
35815W        W 7541  18.750  37.995  14.858
35816W        W 7542  43.531  31.927  11.342
35817W        W 7543  35.789  22.604  11.643
35818W        W 7544  24.534  19.278  13.881
35819W        W 7545  20.771   6.813   1.682
35820W        W 7546  38.040  41.976   1.816
35821W        W 7547  21.660  20.359  11.236
35822W        W 7548  40.597  14.210   5.304
35823W        W 7549  38.244   9.333   4.583
35824W        W 7550  26.718   9.369   2.341
35825W        W 7551   7.901   4.676  11.630
35826W        W 7552  28.444   4.008  12.954
35827W        W 7553  32.351   2.952  13.238
35828W        W 7554  39.941  28.589   4.215
35829W        W 7555  19.629  11.419   2.700
35830W        W 7556   5.348  18.783  13.878
35831W        W 7557  38.471   5.092  11.216
35832W        W 7558  27.641   9.644   1.399
35833W        W 7559  24.523   4.446   4.981
35834W        W 7560   2.002  26.872   0.836
35835W        W 7561  30.958   1.672  14.318
35836W        W 7562  16.602  25.786   0.260
35837W        W 7563  40.093  13.834   2.734
35838W        W 7564  41.983  20.229  11.954
35839W        W 7565   7.541  12.365   0.874
35840W        W 7566  31.714  44.990  10.202
35841W        W 7567  32.881  41.747   4.974
35842W        W 7568  38.401  35.401  11.703
35843W        W 7569  30.903  42.030   2.160
35844W        W 7570  27.182  10.797   4.631
35845W        W 7571  26.960   2.684  12.538
35846W        W 7572  25.957  24.871  10.726
35847W        W 7573   8.780  16.647   4.861
35848W        W 7574  42.923   0.590  10.947
35849W        W 7575  15.123  31.355  12.357
35850W        W 7576  29.158  15.231  13.581
35851W        W 7577  25.913  18.254  13.452
35852W        W 7578  33.155  21.719   0.296
35853W        W 7579   1.774  32.017  14.673
35854W        W 7580   7.643  28.982   2.444
35855W        W 7581  24.593   0.959  13.379
35856W        W 7582  37.052  40.970   4.932
35857W        W 7583  44.784  38.004  11.720
35858W        W 7584  36.050  39.774  12.781
35859W        W 7585  25.920  26.571   3.122
35860W        W 7586  40.467  44.431  14.261
35861W        W 7587  35.016  32.026  10.728
35862W        W 7588  15.671  31.451   0.355
35863W        W 7589  31.274  39.469  11.919
35864W        W 7590  43.572  25.143  11.616
35865W        W 7591  20.204  12.510  10.262
35866W        W 7592  24.281   1.540  12.462
35867W        W 7593  41.261   3.821  12.867
35868W        W 7594  18.110   4.484  14.486
35869W        W 7595  10.804  35.685   2.238
35870W        W 7596  27.401  36.938  12.079
35871W        W 7597  42.658  33.151   0.408
35872W        W 7598  10.216  18.055  14.866
35873W        W 7599  21.933  21.859   0.811
35874W        W 7600   5.320   6.302   0.972
35875W        W 7601  34.576  19.174  13.009
35876W        W 7602  22.819  25.735   1.896
35877W        W 7603  26.011  37.352  10.327
35878W        W 7604  35.323   0.572   0.929
35879W        W 7605   2.265  20.533  11.286
35880W        W 7606  36.367   4.308  14.793
35881W        W 7607  35.109  24.025   3.268
35882W        W 7608   9.177  14.604   0.831
35883W        W 7609   3.195  29.466  13.652
35884W        W 7610  41.482  20.190   4.810
35885W        W 7611  20.297  33.578  10.674
35886W        W 7612  38.815  15.729  11.069
35887W        W 7613  40.911  29.919   1.816
35888W        W 7614  20.184  36.655   3.769
35889W        W 7615   9.091  11.353  11.139
35890W        W 7616   3.649  21.753   4.240
35891W        W 7617  18.672  18.305   1.239
35892W        W 7618  44.963  13.157   0.418
35893W        W 7619   3.960  19.470   0.795
35894W        W 7620  18.871  38.321  12.653
35895W        W 7621   4.897  22.911   0.422
35896W        W 7622  36.920  16.274   2.472
35897W        W 7623  19.719  26.431   0.961
35898W        W 7624   3.256  41.798  13.125
35899W        W 7625  28.066  37.542   0.799
35900W        W 7626  28.468  27.612  10.511
35901W        W 7627  22.448  24.496  12.820
35902W        W 7628   5.652   1.962   2.327
35903W        W 7629  43.922  25.129   1.956
35904W        W 7630  28.296  23.556  10.262
35905W        W 7631  40.828  19.767   0.405
35906W        W 7632  11.153  12.731  12.890
35907W        W 7633   6.381  21.489  13.059
35908W        W 7634  43.229  13.265   1.348
35909W        W 7635   1.858   9.276   1.910
35910W        W 7636  40.844  35.696  11.945
35911W        W 7637   7.106  17.714   1.316
35912W        W 7638   1.391  38.419   1.178
35913W        W 7639  15.257  28.974  13.778
35914W        W 7640  19.770  42.584   2.653
35915W        W 7641  27.698  30.508   1.186
35916W        W 7642  13.664  41.083   1.323
35917W        W 7643  34.536   8.076   2.065
35918W        W 7644  17.313  42.860  14.090
35919W        W 7645  44.382  35.481   1.727
35920W        W 7646  43.822  43.512   3.773
35921W        W 7647  12.352  16.144   1.919
35922W        W 7648   1.375  19.870  10.568
35923W        W 7649  30.063  27.642   0.468
35924W        W 7650   5.416  27.188  13.065
35925W        W 7651  42.753  21.653  12.567
35926W        W 7652   3.653  22.057  12.573
35927W        W 7653   5.368   1.913  10.765
35928W        W 7654  35.090  40.113   2.386
35929W        W 7655  12.284  34.060  13.539
35930W        W 7656  24.616  29.473   3.364
35931W        W 7657   4.145  22.293   0.699
35932W        W 7658  24.698  10.364  11.314
35933W        W 7659   1.503   7.796  11.551
35934W        W 7660   6.760  14.719   2.148
35935W        W 7661  23.791  21.145   4.265
35936W        W 7662  12.646  28.366   2.749
35937W        W 7663   9.160  37.694   2.196
35938W        W 7664  25.166  43.341   5.098
35939W        W 7665  15.531  43.431   4.089
35940W        W 7666  22.842  33.527  10.099
35941W        W 7667   6.757   7.284   4.646
35942W        W 7668  42.113  20.204  11.041
35943W        W 7669   6.297   5.654   1.339
35944W        W 7670   3.724  33.934  11.702
35945W        W 7671   4.220  15.622   4.161
35946W        W 7672   1.207  11.614   2.151
35947W        W 7673  10.760  39.367  14.425
35948W        W 7674   1.940  23.376  14.651
35949W        W 7675  26.221  30.172  11.867
35950W        W 7676  30.064  32.669  10.629
35951W        W 7677  38.840  24.889  14.778
35952W        W 7678  28.138  37.912  12.165
35953W        W 7679   6.687  11.009  11.902
35954W        W 7680  28.186  39.574   2.947
35955W        W 7681   7.701  38.965  11.572
35956W        W 7682  12.117   8.918  12.569
35957W        W 7683   1.744  27.723   0.397
35958W        W 7684  29.938  33.566   4.265
35959W        W 7685  10.861  35.955  10.122
35960W        W 7686   4.188   5.623   1.419
35961W        W 7687  26.484  36.239   3.337
35962W        W 7688  38.458  11.184   3.812
35963W        W 7689  40.929  18.340   3.361
35964W        W 7690  24.945   0.512   3.333
35965W        W 7691  39.546  19.039  11.564
35966W        W 7692  23.746  40.520   3.594
35967W        W 7693  21.581  25.441   5.341
35968W        W 7694   3.261  26.640  10.612
35969W        W 7695  19.759  13.620   2.773
35970W        W 7696  44.509  20.572  13.754
35971W        W 7697  15.106  25.900  14.272
35972W        W 7698  14.752  15.847   2.327
35973W        W 7699   4.864  35.115  13.370
35974W        W 7700  33.164  22.589  12.152
35975W        W 7701  33.657  24.565  11.989
35976W        W 7702  30.734   5.155   1.876
35977W        W 7703  13.785  35.972   3.267
35978W        W 7704   8.645   8.721   2.822
35979W        W 7705  41.647  35.416  14.300
35980W        W 7706  26.685  24.067  12.099
35981W        W 7707  44.399  12.457   0.497
35982W        W 7708  26.045   6.882   2.164
35983W        W 7709  10.850  39.480   0.760
35984W        W 7710   2.741  30.884  11.183
35985W        W 7711  35.260  21.318  12.898
35986W        W 7712  43.949  35.972  12.456
35987W        W 7713  20.040   0.520   2.510
35988W        W 7714  16.622  21.239   4.018
35989W        W 7715   9.400  23.488  12.032
35990W        W 7716  31.126  23.904   2.779
35991W        W 7717  26.511   8.216  13.547
35992W        W 7718  20.203  43.307  10.925
35993W        W 7719  18.823  26.030   2.423
35994W        W 7720  16.441  39.504  13.930
35995W        W 7721  36.150  29.053   0.874
35996W        W 7722  10.645  10.145  13.060
35997W        W 7723   1.330   8.714   3.770
35998W        W 7724  34.023   5.389   2.710
35999W        W 7725   5.178  22.465   4.089
36000W        W 7726  44.481  33.157  12.385
36001W        W 7727   8.318  16.654  14.234
36002W        W 7728  34.962  39.142  13.007
36003W        W 7729  26.935  18.010  13.976
36004W        W 7730   6.647  21.505  13.504
36005W        W 7731  23.079   9.769   0.018
36006W        W 7732  13.617  24.426  14.891
36007W        W 7733  31.550  31.972  14.358
36008W        W 7734  31.531   8.740   4.829
36009W        W 7735  34.483  15.170   1.931
36010W        W 7736   0.049   4.778   3.130
36011W        W 7737  21.578  34.135  13.839
36012W        W 7738  33.600   1.868   4.577
36013W        W 7739  26.224  44.241   1.410
36014W        W 7740  20.525  22.868  14.251
36015W        W 7741  36.810  14.266  10.338
36016W        W 7742   6.257  20.031   0.322
36017W        W 7743  10.851  36.321   0.425
36018W        W 7744  10.704  22.659  11.149
36019W        W 7745  41.851  20.753  10.844
36020W        W 7746   2.304   5.314  12.979
36021W        W 7747  21.471   3.037   2.200
36022W        W 7748  42.803  15.703  10.572
36023W        W 7749   1.354  43.577   0.098
36024W        W 7750  35.086  37.861  14.848
36025W        W 7751  18.023   3.686   3.679
36026W        W 7752  20.159  19.612  14.431
36027W        W 7753  27.733  14.441   1.466
36028W        W 7754  39.185  43.663   3.656
36029W        W 7755  28.137   4.524  10.102
36030W        W 7756  44.605   3.630  13.516
36031W        W 7757   1.496  23.461   3.668
36032W        W 7758  11.177  36.196   5.562
36033W        W 7759  25.156  33.159  13.464
36034W        W 7760  22.647  19.951  13.831
36035W        W 7761  15.400  38.412   2.090
36036W        W 7762  25.297  31.716  14.806
36037W        W 7763  41.594  21.195   4.594
36038W        W 7764  25.403  35.977  13.797
36039W        W 7765  23.133   5.448   3.385
36040W        W 7766  14.460  24.515  10.667
36041W        W 7767  15.047  23.721  12.498
36042W        W 7768  31.143  10.611   2.169
36043W        W 7769  18.090  33.394   3.441
36044W        W 7770  33.118  27.564  14.909
36045W        W 7771  20.807   7.180  11.271
36046W        W 7772  44.238  37.923  11.903
36047W        W 7773  42.395  36.426   2.715
36048W        W 7774  37.147   1.979   3.671
36049W        W 7775  18.115  35.496   4.411
36050W        W 7776  18.223  12.613   1.323
36051W        W 7777  36.339  30.093   3.162
36052W        W 7778  38.573  44.343  13.581
36053W        W 7779  39.806  14.669   3.173
36054W        W 7780   3.699  14.238   0.795
36055W        W 7781   9.250  40.987   1.119
36056W        W 7782  24.587   9.925   4.024
36057W        W 7783  32.536  30.829  12.857
36058W        W 7784  39.061  37.274   0.285
36059W        W 7785   4.666   7.038   3.293
36060W        W 7786   1.205  11.247  14.528
36061W        W 7787   6.878  44.301  11.655
36062W        W 7788   4.614  18.078  13.460
36063W        W 7789  16.822  25.919   4.237
36064W        W 7790  44.196   5.404  11.539
36065W        W 7791  36.074  31.389  13.128
36066W        W 7792   8.341  16.668   1.647
36067W        W 7793  13.597  13.626  14.251
36068W        W 7794  44.255  12.332  12.502
36069W        W 7795  42.936  41.999   4.720
36070W        W 7796  10.444  35.364   1.392
36071W        W 7797  39.991   2.503   2.650
36072W        W 7798  37.604  43.988   1.291
36073W        W 7799  28.837  19.796   0.477
36074W        W 7800   7.267   1.350   3.230
36075W        W 7801   5.743   5.115   0.929
36076W        W 7802   3.326  20.654   4.346
36077W        W 7803  25.189  34.569  12.587
36078W        W 7804  31.416   9.697  11.547
36079W        W 7805  33.303  38.342   1.867
36080W        W 7806  11.039  21.643   2.384
36081W        W 7807  35.733   3.571   0.491
36082W        W 7808  20.542  24.315   4.788
36083W        W 7809  36.699  25.515  12.926
36084W        W 7810  18.101  31.489   1.326
36085W        W 7811  41.259  40.483  13.846
36086W        W 7812  35.633  19.341   0.791
36087W        W 7813   5.669  34.581  11.972
36088W        W 7814  10.234  37.824   1.401
36089W        W 7815  32.061  31.195  10.709
36090W        W 7816  12.328  18.320   4.536
36091W        W 7817  31.618   4.187  12.035
36092W        W 7818   2.399  43.188  12.729
36093W        W 7819  42.928   5.293  13.354
36094W        W 7820  29.651  40.471   4.546
36095W        W 7821  22.512  14.034   5.191
36096W        W 7822  34.408   5.037   0.825
36097W        W 7823  15.334  18.693  13.415
36098W        W 7824  43.498  41.139   2.174
36099W        W 7825  24.336  13.373   2.646
36100W        W 7826  44.177  19.521   4.966
36101W        W 7827  40.997  13.752  14.694
36102W        W 7828  33.343   8.248   2.844
36103W        W 7829  21.256  16.618  11.115
36104W        W 7830  42.414  26.827   0.427
36105W        W 7831  34.334   1.446  14.426
36106W        W 7832  41.482  13.422   0.833
36107W        W 7833  19.082  16.191   1.335
36108W        W 7834   0.550  41.337  10.756
36109W        W 7835  17.247   9.266  14.364
36110W        W 7836   8.779   0.981   2.467
36111W        W 7837   0.222   7.639  11.987
36112W        W 7838  24.274  17.097   0.540
36113W        W 7839  33.002  29.510  14.347
36114W        W 7840   1.718  34.551   0.295
36115W        W 7841   0.493   0.884   3.610
36116W        W 7842  17.876  19.614   3.282
36117W        W 7843  39.910  25.116   0.441
36118W        W 7844   6.665  25.227  12.023
36119W        W 7845   6.898  22.042   4.644
36120W        W 7846  12.859  11.368  14.900
36121W        W 7847  22.910  26.650   4.219
36122W        W 7848  27.608   4.895   2.183
36123W        W 7849  21.669  26.636   1.065
36124W        W 7850  25.120  28.898   4.755
36125W        W 7851  35.552   2.496   3.314
36126W        W 7852  35.526   1.025   4.518
36127W        W 7853   7.190   2.247   2.222
36128W        W 7854  11.271  21.602  14.984
36129W        W 7855   4.385   5.203  11.386
36130W        W 7856   3.785  36.257   4.095
36131W        W 7857  20.406   2.350   3.423
36132W        W 7858  23.577  27.071  11.172
36133W        W 7859   0.879  15.616   2.943
36134W        W 7860  42.499  40.006  12.181
36135W        W 7861  21.467  34.209   1.775
36136W        W 7862  44.304   5.002   1.863
36137W        W 7863  26.476  31.788  14.494
36138W        W 7864  31.135  24.973  11.334
36139W        W 7865  14.219  38.639  10.723
36140W        W 7866   2.714  32.019   2.468
36141W        W 7867  33.571  10.916   4.581
36142W        W 7868  19.630  42.353   1.454
36143W        W 7869  38.134  22.805  12.081
36144W        W 7870  43.423  36.564   1.716
36145W        W 7871  21.528  14.505   5.501
36146W        W 7872  16.242  20.043   4.713
36147W        W 7873  29.138  35.048   2.847
36148W        W 7874  23.710  24.522   3.389
36149W        W 7875  39.622  33.828  13.490
36150W        W 7876  34.039  30.109  13.014
36151W        W 7877  23.094  20.712   4.090
36152W        W 7878   5.065  39.481  11.924
36153W        W 7879  35.550  33.626   4.283
36154W        W 7880  15.116  37.538   4.122
36155W        W 7881  41.955  39.821   0.221
36156W        W 7882   7.291  39.324  14.191
36157W        W 7883   9.394  35.493   3.206
36158W        W 7884  41.601  42.391  11.149
36159W        W 7885  10.914  14.533  14.322
36160W        W 7886   8.437  15.628   0.364
36161W        W 7887   2.919  10.600  14.344
36162W        W 7888  41.284  14.465   0.435
36163W        W 7889  32.651   2.491  14.804
36164W        W 7890  26.580  11.851   3.081
36165W        W 7891   3.920   6.392   2.417
36166W        W 7892  43.414  40.756  11.110
36167W        W 7893  24.650  37.118  14.415
36168W        W 7894  43.297  16.011   4.767
36169W        W 7895  28.372  15.115   3.091
36170W        W 7896  10.149  31.741   3.761
36171W        W 7897  26.501   5.188   3.096
36172W        W 7898  15.860  24.644   4.290
36173W        W 7899  16.110  18.509  14.454
36174W        W 7900  41.326  31.952  13.149
36175W        W 7901  33.424  10.116   0.427
36176W        W 7902  24.945  35.466   3.157
36177W        W 7903  11.689  37.519   1.172
36178W        W 7904  20.761  33.457  11.501
36179W        W 7905  13.792  25.114   4.119
36180W        W 7906  25.076  44.519  11.430
36181W        W 7907  35.875  35.835   2.349
36182W        W 7908  37.883   4.616   3.173
36183W        W 7909  40.507   0.265   3.210
36184W        W 7910  11.697   5.323  13.362
36185W        W 7911  17.228  34.441  11.108
36186W        W 7912   5.185  33.440  11.964
36187W        W 7913  12.690  32.686  14.114
36188W        W 7914   4.370  42.989  10.649
36189W        W 7915  44.812  37.582  14.815
36190W        W 7916  44.394  38.939  14.473
36191W        W 7917   0.720   2.982  14.497
36192W        W 7918   5.603   5.224  13.996
36193W        W 7919  33.648  32.441   2.261
36194W        W 7920  20.760  12.058  10.664
36195W        W 7921  33.153  17.353   0.878
36196W        W 7922  14.469  16.592   0.045
36197W        W 7923  10.953  35.359   1.287
36198W        W 7924   0.066  12.659   2.515
36199W        W 7925   8.767  42.977  13.426
36200W        W 7926   4.743  15.721   1.920
36201W        W 7927   5.026  25.042  11.570
36202W        W 7928   2.296  15.896   1.990
36203W        W 7929  16.503  20.733   4.145
36204W        W 7930   0.925  17.852  12.094
36205W        W 7931   4.426  13.874  12.408
36206W        W 7932  25.131  42.318  12.866
36207W        W 7933   8.317  22.017   0.344
36208W        W 7934  17.732  20.665  14.466
36209W        W 7935  27.063   8.774   0.928
36210W        W 7936   2.673   1.465   3.210
36211W        W 7937  17.811  33.889  11.104
36212W        W 7938   6.162  26.939  11.152
36213W        W 7939   2.343  14.910   0.016
36214W        W 7940  40.727  13.862  10.389
36215W        W 7941  27.936  12.668  12.935
36216W        W 7942  22.212   0.391  14.894
36217W        W 7943  36.933  23.797  14.311
36218W        W 7944  41.900  36.445   2.927
36219W        W 7945  38.797  30.696  12.482
36220W        W 7946  29.730  25.624  13.789
36221W        W 7947  30.994  37.389   1.709
36222W        W 7948  27.754   1.922   5.010
36223W        W 7949   6.408  37.576  14.457
36224W        W 7950  16.615  20.222  11.514
36225W        W 7951  32.094  21.954   3.539
36226W        W 7952   4.386  43.304  11.470
36227W        W 7953  27.241  21.631  13.913
36228W        W 7954  12.217  17.371   3.815
36229W        W 7955   7.323  17.174   4.589
36230W        W 7956  36.884  31.101  11.437
36231W        W 7957   5.807  40.185  11.995
36232W        W 7958  29.586   4.345  13.565
36233W        W 7959   4.186  33.748  11.893
36234W        W 7960  21.669  38.123  10.900
36235W        W 7961  42.068  20.844  10.383
36236W        W 7962  44.487  22.740   0.863
36237W        W 7963  12.554   7.881  14.489
36238W        W 7964  18.906  37.133  11.533
36239W        W 7965  31.895   4.258   2.871
36240W        W 7966  13.276  39.543   4.048
36241W        W 7967  42.885  33.037  14.933
36242W        W 7968  15.267   3.125   0.889
36243W        W 7969  21.677   4.446  11.871
36244W        W 7970  17.635  30.097  11.555
36245W        W 7971  26.395  40.868  13.156
36246W        W 7972  36.592  40.317  12.491
36247W        W 7973  22.716   6.682   2.422
36248W        W 7974  32.553  18.684  14.929
36249W        W 7975  40.933  19.540  12.096
36250W        W 7976  16.495  24.499  11.448
36251W        W 7977  40.313   9.925  11.854
36252W        W 7978   6.312  35.384  11.415
36253W        W 7979   5.833  14.907  13.884
36254W        W 7980  10.729  13.184   4.072
36255W        W 7981  23.682  13.069  10.950
36256W        W 7982  26.110  14.575  14.005
36257W        W 7983  12.120  41.978   4.896
36258W        W 7984  10.178  38.937  11.180
36259W        W 7985  19.604  12.294  11.483
36260W        W 7986   0.447  35.531   1.654
36261W        W 7987  27.068  39.820  10.918
36262W        W 7988  16.678   8.600   0.942
36263W        W 7989  39.501  21.087  11.559
36264W        W 7990  14.033  15.092  12.575
36265W        W 7991  33.938  20.616   2.164
36266W        W 7992  43.009  11.219   2.776
36267W        W 7993   6.867   4.515   9.687
36268W        W 7994   4.020  19.997  14.465
36269W        W 7995  37.811  24.547  11.955
36270W        W 7996   6.871  27.945   4.479
36271W        W 7997  20.927  10.624   3.787
36272W        W 7998  26.699   3.521   3.196
36273W        W 7999   2.941  43.889  13.374
36274W        W 8000  17.281   8.833  13.990
36275W        W 8001  33.895  31.394   1.828
36276W        W 8002   8.630  19.275   4.174
36277W        W 8003  30.522  30.621   1.036
36278W        W 8004  12.077   0.216  13.545
36279W        W 8005  24.237  12.456   4.791
36280W        W 8006  40.272  14.241   3.685
36281W        W 8007  11.831  18.796  11.951
36282W        W 8008  15.259  12.061   0.896
36283W        W 8009  20.245  12.833  10.684
36284W        W 8010   6.117  28.922   4.440
36285W        W 8011  13.981  35.313  12.876
36286W        W 8012  35.437   1.945  10.719
36287W        W 8013  33.141  12.086   0.802
36288W        W 8014  21.188  27.623  11.737
36289W        W 8015  29.343  25.297  13.900
36290W        W 8016   2.364   3.959   0.987
36291W        W 8017   2.330  43.598   0.452
36292W        W 8018   8.211  17.671  14.529
36293W        W 8019  35.781  23.124   0.430
36294W        W 8020  28.397   6.901  14.308
36295W        W 8021  25.061  40.818   2.737
36296W        W 8022   2.263   3.772   4.602
36297W        W 8023  10.271  17.833   3.064
36298W        W 8024  22.128  14.132   1.384
36299W        W 8025  13.094  43.464   0.322
36300W        W 8026  21.753  16.523  12.609
36301W        W 8027  31.896  21.958   4.613
36302W        W 8028  33.077  39.125   2.203
36303W        W 8029   6.277  10.434   4.308
36304W        W 8030   4.265  15.761   5.051
36305W        W 8031   0.349  29.578  13.610
36306W        W 8032  40.815  17.560  12.078
36307W        W 8033  26.125  10.550  14.580
36308W        W 8034  30.958  37.010  13.893
36309W        W 8035  27.004   7.671   1.654
36310W        W 8036  23.621  30.478  14.109
36311W        W 8037  38.126  41.007   2.730
36312W        W 8038  30.641  22.488  11.183
36313W        W 8039  39.039  21.248   4.577
36314W        W 8040  25.384  43.188  11.628
36315W        W 8041  25.562  16.257  12.861
36316W        W 8042  37.148  39.848  13.991
36317W        W 8043  17.652  24.526   3.707
36318W        W 8044  28.743  14.136   2.346
36319W        W 8045  26.672  14.667  14.382
36320W        W 8046  28.489  29.038   3.933
36321W        W 8047  24.205   1.738   2.842
36322W        W 8048   2.337  24.876   4.663
36323W        W 8049  16.113  39.869   4.054
36324W        W 8050  34.416   2.378   3.777
36325W        W 8051  17.232  13.848   3.207
36326W        W 8052  20.901   1.052   1.038
36327W        W 8053  15.249  31.974  11.956
36328W        W 8054  28.674  24.701   0.004
36329W        W 8055  18.441   2.917   0.719
36330W        W 8056  15.730  25.695  11.156
36331W        W 8057  15.172   2.618   0.769
36332W        W 8058   8.660  35.846  10.507
36333W        W 8059  10.114   7.577   3.294
36334W        W 8060  34.298  38.498   1.843
36335W        W 8061  29.865  10.934  12.547
36336W        W 8062  17.038  12.774   0.696
36337W        W 8063  42.926  37.403   1.936
36338W        W 8064  26.432  12.731   5.010
36339W        W 8065  30.546  44.924  13.019
36340W        W 8066   7.642  10.893   3.763
36341W        W 8067  19.531  44.771  11.606
36342W        W 8068   8.412  40.340   2.396
36343W        W 8069   3.902   2.849   3.235
36344W        W 8070  13.388  21.698  14.939
36345W        W 8071  25.048  19.781  12.594
36346W        W 8072  27.719  28.211  12.559
36347W        W 8073  17.689   3.722   4.147
36348W        W 8074  29.404  35.957  11.290
36349W        W 8075  40.507  20.286  10.892
36350W        W 8076   0.571   8.308  13.602
36351W        W 8077  15.995  31.415   1.428
36352W        W 8078  12.793  25.291  14.762
36353W        W 8079  42.947  20.950   2.757
36354W        W 8080  17.097   1.344  10.332
36355W        W 8081   3.018  26.712  11.050
36356W        W 8082  24.350  37.583  12.799
36357W        W 8083   4.398   3.895   3.636
36358W        W 8084  27.058  41.987  13.537
36359W        W 8085  44.757  25.893   4.226
36360W        W 8086  25.545  16.670   3.458
36361W        W 8087  27.195  19.224  11.067
36362W        W 8088  32.982  23.352  12.476
36363W        W 8089  14.166   3.518   2.916
36364W        W 8090  44.460  14.616  14.939
36365W        W 8091  38.592   7.138  10.340
36366W        W 8092  29.838  11.648   0.396
36367W        W 8093   7.904  39.055   3.276
36368W        W 8094  10.191  21.795  14.102
36369W        W 8095  13.123  25.061   3.230
36370W        W 8096   1.731   7.714  10.695
36371W        W 8097   3.826  11.364  13.378
36372W        W 8098  23.360  20.300  14.824
36373W        W 8099  26.487  35.453   4.849
36374W        W 8100  12.172  44.039   0.884
36375W        W 8101  34.447  33.353   2.470
36376W        W 8102  44.239  39.327   0.471
36377W        W 8103  44.094  18.181  13.110
36378W        W 8104  16.315  13.782   0.327
36379W        W 8105  36.306  26.995  14.935
36380W        W 8106   0.413  23.288   1.828
36381W        W 8107  30.952  26.293   3.321
36382W        W 8108  16.888  31.206   1.212
36383W        W 8109   6.782   1.691  11.671
36384W        W 8110  11.146   0.319   0.430
36385W        W 8111  38.446  18.736  14.273
36386W        W 8112  35.163  43.306   1.921
36387W        W 8113  23.445  43.874   3.856
36388W        W 8114  21.244  26.400  14.187
36389W        W 8115  38.592  33.438   4.437
36390W        W 8116   0.090  22.191  12.967
36391W        W 8117  34.588   9.182  11.610
36392W        W 8118   6.834  17.224  11.200
36393W        W 8119  36.789   9.893   0.367
36394W        W 8120  29.571  11.475  10.911
36395W        W 8121  16.423  16.591   3.639
36396W        W 8122   6.840  10.280  11.443
36397W        W 8123  40.348  19.158   4.698
36398W        W 8124  23.452  33.163  14.921
36399W        W 8125   3.933   6.652   2.848
36400W        W 8126  15.603   5.949   0.533
36401W        W 8127  19.635  30.910   1.342
36402W        W 8128   5.346  13.777   4.297
36403W        W 8129  23.061   6.792   4.607
36404W        W 8130   2.900  41.238  12.026
36405W        W 8131  22.223  35.302  14.328
36406W        W 8132  15.303  33.659   3.197
36407W        W 8133  17.162  30.247   2.902
36408W        W 8134   9.309  25.181   2.656
36409W        W 8135  18.618  19.232   1.029
36410W        W 8136   2.943  16.560  14.607
36411W        W 8137   6.318  22.017  13.892
36412W        W 8138  35.941  36.941  10.782
36413W        W 8139   3.446  16.312  12.695
36414W        W 8140  11.078  15.096  14.798
36415W        W 8141  33.650  24.701   2.555
36416W        W 8142   7.816  30.686  12.999
36417W        W 8143  35.989  12.793  12.414
36418W        W 8144   3.818   2.332  14.643
36419W        W 8145  21.169  17.543   1.406
36420W        W 8146  29.200  42.488   0.389
36421W        W 8147  14.682  28.733   4.186
36422W        W 8148   1.411   2.943  10.695
36423W        W 8149  12.802   9.184   3.566
36424W        W 8150  28.770  25.597   0.491
36425W        W 8151  16.743  15.605   1.866
36426W        W 8152  28.551  22.751  14.280
36427W        W 8153   8.479   4.705  10.462
36428W        W 8154   5.950  13.897   3.074
36429W        W 8155  26.111   3.186  11.563
36430W        W 8156   9.674  42.077   2.845
36431W        W 8157  10.145  44.051  13.973
36432W        W 8158  40.059  38.956   3.603
36433W        W 8159  43.646  44.992   4.135
36434W        W 8160  44.948  15.308   0.949
36435W        W 8161  25.779  16.602  14.943
36436W        W 8162  10.861   1.024   0.344
36437W        W 8163  32.384  41.499  12.241
36438W        W 8164  17.685  19.254  11.105
36439W        W 8165  32.593  36.143  11.549
36440W        W 8166  10.199   7.750   2.702
36441W        W 8167  13.070   2.025  11.109
36442W        W 8168  43.750  21.615   2.904
36443W        W 8169  11.670  16.587  11.117
36444W        W 8170  18.867  30.269  14.128
36445W        W 8171   9.634  10.190  12.835
36446W        W 8172   4.519  15.569  11.944
36447W        W 8173   8.554  37.565  14.893
36448W        W 8174   4.223  43.164   3.697
36449W        W 8175   0.835  12.736   3.363
36450W        W 8176  21.102  16.129   0.297
36451W        W 8177  21.348  37.278   1.954
36452W        W 8178   6.382   5.123   5.061
36453W        W 8179  11.387   3.198   4.831
36454W        W 8180  43.989  15.292   1.843
36455W        W 8181  16.563  12.678   4.286
36456W        W 8182  34.843  42.465  13.797
36457W        W 8183   8.349  10.978   0.862
36458W        W 8184  26.099  11.150  11.212
36459W        W 8185  41.094  37.360   1.396
36460W        W 8186  34.601  44.732  10.628
36461W        W 8187  35.067  37.949  12.786
36462W        W 8188   2.388  23.271  10.211
36463W        W 8189  20.544  30.562   3.265
36464W        W 8190   6.019   5.708   9.901
36465W        W 8191  44.020  38.369  11.973
36466W        W 8192   4.461  29.622  11.561
36467W        W 8193  42.065  22.678   5.160
36468W        W 8194  11.732   9.473  11.935
36469W        W 8195   2.687  11.907  10.703
36470W        W 8196  15.880  44.287  12.177
36471W        W 8197  36.858  43.851   2.735
36472W        W 8198  35.862  14.162  14.423
36473W        W 8199  43.818  23.600   4.151
36474W        W 8200  43.293  14.550   2.440
36475W        W 8201  37.374  31.398   0.341
36476W        W 8202  30.909  21.157   0.330
36477W        W 8203  12.036  20.567   1.824
36478W        W 8204  36.348  35.875  11.424
36479W        W 8205  11.177  11.390   0.952
36480W        W 8206  18.092  33.152   0.938
36481W        W 8207  23.680  30.163  13.177
36482W        W 8208   7.010  17.552   2.186
36483W        W 8209  17.043  15.528   3.717
36484W        W 8210   3.332  31.901   1.292
36485W        W 8211  36.849  13.125  13.049
36486W        W 8212   0.247  25.066  12.629
36487W        W 8213  14.316  30.481   0.957
36488W        W 8214  12.258  19.710  14.222
36489W        W 8215  15.560  38.401   0.497
36490W        W 8216  16.164  24.652   4.763
36491W        W 8217  40.824   4.822  12.888
36492W        W 8218   4.986  18.106  10.309
36493W        W 8219  15.164  25.603  14.704
36494W        W 8220  34.960  34.335   0.400
36495W        W 8221  43.047  31.504   4.763
36496W        W 8222  42.360   8.881   4.654
36497W        W 8223   0.924  21.969   4.556
36498W        W 8224  42.368  23.236  11.128
36499W        W 8225  41.464  10.789  14.583
36500W        W 8226  30.358  29.979   2.303
36501W        W 8227  40.725   3.253   0.041
36502W        W 8228  30.650  41.984   5.241
36503W        W 8229  22.024   8.322   4.257
36504W        W 8230  41.155   6.274  11.716
36505W        W 8231  14.793  10.321  12.439
36506W        W 8232  10.206  15.739  14.053
36507W        W 8233  16.344  10.787  10.550
36508W        W 8234  30.101  37.554   4.240
36509W        W 8235  23.514   6.796  14.773
36510W        W 8236   7.268  15.699   1.707
36511W        W 8237   3.385  16.223   2.419
36512W        W 8238  27.477   5.619  14.481
36513W        W 8239  31.147  23.473  14.838
36514W        W 8240  11.784  31.347  11.017
36515W        W 8241   8.901  25.141   3.035
36516W        W 8242  13.550  33.689   4.730
36517W        W 8243  32.007  15.136  11.675
36518W        W 8244  34.543  32.682  14.777
36519W        W 8245  17.488  36.883  11.535
36520W        W 8246  37.505   2.886  10.697
36521W        W 8247  10.856  27.467  11.193
36522W        W 8248  27.984  30.632   3.309
36523W        W 8249  36.850   2.983   1.387
36524W        W 8250  24.568   4.435  12.872
36525W        W 8251  29.851  42.264   4.146
36526W        W 8252  36.635  31.600  13.992
36527W        W 8253   3.324   3.264  10.924
36528W        W 8254  10.199   0.908  13.941
36529W        W 8255  42.498  40.965   4.204
36530W        W 8256  16.120  23.168  11.271
36531W        W 8257  27.005  18.194  13.074
36532W        W 8258  35.381  39.456   0.305
36533W        W 8259   2.851  11.443   0.305
36534W        W 8260  16.612  39.625  14.420
36535W        W 8261  11.907  27.950   0.427
36536W        W 8262   1.427  18.022  10.936
36537W        W 8263  40.014  35.360   1.816
36538W        W 8264   4.496  22.115   4.877
36539W        W 8265  32.565  18.326   3.245
36540W        W 8266  21.666  11.177  12.395
36541W        W 8267  26.026  27.076  13.436
36542W        W 8268  26.071  30.218   1.188
36543W        W 8269   8.757  28.605  10.967
36544W        W 8270  35.306  26.004  11.120
36545W        W 8271  36.757  16.964   1.292
36546W        W 8272   0.043  43.432   4.544
36547W        W 8273  26.151  32.677  10.509
36548W        W 8274  10.161   4.744  14.238
36549W        W 8275   1.487  26.220   3.739
36550W        W 8276   1.231  22.595  13.287
36551W        W 8277  37.390   3.946  11.841
36552W        W 8278   5.321  13.510   1.653
36553W        W 8279  23.769   2.483  10.733
36554W        W 8280  17.184  32.955   1.156
36555W        W 8281  39.293   2.454  12.830
36556W        W 8282  27.098  26.801   0.498
36557W        W 8283   3.163  20.949   2.285
36558W        W 8284  18.569  35.111   2.025
36559W        W 8285  21.609  16.151   4.627
36560W        W 8286  21.752   0.188  13.887
36561W        W 8287   0.192  16.398  13.547
36562W        W 8288  32.739  30.650   0.087
36563W        W 8289   9.226  16.030  14.851
36564W        W 8290  38.019   9.363   1.372
36565W        W 8291  39.433  43.392   2.207
36566W        W 8292   2.513  30.452   3.473
36567W        W 8293   2.719   0.829  13.406
36568W        W 8294  18.243   0.414   4.332
36569W        W 8295   2.312  20.642   4.435
36570W        W 8296   2.260   4.436   3.015
36571W        W 8297  22.034  30.547  13.940
36572W        W 8298   4.202  10.340  14.737
36573W        W 8299  38.523  43.041  11.351
36574W        W 8300  28.463   1.717  11.902
36575W        W 8301  39.145  44.881  14.059
36576W        W 8302   8.887  16.086  14.070
36577W        W 8303  44.256   8.939  11.267
36578W        W 8304  26.197  11.323   0.166
36579W        W 8305  38.784  15.181   2.053
36580W        W 8306  42.725  25.023   1.305
36581W        W 8307   6.774   1.340   2.250
36582W        W 8308  33.801  26.596  10.463
36583W        W 8309  22.251   0.025   1.500
36584W        W 8310  15.869  33.778  10.694
36585W        W 8311  29.731  39.063  11.000
36586W        W 8312  40.318  37.943   2.193
36587W        W 8313   8.877  36.338   0.393
36588W        W 8314  14.526  22.224   2.909
36589W        W 8315   7.281  41.126   1.803
36590W        W 8316  41.412  38.218  14.268
36591W        W 8317  38.597  22.308  10.410
36592W        W 8318  34.928   1.466  14.670
36593W        W 8319  15.038  24.693  14.045
36594W        W 8320  33.390  21.553   1.756
36595W        W 8321   6.310  13.584   4.566
36596W        W 8322  39.786   5.262  12.073
36597W        W 8323  28.811  27.215  13.874
36598W        W 8324   8.212  29.465   0.501
36599W        W 8325  29.148  44.915   0.798
36600W        W 8326  35.996  20.081   1.959
36601W        W 8327  32.166   8.668   0.378
36602W        W 8328   0.297  40.476   2.853
36603W        W 8329  21.807  19.886  11.461
36604W        W 8330  18.791  30.138   2.406
36605W        W 8331  38.809  37.258  11.568
36606W        W 8332  37.560  37.001  13.980
36607W        W 8333  43.342   8.400   4.278
36608W        W 8334   1.046  24.713   2.298
36609W        W 8335  14.376  18.539   0.762
36610W        W 8336  37.231  24.454   1.669
36611W        W 8337  19.641   4.704   4.281
36612W        W 8338  20.944  10.793   4.844
36613W        W 8339   4.495  43.753   1.256
36614W        W 8340  14.124  13.571  14.726
36615W        W 8341  16.278  34.512   0.082
36616W        W 8342  36.427  37.439  12.340
36617W        W 8343  24.830  33.094   1.875
36618W        W 8344   6.651  18.470   4.693
36619W        W 8345  25.529  36.335   1.868
36620W        W 8346   9.206   7.111  11.134
36621W        W 8347  14.099   1.441   2.240
36622W        W 8348  23.208  10.847   2.802
36623W        W 8349  16.563  16.017   4.933
36624W        W 8350  11.736   9.800   2.422
36625W        W 8351   8.872  33.553  10.279
36626W        W 8352  36.834  15.072  11.538
36627W        W 8353  32.367   2.458   3.442
36628W        W 8354  10.715  38.397  10.593
36629W        W 8355  15.548  27.460   1.262
36630W        W 8356  35.500  41.937  13.521
36631W        W 8357  36.537  16.695  10.700
36632W        W 8358  27.836  10.182  10.675
36633W        W 8359  40.801  35.040   0.427
36634W        W 8360  33.005  17.850  12.156
36635W        W 8361   9.301   0.923   1.816
36636W        W 8362  10.250  19.196   0.882
36637W        W 8363  24.825  25.545   4.084
36638W        W 8364  23.554  24.923  13.356
36639W        W 8365  10.853  31.178   2.183
36640W        W 8366  22.737   1.769   2.773
36641W        W 8367  44.242  42.414   4.806
36642W        W 8368  22.576  18.230  11.209
36643W        W 8369  40.966   1.293  13.334
36644W        W 8370  20.942  19.515   1.223
36645W        W 8371  42.974   7.116   1.800
36646W        W 8372   1.676  39.551  12.184
36647W        W 8373  19.143  25.649  14.402
36648W        W 8374  35.738  42.234  14.313
36649W        W 8375  42.597  41.499   2.728
36650W        W 8376  38.013   3.419   0.207
36651W        W 8377  23.285  28.497  14.965
36652W        W 8378  44.015  31.051  10.934
36653W        W 8379  17.887  13.758   3.594
36654W        W 8380  43.660  28.323   3.401
36655W        W 8381  12.414  27.625  13.338
36656W        W 8382   8.130  29.983  14.779
36657W        W 8383   6.935  34.102  12.996
36658W        W 8384  25.557  41.899  14.440
36659W        W 8385  21.464   7.712  12.622
36660W        W 8386  23.276  39.922   4.539
36661W        W 8387  33.176  42.858   1.636
36662W        W 8388  38.520  21.284   3.672
36663W        W 8389   5.848  17.127  12.447
36664W        W 8390  12.309  24.979  12.418
36665W        W 8391  35.318   1.002   2.715
36666W        W 8392   9.681  36.123   2.200
36667W        W 8393  12.996  13.685  12.985
36668W        W 8394  16.578  42.305   0.721
36669W        W 8395   6.815  42.291   0.785
36670W        W 8396  40.990  31.888  10.769
36671W        W 8397  25.918  23.502   4.214
36672W        W 8398  17.008   6.706   3.242
36673W        W 8399  16.397  30.051   2.496
36674W        W 8400  14.755  44.826   1.030
36675W        W 8401  16.335   3.508  13.783
36676W        W 8402  10.412  31.322  10.767
36677W        W 8403   3.142  41.454   4.241
36678W        W 8404  43.824  20.201   4.004
36679W        W 8405  30.476  37.386   1.888
36680W        W 8406  30.106  24.689   0.269
36681W        W 8407  40.331   7.796   4.166
36682W        W 8408  21.732  17.246   3.135
36683W        W 8409   2.060  16.258  12.476
36684W        W 8410  21.482  28.742   4.399
36685W        W 8411  15.614  36.785  10.745
36686W        W 8412  21.119  41.803  10.389
36687W        W 8413  18.536  25.328  14.490
36688W        W 8414  27.809   9.467  13.032
36689W        W 8415  40.519  35.774  14.220
36690W        W 8416  41.455   6.426  14.019
36691W        W 8417  44.052  30.531   2.407
36692W        W 8418  40.843  32.922   3.595
36693W        W 8419  13.596  23.765  11.962
36694W        W 8420  25.466  14.321   0.910
36695W        W 8421   2.770  44.755   3.211
36696W        W 8422  34.849  35.908  12.896
36697W        W 8423  39.401  11.431  13.538
36698W        W 8424  20.765  42.402   2.381
36699W        W 8425  17.098  32.053  12.649
36700W        W 8426  14.225   4.212   1.942
36701W        W 8427  31.051  10.068  14.959
36702W        W 8428  22.575  25.125   5.145
36703W        W 8429  18.320  17.613  11.494
36704W        W 8430  18.344  43.570   1.261
36705W        W 8431  26.070  40.199  11.859
36706W        W 8432  29.087   2.763  12.507
36707W        W 8433  20.743  33.401   0.451
36708W        W 8434   7.203  29.654  13.253
36709W        W 8435  15.328   3.382  13.619
36710W        W 8436  15.660  15.041   1.524
36711W        W 8437  16.557  17.225  11.159
36712W        W 8438   0.247  30.019  10.709
36713W        W 8439  30.953  20.224   1.305
36714W        W 8440  32.643  32.618   3.762
36715W        W 8441   6.242  31.513   1.222
36716W        W 8442  15.540   6.872  13.593
36717W        W 8443  43.015  36.552  11.621
36718W        W 8444   9.210   3.296  10.086
36719W        W 8445  15.774  39.536  11.308
36720W        W 8446  33.123  37.005   1.719
36721W        W 8447   6.170  18.073  10.539
36722W        W 8448  42.460  16.979  13.378
36723W        W 8449  42.412  44.847   1.377
36724W        W 8450  44.086  19.434  13.558
36725W        W 8451   9.842  32.610   3.408
36726W        W 8452  34.828  13.593  10.852
36727W        W 8453  28.554  42.430   1.921
36728W        W 8454  26.427  19.278   1.714
36729W        W 8455  22.833  34.670   1.645
36730W        W 8456   0.802  14.795  14.447
36731W        W 8457  32.969  11.743  10.947
36732W        W 8458  34.109  21.482  10.560
36733W        W 8459   1.944  18.098  10.960
36734W        W 8460  39.040   8.806   3.604
36735W        W 8461   8.677  21.166  13.899
36736W        W 8462  18.390   8.814  13.011
36737W        W 8463  43.046  43.803   2.270
36738W        W 8464  10.912  10.253   0.304
36739W        W 8465  32.066  26.493  11.148
36740W        W 8466  40.114  23.197   3.282
36741W        W 8467  28.505  23.499   4.666
36742W        W 8468  32.950  31.242  11.214
36743W        W 8469  34.505   7.525   2.939
36744W        W 8470  25.024   4.683  12.819
36745W        W 8471  10.431   6.402   4.116
36746W        W 8472   4.485  39.057   1.336
36747W        W 8473  31.006   1.994   2.301
36748W        W 8474  23.242  39.216   1.799
36749W        W 8475  34.934  29.464  13.100
36750W        W 8476  38.448  11.310   2.730
36751W        W 8477  25.101   0.716   5.053
36752W        W 8478  27.992  32.030   2.156
36753W        W 8479  32.556  43.000  10.670
36754W        W 8480  12.765   0.460   1.335
36755W        W 8481  15.690  12.620   4.032
36756W        W 8482  12.648  29.427  11.947
36757W        W 8483   1.617  17.770   3.839
36758W        W 8484  13.860  29.906   2.814
36759W        W 8485  38.668  31.625   1.802
36760W        W 8486  19.690  35.685  10.529
36761W        W 8487  18.135  12.366  14.307
36762W        W 8488  36.464  12.628  12.646
36763W        W 8489  42.536  34.636   0.453
36764W        W 8490  17.291   4.382   5.060
36765W        W 8491   7.807  18.568   0.911
36766W        W 8492   6.771  23.596  14.961
36767W        W 8493  11.748  14.265   3.404
36768W        W 8494  11.282  27.026   1.778
36769W        W 8495   2.503  12.852   4.611
36770W        W 8496  17.751  41.412   0.027
36771W        W 8497  19.305  36.889   1.237
36772W        W 8498   7.256  21.196  12.412
36773W        W 8499  10.493  27.688  11.563
36774W        W 8500   6.613  10.243   5.135
36775W        W 8501   6.454  39.517  10.464
36776W        W 8502  24.447  36.940   3.372
36777W        W 8503  14.868   7.330   2.764
36778W        W 8504  29.083  19.461   4.268
36779W        W 8505  30.881  42.716  13.321
36780W        W 8506   8.909  41.088  11.068
36781W        W 8507   7.559  14.429   4.014
36782W        W 8508   3.213  13.050  14.533
36783W        W 8509  33.750   2.715  14.290
36784W        W 8510   2.902  37.221  11.025
36785W        W 8511  29.580  36.891   3.042
36786W        W 8512  35.977  28.163   2.860
36787W        W 8513  39.448  18.135  11.871
36788W        W 8514   6.398  36.195  13.426
36789W        W 8515  30.108  19.258   2.229
36790W        W 8516  24.068  36.844  11.158
36791W        W 8517  43.108  25.753  11.058
36792W        W 8518  31.550  33.652   3.160
36793W        W 8519  24.025   7.553   3.613
36794W        W 8520   8.961  27.110  13.957
36795W        W 8521  20.455  10.079  13.962
36796W        W 8522   7.908   9.430   2.854
36797W        W 8523  35.391   2.448  12.958
36798W        W 8524  41.605  14.373   3.154
36799W        W 8525  24.025  26.616   1.380
36800W        W 8526  32.004  25.356   4.217
36801W        W 8527   3.856  42.662   3.175
36802W        W 8528  34.403   9.480   3.451
36803W        W 8529  39.942   5.745  10.405
36804W        W 8530  13.633  10.224  10.402
36805W        W 8531   7.327  17.647   1.786
36806W        W 8532   6.467  32.978   0.294
36807W        W 8533  10.416   6.390  12.924
36808W        W 8534  15.713  19.791  12.208
36809W        W 8535   0.279  12.938   4.606
36810W        W 8536  24.078  28.564   2.229
36811W        W 8537  29.643  24.458   0.455
36812W        W 8538  38.145   4.614  11.987
36813W        W 8539  25.455  41.496   4.578
36814W        W 8540  21.646  26.960  14.223
36815W        W 8541  19.765  20.650  12.605
36816W        W 8542  18.797   1.927  13.960
36817W        W 8543  22.192  38.411  12.308
36818W        W 8544  31.431  10.209  10.353
36819W        W 8545  17.631  39.806   0.217
36820W        W 8546  17.149  28.963  14.296
36821W        W 8547  31.037  27.659  14.051
36822W        W 8548  28.856  12.005   0.281
36823W        W 8549  11.868   7.209  14.956
36824W        W 8550  12.488  31.653   1.230
36825W        W 8551   8.353  39.825   0.994
36826W        W 8552   6.093   7.120   5.441
36827W        W 8553  20.269  11.374   1.418
36828W        W 8554  15.333  42.095  14.034
36829W        W 8555  18.629  26.802  13.411
36830W        W 8556  43.515  29.017  10.738
36831W        W 8557  31.413   0.300  14.881
36832W        W 8558   2.179  14.893  14.538
36833W        W 8559  34.344  27.891   3.701
36834W        W 8560  40.886   3.533   2.421
36835W        W 8561  35.149   2.048   3.732
36836W        W 8562  29.459  32.994  12.530
36837W        W 8563  11.388   5.135  14.844
36838W        W 8564  32.506  15.986   0.845
36839W        W 8565  39.348   4.937  14.977
36840W        W 8566  25.093  32.653  12.432
36841W        W 8567  32.481   5.845  11.916
36842W        W 8568  43.798  44.202   4.419
36843W        W 8569  32.199   6.798   1.411
36844W        W 8570  42.811  28.628   3.921
36845W        W 8571   7.984  29.520  14.093
36846W        W 8572  40.268  10.584   3.682
36847W        W 8573   7.786   7.929  13.989
36848W        W 8574   7.593  43.696   3.352
36849W        W 8575  14.085  21.671  11.535
36850W        W 8576  43.597  27.062  13.116
36851W        W 8577   1.372  38.083   1.901
36852W        W 8578  31.174  38.568  13.129
36853W        W 8579  19.687  44.093   3.679
36854W        W 8580  30.994  38.136  11.853
36855W        W 8581  37.754  40.564   3.781
36856W        W 8582   5.650  16.681  14.037
36857W        W 8583   5.108   7.492  10.233
36858W        W 8584  30.569  32.008  14.850
36859W        W 8585  22.145  17.146   1.212
36860W        W 8586  13.909   2.849  10.746
36861W        W 8587  39.051  10.885   2.878
36862W        W 8588  16.070   5.708  14.811
36863W        W 8589  16.557  30.377  12.529
36864W        W 8590  38.499  16.028   2.800
36865W        W 8591  24.234  17.704   1.196
36866W        W 8592   4.877  36.056   1.928
36867W        W 8593  12.823  42.764  13.486
36868W        W 8594  36.347   7.242   3.768
36869W        W 8595  19.468  17.531   4.427
36870W        W 8596   7.894  23.140   1.657
36871W        W 8597   8.718  37.900   4.759
36872W        W 8598  18.614   7.509  13.571
36873W        W 8599   8.119  11.481   3.586
36874W        W 8600  20.993  26.429   0.271
36875W        W 8601   8.607  33.553   5.184
36876W        W 8602   5.322   4.525   4.079
36877W        W 8603   7.826  38.249   3.715
36878W        W 8604   8.202  13.663  12.053
36879W        W 8605  10.930   2.948   1.977
36880W        W 8606  38.561  40.319   3.641
36881W        W 8607  25.909  19.627  14.030
36882W        W 8608  13.316   7.227   5.059
36883W        W 8609  42.399  39.141  13.576
36884W        W 8610  28.605   6.367  10.601
36885W        W 8611   1.379   6.352   0.319
36886W        W 8612  30.329  29.641   1.876
36887W        W 8613  14.287  21.428   1.403
36888W        W 8614   2.178  24.591  12.384
36889W        W 8615  11.812  29.941  14.912
36890W        W 8616  11.239  39.036   2.818
36891W        W 8617  27.640   9.891   4.097
36892W        W 8618  11.592   8.652   1.775
36893W        W 8619  23.039  12.886   3.265
36894W        W 8620  14.098   4.180   3.351
36895W        W 8621   6.952  28.067   3.549
36896W        W 8622  27.536   3.212   2.280
36897W        W 8623   3.416  25.587   4.596
36898W        W 8624  33.208  35.628   1.680
36899W        W 8625  41.327   0.515   0.393
36900W        W 8626  31.468  42.590  14.680
36901W        W 8627  28.981   1.711   1.252
36902W        W 8628  16.752   6.494   0.284
36903W        W 8629  26.636  24.969   0.301
36904W        W 8630  43.576  18.593  14.347
36905W        W 8631  40.972  11.307  14.912
36906W        W 8632  28.686   0.739  11.099
36907W        W 8633  19.582  12.125   1.294
36908W        W 8634   6.843  29.490   0.511
36909W        W 8635  12.109  32.417  12.411
36910W        W 8636   9.338  40.588  13.307
36911W        W 8637  31.130  18.417   5.104
36912W        W 8638   0.864  40.525   3.071
36913W        W 8639  17.263  15.753  12.373
36914W        W 8640  13.757  36.983  12.058
36915W        W 8641   4.862  40.873   2.369
36916W        W 8642  44.803  41.540   4.727
36917W        W 8643  42.704   4.272   2.817
36918W        W 8644  13.558   1.969  13.317
36919W        W 8645  41.217  17.552  10.640
36920W        W 8646  27.471  42.696  11.998
36921W        W 8647   8.238   0.287  13.458
36922W        W 8648   8.248  22.849  13.905
36923W        W 8649  15.839   6.007   2.837
36924W        W 8650  15.110  27.129   3.790
36925W        W 8651  42.447  30.702  12.433
36926W        W 8652  27.899  17.239   2.327
36927W        W 8653  42.788   3.429  13.473
36928W        W 8654  36.576   9.817   1.324
36929W        W 8655  33.030  23.502  11.605
36930W        W 8656  18.269   5.935   3.125
36931W        W 8657   2.846  33.598   1.775
36932W        W 8658  26.460  24.057   4.623
36933W        W 8659  19.829  41.854  11.606
36934W        W 8660   1.089  40.684   2.638
36935W        W 8661  21.880  32.476  12.693
36936W        W 8662  12.668  23.912  11.166
36937W        W 8663  41.772   3.775  13.014
36938W        W 8664  15.587  10.292   5.351
36939W        W 8665  38.877   3.359   2.122
36940W        W 8666  39.786  15.610   4.074
36941W        W 8667  38.947  11.239   1.492
36942W        W 8668  17.763  18.815   3.697
36943W        W 8669  18.710  41.550   4.659
36944W        W 8670   3.268   1.748   4.607
36945W        W 8671   0.765  38.998  11.069
36946W        W 8672  25.237   9.886  14.036
36947W        W 8673  32.693   7.924   0.687
36948W        W 8674  41.414  32.905  12.535
36949W        W 8675  40.469  11.156  11.143
36950W        W 8676  20.102  25.201   1.694
36951W        W 8677  36.031  36.520  12.093
36952W        W 8678   3.423   7.179   4.800
36953W        W 8679  10.659   1.945   2.838
36954W        W 8680  37.972  25.655   4.804
36955W        W 8681  26.721  21.074   4.234
36956W        W 8682  30.345  44.921  14.379
36957W        W 8683  29.673  38.491   3.112
36958W        W 8684  23.492  34.698   0.645
36959W        W 8685  26.479   3.187  12.102
36960W        W 8686  15.695  16.333  14.917
36961W        W 8687   1.984  26.375  11.207
36962W        W 8688  27.296  13.371   3.616
36963W        W 8689  15.351   9.671  12.388
36964W        W 8690   9.156   7.767   2.176
36965W        W 8691  17.305   3.876  11.421
36966W        W 8692  22.298  32.866  12.515
36967W        W 8693  40.853  21.064  14.967
36968W        W 8694  20.058  10.148   0.958
36969W        W 8695   2.873   8.172   1.655
36970W        W 8696  37.834  17.840   3.807
36971W        W 8697  14.527  29.115   2.816
36972W        W 8698  15.372  34.438   1.220
36973W        W 8699  14.671   7.923  11.112
36974W        W 8700  16.510   6.741   4.167
36975W        W 8701  16.233  21.262   2.731
36976W        W 8702  27.459  42.775   4.350
36977W        W 8703   6.307   2.248  13.183
36978W        W 8704  32.620  22.163  13.040
36979W        W 8705  34.407  14.829   0.256
36980W        W 8706  30.490   0.877   0.390
36981W        W 8707  14.681  17.780   4.580
36982W        W 8708  18.040  39.034   3.561
36983W        W 8709  13.833  38.514  12.025
36984W        W 8710  24.223  26.592   3.703
36985W        W 8711   9.445  39.937   1.886
36986W        W 8712  19.138  29.888   1.635
36987W        W 8713  36.663  24.112  10.765
36988W        W 8714  41.913  22.093  13.070
36989W        W 8715  43.968   4.311  11.965
36990W        W 8716   5.522  32.200   3.675
36991W        W 8717  30.914  17.711   4.469
36992W        W 8718  42.703  27.309   3.887
36993W        W 8719  26.637  16.609  12.494
36994W        W 8720  29.907  21.174   4.602
36995W        W 8721   2.515  31.915   2.923
36996W        W 8722  23.764  32.303  12.025
36997W        W 8723  44.987  23.654   0.718
36998W        W 8724  13.222  11.114  11.524
36999W        W 8725  29.221  13.760  10.947
37000W        W 8726  39.888  41.940  12.341
37001W        W 8727  27.139  11.382   1.917
37002W        W 8728  10.077   1.430   3.735
37003W        W 8729  28.218  30.682  10.948
37004W        W 8730  34.038   5.851   3.471
37005W        W 8731   4.772  42.920   3.674
37006W        W 8732  26.451  32.464  13.789
37007W        W 8733   4.799   4.522   2.255
37008W        W 8734  21.678  20.551  13.044
37009W        W 8735  38.061  27.949  10.214
37010W        W 8736  33.575  34.817   1.292
37011W        W 8737   4.994  20.703  12.445
37012W        W 8738  29.778  31.473  13.031
37013W        W 8739  23.571   5.420   4.653
37014W        W 8740   4.900  24.448   0.390
37015W        W 8741   9.792  27.710  12.467
37016W        W 8742   2.395  41.300  10.340
37017W        W 8743  28.586  33.336  14.875
37018W        W 8744  15.631   0.043  12.537
37019W        W 8745  21.911  18.791  11.105
37020W        W 8746  36.487  35.507   1.643
37021W        W 8747  43.022  35.966  13.294
37022W        W 8748  17.165   7.191   1.680
37023W        W 8749  41.973  20.945   0.986
37024W        W 8750  12.478   8.859   3.331
37025W        W 8751   2.356  34.861   3.602
37026W        W 8752   4.748  41.791  11.949
37027W        W 8753  26.863  24.578  14.389
37028W        W 8754  32.311   4.166   1.916
37029W        W 8755   8.505  24.871  13.985
37030W        W 8756  25.049  29.807   3.629
37031W        W 8757  24.818  18.361  11.112
37032W        W 8758  13.403  12.824   0.975
37033W        W 8759  13.691   5.416   2.670
37034W        W 8760   9.780  44.266   2.858
37035W        W 8761  17.301  23.051  12.315
37036W        W 8762  30.789  44.731   1.112
37037W        W 8763   9.324  13.106   0.398
37038W        W 8764  36.366  10.848   4.092
37039W        W 8765  40.432   2.411  14.270
37040W        W 8766  27.167  24.086   1.799
37041W        W 8767   4.677  25.740  13.606
37042W        W 8768  32.573  30.846  11.921
37043W        W 8769  19.705  27.384  12.390
37044W        W 8770  12.681  37.044  11.164
37045W        W 8771  24.576  22.561   1.923
37046W        W 8772   1.855   7.412  13.359
37047W        W 8773  22.937  34.162   1.784
37048W        W 8774  13.832   1.855  10.962
37049W        W 8775  41.418  21.513  10.632
37050W        W 8776  15.434  35.626   0.416
37051W        W 8777  35.020  39.901   1.448
37052W        W 8778  42.056  26.394   0.866
37053W        W 8779   9.679  18.894   1.643
37054W        W 8780  33.405  21.527  12.968
37055W        W 8781  43.571  44.452  13.021
37056W        W 8782  29.170  39.354  14.792
37057W        W 8783  42.499  37.607   0.203
37058W        W 8784   9.489   9.931  14.523
37059W        W 8785   9.774  21.291  12.421
37060W        W 8786  33.466  12.881   4.637
37061W        W 8787   6.651  18.066  14.455
37062W        W 8788  42.199   6.585   4.715
37063W        W 8789  14.570  42.756  14.867
37064W        W 8790  11.195  38.149  10.708
37065W        W 8791  41.836  30.873   4.476
37066W        W 8792   0.991  10.662   4.539
37067W        W 8793  26.562  30.942   4.628
37068W        W 8794  21.785  27.968  14.365
37069W        W 8795   9.536  31.405  14.793
37070W        W 8796  14.199  34.877  11.443
37071W        W 8797  25.806  27.139  12.932
37072W        W 8798  41.541  30.901   1.371
37073W        W 8799   9.785  26.915   0.338
37074W        W 8800  22.238  35.908  11.877
37075W        W 8801  25.660  11.382   1.966
37076W        W 8802  31.457  17.544  14.965
37077W        W 8803  38.382  23.515   0.886
37078W        W 8804   2.603   4.622   9.857
37079W        W 8805  24.913  29.952  11.513
37080W        W 8806  17.488  17.643   2.394
37081W        W 8807   4.459  40.053   1.484
37082W        W 8808  19.276   9.383   2.759
37083W        W 8809   9.620   1.491   4.662
37084W        W 8810  22.728  17.273   5.183
37085W        W 8811  40.507   0.406  11.844
37086W        W 8812  20.347  23.668  10.291
37087W        W 8813  42.236  43.721   2.643
37088W        W 8814  32.018  17.115  10.342
37089W        W 8815  21.020  10.604  11.167
37090W        W 8816  10.336  32.575   3.542
37091W        W 8817  39.315  33.282  11.598
37092W        W 8818  14.241  18.242   0.339
37093W        W 8819  43.996  30.916   1.713
37094W        W 8820   1.784  10.367   2.828
37095W        W 8821  35.833  20.190   2.892
37096W        W 8822  42.019   3.263   0.727
37097W        W 8823   4.614  15.206  14.466
37098W        W 8824  26.693  11.823   0.761
37099W        W 8825  34.118   2.406  13.368
37100W        W 8826  19.622  38.352   4.605
37101W        W 8827  10.596  32.180   3.111
37102W        W 8828   3.667  27.713  12.053
37103W        W 8829  43.257  11.510   3.755
37104W        W 8830  22.071  15.875  11.843
37105W        W 8831   0.394   2.871  14.087
37106W        W 8832  34.092  20.188  11.852
37107W        W 8833  25.719  28.065   1.336
37108W        W 8834   8.676   7.430   3.363
37109W        W 8835  42.855  19.369   1.850
37110W        W 8836  26.999   1.278   9.993
37111W        W 8837  10.835  24.089   5.198
37112W        W 8838  33.032  32.184  11.651
37113W        W 8839   1.551  30.472   3.290
37114W        W 8840  38.409  18.175   0.342
37115W        W 8841  20.675  21.381  14.491
37116W        W 8842  42.276  19.730  11.463
37117W        W 8843   1.244  20.180   3.244
37118W        W 8844  26.131   4.351  10.637
37119W        W 8845   0.227   1.862  14.241
37120W        W 8846  14.162  38.778  13.307
37121W        W 8847  13.855  41.919   1.815
37122W        W 8848  10.380  32.159  11.216
37123W        W 8849   5.810   6.193   9.974
37124W        W 8850  27.124  27.424   1.259
37125W        W 8851  11.751   4.411   3.300
37126W        W 8852  44.283  36.418  13.209
37127W        W 8853   0.230  19.174   0.531
37128W        W 8854  24.930  38.425   4.548
37129W        W 8855  16.675  28.710  11.637
37130W        W 8856  20.705  44.929  14.984
37131W        W 8857  43.967   9.340   0.431
37132W        W 8858  27.297  26.458   0.112
37133W        W 8859  26.109  10.389   4.359
37134W        W 8860  27.484  15.488  12.268
37135W        W 8861   7.858   8.902   4.527
37136W        W 8862  10.759  21.043  10.829
37137W        W 8863  25.771  14.251  12.937
37138W        W 8864   2.052  22.971  13.326
37139W        W 8865  27.134  34.791   4.347
37140W        W 8866   9.596  38.710  14.997
37141W        W 8867  18.028  27.454  13.210
37142W        W 8868  16.744  42.729  11.243
37143W        W 8869  25.855   2.052  14.416
37144W        W 8870  19.224  26.211  11.711
37145W        W 8871  26.028   6.943   3.819
37146W        W 8872  10.195  23.157  11.613
37147W        W 8873  24.803  32.195  14.341
37148W        W 8874  44.760  39.367   0.436
37149W        W 8875  13.198  26.922  14.050
37150W        W 8876  44.763  42.774   0.311
37151W        W 8877  12.403  42.358   1.320
37152W        W 8878  33.469   3.937   4.390
37153W        W 8879  42.328   7.311  14.697
37154W        W 8880  32.871  25.454   5.029
37155W        W 8881  36.795  17.355   5.027
37156W        W 8882   4.650  13.930   2.292
37157W        W 8883   6.783  42.874  11.535
37158W        W 8884  28.133  12.895  12.503
37159W        W 8885   7.198  13.663  11.736
37160W        W 8886  18.480  44.225  14.983
37161W        W 8887  19.025  41.899   2.846
37162W        W 8888  44.902  20.615  11.524
37163W        W 8889  12.540  36.821  14.818
37164W        W 8890   8.280  32.163   3.317
37165W        W 8891   8.601   5.152  10.707
37166W        W 8892  36.536  42.860  12.583
37167W        W 8893  31.379  38.791   1.242
37168W        W 8894  34.126  24.973   3.870
37169W        W 8895  27.152  23.516   4.834
37170W        W 8896   0.735  14.096  11.980
37171W        W 8897  41.207  38.416   1.284
37172W        W 8898   8.705  17.409  11.415
37173W        W 8899  12.155  38.907   0.538
37174W        W 8900   7.291  40.730   4.524
37175W        W 8901   1.882   6.137  14.459
37176W        W 8902  17.703  37.336   4.382
37177W        W 8903   7.298  26.611  12.904
37178W        W 8904  30.553  15.624   3.790
37179W        W 8905  24.277   8.873  10.308
37180W        W 8906   2.476  17.171   4.129
37181W        W 8907  26.392  42.052   4.335
37182W        W 8908  18.999   1.171  11.648
37183W        W 8909   6.665  37.283  12.831
37184W        W 8910  21.900  14.550   4.196
37185W        W 8911  38.381  41.131   2.277
37186W        W 8912  33.800  33.503  12.894
37187W        W 8913  39.489   6.679   1.921
37188W        W 8914   5.216  40.321  10.572
37189W        W 8915   5.665  21.808   1.452
37190W        W 8916  23.123  14.870  13.233
37191W        W 8917  43.322  29.911  13.336
37192W        W 8918   0.954  38.618   0.543
37193W        W 8919  44.083   7.735  12.919
37194W        W 8920   4.033  36.183  12.050
37195W        W 8921  35.375   9.252   2.365
37196W        W 8922  29.451   0.267   1.510
37197W        W 8923  35.346  23.614   2.748
37198W        W 8924   3.301  11.646   2.269
37199W        W 8925  13.592  10.221  12.830
37200W        W 8926  12.800   7.432  13.544
37201W        W 8927  14.052  22.600   4.364
37202W        W 8928  28.428   6.254  14.068
37203W        W 8929  21.992  28.910   2.188
37204W        W 8930  19.228  13.619   3.952
37205W        W 8931  10.353   5.613   5.020
37206W        W 8932  18.579  42.566   1.330
37207W        W 8933  29.131  31.379   1.471
37208W        W 8934  38.363  29.964  14.431
37209W        W 8935  37.002  25.126   2.993
37210W        W 8936  37.875   3.255  12.904
37211W        W 8937   7.123  41.884  13.903
37212W        W 8938   4.304   3.318  11.202
37213W        W 8939  19.098  20.571  10.734
37214W        W 8940  19.995   7.323   0.783
37215W        W 8941  37.619  15.633  10.667
37216W        W 8942   1.919  35.202   5.150
37217W        W 8943   6.904  23.942  11.161
37218W        W 8944  11.059  22.292  11.093
37219W        W 8945  38.385  21.964  13.528
37220W        W 8946  17.144  23.678   4.979
37221W        W 8947  40.073  34.663   4.759
37222W        W 8948  23.486   0.796   4.551
37223W        W 8949  20.633  34.133   2.740
37224W        W 8950  24.653   6.989  12.932
37225W        W 8951   7.313  37.050   3.801
37226W        W 8952  39.980   0.057  10.859
37227W        W 8953   0.038  20.249   0.823
37228W        W 8954  11.512  15.814   3.360
37229W        W 8955  17.334  26.750  12.957
37230W        W 8956  24.049  34.013  14.464
37231W        W 8957   6.816  11.206   1.835
37232W        W 8958   9.757   6.285   2.956
37233W        W 8959  39.061  17.798  11.964
37234W        W 8960   0.355   6.405   4.252
37235W        W 8961  43.462  31.228  13.914
37236W        W 8962   4.804  38.854   1.890
37237W        W 8963  11.890  23.019   4.349
37238W        W 8964  18.252  16.393  14.499
37239W        W 8965  22.473   9.209  13.413
37240W        W 8966  36.930   8.593  11.564
37241W        W 8967  44.145  27.496  12.897
37242W        W 8968  37.501  10.091  11.859
37243W        W 8969  36.031  35.114   3.303
37244W        W 8970   9.814  15.710   2.709
37245W        W 8971  33.936  39.356  14.912
37246W        W 8972  24.743   0.753  12.012
37247W        W 8973  18.968  21.446  10.595
37248W        W 8974  36.891  42.665  11.242
37249W        W 8975   6.320  26.075   0.278
37250W        W 8976   6.663  11.732   1.654
37251W        W 8977  40.934   3.470  11.606
37252W        W 8978  30.556  29.710  13.100
37253W        W 8979  29.848  38.914   3.396
37254W        W 8980   0.755  10.825   0.200
37255W        W 8981  11.196   8.273  13.013
37256W        W 8982  33.943  41.023   1.891
37257W        W 8983  17.873  12.308   3.192
37258W        W 8984   0.019  16.762  12.941
37259W        W 8985  24.964  14.955   9.563
37260W        W 8986  12.244  44.877   1.317
37261W        W 8987  35.205   9.781   2.197
37262W        W 8988   8.662   7.830   2.939
37263W        W 8989  28.359  14.195   0.963
37264W        W 8990  21.091  13.903   4.955
37265W        W 8991  27.585  15.069   0.282
37266W        W 8992  19.757  21.089  10.948
37267W        W 8993  41.900   1.595  10.187
37268W        W 8994  24.459  11.791   1.963
37269W        W 8995   3.885  44.858   0.023
37270W        W 8996   1.816  18.516   2.200
37271W        W 8997  16.633  29.948  11.673
37272W        W 8998  39.441  30.944  13.375
37273W        W 8999  17.138  21.004  13.508
37274W        W 9000  41.025  27.981  13.429
37275W        W 9001   9.151  14.170   4.593
37276W        W 9002  25.738  42.845  10.693
37277W        W 9003   7.124  29.634  14.588
37278W        W 9004  20.705  34.352  14.248
37279W        W 9005  18.108  25.454  10.458
37280W        W 9006  12.297  38.800   1.442
37281W        W 9007  32.365  15.742   2.723
37282W        W 9008  28.189   2.791  14.625
37283W        W 9009  22.269  18.011  11.565
37284W        W 9010  23.089   6.174   3.704
37285W        W 9011  38.541  29.559  13.558
37286W        W 9012  13.261  17.259   4.622
37287W        W 9013  23.599  18.737  12.506
37288W        W 9014  14.746   0.217  14.832
37289W        W 9015  14.880   1.884   2.157
37290W        W 9016  28.641  33.856  11.094
37291W        W 9017  32.445   1.518  10.762
37292W        W 9018  13.363  27.599  14.905
37293W        W 9019  17.748   9.135  11.592
37294W        W 9020  14.322  39.538   3.757
37295W        W 9021  30.603  25.401   4.159
37296W        W 9022  14.818   0.570   2.671
37297W        W 9023  34.293  40.558   0.352
37298W        W 9024  44.345   6.791  13.044
37299W        W 9025  25.097  30.525  14.488
37300W        W 9026   7.123  21.411  11.065
37301W        W 9027  27.546  38.379  11.875
37302W        W 9028  24.062  31.929   0.710
37303W        W 9029  27.549   5.260  11.970
37304W        W 9030   2.534  14.316   3.257
37305W        W 9031   7.993  11.385   1.782
37306W        W 9032  29.087   4.318  11.463
37307W        W 9033  18.312  41.352  12.563
37308W        W 9034   0.674  18.236  14.909
37309W        W 9035  22.117  20.112  10.509
37310W        W 9036  24.577   9.321  13.950
37311W        W 9037   3.071  27.991   4.154
37312W        W 9038   5.748  12.262   1.861
37313W        W 9039  40.075  33.001  13.413
37314W        W 9040  16.147  32.892  13.903
37315W        W 9041  38.037  44.865   1.681
37316W        W 9042   8.468  13.702  13.567
37317W        W 9043   6.818  31.196   2.756
37318W        W 9044  36.697  20.502  12.440
37319W        W 9045  20.450   9.133  14.834
37320W        W 9046  24.483  26.018   2.651
37321W        W 9047  16.168  36.056  10.716
37322W        W 9048  43.765   7.669   1.863
37323W        W 9049  32.034   6.104   2.375
37324W        W 9050  40.995  24.450   0.579
37325W        W 9051   7.942  11.397   0.823
37326W        W 9052  44.268  42.844   0.438
37327W        W 9053  30.627  15.569  14.830
37328W        W 9054  15.522  13.810   0.908
37329W        W 9055  42.633  11.559  11.861
37330W        W 9056   9.180  27.297  11.018
37331W        W 9057   3.038  20.722  11.713
37332W        W 9058  37.371   0.317   2.132
37333W        W 9059  13.605  14.854  12.829
37334W        W 9060   3.886   5.445  12.674
37335W        W 9061  29.149   2.867  11.144
37336W        W 9062  35.677  29.218   0.855
37337W        W 9063  15.627  17.021   4.754
37338W        W 9064  23.527  26.995  12.493
37339W        W 9065   4.826  36.920  14.510
37340W        W 9066  15.252   6.140  12.389
37341W        W 9067  23.091  35.168  10.451
37342W        W 9068   8.808  35.040   2.169
37343W        W 9069  15.305  10.193   3.261
37344W        W 9070  32.990  36.054  11.891
37345W        W 9071  42.034   7.389   4.942
37346W        W 9072  16.594   5.752  14.730
37347W        W 9073  29.747  22.617   0.202
37348W        W 9074  42.469  28.291  11.025
37349W        W 9075  15.702  11.141  11.181
37350W        W 9076   0.030   6.785   4.283
37351W        W 9077   0.435  11.690   3.486
37352W        W 9078  39.029  21.216  10.326
37353W        W 9079  31.961   4.717   3.088
37354W        W 9080   7.433   5.693   4.543
37355W        W 9081   3.998  38.793  14.338
37356W        W 9082  17.980   9.597   0.356
37357W        W 9083  27.331  24.829   4.878
37358W        W 9084   2.829   1.892  13.636
37359W        W 9085  39.068  31.951  12.050
37360W        W 9086  10.717  16.428   4.205
37361W        W 9087  32.097  33.014  12.150
37362W        W 9088  14.704  40.805  12.987
37363W        W 9089  44.375  26.238   4.161
37364W        W 9090  11.333  26.973  13.074
37365W        W 9091   4.627  26.785   1.823
37366W        W 9092  41.432  10.886   0.475
37367W        W 9093  27.584  23.719   3.217
37368W        W 9094  10.671  22.062   1.291
37369W        W 9095   9.258   8.778   4.117
37370W        W 9096  34.539   2.760   0.910
37371W        W 9097   1.851   4.023   4.396
37372W        W 9098   6.210  12.226   2.700
37373W        W 9099  14.842   7.127   1.632
37374W        W 9100  42.215  37.963   1.874
37375W        W 9101  34.432  34.582   2.964
37376W        W 9102  44.014  24.080   3.224
37377W        W 9103   6.471  37.562  12.354
37378W        W 9104  19.606  21.257  14.805
37379W        W 9105  43.956  16.679   3.744
37380W        W 9106  22.548  11.404  12.950
37381W        W 9107  33.491   4.373   0.787
37382W        W 9108  42.034  29.383   3.216
37383W        W 9109   8.283  14.077   2.929
37384W        W 9110   5.699  36.295  11.467
37385W        W 9111  38.657  23.037  11.544
37386W        W 9112  26.727  31.901   0.827
37387W        W 9113  32.078  10.346  13.971
37388W        W 9114  35.531  18.824   0.903
37389W        W 9115  40.096  23.758   0.414
37390W        W 9116  43.843  40.446  11.067
37391W        W 9117  14.579  16.662   3.756
37392W        W 9118  24.548  19.787  13.821
37393W        W 9119  34.858  30.104   2.840
37394W        W 9120  34.067   9.912  11.331
37395W        W 9121  11.291  31.938   3.313
37396W        W 9122  18.271  43.605   4.264
37397W        W 9123  10.906  12.708   0.769
37398W        W 9124   1.353  13.546  14.385
37399W        W 9125   9.120  38.196   2.086
37400W        W 9126  30.360  23.780  10.188
37401W        W 9127  37.835  21.552  12.461
37402W        W 9128  39.102  22.968  14.270
37403W        W 9129  39.119   8.470   1.727
37404W        W 9130  34.531  30.664   0.547
37405W        W 9131  40.146  24.635  13.459
37406W        W 9132  19.756  25.614   1.688
37407W        W 9133  17.579  18.385   4.610
37408W        W 9134  10.839  32.505   3.544
37409W        W 9135   6.290  35.907  10.262
37410W        W 9136   9.947   6.842  11.505
37411W        W 9137  42.259   7.343  11.127
37412W        W 9138  32.539  12.251   2.287
37413W        W 9139  13.112  35.939   3.855
37414W        W 9140   7.874  14.669  11.100
37415W        W 9141  42.774   6.507   1.315
37416W        W 9142  34.105   7.971  13.462
37417W        W 9143  44.291  19.753   0.391
37418W        W 9144   7.120  25.567  13.945
37419W        W 9145  24.689   2.219  13.204
37420W        W 9146  11.223  11.822   3.627
37421W        W 9147  27.687  43.849   3.262
37422W        W 9148  17.368  29.834  14.424
37423W        W 9149  17.185  25.310   5.080
37424W        W 9150  15.747   7.325  10.704
37425W        W 9151  24.538  11.632  10.692
37426W        W 9152  35.335   5.920  11.469
37427W        W 9153  10.313   2.157  13.032
37428W        W 9154  22.506  21.141  13.962
37429W        W 9155   0.022  11.361  13.048
37430W        W 9156  18.286  30.625  12.134
37431W        W 9157  24.296   8.695  13.350
37432W        W 9158  13.181  10.432   1.049
37433W        W 9159   4.736  30.918  13.390
37434W        W 9160   3.768  28.602  13.539
37435W        W 9161   2.657  37.698   4.915
37436W        W 9162   8.172  26.049   0.838
37437W        W 9163  36.297  35.985   0.375
37438W        W 9164  18.242  19.213   4.774
37439W        W 9165  12.361  14.606   2.812
37440W        W 9166  26.122   3.456   3.769
37441W        W 9167  19.775  10.770  14.308
37442W        W 9168  15.191  41.774  13.608
37443W        W 9169  35.885  25.264   2.258
37444W        W 9170  10.824  32.556   1.679
37445W        W 9171  27.450  43.445  13.941
37446W        W 9172  26.909   1.352  13.934
37447W        W 9173   3.317  40.862   1.695
37448W        W 9174  32.256  42.616   1.282
37449W        W 9175  42.025   0.928  11.177
37450W        W 9176  19.989  19.703  12.074
37451W        W 9177  20.730  27.001   0.239
37452W        W 9178  30.842  42.906   1.342
37453W        W 9179  38.964  36.607  14.370
37454W        W 9180  15.771  32.158  12.472
37455W        W 9181  21.186  40.462   1.936
37456W        W 9182  44.876  27.209  10.622
37457W        W 9183  14.712  39.540  14.367
37458W        W 9184  30.667  18.388   1.092
37459W        W 9185  32.042  21.524  14.916
37460W        W 9186  39.861  42.824  12.847
37461W        W 9187  27.551  21.724  13.469
37462W        W 9188  43.746  30.648  11.135
37463W        W 9189  39.570  23.966  14.520
37464W        W 9190   0.720  23.414  14.525
37465W        W 9191  30.171  41.279  11.515
37466W        W 9192   9.661  24.682  14.653
37467W        W 9193  16.102  28.153   4.210
37468W        W 9194  36.868  41.380  11.995
37469W        W 9195   0.059  39.949   1.144
37470W        W 9196   7.769  33.025   2.377
37471W        W 9197  17.105  13.064  12.049
37472W        W 9198  25.074  39.385   2.016
37473W        W 9199  40.691  14.522  11.638
37474W        W 9200  16.582   4.246   2.449
37475W        W 9201   4.309  38.641   2.261
37476W        W 9202  10.823  43.088   1.341
37477W        W 9203  10.182  27.675  12.903
37478W        W 9204   9.261  11.056   4.797
37479W        W 9205  12.892   4.803  11.533
37480W        W 9206  20.318  15.479   1.228
37481W        W 9207  11.697  10.813  14.397
37482W        W 9208  19.126  39.800  14.448
37483W        W 9209  41.272  25.102  10.964
37484W        W 9210  11.151  26.000   4.671
37485W        W 9211  44.717  33.221  14.298
37486W        W 9212   9.393  37.045   0.705
37487W        W 9213  37.912   6.715  12.381
37488W        W 9214  28.053  23.846   3.439
37489W        W 9215   4.325   0.427   3.404
37490W        W 9216  24.149  39.024   2.880
37491W        W 9217  20.179  39.327   3.513
37492W        W 9218  19.708   8.238   3.647
37493W        W 9219  30.071  33.352   0.394
37494W        W 9220  34.497  29.168  12.421
37495W        W 9221  44.272  27.746  12.048
37496W        W 9222  27.974  43.503  13.892
37497W        W 9223  24.683   8.640   0.321
37498W        W 9224  33.888  30.051   2.847
37499W        W 9225  36.187  20.517  12.477
37500W        W 9226  23.219  22.214   1.192
37501W        W 9227  37.431  30.459  10.553
37502W        W 9228  40.918  39.533  10.638
37503W        W 9229   7.513  27.054  13.054
37504W        W 9230  24.521  18.691   0.697
37505W        W 9231  39.243  37.048   4.144
37506W        W 9232  35.988  37.926  14.299
37507W        W 9233   1.743  42.326   0.393
37508W        W 9234   8.346  15.006   3.169
37509W        W 9235  17.384  16.400  14.484
37510W        W 9236  17.894  30.157   3.882
37511W        W 9237  24.136   4.338   1.466
37512W        W 9238  37.257  42.862   2.795
37513W        W 9239  10.092  13.751   2.296
37514W        W 9240   3.068  34.674   3.150
37515W        W 9241  29.443  27.433   3.279
37516W        W 9242  17.122  41.958   0.259
37517W        W 9243  31.425  39.814   1.213
37518W        W 9244  11.035  37.650  13.771
37519W        W 9245  13.547   1.882  12.409
37520W        W 9246  44.296  35.136  13.918
37521W        W 9247   6.885  23.766  14.478
37522W        W 9248  33.840  41.215  11.695
37523W        W 9249  30.903  13.945  12.284
37524W        W 9250  26.466  11.286  13.385
37525W        W 9251  34.982   9.946   4.245
37526W        W 9252  38.872  35.224  13.042
37527W        W 9253  34.420  31.592   0.313
37528W        W 9254  28.599  22.842   4.084
37529W        W 9255   5.949   9.838  13.618
37530W        W 9256  31.488   8.215  11.344
37531W        W 9257  20.616  40.868  14.930
37532W        W 9258  13.000  43.021   5.062
37533W        W 9259  42.807  11.626   1.849
37534W        W 9260  28.857   4.312   2.698
37535W        W 9261  41.434  11.583   1.550
37536W        W 9262   8.027  34.635  13.987
37537W        W 9263  11.108  14.164   1.584
37538W        W 9264   5.334   3.778  14.731
37539W        W 9265  42.861  30.022  12.506
37540W        W 9266  17.807  40.409   2.282
37541W        W 9267  21.738  20.771   2.765
37542W        W 9268  15.632   7.509  14.246
37543W        W 9269  14.876  16.681  10.640
37544W        W 9270   8.643  36.486   0.853
37545W        W 9271  22.719   7.061  11.081
37546W        W 9272  34.126   8.272  11.441
37547W        W 9273  20.380   4.605   0.284
37548W        W 9274   0.184  23.375   2.736
37549W        W 9275  26.174  32.063  11.972
37550W        W 9276  14.083  34.021   1.386
37551W        W 9277  16.905  12.396   1.552
37552W        W 9278  36.848   5.350   4.175
37553W        W 9279   9.757  17.667  11.976
37554W        W 9280  18.043  27.139   0.329
37555W        W 9281  23.574  41.312  14.981
37556W        W 9282  23.341  31.099   0.413
37557W        W 9283  42.403   0.691  14.790
37558W        W 9284  44.766   0.984   1.735
37559W        W 9285  13.254  27.982   0.275
37560W        W 9286  20.547  22.649   4.630
37561W        W 9287  43.714   3.467   0.253
37562W        W 9288  35.471  26.517   3.237
37563W        W 9289  34.051  14.272   1.183
37564W        W 9290   1.293  27.060  13.273
37565W        W 9291  14.734   6.343   2.772
37566W        W 9292  27.035  13.669   4.962
37567W        W 9293  44.830  35.246  13.365
37568W        W 9294  17.209  22.435   1.603
37569W        W 9295  15.064  13.252   0.076
37570W        W 9296  23.709   0.222  11.497
37571W        W 9297  28.793  33.709   0.442
37572W        W 9298  22.685  15.231   1.160
37573W        W 9299  36.240  19.553  14.330
37574W        W 9300  44.331  39.049  12.443
37575W        W 9301  31.061   1.401   4.072
37576W        W 9302  41.911   1.090  13.478
37577W        W 9303   6.175  37.174  14.768
37578W        W 9304  36.028  34.440  11.231
37579W        W 9305  14.941  14.121  13.616
37580W        W 9306  30.537  33.086   1.542
37581W        W 9307  17.720  17.109  13.391
37582W        W 9308  44.521  41.848  11.916
37583W        W 9309   1.388  33.109   2.371
37584W        W 9310  43.492  30.018   4.681
37585W        W 9311  25.635  41.504   4.102
37586W        W 9312  38.293  16.583  14.088
37587W        W 9313   2.532  26.853   2.095
37588W        W 9314  25.946  15.183   3.265
37589W        W 9315  11.645  29.684   1.767
37590W        W 9316  36.246   4.677  13.517
37591W        W 9317  10.419  13.581   4.622
37592W        W 9318  18.288  31.439   2.406
37593W        W 9319   3.686   0.804  10.821
37594W        W 9320  12.350   5.791  12.841
37595W        W 9321  13.254  20.879  14.285
37596W        W 9322   0.347   9.854   2.650
37597W        W 9323  20.623  27.032  10.267
37598W        W 9324  15.841   5.683  10.853
37599W        W 9325  22.835  12.787  13.346
37600W        W 9326  41.293   3.950   3.112
37601W        W 9327  30.488  17.858   3.277
37602W        W 9328   5.421  37.587   4.375
37603W        W 9329   1.300  21.614   1.834
37604W        W 9330   2.163   2.344   2.231
37605W        W 9331  34.794  38.393   1.864
37606W        W 9332  13.875  37.096  12.550
37607W        W 9333  20.909  22.004  12.043
37608W        W 9334  24.463   9.671  13.590
37609W        W 9335   8.703   7.822   2.423
37610W        W 9336  34.535   7.361  12.498
37611W        W 9337  22.185   7.518  11.666
37612W        W 9338  36.085  42.073  14.919
37613W        W 9339  17.667  18.692  13.032
37614W        W 9340  38.539  37.988   2.686
37615W        W 9341  43.985   8.435  14.493
37616W        W 9342  39.340   7.945  11.120
37617W        W 9343  23.003  36.021  11.071
37618W        W 9344  20.040  38.299  12.102
37619W        W 9345  24.692  42.503   1.434
37620W        W 9346  25.113  42.513  10.999
37621W        W 9347  21.618  21.210  10.111
37622W        W 9348  34.511  30.012  12.828
37623W        W 9349  12.010  41.034  14.286
37624W        W 9350  21.579  22.464  11.143
37625W        W 9351   6.226  21.173  13.490
37626W        W 9352  32.694   8.406   4.273
37627W        W 9353  43.531  12.039  14.045
37628W        W 9354   3.708  21.872  14.468
37629W        W 9355  41.810   9.636   4.330
37630W        W 9356  17.694  15.370  11.160
37631W        W 9357  37.570  42.038  13.607
37632W        W 9358  12.781  26.965   2.754
37633W        W 9359  32.162  44.829  14.877
37634W        W 9360   1.458  21.195   1.481
37635W        W 9361  44.634   9.161  11.011
37636W        W 9362   5.644  12.830  11.044
37637W        W 9363  17.129   9.137   1.335
37638W        W 9364  12.112   0.532  11.566
37639W        W 9365  36.765  12.837  12.209
37640W        W 9366  12.244  26.179   2.206
37641W        W 9367  29.978  10.358  14.163
37642W        W 9368  15.907  21.642  11.385
37643W        W 9369   5.737  37.042  12.071
37644W        W 9370  32.331  16.335  14.519
37645W        W 9371  15.757   4.421   3.938
37646W        W 9372   6.127  42.751  10.248
37647W        W 9373   4.756  32.280   0.437
37648W        W 9374  36.334  21.950  12.460
37649W        W 9375  18.164  38.675   0.757
37650W        W 9376  44.941  12.689  11.614
37651W        W 9377   2.201  26.698   4.257
37652W        W 9378  39.462  33.887  10.634
37653W        W 9379  40.353  11.709  14.906
37654W        W 9380  35.008  24.887   2.154
37655W        W 9381  17.846  21.666   3.423
37656W        W 9382   3.644  39.164  11.902
37657W        W 9383  11.321  29.271   0.056
37658W        W 9384  18.152  20.799  10.698
37659W        W 9385  25.024  21.157  10.387
37660W        W 9386   0.153  43.482  13.895
37661W        W 9387  33.364  25.170   3.812
37662W        W 9388  34.284  20.785   4.152
37663W        W 9389   0.730  18.279  13.562
37664W        W 9390  41.845  15.770  14.600
37665W        W 9391  43.421   4.408  14.720
37666W        W 9392  27.359  36.541  13.324
37667W        W 9393  23.979  14.051  11.210
37668W        W 9394   1.233  41.737  12.512
37669W        W 9395  34.556  25.670   2.301
37670W        W 9396   6.046  36.675  14.821
37671W        W 9397  33.570  23.754  12.446
37672W        W 9398  36.511  30.253   1.224
37673W        W 9399  19.189   7.709   4.199
37674W        W 9400  41.420  36.409  12.404
37675W        W 9401  22.605  30.923   4.646
37676W        W 9402  40.062   2.933  11.537
37677W        W 9403  30.176  25.957   2.328
37678W        W 9404  20.697  16.531   1.915
37679W        W 9405  40.819   3.215  10.745
37680W        W 9406   5.738  19.994   1.254
37681W        W 9407   9.134  10.748  10.533
37682W        W 9408  21.597   1.767   3.381
37683W        W 9409  17.211  12.233  12.389
37684W        W 9410  25.501  27.943  10.731
37685W        W 9411   7.025   1.838   0.781
37686W        W 9412  36.970   3.592  12.790
37687W        W 9413  11.690  28.996  12.551
37688W        W 9414  30.648  23.290  13.070
37689W        W 9415  24.293   6.942   0.958
37690W        W 9416  35.956   2.011  10.695
37691W        W 9417  38.737   4.716   9.975
37692W        W 9418  29.583  36.930  13.295
37693W        W 9419  11.887  37.892  12.421
37694W        W 9420  19.977  31.767  12.130
37695W        W 9421  40.059  18.728   3.741
37696W        W 9422   0.633   8.908  13.153
37697W        W 9423  18.659  25.434  12.034
37698W        W 9424  11.778   7.638  13.435
37699W        W 9425   9.797  30.984   3.603
37700W        W 9426  21.549   3.278  14.874
37701W        W 9427  34.386   4.803   2.217
37702W        W 9428  38.049  25.062   1.779
37703W        W 9429  18.174  37.318   3.762
37704W        W 9430  35.635   2.899  13.146
37705W        W 9431  24.882  44.960   1.230
37706W        W 9432  31.919  23.212   5.079
37707W        W 9433   4.370   2.699   4.062
37708W        W 9434  25.511  35.758   0.489
37709W        W 9435  39.798  11.551  14.860
37710W        W 9436   8.797  43.476   4.154
37711W        W 9437  30.131  19.219   4.191
37712W        W 9438   2.332  32.909  14.419
37713W        W 9439  37.070  32.670   4.194
37714W        W 9440  42.972  38.336  11.477
37715W        W 9441  19.297  21.665  11.491
37716W        W 9442  34.300   5.378   3.252
37717W        W 9443  25.048  41.402  13.326
37718W        W 9444  32.494  13.927   2.963
37719W        W 9445   6.300  39.449   1.242
37720W        W 9446  13.246  42.130  11.659
37721W        W 9447   5.282  23.504  11.151
37722W        W 9448  18.678  32.645   3.828
37723W        W 9449  15.209  14.051  11.548
37724W        W 9450  30.236   5.932  11.203
37725W        W 9451  17.520  16.978   9.959
37726W        W 9452  11.313   1.277  10.730
37727W        W 9453   6.492  25.931   4.791
37728W        W 9454   4.303   6.976  11.398
37729W        W 9455   3.737  35.485   3.653
37730W        W 9456   4.801  35.569   2.794
37731W        W 9457  38.633  41.541   0.237
37732W        W 9458  42.410  21.628  14.496
37733W        W 9459  28.306  33.304  11.206
37734W        W 9460  28.270  14.588  12.545
37735W        W 9461  40.093  28.029  11.189
37736W        W 9462  34.396  15.551  14.954
37737W        W 9463  29.644  12.219   4.151
37738W        W 9464  23.127  36.933   4.737
37739W        W 9465  33.475  15.088   0.474
37740W        W 9466  31.579  31.491   2.288
37741W        W 9467  29.340   3.013  10.682
37742W        W 9468   7.430  14.062   2.547
37743W        W 9469  14.379  42.888   0.341
37744W        W 9470   0.360  14.010   3.384
37745W        W 9471  43.925  27.217   3.190
37746W        W 9472   3.381  32.467  10.574
37747W        W 9473  21.527  41.241  13.175
37748W        W 9474   0.890   2.887   4.574
37749W        W 9475   1.263  23.605  11.224
37750W        W 9476  24.163   0.370   0.489
37751W        W 9477   7.893  44.065  13.822
37752W        W 9478  18.690  30.305  11.940
37753W        W 9479  22.773  33.826  14.308
37754W        W 9480  29.710  24.969   4.222
37755W        W 9481   5.155   2.058   0.688
37756W        W 9482  30.269  44.998   0.275
37757W        W 9483  24.272  38.708   0.888
37758W        W 9484  29.933  17.728   0.317
37759W        W 9485  18.264  27.614  11.540
37760W        W 9486  24.252   0.848  13.787
37761W        W 9487  26.707   4.740   1.431
37762W        W 9488  36.342   2.313   4.429
37763W        W 9489  33.524  21.480  14.978
37764W        W 9490  15.515  42.020  10.633
37765W        W 9491  39.421  19.246   0.262
37766W        W 9492  24.144  28.623   3.186
37767W        W 9493  37.929  40.022   3.841
37768W        W 9494  26.960  23.187  13.109
37769W        W 9495  38.017  29.125  11.508
37770W        W 9496  18.360  23.293  12.353
37771W        W 9497   0.782   1.481  14.507
37772W        W 9498  16.478  26.248   0.033
37773W        W 9499   0.897   7.200   4.118
37774W        W 9500  11.201  24.156   4.760
37775W        W 9501  30.730  25.454   3.265
37776W        W 9502  32.990  29.412  14.852
37777W        W 9503  12.450  41.896   2.028
37778W        W 9504   6.607  28.411   4.479
37779W        W 9505  20.136  25.053   3.117
37780W        W 9506   3.669  29.978  10.733
37781W        W 9507  22.081  14.631   1.616
37782W        W 9508  34.796   9.811   3.302
37783W        W 9509  33.937  14.316   0.292
37784W        W 9510  39.766  34.602  14.092
37785W        W 9511  21.789  22.755  13.516
37786W        W 9512   3.826  18.323   4.546
37787W        W 9513  21.279  43.935   2.673
37788W        W 9514  17.270  42.313   3.796
37789W        W 9515  22.900   7.408  12.302
37790W        W 9516   4.527  37.664   1.365
37791W        W 9517  11.073   1.313  14.273
37792W        W 9518  30.830  19.555   4.528
37793W        W 9519  23.898  35.588  13.874
37794W        W 9520  22.587  37.983   3.997
37795W        W 9521   4.700  16.321   0.824
37796W        W 9522  41.577  42.501   0.895
37797W        W 9523  15.798  33.474   4.054
37798W        W 9524  32.990  25.499   3.626
37799W        W 9525  34.158  27.100  13.546
37800W        W 9526  33.599   3.714   0.028
37801W        W 9527   1.933  26.762  10.372
37802W        W 9528   5.812  30.138  14.749
37803W        W 9529  25.699  17.184  10.741
37804W        W 9530  16.269  10.821   4.190
37805W        W 9531  24.418  38.222   1.066
37806W        W 9532   8.845  16.036  12.951
37807W        W 9533  20.051  30.378   4.264
37808W        W 9534   9.143  11.313  12.250
37809W        W 9535  19.500  16.249   4.797
37810W        W 9536  27.753  43.383  14.367
37811W        W 9537  32.249  29.021  10.719
37812W        W 9538  20.240  26.918   4.409
37813W        W 9539  16.169   1.016  10.695
37814W        W 9540  12.304  35.155   0.543
37815W        W 9541  40.521  27.282  10.741
37816W        W 9542  11.654   0.398   0.474
37817W        W 9543  17.696  22.171   1.590
37818W        W 9544  18.254  29.212   2.250
37819W        W 9545  34.325  37.075   3.228
37820W        W 9546  41.710  18.052  12.529
37821W        W 9547  20.198   6.230  10.751
37822W        W 9548   5.434  33.385   2.272
37823W        W 9549   5.285  34.319  13.547
37824W        W 9550  19.227   9.700   3.638
37825W        W 9551   2.667  43.430  14.872
37826W        W 9552  14.772  38.459   5.286
37827W        W 9553  21.084  21.596   2.324
37828W        W 9554   9.920  22.817   2.438
37829W        W 9555  33.461  36.002  12.607
37830W        W 9556  15.707  31.402   3.754
37831W        W 9557  12.582  18.105  12.581
37832W        W 9558  38.859   0.420   4.571
37833W        W 9559   3.352  13.876   3.140
37834W        W 9560  10.724  35.201  14.960
37835W        W 9561  14.606  37.512   4.098
37836W        W 9562   1.313  20.561  11.937
37837W        W 9563   5.765  32.292  12.510
37838W        W 9564  13.876  44.424   4.193
37839W        W 9565  41.556  28.610   2.009
37840W        W 9566  30.452  27.116   5.084
37841W        W 9567  43.863  28.667   2.077
37842W        W 9568   4.515  44.866  14.977
37843W        W 9569   9.359  20.449  14.332
37844W        W 9570  38.233  34.885  11.823
37845W        W 9571  24.562  31.689   0.215
37846W        W 9572   5.404  13.397  14.007
37847W        W 9573  15.260  16.614  13.713
37848W        W 9574   9.386  29.518   0.749
37849W        W 9575  16.035  18.543  10.266
37850W        W 9576  36.905   3.712  11.808
37851W        W 9577  33.208  28.122  13.131
37852W        W 9578  32.581  33.106   3.634
37853W        W 9579  15.318   5.743  10.717
37854W        W 9580  36.492  14.712   2.971
37855W        W 9581  15.658  10.646  12.503
37856W        W 9582  35.370  30.618   2.760
37857W        W 9583  30.058  28.492  11.366
37858W        W 9584  26.246  28.528  11.539
37859W        W 9585  11.192  13.616   2.353
37860W        W 9586  36.410  36.664  10.685
37861W        W 9587  22.762   1.361   4.544
37862W        W 9588   5.509  22.591  12.405
37863W        W 9589  18.159   9.618  10.909
37864W        W 9590  22.472  38.572  11.829
37865W        W 9591  20.134   6.756   2.715
37866W        W 9592  27.121  30.922  14.896
37867W        W 9593  19.583  23.961   2.209
37868W        W 9594   3.514  16.884  11.573
37869W        W 9595  40.087  23.646   3.657
37870W        W 9596  21.265   3.345   3.872
37871W        W 9597   0.479  35.150  11.503
37872W        W 9598   5.146   8.116   0.918
37873W        W 9599  30.187  38.544   4.288
37874W        W 9600   3.391  26.181   3.719
37875W        W 9601  17.511  16.200   2.219
37876W        W 9602  28.235  37.468  14.680
37877W        W 9603   7.683  43.382  12.458
37878W        W 9604  30.922  32.525   3.137
37879W        W 9605  31.941  29.502  12.578
37880W        W 9606   7.963   2.785   3.274
37881W        W 9607  11.582  12.690   1.278
37882W        W 9608   3.244  43.148   1.358
37883W        W 9609   0.176  31.915  11.525
37884W        W 9610  31.663  40.413  11.586
37885W        W 9611  27.181  35.341   2.560
37886W        W 9612   0.360  41.474  11.212
37887W        W 9613   1.492  19.090   3.122
37888W        W 9614   9.928  10.677  13.039
37889W        W 9615  36.478  41.835   1.127
37890W        W 9616  33.551  14.520  13.643
37891W        W 9617   4.357  13.739   4.171
37892W        W 9618   6.302  29.418   2.804
37893W        W 9619  22.765  12.304  11.611
37894W        W 9620  21.766  14.247   1.814
37895W        W 9621   3.926   4.796   0.486
37896W        W 9622  13.029  37.947   1.322
37897W        W 9623   9.365   6.770   0.564
37898W        W 9624  35.957   4.228   1.424
37899W        W 9625  35.193  41.381   0.830
37900W        W 9626  22.528  36.024   2.835
37901W        W 9627  22.209  35.384  12.959
37902W        W 9628  11.746  23.879  11.889
37903W        W 9629  38.043  26.768  13.462
37904W        W 9630   1.499  31.113  13.399
37905W        W 9631  18.604  16.653   0.248
37906W        W 9632  38.806  35.785  14.811
37907W        W 9633  27.597   4.456   3.307
37908W        W 9634  34.913  24.479   3.436
37909W        W 9635   8.631  34.858   0.590
37910W        W 9636  30.551   1.796  10.814
37911W        W 9637  32.921  37.867   1.157
37912W        W 9638   8.316   8.231  13.208
37913W        W 9639  15.837  35.413   1.347
37914W        W 9640  39.288  11.645   2.484
37915W        W 9641   6.668  13.671  12.459
37916W        W 9642  19.633  31.990   9.911
37917W        W 9643  10.146  41.294   0.472
37918W        W 9644  29.528   3.352   3.263
37919W        W 9645  42.557  37.015  14.891
37920W        W 9646  23.721   7.205   3.312
37921W        W 9647  13.996   3.375  12.357
37922W        W 9648  28.503  32.718   1.674
37923W        W 9649  34.673  19.324  11.960
37924W        W 9650  34.800  34.551  13.526
37925W        W 9651  28.294  30.462  10.487
37926W        W 9652  27.340  24.189   4.141
37927W        W 9653  42.531  24.545   1.354
37928W        W 9654  43.227  32.937   4.107
37929W        W 9655  43.435  39.547   0.751
37930W        W 9656   0.517   2.339  13.971
37931W        W 9657  41.953  25.790   1.887
37932W        W 9658   5.422  17.758   3.891
37933W        W 9659  34.351   9.949   3.664
37934W        W 9660  12.891  26.685  10.713
37935W        W 9661  39.978  10.883   1.190
37936W        W 9662   3.176  27.513   2.335
37937W        W 9663  15.635   3.529  14.528
37938W        W 9664  41.954  25.656  11.397
37939W        W 9665   2.823  32.961  14.251
37940W        W 9666  13.493  30.778  11.066
37941W        W 9667   1.241  24.465   4.135
37942W        W 9668  21.503  12.782   4.652
37943W        W 9669  38.198  40.271  12.891
37944W        W 9670  21.319  11.367   2.792
37945W        W 9671   5.198  27.678  13.032
37946W        W 9672  17.400  29.532   4.667
37947W        W 9673   2.178  41.559  13.395
37948W        W 9674  20.659  13.040   5.046
37949W        W 9675  34.219  41.043   2.309
37950W        W 9676   3.081  12.864  10.695
37951W        W 9677  18.263   2.831  10.634
37952W        W 9678  13.278  21.687  12.117
37953W        W 9679   7.728  43.555  12.950
37954W        W 9680  30.554  36.438   1.919
37955W        W 9681  27.678  34.022   2.694
37956W        W 9682  26.699  33.115   0.032
37957W        W 9683  18.489  13.214   4.063
37958W        W 9684  21.081  25.865  12.852
37959W        W 9685  22.140   6.855   4.533
37960W        W 9686  10.310  18.246  13.667
37961W        W 9687  35.860  27.180   2.802
37962W        W 9688  41.531  15.394  13.941
37963W        W 9689  34.832  29.024  11.631
37964W        W 9690   2.457  23.088  14.018
37965W        W 9691  26.619  18.607   1.211
37966W        W 9692   5.493   2.774  11.317
37967W        W 9693  25.607  12.400   1.051
37968W        W 9694  37.104  42.626  14.115
37969W        W 9695  12.255   3.861   0.215
37970W        W 9696  19.241  13.223  10.910
37971W        W 9697   3.063  32.908  10.754
37972W        W 9698  27.475   8.405   2.605
37973W        W 9699  32.468  12.921   0.449
37974W        W 9700   3.996  33.968   2.193
37975W        W 9701  32.120  11.553   5.052
37976W        W 9702  41.319  32.840   0.942
37977W        W 9703  10.132  37.485  13.529
37978W        W 9704  35.419  37.272  14.387
37979W        W 9705  19.096  37.749   1.180
37980W        W 9706  33.667   7.840  11.185
37981W        W 9707   5.485  10.235   9.794
37982W        W 9708  32.497   8.416  12.623
37983W        W 9709  18.834   0.223   1.293
37984W        W 9710   8.201  30.430   0.029
37985W        W 9711  36.917   3.925   3.826
37986W        W 9712  44.464   7.704  14.041
37987W        W 9713  34.693   9.812   2.174
37988W        W 9714  27.473  38.937  12.997
37989W        W 9715  26.666   2.450  10.738
37990W        W 9716  13.240   1.291  11.728
37991W        W 9717  30.458  32.151  11.154
37992W        W 9718   0.969  28.423   4.543
37993W        W 9719  14.697  40.036   2.749
37994W        W 9720  28.322   2.984   4.161
37995W        W 9721  35.879  32.699   3.227
37996W        W 9722  26.981  28.664  13.494
37997W        W 9723   6.286   1.228  14.876
37998W        W 9724   0.864  21.579  12.897
37999W        W 9725  38.366   0.591   2.359
38000W        W 9726  16.779  16.629   4.551
38001W        W 9727  32.663  22.282  14.887
38002W        W 9728   4.707   7.171  12.019
38003W        W 9729  35.303  20.536   0.868
38004W        W 9730   7.425  24.449  14.975
38005W        W 9731   5.323   4.232  12.067
38006W        W 9732  38.388   5.157   1.757
38007W        W 9733  29.410  23.659   4.642
38008W        W 9734  14.003  32.554   1.288
38009W        W 9735  13.780  33.401   4.342
38010W        W 9736  30.497  23.834   2.340
38011W        W 9737  32.488  11.684   4.679
38012W        W 9738  30.999  41.466   5.349
38013W        W 9739  17.035  27.706   3.690
38014W        W 9740  42.959  17.277  11.404
38015W        W 9741   8.773  15.237  10.768
38016W        W 9742  37.195  24.479  12.428
38017W        W 9743  19.445  22.227   3.675
38018W        W 9744  30.957  30.474  14.538
38019W        W 9745  29.681  34.615   1.534
38020W        W 9746  25.911  41.324   4.821
38021W        W 9747  31.618   0.063  11.631
38022W        W 9748   9.766  42.687  11.994
38023W        W 9749   6.176  43.217  10.497
38024W        W 9750  11.637  28.149   3.707
38025W        W 9751  19.271  42.303   0.463
38026W        W 9752  26.700  41.065  14.065
38027W        W 9753  18.174   6.518  10.444
38028W        W 9754  30.424  31.892   1.603
38029W        W 9755   2.645   8.760   3.090
38030W        W 9756  33.453   8.913  13.037
38031W        W 9757  43.484  32.639  13.515
38032W        W 9758  12.577  16.637   2.578
38033W        W 9759  16.610   5.118   1.532
38034W        W 9760  26.011  40.347   4.373
38035W        W 9761  43.061   1.821   4.100
38036W        W 9762  42.333  40.924   0.960
38037W        W 9763   7.828   8.922   5.036
38038W        W 9764  44.219  31.891   2.218
38039W        W 9765  19.587  39.015  12.307
38040W        W 9766  35.344  38.911  14.587
38041W        W 9767  18.705  15.793  11.879
38042W        W 9768  16.744   7.567   3.763
38043W        W 9769  33.428   9.093  14.350
38044W        W 9770   0.482  24.081   2.231
38045W        W 9771   7.586  13.466  14.545
38046W        W 9772   3.441  40.897   0.251
38047W        W 9773   4.164  34.603  12.014
38048W        W 9774  26.985  16.294  12.077
38049W        W 9775   9.697  23.047  10.721
38050W        W 9776  34.102   4.883  14.022
38051W        W 9777  37.461  32.112   4.689
38052W        W 9778  16.007  42.970   1.407
38053W        W 9779  15.708  31.942  14.423
38054W        W 9780  15.843  38.081  12.867
38055W        W 9781  16.268  28.966   1.616
38056W        W 9782  10.331  42.966  13.285
38057W        W 9783  34.407  18.343   2.644
38058W        W 9784   7.914  14.243  12.834
38059W        W 9785  17.341  32.683  11.497
38060W        W 9786  17.147   9.537   3.623
38061W        W 9787   6.875  38.997   0.753
38062W        W 9788  35.102  39.438   1.183
38063W        W 9789  12.251  35.107   3.248
38064W        W 9790  15.288  30.623  13.363
38065W        W 9791  37.433   0.522  11.119
38066W        W 9792  12.195   5.899  10.606
38067W        W 9793  18.285   4.448   4.115
38068W        W 9794  29.079   3.711   2.192
38069W        W 9795  32.552  35.031   4.280
38070W        W 9796  40.099  22.743   3.649
38071W        W 9797   9.827  11.730   3.705
38072W        W 9798   6.316  39.903   1.009
38073W        W 9799   9.265   8.173  13.843
38074W        W 9800   1.664  38.976  10.956
38075W        W 9801  42.373  21.465  13.356
38076W        W 9802  44.966  23.150  12.821
38077W        W 9803  38.347  29.225  13.899
38078W        W 9804  41.005  16.573  11.956
38079W        W 9805  36.600  36.386   2.219
38080W        W 9806   0.374   7.745   2.600
38081W        W 9807  44.049   2.791   4.036
38082W        W 9808  32.257  38.369   1.694
38083W        W 9809  38.269   6.019  13.395
38084W        W 9810  13.323  41.525  12.627
38085W        W 9811  28.980   1.926   4.011
38086W        W 9812  36.058  36.973  13.856
38087W        W 9813  44.919  14.290   3.202
38088W        W 9814  13.290  25.113   2.340
38089W        W 9815  15.342  17.961  11.078
38090W        W 9816   8.300  12.681  14.788
38091W        W 9817  27.251   0.471   9.749
38092W        W 9818  12.846  35.487  14.923
38093W        W 9819  33.616  43.765   9.567
38094W        W 9820   9.681  40.348   4.419
38095W        W 9821  11.669  43.780  14.308
38096W        W 9822  32.438  31.821   0.677
38097W        W 9823  12.551   3.706  12.501
38098W        W 9824  25.273   3.478   4.742
38099W        W 9825   5.032   0.239   5.285
38100W        W 9826  14.680   8.313  13.491
38101W        W 9827   5.117   4.517   1.821
38102W        W 9828  17.816  18.873  13.537
38103W        W 9829  19.020  26.031  13.908
38104W        W 9830   9.219  38.291   0.849
38105W        W 9831  31.319  15.723  14.046
38106W        W 9832  30.253  37.980   3.975
38107W        W 9833  24.040  31.176   3.644
38108W        W 9834  22.650  20.712  12.106
38109W        W 9835  32.205  40.336  13.407
38110W        W 9836  24.020  19.379   0.301
38111W        W 9837   4.305  44.995  13.634
38112W        W 9838  22.386  22.054  13.826
38113W        W 9839  43.314  25.843   4.827
38114W        W 9840  27.127  21.556   0.779
38115W        W 9841  37.431   1.692   2.321
38116W        W 9842  26.049  30.358   4.146
38117W        W 9843  38.505  42.876   2.992
38118W        W 9844  39.362  16.446  11.529
38119W        W 9845  40.260  38.715  14.825
38120W        W 9846   5.134  39.419   3.151
38121W        W 9847  17.291  22.957  12.825
38122W        W 9848   2.452  44.582  11.064
38123W        W 9849   3.757   2.285  14.137
38124W        W 9850   3.729   3.908  13.428
38125W        W 9851  14.714  41.094  13.436
38126W        W 9852   5.996   1.939   3.287
38127W        W 9853   6.482   1.965   0.726
38128W        W 9854  27.669   4.992   3.220
38129W        W 9855  16.803  11.646   3.137
38130W        W 9856  26.737  29.559  11.239
38131W        W 9857   8.395  13.417   3.706
38132W        W 9858  40.911  27.447   2.838
38133W        W 9859  14.330  28.529   0.237
38134W        W 9860  37.101  42.232  11.076
38135W        W 9861   4.369  36.868  14.137
38136W        W 9862  28.940  32.122  12.426
38137W        W 9863  39.782  23.399   0.164
38138W        W 9864   1.323  12.055   3.681
38139W        W 9865  42.326  24.752   3.697
38140W        W 9866  44.326  26.623  11.233
38141W        W 9867   2.479  44.075   0.379
38142W        W 9868   3.373   6.541   5.063
38143W        W 9869  10.936  35.631  11.897
38144W        W 9870   6.391  42.292   1.524
38145W        W 9871  27.485  18.986  13.210
38146W        W 9872  18.286  43.959   0.370
38147W        W 9873  38.519  14.541   3.173
38148W        W 9874   1.533  14.714   0.316
38149W        W 9875  10.178  31.769  11.625
38150W        W 9876  13.052  43.542  14.414
38151W        W 9877  37.481  37.952  14.812
38152W        W 9878   3.735  42.367  14.064
38153W        W 9879  11.678   4.952  11.610
38154W        W 9880  27.002  11.379  13.503
38155W        W 9881  40.513  34.983  14.991
38156W        W 9882  43.929  34.014   2.633
38157W        W 9883  22.567  32.450   4.588
38158W        W 9884  20.176  18.810   2.397
38159W        W 9885  39.814   1.869  14.905
38160W        W 9886  21.217  39.048   2.766
38161W        W 9887  26.433  34.058   2.347
38162W        W 9888  39.498  11.180   4.575
38163W        W 9889  29.634   2.837   2.183
38164W        W 9890  27.466  44.982   2.693
38165W        W 9891  16.566  32.615  12.944
38166W        W 9892  23.600   1.897  13.495
38167W        W 9893  18.968   6.240   4.468
38168W        W 9894  15.079   2.731   2.251
38169W        W 9895   2.687  39.564   4.151
38170W        W 9896  15.163  18.263   2.759
38171W        W 9897  28.733  24.491   2.451
38172W        W 9898  21.058  37.893  13.957
38173W        W 9899   9.575   0.304   1.419
38174W        W 9900   4.206   2.357   3.200
38175W        W 9901  16.609  19.731  10.915
38176W        W 9902   2.934   2.778  13.844
38177W        W 9903   0.978   8.101  12.130
38178W        W 9904  30.432  43.758   4.080
38179W        W 9905  34.951  37.011   0.169
38180W        W 9906   4.807  44.066   4.465
38181W        W 9907  23.403  31.832  13.833
38182W        W 9908  14.121  42.391   2.027
38183W        W 9909  35.047  17.675  10.767
38184W        W 9910  35.939  23.706   3.468
38185W        W 9911  18.736  37.635  11.608
38186W        W 9912   7.326   3.973   1.319
38187W        W 9913  43.172   3.401  12.946
38188W        W 9914  30.837   1.442   4.555
38189W        W 9915   6.221  44.374  14.690
38190W        W 9916  42.276  33.375  11.120
38191W        W 9917  28.198  43.982   1.400
38192W        W 9918  40.116  33.633  11.853
38193W        W 9919  14.812  43.706  14.874
38194W        W 9920   7.074  25.255  12.883
38195W        W 9921  42.124  11.221  10.631
38196W        W 9922  19.700   4.006  11.336
38197W        W 9923  14.318  41.498   0.181
38198W        W 9924  19.559  34.505  13.374
38199W        W 9925  35.000  38.304  13.496
38200W        W 9926   9.402   5.978   2.720
38201W        W 9927   8.517   5.980  11.104
38202W        W 9928   3.033  29.180  12.450
38203W        W 9929  42.096  29.443   4.379
38204W        W 9930  23.055   2.244  10.774
38205W        W 9931  14.179   5.321   2.826
38206W        W 9932  26.053   1.741   4.854
38207W        W 9933  14.380  14.252  10.749
38208W        W 9934  12.650  12.731   2.787
38209W        W 9935   5.344  21.989   4.251
38210W        W 9936  35.079  41.390  14.847
38211W        W 9937  20.006  37.115  12.873
38212W        W 9938  13.346  26.545   0.386
38213W        W 9939  41.962  21.120  12.167
38214W        W 9940  41.705  26.047   1.085
38215W        W 9941  34.554   3.705   4.164
38216W        W 9942  21.306  44.477   0.463
38217W        W 9943   7.307  29.953  10.562
38218W        W 9944  27.514  29.617   0.793
38219W        W 9945   3.019  29.557  11.204
38220W        W 9946  21.053   0.802  10.658
38221W        W 9947  34.054  23.418  11.468
38222W        W 9948   8.834  43.385   4.737
38223W        W 9949  30.140  20.554   3.122
38224W        W 9950  25.083  23.698   2.755
38225W        W 9951  36.605  26.951  10.922
38226W        W 9952  27.250  19.465   4.468
38227W        W 9953  28.544  31.426   2.284
38228W        W 9954   2.831  31.233  12.608
38229W        W 9955  24.664  33.159   2.764
38230W        W 9956  21.521  29.716   3.701
38231W        W 9957  38.945  40.792   1.353
38232W        W 9958  41.258  30.919   1.833
38233W        W 9959  18.646  23.511   3.191
38234W        W 9960  15.522  11.323   1.851
38235W        W 9961  40.538  39.910   0.420
38236W        W 9962  31.540  14.616   2.872
38237W        W 9963  33.524  35.162   4.377
38238W        W 9964   0.546  25.479  11.583
38239W        W 9965  23.748  25.040  12.878
38240W        W 9966   1.165  19.499  12.380
38241W        W 9967  41.526  15.881  12.394
38242W        W 9968  40.450  20.098  13.718
38243W        W 9969  11.678  13.456   2.421
38244W        W 9970   7.666  35.976  12.399
38245W        W 9971  23.575  32.438   4.812
38246W        W 9972  38.424  38.536  10.696
38247W        W 9973  36.491  37.306   4.610
38248W        W 9974  24.189   7.788  14.887
38249W        W 9975  29.411   2.979  13.959
38250W        W 9976  30.464  33.548  12.378
38251W        W 9977  12.363  27.404  13.790
38252W        W 9978  28.566  12.186  14.268
38253W        W 9979  29.362  14.232  13.517
38254W        W 9980   0.679  18.176   0.456
38255W        W 9981  17.040  16.498   0.787
38256W        W 9982  44.830  24.787  12.517
38257W        W 9983  39.931  29.439   0.890
38258W        W 9984  27.445   4.551   4.906
38259W        W 9985   0.062  16.286   2.956
38260W        W 9986  28.501  18.394  11.569
38261W        W 9987   6.416   4.954   3.082
38262W        W 9988  17.707  34.034   2.757
38263W        W 9989   5.393  27.939   0.823
38264W        W 9990  30.034  40.329  10.762
38265W        W 9991   5.784  26.294   3.204
38266W        W 9992  26.479  43.183  13.819
38267W        W 9993  14.745  25.863  13.514
38268W        W 9994   6.808   1.537   4.169
38269W        W 9995  16.409  16.752  13.062
38270W        W 9996  26.701  37.226  12.417
38271W        W 9997  27.150  24.797   3.835
38272W        W 9998  19.518  22.809  13.201
38273W        W 9999  28.877   4.698  12.090
38274W        W10000  20.273  27.094   0.507
38275W        W10001   4.581  25.003  10.724
38276W        W10002  21.180  34.905   0.721
38277W        W10003  17.583   6.055   4.962
38278W        W10004   9.416  15.179   1.330
38279W        W10005  29.125   3.410  13.864
38280W        W10006  32.585  16.717  12.905
38281W        W10007  40.920  36.658  11.063
38282W        W10008  39.981   1.053  11.948
38283W        W10009  23.406  14.216   5.041
38284W        W10010  14.781  31.993   5.096
38285W        W10011  17.137  37.103   2.278
38286W        W10012  17.212   6.261  11.164
38287W        W10013  43.479  26.950   3.330
38288W        W10014  28.610  37.730  14.225
38289W        W10015  43.066  24.593  11.253
38290W        W10016  19.223  15.041   3.286
38291W        W10017   4.499  43.714   2.267
38292W        W10018  32.554  43.760   3.306
38293W        W10019   2.222  24.671   1.765
38294W        W10020   7.682  43.550   1.784
38295W        W10021   6.370   8.217   1.529
38296W        W10022   9.828  37.623   5.042
38297W        W10023   3.489  15.434  13.833
38298W        W10024  37.200  42.483   1.000
38299W        W10025  27.162   5.200  11.593
38300W        W10026  35.333  32.538   4.050
38301W        W10027  35.142  44.210   0.482
38302W        W10028  12.794  28.376   1.255
38303W        W10029  32.993  24.779  14.350
38304W        W10030  38.794  43.976  11.166
38305W        W10031  34.540   0.234  13.540
38306W        W10032   8.286   9.870  10.584
38307W        W10033   6.745  32.446   0.459
38308W        W10034  41.037  42.202  13.717
38309W        W10035  40.587  15.777   2.895
38310W        W10036  42.902  23.059   0.394
38311W        W10037  12.332   3.214   1.500
38312W        W10038   7.841  30.412   4.556
38313W        W10039  15.116  32.276  11.561
38314W        W10040   0.959  31.386  10.663
38315W        W10041  18.516  35.068  11.096
38316W        W10042  24.585  30.518  13.625
38317W        W10043  32.921  24.976   3.615
38318W        W10044  22.139  39.957   1.724
38319W        W10045  14.259  37.518  13.216
38320W        W10046  23.428  39.020   2.284
38321W        W10047  17.877  27.584   0.561
38322W        W10048   7.453  32.805  12.994
38323W        W10049  25.142  40.441   0.253
38324W        W10050   8.446  38.829   4.135
38325W        W10051  17.823  40.002  11.032
38326W        W10052  16.497   0.506  14.987
38327W        W10053  40.978  28.683  11.690
38328W        W10054  16.185   2.408  10.423
38329W        W10055   4.996  31.512   2.092
38330W        W10056  29.924  27.147   0.349
38331W        W10057  18.498   1.008   4.919
38332W        W10058  12.262   9.269   1.709
38333W        W10059  38.598  11.694  14.457
38334W        W10060  15.186  39.486   3.395
38335W        W10061  12.269  22.535   1.273
38336W        W10062   5.245  22.084   0.393
38337W        W10063  16.854  26.991  14.466
38338W        W10064  20.224  16.363   0.465
38339W        W10065  22.321  41.718   1.713
38340W        W10066  24.486  11.442  14.834
38341W        W10067  24.257  19.618  13.016
38342W        W10068   6.772  17.708  13.279
38343W        W10069  12.419  20.936   0.920
38344W        W10070  12.803  43.290   3.412
38345W        W10071  11.397  10.829   1.885
38346W        W10072  18.784   8.630   3.230
38347W        W10073  24.869   1.237   5.164
38348W        W10074  30.200  35.624   0.953
38349W        W10075  13.070  35.324   2.882
38350W        W10076  34.420  34.051  14.764
38351W        W10077  30.194  10.486  13.178
38352W        W10078  41.469  18.704  11.624
38353W        W10079  30.653   5.429  12.403
38354W        W10080   6.991   5.325  13.304
38355W        W10081  15.047   6.218  12.960
38356W        W10082  34.847  16.258   3.229
38357W        W10083  44.783  15.183   0.476
38358W        W10084   9.368  13.811   1.499
38359W        W10085  35.141  35.739  14.833
38360W        W10086  33.900  33.120   3.319
38361W        W10087  17.575  20.335  13.210
38362W        W10088  44.515  30.873   1.775
38363W        W10089   5.252  30.494   3.166
38364W        W10090  32.469   0.401   0.414
38365W        W10091  26.417  14.603   1.113
38366W        W10092  20.116   8.839   1.225
38367W        W10093  40.135  40.802   2.769
38368W        W10094  24.946  28.024   3.566
38369W        W10095  15.342  18.686   0.746
38370W        W10096  38.906  40.984   3.251
38371W        W10097  40.881   4.004  11.674
38372W        W10098  21.556  24.536   0.847
38373W        W10099  29.907  16.808   1.839
38374W        W10100  28.948   0.323   1.405
38375W        W10101  22.077   0.247  14.326
38376W        W10102  36.600  13.579  12.385
38377W        W10103   4.482  15.633   3.194
38378W        W10104  33.619  18.493  10.656
38379W        W10105  22.520   0.101   0.841
38380W        W10106   3.230  34.858  12.519
38381W        W10107  13.406  43.889   0.475
38382W        W10108  44.472  10.815  13.571
38383W        W10109  18.805  24.015   1.838
38384W        W10110   8.246  16.074   4.177
38385W        W10111   3.836   6.659  12.074
38386W        W10112  17.779   4.307   0.780
38387W        W10113   1.889   3.462  13.336
38388W        W10114  34.006  39.242  11.412
38389W        W10115   6.093   9.477  12.431
38390W        W10116  20.568  20.161   1.447
38391W        W10117  30.540  15.542  12.195
38392W        W10118   4.257  28.373   4.600
38393W        W10119   4.625  13.142   1.291
38394W        W10120  33.418  42.575  10.579
38395W        W10121  40.633  13.849   2.805
38396W        W10122   3.732  25.416  10.661
38397W        W10123  42.553  23.753   3.870
38398W        W10124  26.306  43.935  12.013
38399W        W10125  17.087  26.079   2.881
38400W        W10126  44.736  37.887   1.522
38401W        W10127  38.394  34.295  14.093
38402W        W10128   1.769  25.964  12.586
38403W        W10129  13.922  17.983  11.453
38404W        W10130  34.902   0.583  12.398
38405W        W10131  28.763  25.698  14.549
38406W        W10132  22.577  40.387   1.664
38407W        W10133  22.817  43.265  13.499
38408W        W10134  36.056   6.139  10.474
38409W        W10135  36.571  12.341   3.356
38410W        W10136  25.248  42.822   5.250
38411W        W10137  35.111   2.687  12.557
38412W        W10138  27.938  22.587  12.832
38413W        W10139  43.757  19.643   0.453
38414W        W10140   9.341  27.976  12.558
38415W        W10141  35.212  25.142   1.197
38416W        W10142   6.431  34.985  10.697
38417W        W10143  23.343  38.317   3.692
38418W        W10144  37.521   2.153  13.849
38419W        W10145   3.120  34.490  12.869
38420W        W10146   7.367  41.531   2.695
38421W        W10147   7.768   1.492  12.544
38422W        W10148  27.212  31.731   1.707
38423W        W10149   3.951   5.217  12.203
38424W        W10150  44.516  22.049  13.912
38425W        W10151  32.640   4.937  11.927
38426W        W10152   8.372  21.286   1.151
38427W        W10153   0.211   8.721   1.294
38428W        W10154  27.350   3.432  12.190
38429W        W10155   8.337  27.232   2.113
38430W        W10156  43.564   8.608   1.396
38431W        W10157   7.197   1.741   1.273
38432W        W10158  29.567  42.738   0.713
38433W        W10159  38.097   1.032   3.415
38434W        W10160  42.393  27.382  14.486
38435W        W10161  40.904   1.989   1.940
38436W        W10162   1.932  12.230   1.333
38437W        W10163   4.489   3.832   4.216
38438W        W10164  14.065   1.910  12.500
38439W        W10165   4.500  35.029   0.633
38440W        W10166  38.145   2.984  10.438
38441W        W10167  17.772  42.764  14.403
38442W        W10168   1.196  29.179  14.832
38443W        W10169  38.005   2.055  11.499
38444W        W10170  24.152  44.505  11.464
38445W        W10171  44.562  30.556   3.243
38446W        W10172  18.075  25.956  12.648
38447W        W10173  15.640  23.569   2.372
38448W        W10174  11.873  26.764  12.130
38449W        W10175  23.094  41.444   2.827
38450W        W10176   9.824  19.781  12.506
38451W        W10177  37.992  42.966  10.544
38452W        W10178   4.203  14.372   0.789
38453W        W10179  18.082  16.340   1.323
38454W        W10180  43.797   6.103  12.963
38455W        W10181  39.437  33.451   3.458
38456W        W10182   3.165   4.295   0.160
38457W        W10183  40.839  33.586  12.398
38458W        W10184  13.622  21.034   2.679
38459W        W10185  36.360  34.861  11.237
38460W        W10186  15.082  30.374   1.792
38461W        W10187  16.754  19.909  12.853
38462W        W10188  20.622  28.448   0.555
38463W        W10189  36.185  41.960   1.574
38464W        W10190  37.903  24.586   1.855
38465W        W10191   4.193  39.686  12.912
38466W        W10192  13.366  11.089  12.699
38467W        W10193   2.837  11.107   4.863
38468W        W10194  15.588   6.859  10.845
38469W        W10195  17.351  22.910   4.247
38470W        W10196  11.062  10.824   3.613
38471W        W10197  24.784  36.139   1.208
38472W        W10198  22.161   3.033   4.301
38473W        W10199  43.087  12.701   2.181
38474W        W10200  41.367  36.509   4.639
38475W        W10201   9.209  10.085   2.131
38476W        W10202  29.044  30.309  11.133
38477W        W10203  36.968  38.098  11.199
38478W        W10204  43.820  18.797  10.695
38479W        W10205  38.885  43.842   1.004
38480W        W10206  39.533  21.728   1.887
38481W        W10207  25.021   8.918  12.126
38482W        W10208  21.510   0.105   4.161
38483W        W10209  35.851  43.840   1.898
38484W        W10210  17.619   6.432   0.408
38485W        W10211  38.599   3.434   3.482
38486W        W10212  37.853  22.464   2.352
38487W        W10213  34.281  15.661   4.145
38488W        W10214   9.169  15.781  13.325
38489W        W10215  23.836   7.729  14.512
38490W        W10216  37.961  44.221  11.966
38491W        W10217   2.649   4.871   0.984
38492W        W10218   1.771  11.430   1.761
38493W        W10219  16.215   9.246   1.381
38494W        W10220  35.150  25.703   2.898
38495W        W10221  26.042  20.515  10.640
38496W        W10222  30.443  16.599   4.544
38497W        W10223   5.387   1.912   1.699
38498W        W10224  35.804   1.762  13.346
38499W        W10225  15.167  15.009  14.058
38500W        W10226  10.173   0.901   1.121
38501W        W10227  41.736  30.165  13.781
38502W        W10228  36.620   6.626   4.244
38503W        W10229  15.214   0.156   0.435
38504W        W10230   3.767  23.073   2.221
38505W        W10231   2.035   2.997   0.705
38506W        W10232  10.153  12.149   2.715
38507W        W10233  14.350  39.459  10.473
38508W        W10234   5.003  40.551  14.928
38509W        W10235  33.310  25.579   2.266
38510W        W10236  22.520  20.531   0.487
38511W        W10237  25.489   8.122  10.700
38512W        W10238  32.462  34.550   2.634
38513W        W10239  12.397   3.432  11.184
38514W        W10240  26.445  29.204  10.516
38515W        W10241  13.221   5.194  11.546
38516W        W10242  14.778  25.605   4.600
38517W        W10243  16.709  28.153   1.351
38518W        W10244  23.245   8.890  11.068
38519W        W10245   2.037   9.301  12.141
38520W        W10246  26.756  28.917   2.860
38521W        W10247  16.755  16.973   3.619
38522W        W10248  10.253  15.363  14.421
38523W        W10249  34.966  41.690   1.365
38524W        W10250  32.386  20.796  11.194
38525W        W10251  31.058  20.151   0.332
38526W        W10252  15.852  21.342  14.678
38527W        W10253  34.670  15.379   3.283
38528W        W10254  22.120   2.330   2.023
38529W        W10255  37.525  32.058  12.794
38530W        W10256  42.007   5.699  14.445
38531W        W10257   9.642   8.658   5.055
38532W        W10258  34.788  40.972   3.141
38533W        W10259   3.230  38.069  10.761
38534W        W10260   1.643  29.506  11.561
38535W        W10261  28.707  14.873  13.873
38536W        W10262  28.478  31.410  12.590
38537W        W10263  16.058  43.814  12.421
38538W        W10264   1.886  43.592  11.932
38539W        W10265   0.641  37.135   5.080
38540W        W10266   1.842  31.557  14.987
38541W        W10267  11.922  31.021  13.880
38542W        W10268  37.127  11.134  12.518
38543W        W10269  28.893  40.377  11.312
38544W        W10270   6.405  36.466   2.603
38545W        W10271  40.616   5.930  14.443
38546W        W10272  29.727  26.644  10.640
38547W        W10273  12.835  16.755   4.083
38548W        W10274   6.152   7.783   0.226
38549W        W10275  25.648  43.851  14.584
38550W        W10276   0.344   2.528  12.611
38551W        W10277  10.892   4.340   3.785
38552W        W10278  31.777  31.483  11.831
38553W        W10279  23.066  37.516  14.097
38554W        W10280   9.255  19.684   1.553
38555W        W10281  27.535  25.636  12.076
38556W        W10282  15.577  32.378  11.893
38557W        W10283  13.462  22.145  11.884
38558W        W10284  36.458  30.480   9.887
38559W        W10285  42.528  43.146   3.705
38560W        W10286  44.908   1.250   3.296
38561W        W10287   8.405  41.609   2.430
38562W        W10288   5.594   2.346  14.096
38563W        W10289  29.706   2.023  10.315
38564W        W10290  24.627  44.245  11.496
38565W        W10291  41.601   7.173   5.109
38566W        W10292  14.784  36.449  11.561
38567W        W10293  29.005  29.589   2.177
38568W        W10294  39.088  37.980  12.839
38569W        W10295   1.762  30.018  10.426
38570W        W10296  17.546  22.586  14.837
38571W        W10297   2.004  23.759  14.291
38572W        W10298  10.395  10.228   0.361
38573W        W10299   2.344  25.077  12.524
38574W        W10300  12.204  36.601  14.427
38575W        W10301  32.446  30.730   1.831
38576W        W10302  19.049  21.630   2.889
38577W        W10303  27.912  23.072  11.132
38578W        W10304  14.260  44.796  11.086
38579W        W10305  20.076  26.028   0.797
38580W        W10306   1.089   9.379   3.149
38581W        W10307   5.304  38.015  12.893
38582W        W10308  32.644  31.554  14.704
38583W        W10309  26.540  39.331   4.541
38584W        W10310   6.407  24.087  13.872
38585W        W10311  12.090   9.343   1.178
38586W        W10312  15.143  30.664  12.875
38587W        W10313   7.242  42.980  10.262
38588W        W10314  15.674  32.655  12.347
38589W        W10315  23.425  15.948  10.657
38590W        W10316  37.878  17.691   1.370
38591W        W10317  10.819  34.411  10.116
38592W        W10318  29.332  34.386  12.031
38593W        W10319  10.819  41.330  11.157
38594W        W10320  16.779  16.446  10.441
38595W        W10321  16.200  29.704   2.146
38596W        W10322   2.355  22.073   3.188
38597W        W10323  31.472  26.169   4.954
38598W        W10324   7.265   0.366   0.939
38599W        W10325  42.119  22.888   4.144
38600W        W10326  13.749  18.860  11.100
38601W        W10327  30.898   0.415  14.923
38602W        W10328  42.699  37.876   1.867
38603W        W10329   8.143  24.562  10.069
38604W        W10330  15.774  36.547  11.403
38605W        W10331   0.528  35.328   0.323
38606W        W10332   3.975  22.612  10.596
38607W        W10333  15.158  43.404  11.457
38608W        W10334   6.965   6.301  10.339
38609W        W10335   2.003  24.103  11.163
38610W        W10336  28.873  22.003   4.214
38611W        W10337   8.391  28.105   1.105
38612W        W10338  18.097  24.416  14.257
38613W        W10339  41.274  27.621   1.908
38614W        W10340  16.109  37.533  10.628
38615W        W10341  20.653  19.889   0.919
38616W        W10342   8.830  12.924   3.037
38617W        W10343   7.816  25.725   1.794
38618W        W10344  39.013  24.431  12.400
38619W        W10345  19.498  44.165   4.347
38620W        W10346  12.195   6.252   0.368
38621W        W10347   5.727   1.481   3.224
38622W        W10348  35.775   4.913   2.052
38623W        W10349  41.305  35.802  13.179
38624W        W10350  17.724   7.831  14.552
38625W        W10351   1.259  12.898   4.230
38626W        W10352  37.334  42.375  14.475
38627W        W10353  13.210   9.163  11.201
38628W        W10354  35.962  22.992   2.847
38629W        W10355  23.613  16.719   3.600
38630W        W10356  18.188  17.224   1.385
38631W        W10357   5.790   1.648  10.568
38632W        W10358   4.718   5.985  14.482
38633W        W10359  24.025  29.624  14.309
38634W        W10360   8.845  29.400   2.926
38635W        W10361  26.048   0.296  11.929
38636W        W10362  32.357  18.465   2.264
38637W        W10363   8.801  32.311  10.851
38638W        W10364   6.916   1.853   3.030
38639W        W10365  29.583  34.912   3.131
38640W        W10366  11.293  21.055  10.570
38641W        W10367  28.687  28.145   3.134
38642W        W10368  16.098   5.823   4.538
38643W        W10369  14.504  33.525  11.628
38644W        W10370  44.373  20.844   3.721
38645W        W10371  25.188   9.092  14.536
38646W        W10372  15.112  20.543   2.818
38647W        W10373   5.713   8.635   4.311
38648W        W10374  28.683  43.458   3.235
38649W        W10375  27.852  37.312  13.227
38650W        W10376  43.292   3.173   0.253
38651W        W10377   3.261  23.146   3.875
38652W        W10378  37.035  40.551  11.598
38653W        W10379  33.473   4.866   2.445
38654W        W10380  29.626  24.145   4.615
38655W        W10381  13.259   4.656   4.945
38656W        W10382  34.118  20.639  12.562
38657W        W10383  44.304   7.961   0.386
38658W        W10384  23.415  13.125   2.986
38659W        W10385  29.511  32.415   3.368
38660W        W10386  22.254   7.753   0.748
38661W        W10387  24.218  34.440  10.752
38662W        W10388  44.022  32.489  12.572
38663W        W10389  13.677  41.088   4.491
38664W        W10390  42.271  10.769   2.664
38665W        W10391  12.356  17.861   3.750
38666W        W10392   9.429   3.566  13.069
38667W        W10393  27.825  32.081  10.641
38668W        W10394  30.442   3.102   3.138
38669W        W10395  17.836  43.060   1.836
38670W        W10396  29.281  42.446  13.482
38671W        W10397   1.503  40.615   1.699
38672W        W10398   2.527  28.251   2.202
38673W        W10399   9.195  10.161  14.927
38674W        W10400  25.045   5.277   0.463
38675W        W10401   8.802  27.555  13.417
38676W        W10402  39.563  12.587   0.942
38677W        W10403  28.106  16.753  13.969
38678W        W10404  20.369  13.149   0.771
38679W        W10405  13.240  42.059   0.223
38680W        W10406  19.744   2.871  11.622
38681W        W10407  12.218   8.857   0.386
38682W        W10408  29.113  22.458  14.401
38683W        W10409   8.179  32.825   0.236
38684W        W10410  28.443  24.020  14.826
38685W        W10411  28.214  25.717   1.431
38686W        W10412  25.733  33.959  13.687
38687W        W10413  33.936  17.795  12.397
38688W        W10414  29.935  32.523  14.816
38689W        W10415  10.136  24.631  14.469
38690W        W10416  26.771  35.984   5.100
38691W        W10417  30.661  18.367  14.484
38692W        W10418  29.595  41.785  10.961
38693W        W10419   1.455  19.726   1.416
38694W        W10420  20.015  27.946   3.417
38695W        W10421  22.469   6.707   2.860
38696W        W10422  42.592  10.378   1.912
38697W        W10423  34.446  25.144   0.552
38698W        W10424   3.687  14.310   2.431
38699W        W10425  44.845  42.851  13.328
38700W        W10426  27.561  19.291  14.934
38701W        W10427  39.107  21.649  12.004
38702W        W10428   0.162  35.625  12.051
38703W        W10429  17.853   5.241  10.634
38704W        W10430  19.524   8.187   0.759
38705W        W10431  44.139  28.157  13.877
38706W        W10432  40.747  16.893  11.603
38707W        W10433  17.987  26.806  11.118
38708W        W10434  42.085   3.305   9.646
38709W        W10435   4.253  19.185   2.788
38710W        W10436  16.157   6.615   1.279
38711W        W10437  40.551   0.283   2.441
38712W        W10438  42.401  14.203  14.519
38713W        W10439  10.895  34.701   3.353
38714W        W10440  40.629  20.774  11.068
38715W        W10441  16.729  29.453  14.892
38716W        W10442  41.991   7.753  12.491
38717W        W10443  10.199  26.922  14.441
38718W        W10444  27.985  36.054   0.844
38719W        W10445   8.979  22.606   9.826
38720W        W10446   0.515   1.175   4.294
38721W        W10447  13.084  30.685   1.861
38722W        W10448   1.255  32.107   2.458
38723W        W10449   0.810  30.408  10.115
38724W        W10450   6.927   0.333   2.350
38725W        W10451   0.218  15.180   3.196
38726W        W10452  44.269  18.876   5.190
38727W        W10453   9.651  16.281   1.031
38728W        W10454  14.141  24.006   2.984
38729W        W10455  41.371  27.202   2.801
38730W        W10456  26.189   1.278   5.435
38731W        W10457  26.426  10.717  11.263
38732W        W10458  43.527  16.992  10.203
38733W        W10459  12.353  10.673   1.646
38734W        W10460  16.358  27.646  11.057
38735W        W10461  43.859  29.601   1.437
38736W        W10462  42.278  38.414  14.810
38737W        W10463  28.638  36.959  11.049
38738W        W10464  38.664   6.995   2.139
38739W        W10465  35.929  10.776   4.374
38740W        W10466  19.857  14.668  13.314
38741W        W10467   7.942   0.078  13.815
38742W        W10468   8.914   6.889   1.346
38743W        W10469   9.382  40.821  10.417
38744W        W10470  17.149  35.871   1.419
38745W        W10471  11.289  15.794  10.704
38746W        W10472  25.004   4.272   4.353
38747W        W10473  32.130  24.054   1.623
38748W        W10474  34.459  21.756   2.926
38749W        W10475   7.642  39.442   1.019
38750W        W10476  14.986  30.665  10.913
38751W        W10477  18.454  14.785   1.188
38752W        W10478  40.529  43.727   3.501
38753W        W10479  41.540  32.214   1.648
38754W        W10480  19.194   2.474   2.223
38755W        W10481   4.769  38.596   4.548
38756W        W10482  39.014  24.600  14.381
38757W        W10483  15.648  40.892   0.365
38758W        W10484  22.706  27.684   1.801
38759W        W10485   8.401   1.185  11.661
38760W        W10486  23.439  31.510  12.125
38761W        W10487   8.264   0.573  14.526
38762W        W10488  36.280  31.695  14.817
38763W        W10489   6.226  28.417  11.389
38764W        W10490  13.867  14.229   0.579
38765W        W10491  43.327  20.140  10.731
38766W        W10492   7.289  42.711   1.771
38767W        W10493   3.466   1.938  10.643
38768W        W10494  13.904  13.190   3.112
38769W        W10495  32.919  12.617   1.693
38770W        W10496  14.865  23.152   3.833
38771W        W10497  19.232  40.447   1.652
38772W        W10498  42.830  33.018  14.034
38773W        W10499  20.259  22.820   2.618
38774W        W10500  44.661  25.676  12.831
38775W        W10501  43.467  13.871   3.262
38776W        W10502  11.024  38.858   1.797
38777W        W10503  18.357  20.586  13.081
38778W        W10504  38.348  25.452   1.977
38779W        W10505  40.264  39.991   3.656
38780W        W10506   0.888  13.597   0.969
38781W        W10507   1.317  21.894  13.828
38782W        W10508  39.012  24.073  10.608
38783W        W10509  39.837  38.064   2.375
38784W        W10510  29.955  39.006  12.599
38785W        W10511  36.317  19.274   3.663
38786W        W10512  28.073  14.409  14.205
38787W        W10513  36.491  28.482  13.002
38788W        W10514  28.014  13.736   4.551
38789W        W10515  42.695  33.014   2.093
38790W        W10516  33.834  20.180  11.393
38791W        W10517  22.433   8.067   3.255
38792W        W10518  22.691  11.055   1.155
38793W        W10519   6.936  22.008   1.433
38794W        W10520  11.452   1.548   3.801
38795W        W10521  37.011  28.193  10.599
38796W        W10522   5.657  32.966   4.102
38797W        W10523  19.227  18.401   2.330
38798W        W10524  42.451  20.945  11.132
38799W        W10525  39.379   7.376  13.535
38800W        W10526  27.127  12.066   0.879
38801W        W10527  34.056  31.799   4.372
38802W        W10528  41.315  15.327   0.936
38803W        W10529  10.359  23.513   0.820
38804W        W10530  11.166  39.473  14.748
38805W        W10531   5.901   6.123  13.145
38806W        W10532   4.163  35.301   3.279
38807W        W10533  18.026  11.202  13.021
38808W        W10534  32.479  18.985   1.536
38809W        W10535  39.923  30.454  11.618
38810W        W10536  16.616   6.117   3.606
38811W        W10537  20.798  24.681  10.626
38812W        W10538  20.013  34.080   3.326
38813W        W10539  32.093  22.193  12.886
38814W        W10540  42.302  38.653   4.169
38815W        W10541  19.729  30.572  11.079
38816W        W10542  22.808  19.518   1.373
38817W        W10543  32.035   6.549  12.382
38818W        W10544  41.273  13.528  13.516
38819W        W10545   6.779  31.332  13.105
38820W        W10546  44.240  25.418   1.029
38821W        W10547   6.007  16.778   5.635
38822W        W10548  44.178  40.876   3.153
38823W        W10549  43.322  39.706  12.628
38824W        W10550  34.663   9.776  13.991
38825W        W10551  40.280   1.914   0.969
38826W        W10552  24.532  21.980   2.226
38827W        W10553   5.484  39.230   1.812
38828W        W10554  13.631   5.247  14.495
38829W        W10555  29.046   3.861   1.214
38830W        W10556  32.419  20.794  12.092
38831W        W10557  39.141  34.049  13.564
38832W        W10558   9.395  26.643   4.347
38833W        W10559  13.919   0.808  12.053
38834W        W10560  24.874  24.212   3.415
38835W        W10561   6.696  18.773  10.664
38836W        W10562  11.922  40.455   2.257
38837W        W10563   2.811  27.703  11.134
38838W        W10564  32.447  14.772   3.219
38839W        W10565  20.599  11.360   0.278
38840W        W10566   8.611  14.637  14.016
38841W        W10567  43.064  17.702  11.687
38842W        W10568   4.772  25.794  12.041
38843W        W10569   5.858  26.480  13.493
38844W        W10570  24.421  20.667   3.302
38845W        W10571  21.096   3.841   3.817
38846W        W10572  19.886  18.120   1.774
38847W        W10573  40.780   9.748   4.100
38848W        W10574  44.358  21.543   4.092
38849W        W10575  39.789  22.447   4.052
38850W        W10576  31.783  42.202   9.830
38851W        W10577   6.771  13.884  11.988
38852W        W10578  12.514  31.155   1.452
38853W        W10579   2.880  25.048   2.534
38854W        W10580  23.062  24.806  13.467
38855W        W10581  12.939  40.881  11.142
38856W        W10582  11.882  38.544   3.324
38857W        W10583   2.637   9.858  14.480
38858W        W10584  31.995   4.227  12.680
38859W        W10585   9.716   8.739   1.912
38860W        W10586  20.967  39.256   4.164
38861W        W10587  10.873   5.403  12.936
38862W        W10588  41.607  44.763   0.772
38863W        W10589  36.111  25.983  10.613
38864W        W10590   0.256  40.010   4.584
38865W        W10591   6.801  19.039  14.239
38866W        W10592  44.265  33.617   2.735
38867W        W10593  27.029  25.772   2.875
38868W        W10594   0.356   3.842  10.682
38869W        W10595  30.983   0.179   1.225
38870W        W10596  11.652  44.394   3.741
38871W        W10597  35.615  28.420  11.627
38872W        W10598   6.687  31.165   0.947
38873W        W10599  13.569  42.470  13.419
38874W        W10600  37.833  43.965  14.849
38875W        W10601  44.242  12.076   3.466
38876W        W10602  33.510  37.543  10.740
38877W        W10603  17.269  31.565  12.520
38878W        W10604  32.105  38.933   5.056
38879W        W10605  31.776  12.548   1.266
38880W        W10606  15.250  26.753   0.483
38881W        W10607   8.286   7.203   4.679
38882W        W10608  31.998  32.698  12.984
38883W        W10609  29.056  18.283   2.860
38884W        W10610  43.752  10.874   1.286
38885W        W10611  11.681   1.262   3.281
38886W        W10612  16.598  14.287   4.635
38887W        W10613  28.285   4.795  11.110
38888W        W10614  36.776   0.764  11.592
38889W        W10615  32.725  21.987   2.090
38890W        W10616   1.548  16.315  12.385
38891W        W10617  34.178   7.183  13.890
38892W        W10618  35.973   6.653  14.511
38893W        W10619  35.648  16.285  14.605
38894W        W10620   0.656  41.990   3.183
38895W        W10621  34.355   5.839  11.612
38896W        W10622  24.911  21.626  11.639
38897W        W10623  25.336  42.535   2.450
38898W        W10624   2.650  42.083  10.671
38899W        W10625  38.790  18.807   4.201
38900W        W10626   5.226  30.699   2.207
38901W        W10627  12.584  35.349  10.764
38902W        W10628  22.631  12.181   0.102
38903W        W10629   2.273  18.342   2.369
38904W        W10630  44.961  35.506  14.886
38905W        W10631  11.271   4.976   2.301
38906W        W10632  15.864  33.068   4.681
38907W        W10633   8.488  40.096  11.611
38908W        W10634   5.175  10.710  14.841
38909W        W10635  22.716  36.090  13.017
38910W        W10636  42.105  21.119   4.555
38911W        W10637   8.467  21.510   0.254
38912W        W10638  29.540  25.044  12.612
38913W        W10639  36.917  35.076   1.710
38914W        W10640  35.339   4.996   3.389
38915W        W10641  13.361  17.451  13.947
38916W        W10642  15.036  22.205   4.263
38917W        W10643   2.280  36.464  12.901
38918W        W10644  30.407  18.795   2.902
38919W        W10645  23.931  32.124   1.235
38920W        W10646   0.767  11.219   0.910
38921W        W10647   3.187  20.529   3.610
38922W        W10648  34.997   5.804   0.864
38923W        W10649   9.343  21.211  14.822
38924W        W10650   0.479  29.132  12.319
38925W        W10651  42.701  18.298   2.859
38926W        W10652  43.003  16.795   1.937
38927W        W10653  28.579  31.478   0.650
38928W        W10654  41.364  34.960  10.350
38929W        W10655   6.927  24.593   2.777
38930W        W10656   8.420  34.374   1.283
38931W        W10657  44.798  38.908  13.476
38932W        W10658  25.937  41.568  10.658
38933W        W10659  10.199  32.128   0.559
38934W        W10660  37.806  20.457   2.837
38935W        W10661   0.263  10.743  12.912
38936W        W10662  11.704  13.477  14.362
38937W        W10663  27.903  41.413  11.647
38938W        W10664  31.045  16.655  14.066
38939W        W10665  44.202  20.387   5.371
38940W        W10666  16.178  18.522   1.712
38941W        W10667  13.645   1.383   1.967
38942W        W10668  14.546  11.714  13.430
38943W        W10669  30.619   8.059  14.754
38944W        W10670  18.017  32.449  13.779
38945W        W10671  35.598  43.463   3.764
38946W        W10672   8.600  30.201  14.745
38947W        W10673   2.579   9.912   1.217
38948W        W10674   6.150   2.857   2.741
38949W        W10675  35.344  29.985   4.187
38950W        W10676  19.738   3.772   4.181
38951W        W10677  17.222  24.720   3.121
38952W        W10678   1.388  36.623   4.101
38953W        W10679  17.336  30.055  12.432
38954W        W10680   9.425  39.864   4.368
38955W        W10681  25.725   0.245  14.805
38956W        W10682   3.450  36.005  14.389
38957W        W10683  34.992  13.313  12.935
38958W        W10684  14.685  29.324  14.529
38959W        W10685   8.809  18.250  11.528
38960W        W10686  36.608  21.959   4.171
38961W        W10687  16.655  43.828   3.120
38962W        W10688  42.506  11.705  14.021
38963W        W10689   0.468  12.676  11.425
38964W        W10690  37.497  14.564  11.649
38965W        W10691  19.814  29.462   4.144
38966W        W10692  11.862  11.885   1.384
38967W        W10693  23.629  12.852   4.133
38968W        W10694   6.264  25.120   0.386
38969W        W10695  44.742   8.193   2.655
38970W        W10696  15.545  21.821   1.845
38971W        W10697   0.290  40.835  10.666
38972W        W10698  44.962   4.671   0.378
38973W        W10699  37.034  40.551  12.410
38974W        W10700  18.711  35.507  13.540
38975W        W10701  37.986  29.670   0.513
38976W        W10702  19.841  33.907   4.595
38977W        W10703  38.847  15.032  11.470
38978W        W10704  15.486  33.958  12.597
38979W        W10705   8.991  25.483  13.516
38980W        W10706  11.774  10.778  13.878
38981W        W10707  33.982  15.064   4.558
38982W        W10708   3.945   4.852   2.392
38983W        W10709  39.228  28.161  12.952
38984W        W10710  23.918  34.519  14.419
38985W        W10711  28.005  37.301   0.346
38986W        W10712  33.984  13.918   1.908
38987W        W10713  27.722   0.376  13.053
38988W        W10714  10.860  10.293  12.615
38989W        W10715  24.451  18.216  13.037
38990W        W10716  33.046  18.779   3.862
38991W        W10717  30.183   0.942   2.376
38992W        W10718  16.819  30.411  11.343
38993W        W10719  12.854  10.705  10.445
38994W        W10720  41.781   7.132  11.706
38995W        W10721   9.857   3.332   0.406
38996W        W10722  38.925  25.142  14.336
38997W        W10723  33.778  28.131  14.903
38998W        W10724  43.378   2.031   1.836
38999W        W10725  14.052  17.721  11.023
39000W        W10726  10.470   8.316  13.572
39001W        W10727   6.782  14.730  13.967
39002W        W10728  15.129  23.309  14.211
39003W        W10729  29.568  23.331   5.003
39004W        W10730  13.228  42.958   2.757
39005W        W10731  20.628  38.046   3.298
39006W        W10732  22.619  10.193  10.502
39007W        W10733  28.040   9.865   2.360
39008W        W10734  12.102  32.052  13.618
39009W        W10735  12.250  12.702   3.637
39010W        W10736   9.174  42.879   1.953
39011W        W10737   6.199  37.505  12.797
39012W        W10738   3.489  24.108   0.023
39013W        W10739   2.153  25.672   3.158
39014W        W10740  31.214  37.258  14.390
39015W        W10741  28.640   8.596   3.782
39016W        W10742  23.160  18.363  14.975
39017W        W10743  11.188  14.148  14.543
39018W        W10744  26.098  27.624   3.864
39019W        W10745  26.938  14.087   1.739
39020W        W10746   1.388  39.062   1.866
39021W        W10747  15.120  20.564   1.725
39022W        W10748  18.077  26.685  14.530
39023W        W10749  16.173  11.893  11.288
39024W        W10750  11.865  37.650  14.785
39025W        W10751  36.303  11.872   9.654
39026W        W10752  15.564   0.700  11.597
39027W        W10753  28.462   6.820   0.452
39028W        W10754  39.828   1.005   3.585
39029W        W10755  29.263  41.000  12.506
39030W        W10756  13.709  24.601   4.077
39031W        W10757  40.025  28.579  11.558
39032W        W10758   7.810  10.278  13.860
39033W        W10759  10.695  24.645  14.968
39034W        W10760  35.416  17.962   4.214
39035W        W10761  42.932  38.930  12.454
39036W        W10762  28.679   8.772  10.403
39037W        W10763  30.945  11.863   0.422
39038W        W10764  25.175   8.946  12.827
39039W        W10765  40.984   2.917  11.140
39040W        W10766   6.829  36.098   0.329
39041W        W10767  37.538  42.849   4.530
39042W        W10768  17.820  25.876   1.313
39043W        W10769  29.637  32.686  11.031
39044W        W10770   2.380  13.990  14.255
39045W        W10771   7.301  39.048   1.547
39046W        W10772  38.081   2.289   4.729
39047W        W10773  41.388  14.716  12.852
39048W        W10774  31.020  20.634   3.263
39049W        W10775  35.346  43.869  11.036
39050W        W10776  33.522   4.468  11.958
39051W        W10777  16.606  24.883  12.570
39052W        W10778  13.149  10.180  12.054
39053W        W10779  14.846  24.125   3.741
39054W        W10780  29.788  11.252  11.310
39055W        W10781  15.082  43.198   4.170
39056W        W10782  29.457  23.022  11.551
39057W        W10783   0.414  28.626   4.036
39058W        W10784  41.255  42.363   2.169
39059W        W10785  12.151  34.382  11.625
39060W        W10786  19.192  21.644   2.393
39061W        W10787  22.221  34.636  10.592
39062W        W10788  44.275  30.348  14.778
39063W        W10789  35.104  15.350  12.010
39064W        W10790  37.484   2.736   4.314
39065W        W10791  12.977  37.565  11.502
39066W        W10792  32.450  39.216   0.253
39067W        W10793  34.172  18.653   0.443
39068W        W10794  15.885  19.723  12.732
39069W        W10795  43.888  28.212   0.224
39070W        W10796   1.858  13.651  12.664
39071W        W10797  44.801  35.819   4.821
39072W        W10798  35.872  10.102  11.620
39073W        W10799  22.003  13.867  11.936
39074W        W10800  24.970  35.144   4.696
39075W        W10801  26.304  17.528  13.048
39076W        W10802  33.902  22.566   4.253
39077W        W10803  19.114  30.860  12.571
39078W        W10804  28.134  30.340   5.116
39079W        W10805  43.446  21.543   1.545
39080W        W10806  36.478  32.448  11.628
39081W        W10807  16.607   1.558   2.781
39082W        W10808   7.143  33.382  10.688
39083W        W10809  24.301  40.894  14.962
39084W        W10810   2.902  31.458  13.578
39085W        W10811  23.251   5.949   1.352
39086W        W10812  30.415  35.479  12.824
39087W        W10813  42.067   1.008   4.128
39088W        W10814  31.838  29.463   1.405
39089W        W10815  41.246  21.287   4.984
39090W        W10816  35.626   2.240  13.492
39091W        W10817  26.389  39.825   3.721
39092W        W10818   8.006   9.815   0.401
39093W        W10819  35.145  39.348   4.121
39094W        W10820  41.260  10.255  14.856
39095W        W10821  15.544  20.099  12.648
39096W        W10822  39.323  28.409  12.498
39097W        W10823  38.063  26.002  12.976
39098W        W10824  42.815  14.735  14.074
39099W        W10825  26.407   6.203  11.141
39100W        W10826  24.540  25.955  11.158
39101W        W10827  14.619  38.216  13.945
39102W        W10828  25.033  30.137   2.673
39103W        W10829  23.167  13.973  10.159
39104W        W10830  16.096  31.678   2.840
39105W        W10831  39.757   2.710  12.981
39106W        W10832  30.475  20.539   2.090
39107W        W10833  10.911  25.093   5.302
39108W        W10834   0.211  12.687  14.287
39109W        W10835   7.269  14.159  10.432
39110W        W10836  12.360  19.670  14.745
39111W        W10837  34.891  22.736   1.033
39112W        W10838  30.964  23.092   0.138
39113W        W10839  28.375  12.146   2.853
39114W        W10840  41.912  18.261  14.213
39115W        W10841   8.677  25.125  14.433
39116W        W10842  24.103  10.791  13.474
39117W        W10843   7.304  38.174  13.423
39118W        W10844  13.057  29.297  12.282
39119W        W10845  21.064  43.082  11.917
39120W        W10846  15.022  35.804  11.130
39121W        W10847  12.126  26.008  14.381
39122W        W10848  31.212  28.343  10.328
39123W        W10849   4.269   1.415  12.989
39124W        W10850  43.543  33.820   4.157
39125W        W10851  23.047  18.554  14.023
39126W        W10852   0.719  22.136   2.502
39127W        W10853  18.636  20.049   4.422
39128W        W10854  31.357  31.196   4.118
39129W        W10855  33.457  31.604   2.719
39130W        W10856  18.687  24.570   4.999
39131W        W10857  15.618  11.294  10.705
39132W        W10858   3.972   5.339   0.368
39133W        W10859  37.371  12.748   3.258
39134W        W10860   4.391  41.033  10.727
39135W        W10861  26.457  42.838   4.196
39136W        W10862   7.107  35.908   3.222
39137W        W10863  44.611  40.171   3.854
39138W        W10864   8.973  34.079  10.263
39139W        W10865  32.411  26.103  12.962
39140W        W10866   7.191  40.536  13.885
39141W        W10867   1.714  41.519   2.641
39142W        W10868  31.676  18.172   4.181
39143W        W10869  38.828  24.158   1.880
39144W        W10870  31.867  25.453   0.324
39145W        W10871  17.117  31.250  11.062
39146W        W10872  22.662   2.452   3.139
39147W        W10873  24.484  33.641  12.919
39148W        W10874  16.304   4.912  11.790
39149W        W10875  36.125  40.453  13.427
39150W        W10876  19.054  28.525   0.594
39151W        W10877  12.571  30.679   1.231
39152W        W10878   6.054  34.427   4.505
39153W        W10879  40.910  12.689   2.944
39154W        W10880  20.312  32.154   4.654
39155W        W10881  21.699   7.690  11.685
39156W        W10882  18.316  40.044   2.801
39157W        W10883   0.830  19.584   0.737
39158W        W10884  24.673  24.193   2.449
39159W        W10885  10.719  27.899   0.005
39160W        W10886  29.677  16.276  13.038
39161W        W10887  20.679  37.833  13.134
39162W        W10888  24.654   8.182  14.352
39163W        W10889  39.893   6.255  11.183
39164W        W10890  24.782  41.415   3.714
39165W        W10891   8.275  28.558   0.912
39166W        W10892   5.130  19.963  11.115
39167W        W10893   8.215   2.044  11.575
39168W        W10894  22.846  29.666  13.375
39169W        W10895  41.888  29.043  11.448
39170W        W10896   7.643   4.291  10.046
39171W        W10897  21.765  29.905  14.020
39172W        W10898  19.997  12.333  11.159
39173W        W10899  21.320  25.994   2.280
39174W        W10900  32.014   9.168   4.268
39175W        W10901   2.009   6.179   2.336
39176W        W10902  42.050  36.350   0.291
39177W        W10903  16.639  12.351   0.479
39178W        W10904  15.201  34.170   3.131
39179W        W10905  29.109  26.458   3.171
39180W        W10906  20.762  34.783  11.135
39181W        W10907  38.888  42.972   3.331
39182W        W10908  39.361   0.088  12.518
39183W        W10909  43.428  17.074  10.717
39184W        W10910  40.734   8.150  11.164
39185W        W10911  27.955  19.937  13.242
39186W        W10912  27.160  13.975  11.962
39187W        W10913   5.647  20.678  11.356
39188W        W10914  27.630  44.512   0.718
39189W        W10915  36.149  29.050  13.580
39190W        W10916   6.024   1.276   3.645
39191W        W10917  24.655   3.814   4.264
39192W        W10918  44.439   8.802  13.998
39193W        W10919   8.970  19.593  13.874
39194W        W10920  42.882  30.678   4.876
39195W        W10921  40.849  37.055  11.901
39196W        W10922  12.874  33.933  11.987
39197W        W10923  27.856   5.876   2.728
39198W        W10924  24.605  19.731  14.344
39199W        W10925   2.250  28.505   4.485
39200W        W10926  35.053  36.390   2.375
39201W        W10927  25.109  44.983   4.201
39202W        W10928  44.029  20.599   0.286
39203W        W10929  35.658  23.621  12.480
39204W        W10930  13.648  30.158  14.468
39205W        W10931  42.980  20.654   2.345
39206W        W10932  32.582  42.624   4.971
39207W        W10933  18.531  17.314   0.468
39208W        W10934   7.303  28.110  11.958
39209W        W10935  25.190  13.517  12.800
39210W        W10936  10.603   7.832  11.029
39211W        W10937  28.170  12.485   4.063
39212W        W10938   4.435  44.328  12.553
39213W        W10939   4.378  30.012  14.564
39214W        W10940  36.088   6.912  13.404
39215W        W10941  40.108  44.834  11.348
39216W        W10942  13.189   4.615   3.054
39217W        W10943  24.475  39.804  14.847
39218W        W10944  41.565  34.068   2.150
39219W        W10945   0.061  32.845  14.437
39220W        W10946   2.213  23.187   4.231
39221W        W10947  33.264  15.825  11.551
39222W        W10948   8.452  24.953  10.173
39223W        W10949  43.962  11.615  13.976
39224W        W10950   0.998  43.850   4.728
39225W        W10951   8.695   8.161   1.894
39226W        W10952  26.883  44.481   4.193
39227W        W10953  41.324  38.622  13.324
39228W        W10954  26.511  26.837  13.541
39229W        W10955   4.225  38.009  10.628
39230W        W10956   5.673  26.736  11.276
39231W        W10957  24.719  10.608  14.292
39232W        W10958  44.368   2.239  14.576
39233W        W10959  23.193   8.797   0.835
39234W        W10960   0.089  30.958   4.031
39235W        W10961   8.331   2.971   4.120
39236W        W10962   2.745  25.115   4.046
39237W        W10963  14.986  30.715  14.507
39238W        W10964  22.591   9.655  10.232
39239W        W10965  11.314   9.565  10.720
39240W        W10966  41.586  16.367  12.439
39241W        W10967   6.773  10.047   1.699
39242W        W10968   8.885   8.789  13.918
39243W        W10969  24.166  15.190   4.328
39244W        W10970   7.425  31.492  12.010
39245W        W10971  20.337  20.492  11.284
39246W        W10972  17.160  41.258  14.315
39247W        W10973  42.940   2.953  13.379
39248W        W10974  38.873  25.354  11.583
39249W        W10975  17.011  34.571  12.409
39250W        W10976  26.789  29.560   5.038
39251W        W10977  35.518   5.399  14.428
39252W        W10978   3.707  36.122  13.798
39253W        W10979  41.428   0.012   1.291
39254W        W10980  21.116  12.851   1.974
39255W        W10981  17.556   5.916   0.407
39256W        W10982   9.871   2.346   4.322
39257W        W10983  13.260  40.541   4.177
39258W        W10984  39.526  14.093  12.411
39259W        W10985  15.857  29.221   1.803
39260W        W10986   1.665  44.864  11.356
39261W        W10987  43.618  16.837  14.956
39262W        W10988  22.629  40.716  12.977
39263W        W10989  35.571  39.790  12.978
39264W        W10990   6.509  44.862   0.454
39265W        W10991  25.254   2.577   2.659
39266W        W10992  43.617  41.180  11.868
39267W        W10993  27.671  30.051  13.762
39268W        W10994  21.625  16.327   0.326
39269W        W10995  41.986   2.210   4.709
39270W        W10996  27.052  11.299  14.495
39271W        W10997   3.926   3.629   3.734
39272W        W10998  19.173  40.847  13.058
39273W        W10999   2.662  27.023  13.400
39274W        W11000  35.763  17.514   1.457
39275W        W11001  11.362   5.742   0.974
39276W        W11002  41.034  32.495  13.236
39277W        W11003  15.516   5.150  13.797
39278W        W11004  42.414  32.526   4.132
39279W        W11005  12.080   9.945  11.107
39280W        W11006  28.217  21.966   1.835
39281W        W11007  31.209  42.154  14.417
39282W        W11008   6.196   2.663   4.691
39283W        W11009  11.726  41.106  13.321
39284W        W11010  28.975   6.185  11.341
39285W        W11011  18.549   7.261   0.939
39286W        W11012  21.112  14.772   3.263
39287W        W11013  13.852  18.762   3.312
39288W        W11014  10.610  38.776   3.649
39289W        W11015  31.945   4.831   4.538
39290W        W11016  44.957  43.305   2.265
39291W        W11017  44.057  35.578   0.510
39292W        W11018  21.003  36.090  12.110
39293W        W11019   5.364  30.453  13.772
39294W        W11020   1.328  13.579  10.344
39295W        W11021  24.472  27.608  11.949
39296W        W11022  32.939  23.679   2.461
39297W        W11023   0.445  35.177  12.745
39298W        W11024  36.778  31.774  14.914
39299W        W11025   2.820  15.374   1.246
39300W        W11026   8.242   3.805   2.315
39301W        W11027  21.046  37.959   3.700
39302W        W11028  15.102   1.251   0.279
39303W        W11029  11.158   1.820   4.779
39304W        W11030  40.976  13.368  14.325
39305W        W11031  44.420  16.098   2.416
39306W        W11032   6.219  20.043   3.313
39307W        W11033  35.490  25.558   2.168
39308W        W11034  10.600  38.071   2.385
39309W        W11035   2.382  44.519  12.901
39310W        W11036  12.609  35.907   3.810
39311W        W11037  29.377  29.951   4.800
39312W        W11038  36.764  37.269  10.327
39313W        W11039   1.622  38.436   2.637
39314W        W11040   3.226  35.201  13.922
39315W        W11041  38.651  19.269   3.252
39316W        W11042  22.815  37.020   4.146
39317W        W11043  18.332   8.104  12.459
39318W        W11044  32.645   7.178   0.255
39319W        W11045   4.338  29.477  14.418
39320W        W11046   7.757  32.941   0.918
39321W        W11047  44.518  20.025   1.715
39322W        W11048   8.645  16.589  11.153
39323W        W11049  42.373   4.798   2.459
39324W        W11050  21.479   5.769   3.578
39325W        W11051   9.104  30.548  12.516
39326W        W11052   0.776  25.074  12.879
39327W        W11053  25.913  38.983  13.824
39328W        W11054   8.331  16.317   4.632
39329W        W11055  37.244  14.316  13.934
39330W        W11056  28.987   0.227  11.800
39331W        W11057  21.333  14.129   4.099
39332W        W11058  21.287  43.801   1.693
39333W        W11059   1.677  28.653  11.573
39334W        W11060  39.027  39.487   1.753
39335W        W11061   1.796   4.286  14.883
39336W        W11062   4.688  43.568   4.489
39337W        W11063  16.034  26.079  13.942
39338W        W11064  32.313  33.569   2.793
39339W        W11065   5.833  17.158  14.840
39340W        W11066  12.651   1.481   3.256
39341W        W11067  20.219  37.219   0.704
39342W        W11068  31.037   4.645   3.246
39343W        W11069  30.590   2.649   0.902
39344W        W11070  13.593  33.959   1.433
39345W        W11071  11.602   5.863   4.561
39346W        W11072  40.806  34.021   1.977
39347W        W11073  40.303   4.477   3.354
39348W        W11074  41.812  29.156   0.456
39349W        W11075   8.854  12.278  14.505
39350W        W11076  44.934  23.683   0.199
39351W        W11077  24.611  14.500  13.458
39352W        W11078   2.029  43.942  11.570
39353W        W11079  19.059  36.310  12.915
39354W        W11080  43.683  23.027   4.646
39355W        W11081  23.047  22.685  10.466
39356W        W11082  14.611  25.200   3.179
39357W        W11083   7.899  23.028  13.498
39358W        W11084  30.513  23.705   5.257
39359W        W11085   9.773  28.419   3.806
39360W        W11086   3.712  43.442  12.030
39361W        W11087   5.624  32.123   2.968
39362W        W11088  40.402  17.327   4.709
39363W        W11089  16.769   8.446   3.232
39364W        W11090  38.498   5.606  11.163
39365W        W11091  30.450  12.026  11.147
39366W        W11092  27.194   3.366   3.115
39367W        W11093  21.997  21.744  13.571
39368W        W11094   0.078  12.557   4.321
39369W        W11095  39.040   2.455   2.532
39370W        W11096  23.823  28.986   4.131
39371W        W11097  13.782  40.925   0.278
39372W        W11098  40.324  20.256   1.924
39373W        W11099  36.457   6.368   3.576
39374W        W11100  27.197  22.350  10.776
39375W        W11101  25.658  38.567   0.970
39376W        W11102   1.414  26.443   1.589
39377W        W11103  34.515   5.528   1.496
39378W        W11104  39.353   4.219  12.438
39379W        W11105  43.552  23.129   4.090
39380W        W11106  32.410  35.444   5.026
39381W        W11107   4.210   0.220   0.225
39382W        W11108  18.439  24.041  14.325
39383W        W11109  20.552  11.262  12.911
39384W        W11110  32.882  40.453   3.888
39385W        W11111  34.266   7.346  14.387
39386W        W11112  36.546  26.048   1.585
39387W        W11113  10.648   7.091   1.258
39388W        W11114   8.971  41.041   0.666
39389W        W11115  37.542  21.992  13.824
39390W        W11116  19.975  34.582  14.586
39391W        W11117  14.135  40.558   2.259
39392W        W11118  14.651  31.953   4.124
39393W        W11119  33.334   6.755  12.598
39394W        W11120  22.471  34.566   2.601
39395W        W11121  18.759  42.847   1.708
39396W        W11122  42.257   0.412   4.066
39397W        W11123  20.495  12.158  13.369
39398W        W11124  22.566  32.545  11.912
39399W        W11125  41.343  44.786   2.220
39400W        W11126  31.126  35.953   3.157
39401W        W11127  20.791  35.981  11.650
39402W        W11128  22.046  10.189  11.739
39403W        W11129  36.407  25.126   0.556
39404W        W11130  29.760  43.154   5.050
39405W        W11131  30.970   9.942  11.537
39406W        W11132  39.792  33.563   3.125
39407W        W11133  14.075  36.121  11.938
39408W        W11134  32.832   5.311   3.226
39409W        W11135  39.882  31.376  10.755
39410W        W11136  12.507  33.364  13.280
39411W        W11137   0.832  32.910  11.484
39412W        W11138  26.719  41.508   2.006
39413W        W11139  36.621  24.780   2.785
39414W        W11140  35.383  17.657  14.123
39415W        W11141  18.971  27.230   1.864
39416W        W11142  36.059  12.726  14.094
39417W        W11143   3.849  15.043   5.515
39418W        W11144  21.181  18.561   1.569
39419W        W11145  32.103  18.596   3.159
39420W        W11146  28.094  35.416  10.591
39421W        W11147  24.705  21.256   3.803
39422W        W11148  27.742  24.505   4.990
39423W        W11149  17.183  16.587  10.751
39424W        W11150  13.811  13.848   4.638
39425W        W11151  25.279  29.710   2.822
39426W        W11152  21.116  17.667   4.521
39427W        W11153  41.584   0.477  14.511
39428W        W11154   1.161  18.349  14.829
39429W        W11155  35.290  43.029   2.892
39430W        W11156  24.485  18.040  13.525
39431W        W11157  30.610  13.491   3.678
39432W        W11158   4.860  41.904  10.089
39433W        W11159  41.480  20.056  12.417
39434W        W11160   8.258  14.375   1.937
39435W        W11161  40.460  36.679   4.233
39436W        W11162  38.786  10.369  12.171
39437W        W11163   5.336   2.977   4.246
39438W        W11164  10.174   2.864  14.240
39439W        W11165   4.703   5.942  10.328
39440W        W11166  29.530  27.730   3.705
39441W        W11167  33.320  34.917   5.277
39442W        W11168   3.251  25.675   5.079
39443W        W11169  33.675  33.287   4.228
39444W        W11170   8.671   7.403  13.587
39445W        W11171  21.220   5.641  14.368
39446W        W11172  28.733   6.821   2.381
39447W        W11173  40.544  32.233  12.055
39448W        W11174  40.771  10.180  12.074
39449W        W11175  26.983  28.031  12.420
39450W        W11176   8.140  35.014   2.910
39451W        W11177  33.704   2.422   3.244
39452W        W11178  40.113  41.516  12.523
39453W        W11179  12.098  25.599   0.687
39454W        W11180   3.302  24.092  14.031
39455W        W11181  22.127  13.904   2.304
39456W        W11182   2.310   3.965  11.106
39457W        W11183   0.332  41.684   3.447
39458W        W11184  34.884  43.746  14.503
39459W        W11185  25.280  43.819   4.560
39460W        W11186  25.186  29.913  14.845
39461W        W11187   3.137   5.390   2.153
39462W        W11188  42.440  23.267  14.381
39463W        W11189   3.264  16.659  12.372
39464W        W11190  34.428  16.112   1.398
39465W        W11191  12.075  31.673  10.253
39466W        W11192   2.169  16.196   1.075
39467W        W11193  37.982  19.288  11.132
39468W        W11194  28.650   3.477   3.332
39469W        W11195  33.192  24.008   5.465
39470W        W11196  38.483   1.501   0.474
39471W        W11197  26.274   8.628   4.623
39472W        W11198  36.429   7.954  14.248
39473W        W11199  32.037  37.842  13.906
39474W        W11200  13.057  38.112  14.798
39475W        W11201   0.851  38.388  14.484
39476W        W11202  18.854  35.302   1.001
39477W        W11203  25.576  16.681   0.448
39478W        W11204  44.297  15.602  12.957
39479W        W11205  23.582  15.099  11.928
39480W        W11206   8.257  18.689  10.636
39481W        W11207  38.369  37.856   0.830
39482W        W11208  38.967  21.619  11.513
39483W        W11209   0.494  13.095  11.752
39484W        W11210  34.739  33.201   3.860
39485W        W11211  11.121  41.050  10.777
39486W        W11212  41.960  23.238   4.497
39487W        W11213   1.743  39.010  13.807
39488W        W11214  35.467  10.357  14.097
39489W        W11215  21.438  28.260   4.613
39490W        W11216  13.740  31.429   1.661
39491W        W11217  35.003  32.907   4.219
39492W        W11218  30.723  38.982   2.688
39493W        W11219  42.064  28.069  11.266
39494W        W11220  40.791  14.030   4.157
39495W        W11221  16.166  30.216  11.105
39496W        W11222  31.341  25.664   2.227
39497W        W11223   8.387  33.387  10.476
39498W        W11224  20.125  35.981   5.155
39499W        W11225  39.022  10.769  10.595
39500W        W11226  32.861  41.505   4.513
39501W        W11227  11.183   3.839   0.937
39502W        W11228   0.449   7.382   3.930
39503W        W11229  27.717  37.027  11.665
39504W        W11230  17.762  27.598   1.624
39505W        W11231  18.966   2.781   3.730
39506W        W11232   2.047  29.060   0.299
39507W        W11233  21.310   5.124  14.320
39508W        W11234  41.062  19.635   4.885
39509W        W11235   2.809   7.748   4.763
39510W        W11236  37.620  25.094  13.096
39511W        W11237   2.787   7.959   0.018
39512W        W11238  43.094  42.531   3.260
39513W        W11239   4.107  11.458   0.738
39514W        W11240   3.018  28.117   1.966
39515W        W11241  22.975  10.289  13.989
39516W        W11242  18.811  11.507   4.513
39517W        W11243  25.936  15.372   0.355
39518W        W11244  42.460  28.472   3.268
39519W        W11245   3.426  36.387  12.585
39520W        W11246   1.795   8.127   2.204
39521W        W11247  21.405  25.965   3.265
39522W        W11248   1.688   4.719   0.741
39523W        W11249  30.168  16.174   1.157
39524W        W11250  16.790  12.134  14.975
39525W        W11251  32.590   4.444  13.318
39526W        W11252   0.273  31.947  14.938
39527W        W11253  24.475  26.219   0.469
39528W        W11254  10.420  25.435   0.489
39529W        W11255   7.362  16.080  11.623
39530W        W11256   5.139  41.793   4.467
39531W        W11257  40.497  28.431   2.419
39532W        W11258  26.269  13.471   3.154
39533W        W11259   6.477  35.000  12.125
39534W        W11260  31.123  33.112  11.956
39535W        W11261  21.276  14.001  13.395
39536W        W11262  34.894  39.888  14.875
39537W        W11263  12.540  33.908   2.213
39538W        W11264  33.465  43.979  12.552
39539W        W11265   2.343  28.103  11.521
39540W        W11266  14.182  12.825   1.141
39541W        W11267   5.608  24.750  12.942
39542W        W11268  15.650  39.283   3.642
39543W        W11269  18.197  44.276   0.760
39544W        W11270   5.954  36.794   1.795
39545W        W11271  41.581  39.882  12.166
39546W        W11272  22.132  18.675   4.101
39547W        W11273  10.378  39.273   3.625
39548W        W11274   0.618  24.123   5.103
39549W        W11275  44.517  42.089  11.118
39550W        W11276  24.121  32.981   0.306
39551W        W11277  24.630   0.348  11.685
39552W        W11278  37.048  26.831  11.122
39553W        W11279   9.301  27.087  14.368
39554W        W11280  34.485  25.981  14.469
39555W        W11281  39.822  14.960  10.747
39556W        W11282  30.865  43.738   3.696
39557W        W11283  42.653  10.317  11.710
39558W        W11284  21.050  21.784  10.716
39559W        W11285   8.799  14.583  13.065
39560W        W11286   9.857  15.211   2.847
39561W        W11287  15.194  36.667  12.650
39562W        W11288   1.335  37.143  11.569
39563W        W11289  15.381   3.509   4.763
39564W        W11290  24.785  30.089  13.884
39565W        W11291  26.617  20.624  13.256
39566W        W11292  38.329  21.089  12.456
39567W        W11293  12.792   6.301   4.910
39568W        W11294  43.282  32.362  13.079
39569W        W11295  38.669   7.839  14.010
39570W        W11296  26.266  12.857  12.133
39571W        W11297  15.172  35.488  13.937
39572W        W11298  12.560  25.740  14.755
39573W        W11299  12.128   4.439   0.021
39574W        W11300  15.181  31.499  10.547
39575W        W11301  15.860  14.354  10.621
39576W        W11302  41.680  37.467  11.130
39577W        W11303  29.652  30.970   0.767
39578W        W11304  33.488  18.824  12.532
39579W        W11305  37.369  11.337  12.924
39580W        W11306  29.930  18.607   0.731
39581W        W11307  11.320   8.353   3.420
39582W        W11308  43.240  21.633  10.541
39583W        W11309  43.175  25.557   2.360
39584W        W11310  18.283  18.613  13.635
39585W        W11311  16.035   3.210  10.743
39586W        W11312  23.107  15.894  13.425
39587W        W11313   3.200  11.084  12.586
39588W        W11314  30.104  33.696  10.727
39589W        W11315   8.122  30.079  11.932
39590W        W11316  22.436  41.350  14.494
39591W        W11317   9.095  26.140  13.339
39592W        W11318   7.394  39.463   1.979
39593W        W11319  26.379  44.112  10.606
39594W        W11320  10.634  11.291  13.639
39595W        W11321   8.793  14.749  10.940
39596W        W11322   6.345  41.978   2.775
39597W        W11323  21.140  11.844   0.887
39598W        W11324   8.789   6.532  13.811
39599W        W11325   0.664  12.302  12.590
39600W        W11326  25.897  32.059  10.601
39601W        W11327   3.384   8.188   1.403
39602W        W11328  35.417  35.591  14.357
39603W        W11329  15.314  13.846  14.433
39604W        W11330  23.052  25.481   0.209
39605W        W11331  35.281  37.490  13.960
39606W        W11332   9.653  24.169  14.532
39607W        W11333  17.295  12.648   4.985
39608W        W11334  20.058  29.424   1.953
39609W        W11335  32.555  16.745  10.335
39610W        W11336  36.035  18.460  14.170
39611W        W11337  11.034  20.336  13.410
39612W        W11338  44.438  40.572   0.825
39613W        W11339   3.422   4.290   4.464
39614W        W11340  13.802   3.273   3.640
39615W        W11341  21.701  16.630  10.717
39616W        W11342  10.621  40.297   4.760
39617W        W11343  18.183   7.793   1.507
39618W        W11344  35.901  30.084  14.657
39619W        W11345   4.528  25.107  12.409
39620W        W11346  27.044  24.783  11.237
39621W        W11347  38.396  22.506   0.843
39622W        W11348  22.080  27.274  14.093
39623W        W11349  40.910   4.245  10.702
39624W        W11350  40.746  19.021   2.077
39625W        W11351  28.540  44.506  10.619
39626W        W11352  24.854   3.814   5.142
39627W        W11353   5.937  20.276  11.561
39628W        W11354  16.364  28.190   3.755
39629W        W11355   0.351  26.475   1.279
39630W        W11356   6.150   6.799  12.403
39631W        W11357   2.519   9.309   4.254
39632W        W11358  31.873  14.173  12.958
39633W        W11359  26.045   3.806   2.336
39634W        W11360  40.313  39.004  14.412
39635W        W11361   2.317  37.471  14.030
39636W        W11362  27.987  21.314  11.530
39637W        W11363  37.594   2.895  13.124
39638W        W11364  13.042  16.235   3.153
39639W        W11365   6.637   1.467  13.416
39640W        W11366  20.474  27.743   3.582
39641W        W11367  28.731  26.069   0.730
39642W        W11368  16.747   7.244  12.001
39643W        W11369   5.809  22.759  13.845
39644W        W11370   0.242   9.864   3.891
39645W        W11371  27.718  10.847  12.894
39646W        W11372  18.618   9.988   1.617
39647W        W11373  27.041  20.108  14.851
39648W        W11374  20.742  27.020  14.712
39649W        W11375  34.544  23.751   0.477
39650W        W11376  41.017  32.165  14.800
39651W        W11377   2.316  30.379   0.980
39652W        W11378  14.862  30.408   2.264
39653W        W11379  43.238  38.267   4.505
39654W        W11380  28.945  14.056   0.232
39655W        W11381   7.809  10.349   2.588
39656W        W11382  38.094  23.287   3.261
39657W        W11383  35.488  20.619   3.764
39658W        W11384   2.916  23.549   3.723
39659W        W11385  35.984  18.980  11.993
39660W        W11386  41.530  35.387  10.629
39661W        W11387  32.449  10.632   1.682
39662W        W11388   6.920  12.808   3.685
39663W        W11389   8.870  40.336  12.415
39664W        W11390  23.619   2.629   4.771
39665W        W11391  28.949  15.282  14.060
39666W        W11392   0.226  19.799  11.366
39667W        W11393  31.874  34.205  13.845
39668W        W11394  13.914  28.192  11.159
39669W        W11395  13.599  32.079  12.340
39670W        W11396   4.678  18.278   4.288
39671W        W11397  20.148  26.597   4.006
39672W        W11398  27.356  36.272  14.223
39673W        W11399   1.503  16.759  11.483
39674W        W11400   1.295   0.739   2.304
39675W        W11401  16.307   7.784   4.546
39676W        W11402  35.256  12.033  13.327
39677W        W11403  13.908  26.411  13.591
39678W        W11404  36.346  17.724  13.546
39679W        W11405  22.492  13.283  12.491
39680W        W11406  34.685  23.508  11.505
39681W        W11407  13.766   2.421  14.181
39682W        W11408  11.245  42.733   2.220
39683W        W11409   3.700  15.969   1.637
39684W        W11410  18.454  12.262   0.558
39685W        W11411  43.397  30.376  13.102
39686W        W11412  34.591  36.946  11.085
39687W        W11413  21.682  34.008   0.056
39688W        W11414   7.395  34.269   5.084
39689W        W11415   6.948  25.483  13.419
39690W        W11416  37.606  24.638   2.652
39691W        W11417   3.468   5.945  14.984
39692W        W11418   8.466  28.647  13.811
39693W        W11419  31.681  11.446  14.306
39694W        W11420  23.235   3.651   1.852
39695W        W11421  33.099  44.759  14.929
39696W        W11422  18.670  41.187   2.782
39697W        W11423  20.910  14.948  10.638
39698W        W11424  25.850   1.301  10.558
39699W        W11425   1.897  34.487  14.058
39700W        W11426   4.234   5.219   3.473
39701W        W11427  41.511   1.248  14.899
39702W        W11428  25.847  25.795  11.166
39703W        W11429  27.584   3.367  10.663
39704W        W11430  24.104  42.386  10.699
39705W        W11431  27.388  39.987   1.208
39706W        W11432   4.407  38.110   2.183
39707W        W11433  15.726   5.011   0.544
39708W        W11434  44.088  43.334  12.176
39709W        W11435  21.626   5.929  10.723
39710W        W11436   9.303  32.590  12.466
39711W        W11437  30.960   7.131  11.079
39712W        W11438  33.738  38.818   5.157
39713W        W11439   8.873  37.908   0.849
39714W        W11440  24.452  21.186   3.339
39715W        W11441  41.330  16.289   4.788
39716W        W11442  28.847  16.666  11.614
39717W        W11443   4.617  37.845   2.918
39718W        W11444  37.494  14.662   0.949
39719W        W11445  11.721   1.677   0.021
39720W        W11446  23.175  30.519  13.850
39721W        W11447  11.616  38.366   0.840
39722W        W11448  40.314  14.648   3.213
39723W        W11449  30.952   7.218   3.637
39724W        W11450   0.982  18.811   1.702
39725W        W11451  16.571   2.184  14.912
39726W        W11452   9.109   9.216   3.305
39727W        W11453  30.160  32.110  13.339
39728W        W11454   8.883  32.139   0.490
39729W        W11455  10.183  27.252   4.156
39730W        W11456  24.423  35.911   1.523
39731W        W11457  26.354   6.407  13.980
39732W        W11458   8.650   0.523  13.196
39733W        W11459   9.049  29.300   1.961
39734W        W11460   0.926  12.299  10.702
39735W        W11461  41.265  31.103  12.606
39736W        W11462   7.787  11.644  13.339
39737W        W11463  22.684  32.517  14.022
39738W        W11464   2.895  14.158  11.407
39739W        W11465  19.006  24.011   3.390
39740W        W11466  20.148  42.207  13.348
39741W        W11467  20.598  26.123   0.834
39742W        W11468  32.839  37.805   0.355
39743W        W11469  21.520   2.997  14.104
39744W        W11470  32.124  13.218  14.370
39745W        W11471   1.849   0.403  14.852
39746W        W11472   8.303  23.509  13.415
39747W        W11473  11.739   7.776   1.834
39748W        W11474   5.550  20.057  13.006
39749W        W11475   3.911  21.563   2.792
39750W        W11476  30.436   5.977   4.326
39751W        W11477   0.842   5.796   1.449
39752W        W11478  43.548  32.481  11.625
39753W        W11479  41.956   8.288   4.172
39754W        W11480  10.616   2.204  14.954
39755W        W11481   4.811  10.904   1.821
39756W        W11482  25.462  14.237   1.933
39757W        W11483  15.147   2.284   4.974
39758W        W11484  39.250  22.645  12.233
39759W        W11485  16.792   4.799  14.560
39760W        W11486   7.932  12.829   4.623
39761W        W11487  10.919  24.111   1.992
39762W        W11488   5.628  21.766   3.327
39763W        W11489  16.882   8.560  11.687
39764W        W11490  39.490  40.116   0.381
39765W        W11491  10.323  17.074   0.267
39766W        W11492   0.311  36.794  10.711
39767W        W11493  32.103   0.211  11.517
39768W        W11494  35.201  26.561   1.788
39769W        W11495  27.900  11.631  11.953
39770W        W11496   3.850  41.967   2.412
39771W        W11497  26.162  33.369   1.663
39772W        W11498   2.747  25.618  12.990
39773W        W11499   0.578  32.124  12.104
39774W        W11500   3.695   5.465   1.295
39775W        W11501  43.406  20.410   2.436
39776W        W11502  30.006  12.720  13.817
39777W        W11503  10.672  30.082  14.382
39778W        W11504  17.003  14.393  14.768
39779W        W11505  36.333   2.506   0.970
39780W        W11506   8.560  21.400   4.664
39781W        W11507   5.278   3.336   0.807
39782W        W11508  22.308  36.844  12.146
39783W        W11509  34.917  43.387  10.131
39784W        W11510  35.890  20.225  13.377
39785W        W11511  33.537  32.976  14.716
39786W        W11512  32.551   5.722  11.438
39787W        W11513  20.996  12.669  13.043
39788W        W11514  37.308  39.849   2.014
39789W        W11515  31.758  10.195   0.470
39790W        W11516  25.995   0.752   0.275
39791W        W11517  24.023  30.827   0.802
39792W        W11518  12.296  27.090  12.446
39793W        W11519  35.945   9.631   2.581
39794W        W11520  18.789  19.266   3.004
39795W        W11521  33.925  18.610   3.339
39796W        W11522   3.845   4.157  13.903
39797W        W11523  17.538  31.746   1.553
39798W        W11524   3.171  44.639  11.594
39799W        W11525  15.745  10.709  11.491
39800W        W11526  21.116   5.192   1.513
39801W        W11527  27.759   3.426   3.299
39802W        W11528   5.486  20.776  12.553
39803W        W11529   2.939  26.035  13.653
39804W        W11530   8.734  44.561  12.143
39805W        W11531   5.230  38.823  11.343
39806W        W11532  44.027  39.706   0.805
39807W        W11533  37.234  44.316   2.665
39808W        W11534   5.251   2.491  10.581
39809W        W11535  24.104  11.705  14.567
39810W        W11536  35.384  37.815   0.409
39811W        W11537   4.459  32.121   4.143
39812W        W11538  32.056  18.148   0.503
39813W        W11539  23.599  25.469   3.911
39814W        W11540  13.177  11.312   4.186
39815W        W11541  22.755  15.127  14.763
39816W        W11542  18.641  34.350   0.849
39817W        W11543  13.550  17.559  13.469
39818W        W11544  31.512  37.968  12.891
39819W        W11545  10.158   5.011  12.750
39820W        W11546   1.367  30.128  13.313
39821W        W11547  14.048  39.485  14.739
39822W        W11548   6.663  34.172  14.831
39823W        W11549  41.830   1.235  10.566
39824W        W11550  17.321  37.915  11.865
39825W        W11551  39.637  27.027   4.140
39826W        W11552  27.748  22.259  11.778
39827W        W11553  43.470  40.628   2.171
39828W        W11554  25.433   9.155   0.843
39829W        W11555  17.775  43.270  14.472
39830W        W11556  18.321  22.687  11.514
39831W        W11557  13.313  23.935   2.103
39832W        W11558  29.336   7.444  12.503
39833W        W11559  10.396  32.364  14.074
39834W        W11560  19.502  32.498  11.097
39835W        W11561  22.318  29.155   0.472
39836W        W11562  19.709  24.886  11.689
39837W        W11563  21.029  18.743   2.337
39838W        W11564   2.939   3.685  13.947
39839W        W11565  19.343  28.100  13.954
39840W        W11566  32.291   6.262  10.687
39841W        W11567  31.869  26.110   1.232
39842W        W11568  21.972  40.014  11.020
39843W        W11569   3.291  28.665  13.781
39844W        W11570  40.281  38.627   3.962
39845W        W11571  14.735  25.229  11.156
39846W        W11572   9.888  36.150   4.098
39847W        W11573   3.515  28.219   4.443
39848W        W11574  33.555  16.293   2.844
39849W        W11575  10.247  10.816   4.173
39850W        W11576   6.960  14.283  14.111
39851W        W11577  19.363  15.386  12.929
39852W        W11578  19.362  22.017  11.116
39853W        W11579  25.990  14.132  12.506
39854W        W11580  17.168  42.222   0.963
39855W        W11581  21.700  35.536   1.464
39856W        W11582   4.322   7.398  10.534
39857W        W11583   1.415   5.620  14.853
39858W        W11584  37.545  13.704   3.622
39859W        W11585  26.102  12.342   0.326
39860W        W11586  18.972   6.870  12.947
39861W        W11587  38.384   0.500  12.094
39862W        W11588   9.012  32.838   1.891
39863W        W11589  23.500   6.190  11.010
39864W        W11590  14.602  26.617   4.529
39865W        W11591  43.103  36.441   4.764
39866W        W11592   5.009   6.172  12.561
39867W        W11593   5.746  37.996   0.148
39868W        W11594  10.835  23.705  14.512
39869W        W11595  15.574   4.710   2.179
39870W        W11596  12.207  40.913  13.300
39871W        W11597  36.782  19.707   1.831
39872W        W11598   2.740  10.282   2.761
39873W        W11599  35.237  18.400   0.713
39874W        W11600  40.740  21.602  11.241
39875W        W11601  30.257  12.873   2.228
39876W        W11602   2.366   6.346   0.199
39877W        W11603  26.902  23.128   3.220
39878W        W11604  42.005  10.688   0.387
39879W        W11605   4.088  24.437   0.697
39880W        W11606  29.640  32.025  12.927
39881W        W11607  38.491  20.585  13.317
39882W        W11608  23.786   6.491  13.848
39883W        W11609  22.961  15.193  11.530
39884W        W11610  16.233   7.425  13.079
39885W        W11611   3.835  11.264   1.849
39886W        W11612  26.721   3.498  10.752
39887W        W11613  19.040  40.043  13.958
39888W        W11614  24.752  26.083   3.106
39889W        W11615  44.775  10.264   2.471
39890W        W11616   3.211  12.537   0.754
39891W        W11617  23.323  36.423  11.211
39892W        W11618  11.872  10.236   4.892
39893W        W11619  14.606  34.730  12.183
39894W        W11620   1.466  28.725   2.392
39895W        W11621   1.258  42.898  13.568
39896W        W11622  16.835  25.915  10.729
39897W        W11623  31.161  22.283  11.218
39898W        W11624  16.631  18.760   0.391
39899W        W11625  24.110  36.613  13.782
39900W        W11626  43.995  24.243  13.434
39901W        W11627  12.171  16.225  10.701
39902W        W11628   1.473  19.529  13.320
39903W        W11629   3.695  43.898  11.270
39904W        W11630  14.763  15.645  13.034
39905W        W11631  33.648  11.372   0.834
39906W        W11632  31.234  21.142  11.658
39907W        W11633  41.020  20.056  12.165
39908W        W11634  43.829  14.881   1.247
39909W        W11635  18.679  31.030   2.314
39910W        W11636  17.582  39.859   1.445
39911W        W11637  21.179  22.126   4.139
39912W        W11638   6.413  27.589   0.343
39913W        W11639  40.547  35.904   0.970
39914W        W11640  15.332  20.992  12.896
39915W        W11641  43.224  33.010   3.280
39916W        W11642  36.048  25.465  10.642
39917W        W11643  14.803   2.372   3.163
39918W        W11644  16.603  16.104   1.858
39919W        W11645   9.691  40.929  13.088
39920W        W11646   6.777  25.349  10.685
39921W        W11647   8.847  22.826  10.275
39922W        W11648  26.997  35.667   3.361
39923W        W11649  33.013  33.525   4.802
39924W        W11650  21.075  39.753   0.402
39925W        W11651  23.951  15.294  13.106
39926W        W11652  42.473  19.575  14.563
39927W        W11653  10.682  14.071  13.781
39928W        W11654  44.308  34.007  10.709
39929W        W11655  20.556  27.758  13.408
39930W        W11656   7.307  22.786  11.475
39931W        W11657  17.139  30.203  10.937
39932W        W11658  32.252  36.632   0.763
39933W        W11659   3.789   9.687  10.660
39934W        W11660  11.667  38.744   2.903
39935W        W11661  26.605  15.699  10.777
39936W        W11662  29.733  19.996  11.681
39937W        W11663  34.343  35.436   3.006
39938W        W11664  40.353  20.605   2.893
39939W        W11665   7.112  33.548  12.549
39940W        W11666   4.372  14.852   0.754
39941W        W11667  24.349   1.387  13.191
39942W        W11668   1.094  25.742   0.547
39943W        W11669   2.211  44.158   3.182
39944W        W11670   6.483  37.236  10.082
39945W        W11671  14.885  21.424  12.132
39946W        W11672  10.373  29.556   2.839
39947W        W11673  44.371  43.041  13.384
39948W        W11674  17.602  35.737   4.622
39949W        W11675   2.629  33.176   3.232
39950W        W11676  32.549  29.031  12.966
39951W        W11677  41.295   3.833   2.230
39952W        W11678  21.538  26.735  13.421
39953W        W11679  24.107  12.368  10.500
39954W        W11680  42.994  22.029  12.280
39955W        W11681  13.915  39.989   1.466
39956W        W11682  41.944  31.407   1.750
39957W        W11683   9.834   0.435  13.035
39958W        W11684   3.576  19.060   2.229
39959W        W11685  28.239  26.415  14.919
39960W        W11686   4.237  13.168   4.955
39961W        W11687  43.384  18.593  14.838
39962W        W11688  24.158  37.379   5.088
39963W        W11689  17.090  39.358   0.892
39964W        W11690  43.578  42.437   3.059
39965W        W11691  40.318  11.731   4.085
39966W        W11692  19.002   0.809  10.731
39967W        W11693  30.945   4.485  13.296
39968W        W11694  44.967  11.490   3.327
39969W        W11695   5.268  42.406   3.134
39970W        W11696  15.154  29.971   2.220
39971W        W11697  43.588  23.657  11.084
39972W        W11698   8.703  19.603  12.983
39973W        W11699   0.057  40.003  14.142
39974W        W11700  30.173   8.544  12.153
39975W        W11701  44.437   2.361  14.052
39976W        W11702  26.644   6.220   2.223
39977W        W11703  37.386  21.626  11.037
39978W        W11704  40.522  37.478   1.390
39979W        W11705  16.109   1.555  13.110
39980W        W11706  30.552  37.945  13.063
39981W        W11707   4.261   8.194   3.056
39982W        W11708  15.586  37.319  14.846
39983W        W11709  32.117  40.315  14.940
39984W        W11710  44.573  39.160  11.979
39985W        W11711   5.142  10.659  10.370
39986W        W11712  36.123   6.495  12.318
39987W        W11713  21.489  14.271   5.031
39988W        W11714  32.414  31.415   3.910
39989W        W11715  22.692   6.905  12.218
39990W        W11716  22.161  15.701   3.349
39991W        W11717  20.497  42.357  14.795
39992W        W11718  29.614  26.540   3.219
39993W        W11719  26.667  23.226   1.682
39994W        W11720  38.904  39.007   1.916
39995W        W11721   1.384  14.366   3.916
39996W        W11722   3.255  17.674   4.615
39997W        W11723   3.148  30.459   0.308
39998W        W11724   1.743  31.916   2.347
39999W        W11725   4.627  42.621  14.449
40000W        W11726  21.536  16.738   3.222
40001W        W11727   6.328  12.109  13.596
40002W        W11728  25.122  32.024   2.829
40003W        W11729  19.295  30.435   0.613
40004W        W11730  12.883  43.245   2.383
40005W        W11731  24.489  23.591  10.670
40006W        W11732   0.634  23.693  12.316
40007W        W11733   8.265  25.064  12.559
40008W        W11734  30.065  21.079   3.230
40009W        W11735  23.733  12.572  13.613
40010W        W11736  30.493  28.598  11.632
40011W        W11737  17.467  40.605   4.207
40012W        W11738  41.510  39.988   0.010
40013W        W11739   9.276  13.786   2.898
40014W        W11740  25.232  24.542   3.641
40015W        W11741  10.460  13.080  12.365
40016W        W11742  33.425  29.991   3.221
40017W        W11743   0.489  19.578  13.005
40018W        W11744   2.249  39.527   1.552
40019W        W11745   3.947  37.245  11.148
40020W        W11746  30.397  28.916   2.278
40021W        W11747  41.789   9.144   0.141
40022W        W11748  23.967  24.642   2.785
40023W        W11749  12.162  14.541  13.346
40024W        W11750  28.715  23.708   2.355
40025W        W11751  20.474   4.419  11.917
40026W        W11752  11.926  44.356   9.929
40027W        W11753  38.866  25.936  10.361
40028W        W11754  10.241  38.514  14.366
40029W        W11755  41.668   7.150   9.900
40030W        W11756  38.959   8.439  10.743
40031W        W11757  15.098  36.319  13.025
40032W        W11758  39.512  25.849  14.500
40033W        W11759  14.226  38.803  12.381
40034W        W11760  39.650   0.497  12.435
40035W        W11761  21.270  24.476  10.676
40036W        W11762   7.290   2.934  10.554
40037W        W11763   1.415  40.614  11.247
40038W        W11764  38.849  31.910   0.935
40039W        W11765  27.432  30.561   0.741
40040W        W11766   0.379   9.816  12.873
40041W        W11767  18.631   0.752  12.646
40042W        W11768  15.642  42.085   4.313
40043W        W11769  27.473   0.991   3.649
40044W        W11770  30.792  39.360  12.090
40045W        W11771  29.675  33.707  11.128
40046W        W11772   7.907  14.734  13.118
40047W        W11773  17.148  10.879   4.319
40048W        W11774   5.403  20.505  14.517
40049W        W11775  13.682  24.600  13.893
40050W        W11776  18.143  20.274   4.217
40051W        W11777  33.947  38.827   0.800
40052W        W11778  31.057  43.910   5.022
40053W        W11779  41.940   3.442   1.392
40054W        W11780  35.476   6.616   0.182
40055W        W11781  29.440  32.091  12.422
40056W        W11782  22.132  33.741  14.936
40057W        W11783  17.029  15.968  14.409
40058W        W11784   7.296  18.767  13.754
40059W        W11785   2.316  32.983  13.291
40060W        W11786  43.800  25.443  14.478
40061W        W11787   6.493  25.585   0.392
40062W        W11788  38.875  37.254  10.680
40063W        W11789  25.530  12.137  13.994
40064W        W11790  24.038  30.459  12.916
40065W        W11791  16.057  39.926  13.984
40066W        W11792  14.783  33.064  11.131
40067W        W11793  35.194  36.245  14.980
40068W        W11794  20.708  25.739   3.218
40069W        W11795  42.890  31.102  14.982
40070W        W11796  19.720  24.705   3.130
40071W        W11797  35.957  42.217  13.283
40072W        W11798  13.422   7.751   2.757
40073W        W11799  17.342   3.242  12.124
40074W        W11800  13.652  28.532   3.586
40075W        W11801   5.812  14.598   3.806
40076W        W11802  44.137  23.676  13.457
40077W        W11803  12.151  32.612   2.299
40078W        W11804  30.168  32.942  12.968
40079W        W11805  35.907  24.134  14.949
40080W        W11806  39.286  31.962  11.540
40081W        W11807  19.323  12.734   4.006
40082W        W11808  16.245  17.256   2.731
40083W        W11809  26.246   7.779  13.538
40084W        W11810  35.097   9.249   2.818
40085W        W11811  15.596   1.337   2.257
40086W        W11812  20.256  41.919  10.837
40087W        W11813  34.558  29.495  10.583
40088W        W11814  25.791  24.226   1.185
40089W        W11815  41.875  29.817   4.743
40090W        W11816  31.517  20.772   3.346
40091W        W11817  25.409  26.254  12.297
40092W        W11818  18.573   7.120   2.865
40093W        W11819  41.740  11.892   4.138
40094W        W11820  21.641   3.640   4.565
40095W        W11821   2.449  25.905  13.494
40096W        W11822   3.552  25.368   4.141
40097W        W11823   5.165  20.626   0.713
40098W        W11824  14.314  13.541  12.151
40099W        W11825  37.834  40.927  12.409
40100W        W11826   1.006  15.753  13.367
40101W        W11827  19.252  20.717  12.762
40102W        W11828   4.271  11.619  13.273
40103W        W11829  29.123   9.839  11.502
40104W        W11830  17.787  24.584   4.600
40105W        W11831  33.536  36.649  10.487
40106W        W11832  21.790  12.311  13.098
40107W        W11833  27.549  31.079  12.592
40108W        W11834  16.880  21.104   1.475
40109W        W11835  44.570  23.744   1.355
40110W        W11836   6.310  40.452  14.031
40111W        W11837  37.804   5.861  13.493
40112W        W11838   2.239  17.185  11.147
40113W        W11839  34.738   9.651   3.823
40114W        W11840   6.409  40.343   3.579
40115W        W11841  29.169  44.019  10.786
40116W        W11842  27.502  26.915   1.789
40117W        W11843  11.408  13.622  12.015
40118W        W11844  15.653  35.464  12.003
40119W        W11845  42.233  12.763  12.652
40120W        W11846  38.326  20.171  11.458
40121W        W11847  35.866  13.288   0.949
40122W        W11848  14.733   8.261   2.403
40123W        W11849  36.143  17.981   2.277
40124W        W11850  13.336  33.881   2.786
40125W        W11851   4.367   5.681   3.254
40126W        W11852  37.898  41.268  13.951
40127W        W11853   3.481  29.918   3.079
40128W        W11854   5.889   1.409   1.371
40129W        W11855  17.738  38.379   1.696
40130W        W11856  18.113  26.223  13.075
40131W        W11857   3.895   2.929  11.639
40132W        W11858   4.754   1.225   4.097
40133W        W11859  19.670  38.335   4.083
40134W        W11860  14.827  12.330  10.907
40135W        W11861  13.865  26.974   1.680
40136W        W11862  29.964  39.952  13.709
40137W        W11863  39.274  38.680  12.955
40138W        W11864  39.912  11.362   1.487
40139W        W11865   1.959   4.741   1.203
40140W        W11866  15.091  34.055   3.997
40141W        W11867   1.385   8.510  12.241
40142W        W11868   1.560   0.002   1.848
40143W        W11869  16.754  42.359   2.194
40144W        W11870  31.093  30.004   4.630
40145W        W11871  41.914  33.650   3.625
40146W        W11872   1.077  28.101   4.957
40147W        W11873  40.389   3.100  10.478
40148W        W11874  24.596  12.299  14.111
40149W        W11875  18.609  35.412   0.518
40150W        W11876   6.912  29.491  11.046
40151W        W11877  14.663  28.481   2.247
40152W        W11878   7.127  40.670   1.467
40153W        W11879  40.542  11.319   2.367
40154W        W11880   4.033  29.529  13.382
40155W        W11881  40.960  18.253   2.345
40156W        W11882   7.661  14.169   4.867
40157W        W11883  43.801   3.758   2.429
40158W        W11884  19.191  26.472  13.757
40159W        W11885   2.174  41.795  12.423
40160W        W11886  26.548  40.380  11.907
40161W        W11887  41.991  17.035  11.239
40162W        W11888  18.054  42.265   2.499
40163W        W11889  14.822   1.763  14.742
40164W        W11890  19.055  36.893   0.778
40165W        W11891  20.025   0.878  10.569
40166W        W11892  21.264  43.962  14.643
40167W        W11893  38.680  30.519  14.783
40168W        W11894   8.685  29.717  12.519
40169W        W11895   1.348  17.601   0.327
40170W        W11896  10.787   6.927  11.175
40171W        W11897  22.313  14.813  10.072
40172W        W11898  15.643  36.578  11.932
40173W        W11899  14.476  10.723  11.156
40174W        W11900  14.859  21.561   1.353
40175W        W11901  32.460   1.304   2.482
40176W        W11902  17.804  18.107   4.240
40177W        W11903   4.916  26.812  11.159
40178W        W11904  25.885  35.892   1.882
40179W        W11905  11.320   8.907  14.798
40180W        W11906  12.137  15.200   2.474
40181W        W11907  42.815  42.437   4.956
40182W        W11908   8.237  21.454   3.751
40183W        W11909  32.437  28.578  11.488
40184W        W11910   9.393   6.713   1.447
40185W        W11911   9.988  31.324  11.237
40186W        W11912  35.916  23.980  12.755
40187W        W11913   3.892  19.984   0.818
40188W        W11914  10.282  40.009  14.397
40189W        W11915  39.759  20.293   2.796
40190W        W11916  40.819   2.680  10.719
40191W        W11917  36.886  16.188  12.971
40192W        W11918  42.730  34.029  10.647
40193W        W11919  17.825  14.772   2.712
40194W        W11920  37.906  37.063   4.914
40195W        W11921  44.443  23.929  14.318
40196W        W11922  17.717   8.564   2.365
40197W        W11923  38.757  10.328  13.612
40198W        W11924  24.758  15.905   4.207
40199W        W11925  42.532  11.161  13.929
40200W        W11926  38.817  38.566  14.756
40201W        W11927  19.237  38.920  10.511
40202W        W11928   7.803  38.432   0.998
40203W        W11929   4.290  14.729  13.006
40204W        W11930  30.459  21.289   3.905
40205W        W11931  28.445  15.505   3.451
40206W        W11932  17.322   1.719   0.211
40207W        W11933   2.700  13.294   4.768
40208W        W11934  32.001  37.032  12.451
40209W        W11935  12.090  42.744   1.833
40210W        W11936  31.063   8.365   1.897
40211W        W11937   7.858  18.818   1.406
40212W        W11938  12.837  37.000  12.156
40213W        W11939  34.051  19.797  13.545
40214W        W11940   4.493  20.581  13.727
40215W        W11941   5.807  19.445  10.788
40216W        W11942   8.749  44.146  12.690
40217W        W11943  41.459  41.297   1.548
40218W        W11944  19.965  12.261   3.803
40219W        W11945  21.706   2.939  11.794
40220W        W11946  20.593  43.219  11.700
40221W        W11947  38.923   9.879   3.694
40222W        W11948   8.772  44.578  10.817
40223W        W11949   5.259   7.682   9.771
40224W        W11950  14.210  28.412  12.946
40225W        W11951  29.113   2.773   1.322
40226W        W11952   3.673  24.299  11.684
40227W        W11953  36.066  41.484  14.938
40228W        W11954  15.871  34.955   0.913
40229W        W11955  32.995   4.558   4.177
40230W        W11956  10.853  13.891   0.812
40231W        W11957  22.315  17.516  11.553
40232W        W11958  33.254   8.931  12.050
40233W        W11959  30.348   9.662  13.732
40234W        W11960  41.406  21.109  11.386
40235W        W11961   9.473  30.897  10.697
40236W        W11962  33.346   3.832  14.546
40237W        W11963  40.770   3.713   0.679
40238W        W11964  41.427  28.462   4.513
40239W        W11965  25.163  26.723   2.741
40240W        W11966  10.354  25.674   1.539
40241W        W11967  30.168  36.490   3.909
40242W        W11968   8.214   1.552   3.155
40243W        W11969   0.798  38.806   3.173
40244W        W11970   6.147  20.745  11.537
40245W        W11971  41.865  40.799  10.565
40246W        W11972  34.177  24.560   0.770
40247W        W11973   4.926   7.808   4.491
40248W        W11974  23.730  21.569  11.174
40249W        W11975   4.226  21.261  10.541
40250W        W11976   8.420  29.455  10.551
40251W        W11977  36.881  28.917   4.549
40252W        W11978  28.390  35.412  13.110
40253W        W11979  20.323  32.000  11.683
40254W        W11980  30.381   6.399   4.029
40255W        W11981  19.533  41.064   0.419
40256W        W11982  30.136   0.240  13.082
40257W        W11983   1.708  10.191  12.527
40258W        W11984  39.944   8.146  14.365
40259W        W11985  17.997  34.536  13.530
40260W        W11986  25.727  23.178   2.581
40261W        W11987   9.958  36.505   0.332
40262W        W11988  34.625  34.420   0.985
40263W        W11989  20.166  26.667   2.623
40264W        W11990  32.497  41.822   2.460
40265W        W11991  23.105  15.423  11.093
40266W        W11992   1.860  37.358  14.289
40267W        W11993  24.568  29.178   2.248
40268W        W11994  11.182  15.254   2.654
40269W        W11995  43.221  17.682  14.723
40270W        W11996  32.652  21.688  14.352
40271W        W11997  39.661  44.925  14.111
40272W        W11998  25.458  12.608  13.847
40273W        W11999  43.991   3.443  13.957
40274W        W12000   0.421  38.450  10.704
40275W        W12001  36.968  37.093  11.106
40276W        W12002  34.957   0.780   0.245
40277W        W12003  17.883  35.082   0.919
40278W        W12004  38.951   6.434  13.332
40279W        W12005  17.337   6.121  14.698
40280W        W12006  35.455  32.064   3.575
40281W        W12007  28.980  14.780   0.877
40282W        W12008  30.235  22.491   0.151
40283W        W12009   0.266  26.216  11.815
40284W        W12010  41.296  18.121   1.809
40285W        W12011  44.032  13.500  14.411
40286W        W12012  35.584  24.440   1.197
40287W        W12013  18.129   9.241  11.269
40288W        W12014  17.373   6.858   3.887
40289W        W12015  23.786  27.128   2.613
40290W        W12016  25.481  38.536   1.785
40291W        W12017  16.357  15.680   4.525
40292W        W12018  27.788  25.061   4.991
40293W        W12019  34.402  19.214   2.193
40294W        W12020  37.495  13.273   3.912
40295W        W12021  43.701   8.996   1.847
40296W        W12022  31.372  32.937   2.130
40297W        W12023  17.948  23.149   0.716
40298W        W12024   3.215   2.788  11.126
40299W        W12025  30.280  35.917  11.075
40300W        W12026  34.337  43.749   1.837
40301W        W12027   3.357  26.893   4.238
40302W        W12028  21.160  33.149   3.812
40303W        W12029  38.048  25.529   1.550
40304W        W12030  38.074  41.333   1.421
40305W        W12031  28.454   7.914   3.268
40306W        W12032  22.953  28.527   1.338
40307W        W12033  27.139   6.960  12.061
40308W        W12034   0.999  19.673   1.760
40309W        W12035   2.971  25.954   3.921
40310W        W12036  30.769  41.370   1.681
40311W        W12037  32.922  36.839  14.406
40312W        W12038  40.470  16.758  13.822
40313W        W12039   4.937   7.470   1.874
40314W        W12040  11.795  20.635  12.432
40315W        W12041  28.659   5.227   0.781
40316W        W12042  43.283  14.357  14.466
40317W        W12043  21.592  19.126  14.036
40318W        W12044  14.577  18.695   4.155
40319W        W12045  23.922   8.953  12.429
40320W        W12046  16.079  23.358   2.598
40321W        W12047  11.487  17.142   2.699
40322W        W12048  15.166   3.971  10.901
40323W        W12049   2.580  16.083   1.419
40324W        W12050  17.260  20.332   2.405
40325W        W12051  25.545  32.185  10.221
40326W        W12052  22.091  21.212  11.397
40327W        W12053  34.459  43.031   1.444
40328W        W12054   3.373  17.302  13.651
40329W        W12055  21.771  30.765   4.960
40330W        W12056  22.706  16.833   4.630
40331W        W12057  31.452  25.078  13.883
40332W        W12058  29.427   1.517   2.700
40333W        W12059  40.365  44.942  14.342
40334W        W12060  34.427  20.547   2.931
40335W        W12061  14.289  20.078  13.027
40336W        W12062  35.831   3.948   2.720
40337W        W12063  12.802  38.304  13.395
40338W        W12064   5.299  44.254   0.540
40339W        W12065  24.099  41.001  12.977
40340W        W12066  19.657  25.554  13.296
40341W        W12067  39.963  30.110  12.020
40342W        W12068  38.856   7.351   4.007
40343W        W12069  25.306   9.319   4.260
40344W        W12070  12.758  20.749  11.155
40345W        W12071  39.490  17.616  14.964
40346W        W12072  32.581  31.900   0.159
40347W        W12073  23.071  37.441  14.612
40348W        W12074   1.327  22.021   0.720
40349W        W12075  15.476  22.651  12.452
40350W        W12076  27.635  32.941  13.794
40351W        W12077  25.479  26.622   2.288
40352W        W12078  19.392  30.347  13.940
40353W        W12079  22.299  18.157   4.353
40354W        W12080  44.433  32.377   2.022
40355W        W12081  16.540  16.231  12.301
40356W        W12082   4.724  27.168   3.719
40357W        W12083   1.006  33.411  11.528
40358W        W12084  35.333  31.604   3.841
40359W        W12085  13.436  42.463   1.438
40360W        W12086  35.574  12.276  13.721
40361W        W12087  22.097  38.480  13.864
40362W        W12088  39.971  19.760   3.267
40363W        W12089  16.749  33.661  12.003
40364W        W12090  24.652  27.501  11.495
40365W        W12091  23.619  41.098  14.480
40366W        W12092  21.194  40.200   1.494
40367W        W12093  36.510  31.242  12.379
40368W        W12094  39.927   0.513   4.203
40369W        W12095  10.817   4.604  11.650
40370W        W12096  44.771   7.505  12.793
40371W        W12097  38.005  12.618  11.460
40372W        W12098  17.829  23.008  14.787
40373W        W12099  25.716  23.722   9.920
40374W        W12100  38.406  15.530   1.933
40375W        W12101   5.314  21.644  14.267
40376W        W12102  15.482  43.236   3.119
40377W        W12103  12.810  30.217  11.622
40378W        W12104  21.541  39.468  11.303
40379W        W12105  23.090  11.477   4.807
40380W        W12106  34.830   7.372   3.639
40381W        W12107  20.662  42.571  12.433
40382W        W12108  36.075  27.689  11.039
40383W        W12109  22.382  24.928   2.167
40384W        W12110  41.856  21.264   4.142
40385W        W12111  37.581  35.092   2.807
40386W        W12112   2.765  20.011  11.125
40387W        W12113  36.784  13.214   1.464
40388W        W12114  14.260   8.064   1.328
40389W        W12115  41.607   0.952   2.855
40390W        W12116  18.072  25.632   3.765
40391W        W12117  35.796  36.490  13.803
40392W        W12118  15.813   8.413  13.047
40393W        W12119   5.088  10.928  13.699
40394W        W12120  18.098  12.147  12.825
40395W        W12121  27.909  22.730  14.885
40396W        W12122  29.081  23.568   5.024
40397W        W12123  11.903  30.174   2.761
40398W        W12124  40.841  33.074   0.903
40399W        W12125  38.271  16.789  11.188
40400W        W12126   0.784  33.024  13.168
40401W        W12127  44.668  35.337   2.704
40402W        W12128  11.569  39.771   2.741
40403W        W12129  44.893  11.640  11.283
40404W        W12130   2.412   9.386  13.791
40405W        W12131   2.023  43.812   1.354
40406W        W12132  39.995  19.821  11.630
40407W        W12133  15.747  11.584   4.177
40408W        W12134   4.392  29.840   4.228
40409W        W12135   4.485   6.011   9.834
40410W        W12136  13.334  17.025   4.155
40411W        W12137  33.680  27.034   2.260
40412W        W12138  22.664  29.380  10.614
40413W        W12139  29.062  35.586   2.839
40414W        W12140  43.011  28.664   2.399
40415W        W12141  27.017  23.665   1.502
40416W        W12142  27.573  20.956   1.317
40417W        W12143   3.392   7.910  10.738
40418W        W12144   4.587  29.667  14.958
40419W        W12145  22.477  23.072  14.788
40420W        W12146   2.246   1.789   2.261
40421W        W12147  24.534  15.989  13.487
40422W        W12148   7.826  12.350  10.654
40423W        W12149   2.176  22.135   1.094
40424W        W12150  32.592  29.096  13.489
40425W        W12151  20.073  43.456   3.298
40426W        W12152  31.843   0.765   3.790
40427W        W12153   8.371  35.362   3.219
40428W        W12154  40.771  13.512   4.180
40429W        W12155   3.800  15.138   1.452
40430W        W12156  25.589  40.441  11.630
40431W        W12157  11.702  32.597  14.742
40432W        W12158  23.656  32.608   2.690
40433W        W12159  10.414  21.431  14.977
40434W        W12160  35.250  12.777  12.254
40435W        W12161  33.339  12.290  14.170
40436W        W12162  31.621   7.330  10.886
40437W        W12163  14.261  28.128  14.381
40438W        W12164   1.005  44.286  10.771
40439W        W12165  30.919  39.720   3.263
40440W        W12166  28.886   1.266  12.406
40441W        W12167  38.217  25.469  10.806
40442W        W12168  13.546   8.378  12.078
40443W        W12169  14.262   5.907  13.010
40444W        W12170  32.452  18.060  11.469
40445W        W12171  31.378  34.302  12.845
40446W        W12172  44.210  14.343  13.532
40447W        W12173  40.291  30.349   2.347
40448W        W12174  15.718  14.947  14.774
40449W        W12175  15.052  21.082  13.557
40450W        W12176  33.316  28.026   0.839
40451W        W12177  28.200   4.273  13.850
40452W        W12178  26.257  35.019  11.934
40453W        W12179  32.090  32.229   1.418
40454W        W12180  30.681  38.847   3.638
40455W        W12181  19.922   5.193  10.822
40456W        W12182   1.934  37.106   1.082
40457W        W12183  18.579  35.398   3.702
40458W        W12184   0.768   4.179  10.725
40459W        W12185  35.063   4.403  10.710
40460W        W12186   3.222   5.394  12.980
40461W        W12187   8.852  17.246  11.889
40462W        W12188  30.117  41.387   3.757
40463W        W12189  28.091  25.952  14.321
40464W        W12190  35.526  13.508   4.965
40465W        W12191  24.577  18.474  14.417
40466W        W12192  30.963  43.993  13.868
40467W        W12193  32.281  37.763   0.405
40468W        W12194  17.269  43.172  10.168
40469W        W12195  28.775  42.972  12.555
40470W        W12196  41.102  36.588   1.813
40471W        W12197   1.200  15.100   0.343
40472W        W12198  19.496  30.836   0.307
40473W        W12199   5.917   4.210  13.907
40474W        W12200  25.858  39.846   3.633
40475W        W12201  17.131  19.978  14.538
40476W        W12202  10.699  17.521  14.411
40477W        W12203  44.204   5.770  12.866
40478W        W12204  34.526   1.843   0.792
40479W        W12205   2.698  15.686  14.568
40480W        W12206  19.393  25.373   4.538
40481W        W12207   8.191   1.037  14.336
40482W        W12208  26.112   4.381  11.149
40483W        W12209  26.750  30.537  14.890
40484W        W12210  38.894  20.358   5.006
40485W        W12211  37.985   2.223  13.588
40486W        W12212   4.695  43.468  13.269
40487W        W12213   3.164  18.622   4.033
40488W        W12214  13.660  20.104   2.760
40489W        W12215  37.509  14.757  12.125
40490W        W12216  30.702  20.684   0.848
40491W        W12217  35.848   7.445   2.841
40492W        W12218   7.374   4.615  14.847
40493W        W12219  17.833   4.708   3.245
40494W        W12220   3.156  25.167   4.898
40495W        W12221  19.683   9.325  12.920
40496W        W12222   6.731  26.162  14.973
40497W        W12223  25.958   4.748   1.936
40498W        W12224  15.956  35.012  11.972
40499W        W12225  37.748  27.631  13.604
40500W        W12226  42.462   0.620   0.808
40501W        W12227  18.013   2.322   2.802
40502W        W12228  24.372  34.601  12.135
40503W        W12229  35.933  34.982   3.810
40504W        W12230   3.433  23.259  10.929
40505W        W12231  40.468   4.628  12.106
40506W        W12232  31.425  38.246  14.377
40507W        W12233  20.151   4.772   4.261
40508W        W12234  32.626  27.652  13.070
40509W        W12235  26.551   1.255  10.660
40510W        W12236  37.384  12.169   0.431
40511W        W12237   1.315   1.977  12.562
40512W        W12238  33.727  15.635  10.276
40513W        W12239  23.817  19.527   1.447
40514W        W12240  36.915  25.399  12.478
40515W        W12241   1.259  28.424   2.794
40516W        W12242  42.050  15.291  13.893
40517W        W12243  33.878  27.527   2.409
40518W        W12244  24.014  16.457  13.295
40519W        W12245  38.353  31.826  14.525
40520W        W12246   5.889  42.899  14.449
40521W        W12247  23.627   6.877   2.700
40522W        W12248  24.520  26.708  14.853
40523W        W12249  19.716  32.928  12.469
40524W        W12250  36.623  27.085  14.448
40525W        W12251  25.105   6.120  14.145
40526W        W12252  27.616  37.336   3.601
40527W        W12253  11.755  11.383   0.117
40528W        W12254   2.547  43.597   4.195
40529W        W12255  21.667  26.132  14.275
40530W        W12256  35.349  17.929  14.935
40531W        W12257  26.596   9.331  13.329
40532W        W12258  20.713  40.113   0.363
40533W        W12259  16.060   1.045   2.208
40534W        W12260  29.963   7.212  13.257
40535W        W12261  43.931   1.196  11.816
40536W        W12262   0.811  23.478   3.328
40537W        W12263  21.208  10.175   2.294
40538W        W12264   2.785  24.388   2.825
40539W        W12265  38.795  15.669  10.127
40540W        W12266  41.713  43.189   2.278
40541W        W12267  29.952  40.890   0.402
40542W        W12268  33.470  10.302  13.385
40543W        W12269   8.384  27.582  14.319
40544W        W12270  35.650   3.710   4.995
40545W        W12271  26.206  25.225   0.439
40546W        W12272  35.970  13.441   3.782
40547W        W12273  26.480  35.927  12.380
40548W        W12274   8.187  31.925  12.945
40549W        W12275  18.973   5.232   4.706
40550W        W12276  22.733  14.789   0.406
40551W        W12277  37.941  25.545   2.920
40552W        W12278  35.580   1.832   2.827
40553W        W12279   6.544  32.344  14.711
40554W        W12280  32.355  43.979   3.712
40555W        W12281  24.646   5.405   4.139
40556W        W12282  24.277  18.678  13.198
40557W        W12283  10.248   5.387   0.808
40558W        W12284   8.661   7.783  13.975
40559W        W12285  41.906  41.850  10.595
40560W        W12286  10.404  10.687   0.070
40561W        W12287   2.771  30.240  11.705
40562W        W12288  36.000  21.662   4.394
40563W        W12289   5.867  43.349   0.269
40564W        W12290   8.423  36.682  14.534
40565W        W12291  27.732   3.270  13.909
40566W        W12292  19.784  42.450   4.564
40567W        W12293   1.758  43.745   0.889
40568W        W12294  18.925  10.224  12.620
40569W        W12295  34.671  27.382  12.317
40570W        W12296   4.797   7.920  12.987
40571W        W12297  34.615  11.881   3.693
40572W        W12298  19.217  34.476   4.333
40573W        W12299  27.532  34.447   1.795
40574W        W12300  14.715  37.281  13.055
40575W        W12301  18.184  10.329   0.115
40576W        W12302  30.013  21.175   9.980
40577W        W12303  24.525  17.296  12.985
40578W        W12304  21.937  36.410   0.471
40579W        W12305  25.968  43.382   2.954
40580W        W12306  14.183  23.756   1.903
40581W        W12307  12.374  14.106   3.533
40582W        W12308  43.976  23.267   3.760
40583W        W12309  17.715  24.808   3.279
40584W        W12310  17.010  42.475  12.832
40585W        W12311  13.271  37.794   3.431
40586W        W12312  30.921  37.175   2.696
40587W        W12313   8.452  21.702   3.356
40588W        W12314  23.545   1.704  14.520
40589W        W12315  12.914  41.947   3.646
40590W        W12316  40.522  10.200  13.633
40591W        W12317  29.273  24.931   1.700
40592W        W12318  29.977  43.776   0.001
40593W        W12319  22.516  24.463  14.946
40594W        W12320  37.206  28.993  13.660
40595W        W12321  35.623  37.200  13.084
40596W        W12322  19.019  24.214   1.375
40597W        W12323  28.996   1.438   4.703
40598W        W12324  24.659  41.473  14.501
40599W        W12325  39.266   2.730   1.599
40600W        W12326  33.426  31.529  10.163
40601W        W12327  16.211  28.437  14.745
40602W        W12328  37.334  31.637  10.492
40603W        W12329  12.340  35.428   3.874
40604W        W12330  34.831   1.366   1.987
40605W        W12331  36.877   4.939   0.428
40606W        W12332   2.931   3.203  11.263
40607W        W12333  27.456  15.353  13.262
40608W        W12334  27.107   8.279   0.830
40609W        W12335  17.668  26.164  13.357
40610W        W12336  42.179   2.068  13.527
40611W        W12337  17.495  34.589  13.372
40612W        W12338  27.950  11.325  11.554
40613W        W12339  33.029  35.050   0.444
40614W        W12340   2.259  44.960  13.129
40615W        W12341  19.575  10.894  11.542
40616W        W12342   5.075   2.516   1.371
40617W        W12343  12.693  38.452   4.399
40618W        W12344  44.934  33.207  14.784
40619W        W12345  42.407  30.408   2.323
40620W        W12346  22.666  25.978   4.562
40621W        W12347  19.076  44.023   1.697
40622W        W12348  19.547  33.460  11.168
40623W        W12349  31.640  29.155  13.342
40624W        W12350   1.900   0.557  10.685
40625W        W12351  20.786  25.369   4.652
40626W        W12352   1.857  29.087  14.027
40627W        W12353   8.223  24.836   5.025
40628W        W12354   2.272  41.316  13.861
40629W        W12355  10.451  16.568  10.052
40630W        W12356  44.820  14.987  13.565
40631W        W12357   5.391  44.881  12.004
40632W        W12358   0.814  29.060  10.065
40633W        W12359  11.884  24.247   4.170
40634W        W12360  38.506  30.672  12.924
40635W        W12361  17.588  35.566  12.614
40636W        W12362  36.938  21.535   2.684
40637W        W12363  15.668  29.247   5.066
40638W        W12364  34.058  34.560   4.810
40639W        W12365  25.555  30.915  13.887
40640W        W12366  22.133  37.642  12.391
40641W        W12367  26.520  22.726  12.862
40642W        W12368  37.772  39.484  12.781
40643W        W12369  26.479   3.414  14.007
40644W        W12370  25.166  33.912   2.588
40645W        W12371  23.282   1.911   0.935
40646W        W12372  31.837  14.499  10.379
40647W        W12373  42.920  19.466  14.823
40648W        W12374  20.344  33.927  11.478
40649W        W12375  25.793   7.509  12.906
40650W        W12376  41.471   8.327  10.728
40651W        W12377  24.828  43.538  10.098
40652W        W12378  37.068  28.636   2.359
40653W        W12379  42.507   9.212   3.678
40654W        W12380  32.592   8.720  13.998
40655W        W12381  34.637   7.882  14.473
40656W        W12382  17.059  24.140   0.378
40657W        W12383  37.979  10.846  12.541
40658W        W12384  17.091  23.033   2.751
40659W        W12385  33.643  38.563  14.465
40660W        W12386  11.365  44.058  14.004
40661W        W12387   4.460  37.465  14.966
40662W        W12388  20.860  42.848  11.473
40663W        W12389  42.438  43.645  10.496
40664W        W12390  20.774  12.046  13.821
40665W        W12391  28.941  10.364   4.774
40666W        W12392  21.673  25.975   2.677
40667W        W12393   9.356   3.806  11.379
40668W        W12394  23.319  29.155   4.109
40669W        W12395  39.854  35.480  14.499
40670W        W12396  38.861   4.667  12.926
40671W        W12397  24.621  16.772  13.944
40672W        W12398   6.938  35.788   3.687
40673W        W12399  25.246  34.320  10.730
40674W        W12400  38.562  36.912   0.997
40675W        W12401  13.129  25.331   1.914
40676W        W12402  21.091   9.770   2.905
40677W        W12403  42.285  40.919  14.991
40678W        W12404  27.109   6.884  14.910
40679W        W12405  35.275   8.677   1.122
40680W        W12406  16.730  19.073  11.205
40681W        W12407  13.395  40.415   2.754
40682W        W12408  30.029  17.261   2.240
40683W        W12409  19.574  23.216   0.907
40684W        W12410  40.019  18.063  13.959
40685W        W12411  43.874  26.482  11.032
40686W        W12412  41.245  20.522   2.636
40687W        W12413  29.473  36.868   4.572
40688W        W12414  27.389   3.300   1.044
40689W        W12415  41.107  40.180   2.834
40690W        W12416  19.570   6.758   0.992
40691W        W12417  33.639  23.284   2.372
40692W        W12418   9.496  31.205  11.122
40693W        W12419  26.465   5.218  14.782
40694W        W12420  14.822  10.833   2.809
40695W        W12421  27.974  26.233  11.687
40696W        W12422  23.648   0.045   0.495
40697W        W12423  26.146  19.116   0.741
40698W        W12424  10.370  33.583   2.705
40699W        W12425  26.716  29.558   1.857
40700W        W12426   1.444   5.985  13.035
40701W        W12427  11.245  35.588  11.257
40702W        W12428  24.153  31.658   1.153
40703W        W12429  17.348  32.530   4.211
40704W        W12430  16.574  34.901   4.014
40705W        W12431   3.313  31.595   0.878
40706W        W12432  44.779   4.452   3.707
40707W        W12433   0.016  11.347   4.190
40708W        W12434  28.549  27.068  11.997
40709W        W12435  26.155  21.613   2.408
40710W        W12436  17.449  13.181   4.300
40711W        W12437  24.473  12.381   2.868
40712W        W12438  12.967   7.407  11.445
40713W        W12439  32.898  29.251   0.791
40714W        W12440  35.926  34.184  12.143
40715W        W12441   8.789  39.716   3.185
40716W        W12442  16.888  10.189   2.192
40717W        W12443   0.978  29.980  12.493
40718W        W12444   1.809   8.952  14.962
40719W        W12445  44.365  13.181   1.206
40720W        W12446  42.859  10.810   2.254
40721W        W12447  44.806  34.608  12.732
40722W        W12448  37.871  17.824   2.871
40723W        W12449  37.542  16.840  12.627
40724W        W12450  10.463  44.429   9.750
40725W        W12451   4.856   6.354   1.194
40726W        W12452  25.548  25.660   1.460
40727W        W12453  36.115  40.268   1.090
40728W        W12454  39.837  44.068   1.966
40729W        W12455  11.362   7.379  14.889
40730W        W12456  42.731  17.811  10.773
40731W        W12457  36.765  26.105  11.677
40732W        W12458  16.120   8.098   1.282
40733W        W12459  40.432  44.884  11.740
40734W        W12460  29.118  42.571  12.488
40735W        W12461   9.376   6.832   2.396
40736W        W12462   0.061  40.355  13.320
40737W        W12463  39.585   1.484   1.837
40738W        W12464  28.142   7.094   5.045
40739W        W12465  42.671   6.791   0.883
40740W        W12466   7.441   0.859   4.787
40741W        W12467  32.050   9.678   4.879
40742W        W12468  41.934  40.016   1.737
40743W        W12469  32.345  13.127   2.654
40744W        W12470  33.405  19.987  12.946
40745W        W12471  16.832  38.353  12.458
40746W        W12472  44.382  24.986  10.687
40747W        W12473  38.499  30.718   2.292
40748W        W12474  25.124  44.365   5.122
40749W        W12475  29.216   9.489  11.098
40750W        W12476  40.568  19.619   1.356
40751W        W12477  39.518  22.505   4.536
40752W        W12478  22.099  23.765  14.236
40753W        W12479  41.994  40.022   2.681
40754W        W12480  12.345  13.162   3.418
40755W        W12481  27.211  34.862   0.306
40756W        W12482  11.229  23.724   1.711
40757W        W12483  44.741  26.047  14.956
40758W        W12484  14.143  38.154   4.222
40759W        W12485  19.051  15.085   0.477
40760W        W12486  31.640   1.534   0.441
40761W        W12487  44.894  13.173  12.776
40762W        W12488  34.950  33.656   3.697
40763W        W12489   8.125  21.333  12.064
40764W        W12490   0.773   0.696   2.323
40765W        W12491  41.049  32.372  11.997
40766W        W12492  43.883  33.846   1.285
40767W        W12493  15.683  38.766   1.451
40768W        W12494  39.969  26.525   3.108
40769W        W12495  14.642  26.500  12.340
40770W        W12496  24.564  39.484   4.131
40771W        W12497  28.184  30.863  13.499
40772W        W12498  19.021  23.890   2.465
40773W        W12499  25.114  16.062  11.175
40774W        W12500  16.563  26.496  12.798
40775W        W12501  26.618  42.611  10.696
40776W        W12502  37.060  14.144   1.925
40777W        W12503  41.330  13.037  13.357
40778W        W12504   8.443  24.222  11.877
40779W        W12505  44.875  36.326   4.644
40780W        W12506  34.403  21.238   3.966
40781W        W12507  42.820  32.597   2.393
40782W        W12508   3.691  31.028   3.194
40783W        W12509  25.037  26.231   2.686
40784W        W12510  42.515  20.819  12.093
40785W        W12511  43.475  19.528  11.148
40786W        W12512  26.093  37.070  13.382
40787W        W12513  30.916  19.639  13.283
40788W        W12514  42.833  28.980  14.760
40789W        W12515  22.178  44.492  13.470
40790W        W12516   6.161  29.894   0.930
40791W        W12517   5.123  26.238  14.270
40792W        W12518  11.176  23.266  10.371
40793W        W12519  44.932   2.725  12.865
40794W        W12520  31.546  19.201   1.877
40795W        W12521  24.748  22.241   4.169
40796W        W12522  44.706  23.243  10.354
40797W        W12523   6.157  16.193   4.919
40798W        W12524  12.278  24.031  11.979
40799W        W12525   5.018  27.952   2.447
40800W        W12526  27.507  30.108   1.488
40801W        W12527  16.041  33.233  14.727
40802W        W12528  10.341  27.534  10.537
40803W        W12529  17.854  14.294  10.763
40804W        W12530  32.656  41.552   9.807
40805W        W12531  39.675  16.786   4.149
40806W        W12532  15.898  32.368  13.509
40807W        W12533  39.574  39.303  14.905
40808W        W12534  10.667  16.806   2.853
40809W        W12535  33.240  43.418   2.382
40810W        W12536   5.415  19.260  12.364
40811W        W12537  24.197  25.171  10.312
40812W        W12538  18.004  19.467  12.338
40813W        W12539   6.393  21.945   2.731
40814W        W12540  18.462   9.355   4.767
40815W        W12541   2.574  37.635   1.357
40816W        W12542  42.428  27.422  12.603
40817W        W12543  15.213  26.672  13.801
40818W        W12544  16.606  40.220   5.226
40819W        W12545  32.143  43.029  13.749
40820W        W12546  41.415  20.113  10.515
40821W        W12547  11.621  25.289  12.987
40822W        W12548  27.749  42.397   4.068
40823W        W12549  13.615  12.158   3.670
40824W        W12550   3.299  18.583   3.505
40825W        W12551  10.917  20.385  12.410
40826W        W12552  40.698  14.302  13.366
40827W        W12553   3.191   8.215  14.217
40828W        W12554   6.439  43.800  14.003
40829W        W12555  33.709   1.769  12.944
40830W        W12556   6.915  29.202  14.818
40831W        W12557  25.518  19.703  10.661
40832W        W12558  17.330  43.711  10.221
40833W        W12559  37.897  24.551   1.338
40834W        W12560  42.413  22.363   0.891
40835W        W12561  13.645  16.044  14.953
40836W        W12562  42.400  12.746  14.926
40837W        W12563  27.363   5.713   2.744
40838W        W12564  40.792  24.126  14.262
40839W        W12565  41.839  29.984   1.824
40840W        W12566  35.381  16.861   2.722
40841W        W12567  16.247  39.422   4.348
40842W        W12568  29.595   0.280  13.058
40843W        W12569  11.905  32.041   0.990
40844W        W12570   1.837  42.362   0.958
40845W        W12571  12.376  43.658   1.209
40846W        W12572  39.544   0.346  10.751
40847W        W12573   6.299  33.574  11.136
40848W        W12574  11.867  23.428  11.530
40849W        W12575  14.412  43.444   0.863
40850W        W12576  33.411   7.848   4.422
40851W        W12577  15.875  31.132   4.489
40852W        W12578  12.527  27.656   3.824
40853W        W12579   8.968   1.752  13.622
40854W        W12580  25.804  31.129   3.050
40855W        W12581   0.755  41.809  10.583
40856W        W12582  10.218  28.448   4.637
40857W        W12583  29.377  32.114   4.112
40858W        W12584  32.950   1.760   1.275
40859W        W12585  18.786  41.939   3.335
40860W        W12586  26.711   4.336   2.102
40861W        W12587  23.273  25.650   4.273
40862W        W12588   0.701  16.827  12.322
40863W        W12589  31.049  11.248  13.380
40864W        W12590  40.821  18.264  13.571
40865W        W12591  21.606   3.288  13.363
40866W        W12592  34.497   5.735  13.398
40867W        W12593  39.332   5.594  12.190
40868W        W12594  22.153   1.175  14.343
40869W        W12595  17.159  44.446  14.312
40870W        W12596   7.874   4.291   0.952
40871W        W12597  37.846  21.694   2.370
40872W        W12598  26.619  30.478   2.878
40873W        W12599  15.970  11.106  13.303
40874W        W12600  13.162  28.998   4.230
40875W        W12601  42.194  32.615  10.759
40876W        W12602  42.946  35.546  12.533
40877W        W12603   2.436  37.124   1.813
40878W        W12604  43.752  23.686   2.323
40879W        W12605  11.854   2.315   4.590
40880W        W12606  10.465  26.661  14.789
40881W        W12607  19.229  10.763   0.891
40882W        W12608  44.551  35.304  11.084
40883W        W12609  20.234  43.573  13.922
40884W        W12610  25.056   7.179   4.796
40885W        W12611   5.267  18.786  12.466
40886W        W12612  26.160  38.314   0.813
40887W        W12613  30.613  36.606   1.413
40888W        W12614  16.680  25.163  14.306
40889W        W12615   4.396  39.323  12.563
40890W        W12616  42.982  29.921   1.793
40891W        W12617  20.773   1.901   3.696
40892W        W12618  35.073  13.672   0.928
40893W        W12619  27.206  32.303   1.539
40894W        W12620  38.083  11.110  13.980
40895W        W12621   4.133  43.388  14.472
40896W        W12622  44.890  32.278   4.629
40897W        W12623   4.558  13.275   4.490
40898W        W12624  43.095  37.878  12.546
40899W        W12625  10.985  36.621   0.012
40900W        W12626   2.239  38.461   4.033
40901W        W12627  19.546  34.368  11.477
40902W        W12628  13.389  33.358  14.487
40903W        W12629  43.034   1.091  11.019
40904W        W12630   8.033  15.700  10.658
40905W        W12631  40.007   3.734   3.324
40906W        W12632   4.946   6.222   4.834
40907W        W12633   8.804  43.118  12.915
40908W        W12634  21.322  35.866  10.785
40909W        W12635  10.641  38.739  10.988
40910W        W12636  40.830   5.767  10.891
40911W        W12637   1.702  27.214   0.448
40912W        W12638  11.136   7.448   2.412
40913W        W12639   0.408  24.924  10.671
40914W        W12640   2.017  11.922  12.112
40915W        W12641  37.509  21.971   0.208
40916W        W12642   8.582  36.494  14.024
40917W        W12643  39.914  29.458   3.740
40918W        W12644  33.056   3.168  13.538
40919W        W12645  24.418  44.478  11.897
40920W        W12646  16.506   8.212   1.859
40921W        W12647  44.928  37.896  12.530
40922W        W12648  30.637  41.520  10.581
40923W        W12649  21.088  42.919   1.785
40924W        W12650  24.224  21.183  12.399
40925W        W12651  35.532   7.305  13.987
40926W        W12652  28.200  27.966   2.261
40927W        W12653  30.687  12.533   2.281
40928W        W12654  39.342  27.005  14.786
40929W        W12655  19.743   0.753  11.463
40930W        W12656   5.497  40.809  13.960
40931W        W12657  24.731  30.893  14.481
40932W        W12658  26.632  19.655  12.477
40933W        W12659  31.034  29.005   4.478
40934W        W12660   6.978  10.262   2.124
40935W        W12661  30.663  23.706   2.817
40936W        W12662   5.236  20.583   2.204
40937W        W12663  16.378  43.844  12.031
40938W        W12664  36.048  43.267  11.026
40939W        W12665  12.161  23.877  11.067
40940W        W12666  34.247   8.915  11.943
40941W        W12667  12.121   8.169   3.752
40942W        W12668  26.718   4.300   1.140
40943W        W12669  30.943  36.978   4.390
40944W        W12670  38.433  40.696   3.277
40945W        W12671   7.652  29.159  13.879
40946W        W12672   5.439  27.932  13.412
40947W        W12673   3.204  16.112   4.586
40948W        W12674  11.719  12.883  13.502
40949W        W12675  22.065   0.027  13.470
40950W        W12676  30.706  14.322   1.375
40951W        W12677  28.642  36.708  14.425
40952W        W12678  39.584  24.061   3.235
40953W        W12679   8.856   7.218  11.928
40954W        W12680   4.766  44.248   0.351
40955W        W12681   0.811  41.401  13.604
40956W        W12682   4.779  11.452  10.720
40957W        W12683  35.488   7.213  12.456
40958W        W12684  31.489  27.488   2.697
40959W        W12685  25.604  22.572   0.916
40960W        W12686  23.821  13.124  11.870
40961W        W12687  24.966  33.050  14.720
40962W        W12688  43.474  10.879   1.823
40963W        W12689   8.856   3.214   1.412
40964W        W12690  14.487  14.034  12.068
40965W        W12691   1.973   9.443  14.926
40966W        W12692   3.812  40.855   3.856
40967W        W12693  21.971  37.403   4.399
40968W        W12694   0.551  35.406  12.311
40969W        W12695  11.341  43.394  14.422
40970W        W12696  13.878  21.204  11.441
40971W        W12697   2.374   9.115  10.689
40972W        W12698  37.466   3.813   0.291
40973W        W12699   3.407  43.268  11.603
40974W        W12700  43.524  13.659  13.892
40975W        W12701  29.718  38.764   4.184
40976W        W12702  18.738   8.365   0.401
40977W        W12703  37.165  37.773  12.187
40978W        W12704   9.670  10.309  10.220
40979W        W12705  24.910  33.491   4.319
40980W        W12706   4.500  36.004  14.508
40981W        W12707  22.919  23.101  11.120
40982W        W12708  42.570  30.609  11.950
40983W        W12709  27.749   6.196   3.616
40984W        W12710  41.061  41.292  12.138
40985W        W12711  13.109   9.238   2.302
40986W        W12712  37.564   9.410   2.189
40987W        W12713  44.482   3.394   0.689
40988W        W12714   4.678   2.682   3.624
40989W        W12715   5.532   0.903  11.888
40990W        W12716  43.956  35.467  12.323
40991W        W12717   4.356  17.386   3.239
40992W        W12718  31.985  39.348  14.984
40993W        W12719  24.252  43.748  10.902
40994W        W12720   7.144  20.781   0.906
40995W        W12721  27.374  34.024  12.070
40996W        W12722  17.084  38.421  14.481
40997W        W12723   0.964  26.521   4.641
40998W        W12724  41.458  32.101  14.477
40999W        W12725  19.075   0.773  12.982
41000W        W12726  35.541  22.134   0.910
41001W        W12727  40.419  28.258  11.549
41002W        W12728  25.729   7.332   1.394
41003W        W12729   7.638  28.890   4.219
41004W        W12730   1.782  17.754   4.344
41005W        W12731   1.670  41.457   4.199
41006W        W12732   6.995  32.620  12.831
41007W        W12733   5.209  19.166  14.864
41008W        W12734   2.910  13.922   3.936
41009W        W12735  24.029  22.006  11.998
41010W        W12736   1.965  41.868   1.239
41011W        W12737  10.352  25.392  12.500
41012W        W12738  36.914  32.267   0.033
41013W        W12739  11.269  37.366   5.033
41014W        W12740  12.626  23.757  14.956
41015W        W12741   7.827  18.123   2.262
41016W        W12742   2.748  16.150  13.886
41017W        W12743  43.375  41.311  12.311
41018W        W12744  13.094  31.441  13.002
41019W        W12745  40.421   5.789  11.657
41020W        W12746   0.215  21.019  12.117
41021W        W12747  13.829  39.227   2.387
41022W        W12748   0.072  38.876  13.041
41023W        W12749   7.545  37.912  12.469
41024W        W12750  20.255   1.857  12.577
41025W        W12751  19.213  18.550  13.393
41026W        W12752  29.476  13.882   1.746
41027W        W12753  34.473  41.069   0.045
41028W        W12754  43.040  44.511   3.659
41029W        W12755  15.745  31.915  12.020
41030W        W12756  30.926  39.044   1.344
41031W        W12757   7.789  23.226   2.363
41032W        W12758  40.864   9.533   2.604
41033W        W12759  38.963  33.945  14.851
41034W        W12760  32.540  39.748   1.204
41035W        W12761  35.096  33.617   4.570
41036W        W12762  41.478  14.418  12.383
41037W        W12763  30.008  33.428  12.560
41038W        W12764   7.947  28.202   1.819
41039W        W12765  42.300  25.063  14.835
41040W        W12766  19.852  17.519  14.449
41041W        W12767  21.396   9.354  14.958
41042W        W12768  30.830   5.804  13.571
41043W        W12769   3.792  34.929   2.382
41044W        W12770   5.744  10.643   0.384
41045W        W12771  10.176  18.813  12.988
41046W        W12772  18.159  33.826  12.322
41047W        W12773  35.572  38.575  14.897
41048W        W12774  35.064   8.478   3.941
41049W        W12775   8.128  16.590  13.588
41050W        W12776  27.642  12.470   4.101
41051W        W12777   3.692  44.779   3.712
41052W        W12778  32.429  35.620  10.697
41053W        W12779  14.020  13.293   0.414
41054W        W12780  41.961   0.449  12.916
41055W        W12781  21.446  35.977   3.625
41056W        W12782  34.820  16.087   3.729
41057W        W12783  10.075  16.076  11.255
41058W        W12784   6.342  43.801   3.093
41059W        W12785  43.208  28.449   3.186
41060W        W12786  28.345  36.974   3.596
41061W        W12787   6.366  16.247   9.537
41062W        W12788  35.833  29.388   2.651
41063W        W12789  29.909  22.130   0.349
41064W        W12790  20.936  37.089  13.551
41065W        W12791  11.104  10.114  13.907
41066W        W12792  10.807  34.848  10.655
41067W        W12793  42.476  12.581   3.810
41068W        W12794  11.704  18.903   9.846
41069W        W12795  29.120  22.851   1.883
41070W        W12796   1.891  15.728   1.019
41071W        W12797  44.635   6.222   4.988
41072W        W12798   8.135  14.309   4.698
41073W        W12799  44.489  42.360  12.053
41074W        W12800   1.016  19.696   4.334
41075W        W12801   4.278  23.035  14.043
41076W        W12802  41.310  14.351   2.721
41077W        W12803  21.618  23.043   0.817
41078W        W12804  13.296  35.841  13.966
41079W        W12805  42.515   8.237   2.341
41080W        W12806  13.231  32.683   4.238
41081W        W12807  41.423  25.183  13.028
41082W        W12808  33.913  34.320   2.328
41083W        W12809  28.460  35.114  11.635
41084W        W12810  17.123  42.835   3.804
41085W        W12811  38.356  11.218  10.962
41086W        W12812  13.648  28.428   1.667
41087W        W12813  36.558   9.603  13.294
41088W        W12814  15.761  34.804   3.765
41089W        W12815  16.468  35.969   1.715
41090W        W12816   2.738  12.233   1.915
41091W        W12817  33.891   0.196  11.325
41092W        W12818  28.775  13.214  12.830
41093W        W12819  29.418  37.342   0.794
41094W        W12820  44.267  22.414   1.836
41095W        W12821  25.248  23.176  14.412
41096W        W12822  43.262  15.209  13.420
41097W        W12823  35.281  40.823   3.127
41098W        W12824  35.398  16.068   3.116
41099W        W12825  12.233  39.583   2.172
41100W        W12826  38.368  44.807  13.534
41101W        W12827  35.546  13.111  14.370
41102W        W12828   8.454  10.771  13.045
41103W        W12829  26.724  33.384   0.554
41104W        W12830  13.649  14.038  10.678
41105W        W12831   6.192  24.175   2.536
41106W        W12832  39.565  38.545  13.375
41107W        W12833  18.676   0.961  12.178
41108W        W12834  41.500  10.871  12.032
41109W        W12835  30.434  34.365   4.368
41110W        W12836  20.958  38.525   1.444
41111W        W12837  33.019   3.362  14.034
41112W        W12838  40.795  42.944  14.915
41113W        W12839  13.163  17.676  11.908
41114W        W12840  44.757  35.882   0.911
41115W        W12841  33.396  23.059   3.701
41116W        W12842  23.971  44.366  10.993
41117W        W12843  43.451  13.667   2.387
41118W        W12844  42.677   5.754  13.476
41119W        W12845  15.866   9.272  11.367
41120W        W12846  42.007   8.799   4.240
41121W        W12847  37.094  30.076   0.396
41122W        W12848  10.905   3.258  14.406
41123W        W12849  41.967  35.039   3.274
41124W        W12850  23.696   8.183  11.254
41125W        W12851  35.590   8.169   3.231
41126W        W12852   2.809  42.991  13.034
41127W        W12853  44.451  40.590  10.477
41128W        W12854  41.362   4.697  14.496
41129W        W12855  31.981  28.043   0.154
41130W        W12856  26.483  24.490  14.063
41131W        W12857   4.136  40.046  13.957
41132W        W12858  15.782  40.016  13.556
41133W        W12859  20.707  42.383   3.425
41134W        W12860   1.558  39.909   1.303
41135W        W12861  21.291  21.109   4.038
41136W        W12862  31.453  44.593   2.838
41137W        W12863  26.468  42.536  14.501
41138W        W12864  13.799  30.558  10.722
41139W        W12865  11.270   0.076  11.099
41140W        W12866   3.026   5.422  11.717
41141W        W12867  12.608  32.592   0.966
41142W        W12868   1.530  40.571  13.966
41143W        W12869  13.830  20.772  11.071
41144W        W12870   1.248   6.397   2.010
41145W        W12871  39.944   6.700  11.867
41146W        W12872  24.017  41.813  11.535
41147W        W12873  12.089   2.044  11.165
41148W        W12874  39.356  26.506  14.505
41149W        W12875  15.632   2.199   4.804
41150W        W12876   8.320  32.541  11.550
41151W        W12877  23.740  44.853   5.009
41152W        W12878  10.791  13.658   4.245
41153W        W12879  21.667  24.942  11.925
41154W        W12880   8.513  35.143   2.582
41155W        W12881   0.821  42.242   2.771
41156W        W12882   3.911   0.381  14.837
41157W        W12883   1.763  22.196  13.929
41158W        W12884  21.362  23.576   2.817
41159W        W12885  26.433  18.234  11.973
41160W        W12886  22.508  25.152  14.278
41161W        W12887  41.217  17.265  12.507
41162W        W12888  30.993  12.700   0.791
41163W        W12889  43.510  21.051  13.780
41164W        W12890  12.746  31.097   3.412
41165W        W12891  29.639   5.459   0.868
41166W        W12892  15.969   5.905   5.057
41167W        W12893  34.159   7.856   1.251
41168W        W12894   6.237   3.755   5.516
41169W        W12895   0.455  25.828  14.233
41170W        W12896   4.761  17.048   3.077
41171W        W12897  15.273  16.790  14.287
41172W        W12898  28.550  12.907   5.135
41173W        W12899  39.510  12.159   1.229
41174W        W12900  43.799  16.865  11.851
41175W        W12901  18.679  38.823   0.467
41176W        W12902   1.981  40.479  12.823
41177W        W12903  28.847  22.985  13.860
41178W        W12904   5.922  12.781   1.899
41179W        W12905  35.839  30.415   1.825
41180W        W12906  36.630  26.554  14.320
41181W        W12907  19.764  15.609  13.848
41182W        W12908  31.085  17.623   3.608
41183W        W12909  10.219  18.366  12.681
41184W        W12910  41.876  12.558   3.118
41185W        W12911  14.179  31.425  11.642
41186W        W12912  28.386  26.582  10.956
41187W        W12913   3.684   8.767   2.327
41188W        W12914  34.754   1.947  13.272
41189W        W12915  25.770  29.121  12.004
41190W        W12916   8.181   4.214  11.605
41191W        W12917  31.099  24.963   0.050
41192W        W12918   5.288  37.827   1.035
41193W        W12919  24.663  40.349  10.941
41194W        W12920  23.516  16.108   0.840
41195W        W12921  36.471  16.635   3.182
41196W        W12922  30.765  40.459   3.187
41197W        W12923  37.718   1.400   4.234
41198W        W12924  28.994  21.511  12.854
41199W        W12925  39.509  10.827   0.414
41200W        W12926  42.265  30.194  13.839
41201W        W12927   5.247  26.618  14.772
41202W        W12928  13.409  31.294   3.797
41203W        W12929   4.921  42.278  12.036
41204W        W12930  43.791  13.095  13.459
41205W        W12931   7.423  24.116  12.108
41206W        W12932  22.658  15.475  12.453
41207W        W12933  31.862  36.544  13.144
41208W        W12934  40.005  21.013   0.381
41209W        W12935  20.587  11.829   2.154
41210W        W12936  35.569  16.710   1.381
41211W        W12937  31.649  43.229  11.543
41212W        W12938  20.065  12.079   4.655
41213W        W12939  19.041  28.951  14.180
41214W        W12940  39.834  37.391  14.824
41215W        W12941  39.354   4.757  10.631
41216W        W12942  37.049   2.806  12.365
41217W        W12943   5.663  29.954   4.569
41218W        W12944   2.814  31.708   0.974
41219W        W12945  18.411  28.195   4.863
41220W        W12946  30.882  42.492   1.936
41221W        W12947   3.772  17.081  12.855
41222W        W12948  33.363  16.874   0.799
41223W        W12949  31.211  28.069   3.300
41224W        W12950  31.616   7.394   2.350
41225W        W12951  19.100  13.717  12.615
41226W        W12952   0.729   6.324   4.589
41227W        W12953   2.702  44.909   0.861
41228W        W12954  14.285  41.063   0.498
41229W        W12955  38.412  13.039  11.745
41230W        W12956  26.513   4.753  12.025
41231W        W12957   1.983  16.779  11.645
41232W        W12958  25.565   4.497   2.189
41233W        W12959  39.082  34.968  11.310
41234W        W12960   7.746  40.580   3.202
41235W        W12961  11.772  29.228  13.822
41236W        W12962   0.907   1.407   2.838
41237W        W12963   1.679  40.354   0.314
41238W        W12964   8.379  32.992   4.642
41239W        W12965  12.083  27.538   1.623
41240W        W12966  12.099  38.916   1.907
41241W        W12967   1.027  21.605   2.302
41242W        W12968  22.551   7.142   4.701
41243W        W12969  37.786  29.456  12.009
41244W        W12970  16.509  28.307  14.004
41245W        W12971  44.307  22.496   4.181
41246W        W12972   2.719  23.514  13.857
41247W        W12973  10.777   2.350   4.237
41248W        W12974   8.400  23.694   4.627
41249W        W12975  19.079  29.167   2.825
41250W        W12976  37.905   4.299   4.312
41251W        W12977   2.542  28.141   4.713
41252W        W12978  16.895   5.246   3.675
41253W        W12979  22.583  43.489  11.932
41254W        W12980  44.306   3.910   0.813
41255W        W12981  30.378  14.852   3.216
41256W        W12982  35.899  38.309   3.894
41257W        W12983  17.606   3.283  13.448
41258W        W12984  18.417  10.137  12.664
41259W        W12985   6.411  15.788  14.973
41260W        W12986  32.674   9.368   1.183
41261W        W12987  16.040  29.615  12.330
41262W        W12988  27.023   0.214   2.853
41263W        W12989  12.868  26.730   3.942
41264W        W12990   8.908  31.162   1.255
41265W        W12991  35.894  39.557   3.373
41266W        W12992  41.824  28.412  13.885
41267W        W12993   1.376  10.328  13.432
41268W        W12994  39.857  15.766  11.127
41269W        W12995  23.260  24.084   2.738
41270W        W12996  22.553  23.994   4.080
41271W        W12997  38.454  15.488  12.122
41272W        W12998  12.266  11.858  12.537
41273W        W12999  12.746   6.117  10.490
41274W        W13000  44.915  11.897  13.803
41275W        W13001  41.469  34.126  11.937
41276W        W13002  37.562   8.262   1.533
41277W        W13003  16.046  16.381  12.980
41278W        W13004  40.883  31.863  11.901
41279W        W13005  38.354  36.040   4.125
41280W        W13006   8.902  37.990  10.476
41281W        W13007  25.040  40.607  12.489
41282W        W13008  35.795  42.803   1.205
41283W        W13009  35.899   4.232   3.690
41284W        W13010  34.142  33.502  11.439
41285W        W13011  23.281  19.644   4.197
41286W        W13012  23.007  30.487   3.025
41287W        W13013  16.686  18.337  13.121
41288W        W13014  36.947  41.456   2.768
41289W        W13015  44.231  32.414   3.922
41290W        W13016  38.429  32.642   4.289
41291W        W13017  40.682  31.614  11.078
41292W        W13018   1.382   4.753   2.489
41293W        W13019  21.179  39.823   3.265
41294W        W13020  32.912  29.644  13.464
41295W        W13021   7.393  21.218  10.637
41296W        W13022  18.511  32.214  13.468
41297W        W13023  43.786  29.138   1.205
41298W        W13024  22.296  16.521   4.160
41299W        W13025   5.141   1.562  11.108
41300W        W13026   6.674  26.246   3.253
41301W        W13027  44.348   7.305  13.004
41302W        W13028   2.038  22.366   0.265
41303W        W13029  15.249   2.701   3.169
41304W        W13030  35.363  11.318   4.533
41305W        W13031   8.445  43.857   0.856
41306W        W13032  14.481  10.320  10.419
41307W        W13033   4.960   0.178  10.150
41308W        W13034  27.743  34.170   0.730
41309W        W13035  33.871  32.681  12.984
41310W        W13036  10.321  39.453   2.178
41311W        W13037  19.476  16.681   4.474
41312W        W13038  36.597  21.250   0.472
41313W        W13039  35.664  19.351  12.129
41314W        W13040   2.823   6.482  11.978
41315W        W13041  39.970  32.922  12.173
41316W        W13042  14.896  35.819   2.167
41317W        W13043  44.776  41.445   4.209
41318W        W13044   8.680  44.405   4.967
41319W        W13045  28.164   5.301   3.288
41320W        W13046  37.291   1.174  14.925
41321W        W13047  12.933   5.510   4.019
41322W        W13048  35.839  14.244  13.310
41323W        W13049   6.062   9.908   2.351
41324W        W13050  29.227  29.190   0.698
41325W        W13051   7.125   0.488   3.422
41326W        W13052  14.365  11.095   1.302
41327W        W13053  18.050  43.501   0.410
41328W        W13054  24.143   9.233  14.813
41329W        W13055   1.504  19.178   3.632
41330W        W13056  15.161  28.360  12.977
41331W        W13057  16.571  27.902   4.197
41332W        W13058  33.171  17.531   2.266
41333W        W13059  35.419  42.328   1.773
41334W        W13060  18.691  30.759   3.048
41335W        W13061  32.834  35.078   3.865
41336W        W13062   4.750  22.898  14.249
41337W        W13063   8.473  11.712   2.204
41338W        W13064  29.508   8.609  11.040
41339W        W13065   0.367  35.029  13.244
41340W        W13066  37.512  42.766  10.651
41341W        W13067  10.752  36.056  11.565
41342W        W13068  12.843  12.413   0.477
41343W        W13069  39.478  26.993  13.347
41344W        W13070  27.421  30.864  13.066
41345W        W13071  28.048  34.402   2.752
41346W        W13072  37.518  18.612   4.602
41347W        W13073  20.183  11.886   5.122
41348W        W13074  18.848  16.490   3.578
41349W        W13075   2.654  26.511   3.320
41350W        W13076  33.281   5.658   0.317
41351W        W13077  12.430   3.269   0.963
41352W        W13078  43.139   5.677   4.513
41353W        W13079  21.192  26.261  12.517
41354W        W13080  10.605  30.654  14.826
41355W        W13081  42.743  29.858   0.275
41356W        W13082  10.900  41.510  12.940
41357W        W13083  43.522  41.823  11.094
41358W        W13084  28.240  23.523  12.522
41359W        W13085  19.659   0.920   3.644
41360W        W13086  26.008  43.439  14.996
41361W        W13087   8.629   2.606   0.725
41362W        W13088  34.929   6.876   0.890
41363W        W13089  32.444   3.457   1.418
41364W        W13090   5.791  21.672  13.877
41365W        W13091  26.286  29.896   4.165
41366W        W13092  38.568  16.664  13.649
41367W        W13093  39.071  26.019  13.804
41368W        W13094   3.778  43.652   1.832
41369W        W13095  39.433  38.477   4.497
41370W        W13096  31.827  32.487   3.379
41371W        W13097  27.082  24.123   0.220
41372W        W13098   3.181   8.837   3.161
41373W        W13099  18.172  16.295  13.446
41374W        W13100  39.581  32.177  14.792
41375W        W13101  36.589  17.264   1.700
41376W        W13102   3.959  25.647   0.356
41377W        W13103  41.390  12.372  10.783
41378W        W13104  29.780  42.453  13.358
41379W        W13105  26.957  41.237  10.698
41380W        W13106   3.889  26.451  10.255
41381W        W13107  33.380  23.480  10.156
41382W        W13108  30.641  21.691   4.165
41383W        W13109   8.595  42.963   4.572
41384W        W13110   0.512  21.667   2.300
41385W        W13111  13.207  39.950  11.015
41386W        W13112  30.896  11.076   2.193
41387W        W13113  21.682   3.448  11.008
41388W        W13114  19.615   7.295  10.651
41389W        W13115  41.362  29.409   0.285
41390W        W13116   5.381  17.380  12.392
41391W        W13117  14.853  38.246   1.381
41392W        W13118  35.633  13.626  13.858
41393W        W13119  32.440  21.145  13.478
41394W        W13120   7.667  26.110   0.784
41395W        W13121  26.025  28.943  12.419
41396W        W13122  18.227   0.432  14.711
41397W        W13123  34.119  17.825   4.429
41398W        W13124  24.001  16.680   0.349
41399W        W13125  10.912   3.423   2.725
41400W        W13126  24.114  25.989  12.978
41401W        W13127  38.298  23.663   4.106
41402W        W13128   4.231   1.218  14.375
41403W        W13129  12.066  18.573  10.634
41404W        W13130  37.463  20.511   4.685
41405W        W13131  37.469  10.062  10.965
41406W        W13132  19.479  22.528  12.560
41407W        W13133  25.479  26.707  12.083
41408W        W13134  27.783  16.807   0.005
41409W        W13135  27.776  21.808  11.534
41410W        W13136   5.334  30.992   4.296
41411W        W13137  29.497  10.267  12.617
41412W        W13138  27.596   2.796  11.746
41413W        W13139  40.960  16.006  13.009
41414W        W13140  24.024  23.744   2.659
41415W        W13141   6.568  38.010   2.924
41416W        W13142  30.023   3.028   1.446
41417W        W13143  35.773  15.136  12.972
41418W        W13144   6.218  41.417   0.101
41419W        W13145   5.273  31.928  10.872
41420W        W13146  17.148   6.189  11.657
41421W        W13147  44.191   9.399   4.922
41422W        W13148  42.820   8.493   2.771
41423W        W13149  33.060  32.590   1.404
41424W        W13150  19.648  33.206   3.307
41425W        W13151  11.010  26.814  11.660
41426W        W13152  24.073  27.910   1.960
41427W        W13153   2.163  37.845  12.042
41428W        W13154   5.660   9.371   1.243
41429W        W13155  30.126  42.797  10.717
41430W        W13156  29.146  18.104  13.480
41431W        W13157  10.759  43.091   0.330
41432W        W13158  14.237  34.141  12.074
41433W        W13159   7.902  24.586  10.545
41434W        W13160  44.958   0.842   3.614
41435W        W13161  13.665  36.760  13.481
41436W        W13162  30.574   1.075   3.274
41437W        W13163  34.336  37.764  11.259
41438W        W13164  11.396   2.729  11.597
41439W        W13165  21.631   8.316   1.352
41440W        W13166  16.844  14.266  10.682
41441W        W13167  42.282  15.296   0.397
41442W        W13168   3.502   2.357  10.934
41443W        W13169  42.244  37.857  11.449
41444W        W13170   7.206  18.510   3.180
41445W        W13171  33.763  30.131  10.679
41446W        W13172  15.163   0.890  12.376
41447W        W13173  37.021  17.682   2.597
41448W        W13174  21.025  21.826   1.870
41449W        W13175   4.864  43.245   2.729
41450W        W13176  15.148   2.649   3.698
41451W        W13177  20.235  27.739   4.797
41452W        W13178  36.433   3.355  12.313
41453W        W13179   7.940   9.123  12.113
41454W        W13180   7.336   2.425  10.650
41455W        W13181   2.694   5.927  12.536
41456W        W13182  28.595  30.978   0.826
41457W        W13183  34.440   5.764  12.802
41458W        W13184  16.122  17.747  10.522
41459W        W13185  25.617  31.655  10.411
41460W        W13186  26.131  33.659   3.683
41461W        W13187  38.556   0.558  14.789
41462W        W13188  31.121  11.840   4.133
41463W        W13189  40.087  16.384  11.149
41464W        W13190   0.993  12.801  11.558
41465W        W13191  40.920  39.483  14.593
41466W        W13192  24.746  32.182  11.184
41467W        W13193  33.744  12.515  12.026
41468W        W13194  21.578  18.471   4.406
41469W        W13195  40.430  30.762   5.008
41470W        W13196  18.193  41.518   3.196
41471W        W13197   2.439  40.219  14.716
41472W        W13198  26.415  23.779  12.491
41473W        W13199  15.822  43.929   9.823
41474W        W13200   3.217  29.640  12.216
41475W        W13201  27.982  27.284   0.940
41476W        W13202   2.568  37.950  12.781
41477W        W13203  22.756  40.545  12.154
41478W        W13204  27.511  37.641  10.362
41479W        W13205  16.876  32.888  11.562
41480W        W13206  16.239  43.279   2.712
41481W        W13207  25.986  28.534  11.061
41482W        W13208  14.601  37.778   1.343
41483W        W13209  10.165  12.399   1.719
41484W        W13210  41.515  16.199   0.259
41485W        W13211  33.943  10.721   3.652
41486W        W13212  21.629   9.718  14.701
41487W        W13213  18.114  42.662   0.139
41488W        W13214  32.117  20.001  10.759
41489W        W13215  25.623   9.623   1.557
41490W        W13216   3.630  44.806  12.370
41491W        W13217  29.011  30.232  13.522
41492W        W13218  18.557  31.872  11.196
41493W        W13219  38.494  16.789   0.005
41494W        W13220  31.570  22.151   2.841
41495W        W13221   1.668  39.715   3.995
41496W        W13222   0.797  42.190  14.491
41497W        W13223  27.614   1.186  13.414
41498W        W13224  43.075  22.693   3.148
41499W        W13225  27.605  20.061  14.435
41500W        W13226  41.946  30.914  12.897
41501W        W13227   3.383   9.270  12.733
41502W        W13228  26.635   0.842  10.377
41503W        W13229  11.760   9.335   4.344
41504W        W13230   0.973  17.026   3.271
41505W        W13231  37.367   0.270   2.736
41506W        W13232  21.600  17.033  11.048
41507W        W13233  44.705  12.706  14.463
41508W        W13234  34.127   5.895   1.688
41509W        W13235  22.207  44.326   3.897
41510W        W13236  23.550   4.843   2.104
41511W        W13237  14.312  20.687   0.419
41512W        W13238  34.834   4.659   1.834
41513W        W13239  32.474   8.664  14.957
41514W        W13240  28.984   9.390  12.436
41515W        W13241  21.281   3.494   2.850
41516W        W13242  13.213  17.330   1.827
41517W        W13243  35.895  44.744   0.938
41518W        W13244  37.914  32.951  14.936
41519W        W13245   3.462  35.972   2.878
41520W        W13246  31.084   6.011   4.702
41521W        W13247  37.828  19.832   4.332
41522W        W13248  34.813  32.401   3.180
41523W        W13249  14.508  41.773  12.026
41524W        W13250   7.918  13.205   3.594
41525W        W13251  12.206   8.014   0.794
41526W        W13252  32.057  12.057  13.306
41527W        W13253  18.581   0.875   0.534
41528W        W13254   3.899  12.659  12.147
41529W        W13255  16.887   3.971  11.098
41530W        W13256  28.666  21.306   4.163
41531W        W13257  29.257  24.597   3.295
41532W        W13258  33.728  27.167   1.237
41533W        W13259  21.964   0.275  12.975
41534W        W13260   5.435   8.411  11.686
41535W        W13261  25.655   5.772   3.209
41536W        W13262   3.549  42.312  12.483
41537W        W13263  12.143  33.475   0.917
41538W        W13264  36.105  28.930  14.943
41539W        W13265   8.231  29.928  10.420
41540W        W13266  26.943  44.372   3.149
41541W        W13267  36.880  16.821   1.776
41542W        W13268  11.604  23.951   3.840
41543W        W13269  14.347  19.639  14.087
41544W        W13270   1.760  13.707   4.132
41545W        W13271   2.384   0.334  11.572
41546W        W13272  24.619  27.645  13.265
41547W        W13273  36.914  36.800  11.537
41548W        W13274  35.187  42.563  11.987
41549W        W13275   0.399   3.139   3.749
41550W        W13276   1.154   8.471  11.050
41551W        W13277  19.215   8.609   0.911
41552W        W13278  29.419  33.885  14.954
41553W        W13279  17.306  12.264   2.469
41554W        W13280  29.783  25.451   2.240
41555W        W13281  30.159   2.741   1.884
41556W        W13282  35.435  40.070  13.388
41557W        W13283  40.165  22.532   2.861
41558W        W13284  38.122  23.571   1.607
41559W        W13285   0.204  44.397  14.979
41560W        W13286   5.340   8.375   0.490
41561W        W13287  21.284  17.750  14.785
41562W        W13288  33.870  31.672  10.405
41563W        W13289  33.339  11.675   3.222
41564W        W13290  30.985   5.895   1.296
41565W        W13291  37.759  16.070  14.224
41566W        W13292   8.124  29.050   4.501
41567W        W13293  40.952  18.248  14.508
41568W        W13294  19.057  26.948   2.328
41569W        W13295  17.252   3.932  13.764
41570W        W13296  32.526  13.409  12.102
41571W        W13297  32.570  36.356  12.013
41572W        W13298   9.222  19.155   1.727
41573W        W13299   1.268  16.253   1.524
41574W        W13300  32.049  25.655   4.645
41575W        W13301  33.901   4.951   0.822
41576W        W13302  26.484  29.819  12.133
41577W        W13303  17.989  12.521  13.592
41578W        W13304  15.378  21.579   1.226
41579W        W13305  17.127  15.649   0.693
41580W        W13306  13.885  39.749   3.245
41581W        W13307  39.526  30.119  11.123
41582W        W13308  10.606   6.889   1.746
41583W        W13309  37.917  29.922  11.148
41584W        W13310   8.151  27.690   3.319
41585W        W13311  26.095   9.660  12.425
41586W        W13312  26.919  33.854   2.267
41587W        W13313   8.764  24.189  14.480
41588W        W13314  33.144  12.584  14.917
41589W        W13315   5.317  16.770   4.528
41590W        W13316   9.470   4.170  13.903
41591W        W13317  34.232   3.024  10.724
41592W        W13318   5.018  16.714   5.397
41593W        W13319  21.731   4.900   2.670
41594W        W13320  37.985  43.451  14.877
41595W        W13321   0.324  31.911   4.582
41596W        W13322  26.626  33.363  14.225
41597W        W13323  39.582  17.073  14.565
41598W        W13324  25.580   5.255   3.186
41599W        W13325  14.243  41.090  11.044
41600W        W13326  13.793  29.394  13.467
41601W        W13327   4.463  12.826   3.074
41602W        W13328  12.171  32.070  11.017
41603W        W13329   6.472  18.784   5.084
41604W        W13330  44.714  18.527   1.300
41605W        W13331  26.772   7.670   4.415
41606W        W13332   1.374   9.737   3.725
41607W        W13333  16.704   3.310  11.457
41608W        W13334  31.739  41.160   9.885
41609W        W13335  24.973  43.468  11.562
41610W        W13336   3.876  21.681   1.298
41611W        W13337   2.305   6.851   0.290
41612W        W13338  19.811  13.149  14.953
41613W        W13339  30.865  37.350  11.503
41614W        W13340  42.929  20.510  14.790
41615W        W13341  18.153   8.864   2.302
41616W        W13342  23.008   6.809  14.902
41617W        W13343  25.110  25.612   1.204
41618W        W13344  18.300  12.729   4.042
41619W        W13345  40.805  28.800   3.163
41620W        W13346   9.713  22.685  14.811
41621W        W13347  33.117  43.385  10.491
41622W        W13348  31.652  44.972   4.726
41623W        W13349  27.926  17.652   3.071
41624W        W13350  36.192  35.027  13.971
41625W        W13351  11.684  19.788   0.291
41626W        W13352  17.647  14.082   3.914
41627W        W13353  19.348  14.652  11.185
41628W        W13354  29.567   8.335  11.502
41629W        W13355  26.672  11.329  12.447
41630W        W13356  18.232  39.060   0.376
41631W        W13357  29.410  35.860  13.904
41632W        W13358  34.960  20.156   3.198
41633W        W13359  22.299  25.326   4.152
41634W        W13360   0.698  23.164  11.641
41635W        W13361  16.571  37.586  11.229
41636W        W13362   4.825  10.573  11.164
41637W        W13363  11.838  43.980   0.006
41638W        W13364  35.327  42.786   3.372
41639W        W13365  13.682   3.374   1.128
41640W        W13366  25.357  32.031   4.170
41641W        W13367   0.794  32.271   1.630
41642W        W13368  28.010  32.637  14.003
41643W        W13369  32.950  19.135  12.382
41644W        W13370  40.108  31.295   1.786
41645W        W13371  14.460  38.487   0.231
41646W        W13372  18.078  44.246  13.273
41647W        W13373  10.343  32.545   1.223
41648W        W13374  13.840  42.913  13.439
41649W        W13375   4.968  33.564   3.295
41650W        W13376  21.165   3.743  14.231
41651W        W13377  18.067  42.706   0.712
41652W        W13378  38.905  39.991  11.102
41653W        W13379  28.724  34.592  14.341
41654W        W13380  23.064  24.207  11.700
41655W        W13381  27.024  29.925  10.644
41656W        W13382  24.518  11.172   3.420
41657W        W13383  33.748   2.178  14.733
41658W        W13384  14.543  18.272   3.225
41659W        W13385  43.419  22.654   4.936
41660W        W13386  20.246   5.661   1.193
41661W        W13387  40.815  28.334  14.060
41662W        W13388  23.081  27.138  12.054
41663W        W13389   4.977  30.063  12.864
41664W        W13390  12.754  28.421   1.768
41665W        W13391  11.756   3.978  11.248
41666W        W13392  37.551  10.659  12.303
41667W        W13393  40.444  43.709  12.924
41668W        W13394  41.301  33.715  12.204
41669W        W13395   9.876  22.042  14.562
41670W        W13396  10.332  34.360  13.973
41671W        W13397   9.053  11.356   3.402
41672W        W13398  18.885  35.157  14.613
41673W        W13399   9.190  42.454  14.302
41674W        W13400  38.295  26.479  13.063
41675W        W13401  18.598  25.699   0.478
41676W        W13402  41.313  27.626   4.495
41677W        W13403   9.574  24.072   3.742
41678W        W13404  24.673   4.901   4.763
41679W        W13405  21.262  41.288   2.332
41680W        W13406  37.231   4.720  13.394
41681W        W13407  12.671  26.503  11.137
41682W        W13408  24.447  17.872  11.886
41683W        W13409  23.248  19.716   2.261
41684W        W13410  26.731  29.465  14.294
41685W        W13411  19.626   1.732   3.236
41686W        W13412  28.087  16.846  11.203
41687W        W13413  24.277  33.872  13.414
41688W        W13414  30.028  14.672  14.522
41689W        W13415  22.455  30.625  12.047
41690W        W13416  15.680  12.918   3.598
41691W        W13417  24.929  26.434  13.991
41692W        W13418  35.220   2.970  10.621
41693W        W13419  38.018  21.220   4.576
41694W        W13420  30.364  15.582  14.260
41695W        W13421   8.773   0.268   1.663
41696W        W13422  21.597  32.691   1.764
41697W        W13423  10.546  10.838   1.396
41698W        W13424  10.367   5.422  14.846
41699W        W13425   6.368   7.430  14.357
41700W        W13426  10.312  22.689   4.587
41701W        W13427  17.673  36.633   4.438
41702W        W13428   1.253  31.767   0.910
41703W        W13429   9.812  33.747  11.456
41704W        W13430   7.840  33.664  14.827
41705W        W13431  25.707   4.500  13.897
41706W        W13432  21.938   7.727   2.818
41707W        W13433  30.540  15.805   1.784
41708W        W13434  10.803  27.162  13.290
41709W        W13435  16.836   0.256   3.673
41710W        W13436  15.092  37.618  13.002
41711W        W13437   7.256  31.492  14.596
41712W        W13438  23.667  10.530   1.580
41713W        W13439   8.265  38.593   1.673
41714W        W13440   5.930  23.068   2.549
41715W        W13441   1.103  22.023  13.019
41716W        W13442   6.690   6.994   0.718
41717W        W13443  17.652  21.518  10.562
41718W        W13444  24.629  44.700  13.352
41719W        W13445  44.237  24.759   1.732
41720W        W13446   3.968  37.119  13.851
41721W        W13447  28.194  12.799  13.379
41722W        W13448   0.826  14.217  10.669
41723W        W13449   5.873  14.842   0.788
41724W        W13450  41.013  22.032  11.255
41725W        W13451  13.550  41.918  13.871
41726W        W13452  27.150  39.341  12.474
41727W        W13453   1.799  39.854  11.381
41728W        W13454   0.349  20.020   0.213
41729W        W13455  24.996  30.877  12.876
41730W        W13456  34.095  40.662  11.069
41731W        W13457  28.569  40.020   2.167
41732W        W13458  16.183  10.203  12.527
41733W        W13459  18.082  35.973   4.737
41734W        W13460  36.563  14.649   3.461
41735W        W13461  18.051   6.678  12.095
41736W        W13462  39.506  28.942   1.199
41737W        W13463  24.946  26.747  11.117
41738W        W13464  31.555  35.059  10.685
41739W        W13465  34.605  19.484   1.010
41740W        W13466  35.612  21.763   0.565
41741W        W13467  15.627  22.252   0.873
41742W        W13468  29.357  33.872   2.360
41743W        W13469  15.375   3.863   0.371
41744W        W13470  33.997  12.836  10.781
41745W        W13471  37.781  13.815  14.312
41746W        W13472  10.505  10.845  10.562
41747W        W13473  28.210  22.438   5.181
41748W        W13474  34.134  27.603   1.981
41749W        W13475  11.517  21.697   4.297
41750W        W13476  10.118  39.495  14.446
41751W        W13477   9.586  44.387   1.257
41752W        W13478  19.713  38.996  10.701
41753W        W13479  17.627   1.090   2.716
41754W        W13480  17.843   1.983  14.913
41755W        W13481   5.750  38.990  12.129
41756W        W13482  30.660  29.646  13.599
41757W        W13483  14.622  43.440   0.303
41758W        W13484  31.619  39.578   0.760
41759W        W13485   8.825   2.542   2.189
41760W        W13486  19.042  34.444   2.128
41761W        W13487  21.260  17.378   0.922
41762W        W13488  34.056  10.901   4.115
41763W        W13489  35.395  24.826  10.421
41764W        W13490   9.298  15.520  14.851
41765W        W13491   5.448  42.028  14.496
41766W        W13492  24.823  37.107   1.278
41767W        W13493   7.770  10.754   3.292
41768W        W13494  44.599   2.929   3.144
41769W        W13495  39.493  28.305   3.245
41770W        W13496   8.252   8.411  14.454
41771W        W13497   5.790  26.580  14.797
41772W        W13498  37.052  38.789   0.965
41773W        W13499  36.547  36.433   0.261
41774W        W13500   1.507  36.469  12.524
41775W        W13501  38.658  41.022   2.698
41776W        W13502  20.241  39.663   3.890
41777W        W13503   1.344  43.587  12.862
41778W        W13504   8.893   0.622  10.926
41779W        W13505  11.477  30.814  13.039
41780W        W13506  42.256   3.906  11.606
41781W        W13507  26.264  15.743  12.024
41782W        W13508   3.558   6.801   3.698
41783W        W13509   8.112  18.136  11.156
41784W        W13510  10.382   5.975  13.282
41785W        W13511  22.485  33.458   1.817
41786W        W13512  32.984  13.086   3.795
41787W        W13513  18.151   2.861   4.269
41788W        W13514  22.993   0.535  10.072
41789W        W13515  18.561  32.661   1.377
41790W        W13516  35.946  32.354   0.279
41791W        W13517  27.117  25.211  13.898
41792W        W13518  22.725  13.322  10.724
41793W        W13519  38.488  18.340   2.322
41794W        W13520  33.529   3.246  13.314
41795W        W13521  26.647   7.884   0.924
41796W        W13522  18.765  34.944  12.446
41797W        W13523  23.693   9.164  11.166
41798W        W13524  38.984  30.098   1.227
41799W        W13525  38.930  40.524   4.189
41800W        W13526  21.868   0.206   2.901
41801W        W13527  36.555  26.064  12.135
41802W        W13528  31.623  19.271   4.213
41803W        W13529  33.648  36.074   3.419
41804W        W13530  36.066  32.621  12.543
41805W        W13531   1.009  31.133   0.892
41806W        W13532   0.571   2.356  13.059
41807W        W13533   8.856  36.902  11.496
41808W        W13534  16.160  37.741  10.163
41809W        W13535  42.235   5.770  14.908
41810W        W13536  22.274  11.308   1.311
41811W        W13537   3.363   7.892  12.908
41812W        W13538  37.910  41.542  10.687
41813W        W13539  11.854  29.583  10.552
41814W        W13540  24.023  12.844   0.777
41815W        W13541  28.165  17.621  12.863
41816W        W13542  13.747  10.197   4.644
41817W        W13543  36.847  39.514   4.646
41818W        W13544  26.551   2.172  11.167
41819W        W13545  41.540  10.451  11.731
41820W        W13546  39.795  21.080  14.903
41821W        W13547  20.163  12.884  13.353
41822W        W13548  36.907  21.540   4.037
41823W        W13549   1.626  25.668   0.997
41824W        W13550  17.130  30.003  11.420
41825W        W13551  34.952   7.808   2.816
41826W        W13552  11.337  28.947   2.587
41827W        W13553  17.561  35.052   1.885
41828W        W13554  15.236  17.522   1.976
41829W        W13555  25.594  14.783  14.771
41830W        W13556  43.816  13.274   3.146
41831W        W13557  24.938   2.711  11.854
41832W        W13558  13.211  41.536  13.991
41833W        W13559  23.652  17.178  14.784
41834W        W13560  44.142  26.163  13.593
41835W        W13561  18.316  24.601   4.631
41836W        W13562  21.019  11.361  10.711
41837W        W13563  38.196  34.466   1.817
41838W        W13564  23.558  16.379   0.378
41839W        W13565  28.418   0.168  13.359
41840W        W13566  13.794  18.490   0.320
41841W        W13567  37.658   1.832   3.586
41842W        W13568   7.834  13.834   2.793
41843W        W13569  19.086  33.548   0.731
41844W        W13570   5.156  36.884   2.292
41845W        W13571  30.550  26.886  13.952
41846W        W13572  11.225  37.195  13.987
41847W        W13573   5.478  16.254   1.271
41848W        W13574   6.232  19.482   1.893
41849W        W13575  41.119   7.308   3.193
41850W        W13576  43.457   7.553   4.196
41851W        W13577  40.057   9.695   3.576
41852W        W13578  43.949   4.454   4.061
41853W        W13579  11.603  17.570  12.529
41854W        W13580   1.278   4.481  12.719
41855W        W13581  30.438  37.338   2.895
41856W        W13582  37.631  12.690  14.906
41857W        W13583  33.186  18.166   0.823
41858W        W13584  27.087  27.836   4.383
41859W        W13585  41.979  15.137   1.282
41860W        W13586  22.131  27.443  10.132
41861W        W13587  34.471  13.046  11.612
41862W        W13588  26.175  31.474   1.278
41863W        W13589  32.016  39.326  10.329
41864W        W13590  16.142  40.456   3.061
41865W        W13591  42.932   5.967  10.706
41866W        W13592  21.773   6.897   1.861
41867W        W13593  26.379  35.220  13.169
41868W        W13594  29.837  24.213  10.529
41869W        W13595   0.273  35.965  11.025
41870W        W13596  42.834   1.751  14.283
41871W        W13597  36.836  25.467   3.603
41872W        W13598  14.866  12.639   0.807
41873W        W13599  37.592  30.504   4.257
41874W        W13600  19.130  34.967   4.580
41875W        W13601  41.444  10.359   3.296
41876W        W13602  38.491  23.684  13.302
41877W        W13603  21.953  38.493  14.798
41878W        W13604  36.911  30.549   0.359
41879W        W13605  20.085   8.973  11.087
41880W        W13606  23.168  32.942   4.255
41881W        W13607  27.757  37.476  14.428
41882W        W13608   8.767   1.951   2.640
41883W        W13609   9.418  25.850   3.757
41884W        W13610   3.944   1.269  10.696
41885W        W13611  42.128  32.679  14.718
41886W        W13612  33.350  19.717  10.558
41887W        W13613  12.080   5.624  11.018
41888W        W13614  43.519  25.067   0.723
41889W        W13615  21.440   4.822   4.116
41890W        W13616   4.169   5.296   2.229
41891W        W13617   5.512  36.320  13.405
41892W        W13618  43.721   5.294  10.661
41893W        W13619  20.877  42.836  14.913
41894W        W13620   0.926  37.360   1.917
41895W        W13621  20.869  16.199   3.431
41896W        W13622   2.499  33.000  12.371
41897W        W13623  23.699  37.859  10.986
41898W        W13624  29.924  44.918   3.563
41899W        W13625  38.452  32.382   2.899
41900W        W13626   4.633  39.279   3.079
41901W        W13627  28.398   1.206  11.108
41902W        W13628  15.187  25.700  12.026
41903W        W13629  11.647   4.025   1.855
41904W        W13630  37.052  40.046  12.468
41905W        W13631  34.790  33.588   5.000
41906W        W13632  18.026  16.166   2.240
41907W        W13633  14.280  14.205   2.222
41908W        W13634  16.144   7.475   2.274
41909W        W13635  35.537  27.085   3.235
41910W        W13636  35.001  18.682  14.252
41911W        W13637  22.059  17.046  14.744
41912W        W13638  28.498   9.367   4.184
41913W        W13639  27.997  41.506   4.381
41914W        W13640  16.814  35.986  12.430
41915W        W13641   8.259  21.988   3.726
41916W        W13642  36.447   8.164   0.340
41917W        W13643  41.038  43.858   4.548
41918W        W13644  15.143   7.945  12.628
41919W        W13645  27.468  33.933   3.733
41920W        W13646  23.573  13.122   0.701
41921W        W13647   2.214  11.865   9.852
41922W        W13648   3.087   8.088   0.431
41923W        W13649  21.027   1.991   2.381
41924W        W13650   6.578  17.729  10.480
41925W        W13651  16.151  20.860  14.810
41926W        W13652  21.635   6.705  11.349
41927W        W13653  28.943   1.503  11.930
41928W        W13654   1.694  14.188   2.991
41929W        W13655   5.413  22.246   1.248
41930W        W13656   5.691  43.763  12.057
41931W        W13657  40.306  20.102  14.231
41932W        W13658  42.914  19.243   2.377
41933W        W13659   0.880  36.129   0.270
41934W        W13660   6.008  35.435   0.440
41935W        W13661   2.040  44.924   1.659
41936W        W13662  17.478  41.686   2.241
41937W        W13663  28.344  30.063  11.904
41938W        W13664  39.406  30.020  10.638
41939W        W13665  41.323  44.999   0.401
41940W        W13666  41.990   1.486  14.809
41941W        W13667  28.883   9.184   1.179
41942W        W13668  24.542  14.906   2.595
41943W        W13669  23.645  23.968  12.422
41944W        W13670  13.891  28.089  12.590
41945W        W13671  15.062  31.873   2.626
41946W        W13672  15.031  31.072  13.188
41947W        W13673  29.921   0.349   3.849
41948W        W13674  40.109   8.223  14.882
41949W        W13675  42.478  42.909   4.173
41950W        W13676  28.735  39.878  14.348
41951W        W13677  10.097  25.690   2.546
41952W        W13678  16.173  27.489   0.386
41953W        W13679  37.538  15.099  13.264
41954W        W13680  32.122  11.265  10.152
41955W        W13681  29.804  36.007   1.074
41956W        W13682  14.203   0.550  12.407
41957W        W13683  28.673  14.622   3.090
41958W        W13684  32.115  41.792  11.052
41959W        W13685   6.504  17.574   4.652
41960W        W13686  20.885   2.685  12.588
41961W        W13687  13.853  13.379  12.976
41962W        W13688  25.295  38.396  13.117
41963W        W13689  41.836  41.867   2.679
41964W        W13690   1.177  10.905  12.418
41965W        W13691  37.431  44.990  11.834
41966W        W13692  15.188   7.185  10.886
41967W        W13693  15.348   2.234   1.659
41968W        W13694  34.593  13.535  12.623
41969W        W13695  27.966  11.699  13.714
41970W        W13696  22.542  38.050  12.517
41971W        W13697  34.430  14.958  14.334
41972W        W13698  33.904  38.795  11.641
41973W        W13699  22.107  19.633   5.025
41974W        W13700  23.114  14.624   1.237
41975W        W13701  33.010   6.821  14.498
41976W        W13702   3.847  14.433  10.665
41977W        W13703  35.548  38.428   2.218
41978W        W13704  20.499  14.577   5.043
41979W        W13705   9.901  42.413  14.884
41980W        W13706  42.490   3.735  13.907
41981W        W13707   4.946  22.256  14.998
41982W        W13708   2.210  13.867  14.794
41983W        W13709  19.008  36.025   3.038
41984W        W13710  33.387  22.761   2.678
41985W        W13711  27.181  20.188   1.330
41986W        W13712  20.257  29.869  14.832
41987W        W13713   7.382  20.724   3.242
41988W        W13714  37.537  38.031   4.075
41989W        W13715   2.472  16.587   1.252
41990W        W13716  40.143  23.374   0.838
41991W        W13717  33.587  42.063   0.403
41992W        W13718  21.154  12.143   4.220
41993W        W13719  31.047   6.281  10.607
41994W        W13720   2.783   8.170   2.578
41995W        W13721  12.079   7.677  11.161
41996W        W13722  40.353  29.246   4.973
41997W        W13723   0.269  39.080  14.588
41998W        W13724  28.843  15.360  14.572
41999W        W13725  16.322  42.701  11.616
42000W        W13726   4.251   0.656  14.344
42001W        W13727   2.312   8.840   1.140
42002W        W13728  37.341  18.661   4.117
42003W        W13729  30.902   3.306  14.263
42004W        W13730   9.649   1.103  14.837
42005W        W13731  21.931  18.837  13.705
42006W        W13732   9.322  42.728  14.737
42007W        W13733   3.515   1.941  11.674
42008W        W13734  40.783  39.041   0.344
42009W        W13735  30.569  23.820  13.115
42010W        W13736  17.192  43.208   5.042
42011W        W13737  35.294  28.337  11.232
42012W        W13738   5.238   0.452  11.829
42013W        W13739  16.711   4.737   2.474
42014W        W13740  16.847  38.475   1.389
42015W        W13741  43.008  14.370  11.697
42016W        W13742  22.949  34.602  11.207
42017W        W13743  12.943  42.807   1.578
42018W        W13744  20.271  42.804   4.818
42019W        W13745   0.712   7.195   5.102
42020W        W13746  25.620  44.907  14.417
42021W        W13747  35.133   8.862  14.031
42022W        W13748   2.883  30.694  12.610
42023W        W13749  13.318  28.462  12.141
42024W        W13750  35.123  21.642  10.735
42025W        W13751  32.084  24.661  10.470
42026W        W13752  36.254  29.913   3.749
42027W        W13753  18.065  27.981  10.585
42028W        W13754  31.776  33.706   3.644
42029W        W13755  22.470  16.288  13.021
42030W        W13756  13.646   5.462  10.430
42031W        W13757  10.808   3.108  13.901
42032W        W13758   8.441  43.254  11.122
42033W        W13759  36.366  23.098  12.427
42034W        W13760  33.830  20.164   1.246
42035W        W13761  22.317  32.465  13.647
42036W        W13762  17.094   3.876   2.834
42037W        W13763  43.259  10.182   3.269
42038W        W13764  21.227   7.706   0.933
42039W        W13765  13.766  19.774  12.333
42040W        W13766  16.051  39.485   3.345
42041W        W13767  20.283  40.562  12.652
42042W        W13768  42.898  25.498   3.894
42043W        W13769  40.418  22.470  12.955
42044W        W13770  20.976   4.609   4.223
42045W        W13771  37.338   2.350   3.360
42046W        W13772  33.826   3.812  14.389
42047W        W13773  13.693  38.408  13.999
42048W        W13774  18.649  42.974  11.660
42049W        W13775   5.479   8.304   3.736
42050W        W13776  18.637  10.262  10.721
42051W        W13777  31.334  17.426   0.457
42052W        W13778  21.010  31.516  13.304
42053W        W13779  39.976  40.754   4.063
42054W        W13780  10.958   4.632  12.521
42055W        W13781  12.894  37.797   1.841
42056W        W13782   3.435  12.084   0.811
42057W        W13783  41.062  36.893   2.695
42058W        W13784  33.934  18.807   4.242
42059W        W13785   4.006   8.235   3.532
42060W        W13786  23.215  35.091  14.952
42061W        W13787  22.189  28.473  10.996
42062W        W13788  21.563  39.460  11.825
42063W        W13789  16.551  31.029   3.857
42064W        W13790  43.945   6.208  14.935
42065W        W13791  24.912  40.885  12.912
42066W        W13792   1.220  43.282  11.529
42067W        W13793   5.132  23.962  14.059
42068W        W13794  32.412  44.417  10.596
42069W        W13795   0.990   2.504   1.882
42070W        W13796  37.334  32.926   2.178
42071W        W13797   0.547   4.710  14.746
42072W        W13798  28.267   0.830   1.956
42073W        W13799  23.314   7.817  12.975
42074W        W13800  44.013   9.118  12.516
42075W        W13801  13.376  43.948  14.382
42076W        W13802   1.271  26.644   2.935
42077W        W13803  32.618  23.564  14.009
42078W        W13804   2.813   6.160   0.429
42079W        W13805  34.985  10.545   5.111
42080W        W13806  12.096  35.403   2.737
42081W        W13807  35.163  20.491  14.950
42082W        W13808  24.644   5.930   4.865
42083W        W13809  25.938  25.331  10.961
42084W        W13810  27.391   7.221   2.772
42085W        W13811  28.670   1.280  14.553
42086W        W13812  30.729   5.763  14.458
42087W        W13813  40.872  44.970  11.512
42088W        W13814  36.094  22.202   0.943
42089W        W13815   8.401  15.286   2.692
42090W        W13816  23.035  26.456  10.687
42091W        W13817  40.922  44.493  14.903
42092W        W13818  28.677  17.497  13.922
42093W        W13819   2.304   6.196  10.281
42094W        W13820  17.218   7.422   2.675
42095W        W13821  19.239  32.326  10.648
42096W        W13822  26.558   8.898  12.367
42097W        W13823  12.374   1.296  11.169
42098W        W13824  33.321   2.452   4.443
42099W        W13825  20.960  17.639  11.073
42100W        W13826   8.973  35.650   1.238
42101W        W13827  10.286   8.183  12.522
42102W        W13828  32.771   7.834  14.499
42103W        W13829  21.684   4.369   4.221
42104W        W13830  25.929  24.062   4.787
42105W        W13831  40.603  23.594  12.646
42106W        W13832   9.499  25.706   9.843
42107W        W13833   0.354  38.490   3.256
42108W        W13834  18.100  27.579  14.699
42109W        W13835   9.711  13.811  12.416
42110W        W13836  43.315  41.465   0.794
42111W        W13837  40.745  15.066  14.727
42112W        W13838  40.891  36.103  10.999
42113W        W13839  44.758  44.308   1.001
42114W        W13840  34.914  34.869  14.384
42115W        W13841  19.196  14.601  10.679
42116W        W13842  33.527  40.118  12.438
42117W        W13843  25.907   2.976  11.991
42118W        W13844  43.793  25.624   3.337
42119W        W13845   8.537  29.091   4.163
42120W        W13846  38.537  40.824   4.272
42121W        W13847  21.542  10.398  14.612
42122W        W13848  34.583  24.030   3.229
42123W        W13849  43.830  39.378   3.542
42124W        W13850  26.079  43.915  14.338
42125W        W13851  16.769  36.871  13.970
42126W        W13852   7.258  42.421   1.267
42127W        W13853   2.136  37.368   1.482
42128W        W13854  20.764   6.952  12.532
42129W        W13855  30.518  39.870   1.408
42130W        W13856  10.852  28.490  11.336
42131W        W13857  16.324   6.819   1.741
42132W        W13858  38.343  11.613   2.299
42133W        W13859   2.919   4.893   4.648
42134W        W13860  36.019  38.318  14.886
42135W        W13861  26.192  10.337  11.631
42136W        W13862  23.067  33.440   3.428
42137W        W13863  31.418  44.372  10.576
42138W        W13864   8.396  22.959   4.319
42139W        W13865   9.778  19.578   2.248
42140W        W13866  15.412   2.856   0.393
42141W        W13867  40.275  41.667  11.083
42142W        W13868  19.008  11.353   0.538
42143W        W13869  22.231  43.365   3.413
42144W        W13870  29.696  16.072   1.392
42145W        W13871   2.022  36.353   3.161
42146W        W13872  34.036  22.260   3.319
42147W        W13873  44.218  41.022   1.744
42148W        W13874   9.611  38.167  12.957
42149W        W13875  39.305  44.262  14.315
42150W        W13876  23.836  12.601   0.295
42151W        W13877  22.976   0.716   1.342
42152W        W13878  34.616  10.310   0.904
42153W        W13879  23.860   6.599   3.995
42154W        W13880  18.773  22.600  11.280
42155W        W13881  14.404  37.294  12.420
42156W        W13882   5.731   0.417  13.068
42157W        W13883  35.830   8.801   3.804
42158W        W13884   5.930  33.603   2.381
42159W        W13885  21.741  31.573  13.850
42160W        W13886  10.712  41.867  11.174
42161W        W13887  33.980  29.385  14.267
42162W        W13888  35.404  34.935  12.666
42163W        W13889  42.933   1.959   0.755
42164W        W13890  22.166  39.579  12.532
42165W        W13891  33.710   6.908   4.080
42166W        W13892  41.027  37.472   4.558
42167W        W13893  41.577  34.993  12.472
42168W        W13894   4.162  30.565  12.857
42169W        W13895  42.434  17.223  10.947
42170W        W13896   5.247  29.430  14.521
42171W        W13897  39.828  14.120  14.839
42172W        W13898  28.758  24.240  13.465
42173W        W13899  10.321  11.776   2.284
42174W        W13900  25.603   5.031   2.177
42175W        W13901   6.667  41.023  14.279
42176W        W13902  38.554  13.888  13.880
42177W        W13903  43.437  42.470  12.348
42178W        W13904   2.651   0.569  11.206
42179W        W13905   1.527  10.234   4.174
42180W        W13906  18.394  27.037   3.923
42181W        W13907   5.640  44.256   3.942
42182W        W13908  11.092  16.143  11.912
42183W        W13909  19.588  20.211   2.871
42184W        W13910  26.599   8.201   2.252
42185W        W13911  32.428  38.752  12.797
42186W        W13912  30.105  37.030  12.356
42187W        W13913   0.144  16.816  11.148
42188W        W13914  26.026  35.189  11.380
42189W        W13915  32.627  20.813  10.744
42190W        W13916  37.640  40.545  14.648
42191W        W13917  18.162  35.104   2.366
42192W        W13918   6.720  15.853   2.927
42193W        W13919  30.927   5.677   4.344
42194W        W13920  14.212  37.148   4.177
42195W        W13921  29.367  33.386  13.729
42196W        W13922   9.133  25.448   1.804
42197W        W13923   5.037  38.411   1.725
42198W        W13924  19.298  42.814   3.081
42199W        W13925  15.766  26.558   1.165
42200W        W13926  17.359  11.693  12.354
42201W        W13927  34.065  42.308  14.422
42202W        W13928  18.826  36.895  14.476
42203W        W13929  28.367  32.926  10.837
42204W        W13930  31.864  27.025   1.720
42205W        W13931   5.297  34.021   0.449
42206W        W13932  27.881   9.161  12.214
42207W        W13933  32.523  31.601   1.905
42208W        W13934  14.610  13.273   4.741
42209W        W13935   1.146  34.954   1.183
42210W        W13936  20.437  43.334   1.855
42211W        W13937   3.321  32.656  13.308
42212W        W13938  12.702  19.168   1.908
42213W        W13939  12.846   8.283  14.630
42214W        W13940  11.739  33.861   0.370
42215W        W13941  21.995  44.771  10.676
42216W        W13942  11.953  18.984   1.460
42217W        W13943   0.453  33.074   1.951
42218W        W13944  26.744  43.582  13.545
42219W        W13945  23.058  10.287   3.908
42220W        W13946  29.557  13.243  13.592
42221W        W13947  32.133  21.666   4.264
42222W        W13948   8.522  42.496  13.242
42223W        W13949  37.546  28.281  14.429
42224W        W13950  21.134  25.458  13.177
42225W        W13951   9.540  28.950  13.479
42226W        W13952  26.188  27.743  14.639
42227W        W13953  17.337  15.347  12.990
42228W        W13954  30.594  35.600  14.000
42229W        W13955   6.887  35.532  14.041
42230W        W13956  35.135   2.438  13.414
42231W        W13957  19.777  33.284   2.274
42232W        W13958  11.803  33.582  14.065
42233W        W13959  13.151  14.037   3.237
42234W        W13960  22.660  18.530   0.479
42235W        W13961  26.027   5.785   4.173
42236W        W13962  12.497  23.680  10.731
42237W        W13963  39.971  34.675   0.484
42238W        W13964  41.878  33.134  12.602
42239W        W13965  24.535  30.570  10.965
42240W        W13966  27.729   3.945   3.360
42241W        W13967  35.983   3.188  10.999
42242W        W13968  27.232  18.751   3.429
42243W        W13969   8.200   8.363   0.745
42244W        W13970   0.947   8.996   4.998
42245W        W13971  15.800  40.950   0.875
42246W        W13972  31.315  43.739  10.691
42247W        W13973  35.911  38.621   0.312
42248W        W13974  30.731  23.115   3.616
42249W        W13975   7.357   8.751  11.916
42250W        W13976  43.041  22.256   1.279
42251W        W13977   2.364  12.719  13.560
42252W        W13978  25.668  21.724  14.021
42253W        W13979   8.306   7.927  11.915
42254W        W13980   2.863  20.802   3.317
42255W        W13981  12.505  35.746  12.947
42256W        W13982  43.321  33.161  14.260
42257W        W13983   8.216  28.166   3.116
42258W        W13984  18.750  24.238  13.944
42259W        W13985  23.233  35.072  13.331
42260W        W13986  18.773  32.511   1.853
42261W        W13987  10.081  13.596   0.343
42262W        W13988  17.069   1.358   2.563
42263W        W13989   4.197  35.863   4.175
42264W        W13990   1.449  31.377   0.649
42265W        W13991  10.746   8.096   2.690
42266W        W13992  36.352  28.291   4.957
42267W        W13993  33.677  15.851  13.408
42268W        W13994  18.152  42.933  11.471
42269W        W13995  43.976   7.756   2.328
42270W        W13996  12.340  31.676   0.328
42271W        W13997  13.056  10.244  11.090
42272W        W13998   3.336  40.983   3.606
42273W        W13999  42.417  39.585   4.509
42274W        W14000  14.848  42.300  14.902
42275W        W14001  26.264  44.478  12.537
42276W        W14002   8.146  34.352  13.557
42277W        W14003  10.659  42.622   2.401
42278W        W14004  42.978  33.892   2.080
42279W        W14005   7.290  43.015  11.567
42280W        W14006   9.879  13.661  13.961
42281W        W14007  36.604  20.910  10.788
42282W        W14008  44.590  18.655   2.656
42283W        W14009  33.210  40.880  13.990
42284W        W14010  41.602  27.405   0.193
42285W        W14011   0.212  20.507   4.258
42286W        W14012  12.224  11.543  10.666
42287W        W14013  23.801  13.327   2.679
42288W        W14014  40.364  42.457  12.492
42289W        W14015  10.201  26.162  10.896
42290W        W14016  23.488  13.746  14.855
42291W        W14017  22.165  11.056   0.866
42292W        W14018  19.582  12.433  12.475
42293W        W14019  38.663  26.743  11.463
42294W        W14020  32.088   7.413  14.901
42295W        W14021   2.638   6.497   2.906
42296W        W14022  42.802  27.786   1.859
42297W        W14023   2.363   2.127   0.453
42298W        W14024  23.633  38.835   4.582
42299W        W14025  26.584  23.691   0.927
42300W        W14026  28.424  27.063   1.152
42301W        W14027   4.219  31.700  13.453
42302W        W14028  12.519  30.057   0.567
42303W        W14029  36.020  19.354  13.881
42304W        W14030  38.576  26.460  12.614
42305W        W14031  11.317  41.977   3.351
42306W        W14032  22.165   7.957   3.736
42307W        W14033  43.805   3.792  11.515
42308W        W14034   6.013  16.169   1.257
42309W        W14035  15.733   6.020  13.051
42310W        W14036  11.347  23.667  10.098
42311W        W14037  28.855  43.205   2.796
42312W        W14038   6.387  33.063  13.109
42313W        W14039  31.807   4.703  10.716
42314W        W14040  31.948  32.527  10.561
42315W        W14041  20.205  22.533  13.750
42316W        W14042  37.730  28.377  11.093
42317W        W14043  22.516  31.073   2.531
42318W        W14044  26.541  39.053  13.070
42319W        W14045  37.376  38.137   0.640
42320W        W14046  41.075  26.841  12.472
42321W        W14047   6.856  32.141   3.499
42322W        W14048  32.876  26.315  12.900
42323W        W14049   9.841  24.215   5.010
42324W        W14050  32.506  16.119  12.528
42325W        W14051  14.346  18.009   0.807
42326W        W14052   3.568  34.631   4.580
42327W        W14053  24.604  39.175   1.993
42328W        W14054  24.425  32.539   4.789
42329W        W14055   5.334   1.088  11.022
42330W        W14056  41.853  27.461   2.783
42331W        W14057   9.332  19.882  12.455
42332W        W14058   0.416   6.480  12.511
42333W        W14059   8.192  19.832  13.299
42334W        W14060  38.726   4.490   0.281
42335W        W14061  17.566  11.334   3.202
42336W        W14062  31.520  44.305   4.101
42337W        W14063  28.644  44.546   2.318
42338W        W14064  14.350  14.613  13.947
42339W        W14065  13.345   7.071  12.913
42340W        W14066  24.179  41.740   1.367
42341W        W14067   9.940  23.406  14.267
42342W        W14068  38.484  14.105  14.533
42343W        W14069   9.729   2.848  10.719
42344W        W14070  31.475  42.750  11.576
42345W        W14071  15.445  34.964   2.796
42346W        W14072  12.401   2.804  11.606
42347W        W14073  39.860  38.375  11.313
42348W        W14074   4.250   7.370   1.286
42349W        W14075  37.395   2.885   2.204
42350W        W14076  23.515  42.122  13.422
42351W        W14077  21.400   2.812   1.208
42352W        W14078  39.059  21.670   3.171
42353W        W14079  42.863   4.372  14.464
42354W        W14080  13.395   4.911  11.955
42355W        W14081   6.852  41.235  13.095
42356W        W14082  22.975  21.998   3.605
42357W        W14083  12.240  28.039  12.539
42358W        W14084  25.346  26.186   4.437
42359W        W14085  26.604   6.637   3.177
42360W        W14086  10.165   7.122   1.452
42361W        W14087  21.529  15.822   0.303
42362W        W14088  19.026  38.783  13.044
42363W        W14089  43.949  10.118   2.732
42364W        W14090  39.261  34.807  10.746
42365W        W14091  13.610  14.867  12.323
42366W        W14092  30.337   3.350  14.889
42367W        W14093  31.616   1.903  13.997
42368W        W14094  15.096   0.483   3.565
42369W        W14095  32.573  12.207  10.377
42370W        W14096  35.434  21.160  12.457
42371W        W14097   7.458  35.801   0.295
42372W        W14098  29.579  17.737  11.071
42373W        W14099  44.723  30.559  13.453
42374W        W14100  22.076  30.428   1.722
42375W        W14101  41.296   1.445   1.232
42376W        W14102  43.547  27.662   1.247
42377W        W14103  35.060  15.660  14.485
42378W        W14104  26.678   4.276   0.588
42379W        W14105  16.598  14.293   0.459
42380W        W14106  24.195  28.507  13.825
42381W        W14107   5.640  29.757   0.772
42382W        W14108  43.812  32.000  12.508
42383W        W14109   8.819   5.917  13.301
42384W        W14110   5.941  15.841   3.399
42385W        W14111   4.643  17.615  11.917
42386W        W14112  31.590  29.412   3.747
42387W        W14113  11.391   8.162   1.796
42388W        W14114  39.523   5.432   0.216
42389W        W14115  27.064  37.048   1.794
42390W        W14116  39.839  10.929   3.662
42391W        W14117  11.920  21.173  14.327
42392W        W14118  10.572  16.988   5.111
42393W        W14119   6.434  21.178   4.239
42394W        W14120  37.364  21.792  12.893
42395W        W14121  14.058  35.582   3.055
42396W        W14122   6.979  44.918  10.449
42397W        W14123   6.958  10.783  11.491
42398W        W14124   4.114  26.270  14.481
42399W        W14125  39.017  18.160  14.623
42400W        W14126  15.242   2.207  13.021
42401W        W14127   3.709  41.455  12.279
42402W        W14128   1.155   3.478  11.176
42403W        W14129  39.008  10.187  13.135
42404W        W14130   5.610  22.224   3.089
42405W        W14131  37.894  13.146   4.704
42406W        W14132  24.026   2.968   4.210
42407W        W14133  14.607   3.816   1.930
42408W        W14134   6.638   7.318   1.166
42409W        W14135   6.319   7.751   5.069
42410W        W14136  20.003  44.871   0.311
42411W        W14137  21.819  32.060  11.968
42412W        W14138  23.245  34.244   0.437
42413W        W14139  22.272  44.348   2.692
42414W        W14140  12.124  11.387   0.486
42415W        W14141  12.287  35.915   4.202
42416W        W14142  25.846  28.367   0.465
42417W        W14143  36.849   4.544   1.348
42418W        W14144  41.905  32.570  13.420
42419W        W14145  34.546  43.798   3.657
42420W        W14146  19.582  36.993   2.787
42421W        W14147  26.705  41.029   0.697
42422W        W14148  28.162  19.314  13.173
42423W        W14149   6.795  44.989   2.843
42424W        W14150  15.581  20.567  12.427
42425W        W14151  25.905  36.674   0.752
42426W        W14152  29.333  26.426   5.051
42427W        W14153   9.443   7.494   0.678
42428W        W14154  44.408  35.504  14.658
42429W        W14155  21.436  26.166   0.369
42430W        W14156   5.472  15.143   4.191
42431W        W14157  41.316   6.431   4.179
42432W        W14158  22.247   7.884  13.418
42433W        W14159  36.577  41.329   0.996
42434W        W14160   8.883   9.807   2.463
42435W        W14161  23.770  20.703  11.639
42436W        W14162  26.611  31.912  12.928
42437W        W14163  29.925  15.368  11.125
42438W        W14164  43.082  15.694  13.362
42439W        W14165   9.409  14.746   4.991
42440W        W14166   3.686  24.819  11.543
42441W        W14167  25.582  37.307   0.226
42442W        W14168  10.538  40.040  14.879
42443W        W14169  11.182  43.739   4.083
42444W        W14170   3.274  22.191   1.151
42445W        W14171   8.762  20.060   4.715
42446W        W14172  23.949  21.774   1.727
42447W        W14173  10.608  16.312  12.463
42448W        W14174  34.529  21.132   0.051
42449W        W14175  28.706  18.074  11.154
42450W        W14176  11.702  21.256   3.341
42451W        W14177  43.732   2.835   3.625
42452W        W14178  21.995  19.193  12.004
42453W        W14179  26.871   7.624  11.513
42454W        W14180   7.282   9.818  12.897
42455W        W14181   3.943   6.537   0.459
42456W        W14182  21.044  11.103   3.989
42457W        W14183  33.913  14.398  10.784
42458W        W14184  40.618  27.876   3.635
42459W        W14185  24.501  13.159  14.374
42460W        W14186   2.723  29.716  11.617
42461W        W14187  39.930  33.795  12.585
42462W        W14188   9.487  34.646   3.349
42463W        W14189   2.245  10.093   2.714
42464W        W14190  24.190  13.040  14.875
42465W        W14191  12.011  26.645   0.809
42466W        W14192  23.485  31.055   2.823
42467W        W14193  12.126  36.452   1.355
42468W        W14194  19.847   6.792   1.432
42469W        W14195  32.557  13.818   3.464
42470W        W14196   9.545  36.436  13.944
42471W        W14197  28.449  12.137   3.787
42472W        W14198  41.265  22.480  11.260
42473W        W14199  16.139  10.543   3.753
42474W        W14200  30.969  41.571  12.632
42475W        W14201   8.750   4.229   1.539
42476W        W14202  39.419  17.235   4.769
42477W        W14203  10.615  30.501  12.518
42478W        W14204   3.991  38.898  13.497
42479W        W14205  31.202  39.979  11.525
42480W        W14206  44.421  27.885   3.533
42481W        W14207  13.529  43.306   1.812
42482W        W14208  17.673  16.152  13.314
42483W        W14209  25.735  10.670   1.447
42484W        W14210  12.788   2.807  13.967
42485W        W14211  12.669   3.883  12.987
42486W        W14212  31.409  23.199   4.642
42487W        W14213  13.368  32.488  14.132
42488W        W14214  10.618  43.961   2.569
42489W        W14215  43.429  17.214   0.495
42490W        W14216  24.248   9.954   1.034
42491W        W14217  15.365  16.582  10.432
42492W        W14218  16.297  36.451   4.764
42493W        W14219  13.844  11.604   0.807
42494W        W14220   8.711  44.699  12.627
42495W        W14221   7.381  25.117  11.963
42496W        W14222   6.643  32.541  10.988
42497W        W14223  34.112  10.318   3.386
42498W        W14224  39.835  28.447  13.549
42499W        W14225  34.275  16.895  12.726
42500W        W14226  35.806  43.995  10.715
42501W        W14227  15.163   4.687   1.818
42502W        W14228   9.445  42.023   4.152
42503W        W14229  40.518   1.846  11.991
42504W        W14230  13.984   3.898  11.631
42505W        W14231   3.793   6.829   4.949
42506W        W14232  26.715   2.105  12.805
42507W        W14233  43.732   1.000   3.203
42508W        W14234  17.629   9.636  14.083
42509W        W14235  31.091   0.803  12.332
42510W        W14236  35.750  18.155  11.456
42511W        W14237  14.192  40.039  11.045
42512W        W14238  28.464   9.771  11.937
42513W        W14239  34.506  12.606   4.685
42514W        W14240   0.305  31.844   2.787
42515W        W14241  12.946  32.313  13.880
42516W        W14242  35.834  15.386  12.503
42517W        W14243  24.665  14.740   5.049
42518W        W14244  27.665  18.068  13.442
42519W        W14245  22.039  43.330  14.035
42520W        W14246  15.818  38.273   1.459
42521W        W14247  16.132  26.029   0.392
42522W        W14248  39.364  22.558  12.723
42523W        W14249  20.718  28.141   4.086
42524W        W14250  40.439  12.506   2.804
42525W        W14251  24.645  16.990  14.415
42526W        W14252  17.606  23.746  14.334
42527W        W14253  34.541  16.556  13.921
42528W        W14254  27.608  22.604   3.660
42529W        W14255   2.766  33.723   0.446
42530W        W14256   6.645  16.648   2.442
42531W        W14257   7.313   5.108  11.166
42532W        W14258  17.310   1.866   0.796
42533W        W14259  44.403   2.387   4.151
42534W        W14260  37.056  11.168  13.855
42535W        W14261   2.524  10.319  11.101
42536W        W14262  16.257  44.857  14.518
42537W        W14263   7.315  41.064  13.436
42538W        W14264  36.312  38.496   2.699
42539W        W14265  21.636  12.750   1.830
42540W        W14266  36.008   5.769   0.913
42541W        W14267  37.212  11.423   4.602
42542W        W14268  16.316  40.765  10.293
42543W        W14269   3.209  31.951  11.894
42544W        W14270  44.583   2.358  11.456
42545W        W14271   1.254  34.055  14.845
42546W        W14272  29.022   2.411  12.894
42547W        W14273  28.617  10.724   4.573
42548W        W14274   7.759  30.445   2.386
42549W        W14275  33.402  43.926  14.380
42550W        W14276  10.604  30.373   0.920
42551W        W14277   4.756  39.473  11.047
42552W        W14278  19.997  40.831   1.404
42553W        W14279   4.712  21.623   0.916
42554W        W14280  42.933  36.470  10.744
42555W        W14281  14.673   3.805  14.801
42556W        W14282  33.326  40.039  10.666
42557W        W14283  19.146   8.814   4.368
42558W        W14284  24.515   7.151   3.660
42559W        W14285  14.600  42.761  11.985
42560W        W14286   9.158  19.878   3.812
42561W        W14287   3.452  12.753   2.854
42562W        W14288  28.072  41.747   1.783
42563W        W14289  31.392  14.056  14.228
42564W        W14290   9.340   6.168  12.429
42565W        W14291  16.562  28.426   4.268
42566W        W14292  13.267  35.122   1.828
42567W        W14293  20.622  33.241  12.826
42568W        W14294  44.070  40.219   0.917
42569W        W14295  28.661  28.744  13.912
42570W        W14296  18.201  41.465   3.762
42571W        W14297  16.272  23.710  11.981
42572W        W14298  24.035  39.393  13.889
42573W        W14299   8.383   8.747  14.057
42574W        W14300  23.497  38.345  14.108
42575W        W14301  43.990  29.047  10.954
42576W        W14302  28.079   0.000   1.880
42577W        W14303  35.903  39.627   0.016
42578W        W14304  14.149  17.136   4.600
42579W        W14305   5.735   1.096  10.714
42580W        W14306  20.349  16.136   1.848
42581W        W14307  34.984  29.521   3.674
42582W        W14308   6.678  17.247   2.770
42583W        W14309  12.087  32.620   3.168
42584W        W14310  41.903  38.053   2.809
42585W        W14311   6.829   4.938   4.311
42586W        W14312  33.533   1.527   3.279
42587W        W14313  10.586  35.099  14.079
42588W        W14314  12.920  24.299  13.597
42589W        W14315  15.459   7.771  10.759
42590W        W14316  30.933  40.578  14.380
42591W        W14317   4.667   9.765   2.289
42592W        W14318  12.802  25.198   0.287
42593W        W14319   5.312   8.937  10.604
42594W        W14320  44.643  43.364  13.744
42595W        W14321  25.773  38.741  11.276
42596W        W14322  20.707  36.076   4.261
42597W        W14323  42.344  14.695  14.300
42598W        W14324  37.824  19.239  13.360
42599W        W14325  29.937  28.731  14.177
42600W        W14326  18.133  42.200  10.985
42601W        W14327  10.853   1.206  13.789
42602W        W14328  16.626  32.496   3.729
42603W        W14329  18.000  36.862  11.692
42604W        W14330  27.075  14.382   4.147
42605W        W14331   3.216   3.653  11.623
42606W        W14332  27.544  16.501   2.715
42607W        W14333  17.270   7.452  12.174
42608W        W14334  38.877  44.933  12.581
42609W        W14335   3.721  37.092   1.449
42610W        W14336  19.292  18.685   2.803
42611W        W14337  25.596   3.190   1.722
42612W        W14338  14.451   7.630  11.509
42613W        W14339  30.417  16.130   3.753
42614W        W14340   5.810   2.487   4.384
42615W        W14341  10.012  44.394   3.623
42616W        W14342   7.841  32.563  11.278
42617W        W14343  20.139   4.693  10.714
42618W        W14344   8.875  41.514  10.690
42619W        W14345   8.284  33.487  14.524
42620W        W14346   8.659  20.132  11.199
42621W        W14347  36.640   5.827  11.106
42622W        W14348  25.699  43.677   5.492
42623W        W14349  26.065  19.992  12.815
42624W        W14350   1.252  10.654   1.798
42625W        W14351  13.341  15.211  14.549
42626W        W14352  15.100   0.872  11.451
42627W        W14353   0.413   6.288   0.500
42628W        W14354  33.643  43.405   3.329
42629W        W14355  29.955  14.111  10.699
42630W        W14356  26.641  29.102  12.046
42631W        W14357  43.666  33.129   2.424
42632W        W14358  31.908  13.169   2.916
42633W        W14359  29.576  21.251   3.129
42634W        W14360   3.686  33.496  11.129
42635W        W14361   4.423  12.621  12.317
42636W        W14362  34.058  13.763   1.393
42637W        W14363   8.222  12.150  12.120
42638W        W14364   5.427  29.570  12.650
42639W        W14365  12.828  39.384   1.781
42640W        W14366  44.331  12.343  13.490
42641W        W14367  42.262  22.523   2.241
42642W        W14368  12.711   5.703  14.881
42643W        W14369  26.078   2.207  13.921
42644W        W14370   3.785   0.690  11.507
42645W        W14371  37.933  27.686  13.124
42646W        W14372  32.006   8.054  12.032
42647W        W14373  21.223  44.760   4.416
42648W        W14374  28.874  12.546  11.200
42649W        W14375  37.777  39.002  13.407
42650W        W14376  14.214   6.338  13.520
42651W        W14377  11.100  36.187  12.419
42652W        W14378   5.224   3.465   0.285
42653W        W14379  15.157  10.009   0.102
42654W        W14380  39.649  17.327  13.579
42655W        W14381  35.676  16.633  11.650
42656W        W14382   5.214  14.490   0.785
42657W        W14383   8.399  42.813  10.871
42658W        W14384  24.036  19.869  12.427
42659W        W14385   4.784  14.592   1.668
42660W        W14386   4.223   7.945   3.911
42661W        W14387  33.463  32.848   0.216
42662W        W14388   4.474  16.658   1.883
42663W        W14389  22.978  12.057   3.667
42664W        W14390  21.692  12.545   2.322
42665W        W14391  22.581  44.596   0.802
42666W        W14392  12.786  43.945   1.932
42667W        W14393   0.544   8.781   0.845
42668W        W14394   8.912  21.669  12.370
42669W        W14395  30.791   9.097   2.407
42670W        W14396  25.725  25.193   0.725
42671W        W14397  39.839  38.806   0.493
42672W        W14398  40.824  13.270  10.718
42673W        W14399  27.412   2.849   0.450
42674W        W14400  41.550  35.407  11.553
42675W        W14401   5.316   5.333  13.032
42676W        W14402  38.643  42.929  13.940
42677W        W14403  41.985  33.929   0.336
42678W        W14404  18.804  29.654   1.267
42679W        W14405   9.456  42.751   5.126
42680W        W14406  20.068   7.676   4.388
42681W        W14407  10.607  30.995   1.778
42682W        W14408  38.091  25.940  12.007
42683W        W14409  35.504  29.411   3.642
42684W        W14410  23.072  31.610  10.521
42685W        W14411   4.911  34.294   4.844
42686W        W14412   9.751  38.020   4.623
42687W        W14413  27.081  21.826  10.793
42688W        W14414  26.623  38.478   1.377
42689W        W14415  31.197  40.842   0.870
42690W        W14416  18.891  30.570  10.510
42691W        W14417  19.716  16.593  12.329
42692W        W14418  36.167  41.202  12.518
42693W        W14419  18.054  32.860   1.420
42694W        W14420  37.638  38.880   1.931
42695W        W14421  34.015  13.083  12.072
42696W        W14422  40.468  39.259  13.741
42697W        W14423  38.633   3.516   3.995
42698W        W14424  30.952  40.877   1.741
42699W        W14425  13.588  24.653  12.853
42700W        W14426  37.845   8.822  13.097
42701W        W14427   2.217  10.357   0.874
42702W        W14428  44.888  33.282  10.688
42703W        W14429   2.641  27.129  12.502
42704W        W14430  34.627   8.067  12.379
42705W        W14431  40.041  34.609   1.410
42706W        W14432  10.838   7.236   4.029
42707W        W14433  38.508  20.165   0.198
42708W        W14434  34.864   2.437   0.679
42709W        W14435  14.052  42.869  10.632
42710W        W14436  24.984  21.670   3.713
42711W        W14437  13.662  39.329   4.962
42712W        W14438  29.633  41.893   4.835
42713W        W14439  23.790  32.745  11.439
42714W        W14440  43.679  43.344   4.650
42715W        W14441  38.794   6.195  14.158
42716W        W14442  20.108   2.279  13.860
42717W        W14443  29.628  25.639   5.046
42718W        W14444   7.603  31.080  14.104
42719W        W14445  28.394  20.690  11.032
42720W        W14446   0.498  12.039   1.450
42721W        W14447   3.904  22.990  12.627
42722W        W14448  16.761   1.932  14.486
42723W        W14449  22.102  40.916  12.825
42724W        W14450  42.727   5.179  12.072
42725W        W14451   1.445  16.603  11.009
42726W        W14452  24.042   1.107  10.583
42727W        W14453  22.490  33.538   2.686
42728W        W14454  34.985  35.056  11.723
42729W        W14455   9.265  41.836  10.769
42730W        W14456   1.413  23.764   0.354
42731W        W14457  34.034  15.306  14.444
42732W        W14458  25.926  36.444  11.169
42733W        W14459  37.583  13.502   2.600
42734W        W14460  20.990  33.480   0.944
42735W        W14461  11.702  41.754  11.155
42736W        W14462  43.288   7.307  12.931
42737W        W14463  42.942   9.284   1.338
42738W        W14464  13.146  25.300   0.982
42739W        W14465  16.817  15.939  11.392
42740W        W14466  13.287  11.679   3.851
42741W        W14467  34.042  26.861   0.896
42742W        W14468  10.263   9.221  12.465
42743W        W14469  30.757  35.974  11.578
42744W        W14470  27.380  32.671   0.878
42745W        W14471  20.552  28.536   4.898
42746W        W14472  14.662  41.882   0.233
42747W        W14473   0.280  16.064   1.854
42748W        W14474  10.886  27.974  11.452
42749W        W14475  34.451  18.040   1.215
42750W        W14476  14.140  16.099  12.987
42751W        W14477  11.015  28.784   0.050
42752W        W14478   1.935   5.341  13.957
42753W        W14479  17.388  36.441  10.392
42754W        W14480  37.397   8.736   1.692
42755W        W14481  16.325  15.106   0.932
42756W        W14482   2.329  17.700  14.495
42757W        W14483  37.533  36.485  14.853
42758W        W14484  27.105  21.182   1.419
42759W        W14485  22.982  34.606   0.687
42760W        W14486  15.532  40.102   5.408
42761W        W14487  41.831  25.527   1.029
42762W        W14488  18.550  18.194   3.728
42763W        W14489  24.102  22.628   1.259
42764W        W14490  14.301  26.028  13.025
42765W        W14491  34.594  40.693  10.747
42766W        W14492  11.867   5.227  12.010
42767W        W14493  25.128  17.719  14.567
42768W        W14494  41.343   9.200  12.119
42769W        W14495  17.850   3.342  11.075
42770W        W14496  24.420  22.482   4.477
42771W        W14497   3.428  22.261  13.382
42772W        W14498   7.631  38.414  12.329
42773W        W14499  25.022  29.946   1.196
42774W        W14500  13.699  15.118   1.391
42775W        W14501  12.621  24.640   1.996
42776W        W14502  40.544  14.691   3.672
42777W        W14503  19.628  23.738   1.741
42778W        W14504  18.586  33.362   2.121
42779W        W14505  10.827  33.636  13.761
42780W        W14506  29.197   5.898   3.673
42781W        W14507  43.992  21.199  14.953
42782W        W14508  23.182   3.866   1.378
42783W        W14509  15.890  42.453   4.580
42784W        W14510  14.726  26.002   0.863
42785W        W14511  38.798  42.859   4.606
42786W        W14512   2.867  30.427  13.489
42787W        W14513  14.356  10.383  13.065
42788W        W14514  40.325  24.116   0.075
42789W        W14515   5.992  36.842  10.663
42790W        W14516   0.984  44.544   1.050
42791W        W14517  11.106  33.590   0.990
42792W        W14518  17.835  16.258  12.858
42793W        W14519  26.739   4.808   3.376
42794W        W14520  23.297  24.531   1.276
42795W        W14521  38.426   7.307  13.157
42796W        W14522  44.700   7.044  12.088
42797W        W14523  30.925  39.564   0.491
42798W        W14524  35.284   7.979  13.068
42799W        W14525  31.160   1.787   0.460
42800W        W14526  13.628  25.760  12.240
42801W        W14527   9.187  28.794   4.570
42802W        W14528  17.076  41.896   1.379
42803W        W14529  21.230  14.372  10.203
42804W        W14530  13.236  33.476  10.530
42805W        W14531  42.770   2.954  11.442
42806W        W14532  29.466  13.089   2.169
42807W        W14533  28.675   5.169   2.646
42808W        W14534  37.183  13.803  11.082
42809W        W14535  43.227   0.167   0.927
42810W        W14536  27.276  33.027  10.561
42811W        W14537   4.368   0.396   2.896
42812W        W14538  28.604  12.155   2.374
42813W        W14539  30.038   0.554   2.747
42814W        W14540  13.335  26.033   0.017
42815W        W14541  19.630  27.127  13.416
42816W        W14542   0.816  18.184   3.885
42817W        W14543  43.482  29.983   1.410
42818W        W14544  26.898  40.970   4.125
42819W        W14545  34.547  38.535  12.442
42820W        W14546  11.305   8.240   1.259
42821W        W14547   9.178  25.418  11.829
42822W        W14548  28.163  18.101   4.765
42823W        W14549  17.062  37.370  13.332
42824W        W14550  34.824  25.493   0.355
42825W        W14551  40.343  24.116   2.757
42826W        W14552  42.957  10.391   0.022
42827W        W14553   6.885  30.552  13.962
42828W        W14554  15.540   8.132   4.667
42829W        W14555  29.750  19.503  11.536
42830W        W14556   7.221  29.354  12.322
42831W        W14557  40.283  11.793   2.357
42832W        W14558  28.010   4.293   0.410
42833W        W14559  25.993   3.964   3.829
42834W        W14560  22.452  33.011  11.140
42835W        W14561  27.623  20.321  13.389
42836W        W14562   8.297  27.589   4.733
42837W        W14563  14.077  35.903  11.458
42838W        W14564  36.522  27.447   4.520
42839W        W14565   2.518  43.054  11.372
42840W        W14566   5.905  38.876   3.423
42841W        W14567  41.076   3.620  13.845
42842W        W14568  11.824  21.458   0.795
42843W        W14569  23.129   4.382   1.387
42844W        W14570  27.062   9.582  14.903
42845W        W14571  29.558  33.569  10.649
42846W        W14572  42.323  10.413   3.801
42847W        W14573  36.509  35.605  14.745
42848W        W14574  29.492   6.152  12.996
42849W        W14575  36.059  22.818  12.041
42850W        W14576  31.440   1.203  12.422
42851W        W14577   1.866  15.635   1.887
42852W        W14578   4.651  29.191  10.752
42853W        W14579  10.402  14.449  12.465
42854W        W14580   0.337  15.122  10.777
42855W        W14581  22.743  11.089  11.069
42856W        W14582  24.804   0.505  13.483
42857W        W14583  29.621  28.689   3.665
42858W        W14584  20.352  21.569  13.809
42859W        W14585  38.999   7.374  14.891
42860W        W14586  28.146  31.616  13.857
42861W        W14587   7.663  28.976   1.352
42862W        W14588   3.683  36.752   2.378
42863W        W14589  37.103   8.560   2.252
42864W        W14590   5.420  21.618  14.765
42865W        W14591  29.220  23.507   4.203
42866W        W14592  33.034   7.790   3.201
42867W        W14593  13.692  36.578   0.824
42868W        W14594  21.751  26.594   0.538
42869W        W14595   6.216  44.893  14.548
42870W        W14596  34.506   0.780   0.810
42871W        W14597  42.365   7.134  13.382
42872W        W14598  40.334  24.021  14.020
42873W        W14599  44.186  16.637  13.865
42874W        W14600  26.418  15.752  10.000
42875W        W14601   6.703  21.170   3.782
42876W        W14602  41.299  35.136   4.555
42877W        W14603   1.303   1.849  13.604
42878W        W14604  18.257   8.212   3.156
42879W        W14605  15.720  16.730  11.661
42880W        W14606  25.223  33.886   4.862
42881W        W14607  41.339  28.852  14.335
42882W        W14608  39.030  41.781   2.217
42883W        W14609  27.485  37.457   4.767
42884W        W14610   1.739  13.166  12.510
42885W        W14611   2.874  27.235   2.898
42886W        W14612  24.624  37.321  12.150
42887W        W14613  14.159  30.865   2.743
42888W        W14614  10.459  21.608  10.491
42889W        W14615  29.958  17.164   1.477
42890W        W14616   7.238   9.346   0.334
42891W        W14617  21.140  26.438   4.164
42892W        W14618  28.046  37.388  11.508
42893W        W14619   3.318  14.568  10.079
42894W        W14620  14.335   6.622  11.159
42895W        W14621  16.711  12.161  12.527
42896W        W14622   5.040  40.445   2.138
42897W        W14623  26.589  43.276   4.563
42898W        W14624   5.826  31.621  14.107
42899W        W14625  17.246  33.557  10.618
42900W        W14626  17.330  12.936  13.965
42901W        W14627   0.043  19.323  11.540
42902W        W14628  40.881  21.833  11.705
42903W        W14629  21.071   7.376  13.473
42904W        W14630  12.200  19.189   1.873
42905W        W14631  36.906  17.851   3.597
42906W        W14632  26.439   3.066   3.167
42907W        W14633  43.064  25.031   2.276
42908W        W14634  16.176  39.435   3.838
42909W        W14635  12.322  22.138   2.012
42910W        W14636  21.767  22.235  13.483
42911W        W14637  10.882  28.236   1.793
42912W        W14638  11.287  21.259   2.666
42913W        W14639  12.310  25.175   0.513
42914W        W14640  25.600   2.764   0.518
42915W        W14641   7.671  15.755   2.365
42916W        W14642  29.556  42.336   4.599
42917W        W14643  29.943  38.761  12.161
42918W        W14644  42.472  36.882  13.989
42919W        W14645   9.966  28.679  12.091
42920W        W14646  37.487  33.962  10.467
42921W        W14647  22.535   6.689  14.770
42922W        W14648  38.910  31.642   0.511
42923W        W14649  13.330   0.435   2.064
42924W        W14650   4.219  39.531   0.413
42925W        W14651  38.519  39.240  12.988
42926W        W14652   0.023  36.279   3.689
42927W        W14653  26.195  15.053  11.609
42928W        W14654  41.018   2.406   1.207
42929W        W14655   2.958  26.961   3.396
42930W        W14656  42.479  36.012   2.434
42931W        W14657   9.975  32.006   4.719
42932W        W14658  27.003  20.877   3.175
42933W        W14659   3.980  12.402  11.468
42934W        W14660  37.051  30.641   0.917
42935W        W14661  31.662  13.389  11.571
42936W        W14662  17.256   4.392  10.600
42937W        W14663  19.940   7.080  10.297
42938W        W14664   2.827   0.572   1.474
42939W        W14665  11.401   5.943  13.582
42940W        W14666  28.917  34.983  12.382
42941W        W14667  35.522   3.812   0.908
42942W        W14668  39.353  16.806   1.400
42943W        W14669  21.286  24.050   1.291
42944W        W14670  28.099  41.756   0.383
42945W        W14671  34.570  13.896   3.268
42946W        W14672  42.614   4.816  10.710
42947W        W14673  43.537  24.566  14.842
42948W        W14674  16.186  33.562  10.323
42949W        W14675  14.206  36.562  10.627
42950W        W14676   4.799  27.953   3.331
42951W        W14677  28.730  20.769   1.875
42952W        W14678  26.841  17.782   2.728
42953W        W14679  18.247  34.941  12.538
42954W        W14680   8.297  14.901  10.900
42955W        W14681  35.524   0.646  14.904
42956W        W14682   7.255   9.309  11.201
42957W        W14683  14.720  34.877  13.358
42958W        W14684  20.224  24.528   3.185
42959W        W14685   2.638  38.426  12.495
42960W        W14686  17.475   8.453   5.119
42961W        W14687  36.858  22.130   1.924
42962W        W14688  18.469  18.907   2.221
42963W        W14689  39.474   7.309   2.647
42964W        W14690  40.924  28.852  14.014
42965W        W14691  24.077  32.992   0.833
42966W        W14692  18.116   7.281   4.130
42967W        W14693  39.288   1.230  11.552
42968W        W14694  36.044  13.835  13.544
42969W        W14695  26.908   6.723   1.910
42970W        W14696  29.162   1.996  10.996
42971W        W14697  41.829  22.824  12.582
42972W        W14698  29.433  23.793   3.819
42973W        W14699  35.201   6.840   4.659
42974W        W14700  17.136  18.327  12.417
42975W        W14701   5.697  40.628  10.441
42976W        W14702  42.056   9.101   1.463
42977W        W14703  30.270  43.332   1.905
42978W        W14704  27.662  37.516   3.106
42979W        W14705  38.219  36.121   1.149
42980W        W14706  23.006  34.492  12.130
42981W        W14707   8.002  40.358   2.014
42982W        W14708  38.407  19.015  11.155
42983W        W14709   0.016  20.740  11.032
42984W        W14710   6.729  21.177  12.024
42985W        W14711  35.786  35.965  13.518
42986W        W14712  11.675   8.383  13.904
42987W        W14713  36.477  13.768  13.241
42988W        W14714  24.076  33.809  11.145
42989W        W14715  24.182  14.012   4.106
42990W        W14716  26.033  21.463   4.586
42991W        W14717  23.943  41.526   0.962
42992W        W14718  20.471  20.078  13.068
42993W        W14719  19.139  28.181  12.485
42994W        W14720  31.925   9.812  11.535
42995W        W14721   5.294  17.791   2.887
42996W        W14722  10.931  17.106  10.324
42997W        W14723   2.248  12.370   0.889
42998W        W14724   2.014  12.576  11.574
42999W        W14725  23.075  21.586   4.534
43000W        W14726  26.127  18.942  11.711
43001W        W14727  29.164  18.227   0.835
43002W        W14728   1.908   6.711   4.650
43003W        W14729  21.204  42.315  13.096
43004W        W14730  27.214   0.924   4.809
43005W        W14731  14.768  11.579  11.441
43006W        W14732   6.718   9.315  11.106
43007W        W14733  20.687  35.067   4.433
43008W        W14734  11.358  24.205  14.471
43009W        W14735  11.555  26.565   0.478
43010W        W14736  28.008  25.507   0.920
43011W        W14737  23.131   9.134   2.376
43012W        W14738  26.625  30.522  10.334
43013W        W14739  19.205  29.716  10.907
43014W        W14740  16.072  17.100   3.626
43015W        W14741  39.038  42.366  10.736
43016W        W14742  19.213   3.480  11.945
43017W        W14743  35.380  35.946  12.115
43018W        W14744  13.242  14.538   3.278
43019W        W14745   6.741   6.396  12.925
43020W        W14746  35.432   9.780  11.072
43021W        W14747  34.565  17.777   4.689
43022W        W14748  25.699  16.260   1.777
43023W        W14749   7.372   0.956  11.467
43024W        W14750  21.212  11.093  13.497
43025W        W14751  35.579  40.591  14.805
43026W        W14752  40.284  42.592  11.174
43027W        W14753   3.438  20.916  12.747
43028W        W14754   6.944   9.560  11.670
43029W        W14755  33.413  21.314   4.271
43030W        W14756  26.385  12.590   4.514
43031W        W14757  12.599  33.631  12.797
43032W        W14758   2.236  26.168  12.518
43033W        W14759  31.041  35.801   3.663
43034W        W14760  19.669  44.981   4.690
43035W        W14761  10.651   7.361  10.758
43036W        W14762  12.090  24.619  13.674
43037W        W14763  16.212  42.534  11.131
43038W        W14764   8.795  24.557  10.115
43039W        W14765  43.075  27.461   1.302
43040W        W14766  30.943  34.346  14.859
43041W        W14767  29.471  41.429   4.489
43042W        W14768  42.632  27.425   2.224
43043W        W14769  23.580  39.742  10.739
43044W        W14770  15.774  18.289   4.909
43045W        W14771  33.528  29.200   0.473
43046W        W14772  41.851   9.270  12.100
43047W        W14773   7.679  19.579  13.884
43048W        W14774  28.723   2.832   1.715
43049W        W14775   9.392   9.353   3.736
43050W        W14776  33.347  13.897   3.887
43051W        W14777  19.164   1.478   3.300
43052W        W14778   3.855  38.401  13.401
43053W        W14779   7.703  27.035  12.035
43054W        W14780  43.824  12.798  10.703
43055W        W14781   7.903  21.136  11.237
43056W        W14782  33.895  22.460  11.490
43057W        W14783  42.848  26.080  10.658
43058W        W14784   0.364  32.815   0.972
43059W        W14785  33.876  39.074   0.355
43060W        W14786   4.333  18.817  11.557
43061W        W14787  41.613  33.818  13.982
43062W        W14788  15.011  36.896  11.540
43063W        W14789   3.662  34.079   0.860
43064W        W14790  13.629  22.272   4.077
43065W        W14791   0.882  44.595  11.171
43066W        W14792   9.216  21.752  14.889
43067W        W14793   6.149  30.995   1.936
43068W        W14794   8.361  43.752  11.116
43069W        W14795  21.270  13.411   5.010
43070W        W14796   1.892  32.867  11.411
43071W        W14797  28.127   0.845  14.068
43072W        W14798  40.396  21.933   1.376
43073W        W14799  34.052  10.543   0.047
43074W        W14800  43.076  24.143   1.843
43075W        W14801  13.250  26.436   4.127
43076W        W14802  27.630  17.772   1.383
43077W        W14803  37.299   1.789   3.213
43078W        W14804  13.365  30.362   4.622
43079W        W14805  36.092  31.798   1.509
43080W        W14806  24.108  24.730  14.490
43081W        W14807   6.387  23.098  11.127
43082W        W14808   3.278  17.530   0.954
43083W        W14809  31.597  15.315  13.246
43084W        W14810  40.630  37.463  12.705
43085W        W14811  26.385   7.349   2.650
43086W        W14812  12.266  31.144  11.124
43087W        W14813  31.845   4.829   5.021
43088W        W14814  44.874  10.089  10.314
43089W        W14815  21.554  13.827   0.456
43090W        W14816  10.788   0.551   2.273
43091W        W14817  17.537   8.164   1.821
43092W        W14818   1.284  24.725  13.642
43093W        W14819  19.490  24.243   3.362
43094W        W14820  15.209  21.656   0.257
43095W        W14821  37.805  11.633  11.106
43096W        W14822  19.143  25.491  11.854
43097W        W14823  22.787  16.340  12.634
43098W        W14824  21.676   4.428  14.587
43099W        W14825   7.386  20.196  10.663
43100W        W14826   4.533  35.933  13.390
43101W        W14827  20.210  18.660   3.323
43102W        W14828  28.467  37.334   4.622
43103W        W14829  30.952  22.517   0.849
43104W        W14830  20.866  15.226  11.643
43105W        W14831  15.320  37.356   1.260
43106W        W14832  26.980  24.310   3.765
43107W        W14833   4.831  43.078   3.201
43108W        W14834   9.199  10.448  14.488
43109W        W14835  30.336  10.754  12.450
43110W        W14836  34.424  33.662   2.904
43111W        W14837  33.371  17.483   0.196
43112W        W14838  39.221   5.245  10.585
43113W        W14839  13.716  14.207   3.982
43114W        W14840  20.255   1.103  11.363
43115W        W14841  11.338  32.395   3.543
43116W        W14842  10.370  39.125  14.730
43117W        W14843   2.306  23.827  13.850
43118W        W14844  42.050  37.420   4.512
43119W        W14845   0.936   7.115   1.153
43120W        W14846  41.360   6.842   2.391
43121W        W14847   1.688  33.434  13.999
43122W        W14848   1.617  33.042   0.935
43123W        W14849  12.729  28.897   1.930
43124W        W14850  24.003  33.496   0.528
43125W        W14851  18.627  29.588  13.673
43126W        W14852  38.393  20.305  10.592
43127W        W14853  30.144  24.258  10.118
43128W        W14854  33.991   2.034   2.375
43129W        W14855  20.125  39.324   1.549
43130W        W14856  26.556  22.815   1.343
43131W        W14857  11.091   6.007   4.582
43132W        W14858  16.052  29.083   3.211
43133W        W14859  38.018  12.997  11.034
43134W        W14860  37.599  36.112   3.669
43135W        W14861  26.281   1.763  14.408
43136W        W14862  42.962  18.467   0.951
43137W        W14863  25.704   5.235   4.128
43138W        W14864  42.847  41.307  12.302
43139W        W14865  34.811  12.696  11.143
43140W        W14866  38.370   8.637  11.440
43141W        W14867  20.461  22.272   2.755
43142W        W14868  13.868  16.631  10.706
43143W        W14869  13.409   9.540   1.551
43144W        W14870  22.088  16.899   3.843
43145W        W14871   8.810  36.321  12.351
43146W        W14872  40.317  38.557  10.530
43147W        W14873  27.749  25.661  10.597
43148W        W14874  20.437  32.662   3.886
43149W        W14875  38.436  29.351  12.618
43150W        W14876   6.274  41.460  10.424
43151W        W14877  12.415  25.881  13.982
43152W        W14878  25.722  43.866  12.885
43153W        W14879   0.955   7.625   3.835
43154W        W14880  38.364  42.680   3.468
43155W        W14881   4.544  17.902   3.239
43156W        W14882  44.401  16.714  12.080
43157W        W14883  16.572   4.397  14.309
43158W        W14884   1.093  39.043  12.987
43159W        W14885  41.840  14.507  12.729
43160W        W14886  35.850   4.141  14.787
43161W        W14887  29.635   2.823   1.146
43162W        W14888  15.854  10.226   0.703
43163W        W14889  41.480   1.534   4.789
43164W        W14890  21.054  33.962   4.403
43165W        W14891   2.579  18.289   2.792
43166W        W14892   3.847  14.841  13.329
43167W        W14893  40.997  23.956   0.850
43168W        W14894   2.814  35.374   2.411
43169W        W14895  19.535  38.499  10.627
43170W        W14896  19.723  24.530  11.290
43171W        W14897  37.395  36.032  13.751
43172W        W14898  38.197  31.413   0.003
43173W        W14899  38.039  10.689   2.709
43174W        W14900  29.397  42.818   3.858
43175W        W14901  32.942  22.725  14.846
43176W        W14902   3.378  21.919  13.003
43177W        W14903  43.682  32.711  10.773
43178W        W14904  33.082  40.460  14.431
43179W        W14905  15.922  16.626   3.793
43180W        W14906  17.277  32.280  11.826
43181W        W14907  35.409   8.574  12.612
43182W        W14908  19.781  33.103  13.013
43183W        W14909  12.529  37.100   2.614
43184W        W14910   3.167  43.404   0.882
43185W        W14911  41.983   0.453   0.758
43186W        W14912  26.193  16.924   4.453
43187W        W14913   3.909   6.683  11.563
43188W        W14914  25.905  14.730   4.082
43189W        W14915  29.346  21.364  11.170
43190W        W14916  39.650  25.007  11.915
43191W        W14917  30.713   5.783   2.491
43192W        W14918  27.082   1.232   1.827
43193W        W14919   8.074  34.048   0.385
43194W        W14920  33.842  42.453  11.593
43195W        W14921  29.647  22.585   1.645
43196W        W14922  16.538  44.014  12.491
43197W        W14923   0.233  34.325  12.482
43198W        W14924   1.758  43.995  11.136
43199W        W14925  43.863   1.447   0.296
43200W        W14926  35.571  10.360  11.164
43201W        W14927   1.756  41.301  13.275
43202W        W14928  12.325  12.048  10.627
43203W        W14929   0.749   4.485   0.189
43204W        W14930  41.379  19.724   4.479
43205W        W14931  31.622  23.114  12.928
43206W        W14932   9.235   6.291   2.269
43207W        W14933  34.535  40.320  12.896
43208W        W14934  18.000   1.969  11.108
43209W        W14935  36.081  22.695   0.429
43210W        W14936   2.956  40.262  13.489
43211W        W14937  23.610  27.285   1.161
43212W        W14938  22.502  13.101  14.319
43213W        W14939  34.395  14.336  10.641
43214W        W14940  41.456   7.203  12.985
43215W        W14941   4.835   5.969   0.835
43216W        W14942  10.571   4.104   4.214
43217W        W14943  28.060  31.424  14.810
43218W        W14944   1.485  36.082   4.267
43219W        W14945  23.113  44.693  10.608
43220W        W14946  38.328   4.177   0.138
43221W        W14947  39.325  25.618   3.369
43222W        W14948   7.950  29.730   0.846
43223W        W14949   1.796  13.584   0.683
43224W        W14950  34.370  42.301   0.882
43225W        W14951   0.859  44.488  12.112
43226W        W14952  20.778  18.046  12.370
43227W        W14953  17.544  22.486  13.927
43228W        W14954   2.053  17.564  14.001
43229W        W14955  33.650  41.433   1.817
43230W        W14956  42.855   4.492   3.726
43231W        W14957  43.797  26.017   0.031
43232W        W14958  35.036  24.366   2.233
43233W        W14959  39.031  44.998  10.566
43234W        W14960  22.056  27.045   1.094
43235W        W14961  13.799  18.756  14.850
43236W        W14962  23.189   6.542  11.421
43237W        W14963  36.044  30.185   2.268
43238W        W14964  27.857  26.699  11.858
43239W        W14965  12.644   7.813  12.889
43240W        W14966  15.515  30.232  13.601
43241W        W14967  44.688  42.897  12.406
43242W        W14968  23.416   7.461  12.377
43243W        W14969  12.437   1.368   4.629
43244W        W14970  41.028  31.408   2.706
43245W        W14971  35.990  21.523  11.119
43246W        W14972  42.051   1.762  12.024
43247W        W14973  29.833  34.056   2.253
43248W        W14974   0.229  19.796   2.341
43249W        W14975   3.791  27.012   3.915
43250W        W14976  38.894   5.322  10.981
43251W        W14977  21.712  27.726   0.221
43252W        W14978  20.560  25.921  12.922
43253W        W14979  31.599  18.827  10.999
43254W        W14980  19.030   4.097  12.859
43255W        W14981  24.803   3.377   0.697
43256W        W14982  34.204  12.319  11.994
43257W        W14983  30.064  15.143  10.687
43258W        W14984  31.499   8.478   0.446
43259W        W14985  27.103  16.806   2.854
43260W        W14986  40.256  40.227  12.069
43261W        W14987  31.024  11.456  12.888
43262W        W14988  30.689  34.826  10.880
43263W        W14989  44.055  16.789   1.025
43264W        W14990  33.263  33.473  11.242
43265W        W14991   6.873  43.886   0.793
43266W        W14992   1.502   6.074   2.340
43267W        W14993  32.461  37.959  12.802
43268W        W14994  17.346   5.123  14.825
43269W        W14995   1.688  29.536  10.634
43270W        W14996  24.957   3.965   2.897
43271W        W14997   4.412   4.210  11.487
43272W        W14998  12.244   1.336   1.324
43273W        W14999   4.018  15.127   4.653
43274W        W15000   6.803  38.437   2.731
43275W        W15001  30.511  10.489   3.145
43276W        W15002  31.754  25.560  12.606
43277W        W15003  21.964   6.891  13.483
43278W        W15004  33.933   8.795   3.399
43279W        W15005  29.523  40.055   1.595
43280W        W15006  10.110   0.319  14.370
43281W        W15007   8.483  10.165   1.263
43282W        W15008  34.528  42.484  14.496
43283W        W15009  23.307  38.830  13.961
43284W        W15010  36.148  20.933   2.231
43285W        W15011  16.772  36.794  11.015
43286W        W15012  10.213  37.048  14.643
43287W        W15013   4.223  34.132   2.678
43288W        W15014  24.754  34.477   1.731
43289W        W15015   5.512  36.630   2.580
43290W        W15016  10.237  14.094   1.254
43291W        W15017  31.984  27.074   3.715
43292W        W15018   0.579  33.178   4.101
43293W        W15019  19.610  10.681  13.460
43294W        W15020  12.625  37.852   2.311
43295W        W15021  11.370  39.388   0.631
43296W        W15022  39.412  18.562   1.853
43297W        W15023  12.841  41.734   2.321
43298W        W15024   0.441  14.781  11.958
43299W        W15025  21.668  35.355  13.240
43300W        W15026  34.466  30.190   0.287
43301W        W15027  35.954  12.338   4.614
43302W        W15028  40.543  15.745   3.766
43303W        W15029  29.824  42.633   1.416
43304W        W15030  24.131  41.840   3.363
43305W        W15031  12.787  31.070   2.895
43306W        W15032   1.376  33.054  13.865
43307W        W15033   0.968  30.610  11.930
43308W        W15034  26.765   6.142   0.778
43309W        W15035  12.726  24.696   2.993
43310W        W15036  43.464  13.561  14.969
43311W        W15037  28.884  14.031  14.703
43312W        W15038   1.709  12.608   4.281
43313W        W15039  32.609  16.552  13.826
43314W        W15040  24.259  12.691  10.124
43315W        W15041   4.833  28.921   1.534
43316W        W15042  22.307  23.756  11.686
43317W        W15043  43.800  35.597  12.799
43318W        W15044  17.747   7.832  11.078
43319W        W15045  31.824  21.258   0.317
43320W        W15046  44.312  41.443   1.420
43321W        W15047  12.680  16.535  13.469
43322W        W15048  23.981  40.985   3.644
43323W        W15049  13.801  15.170   0.874
43324W        W15050  40.800  21.161   1.969
43325W        W15051  22.436  34.583  14.845
43326W        W15052  12.123  23.510   1.892
43327W        W15053  12.603  40.629   3.713
43328W        W15054  19.782  28.646   0.313
43329W        W15055  21.477  38.306   1.920
43330W        W15056  33.066  11.085   4.580
43331W        W15057  33.041  30.999  12.156
43332W        W15058  24.679  31.047   2.383
43333W        W15059  37.071   3.138  10.612
43334W        W15060   6.789  39.581  13.897
43335W        W15061  21.505  43.532  14.359
43336W        W15062  11.577  29.529  12.404
43337W        W15063  40.903  41.123   0.795
43338W        W15064  12.213   8.102  14.882
43339W        W15065  18.485  22.147  14.963
43340W        W15066   8.594  35.128  11.051
43341W        W15067  43.179  19.710   4.565
43342W        W15068  15.790  23.903  11.985
43343W        W15069  34.312  15.392   0.908
43344W        W15070   2.877   1.306   2.728
43345W        W15071  23.167  30.864   2.212
43346W        W15072  42.781  18.577  10.664
43347W        W15073   3.577  30.618   5.055
43348W        W15074  12.276   7.514   3.490
43349W        W15075  39.827   4.250   0.815
43350W        W15076  14.369  42.299  13.838
43351W        W15077  23.137  43.267   2.386
43352W        W15078   0.278  26.528   4.044
43353W        W15079  29.104  28.679   0.661
43354W        W15080   8.243  21.460  13.837
43355W        W15081  38.715  42.010   1.021
43356W        W15082  19.075  37.008  11.054
43357W        W15083  21.729  14.326  11.541
43358W        W15084  44.735  17.126  12.019
43359W        W15085   8.580   6.885   3.169
43360W        W15086  10.728  41.789   1.030
43361W        W15087  26.870  37.966  12.505
43362W        W15088  16.665  42.567  12.456
43363W        W15089  27.919   2.915   0.417
43364W        W15090  25.625  27.524  11.100
43365W        W15091   0.783   9.839  14.527
43366W        W15092   7.370  30.623   4.537
43367W        W15093  34.641  25.707  13.499
43368W        W15094  24.322  18.228  10.999
43369W        W15095  21.259  29.930  10.764
43370W        W15096  43.489  25.483  10.348
43371W        W15097   7.939  10.121  14.340
43372W        W15098  29.544  37.049   4.094
43373W        W15099  40.574  41.888  12.886
43374W        W15100  44.297  30.058  11.619
43375W        W15101  20.736   8.767   4.342
43376W        W15102  40.304  13.164  10.798
43377W        W15103  42.770  21.139  12.439
43378W        W15104  35.241  24.070  12.057
43379W        W15105   1.458  11.109  13.087
43380W        W15106  24.355  14.419  11.124
43381W        W15107   0.904  42.972   1.207
43382W        W15108   2.742  38.838   1.857
43383W        W15109  23.515  43.293   1.192
43384W        W15110  18.302  17.597  14.309
43385W        W15111  24.092  10.679   1.848
43386W        W15112   6.215  11.133  11.522
43387W        W15113  12.199  30.957  12.419
43388W        W15114  17.278   2.333  14.475
43389W        W15115  15.475  24.453  11.392
43390W        W15116  24.284  20.598  11.519
43391W        W15117   7.869  19.603   4.533
43392W        W15118   3.670  38.871  14.733
43393W        W15119  16.183   8.265  10.607
43394W        W15120  44.812  42.093  11.531
43395W        W15121   5.757  21.020   4.603
43396W        W15122  20.332  27.183  14.002
43397W        W15123  13.876   0.133   2.751
43398W        W15124   8.970  18.728  14.286
43399W        W15125  41.101  13.635   2.915
43400W        W15126  35.518  10.383   0.804
43401W        W15127  44.746   7.120  10.896
43402W        W15128  23.723   3.708   2.033
43403W        W15129  37.418  43.829  10.762
43404W        W15130  38.601  22.072  12.378
43405W        W15131  20.200  18.497   2.825
43406W        W15132  24.457  25.107  14.436
43407W        W15133   1.485  25.325   3.188
43408W        W15134  19.203  28.653   4.580
43409W        W15135  26.780   8.678   4.616
43410W        W15136   5.336  43.809  13.831
43411W        W15137  34.521  13.043  13.520
43412W        W15138   4.968  16.561   1.822
43413W        W15139  12.618   1.402   0.427
43414W        W15140  27.071   5.943   3.623
43415W        W15141  43.782   6.189  12.460
43416W        W15142   9.814  28.010   4.615
43417W        W15143   4.305  30.214   2.868
43418W        W15144  12.570  37.575   1.458
43419W        W15145  30.757  29.132  11.876
43420W        W15146  39.145  31.430   0.927
43421W        W15147  36.543  29.579  14.821
43422W        W15148  33.491  20.055   0.845
43423W        W15149  18.522  36.733   0.344
43424W        W15150  26.174  31.262   2.696
43425W        W15151  13.843  33.997  11.180
43426W        W15152   8.165   2.493   0.510
43427W        W15153  36.064  27.990  10.619
43428W        W15154   2.945  44.511   3.676
43429W        W15155  36.373  27.427  11.682
43430W        W15156  25.683  40.834  13.381
43431W        W15157  15.062  21.063   2.725
43432W        W15158  31.367   5.125  11.909
43433W        W15159  33.562   3.894   1.012
43434W        W15160  38.386  20.738   2.731
43435W        W15161  17.246  28.064  13.306
43436W        W15162  14.715  16.124   0.768
43437W        W15163  35.911  41.839   4.269
43438W        W15164  27.730   4.498  12.918
43439W        W15165  41.576  29.823  12.934
43440W        W15166  22.874   9.213   3.680
43441W        W15167  40.014  36.910  12.963
43442W        W15168  12.163  14.247   4.768
43443W        W15169  44.887   1.481  11.607
43444W        W15170  38.396  41.962   1.435
43445W        W15171   9.456  27.991   1.500
43446W        W15172   9.364  18.863  10.610
43447W        W15173   2.083  26.717   2.374
43448W        W15174  11.236  41.585   4.543
43449W        W15175  40.953  25.057   4.154
43450W        W15176  23.163  16.151  14.023
43451W        W15177  14.288  10.805   3.662
43452W        W15178  29.597  12.205  13.382
43453W        W15179  18.552   1.329  11.866
43454W        W15180  21.850  21.328   1.898
43455W        W15181   5.130  27.093  12.653
43456W        W15182   2.349  22.205   2.150
43457W        W15183  29.542  44.223   5.051
43458W        W15184   8.674  34.079   3.239
43459W        W15185  13.384   4.974   2.684
43460W        W15186  35.175   1.318  11.298
43461W        W15187  44.234  11.185   0.932
43462W        W15188  19.311  20.716   1.880
43463W        W15189  17.595  39.421   5.497
43464W        W15190  32.403  29.377  11.049
43465W        W15191  26.851   4.934  13.922
43466W        W15192  39.113  38.751  13.877
43467W        W15193  37.614  21.699  14.263
43468W        W15194  33.601   5.119   2.871
43469W        W15195  33.067  36.493  10.686
43470W        W15196   0.540  29.353   1.908
43471W        W15197  19.344  18.025   4.144
43472W        W15198  38.524  15.251  14.045
43473W        W15199  29.944  18.840   2.486
43474W        W15200  17.359  38.654   9.746
43475W        W15201   7.320  32.762   2.305
43476W        W15202  28.620  28.584   3.725
43477W        W15203  33.798  11.209  11.705
43478W        W15204  43.790   3.784   4.579
43479W        W15205  17.741  29.677  14.790
43480W        W15206  44.241   2.145   0.439
43481W        W15207  18.717  44.303   1.422
43482W        W15208  18.702  33.479   4.123
43483W        W15209  12.297  24.735  11.333
43484W        W15210  20.484  36.024   3.737
43485W        W15211  39.066   4.181   0.544
43486W        W15212  31.446  20.960  14.482
43487W        W15213  39.048   5.346  13.390
43488W        W15214  44.242   5.731  11.940
43489W        W15215   9.650  14.702  12.477
43490W        W15216  41.558  21.390   3.695
43491W        W15217  17.858  40.627  13.430
43492W        W15218  27.216   0.439  13.016
43493W        W15219  24.475   5.981  14.971
43494W        W15220  37.765  36.951  10.480
43495W        W15221  26.154  18.677  12.839
43496W        W15222   1.785   1.838   4.678
43497W        W15223  27.041  25.248   2.936
43498W        W15224  43.787  34.407   0.908
43499W        W15225  26.602   6.926  14.905
43500W        W15226  14.525  11.174  11.621
43501W        W15227  28.011  36.254  12.455
43502W        W15228  29.208  40.059  12.395
43503W        W15229  36.652  27.172   2.262
43504W        W15230  34.247  42.749   4.945
43505W        W15231  34.092  14.038  11.600
43506W        W15232  17.887  13.545  11.670
43507W        W15233  21.135  27.280   4.612
43508W        W15234   6.207  22.256  13.438
43509W        W15235  15.781   4.786  14.678
43510W        W15236  42.105  42.234  11.131
43511W        W15237   0.901   4.148   2.958
43512W        W15238  20.615  29.424  14.576
43513W        W15239  44.771   8.971   1.222
43514W        W15240  35.933  34.991  14.995
43515W        W15241  29.729  41.557   4.070
43516W        W15242  12.790   9.315  14.719
43517W        W15243  44.430  33.059   0.769
43518W        W15244   3.711  28.699   4.307
43519W        W15245   1.744   1.035  13.249
43520W        W15246  21.207  23.499   2.240
43521W        W15247   3.034  40.769   2.654
43522W        W15248  41.918  42.817  11.919
43523W        W15249   3.809  17.110   2.436
43524W        W15250  24.471  43.733   4.105
43525W        W15251  29.002  20.508   2.227
43526W        W15252  41.050  35.468   0.285
43527W        W15253   7.368  17.245  11.555
43528W        W15254  27.079  18.923   1.059
43529W        W15255  34.907  21.227  12.461
43530W        W15256   7.346   8.843   1.958
43531W        W15257  36.681   2.347   2.025
43532W        W15258  10.292   2.074  11.937
43533W        W15259  21.522  41.414   3.697
43534W        W15260   7.856  44.742   0.277
43535W        W15261  37.948  26.275   1.820
43536W        W15262  18.765   7.851  10.489
43537W        W15263  43.357  14.367   3.305
43538W        W15264   2.584   0.268   2.439
43539W        W15265  28.546   3.331   1.746
43540W        W15266  10.766  42.638   3.684
43541W        W15267  12.531  37.352  10.661
43542W        W15268   5.878  11.803  14.925
43543W        W15269  31.831  17.270   1.904
43544W        W15270  24.995  20.037  13.821
43545W        W15271  41.762  11.372  12.358
43546W        W15272  41.584  26.002   4.639
43547W        W15273  36.015  26.438   3.476
43548W        W15274  40.711  38.965  11.961
43549W        W15275  18.775  20.166  11.130
43550W        W15276  24.328  21.285   1.202
43551W        W15277  31.612  26.442   0.862
43552W        W15278  13.642   6.358   1.239
43553W        W15279  35.495  42.989   3.929
43554W        W15280  25.422   8.305   1.005
43555W        W15281  35.406  13.039   0.385
43556W        W15282  31.640   1.433  11.984
43557W        W15283  34.943   3.383  10.427
43558W        W15284   2.230  27.500  11.989
43559W        W15285  26.304  38.790   2.672
43560W        W15286  23.967   4.177  11.152
43561W        W15287  10.259  16.380   3.139
43562W        W15288  11.520  26.494  13.750
43563W        W15289  15.741  11.463   5.087
43564W        W15290  35.553   6.292   5.131
43565W        W15291  40.290   4.358   4.481
43566W        W15292  41.961  28.689   0.272
43567W        W15293  16.728  14.817  14.914
43568W        W15294  15.384  14.186  10.675
43569W        W15295  35.897  28.067  13.938
43570W        W15296  25.524  36.344  12.070
43571W        W15297  14.260  12.106   4.925
43572W        W15298  35.825  42.266  13.798
43573W        W15299  13.749  23.303  11.850
43574W        W15300   9.970   4.932   0.825
43575W        W15301  10.796  30.109  13.293
43576W        W15302   4.694  22.238   3.918
43577W        W15303  36.468  39.816  10.694
43578W        W15304  14.626  27.203   1.234
43579W        W15305   3.406   1.925   1.784
43580W        W15306  13.672  10.316  14.281
43581W        W15307  11.192   8.210  13.891
43582W        W15308  36.806  18.736   3.642
43583W        W15309  34.993  43.903  11.442
43584W        W15310  19.805  43.706  11.553
43585W        W15311  17.737   8.322   1.351
43586W        W15312  23.761  33.141  13.480
43587W        W15313  34.870   5.953   1.356
43588W        W15314  35.792  22.119   2.760
43589W        W15315  40.533  27.864   4.558
43590W        W15316  43.739  24.186   3.653
43591W        W15317  34.395  37.900  10.749
43592W        W15318  40.846   5.746  11.394
43593W        W15319  18.082  15.286   5.038
43594W        W15320  24.585   6.224  12.423
43595W        W15321  43.902  32.897   1.028
43596W        W15322   9.990  35.753   5.163
43597W        W15323  28.338  35.885  10.433
43598W        W15324  15.072  39.064  13.913
43599W        W15325  33.697  43.109  13.346
43600W        W15326  15.886  42.360   1.884
43601W        W15327   1.225  44.386   3.329
43602W        W15328   8.750  44.399  11.607
43603W        W15329  26.877  16.840  12.877
43604W        W15330  29.489  15.585   4.188
43605W        W15331  42.947  36.452   0.828
43606W        W15332  23.490   6.694   4.319
43607W        W15333   3.592  36.738   0.265
43608W        W15334   5.252  28.396   4.611
43609W        W15335  43.052  32.061   0.901
43610W        W15336  25.014   0.301  12.029
43611W        W15337  32.359  16.728   3.043
43612W        W15338  31.687  28.416  14.875
43613W        W15339  24.960  30.856  11.057
43614W        W15340  31.637  28.054   1.474
43615W        W15341  18.255  15.822  11.624
43616W        W15342  16.999   5.603   4.122
43617W        W15343  37.339  43.406  11.636
43618W        W15344  34.156  29.578  11.450
43619W        W15345  26.973  40.562   4.940
43620W        W15346   4.694  36.378  10.632
43621W        W15347   3.149  40.840  14.789
43622W        W15348  15.116   6.173  11.870
43623W        W15349  18.297  34.995   4.184
43624W        W15350  32.465  28.599  13.636
43625W        W15351   0.277  16.412   3.423
43626W        W15352  26.549   1.209   4.514
43627W        W15353  10.877   6.425   2.222
43628W        W15354   5.919   8.591   2.230
43629W        W15355  10.608  29.647   0.416
43630W        W15356   9.922  22.220  11.097
43631W        W15357  16.337  22.053   2.220
43632W        W15358   1.530  37.306  11.130
43633W        W15359   2.730   7.320  10.587
43634W        W15360  13.929   0.250  12.073
43635W        W15361  27.518  16.698   3.617
43636W        W15362  16.904  33.097   4.439
43637W        W15363  29.560  10.861   1.831
43638W        W15364  10.859  27.509   3.674
43639W        W15365  13.146  26.300   0.879
43640W        W15366   6.873  25.144   1.059
43641W        W15367   5.122   4.000  13.475
43642W        W15368  44.278   4.433  14.752
43643W        W15369   9.957  15.557  10.697
43644W        W15370  25.086   5.909   1.292
43645W        W15371  44.585   6.451   1.901
43646W        W15372  32.971  22.100  10.788
43647W        W15373  28.028  28.722  11.022
43648W        W15374  19.140  26.091   4.741
43649W        W15375  40.269   7.813  11.008
43650W        W15376  19.655  10.411   0.758
43651W        W15377  20.280   0.239   4.385
43652W        W15378  38.678  10.804   1.275
43653W        W15379   3.863   9.992   0.720
43654W        W15380  13.783  18.147   2.681
43655W        W15381   2.271  30.808   0.153
43656W        W15382   0.980  19.612  10.270
43657W        W15383  24.401  33.023  14.567
43658W        W15384  40.487  26.509   2.413
43659W        W15385   6.378  20.922   2.448
43660W        W15386  25.234  13.654   2.144
43661W        W15387   3.166  13.015   0.943
43662W        W15388  14.034  17.921  12.563
43663W        W15389  44.563  43.758  11.961
43664W        W15390  12.135  34.500  10.690
43665W        W15391  21.017  28.040  14.042
43666W        W15392   4.693   7.937   1.780
43667W        W15393  37.581  36.861  12.671
43668W        W15394  42.493  12.684  13.911
43669W        W15395  22.433  35.717   9.981
43670W        W15396   0.027  27.836   2.372
43671W        W15397  27.202   5.346  13.843
43672W        W15398  31.946   3.806   3.636
43673W        W15399  29.219   5.378   1.690
43674W        W15400  24.008  25.235   1.845
43675W        W15401  10.774   8.671   1.207
43676W        W15402   5.029   5.345  12.589
43677W        W15403  40.431   8.620   0.027
43678W        W15404  28.412   3.476  10.363
43679W        W15405  23.645   9.481  13.978
43680W        W15406  38.261  38.265  12.197
43681W        W15407  33.653  26.473  12.510
43682W        W15408  14.407  39.843  13.427
43683W        W15409  43.433  16.831  12.797
43684W        W15410  33.367  39.475  12.072
43685W        W15411  22.194   8.362   4.762
43686W        W15412   3.346   0.443   4.217
43687W        W15413  32.178  38.358   3.406
43688W        W15414  30.955  41.004  13.541
43689W        W15415  39.348   9.812   4.935
43690W        W15416  34.034  12.677  12.447
43691W        W15417  32.140  37.574   1.990
43692W        W15418  11.794  43.812   4.762
43693W        W15419   0.931  21.095  14.827
43694W        W15420  35.259  17.905  11.999
43695W        W15421  14.368   4.084  13.026
43696W        W15422  37.875  24.124  12.236
43697W        W15423  25.169  42.604   0.553
43698W        W15424  40.447   3.485   3.218
43699W        W15425  18.760  19.814  14.382
43700W        W15426  31.544   1.129   2.799
43701W        W15427   1.585   2.482   1.349
43702W        W15428  26.708   7.799  13.764
43703W        W15429  30.904  22.185   0.226
43704W        W15430  25.089  41.543  11.900
43705W        W15431  11.746   9.156   1.811
43706W        W15432  27.534  25.522  13.888
43707W        W15433   6.687  34.596  11.897
43708W        W15434   1.039  19.412  14.253
43709W        W15435  40.886  15.593   4.136
43710W        W15436  38.041  36.652   2.194
43711W        W15437   3.986  37.607  12.903
43712W        W15438   4.648  11.796  13.586
43713W        W15439  22.706  30.593   2.344
43714W        W15440  27.231   1.321  12.880
43715W        W15441  42.345   0.952   0.437
43716W        W15442  28.652  44.172  13.448
43717W        W15443  26.276  40.464   2.326
43718W        W15444  41.182  36.762   4.215
43719W        W15445  10.367   8.673  12.910
43720W        W15446  30.347  31.032   2.034
43721W        W15447  33.581  44.013   5.100
43722W        W15448  42.279   7.210   2.338
43723W        W15449   8.571  17.193  12.307
43724W        W15450   8.232  34.555   0.372
43725W        W15451  41.070   7.320  14.996
43726W        W15452  11.745  12.976  14.406
43727W        W15453  10.936  13.819   2.875
43728W        W15454  10.848  36.849  13.890
43729W        W15455   4.463   8.910  13.661
43730W        W15456  30.793   8.239   3.652
43731W        W15457   3.944   5.995   1.161
43732W        W15458  20.695  11.233  13.433
43733W        W15459  33.320   2.509   0.959
43734W        W15460  18.803  14.813   1.593
43735W        W15461  38.028  32.442   4.598
43736W        W15462  26.902  42.216  10.893
43737W        W15463  32.054  11.210   3.177
43738W        W15464  12.577  32.135  15.000
43739W        W15465  30.594   0.025  13.941
43740W        W15466   7.854  33.663   3.328
43741W        W15467  27.827  35.430   3.150
43742W        W15468   2.719  35.997   5.139
43743W        W15469  24.496  21.646   3.082
43744W        W15470   4.966  11.886  11.626
43745W        W15471  24.375  41.360   0.757
43746W        W15472  24.578  33.134  12.844
43747W        W15473  16.692  20.117   0.407
43748W        W15474  32.865  12.377   1.247
43749W        W15475  36.778   2.976  13.685
43750W        W15476  25.550  17.679   4.902
43751W        W15477  44.563  35.285   4.054
43752W        W15478  33.857   4.268  10.702
43753W        W15479   1.364  38.939   0.297
43754W        W15480  16.245   1.349   0.931
43755W        W15481  20.943  21.680  14.842
43756W        W15482  44.804   7.791  13.592
43757W        W15483  31.080   2.792   1.999
43758W        W15484  21.590   4.002  12.131
43759W        W15485   0.880  43.313  14.333
43760W        W15486  26.638   8.623  12.810
43761W        W15487  41.343  23.055   0.245
43762W        W15488   2.898   4.503  10.758
43763W        W15489  33.004  25.266  14.199
43764W        W15490  23.154  39.451   2.298
43765W        W15491  22.962  17.107   0.376
43766W        W15492   5.021  11.684   4.541
43767W        W15493  18.821  40.476   2.233
43768W        W15494  20.424   1.189  13.589
43769W        W15495  21.312  10.394   1.042
43770W        W15496  21.218  34.341  12.452
43771W        W15497   9.345   5.935   1.896
43772W        W15498  34.674  42.540  11.949
43773W        W15499  33.115  36.179  12.956
43774W        W15500  42.029   6.468  10.750
43775W        W15501  43.428  32.308   1.167
43776W        W15502  44.400  31.408   2.380
43777W        W15503  14.816  29.678  11.494
43778W        W15504  20.790  25.633   2.707
43779W        W15505  10.631  35.518   0.918
43780W        W15506  29.522   0.967   0.465
43781W        W15507  35.898  19.140   1.178
43782W        W15508  16.209  37.473   5.527
43783W        W15509  25.262  39.391  11.875
43784W        W15510  11.679  41.923   4.620
43785W        W15511  20.489  12.529   1.303
43786W        W15512  16.263  26.061  11.966
43787W        W15513  24.642  17.367  11.928
43788W        W15514  36.311  25.696  11.017
43789W        W15515  11.091  25.285   3.326
43790W        W15516  44.980   6.260  11.142
43791W        W15517  18.505  11.077  11.181
43792W        W15518  17.091  23.513   0.052
43793W        W15519  20.961  22.675  12.512
43794W        W15520  24.514  24.156  14.949
43795W        W15521   9.663  37.768  13.425
43796W        W15522  19.667  44.775  14.114
43797W        W15523   8.402  14.613  14.492
43798W        W15524  31.368  24.136  14.318
43799W        W15525  35.519  34.388   0.789
43800W        W15526  11.819  42.846  13.506
43801W        W15527  33.882  22.051   0.357
43802W        W15528   6.365  11.645   3.363
43803W        W15529   0.025  38.314  14.368
43804W        W15530   9.625   7.940  12.074
43805W        W15531   1.619  32.096   3.309
43806W        W15532  19.664   2.124   1.670
43807W        W15533  27.964  37.346  13.718
43808W        W15534  13.844   9.905   2.292
43809W        W15535   5.179  10.786   2.759
43810W        W15536  20.084  26.885  13.373
43811W        W15537  37.626  41.761  11.647
43812W        W15538  39.449   4.357  14.308
43813W        W15539  44.008   0.186  11.917
43814W        W15540  31.706  31.625  14.771
43815W        W15541  13.555  13.186  11.623
43816W        W15542  17.811   0.286   4.639
43817W        W15543  43.339  17.262  13.061
43818W        W15544  28.612  22.577   3.165
43819W        W15545  44.375  35.755   4.072
43820W        W15546  42.082  21.615  12.954
43821W        W15547  23.208  36.439   1.624
43822W        W15548  35.840  36.062   3.222
43823W        W15549  41.279  36.702   3.390
43824W        W15550  35.873  44.488   3.272
43825W        W15551  24.758  42.946   1.723
43826W        W15552  33.507  43.082  10.637
43827W        W15553   7.581  17.638  12.839
43828W        W15554  33.990   7.171   3.648
43829W        W15555   3.230  24.976  14.047
43830W        W15556  39.092  26.081  11.876
43831W        W15557   5.363  42.823   0.795
43832W        W15558  31.482  34.372  10.973
43833W        W15559  11.223  20.251   4.655
43834W        W15560  37.768  29.549   2.819
43835W        W15561  40.281  30.879   4.259
43836W        W15562   0.858  27.642  14.074
43837W        W15563  29.017  25.499   3.858
43838W        W15564  16.092   7.788  12.613
43839W        W15565  25.596   0.856  10.651
43840W        W15566  12.187  21.342   3.578
43841W        W15567  27.520  27.542  14.174
43842W        W15568  39.803  19.498  12.003
43843W        W15569  44.499   5.817  11.484
43844W        W15570   9.426  31.204   1.299
43845W        W15571  39.730  44.321  12.550
43846W        W15572  16.750  36.543  13.041
43847W        W15573  18.348  13.655  11.190
43848W        W15574  43.780  38.698  13.837
43849W        W15575  17.014  36.833   0.918
43850W        W15576  44.760  20.726   2.338
43851W        W15577  26.666  26.932  14.487
43852W        W15578  34.613  40.078  13.365
43853W        W15579  38.995  41.039   4.127
43854W        W15580  23.266  27.599   1.409
43855W        W15581  44.004  41.781   2.384
43856W        W15582   5.728  35.933  11.857
43857W        W15583  24.152  43.792   1.661
43858W        W15584  34.463  37.613  13.326
43859W        W15585   6.671  19.091  12.001
43860W        W15586   3.410  27.434  11.681
43861W        W15587  13.778  36.300   2.856
43862W        W15588  16.830  18.564  11.190
43863W        W15589  34.444   5.148   3.715
43864W        W15590  41.351  16.338  11.589
43865W        W15591  41.449  19.700  14.420
43866W        W15592  23.521  40.804   0.390
43867W        W15593  25.558  43.781  13.916
43868W        W15594  19.702  14.761   5.129
43869W        W15595  26.915  29.194   0.258
43870W        W15596   4.416   2.825   3.199
43871W        W15597   5.951   3.255  12.502
43872W        W15598   9.744  22.276  11.574
43873W        W15599  19.522  12.161  13.398
43874W        W15600  29.512   6.662   1.888
43875W        W15601  40.629   7.222   3.313
43876W        W15602  15.714   9.780   3.797
43877W        W15603  38.129   3.793  14.328
43878W        W15604  30.876  23.470  11.935
43879W        W15605  15.747  19.658   2.753
43880W        W15606  24.581  37.982   1.481
43881W        W15607  11.366  34.063   0.862
43882W        W15608   7.651  24.113  10.705
43883W        W15609  35.856  32.600  10.641
43884W        W15610  26.369  32.284  12.694
43885W        W15611  12.814  15.833   4.484
43886W        W15612  18.644   0.538   4.033
43887W        W15613  42.109  22.459  11.860
43888W        W15614  42.767  34.966  10.464
43889W        W15615  10.328  41.929   1.868
43890W        W15616  16.240   3.477   0.765
43891W        W15617  13.733  18.044   3.790
43892W        W15618  20.291   5.865   4.191
43893W        W15619  43.883   9.820   3.923
43894W        W15620  33.416  31.027  10.896
43895W        W15621  32.519  34.646  13.561
43896W        W15622   3.894  31.723   4.934
43897W        W15623  36.392  27.631  13.569
43898W        W15624  41.030   9.778   2.181
43899W        W15625   6.482  30.668   1.130
43900W        W15626  17.848   0.011  12.868
43901W        W15627   3.780  31.530   4.414
43902W        W15628  43.705   4.481  13.877
43903W        W15629  18.538  24.779   3.723
43904W        W15630  26.208   8.834  13.034
43905W        W15631  17.998   7.708  13.513
43906W        W15632  24.516  32.146   0.565
43907W        W15633  10.201  40.325   5.097
43908W        W15634   5.273  40.844  12.925
43909W        W15635  32.464   8.428  10.687
43910W        W15636  41.984  14.466   4.928
43911W        W15637   3.694  37.081  14.861
43912W        W15638  37.623  36.294  13.358
43913W        W15639  20.504  20.540  11.904
43914W        W15640  12.320   8.297   1.440
43915W        W15641  16.510   9.614  13.873
43916W        W15642   8.712  11.234  11.982
43917W        W15643  17.521   8.191  14.022
43918W        W15644   1.453  13.583   2.885
43919W        W15645  34.033   7.976   2.256
43920W        W15646   7.498  36.174  11.956
43921W        W15647  16.831  32.629   4.222
43922W        W15648  14.189  23.498   0.525
43923W        W15649   2.264   3.945  13.410
43924W        W15650  43.788  27.446  14.856
43925W        W15651  15.246  32.424   4.685
43926W        W15652  28.117  36.934  11.271
43927W        W15653  22.033  40.268  11.690
43928W        W15654  22.018  31.699   2.326
43929W        W15655  41.814  25.093  11.009
43930W        W15656  35.591  31.597   4.305
43931W        W15657  38.102  11.274   3.420
43932W        W15658   4.876   0.271  13.024
43933W        W15659  17.560  42.600   0.332
43934W        W15660  23.273  43.752  12.315
43935W        W15661  18.030  10.511  12.426
43936W        W15662  30.664  36.409   0.805
43937W        W15663   9.310  10.638   4.462
43938W        W15664  36.522  18.141   4.189
43939W        W15665  37.101   5.952   3.547
43940W        W15666  17.593  38.654   0.796
43941W        W15667  41.825  13.659  12.744
43942W        W15668   1.950  30.022   3.576
43943W        W15669  22.284  44.223  11.430
43944W        W15670  13.426  30.199   2.877
43945W        W15671  39.848  31.137   4.311
43946W        W15672  23.036   2.399   3.626
43947W        W15673  13.957   9.311   2.682
43948W        W15674  24.920  10.190   4.977
43949W        W15675   8.781  38.712   5.086
43950W        W15676  20.978   4.417   2.940
43951W        W15677  17.874  32.275   0.024
43952W        W15678  16.275  38.450  11.987
43953W        W15679  10.142  20.057  12.179
43954W        W15680   3.341  17.340   2.371
43955W        W15681  14.384  40.614   3.606
43956W        W15682  24.949  37.992   4.883
43957W        W15683  44.769  18.735  10.781
43958W        W15684  33.908  17.554  11.453
43959W        W15685  37.608  40.896   0.472
43960W        W15686  34.825   2.879  13.502
43961W        W15687  11.711   2.698   1.393
43962W        W15688  43.936  40.906   4.064
43963W        W15689  29.498   5.944   3.207
43964W        W15690  31.673  36.034  13.045
43965W        W15691  21.024  33.885   1.845
43966W        W15692  27.581  27.956   3.714
43967W        W15693   5.205  34.941  13.755
43968W        W15694  33.091  19.679   2.401
43969W        W15695  22.177  24.846   0.063
43970W        W15696  22.106  29.369   2.759
43971W        W15697   9.421   3.454   1.946
43972W        W15698  26.657  17.793  13.361
43973W        W15699  40.532   8.334   1.864
43974W        W15700   1.604  25.505  12.757
43975W        W15701  29.965   7.430  12.354
43976W        W15702  35.232  12.678   2.019
43977W        W15703   3.031  41.760   0.411
43978W        W15704  22.299   8.426   3.638
43979W        W15705  31.400  10.384   4.021
43980W        W15706   5.391  26.977  10.717
43981W        W15707  22.691   8.483  13.869
43982W        W15708  43.200  34.490   3.660
43983W        W15709  23.412  34.639   0.112
43984W        W15710  17.015  16.168   4.754
43985W        W15711  30.392  11.200   3.818
43986W        W15712  14.588  36.056  11.299
43987W        W15713   4.104   4.973  12.645
43988W        W15714  19.146  23.507   3.434
43989W        W15715  18.461  11.770   0.719
43990W        W15716  23.327   9.888  13.983
43991W        W15717  11.709   4.188  10.537
43992W        W15718  11.270  37.051  12.437
43993W        W15719  43.580  19.478  13.415
43994W        W15720  35.181  39.305   2.839
43995W        W15721  18.042  23.468  13.128
43996W        W15722  14.758  15.653   0.461
43997W        W15723   8.569  15.780   2.636
43998W        W15724  21.284  16.380   0.701
43999W        W15725  42.933  24.000   4.147
44000W        W15726  43.278  41.107   2.629
44001W        W15727   9.804  20.529  10.790
44002W        W15728  35.873  19.697  14.657
44003W        W15729  32.751  11.450  11.490
44004W        W15730   2.875  20.110   4.838
44005W        W15731  31.222  37.867   4.924
44006W        W15732  30.347   1.702  14.897
44007W        W15733  25.042  42.330   2.820
44008W        W15734  13.709  12.958  10.709
44009W        W15735  32.962  42.074  13.269
44010W        W15736  32.888  28.039  14.969
44011W        W15737  27.039  30.703  11.916
44012W        W15738   4.295  37.986   3.671
44013W        W15739  29.117  26.643   1.787
44014W        W15740  16.094   3.976  12.865
44015W        W15741  35.619   3.945   2.230
44016W        W15742   5.331  26.935  12.206
44017W        W15743  16.668  26.293  13.615
44018W        W15744   1.487  43.106   0.318
44019W        W15745  23.542   6.291   1.854
44020W        W15746   2.081  21.052   3.674
44021W        W15747  18.361   1.807   3.525
44022W        W15748  15.230  28.522   0.565
44023W        W15749  36.881  41.459  13.310
44024W        W15750   9.667  35.954  13.830
44025W        W15751  43.327  30.257  12.203
44026W        W15752   7.732  31.167  12.408
44027W        W15753  26.071  29.199  14.465
44028W        W15754   3.050  39.053   1.458
44029W        W15755  14.719  19.791  11.398
44030W        W15756   4.729   8.374  14.336
44031W        W15757  23.277  31.077  11.900
44032W        W15758  20.756  15.075   0.377
44033W        W15759  16.512  22.053   4.257
44034W        W15760  19.654   4.789  13.273
44035W        W15761  31.969  41.480   4.647
44036W        W15762  21.319   1.395   1.760
44037W        W15763   7.388  39.530   2.835
44038W        W15764  27.621  42.377   4.649
44039W        W15765  16.078   7.902  12.072
44040W        W15766  38.833  13.220  12.018
44041W        W15767  18.136  42.752  13.982
44042W        W15768   4.651  43.455  11.884
44043W        W15769  10.107  32.551  11.935
44044W        W15770  26.174  11.763   0.715
44045W        W15771  24.632  31.495   1.239
44046W        W15772  20.294  29.659   2.388
44047W        W15773  42.916  11.023  10.896
44048W        W15774   9.188  28.425   1.401
44049W        W15775  14.796  38.272  13.025
44050W        W15776  14.111  20.498  12.755
44051W        W15777   2.909  39.116   2.850
44052W        W15778  14.722  11.259  10.725
44053W        W15779   3.396  36.536  12.093
44054W        W15780  23.670  39.074   4.074
44055W        W15781  35.595  26.723   1.430
44056W        W15782  38.514  11.171   4.802
44057W        W15783  20.604  16.000   0.440
44058W        W15784   9.552  24.976  11.597
44059W        W15785  43.407   0.452   0.250
44060W        W15786  43.609  32.231  10.570
44061W        W15787   3.387  33.630  14.292
44062W        W15788  28.906   4.890   4.155
44063W        W15789   7.746  13.748  12.936
44064W        W15790  39.356  12.146   0.736
44065W        W15791  32.423  28.461   1.418
44066W        W15792  25.519   6.017   3.638
44067W        W15793  43.513  33.566  10.598
44068W        W15794  26.603  25.477   2.763
44069W        W15795   2.317  27.695   4.845
44070W        W15796   7.647  24.017   2.845
44071W        W15797  41.828  33.274  13.938
44072W        W15798  26.928  25.712   3.727
44073W        W15799   7.826  29.580  14.583
44074W        W15800  12.419  17.699  14.727
44075W        W15801  31.375  22.810  14.875
44076W        W15802  17.378  32.136   1.234
44077W        W15803   3.238   1.770   2.638
44078W        W15804  28.552  19.014   4.716
44079W        W15805  13.142  37.974  12.833
44080W        W15806  40.874   3.792   0.183
44081W        W15807   9.449  17.289   2.383
44082W        W15808  25.950  39.969  14.317
44083W        W15809  22.987  43.699   3.697
44084W        W15810  31.514  29.126   2.370
44085W        W15811  14.126  34.391  11.030
44086W        W15812  16.257   0.243   2.688
44087W        W15813  39.228  12.599   0.483
44088W        W15814   5.010   2.184  13.433
44089W        W15815  13.852  42.355  13.862
44090W        W15816  17.229  36.584   4.704
44091W        W15817  24.005   8.569   0.463
44092W        W15818   6.108   4.465   2.779
44093W        W15819  36.858  36.858   4.279
44094W        W15820  10.452   3.373   4.635
44095W        W15821  31.540   3.030   3.690
44096W        W15822   9.671   9.890   0.027
44097W        W15823  35.563  24.271   3.457
44098W        W15824  36.452   8.860   0.744
44099W        W15825  16.596  24.334   0.592
44100W        W15826  44.399  36.361   1.715
44101W        W15827  19.755   5.230   2.005
44102W        W15828  37.887   0.752  11.073
44103W        W15829  11.692   6.061   0.353
44104W        W15830  10.184  43.782  13.091
44105W        W15831   2.695  24.990  13.035
44106W        W15832  14.096   3.934   3.815
44107W        W15833   6.104  43.892  11.119
44108W        W15834   5.431  36.615   1.305
44109W        W15835  17.276  32.954  14.812
44110W        W15836  43.281  20.879   1.244
44111W        W15837   3.397  17.769  13.403
44112W        W15838  41.745  37.922   4.559
44113W        W15839  16.143  32.943   0.135
44114W        W15840  10.350  10.472  13.319
44115W        W15841  21.980   7.560  12.633
44116W        W15842   4.608  42.789   2.805
44117W        W15843  41.896  33.037   1.790
44118W        W15844  13.774  27.044  14.321
44119W        W15845  38.311  34.807   1.437
44120W        W15846  36.792  40.256  10.833
44121W        W15847  35.811  32.297   3.888
44122W        W15848  43.262  10.319  10.777
44123W        W15849  38.784  44.820  13.114
44124W        W15850  16.875  17.866  14.382
44125W        W15851  11.382  38.790   4.214
44126W        W15852  32.901  38.803   4.337
44127W        W15853  34.421  22.039   0.322
44128W        W15854   5.920  24.364   1.844
44129W        W15855  34.481  19.506  13.434
44130W        W15856  20.185   9.334   4.892
44131W        W15857  41.474  32.546   2.522
44132W        W15858  13.626  14.145   3.410
44133W        W15859  24.277  30.533  12.463
44134W        W15860  40.539   6.824   4.987
44135W        W15861  13.626  42.518  10.695
44136W        W15862  44.009  19.602   1.699
44137W        W15863  17.131  29.257   5.028
44138W        W15864  33.122  35.664  12.839
44139W        W15865  15.310  17.027  13.379
44140W        W15866  30.627  26.488  14.708
44141W        W15867  20.099   7.391   2.704
44142W        W15868  16.309  15.646  10.728
44143W        W15869  17.602  14.676   0.977
44144W        W15870  34.307   8.894  13.381
44145W        W15871  38.600  38.457  14.289
44146W        W15872  26.388  35.969   1.758
44147W        W15873  16.286  12.532  11.844
44148W        W15874   2.169  39.947  12.942
44149W        W15875  15.097   9.722   3.358
44150W        W15876   7.420  27.627  12.578
44151W        W15877  34.854  39.387  12.570
44152W        W15878   6.864  10.768  13.263
44153W        W15879  37.316  17.836   3.949
44154W        W15880   9.179  27.172   3.225
44155W        W15881  16.523  20.803   2.836
44156W        W15882  26.374   4.120  14.412
44157W        W15883  20.567   2.317   4.416
44158W        W15884  17.791  20.334  11.914
44159W        W15885  17.904  18.212  10.526
44160W        W15886  13.933  15.694  13.844
44161W        W15887  12.603  37.928  11.468
44162W        W15888  31.050  35.853   1.155
44163W        W15889  39.074   3.954   2.902
44164W        W15890  38.468   7.095  11.336
44165W        W15891  33.812  24.052  14.336
44166W        W15892  33.835  43.705  10.886
44167W        W15893   9.327  39.418   0.808
44168W        W15894  22.886  36.580  14.947
44169W        W15895  15.745  37.411  14.018
44170W        W15896  36.489  20.182  14.069
44171W        W15897   7.917  19.589  14.914
44172W        W15898  42.072  38.775  11.127
44173W        W15899  23.468  28.619   1.383
44174W        W15900  35.986  35.324   2.365
44175W        W15901  15.515  27.594   0.341
44176W        W15902   0.432  33.437  12.501
44177W        W15903  37.826   3.707  12.022
44178W        W15904  24.599  23.218  13.062
44179W        W15905  26.413   9.211  14.370
44180W        W15906  41.551  10.321   0.853
44181W        W15907  22.604  18.978   4.363
44182W        W15908  38.844  20.266   1.729
44183W        W15909  11.980  20.694   0.363
44184W        W15910  24.291  10.417   9.933
44185W        W15911  20.534  39.224  11.998
44186W        W15912  29.355  23.653   0.758
44187W        W15913  23.269  42.267   2.425
44188W        W15914  30.567  19.282  12.144
44189W        W15915  37.909  13.764   4.440
44190W        W15916  15.303  41.460   2.862
44191W        W15917  23.828  35.593  11.219
44192W        W15918  20.302  36.248  12.578
44193W        W15919  35.892  13.322  12.506
44194W        W15920   6.384  35.319   1.942
44195W        W15921  37.934  13.103   4.155
44196W        W15922  16.567  14.301   2.856
44197W        W15923  29.576   7.214  12.108
44198W        W15924  29.920  13.152   1.948
44199W        W15925  43.058  10.068   4.163
44200W        W15926  38.005   1.786   2.648
44201W        W15927  42.746   3.679   3.332
44202W        W15928  14.532  21.475   0.947
44203W        W15929  43.571  16.661  11.001
44204W        W15930  23.171  19.197  13.319
44205W        W15931  30.699  12.227  10.759
44206W        W15932  11.441  28.435  12.531
44207W        W15933  15.285  42.100  13.021
44208W        W15934  17.234   9.800  11.883
44209W        W15935  17.304   0.841  13.934
44210W        W15936  20.778   4.318   0.489
44211W        W15937   1.504   4.674  14.364
44212W        W15938   3.768  26.193  12.524
44213W        W15939  32.497  30.907   3.896
44214W        W15940  13.864  15.633   1.321
44215W        W15941  16.143  40.582  12.932
44216W        W15942  17.813  19.005  14.515
44217W        W15943   6.411  12.729  12.342
44218W        W15944  37.941  12.799  14.208
44219W        W15945   2.097  38.678   3.272
44220W        W15946   9.370  29.747  11.974
44221W        W15947  24.618  34.113  13.740
44222W        W15948  40.608  42.907   2.207
44223W        W15949  22.108  18.699   0.376
44224W        W15950   9.037  27.957  11.680
44225W        W15951  12.782   2.439   0.418
44226W        W15952  22.369   8.289  11.201
44227W        W15953  23.622  36.174  11.834
44228W        W15954  17.129  38.526   0.433
44229W        W15955  11.574  43.291   3.143
44230W        W15956   4.854   5.926  13.959
44231W        W15957   6.137  22.038   0.726
44232W        W15958  21.142  42.340  12.573
44233W        W15959  40.533  19.086   1.221
44234W        W15960   3.775  28.525   4.799
44235W        W15961  33.422  11.572  11.131
44236W        W15962   0.473  16.837   3.701
44237W        W15963   4.003  15.185   0.956
44238W        W15964  18.239   8.697   3.963
44239W        W15965  37.074  42.956   0.260
44240W        W15966  33.121  26.544   0.852
44241W        W15967  15.098  14.263   2.626
44242W        W15968  14.907  42.440  12.949
44243W        W15969  31.428   5.370  11.457
44244W        W15970  27.583  29.566  14.245
44245W        W15971  33.459   6.676   0.447
44246W        W15972  38.373  20.549   3.613
44247W        W15973  28.552  17.044  10.194
44248W        W15974   2.784  26.130   4.912
44249W        W15975  41.849  23.212  11.231
44250W        W15976  41.628  35.161   4.994
44251W        W15977  15.217  42.879  10.110
44252W        W15978  23.527  30.111   0.453
44253W        W15979   2.450  11.310   3.631
44254W        W15980  28.108   5.885  12.671
44255W        W15981   1.034  29.875  11.118
44256W        W15982  21.490   0.939  12.103
44257W        W15983  14.799  11.523   4.199
44258W        W15984  43.990  27.050  13.478
44259W        W15985  44.247  26.389  14.074
44260W        W15986   4.678  22.073  12.503
44261W        W15987  27.481  34.574  10.903
44262W        W15988  10.669   0.981   4.197
44263W        W15989   0.237  25.382  14.082
44264W        W15990  19.342  26.022   3.364
44265W        W15991  20.854  41.935   4.120
44266W        W15992  33.386  32.517  12.968
44267W        W15993  31.362   0.388  10.723
44268W        W15994  20.646   5.620  13.362
44269W        W15995   1.395  31.931   0.043
44270W        W15996   9.305  26.133   2.339
44271W        W15997  14.011   5.191  14.857
44272W        W15998  44.969  37.574  10.415
44273W        W15999  10.308   7.840  13.405
44274W        W16000  15.311   9.722   1.076
44275W        W16001  11.563  22.534  14.301
44276W        W16002  43.893  16.291   1.755
44277W        W16003   4.840  24.020   0.711
44278W        W16004  40.078  25.459  11.184
44279W        W16005  29.572  37.843  10.743
44280W        W16006  25.528   1.221   4.546
44281W        W16007  37.375  33.103   3.119
44282W        W16008  15.709  26.527  13.804
44283W        W16009  13.617  10.763  10.690
44284W        W16010  19.472  42.343   4.097
44285W        W16011  31.517  12.955   2.147
44286W        W16012  16.358  44.386   4.669
44287W        W16013  22.454  26.047   0.341
44288W        W16014  12.125  42.087  11.855
44289W        W16015  38.854  42.329   1.414
44290W        W16016  29.378  14.396   0.314
44291W        W16017  14.519  30.463   1.876
44292W        W16018  40.466   5.477   0.898
44293W        W16019  42.734  34.168  14.973
44294W        W16020  37.891   2.555  10.594
44295W        W16021  27.954  13.135  11.643
44296W        W16022  31.646   8.642  13.892
44297W        W16023  33.604   6.735   3.576
44298W        W16024  32.618   5.443   1.589
44299W        W16025   9.796  33.517  10.131
44300W        W16026  10.215  20.217   0.833
44301W        W16027  16.335  19.512   4.029
44302W        W16028  24.427  27.789  14.587
44303W        W16029   3.691  20.484   3.537
44304W        W16030  19.997  19.582   0.293
44305W        W16031  19.025  10.686   3.788
44306W        W16032  16.889  30.938  12.083
44307W        W16033  17.712  12.613  10.673
44308W        W16034  15.146  31.432  14.001
44309W        W16035  36.383  44.768   4.837
44310W        W16036  33.177  19.149  13.895
44311W        W16037  24.253  36.590   2.328
44312W        W16038   8.248  44.700   4.862
44313W        W16039  30.768  33.361  11.436
44314W        W16040   9.332  13.322   1.310
44315W        W16041   7.888  28.582  14.981
44316W        W16042   0.814  36.910   2.813
44317W        W16043  29.712  25.520   9.750
44318W        W16044  44.092  23.549  11.150
44319W        W16045  35.907  43.895  14.374
44320W        W16046  10.934  21.638   3.723
44321W        W16047  31.065  26.504  10.196
44322W        W16048  33.391   5.962  14.908
44323W        W16049  28.594  20.045   1.422
44324W        W16050  40.603  29.795   3.152
44325W        W16051  23.644  24.474   4.934
44326W        W16052  30.868  41.372  12.045
44327W        W16053  18.720  32.425   4.288
44328W        W16054  22.003   9.800  10.414
44329W        W16055  40.800  21.626   0.741
44330W        W16056  29.128  13.766   0.921
44331W        W16057   8.398  18.091  12.151
44332W        W16058  12.008  18.735  12.755
44333W        W16059  29.951   5.992  13.366
44334W        W16060   7.766   6.934   2.732
44335W        W16061  27.146  44.164   3.826
44336W        W16062  28.952   7.417  11.120
44337W        W16063  43.760   5.737   1.178
44338W        W16064  12.416  13.801  11.212
44339W        W16065  21.009  11.126   3.145
44340W        W16066  18.606  13.184   2.768
44341W        W16067  13.845   9.119   1.681
44342W        W16068  26.054  18.062  13.921
44343W        W16069   8.180  18.518  12.485
44344W        W16070  34.336  23.614   1.501
44345W        W16071  18.218  41.478  14.357
44346W        W16072  12.850  36.135  13.007
44347W        W16073  20.262  10.760  12.082
44348W        W16074  37.538  30.998   2.352
44349W        W16075  29.119  13.162   3.413
44350W        W16076  20.228  29.371   0.757
44351W        W16077  43.509  15.084  14.769
44352W        W16078  43.472   5.774  12.439
44353W        W16079  30.921  10.446   3.781
44354W        W16080  29.893   8.400   3.714
44355W        W16081  34.893  38.931   1.317
44356W        W16082  27.674   7.224   4.129
44357W        W16083   6.450   0.948   1.441
44358W        W16084  20.805  36.986  11.131
44359W        W16085  42.517  17.191  13.894
44360W        W16086  29.136  13.576  12.885
44361W        W16087   9.358  36.378  12.123
44362W        W16088   9.391  27.066  12.880
44363W        W16089  39.410  20.248  12.396
44364W        W16090  29.269  29.516   3.083
44365W        W16091  33.299  24.677  12.346
44366W        W16092  44.737  10.608  12.837
44367W        W16093  17.083  40.373  11.160
44368W        W16094  14.582  42.532  11.530
44369W        W16095  17.613  42.454   4.375
44370W        W16096  43.415  19.436   2.375
44371W        W16097  26.402  13.402   1.914
44372W        W16098  26.145  10.236   3.857
44373W        W16099  16.818   7.473  10.637
44374W        W16100  15.892  40.692  12.009
44375W        W16101   0.391  42.878   2.912
44376W        W16102  27.469   3.840  12.529
44377W        W16103  24.711  21.329  11.180
44378W        W16104  41.914   5.003   1.300
44379W        W16105  39.064  19.238   4.196
44380W        W16106  44.697  19.579   2.484
44381W        W16107  14.846  29.252  11.790
44382W        W16108  23.188   4.295   4.112
44383W        W16109   3.265   0.412  14.905
44384W        W16110   0.889  38.521   1.307
44385W        W16111  12.664  31.085  14.835
44386W        W16112  43.401  33.587   1.424
44387W        W16113   0.276  32.592  11.259
44388W        W16114  32.500  29.642  14.250
44389W        W16115  12.464  20.422  14.222
44390W        W16116  21.278   1.318  14.753
44391W        W16117  21.573  13.044   2.270
44392W        W16118  39.484   3.306   3.361
44393W        W16119  21.092  36.294  12.573
44394W        W16120  14.066  18.648   1.917
44395W        W16121  44.404   2.937  13.933
44396W        W16122  32.389  22.573  10.304
44397W        W16123  18.005   4.310  11.572
44398W        W16124  43.785  28.364  11.574
44399W        W16125  43.303  44.701  10.649
44400W        W16126  13.627   2.851   3.877
44401W        W16127  16.099  15.311  14.538
44402W        W16128   5.148  34.718   2.611
44403W        W16129  14.323   0.955   3.732
44404W        W16130  31.447  39.455  13.033
44405W        W16131  27.231  21.943   1.838
44406W        W16132  33.836  13.255  13.032
44407W        W16133  32.126  44.387   1.493
44408W        W16134  10.638  34.353   2.271
44409W        W16135  25.194  18.500  13.804
44410W        W16136  25.651  44.947  13.433
44411W        W16137  25.644  16.908   4.444
44412W        W16138  28.206  17.135   0.024
44413W        W16139  11.892  17.709  12.930
44414W        W16140  35.823  24.932   3.695
44415W        W16141  21.824  12.645   3.243
44416W        W16142  17.352  23.906   4.121
44417W        W16143  22.060  11.775   1.331
44418W        W16144   0.189  33.942   3.695
44419W        W16145  23.115   1.736  14.833
44420W        W16146  13.816  15.725  12.809
44421W        W16147  31.915  17.584   2.303
44422W        W16148  24.031  31.571   0.256
44423W        W16149  22.057  11.175  13.634
44424W        W16150  20.601  23.773   3.767
44425W        W16151  28.130   8.123  11.384
44426W        W16152  17.063  25.519  13.417
44427W        W16153  34.885  40.816   0.934
44428W        W16154  42.584  42.371   4.245
44429W        W16155  17.714   7.441   4.431
44430W        W16156  21.741  13.192  12.978
44431W        W16157  33.405   0.150  11.481
44432W        W16158  42.434  44.311  11.593
44433W        W16159  15.975  11.189  12.482
44434W        W16160  43.428  21.119  14.874
44435W        W16161  22.979  28.909  14.825
44436W        W16162   3.912  21.561   0.263
44437W        W16163  11.322   9.842  11.620
44438W        W16164  10.602  40.785  13.328
44439W        W16165  27.109  44.678  11.866
44440W        W16166   4.956  20.062  10.656
44441W        W16167   3.571   6.298  11.463
44442W        W16168   9.954  44.476  12.815
44443W        W16169  38.043  29.942  12.940
44444W        W16170  13.350  24.953  14.120
44445W        W16171   0.926  43.799   2.783
44446W        W16172   7.893  13.632  11.118
44447W        W16173  33.012   1.795  14.349
44448W        W16174  21.554   9.788   1.704
44449W        W16175  14.543   3.306   0.262
44450W        W16176   3.369  19.099   3.561
44451W        W16177  27.067  15.681  12.536
44452W        W16178   4.665  28.414  11.050
44453W        W16179  21.375  40.151  14.251
44454W        W16180  21.522  24.146  13.417
44455W        W16181  36.868  13.092  13.893
44456W        W16182  41.775  33.643   0.809
44457W        W16183  44.698   2.759  10.426
44458W        W16184  19.133   6.255   1.872
44459W        W16185  39.394  43.910   0.885
44460W        W16186   3.772  12.738   2.407
44461W        W16187  25.165   7.926   0.764
44462W        W16188  32.003  32.195  13.064
44463W        W16189   5.685   6.964  13.338
44464W        W16190  25.522  36.869   2.486
44465W        W16191   8.313   7.325  11.051
44466W        W16192  44.385  37.926  11.417
44467W        W16193   0.957  16.672   3.664
44468W        W16194  42.738  16.744  12.501
44469W        W16195  36.166   7.319  10.415
44470W        W16196  40.746  42.489  13.386
44471W        W16197  33.842   7.877  11.667
44472W        W16198  27.331  14.285   3.514
44473W        W16199  41.449  38.555   3.164
44474W        W16200   2.796  43.842  11.106
44475W        W16201   0.225  27.656   2.827
44476W        W16202  14.159   6.198  10.849
44477W        W16203  35.361  11.771   0.374
44478W        W16204  42.474  32.662   0.421
44479W        W16205   2.404  32.501   3.414
44480W        W16206  39.400  27.455  14.344
44481W        W16207  22.766  36.651  12.005
44482W        W16208  12.579   4.175  14.939
44483W        W16209  35.132  13.401  14.444
44484W        W16210  33.032  15.123  11.687
44485W        W16211  36.709  41.954   1.655
44486W        W16212  29.886  18.354  14.828
44487W        W16213  34.133   6.822  14.279
44488W        W16214  11.739   6.739  14.313
44489W        W16215   3.653  14.225  11.509
44490W        W16216  30.927  37.955   3.968
44491W        W16217  15.114  37.128  14.786
44492W        W16218  33.548   7.495  11.514
44493W        W16219  27.220  27.138  12.972
44494W        W16220  36.493  16.718   0.907
44495W        W16221  16.309   4.835  14.787
44496W        W16222  36.381  17.359   0.398
44497W        W16223  41.345  14.903  13.873
44498W        W16224  42.903  22.094  13.311
44499W        W16225  40.805  38.655   5.137
44500W        W16226   3.670  37.436  14.493
44501W        W16227  36.530   9.321   0.464
44502W        W16228  44.690  29.470   2.761
44503W        W16229  42.776  22.169  12.715
44504W        W16230   2.001  37.167  14.806
44505W        W16231  15.166   1.401   4.707
44506W        W16232  41.517  28.482   3.331
44507W        W16233   8.279  23.235  10.752
44508W        W16234  34.532  13.336   0.244
44509W        W16235  25.538  31.301   0.739
44510W        W16236   0.196   5.197   3.654
44511W        W16237  42.753  12.924   1.761
44512W        W16238   9.501  25.711   1.135
44513W        W16239  15.831  26.082   4.131
44514W        W16240  37.979   9.083   2.255
44515W        W16241  27.710  36.882   0.599
44516W        W16242  37.524  27.735  14.397
44517W        W16243   6.363  25.287   1.777
44518W        W16244  41.090  38.660  12.174
44519W        W16245  28.706  13.779  11.606
44520W        W16246  14.769  43.577   1.234
44521W        W16247  42.908  34.709  12.179
44522W        W16248  15.444  28.562   1.572
44523W        W16249  14.421   9.905  14.742
44524W        W16250  36.683  28.375   1.440
44525W        W16251  25.348  16.190   3.353
44526W        W16252  38.775  29.742  11.538
44527W        W16253   7.000  36.129   1.310
44528W        W16254  11.538  14.677  14.983
44529W        W16255  23.075  37.933   4.433
44530W        W16256  28.847  10.090  11.893
44531W        W16257  26.416  31.492   0.825
44532W        W16258   6.361  29.896  13.570
44533W        W16259  14.231   7.189  12.542
44534W        W16260   0.231  23.447  14.375
44535W        W16261   5.668  27.062  14.403
44536W        W16262   4.429   6.620  11.003
44537W        W16263   1.029   3.309   5.137
44538W        W16264  10.004  39.303  13.955
44539W        W16265  35.098  30.427   4.092
44540W        W16266  33.961  43.868  14.975
44541W        W16267  28.030  25.583  13.353
44542W        W16268  21.106  29.387   3.719
44543W        W16269  44.795   7.811  10.768
44544W        W16270  26.154  15.038   0.979
44545W        W16271  19.586  39.785   2.136
44546W        W16272  22.197  16.895   4.533
44547W        W16273  23.593  28.350  13.377
44548W        W16274  31.328  30.540  12.109
44549W        W16275  35.763  14.286  12.501
44550W        W16276   4.694  32.401   2.241
44551W        W16277   6.591  43.783  11.024
44552W        W16278   6.301  44.506   1.378
44553W        W16279   8.199  13.706   0.745
44554W        W16280   6.929  23.199   0.947
44555W        W16281  11.781  24.333   5.005
44556W        W16282  10.587  44.519   1.447
44557W        W16283   0.731  43.961  13.438
44558W        W16284  12.850  10.156   1.326
44559W        W16285  38.946  25.071   2.936
44560W        W16286  43.871  27.334  11.108
44561W        W16287  28.191   3.226   4.625
44562W        W16288  20.668   0.416  14.805
44563W        W16289  31.621  41.963   4.740
44564W        W16290  41.927  24.229   3.326
44565W        W16291  41.992  41.753  14.301
44566W        W16292  34.595  32.230  10.434
44567W        W16293  32.468  24.979  14.037
44568W        W16294  22.717  29.496   1.210
44569W        W16295   1.885  30.869   3.421
44570W        W16296  24.717  27.498   2.783
44571W        W16297   7.730   4.232   4.348
44572W        W16298  22.607  42.023   2.231
44573W        W16299  33.068  44.382  14.576
44574W        W16300  18.166  12.881  14.407
44575W        W16301   9.689  27.046   2.384
44576W        W16302  41.182  37.686  11.079
44577W        W16303  34.336   8.246   4.696
44578W        W16304  39.420  29.225   2.338
44579W        W16305   3.485  36.685   3.193
44580W        W16306   9.170  40.992  12.457
44581W        W16307  40.074  15.858   2.669
44582W        W16308  16.545  30.924   2.890
44583W        W16309  44.766  35.554  12.919
44584W        W16310  16.592  11.811   0.329
44585W        W16311  30.831   4.274  14.968
44586W        W16312  26.121   3.780  14.875
44587W        W16313  15.260  26.081   0.737
44588W        W16314  26.211   1.668  10.496
44589W        W16315  30.578  32.378  13.513
44590W        W16316  34.079  19.665   0.987
44591W        W16317  14.920  32.020   9.999
44592W        W16318  22.934   6.235   2.276
44593W        W16319  39.577  27.987  11.265
44594W        W16320  39.358  24.771   2.979
44595W        W16321  26.147  38.489  10.705
44596W        W16322   3.528  21.827  14.953
44597W        W16323  24.030  39.520  14.775
44598W        W16324  21.863   0.210   1.764
44599W        W16325   9.641  20.054  10.934
44600W        W16326  26.204  34.316   1.952
44601W        W16327  33.453  35.134  13.560
44602W        W16328   4.360  28.259  10.477
44603W        W16329  30.686  27.574  11.306
44604W        W16330   3.937   8.700  14.509
44605W        W16331  37.375  15.312  12.361
44606W        W16332  26.246  35.901  12.853
44607W        W16333   3.580  37.821  13.169
44608W        W16334  21.947  38.871  13.108
44609W        W16335  44.397  27.957  12.903
44610W        W16336  41.080  29.694   4.362
44611W        W16337  10.898  39.952  10.732
44612W        W16338  28.117  29.660  12.571
44613W        W16339  30.913  16.811  12.471
44614W        W16340  30.651  44.786  11.554
44615W        W16341  37.419  42.481   3.689
44616W        W16342   0.712  22.999   1.465
44617W        W16343  23.427  22.542   0.435
44618W        W16344   4.832  40.605  14.429
44619W        W16345   0.815  13.107  14.176
44620W        W16346  14.387   4.618   3.271
44621W        W16347  15.357  42.413   4.616
44622W        W16348  34.364  16.713   0.699
44623W        W16349  18.176  24.007  12.930
44624W        W16350  14.378  38.364   2.258
44625W        W16351  27.734   3.657  11.081
44626W        W16352  15.315  24.942   0.283
44627W        W16353  23.048   1.368  13.994
44628W        W16354  11.708   3.037   0.417
44629W        W16355  19.331   3.378  10.371
44630W        W16356   8.358  29.595   2.981
44631W        W16357  35.066  12.914   4.082
44632W        W16358  36.955  22.772  14.525
44633W        W16359  43.572  43.902   1.811
44634W        W16360  33.971  16.800  11.910
44635W        W16361   5.171  17.332   3.715
44636W        W16362  26.519  30.167   4.567
44637W        W16363  25.809  18.931  11.203
44638W        W16364   6.633  18.253  10.739
44639W        W16365   5.695  15.132  10.598
44640W        W16366  44.031   0.463   1.633
44641W        W16367  23.296  26.664  11.086
44642W        W16368   4.347  25.456   4.624
44643W        W16369  20.490  14.168   0.833
44644W        W16370   5.241  10.451   0.311
44645W        W16371   6.050   2.261  14.818
44646W        W16372  10.676  16.031  14.452
44647W        W16373   6.383  20.637  12.559
44648W        W16374  26.127  40.385  14.028
44649W        W16375  35.992   9.298   1.276
44650W        W16376  23.524  21.257  10.784
44651W        W16377   4.805  33.573  13.534
44652W        W16378  34.996  25.688  10.660
44653W        W16379   6.704  34.414  13.327
44654W        W16380   0.644  41.601   0.859
44655W        W16381  30.100  13.759   3.657
44656W        W16382  19.453   8.559  11.842
44657W        W16383   7.385  18.389   4.062
44658W        W16384  35.432   4.361   4.554
44659W        W16385   4.278  13.275   2.832
44660W        W16386  44.311  34.644  12.597
44661W        W16387  30.652  25.745   0.982
44662W        W16388  21.708  17.344   0.380
44663W        W16389  21.633  29.886   2.329
44664W        W16390  18.227   2.893   0.217
44665W        W16391  41.290   0.787   3.237
44666W        W16392  30.004   2.002  10.748
44667W        W16393   7.853  17.150   4.570
44668W        W16394  41.987  18.919  14.903
44669W        W16395  34.901  39.210  11.149
44670W        W16396  22.599  38.816   2.519
44671W        W16397  42.509  36.345  13.485
44672W        W16398  26.950  27.114  11.171
44673W        W16399  16.222  25.234  12.328
44674W        W16400  24.198  26.999  13.051
44675W        W16401  43.008   5.848   2.130
44676W        W16402   8.649  41.970  14.881
44677W        W16403  16.801   2.991  13.160
44678W        W16404  18.287   5.245   3.680
44679W        W16405   4.491  37.471  11.855
44680W        W16406  11.276  33.495   4.503
44681W        W16407  40.430  43.441  10.757
44682W        W16408  33.145  31.568   2.290
44683W        W16409  14.337  21.957  14.919
44684W        W16410  15.759  23.146  12.617
44685W        W16411  17.839   0.545  11.997
44686W        W16412  19.104  10.564  13.332
44687W        W16413  37.603  16.667   1.363
44688W        W16414  30.906   4.236  13.758
44689W        W16415   7.937  43.555  12.039
44690W        W16416  17.800  20.197   4.959
44691W        W16417  25.469  15.923   2.926
44692W        W16418  39.789  13.567   4.108
44693W        W16419  36.958  39.879  10.513
44694W        W16420   8.335  16.835   4.672
44695W        W16421  10.684   6.845  13.031
44696W        W16422  39.018  32.882   1.642
44697W        W16423  13.450  38.884  11.894
44698W        W16424   6.033  41.001  12.194
44699W        W16425  25.427   7.621   0.444
44700W        W16426  28.415   2.688   3.096
44701W        W16427   3.899  32.855   4.901
44702W        W16428  43.226  29.628   2.728
44703W        W16429  28.640  20.663   0.992
44704W        W16430  40.754  36.343   0.031
44705W        W16431   5.275  15.355  11.534
44706W        W16432   3.847   8.011  10.918
44707W        W16433   1.405  40.779   1.204
44708W        W16434   2.514  29.908  14.695
44709W        W16435  20.604  21.226  10.214
44710W        W16436  14.769  13.408  12.964
44711W        W16437  20.784  31.867  11.564
44712W        W16438  41.290  27.057  13.817
44713W        W16439  20.564   0.265  14.317
44714W        W16440  35.003   5.880   2.773
44715W        W16441  41.960  37.388  14.189
44716W        W16442  13.914  41.832   4.064
44717W        W16443   6.100  36.822   4.134
44718W        W16444  13.718  26.018   2.357
44719W        W16445  34.761  25.620   1.800
44720W        W16446  25.985  18.796   0.345
44721W        W16447   3.206  10.374   1.681
44722W        W16448  39.546  26.189  12.078
44723W        W16449  18.660  24.933   3.230
44724W        W16450  27.956  32.101   4.129
44725W        W16451  44.432  41.555  13.276
44726W        W16452  28.872   6.454  13.850
44727W        W16453  15.842   2.418  12.317
44728W        W16454   4.909  41.725  10.600
44729W        W16455  28.734  15.070   0.494
44730W        W16456   3.983  43.707   2.330
44731W        W16457  37.954  13.315  14.359
44732W        W16458  22.911  33.251   0.028
44733W        W16459   2.024   1.838  10.383
44734W        W16460  15.624  17.323  12.943
44735W        W16461  37.352  14.294  10.288
44736W        W16462   6.714   1.010   4.201
44737W        W16463  12.162  29.595  13.817
44738W        W16464  36.151  19.198   2.003
44739W        W16465  14.109  20.756  11.492
44740W        W16466   6.430   2.447   2.595
44741W        W16467  38.598  44.955   0.426
44742W        W16468  20.998   4.695  13.603
44743W        W16469  16.862  33.972   4.592
44744W        W16470  41.959  24.035   4.359
44745W        W16471  22.873  15.732  13.885
44746W        W16472   2.778  17.367   4.509
44747W        W16473   1.905   7.061   0.817
44748W        W16474  27.600  26.661   0.478
44749W        W16475  28.635  33.960   3.133
44750W        W16476  37.347  10.267   1.823
44751W        W16477  15.132  28.727   3.718
44752W        W16478  11.835  42.551  10.648
44753W        W16479  16.708   8.724   5.043
44754W        W16480  36.899  43.711   3.605
44755W        W16481  37.612   5.266  11.546
44756W        W16482  41.714  33.058  13.444
44757W        W16483  43.170  41.053  13.118
44758W        W16484  18.074  41.857   1.216
44759W        W16485  12.354   0.900  12.905
44760W        W16486   5.748  29.892   3.647
44761W        W16487  37.532   6.944  12.105
44762W        W16488  31.715  13.652  12.037
44763W        W16489  14.789  10.114   3.189
44764W        W16490  24.543  19.316   3.824
44765W        W16491  34.040  18.229   2.989
44766W        W16492   4.808   2.709  12.368
44767W        W16493  25.996  31.603  14.502
44768W        W16494  20.786  29.842  12.933
44769W        W16495  17.751  25.283  12.908
44770W        W16496  29.981  31.167  10.689
44771W        W16497  11.734  31.060  14.855
44772W        W16498  21.693   4.940  12.663
44773W        W16499  42.724   2.243   4.149
44774W        W16500   4.372  24.268  12.582
44775W        W16501   9.788  35.571  12.523
44776W        W16502  25.193  19.533   1.824
44777W        W16503   9.698  31.371   0.871
44778W        W16504  30.886  38.155  11.114
44779W        W16505  12.306   6.838   4.204
44780W        W16506  14.598  35.888   1.733
44781W        W16507  32.532  36.525  14.442
44782W        W16508  18.576  14.159  11.319
44783W        W16509  44.223  27.604   4.499
44784W        W16510  44.868  34.187   4.281
44785W        W16511  30.414  11.163  14.802
44786W        W16512  15.163   8.757   1.766
44787W        W16513  16.218  30.117   3.121
44788W        W16514  31.470   5.679  11.862
44789W        W16515  34.903  29.154   2.449
44790W        W16516  40.697  15.286  13.462
44791W        W16517  40.559  19.579   5.055
44792W        W16518   6.796  38.480  10.597
44793W        W16519  26.624  20.028  13.579
44794W        W16520  24.382  38.794  14.870
44795W        W16521  31.844  33.711  13.990
44796W        W16522  42.394  16.517   4.611
44797W        W16523  32.079  26.256   0.749
44798W        W16524  44.328  25.126  13.665
44799W        W16525   8.960  29.552  13.936
44800W        W16526  20.755  27.137  11.604
44801W        W16527  12.333  16.662  13.838
44802W        W16528   5.977  33.580   0.390
44803W        W16529  22.950  44.801   3.710
44804W        W16530  29.492  41.804   0.326
44805W        W16531   9.395  15.301  11.590
44806W        W16532  18.903  24.919   4.076
44807W        W16533  18.623  21.033  13.889
44808W        W16534  24.028   6.258  12.079
44809W        W16535  29.961   4.785   2.296
44810W        W16536  17.747   0.587   2.716
44811W        W16537   0.410   3.818  13.687
44812W        W16538  43.095   4.928  10.896
44813W        W16539  22.660   8.134   1.288
44814W        W16540  39.034  26.604   2.228
44815W        W16541   7.758  17.312   0.319
44816W        W16542  26.650  25.100  14.771
44817W        W16543  41.596  38.017   0.943
44818W        W16544  17.575  23.661  13.410
44819W        W16545  37.274  39.019   4.075
44820W        W16546  36.894  37.620   4.586
44821W        W16547  31.242  27.155   5.142
44822W        W16548  44.408  16.144   0.787
44823W        W16549   5.280  35.232  12.465
44824W        W16550   9.745  20.976  13.461
44825W        W16551  13.862  29.198  11.156
44826W        W16552  32.166  29.208   3.401
44827W        W16553  41.412  35.867  14.410
44828W        W16554  26.462  34.469   3.879
44829W        W16555  15.111  31.715   4.115
44830W        W16556  33.665   6.237  11.028
44831W        W16557  12.231  19.792  13.287
44832W        W16558  43.351   1.828   1.380
44833W        W16559  38.787  25.974   3.792
44834W        W16560  13.847  22.297  13.257
44835W        W16561  32.890   7.079   0.923
44836W        W16562  44.951   3.779   3.106
44837W        W16563   1.157   9.075  13.149
44838W        W16564  20.761  11.714  13.262
44839W        W16565  29.167  11.607   4.206
44840W        W16566  14.778  38.080  11.142
44841W        W16567   1.778  39.574   2.421
44842W        W16568   7.738  35.565   2.238
44843W        W16569   9.630   0.509   3.317
44844W        W16570  13.437  43.234  14.067
44845W        W16571  12.894  12.250  12.928
44846W        W16572  41.970  27.686  14.333
44847W        W16573  21.744   4.213  13.136
44848W        W16574  27.467  16.580   0.366
44849W        W16575  39.872  35.502   3.514
44850W        W16576  22.943  17.245  13.541
44851W        W16577   7.149  41.904   0.858
44852W        W16578  21.393  17.582  13.741
44853W        W16579  13.794   9.592   1.878
44854W        W16580  23.263  40.922  14.897
44855W        W16581  15.564  39.155  11.001
44856W        W16582   3.646   1.192   2.289
44857W        W16583  15.759  39.175  14.421
44858W        W16584  39.831  27.313   4.942
44859W        W16585  32.059  34.017  11.102
44860W        W16586   5.900  20.573  14.340
44861W        W16587  22.838   6.308   4.620
44862W        W16588  16.816  22.190   1.938
44863W        W16589  14.173   6.121   1.300
44864W        W16590  23.203  41.763  10.745
44865W        W16591  10.653   3.465   2.271
44866W        W16592  42.892   6.838   0.411
44867W        W16593  13.924   2.897   2.882
44868W        W16594  34.131  34.631  14.122
44869W        W16595  19.099  38.358   3.281
44870W        W16596  12.576  25.970   4.445
44871W        W16597   6.704   6.252  14.014
44872W        W16598  13.298  11.870   3.379
44873W        W16599  39.270  17.291   1.863
44874W        W16600   5.948  22.583   1.993
44875W        W16601  11.388  44.850  12.019
44876W        W16602  19.239  16.075   4.346
44877W        W16603  39.819   3.778  12.131
44878W        W16604   8.897  39.433  12.936
44879W        W16605  25.642  25.172   0.214
44880W        W16606   3.912   4.719   4.544
44881W        W16607  30.783  43.453  14.934
44882W        W16608   8.425  30.209  13.396
44883W        W16609  26.511  27.795   2.182
44884W        W16610  21.968  39.320  14.154
44885W        W16611   7.641  44.203  13.410
44886W        W16612   9.338  37.279  14.504
44887W        W16613  19.502   1.314   0.953
44888W        W16614   7.258  33.983   2.005
44889W        W16615  42.297  14.864  10.868
44890W        W16616   3.450  41.849   2.691
44891W        W16617  43.601  22.612   0.727
44892W        W16618   0.338  39.139  14.066
44893W        W16619  18.542  44.864  14.458
44894W        W16620  16.318  13.610  11.166
44895W        W16621  30.334   7.816  12.786
44896W        W16622  43.544   4.174   4.256
44897W        W16623  10.905   1.139  12.081
44898W        W16624  34.462  19.619   2.760
44899W        W16625  12.849   7.346  14.894
44900W        W16626  20.695   8.884   1.441
44901W        W16627  19.342  31.405   2.321
44902W        W16628  27.025  15.346   2.467
44903W        W16629  20.673  28.199  10.708
44904W        W16630  40.257  15.357   2.784
44905W        W16631  21.929   3.237   2.333
44906W        W16632  13.343  17.333  14.984
44907W        W16633  36.731  26.960   4.505
44908W        W16634  35.065  39.306   0.678
44909W        W16635  40.073   0.915   1.163
44910W        W16636  21.590  39.371  13.822
44911W        W16637  12.881  15.165   0.489
44912W        W16638   3.167  22.247  12.537
44913W        W16639  31.215  26.297   9.673
44914W        W16640  36.562  24.079   0.467
44915W        W16641   7.154   7.754   1.397
44916W        W16642   9.363   8.430  11.597
44917W        W16643  14.856  20.585   1.257
44918W        W16644   7.161  20.400   1.280
44919W        W16645  11.642   3.181  11.567
44920W        W16646  34.122  41.968  10.974
44921W        W16647  31.129  37.002   2.246
44922W        W16648   2.493  43.446   2.513
44923W        W16649  34.556  31.799  10.760
44924W        W16650  35.346  43.886   1.798
44925W        W16651  25.974  15.701  10.974
44926W        W16652  29.218  34.581   0.226
44927W        W16653  33.464  14.337   4.744
44928W        W16654  14.302   1.684   3.181
44929W        W16655  24.034  33.811  12.634
44930W        W16656   8.698  28.943   3.209
44931W        W16657  21.052  13.308  11.455
44932W        W16658  16.120  24.380   2.261
44933W        W16659   6.981  20.143   2.203
44934W        W16660  22.765  14.057   1.925
44935W        W16661  15.830   3.520  11.585
44936W        W16662  30.505  29.566   1.047
44937W        W16663   1.219  35.392   3.710
44938W        W16664  18.849  22.624   0.825
44939W        W16665  11.589  30.969   3.403
44940W        W16666  20.533  38.359   1.783
44941W        W16667   0.131  37.173  11.138
44942W        W16668  38.807  24.024   3.677
44943W        W16669  43.798   5.240   2.431
44944W        W16670  12.849  15.131  12.174
44945W        W16671  22.902   5.419   4.837
44946W        W16672   2.429  32.165  13.895
44947W        W16673  34.914  10.962   4.097
44948W        W16674  43.141   5.425   3.930
44949W        W16675   4.002  33.893  11.261
44950W        W16676  13.357  26.657  12.009
44951W        W16677  28.021  24.069   4.896
44952W        W16678  38.948   6.872  12.509
44953W        W16679  44.379  16.733   2.396
44954W        W16680  43.888   8.996   4.843
44955W        W16681  17.760  42.254  14.394
44956W        W16682  31.495  37.671  12.454
44957W        W16683  39.559  18.692   4.730
44958W        W16684  43.687  41.833   3.736
44959W        W16685  14.097  19.121  13.030
44960W        W16686  21.285  34.926  12.454
44961W        W16687  20.086   7.149  10.789
44962W        W16688  43.494  36.533   0.180
44963W        W16689  42.960  21.534  12.060
44964W        W16690  27.570   5.411   2.356
44965W        W16691  34.309   9.892   3.151
44966W        W16692  12.304   0.490  12.603
44967W        W16693  21.110  16.258   4.735
44968W        W16694  27.509   0.708  14.862
44969W        W16695  14.454  17.961   5.018
44970W        W16696   6.971  18.579   1.485
44971W        W16697  44.708  43.716  13.353
44972W        W16698   9.626  44.529  12.403
44973W        W16699   5.370   4.307   2.240
44974W        W16700   2.927  14.345  14.333
44975W        W16701  23.594  23.076   4.568
44976W        W16702  16.063  39.885  14.749
44977W        W16703  42.694   5.778  11.137
44978W        W16704  20.677  36.795  10.678
44979W        W16705  21.488  18.277   3.040
44980W        W16706  22.482  22.092  12.900
44981W        W16707  30.203   1.926   0.501
44982W        W16708  43.050   1.977   2.697
44983W        W16709  43.795  32.716   4.040
44984W        W16710  14.762  41.374  13.898
44985W        W16711  15.126   0.847   0.986
44986W        W16712   8.742  36.357  10.526
44987W        W16713  17.018  21.978   4.306
44988W        W16714  44.289  32.918   3.192
44989W        W16715  42.373  25.525  14.632
44990W        W16716  23.510  22.469  13.499
44991W        W16717   6.921  36.904  13.108
44992W        W16718  21.948  14.332   2.512
44993W        W16719   1.989  14.024  11.650
44994W        W16720  24.561  15.112   4.661
44995W        W16721  40.781  18.087   1.898
44996W        W16722   2.747  22.244   4.169
44997W        W16723  38.107  13.456  13.400
44998W        W16724  16.062  24.984   1.858
44999W        W16725  26.277  17.833   1.863
45000W        W16726  41.370   8.411  12.420
45001W        W16727  26.613  35.671   0.839
45002W        W16728  31.328  32.433   3.476
45003W        W16729  44.800  27.759   1.894
45004W        W16730  21.316   6.781   1.622
45005W        W16731   8.060  35.156  11.967
45006W        W16732  35.519  38.302   4.696
45007W        W16733  13.752  26.186  11.537
45008W        W16734  27.846  17.494  10.687
45009W        W16735  24.645   7.353  11.527
45010W        W16736  32.414  44.897   0.334
45011W        W16737   5.283  25.042   1.974
45012W        W16738  39.040   9.905  10.511
45013W        W16739   3.315  25.027   3.300
45014W        W16740  15.237  37.100   1.698
45015W        W16741   6.325  19.409  11.747
45016W        W16742  34.412  14.546  12.855
45017W        W16743  19.374  33.505  13.951
45018W        W16744  32.412  20.887   3.372
45019W        W16745  39.848  34.197  13.777
45020W        W16746  39.181  28.700   3.738
45021W        W16747   3.463  34.409  12.478
45022W        W16748  40.642  42.574   1.778
45023W        W16749  19.585  33.623   0.482
45024W        W16750  11.620  32.394   0.722
45025W        W16751   9.832   4.733  13.829
45026W        W16752  34.494  10.800   1.367
45027W        W16753  41.623  35.456   2.485
45028W        W16754  34.405  33.444   4.663
45029W        W16755  42.952  33.484   0.662
45030W        W16756  24.993   4.875  10.665
45031W        W16757  39.809  38.597   4.187
45032W        W16758  16.699  33.580  10.646
45033W        W16759  31.303  44.903   5.098
45034W        W16760  44.730  34.373  11.628
45035W        W16761   2.869  43.460  11.542
45036W        W16762  38.864  36.583  11.896
45037W        W16763   1.692  35.577  13.577
45038W        W16764  24.446  27.990  10.676
45039W        W16765   0.718  39.856   4.846
45040W        W16766  27.895  41.221  14.981
45041W        W16767  42.052  36.004  13.443
45042W        W16768  39.070  36.984  11.093
45043W        W16769   0.097  16.956  11.678
45044W        W16770  19.586  41.926   4.586
45045W        W16771  18.814  44.270   2.400
45046W        W16772   8.092  24.236  13.829
45047W        W16773  33.654  26.030   2.291
45048W        W16774  30.188   2.812  11.041
45049W        W16775  42.869   9.128  13.048
45050W        W16776   7.951  10.282  10.721
45051W        W16777   9.358  36.453   1.824
45052W        W16778   7.440  15.307  12.424
45053W        W16779  41.721   1.145   5.055
45054W        W16780   9.233   9.917   0.821
45055W        W16781  39.846   2.455  13.518
45056W        W16782  35.394  11.718  12.364
45057W        W16783   4.777  39.601   2.234
45058W        W16784  24.269   1.746  11.970
45059W        W16785  25.232  34.057  12.429
45060W        W16786  18.714  42.400   3.695
45061W        W16787  30.214   8.888  13.506
45062W        W16788  28.739  32.510   4.682
45063W        W16789  37.782  13.734   0.660
45064W        W16790  26.003  20.186   0.715
45065W        W16791  22.698   6.588   1.916
45066W        W16792  13.616   1.249  12.105
45067W        W16793  26.768  24.207   2.172
45068W        W16794  16.189  27.378  14.848
45069W        W16795  40.467  27.052  14.764
45070W        W16796  13.731  25.503   1.841
45071W        W16797  41.293  13.321   3.908
45072W        W16798  41.045  21.617   4.234
45073W        W16799  28.009  23.040   0.714
45074W        W16800   6.507   3.153  12.711
45075W        W16801  13.754  14.567   1.408
45076W        W16802   7.615   2.370  12.790
45077W        W16803  17.559  17.690  10.610
45078W        W16804  19.678   2.669   1.316
45079W        W16805  39.960  19.330  14.499
45080W        W16806  38.104   5.267   1.337
45081W        W16807  27.551  15.661  10.642
45082W        W16808  18.046  25.607   0.333
45083W        W16809   9.613  28.642   3.363
45084W        W16810   5.982   2.424   3.903
45085W        W16811  18.042  21.272   4.472
45086W        W16812   4.224  13.070  13.468
45087W        W16813  44.936  23.203  11.344
45088W        W16814  20.712  17.495  10.662
45089W        W16815  26.702  43.989   2.881
45090W        W16816  36.343  27.250   4.038
45091W        W16817   5.712  24.189  10.760
45092W        W16818   2.442  26.093  11.003
45093W        W16819  22.571  36.281  12.567
45094W        W16820  26.190   5.741   3.196
45095W        W16821   6.456  14.103   0.379
45096W        W16822  38.975  33.540   3.660
45097W        W16823  26.417  34.918   4.796
45098W        W16824  17.645  27.157   0.791
45099W        W16825  17.356  27.679   4.603
45100W        W16826  24.698  29.533   1.324
45101W        W16827  25.545  25.218  12.851
45102W        W16828   2.239  15.674  12.866
45103W        W16829  42.258  21.501  12.452
45104W        W16830   8.090  36.040  14.052
45105W        W16831  38.485  15.868  14.838
45106W        W16832   2.115   2.751  11.750
45107W        W16833   0.311  23.889  10.715
45108W        W16834  40.788  34.585   0.933
45109W        W16835  37.117  24.667   2.795
45110W        W16836  11.845  31.417   0.379
45111W        W16837  25.272  34.733   0.300
45112W        W16838  36.902  36.360   4.144
45113W        W16839  31.082  15.818  14.891
45114W        W16840  25.906  33.443   2.738
45115W        W16841  40.417   8.906   0.989
45116W        W16842  18.803   8.466  14.560
45117W        W16843  31.897  14.376   3.709
45118W        W16844  42.484  33.890   3.433
45119W        W16845  25.991  40.562   1.881
45120W        W16846  43.873  31.303  11.929
45121W        W16847  42.330  31.089  13.794
45122W        W16848  34.075   6.807   0.680
45123W        W16849  17.045  17.816  12.444
45124W        W16850   2.671  42.903  13.603
45125W        W16851  42.345  19.811  11.952
45126W        W16852   5.423   7.332  12.985
45127W        W16853   6.838   8.763  13.515
45128W        W16854   2.979  28.493   3.278
45129W        W16855  36.177  10.818  11.957
45130W        W16856  11.972   3.242  12.071
45131W        W16857   0.071  26.821   5.105
45132W        W16858  38.127  21.456  13.367
45133W        W16859  31.804  30.967  14.396
45134W        W16860  13.655  30.533  11.492
45135W        W16861  27.871  18.205  12.504
45136W        W16862  14.006   1.345   0.161
45137W        W16863  37.328  43.435  13.630
45138W        W16864   9.646  22.649  11.051
45139W        W16865  22.307  44.346  10.607
45140W        W16866  25.794   7.243  10.400
45141W        W16867  11.821  41.563  10.316
45142W        W16868  33.159  12.817   1.264
45143W        W16869   7.130  36.764   4.220
45144W        W16870   3.418  38.766  14.290
45145W        W16871   2.466  24.987  13.560
45146W        W16872  28.095   3.484   2.872
45147W        W16873   0.478  23.753   4.567
45148W        W16874  13.150  27.755  14.420
45149W        W16875  19.099  44.468  11.594
45150W        W16876  10.357  13.573   1.291
45151W        W16877  36.584  13.945  12.741
45152W        W16878  19.438   5.957  12.851
45153W        W16879  12.436  31.162   0.954
45154W        W16880   9.647  14.785   3.752
45155W        W16881  42.057  12.917   3.683
45156W        W16882  12.105  24.014  10.579
45157W        W16883  36.819   2.441  12.631
45158W        W16884  40.873  23.214   1.299
45159W        W16885   1.622  38.028   1.447
45160W        W16886  32.101  23.966  12.663
45161W        W16887  21.550  18.717   4.877
45162W        W16888   4.247  16.326  14.873
45163W        W16889  24.976  31.622   3.766
45164W        W16890  24.652  40.007   0.848
45165W        W16891  35.620  31.667  13.022
45166W        W16892  32.066  16.834   4.008
45167W        W16893   6.577  32.354   3.869
45168W        W16894  20.034  12.804  12.073
45169W        W16895   3.942   6.164   4.120
45170W        W16896  33.530   0.809  12.516
45171W        W16897   5.912  13.038  10.667
45172W        W16898  25.025  36.027   2.381
45173W        W16899  34.839  26.736  11.601
45174W        W16900  15.241  11.097  12.118
45175W        W16901   6.777  31.453   0.478
45176W        W16902  22.770  22.190   3.163
45177W        W16903  14.686  10.730  10.673
45178W        W16904  12.058  22.103  11.137
45179W        W16905   2.204  39.949  11.083
45180W        W16906   6.662  41.775   0.856
45181W        W16907   3.630   4.255  11.151
45182W        W16908  28.221  41.633  14.879
45183W        W16909  20.688  11.774  11.560
45184W        W16910  10.148   4.801  12.101
45185W        W16911  15.653  13.369  12.708
45186W        W16912   4.431  21.521   2.705
45187W        W16913  39.066  23.013  10.169
45188W        W16914  17.063  37.416   3.215
45189W        W16915  16.212   5.580  10.496
45190W        W16916  25.110   1.407  12.416
45191W        W16917  20.472  36.930  11.541
45192W        W16918  29.402  14.693  10.616
45193W        W16919  38.991  36.490   4.633
45194W        W16920  22.133   5.789  10.678
45195W        W16921  15.024  32.917  10.301
45196W        W16922  28.381  34.072   1.646
45197W        W16923   7.202  15.278   0.893
45198W        W16924  35.958   0.477   2.221
45199W        W16925  10.805   6.426   4.633
45200W        W16926   4.346  42.259  11.408
45201W        W16927  38.976  22.025   0.206
45202W        W16928  28.810   8.206   1.741
45203W        W16929  31.593   0.105   2.931
45204W        W16930  44.194  12.711  14.539
45205W        W16931  10.171   0.889   4.429
45206W        W16932  22.763  41.230   0.328
45207W        W16933  30.856   9.043  12.844
45208W        W16934   4.393   1.331  11.591
45209W        W16935   6.556  16.717  12.921
45210W        W16936  41.754   4.738  13.020
45211W        W16937  12.640  26.303   4.859
45212W        W16938  13.293   5.329   3.610
45213W        W16939   0.501   0.809   2.751
45214W        W16940  43.413  27.943  13.836
45215W        W16941  32.137  16.359   3.368
45216W        W16942   2.197  41.881   3.237
45217W        W16943  41.239  14.222  14.541
45218W        W16944   5.348  31.517   4.232
45219W        W16945  35.300  26.362   2.277
45220W        W16946   0.317  30.896  11.427
45221W        W16947  16.386  41.225  11.546
45222W        W16948   9.914   1.532   1.754
45223W        W16949  31.884  40.171  12.015
45224W        W16950  37.834  18.800  11.992
45225W        W16951  44.150  16.832  14.856
45226W        W16952   8.894  21.295   5.061
45227W        W16953  44.675  31.955   5.394
45228W        W16954   0.160  13.064   3.682
45229W        W16955   6.348  16.211  10.052
45230W        W16956  24.753  30.573   5.012
45231W        W16957  33.409   5.893   0.786
45232W        W16958  28.044  13.440   1.362
45233W        W16959  25.611  24.701   3.323
45234W        W16960   5.946  36.507  11.075
45235W        W16961  39.033  43.832  14.459
45236W        W16962  23.010  43.981   1.017
45237W        W16963  29.223  28.175  13.806
45238W        W16964  11.664  12.733   0.339
45239W        W16965  32.075   9.673   4.351
45240W        W16966  43.309  18.106   4.632
45241W        W16967  11.088  43.052  13.837
45242W        W16968  37.436  22.239  14.275
45243W        W16969  18.185  25.602  11.951
45244W        W16970  23.742  38.991  13.711
45245W        W16971  34.512  16.637   1.492
45246W        W16972  36.893  23.681   3.574
45247W        W16973   4.356  42.917   1.120
45248W        W16974  31.558  29.090   0.649
45249W        W16975  13.519  15.069   0.029
45250W        W16976  26.061  39.442  14.020
45251W        W16977  24.665   3.455  12.570
45252W        W16978   1.427  39.931  12.430
45253W        W16979  43.891  11.170   1.813
45254W        W16980  25.462  10.987  13.507
45255W        W16981   1.671  17.644  11.198
45256W        W16982  43.735   4.767   3.673
45257W        W16983  15.781  38.224   5.125
45258W        W16984  16.002  30.102  13.530
45259W        W16985  38.033  37.631  13.581
45260W        W16986   4.804  28.713   2.127
45261W        W16987  40.687   6.754  13.551
45262W        W16988  33.152  30.141  11.748
45263W        W16989  12.404  21.212  14.511
45264W        W16990   0.532  16.133  10.747
45265W        W16991  24.546  20.357   4.238
45266W        W16992  27.044  39.227  12.971
45267W        W16993  31.413  28.529   3.183
45268W        W16994   9.929  30.028   2.253
45269W        W16995   1.361  14.314   2.220
45270W        W16996   3.824  42.294  11.135
45271W        W16997  26.495  42.254   1.510
45272W        W16998  18.883   2.836  14.422
45273W        W16999  18.349  38.968   4.580
45274W        W17000  10.526   7.356  11.249
45275W        W17001  13.328  18.639  12.685
45276W        W17002  12.640  33.896   1.278
45277W        W17003   1.600  38.022  14.439
45278W        W17004  20.498  29.424  13.093
45279W        W17005  14.253  15.220  14.917
45280W        W17006  42.508  25.425   3.114
45281W        W17007  30.704   6.262  12.038
45282W        W17008  33.360  32.133   1.577
45283W        W17009   5.465  22.742   1.861
45284W        W17010  21.343  35.925   0.240
45285W        W17011  15.301  28.681   2.917
45286W        W17012  13.087  42.367   1.822
45287W        W17013  21.987  12.556   4.574
45288W        W17014   3.314  25.263   2.796
45289W        W17015   5.466   9.325   0.747
45290W        W17016  18.987   3.314   3.758
45291W        W17017  28.733   4.889   3.630
45292W        W17018  14.728  14.658   1.389
45293W        W17019  10.934  13.245   3.122
45294W        W17020  28.498  10.925  12.553
45295W        W17021   3.341  19.021  11.755
45296W        W17022  33.418  24.447  10.090
45297W        W17023  26.100  38.133   3.405
45298W        W17024   3.488  32.661   1.755
45299W        W17025  22.271  32.979  13.426
45300W        W17026  30.610  34.673  13.075
45301W        W17027  40.950  35.503   1.706
45302W        W17028  37.791   7.838  13.070
45303W        W17029   4.971  29.828   4.162
45304W        W17030  38.960  10.920  11.537
45305W        W17031  12.506  16.241   2.945
45306W        W17032  39.165  19.488  12.453
45307W        W17033   5.974  18.557   1.126
45308W        W17034  42.711  38.493  12.915
45309W        W17035  30.707   3.868   4.532
45310W        W17036  30.690   9.794  13.337
45311W        W17037  28.857   9.834  10.962
45312W        W17038  15.592  44.378   1.917
45313W        W17039   6.781  35.410  10.559
45314W        W17040   1.213  15.370   3.241
45315W        W17041  32.587   5.657   3.892
45316W        W17042  31.783  43.361  14.036
45317W        W17043  18.641  31.905  11.702
45318W        W17044   5.182  33.937  11.641
45319W        W17045  22.149  20.177   1.257
45320W        W17046  13.763  22.857   0.029
45321W        W17047  10.202  38.103   0.576
45322W        W17048   4.322  11.858   2.431
45323W        W17049   8.816  36.613  12.934
45324W        W17050   7.255  28.260   3.165
45325W        W17051  31.583  24.142   4.717
45326W        W17052  41.066   5.542  13.631
45327W        W17053  32.501  23.009   5.542
45328W        W17054  42.357   9.355  14.337
45329W        W17055  39.832   8.235   1.230
45330W        W17056  21.079  18.067  13.921
45331W        W17057  28.454  13.661   0.299
45332W        W17058   6.740   5.413   4.126
45333W        W17059  34.299   4.833   4.092
45334W        W17060  34.417   0.394   2.251
45335W        W17061   1.737   0.662   3.258
45336W        W17062  10.426   2.149   3.260
45337W        W17063  21.923  24.511   5.275
45338W        W17064  27.020  10.743  10.608
45339W        W17065  13.774  23.464   0.911
45340W        W17066   7.229  32.345   0.275
45341W        W17067  33.543   9.661   0.190
45342W        W17068  39.739  26.043  12.643
45343W        W17069  30.613   7.426   3.289
45344W        W17070  21.352   8.359  12.334
45345W        W17071   4.263  21.630  14.596
45346W        W17072  11.722  32.641   1.707
45347W        W17073  38.872   8.654   2.152
45348W        W17074  10.219  15.364   4.287
45349W        W17075  11.034   5.784   1.424
45350W        W17076  41.042   9.190   0.472
45351W        W17077  15.217  13.969   2.200
45352W        W17078  36.524  34.392  11.430
45353W        W17079  14.377  32.384  14.018
45354W        W17080  43.718  14.689   4.539
45355W        W17081  19.174  29.885   2.150
45356W        W17082   0.249   5.318  11.609
45357W        W17083  34.853  30.598   2.653
45358W        W17084  23.764  18.078  14.260
45359W        W17085  43.426  21.328  11.848
45360W        W17086  43.311  14.763   4.242
45361W        W17087   3.773   5.717  11.540
45362W        W17088  40.495  42.224   1.429
45363W        W17089  43.069  26.260  11.098
45364W        W17090  32.014  27.389  11.584
45365W        W17091  26.457  38.954  11.708
45366W        W17092  36.492  30.453   4.520
45367W        W17093  14.390   6.272   1.784
45368W        W17094  28.596  31.555  10.788
45369W        W17095  27.786   0.188   0.799
45370W        W17096  12.250   2.370   0.510
45371W        W17097  34.371  31.250  11.569
45372W        W17098  20.766  25.240  10.419
45373W        W17099  21.434  34.559  12.021
45374W        W17100  15.209  22.715   2.197
45375W        W17101  37.663  34.142  14.441
45376W        W17102   8.717  25.066  13.566
45377W        W17103  17.114  12.536   3.581
45378W        W17104   2.792  35.385   0.942
45379W        W17105  26.689  25.011   1.851
45380W        W17106  38.571  34.056   1.917
45381W        W17107  29.769  25.086   1.642
45382W        W17108   5.573  34.559   2.862
45383W        W17109   2.307   1.265   2.210
45384W        W17110  42.372   6.076  14.464
45385W        W17111  34.367  40.777   4.541
45386W        W17112  28.546  17.286  10.661
45387W        W17113  18.046  30.911   0.225
45388W        W17114  27.088   0.432   1.535
45389W        W17115   1.161  23.279  10.748
45390W        W17116  13.343  18.754  14.466
45391W        W17117   9.304  21.053   2.486
45392W        W17118   5.769   7.121   3.137
45393W        W17119  18.143  32.942  14.511
45394W        W17120  11.697  34.351  11.979
45395W        W17121  21.340   8.842   1.876
45396W        W17122  38.070  41.919  11.426
45397W        W17123  37.953  10.165  11.617
45398W        W17124  39.303   3.944  13.998
45399W        W17125  18.586  33.149  10.714
45400W        W17126  37.608   6.847   3.653
45401W        W17127  18.813   7.755   2.199
45402W        W17128   8.655  40.408  14.350
45403W        W17129  26.216  42.926   4.967
45404W        W17130  19.293  14.441   2.444
45405W        W17131   6.856  29.667   0.023
45406W        W17132  44.198   3.789   3.626
45407W        W17133  33.926   2.276  10.666
45408W        W17134  37.422   9.709  13.566
45409W        W17135   1.103  27.768   1.239
45410W        W17136   5.314  26.462  13.430
45411W        W17137  12.042  14.773   1.773
45412W        W17138  41.539  20.597   1.885
45413W        W17139  33.134  23.195   4.888
45414W        W17140  12.469   6.211   4.442
45415W        W17141  34.916   5.776  13.104
45416W        W17142  31.065  32.041   3.255
45417W        W17143   0.518  41.991   1.571
45418W        W17144  14.936  35.086  14.168
45419W        W17145  38.911   4.260  13.997
45420W        W17146  43.007  41.921  11.101
45421W        W17147  27.315  34.335   2.327
45422W        W17148   6.673  44.718  14.713
45423W        W17149  32.692   7.458   4.965
45424W        W17150   4.940  39.074  12.196
45425W        W17151  40.710  21.423  10.375
45426W        W17152  35.095  23.895   0.228
45427W        W17153   7.563  15.610  10.835
45428W        W17154  22.388  37.209  12.509
45429W        W17155  13.579  18.180  12.452
45430W        W17156  25.110  17.733   0.821
45431W        W17157  23.077   6.057  12.948
45432W        W17158  19.292   1.826   4.584
45433W        W17159  16.220  23.094  12.145
45434W        W17160  23.430  22.537  12.331
45435W        W17161  41.379  23.980   2.394
45436W        W17162  34.427   8.404  13.618
45437W        W17163  16.352  42.567   4.819
45438W        W17164   5.323  33.629   3.695
45439W        W17165   3.976  33.015   1.912
45440W        W17166  11.192  15.213   2.132
45441W        W17167  12.227  21.590   1.780
45442W        W17168  26.997  13.261  14.422
45443W        W17169  15.613  36.615   2.153
45444W        W17170  20.684  20.159   3.670
45445W        W17171   0.341  27.177  13.447
45446W        W17172  20.520  40.528   4.172
45447W        W17173  12.051  13.606   3.204
45448W        W17174  39.464   7.726  10.650
45449W        W17175   6.671   7.341   0.311
45450W        W17176  21.876   4.587   5.006
45451W        W17177  13.368  21.531  13.574
45452W        W17178  16.143  12.883  12.174
45453W        W17179  40.914  17.597  14.802
45454W        W17180  43.844  28.629  10.644
45455W        W17181  21.414  19.675   1.058
45456W        W17182  29.728  42.098  14.944
45457W        W17183  35.488  15.257   3.698
45458W        W17184  14.475   2.744  12.983
45459W        W17185  10.268  24.717  11.096
45460W        W17186   3.245   6.759   4.091
45461W        W17187  28.675  33.206   0.370
45462W        W17188   4.216  13.181  14.399
45463W        W17189  34.662  44.532   2.852
45464W        W17190  41.726  10.552   2.270
45465W        W17191  14.179  15.280   1.506
45466W        W17192   1.332  35.361   0.464
45467W        W17193  30.167  31.639  12.071
45468W        W17194  40.812  11.911   1.293
45469W        W17195  22.751  30.687  11.157
45470W        W17196  41.474  23.988   3.295
45471W        W17197   5.241  38.898  14.746
45472W        W17198  31.638  34.583   1.262
45473W        W17199  39.042  22.334   1.589
45474W        W17200  11.127  31.289   3.214
45475W        W17201  42.064  18.082   4.131
45476W        W17202  17.111   4.328   3.100
45477W        W17203  13.828  17.689  13.917
45478W        W17204   2.755  15.481   0.377
45479W        W17205  24.924  18.776   0.291
45480W        W17206  20.368  11.717  13.613
45481W        W17207  24.376  27.527   5.396
45482W        W17208  19.141  39.907  11.630
45483W        W17209  39.504  31.868   0.211
45484W        W17210   3.843   8.660   4.647
45485W        W17211  10.821   3.417   1.766
45486W        W17212  38.896   8.956  10.670
45487W        W17213  41.276  37.269  11.393
45488W        W17214  38.666   9.953  11.906
45489W        W17215  28.581   1.731  14.249
45490W        W17216   2.168   8.203   3.818
45491W        W17217  36.193  19.598   0.982
45492W        W17218  13.076  39.843  10.520
45493W        W17219  29.436  29.455  11.537
45494W        W17220   7.368  22.736  10.921
45495W        W17221  41.706  21.568   5.021
45496W        W17222   2.378  31.936  14.371
45497W        W17223   0.197  31.945   3.302
45498W        W17224  28.145  26.254   5.128
45499W        W17225  35.106  23.193   4.492
45500W        W17226   5.407   6.676   5.412
45501W        W17227   0.899  21.721  12.411
45502W        W17228  34.725  11.976  10.744
45503W        W17229  40.870  14.135   0.364
45504W        W17230  10.089   6.704   3.129
45505W        W17231  14.841  29.972   4.130
45506W        W17232  42.439  12.419  11.207
45507W        W17233  23.734  18.781  14.449
45508W        W17234  21.533  20.033   3.168
45509W        W17235  39.775  40.196  11.877
45510W        W17236  12.387  10.210  13.463
45511W        W17237  20.050  20.193  10.571
45512W        W17238  20.945  29.199   4.881
45513W        W17239  33.264   8.152  14.750
45514W        W17240  38.460  27.084  14.392
45515W        W17241  35.027   7.443  13.974
45516W        W17242  16.200  14.091   3.835
45517W        W17243  26.681  10.664   1.253
45518W        W17244  18.466  38.351  10.526
45519W        W17245  41.731   9.738  12.818
45520W        W17246  27.384  17.547   0.973
45521W        W17247  12.474  40.816  12.428
45522W        W17248  37.999  38.606  12.477
45523W        W17249   3.204  21.522  13.362
45524W        W17250  21.032   7.946   4.295
45525W        W17251  23.302  27.673   0.891
45526W        W17252  35.928   4.908   5.106
45527W        W17253   4.860  11.956  10.710
45528W        W17254   0.424  32.909  12.530
45529W        W17255  40.962   3.972   4.837
45530W        W17256  14.140   2.892   3.733
45531W        W17257  16.429  17.239  10.657
45532W        W17258  35.562  16.211   0.096
45533W        W17259  30.084  40.373  13.403
45534W        W17260  42.179  15.473  14.887
45535W        W17261  25.931  34.535   3.390
45536W        W17262  42.827   7.068   2.728
45537W        W17263  16.617   2.273   3.709
45538W        W17264   6.603  31.885   3.130
45539W        W17265   5.602  18.654  10.693
45540W        W17266   3.262  25.508   2.330
45541W        W17267  15.480   6.402  12.779
45542W        W17268  36.638   6.273   0.236
45543W        W17269  27.454  30.891   0.334
45544W        W17270  39.957   0.912  12.460
45545W        W17271  36.948   5.750  14.383
45546W        W17272   3.995  22.192  12.213
45547W        W17273   7.017   1.431   2.703
45548W        W17274  29.017  21.205  12.422
45549W        W17275  10.110  19.921  14.975
45550W        W17276  21.518  35.389  12.382
45551W        W17277   0.758   4.414  12.853
45552W        W17278  38.359  29.596  12.163
45553W        W17279   0.108   0.564  14.319
45554W        W17280   6.253  26.885  14.854
45555W        W17281  16.042  39.042   1.843
45556W        W17282   3.671  10.645  10.489
45557W        W17283  10.111  29.751   0.491
45558W        W17284  25.833  10.755  11.944
45559W        W17285  28.632  43.256  12.157
45560W        W17286  36.401  40.042   2.682
45561W        W17287  28.941  40.965   0.507
45562W        W17288  10.676   5.702   2.459
45563W        W17289  12.122  35.649  13.356
45564W        W17290  14.674  27.289  14.394
45565W        W17291  36.899   9.685  14.303
45566W        W17292  43.193  23.309   0.030
45567W        W17293  42.368   4.277   2.407
45568W        W17294  42.703  17.051   3.814
45569W        W17295  11.122  14.101   2.254
45570W        W17296  22.043  25.388  14.327
45571W        W17297  25.565  27.239  14.246
45572W        W17298  37.852  15.172  11.375
45573W        W17299  40.479  40.778   0.756
45574W        W17300  16.358  18.965   2.706
45575W        W17301  13.917  27.588  11.859
45576W        W17302   1.816  33.472  13.403
45577W        W17303  26.590  26.480   4.033
45578W        W17304   1.465  35.940   1.429
45579W        W17305  22.063  28.021   1.190
45580W        W17306   0.049  40.031   3.000
45581W        W17307   1.776  13.269  14.815
45582W        W17308  31.367  31.064  12.066
45583W        W17309   7.907  40.922   2.375
45584W        W17310  40.475  26.234  11.583
45585W        W17311  40.607  38.552   1.929
45586W        W17312   9.883   5.752   0.761
45587W        W17313  43.579   9.331   0.805
45588W        W17314  41.432  43.134  10.673
45589W        W17315   5.394  14.023  11.067
45590W        W17316   2.252  12.329   1.754
45591W        W17317  36.928   0.401   2.994
45592W        W17318   9.362  36.986  11.426
45593W        W17319  44.421  13.132   4.523
45594W        W17320  29.096  34.767   3.285
45595W        W17321  26.743  42.232   2.446
45596W        W17322   4.741  22.119   2.377
45597W        W17323  44.257  33.489  12.064
45598W        W17324  36.469  24.540  11.545
45599W        W17325  20.053   3.908   3.773
45600W        W17326  15.272  25.456   0.198
45601W        W17327  34.787  26.009  11.036
45602W        W17328  24.879  12.801  14.500
45603W        W17329  20.719  18.017   4.496
45604W        W17330   0.022  19.083  13.373
45605W        W17331   8.345  32.925  10.738
45606W        W17332  11.412  24.633   4.069
45607W        W17333  12.799  26.868   4.858
45608W        W17334  34.550  14.544   1.121
45609W        W17335  34.450  36.515  10.782
45610W        W17336  18.083  19.996  14.395
45611W        W17337  14.209  40.011  11.887
45612W        W17338  12.623  41.750  13.526
45613W        W17339  36.480  11.312   2.055
45614W        W17340  31.530  17.244   4.130
45615W        W17341  26.074  12.185   4.377
45616W        W17342  29.926  30.432   4.578
45617W        W17343   6.658  32.033  12.029
45618W        W17344  24.535  42.236  12.116
45619W        W17345  18.061  13.787  10.776
45620W        W17346  18.797   4.206   0.763
45621W        W17347  13.337   3.127   1.701
45622W        W17348  33.603  24.066   1.332
45623W        W17349  25.887   0.741   0.887
45624W        W17350  17.416   0.317   4.975
45625W        W17351  16.999  36.289   1.176
45626W        W17352  35.661  40.348   0.706
45627W        W17353  20.537  35.169   2.742
45628W        W17354  42.662  16.324   4.207
45629W        W17355  10.393  42.878   4.673
45630W        W17356  33.896  38.802  14.077
45631W        W17357  34.655  27.801   2.790
45632W        W17358  28.436  29.469   3.212
45633W        W17359  13.863  37.979  13.768
45634W        W17360  17.705  33.618   1.741
45635W        W17361  34.626  39.876   2.352
45636W        W17362   1.820  27.553   1.879
45637W        W17363  31.157  40.352  13.377
45638W        W17364  10.965  28.192   3.094
45639W        W17365   2.548  19.716  14.963
45640W        W17366  13.699   6.315  14.321
45641W        W17367  17.941  38.300  10.573
45642W        W17368  41.439   9.772   0.026
45643W        W17369  25.764  28.805   4.925
45644W        W17370  24.569  43.404   0.203
45645W        W17371  22.470  41.803   3.766
45646W        W17372  12.873  39.964  12.596
45647W        W17373   4.992  31.537   1.588
45648W        W17374   4.725  30.568  11.018
45649W        W17375  37.418   5.916  12.078
45650W        W17376   1.654  21.985   2.852
45651W        W17377  42.970   0.882  12.434
45652W        W17378  14.617  10.979   3.290
45653W        W17379  16.623  39.719   2.641
45654W        W17380  24.512   6.144  10.598
45655W        W17381  32.603  24.000   4.668
45656W        W17382  13.390  39.422  11.975
45657W        W17383  44.447   0.243   1.351
45658W        W17384  39.447  25.554   0.428
45659W        W17385  17.316  14.196   0.701
45660W        W17386   3.285  29.435   3.160
45661W        W17387  32.200  39.484   4.257
45662W        W17388  13.180  27.709   0.725
45663W        W17389  28.227  10.264   0.471
45664W        W17390  25.471  12.708   1.446
45665W        W17391   5.326  13.809   5.320
45666W        W17392  15.289  43.840  14.711
45667W        W17393   0.235  13.054  13.524
45668W        W17394   3.350  20.480   1.329
45669W        W17395  14.216  15.823   3.692
45670W        W17396  39.840   1.693  10.647
45671W        W17397   8.427   5.736   4.579
45672W        W17398  33.953   9.922   1.340
45673W        W17399  43.531   0.363  12.041
45674W        W17400   2.422  18.829  14.007
45675W        W17401  23.179   7.900  10.852
45676W        W17402  38.811  38.416   3.869
45677W        W17403  17.038  24.695  14.250
45678W        W17404   9.976  29.044  13.230
45679W        W17405  33.631  20.488   1.746
45680W        W17406  37.519  21.378  10.585
45681W        W17407  32.139  19.663  10.335
45682W        W17408  39.326  27.195  13.802
45683W        W17409  34.074  31.055   2.188
45684W        W17410  12.741  23.457  13.133
45685W        W17411   7.669  13.257   2.730
45686W        W17412  43.090  34.492  14.731
45687W        W17413   2.932  15.851   3.816
45688W        W17414  20.875   1.187  13.369
45689W        W17415  12.786  29.278   0.908
45690W        W17416  11.638  39.382  14.567
45691W        W17417  19.584  26.245   0.480
45692W        W17418  39.650  36.831   0.886
45693W        W17419  28.061  41.111   2.928
45694W        W17420   7.948  29.633   3.876
45695W        W17421   3.444  10.524  13.885
45696W        W17422  36.589  14.238   4.601
45697W        W17423  38.043   7.007  11.034
45698W        W17424   4.663  33.329   1.308
45699W        W17425   4.937  14.608  11.827
45700W        W17426  28.570  31.203   3.625
45701W        W17427  33.062  18.455   3.399
45702W        W17428  40.479  28.595   0.424
45703W        W17429  11.220  33.095   2.301
45704W        W17430   3.989  18.374   2.546
45705W        W17431  25.793  18.307  12.959
45706W        W17432  26.559   7.775   2.863
45707W        W17433  20.615  37.067   0.259
45708W        W17434  13.580  43.060  10.612
45709W        W17435  32.156  32.719  11.546
45710W        W17436   7.490  15.195   4.132
45711W        W17437   6.410   1.536   3.842
45712W        W17438  10.297   2.030  12.457
45713W        W17439   9.202   4.006   1.194
45714W        W17440   5.260   8.440   4.167
45715W        W17441   3.989  31.716   2.222
45716W        W17442  10.278  16.110  13.397
45717W        W17443   7.597  31.346  14.997
45718W        W17444  23.196   7.009  14.028
45719W        W17445  23.767  18.268   3.817
45720W        W17446   2.740  36.143   4.637
45721W        W17447   9.829  42.949  13.432
45722W        W17448  10.658  12.484   4.624
45723W        W17449  40.280  28.276  12.967
45724W        W17450  34.933  20.573  11.152
45725W        W17451  35.757  32.166   1.630
45726W        W17452  19.719   5.198   1.496
45727W        W17453  15.864  36.953  13.837
45728W        W17454   2.948   5.949  13.738
45729W        W17455  39.769   7.420  13.869
45730W        W17456   1.392   2.274   4.221
45731W        W17457  24.703  26.126  10.712
45732W        W17458  15.639   7.365  14.740
45733W        W17459  30.181  40.411   3.827
45734W        W17460  29.897  37.593  11.075
45735W        W17461  23.290  27.041  14.021
45736W        W17462   3.450  40.358   1.781
45737W        W17463  40.916  39.073   4.861
45738W        W17464  13.631  30.936   0.435
45739W        W17465  17.762  39.108   4.152
45740W        W17466  27.709  17.645   2.083
45741W        W17467  41.311  17.211   3.559
45742W        W17468  39.394   8.889   1.956
45743W        W17469  23.973   0.335  11.047
45744W        W17470  25.443   1.789  13.113
45745W        W17471  32.439  26.421  13.418
45746W        W17472  34.371  10.354  14.418
45747W        W17473  16.291  32.969   1.700
45748W        W17474   1.284  12.413   4.042
45749W        W17475   3.996   0.700   0.281
45750W        W17476  20.445  23.704   2.870
45751W        W17477  39.320   4.877   2.395
45752W        W17478  40.805   6.380  14.659
45753W        W17479  28.256   6.145   3.602
45754W        W17480  27.453  29.386   0.280
45755W        W17481  28.672  16.212   4.263
45756W        W17482  37.874  27.705   0.378
45757W        W17483  28.708  38.790   0.384
45758W        W17484  30.091  25.529   1.810
45759W        W17485  30.331  43.268  10.715
45760W        W17486  34.901   6.885  14.927
45761W        W17487  32.006  41.945   0.129
45762W        W17488  25.617  25.651  13.461
45763W        W17489   3.043  23.023   2.814
45764W        W17490  16.329  36.610   0.450
45765W        W17491  36.019  32.618  11.502
45766W        W17492  19.626  41.598  14.460
45767W        W17493  10.933  37.119  12.913
45768W        W17494  19.616  40.181  11.104
45769W        W17495   2.944  16.366  12.874
45770W        W17496  29.554  36.433   2.710
45771W        W17497  24.917  16.127   0.021
45772W        W17498  21.767  39.084   3.738
45773W        W17499  33.487  12.729  13.941
45774W        W17500   8.784  34.670  14.279
45775W        W17501  34.023  38.007   3.360
45776W        W17502  11.161  44.238  11.431
45777W        W17503  24.884  33.974  12.786
45778W        W17504  35.407  37.975  10.574
45779W        W17505  41.765  24.527   3.715
45780W        W17506   9.284  27.044   1.079
45781W        W17507  20.734  17.712  13.046
45782W        W17508   3.311  13.702   1.282
45783W        W17509  17.744  40.917  14.857
45784W        W17510  23.266  21.680  13.870
45785W        W17511  38.059  18.429  14.481
45786W        W17512  13.712  10.076  14.770
45787W        W17513  34.868  43.833  12.466
45788W        W17514  11.803  42.379   4.818
45789W        W17515  20.706   1.353   3.674
45790W        W17516   5.909   5.319  14.458
45791W        W17517  17.240  16.199  11.089
45792W        W17518  25.124  10.245   4.490
45793W        W17519  15.160   1.410  12.148
45794W        W17520  42.207  35.687  13.055
45795W        W17521   6.746   2.788  12.429
45796W        W17522  38.160   7.843  13.968
45797W        W17523  16.125  43.922  13.028
45798W        W17524  26.513  26.965  11.397
45799W        W17525  35.506   9.659  13.412
45800W        W17526  34.860  40.512   0.341
45801W        W17527  17.737  19.405   4.525
45802W        W17528  29.658  15.534  11.925
45803W        W17529  32.107  32.264  14.920
45804W        W17530  30.977  12.079  14.930
45805W        W17531  26.040  35.143   2.330
45806W        W17532  28.420   0.880   9.963
45807W        W17533  19.686   2.553  11.230
45808W        W17534  16.855  33.930   2.486
45809W        W17535  14.417  13.218   3.145
45810W        W17536  36.827  30.498  14.419
45811W        W17537   4.910   5.769   4.070
45812W        W17538  36.381   5.700  10.667
45813W        W17539  13.834  27.374  14.958
45814W        W17540  23.473  44.457  10.945
45815W        W17541  32.484  12.358   4.056
45816W        W17542  25.179   5.373   2.276
45817W        W17543  26.670  26.362  13.524
45818W        W17544  18.843   1.018  11.173
45819W        W17545  41.565  15.820   4.627
45820W        W17546   1.894  24.533  11.399
45821W        W17547   6.319  31.136   4.169
45822W        W17548  29.538  43.771  10.431
45823W        W17549  27.103  20.969   0.899
45824W        W17550  41.103  18.589   1.404
45825W        W17551   4.704  21.308   3.196
45826W        W17552  38.914  24.094  13.270
45827W        W17553   7.305   9.196   1.274
45828W        W17554   0.218   3.992  12.462
45829W        W17555  32.673  39.108  13.043
45830W        W17556  27.401  31.961  12.565
45831W        W17557  34.782  43.852  10.950
45832W        W17558  30.934  44.340   0.132
45833W        W17559  12.141  32.917  12.512
45834W        W17560  33.450   4.231  11.512
45835W        W17561  19.489  34.297   2.344
45836W        W17562  24.251  25.879  10.671
45837W        W17563  22.583   8.218  14.882
45838W        W17564  35.521   5.888   2.870
45839W        W17565  27.184   5.862   1.401
45840W        W17566  25.763  30.599   3.785
45841W        W17567   5.695  23.299  10.572
45842W        W17568   8.156  10.775   3.818
45843W        W17569  29.034  38.088   1.333
45844W        W17570  35.391  23.266  11.097
45845W        W17571  37.915   0.760  13.341
45846W        W17572  41.752  32.950   3.089
45847W        W17573  23.338  12.537   9.910
45848W        W17574  32.119  23.293   4.277
45849W        W17575  39.510  39.567   2.318
45850W        W17576  43.612  16.137  14.557
45851W        W17577   7.890  16.752  14.971
45852W        W17578  13.999  37.536   1.625
45853W        W17579   7.783  14.120  13.833
45854W        W17580  34.517  28.500  10.737
45855W        W17581  42.914  16.998   2.893
45856W        W17582  22.662  42.071   4.167
45857W        W17583  29.699  36.097  11.682
45858W        W17584  14.166  36.340  13.581
45859W        W17585  29.222  14.586  13.020
45860W        W17586   6.759  22.785   2.734
45861W        W17587  41.400  21.069   1.685
45862W        W17588  43.816  11.853  10.459
45863W        W17589  29.165  18.752  12.289
45864W        W17590  20.628  10.078  14.869
45865W        W17591  42.334   7.735   1.698
45866W        W17592  36.635  40.383  13.357
45867W        W17593   5.827  27.004   1.996
45868W        W17594  39.023  40.839   4.605
45869W        W17595  12.299   2.109   4.754
45870W        W17596  26.172  27.710   1.655
45871W        W17597  38.477  42.804  10.428
45872W        W17598   8.699  44.975   3.180
45873W        W17599  11.434  15.808  13.599
45874W        W17600  41.321   7.329   2.103
45875W        W17601  16.086  31.895  13.637
45876W        W17602  18.491  24.526   1.027
45877W        W17603   1.260  42.388  14.329
45878W        W17604  37.295   6.646   2.267
45879W        W17605   5.927  17.005  14.357
45880W        W17606  21.050  15.894   2.865
45881W        W17607   5.227  22.157  13.370
45882W        W17608  22.970  26.044   0.326
45883W        W17609  19.566  37.038  12.616
45884W        W17610   0.472  35.406   0.842
45885W        W17611  38.374  37.688  14.878
45886W        W17612   3.680  29.132  11.734
45887W        W17613  23.085  30.692  11.538
45888W        W17614  42.805  35.565   4.584
45889W        W17615  30.363  38.924  12.904
45890W        W17616  33.173  41.916   0.111
45891W        W17617  20.090   4.179  10.695
45892W        W17618  14.545  43.834  10.428
45893W        W17619  37.177  12.945  14.873
45894W        W17620  44.456   8.142   3.550
45895W        W17621   5.175   1.705  13.553
45896W        W17622  16.682  33.976   4.095
45897W        W17623  39.272  31.009  12.430
45898W        W17624   9.168  43.906  14.258
45899W        W17625   2.235  17.181  14.530
45900W        W17626   8.787  23.462   3.805
45901W        W17627  31.126  29.329   4.037
45902W        W17628  20.132  15.152   0.875
45903W        W17629  14.677  34.088  13.811
45904W        W17630  40.177  40.788  12.615
45905W        W17631  32.613  20.490   0.180
45906W        W17632  32.350  39.315   3.272
45907W        W17633  21.752  34.906  11.510
45908W        W17634  24.050  37.575   4.590
45909W        W17635  25.154  25.514   3.668
45910W        W17636  36.793   0.372  14.449
45911W        W17637  15.216   9.961   2.415
45912W        W17638  22.082  11.134  11.580
45913W        W17639  14.440  19.553   1.990
45914W        W17640  36.994  37.291  12.197
45915W        W17641   0.676   5.376   3.578
45916W        W17642  22.197  26.108  11.555
45917W        W17643  14.713  17.591   3.618
45918W        W17644  22.551  28.603  12.524
45919W        W17645  17.617  16.943   1.789
45920W        W17646  24.458  27.115   3.823
45921W        W17647  42.905  38.309   4.915
45922W        W17648  42.360  17.717   0.223
45923W        W17649   7.770  23.060  11.615
45924W        W17650   6.968  43.437  11.125
45925W        W17651  17.076  15.176   4.126
45926W        W17652  10.186  17.906  11.209
45927W        W17653  40.965  28.549   4.870
45928W        W17654  38.624  18.864   2.260
45929W        W17655  41.545  10.712  14.072
45930W        W17656   4.368   7.901  11.741
45931W        W17657   6.824  13.075   0.211
45932W        W17658  42.976  13.560  11.974
45933W        W17659  27.004   0.520  10.643
45934W        W17660  31.102  24.220  13.476
45935W        W17661  30.599   3.965  11.598
45936W        W17662  36.689  23.255  13.479
45937W        W17663   3.792  43.470   3.615
45938W        W17664   4.549   3.799   2.620
45939W        W17665  17.302  12.960  10.685
45940W        W17666   7.434  28.614   2.163
45941W        W17667  24.929   0.361   0.890
45942W        W17668  30.782  33.304   0.793
45943W        W17669  42.538  18.636  11.167
45944W        W17670   7.938  23.776  14.009
45945W        W17671  30.031  18.370   2.227
45946W        W17672   5.694  18.565   2.872
45947W        W17673   6.517   8.400  12.433
45948W        W17674   3.675  40.997  11.103
45949W        W17675   2.296  37.971  11.116
45950W        W17676  31.523  39.256  12.335
45951W        W17677   9.334  32.931  10.689
45952W        W17678  43.293  35.937   1.917
45953W        W17679  14.331  26.808   1.427
45954W        W17680  30.080  16.441   2.693
45955W        W17681  13.541  32.777  14.532
45956W        W17682  16.648   1.320   3.236
45957W        W17683  40.310   2.874   2.770
45958W        W17684  30.457  17.578  13.064
45959W        W17685  19.780  27.427   2.150
45960W        W17686  14.845  32.012   3.130
45961W        W17687  31.945   2.470   4.220
45962W        W17688  22.238   9.441  13.031
45963W        W17689  18.628   0.809  11.589
45964W        W17690   1.278  42.325  12.811
45965W        W17691  38.474  32.129   9.875
45966W        W17692   8.435  32.006   0.752
45967W        W17693  31.585  38.741   2.723
45968W        W17694   0.225   2.811  14.586
45969W        W17695  42.864  42.419  13.525
45970W        W17696  15.933  25.558   4.199
45971W        W17697  16.842  35.557  10.634
45972W        W17698   5.184  16.523  14.896
45973W        W17699  30.454  27.664   3.583
45974W        W17700  11.096  29.676  12.539
45975W        W17701  15.114   9.076  11.174
45976W        W17702  38.044   8.748  14.476
45977W        W17703  16.318   5.257  13.521
45978W        W17704   0.180  21.284  13.519
45979W        W17705  23.971  16.227  14.587
45980W        W17706  44.517  15.941  13.309
45981W        W17707   3.404  18.951  12.488
45982W        W17708   4.320  42.002   2.641
45983W        W17709  35.802  23.773  14.059
45984W        W17710  12.433  34.355   1.411
45985W        W17711  26.997  22.081   4.024
45986W        W17712  41.229  37.284   4.114
45987W        W17713  11.543  29.910   0.448
45988W        W17714  14.959   7.500  14.955
45989W        W17715   7.157   9.249   2.256
45990W        W17716   9.708  18.406   1.786
45991W        W17717   8.199  39.530   4.031
45992W        W17718  17.286   1.968  12.424
45993W        W17719   5.473   5.395   2.827
45994W        W17720  31.560   0.047   0.524
45995W        W17721  40.488   0.542  13.488
45996W        W17722   4.213  24.240  14.507
45997W        W17723  44.512   5.690   3.374
45998W        W17724   8.865  24.315  14.998
45999W        W17725  22.341  22.728   1.872
46000W        W17726  40.458  42.040   3.309
46001W        W17727  12.985  29.987   4.665
46002W        W17728   6.129  21.732  13.441
46003W        W17729  36.950  16.760  12.483
46004W        W17730   3.293  34.603   0.978
46005W        W17731  40.005  32.941  10.696
46006W        W17732  13.741  10.541   0.004
46007W        W17733   0.836  30.007   2.225
46008W        W17734  39.163  30.499  14.933
46009W        W17735  26.993  25.215   2.428
46010W        W17736   0.836  27.546   2.618
46011W        W17737  34.468  20.753  12.959
46012W        W17738   9.664  34.737   1.826
46013W        W17739  16.627  27.180   0.931
46014W        W17740   6.695  32.861  13.489
46015W        W17741   4.674   9.693   1.282
46016W        W17742   1.783  18.936  13.843
46017W        W17743  37.053  40.639   3.233
46018W        W17744  35.052  31.202  11.996
46019W        W17745  24.460  22.674   3.409
46020W        W17746  39.768  34.568  10.492
46021W        W17747  36.420  26.363   2.651
46022W        W17748  22.442   7.756   4.122
46023W        W17749   9.671  32.946  11.098
46024W        W17750  35.680  29.908  12.548
46025W        W17751  34.583   0.731  11.155
46026W        W17752  40.552  17.870  13.837
46027W        W17753  21.760  32.876   0.985
46028W        W17754  10.801   1.278   1.707
46029W        W17755  27.571   8.893   0.891
46030W        W17756   1.438  37.387   4.582
46031W        W17757  11.506  15.328  12.408
46032W        W17758  41.304  11.408  12.596
46033W        W17759  31.987  44.710  11.531
46034W        W17760  31.175  28.943  14.050
46035W        W17761   8.731  15.847  11.631
46036W        W17762   9.635  36.913   0.274
46037W        W17763  22.231  32.128  10.541
46038W        W17764  22.991  21.713  11.559
46039W        W17765  22.368  33.250  14.888
46040W        W17766   4.132  20.699   0.181
46041W        W17767   0.437  35.953  14.368
46042W        W17768  38.497  19.941   3.262
46043W        W17769  38.136  34.285   4.123
46044W        W17770  29.500  15.748   2.749
46045W        W17771  40.507  22.590  10.235
46046W        W17772   3.278  12.661   0.256
46047W        W17773   7.614  16.692   3.336
46048W        W17774  16.427   0.027  12.819
46049W        W17775  38.836  21.473  12.475
46050W        W17776  31.015  42.398   3.340
46051W        W17777  19.640  28.693  12.030
46052W        W17778   2.859  10.351  10.705
46053W        W17779  44.433   4.879  12.958
46054W        W17780  39.500  24.451  14.368
46055W        W17781  42.881  31.279  11.558
46056W        W17782  31.078  15.877  12.586
46057W        W17783  22.078  43.159   4.907
46058W        W17784  41.005  39.888   4.077
46059W        W17785  17.911   6.204  11.866
46060W        W17786  32.392  14.693   4.547
46061W        W17787  35.403  31.077   4.736
46062W        W17788   5.121  36.685  13.409
46063W        W17789  35.123  34.421  11.237
46064W        W17790  20.223  11.682   4.214
46065W        W17791  37.896   4.869   0.234
46066W        W17792  18.774   2.315  14.374
46067W        W17793  11.923   4.401   3.803
46068W        W17794  21.086  17.038  11.612
46069W        W17795  33.081  40.860  12.862
46070W        W17796   8.346  31.825   0.259
46071W        W17797  41.793  38.432  11.617
46072W        W17798  39.291  24.156   0.298
46073W        W17799  29.520  20.260  10.799
46074W        W17800  36.273  22.162  11.142
46075W        W17801  23.191  28.298  12.449
46076W        W17802  33.422   1.778  10.633
46077W        W17803   3.339  44.244   5.217
46078W        W17804  11.570   5.683   3.696
46079W        W17805  13.212   7.950  12.132
46080W        W17806  36.617   2.813  12.968
46081W        W17807   1.405  21.049   4.611
46082W        W17808   0.418  40.250   0.848
46083W        W17809   1.917  41.599   2.150
46084W        W17810  31.337   1.815   4.134
46085W        W17811  38.651  12.873   2.100
46086W        W17812  11.597  18.237  13.810
46087W        W17813   9.666  37.429   3.780
46088W        W17814  13.276  34.804  13.921
46089W        W17815   8.731   6.235   5.236
46090W        W17816  41.386   5.218  13.914
46091W        W17817  21.189  18.041   1.531
46092W        W17818  33.127  33.482   2.191
46093W        W17819  35.822  35.534  12.875
46094W        W17820  22.188  14.350  11.042
46095W        W17821  14.333   3.968  10.701
46096W        W17822  13.157  44.211  11.998
46097W        W17823  43.042  28.216   2.667
46098W        W17824  33.010  12.475   2.167
46099W        W17825  30.912   6.578   3.120
46100W        W17826  10.120  32.118  13.158
46101W        W17827  33.836  13.161  12.539
46102W        W17828   0.901  41.556   4.624
46103W        W17829  43.008   0.805   4.437
46104W        W17830  43.990  17.261  13.246
46105W        W17831  31.380   4.432  10.689
46106W        W17832   8.277  12.094  10.669
46107W        W17833  31.367  43.775   2.336
46108W        W17834  34.517   4.296  13.391
46109W        W17835   9.850  43.450   1.714
46110W        W17836  10.654   5.409   1.768
46111W        W17837  26.613  14.161  11.502
46112W        W17838   1.248  36.968   3.383
46113W        W17839  18.080  12.089  13.326
46114W        W17840  24.214  17.223   1.424
46115W        W17841  16.670  28.526   2.428
46116W        W17842  42.258   4.258  13.582
46117W        W17843   4.610  28.454   1.671
46118W        W17844  18.751  19.108   0.534
46119W        W17845   6.561  24.121   2.890
46120W        W17846  36.968  29.238   4.117
46121W        W17847  39.428  44.527  11.199
46122W        W17848  17.096   8.616   1.259
46123W        W17849   9.776  41.882   1.843
46124W        W17850  24.202  28.483  10.716
46125W        W17851  33.702   4.687   0.422
46126W        W17852   5.935  43.362   4.082
46127W        W17853  39.267   9.106  14.319
46128W        W17854  27.406  43.266   0.348
46129W        W17855  30.168  11.875   0.940
46130W        W17856  28.233  11.168  11.148
46131W        W17857  35.921  41.936  10.656
46132W        W17858  44.384  19.547  10.257
46133W        W17859   6.754  20.724  13.104
46134W        W17860  44.190  17.967   4.232
46135W        W17861  19.246  10.936  12.026
46136W        W17862  10.195  34.970   4.186
46137W        W17863  36.721  26.393   1.938
46138W        W17864  32.537  13.317   3.610
46139W        W17865   4.986   2.539  11.924
46140W        W17866  10.622  25.755  13.795
46141W        W17867  23.227  33.674   2.166
46142W        W17868  33.019   6.503   2.844
46143W        W17869  42.860  14.446   5.021
46144W        W17870  36.817  15.804   0.834
46145W        W17871   5.507  16.902   3.669
46146W        W17872  20.486  19.119   3.265
46147W        W17873  24.853  33.504  12.572
46148W        W17874  43.786  35.824  10.643
46149W        W17875   6.844  35.474  12.131
46150W        W17876   4.689  13.409   2.325
46151W        W17877  44.188   4.815   0.565
46152W        W17878  18.229  20.990  10.215
46153W        W17879  20.668  15.766   3.184
46154W        W17880  19.681  11.746   4.517
46155W        W17881  28.722  15.809   3.884
46156W        W17882  38.474   7.432   4.696
46157W        W17883  22.068   2.393   0.994
46158W        W17884  44.494   1.805   3.815
46159W        W17885  12.411  27.107   4.546
46160W        W17886   5.194  38.085   4.192
46161W        W17887  14.110  26.385  12.563
46162W        W17888   5.473   0.515   3.978
46163W        W17889   8.932  22.184   0.890
46164W        W17890  28.998  39.547   0.639
46165W        W17891  20.285  15.068  12.890
46166W        W17892   4.858   7.226   0.085
46167W        W17893  18.481   7.481   2.496
46168W        W17894   8.646   8.819  13.361
46169W        W17895  29.076  23.113  10.629
46170W        W17896   4.948  42.396  12.637
46171W        W17897  14.396  29.189  11.974
46172W        W17898  35.527   4.678  14.460
46173W        W17899  31.328   0.037   3.872
46174W        W17900  25.412  37.847   4.693
46175W        W17901  17.808  41.494  12.508
46176W        W17902   7.342  44.432  12.504
46177W        W17903  43.901  17.154  11.440
46178W        W17904  23.982  33.549   3.494
46179W        W17905  40.245  38.985  10.798
46180W        W17906   0.651  24.286  10.938
46181W        W17907  36.955   2.598   2.406
46182W        W17908  26.892  24.438  13.149
46183W        W17909  35.524  38.918   2.774
46184W        W17910   8.471  25.586   5.534
46185W        W17911  23.943  44.519  14.978
46186W        W17912   3.246  17.557  12.648
46187W        W17913  36.535  19.653   4.583
46188W        W17914  42.994  32.734   0.345
46189W        W17915  44.602  14.039   4.082
46190W        W17916  44.880   4.984   4.255
46191W        W17917   0.805  25.993   0.055
46192W        W17918  33.809  37.823  13.962
46193W        W17919   3.936   2.196   2.811
46194W        W17920  43.221  16.659  11.432
46195W        W17921  17.659  33.140   1.205
46196W        W17922   0.590  35.608   4.705
46197W        W17923  37.486   7.806  13.497
46198W        W17924  39.312  44.727   2.566
46199W        W17925  27.039   9.423  13.932
46200W        W17926  10.168  19.713   1.004
46201W        W17927  34.446  22.509  14.630
46202W        W17928  16.731  23.777  14.287
46203W        W17929   8.931  17.735  13.448
46204W        W17930  23.604  43.844   4.350
46205W        W17931  29.420  16.078  12.507
46206W        W17932  15.498  25.741   4.371
46207W        W17933  37.458  43.445   3.663
46208W        W17934  13.043  27.736   3.811
46209W        W17935   9.353  36.180   2.757
46210W        W17936   0.786  23.726   4.163
46211W        W17937  24.426  39.448  13.065
46212W        W17938  31.449  38.526   3.748
46213W        W17939   2.814   1.837   2.890
46214W        W17940  15.839  25.467  10.563
46215W        W17941  16.259  32.854   3.668
46216W        W17942  34.014  26.416  11.399
46217W        W17943  20.805   5.351  10.758
46218W        W17944  22.545  35.790  12.456
46219W        W17945  42.462  28.244   3.784
46220W        W17946  36.011  26.558   0.398
46221W        W17947   3.802  22.999   4.599
46222W        W17948  22.317   2.764   1.795
46223W        W17949  30.585   2.410   4.145
46224W        W17950  41.436  35.246   3.509
46225W        W17951   8.953  11.700  11.946
46226W        W17952  15.294   6.894   1.850
46227W        W17953  21.632  15.229   4.991
46228W        W17954  29.369  13.855   4.859
46229W        W17955   8.385   0.850   4.934
46230W        W17956  36.399  43.893   1.841
46231W        W17957  36.029  37.079   2.789
46232W        W17958  37.820  17.775  13.451
46233W        W17959  42.110  19.967   0.751
46234W        W17960  16.644  11.118   2.670
46235W        W17961  22.634  33.033  10.141
46236W        W17962  34.805  27.080   3.756
46237W        W17963  26.145  24.656  13.295
46238W        W17964   9.322  32.305  12.903
46239W        W17965  38.156  26.675  11.547
46240W        W17966  14.885  26.674  14.486
46241W        W17967  40.839  44.836  10.588
46242W        W17968  24.984  33.931  11.974
46243W        W17969  23.949   2.193  11.154
46244W        W17970  25.526  43.704  11.559
46245W        W17971  33.089   4.866  13.975
46246W        W17972  44.808  36.931   1.928
46247W        W17973  19.163   1.546   2.338
46248W        W17974  26.126  42.693   3.736
46249W        W17975  27.935  11.314   9.942
46250W        W17976   6.677  42.094   3.201
46251W        W17977  43.937  32.419   4.466
46252W        W17978  36.435  41.283   3.161
46253W        W17979  13.859  33.511  12.643
46254W        W17980  30.868  18.773  13.378
46255W        W17981  25.608  18.241  11.704
46256W        W17982  38.594  36.555   2.851
46257W        W17983  17.723   4.949   0.593
46258W        W17984  33.364  19.526  11.026
46259W        W17985  37.893  40.461   2.533
46260W        W17986   6.727  10.497  12.805
46261W        W17987  22.692  27.070  14.816
46262W        W17988  30.105   6.715  13.575
46263W        W17989   1.993  10.673  12.072
46264W        W17990   3.521  11.865  12.233
46265W        W17991  37.850  25.613  10.459
46266W        W17992  39.390  21.533   0.762
46267W        W17993  18.782   7.375   0.243
46268W        W17994   2.878  21.186  14.924
46269W        W17995  37.683  23.243   3.605
46270W        W17996  30.375  32.611   1.447
46271W        W17997   1.654   7.705   3.141
46272W        W17998   5.799  24.060   1.423
46273W        W17999  18.310  25.763   1.143
46274W        W18000  13.351   5.887  14.235
46275W        W18001  42.568  19.958  11.108
46276W        W18002  25.313   9.809  12.231
46277W        W18003  35.916  21.623   2.515
46278W        W18004  24.052  31.255  11.400
46279W        W18005  43.833  10.292   3.714
46280W        W18006  24.480   1.302   0.945
46281W        W18007  28.461   4.728   0.777
46282W        W18008  39.654   3.974  14.635
46283W        W18009   9.332   3.411   3.747
46284W        W18010  29.991   9.269  11.409
46285W        W18011  28.012   7.135  13.972
46286W        W18012  26.647  15.578  11.625
46287W        W18013  13.753   0.465   1.277
46288W        W18014  12.899  20.024  12.984
46289W        W18015  22.771  28.719   1.822
46290W        W18016  31.603  42.043   5.282
46291W        W18017  42.466  34.541   2.739
46292W        W18018   2.815  10.390   1.332
46293W        W18019  38.778  24.775  13.947
46294W        W18020   2.999   5.858  12.955
46295W        W18021   8.815  42.500   4.585
46296W        W18022  26.214  13.148  11.591
46297W        W18023   5.036  12.874  10.534
46298W        W18024  14.884  26.058  10.821
46299W        W18025   1.762  12.283  11.211
46300W        W18026  21.847  37.646   2.176
46301W        W18027  25.089  41.333   4.218
46302W        W18028  17.302  20.544  14.752
46303W        W18029   4.941  26.265  11.125
46304W        W18030  41.931  14.396  14.350
46305W        W18031  27.197   2.455  11.882
46306W        W18032  32.124  33.386   2.344
46307W        W18033  27.095  10.377  11.934
46308W        W18034  23.156  10.621  14.629
46309W        W18035  24.296  29.978  14.014
46310W        W18036  22.228  38.982   2.821
46311W        W18037  41.650  24.874   2.588
46312W        W18038  44.965  37.099  13.927
46313W        W18039  28.019  33.352  11.638
46314W        W18040  15.632   5.429  14.735
46315W        W18041  21.535  31.655   4.182
46316W        W18042  33.202  42.325   3.992
46317W        W18043  10.164  37.633   0.400
46318W        W18044  14.098   3.271  10.492
46319W        W18045  43.401  16.517  13.239
46320W        W18046  28.059  33.178  14.013
46321W        W18047  40.748  38.056   1.944
46322W        W18048  17.711  20.542  10.708
46323W        W18049  22.990  34.981   4.366
46324W        W18050  31.191  42.964  10.218
46325W        W18051   0.729  13.722   4.195
46326W        W18052  27.541  28.042  13.894
46327W        W18053  24.243   7.791   3.176
46328W        W18054   0.944  44.389  13.024
46329W        W18055  32.357  24.130   5.110
46330W        W18056  19.782  41.896   4.095
46331W        W18057  37.050  34.938   3.865
46332W        W18058  11.478  33.639  14.469
46333W        W18059  16.068  17.479  10.957
46334W        W18060  28.388  29.443   0.787
46335W        W18061   6.915  44.836  13.017
46336W        W18062  43.788  19.018  13.503
46337W        W18063  20.057  26.491  10.453
46338W        W18064  32.901  38.607  14.855
46339W        W18065  26.906   6.574  12.573
46340W        W18066  27.550  29.508   2.754
46341W        W18067  28.635  19.751  14.375
46342W        W18068  43.876   0.533   0.499
46343W        W18069  20.387  29.118   3.676
46344W        W18070  34.903  35.973   4.120
46345W        W18071  41.928  41.600   1.272
46346W        W18072  11.981  40.500   0.873
46347W        W18073  17.258   6.160   2.400
46348W        W18074   8.850  20.643   3.287
46349W        W18075  21.658   8.172  11.481
46350W        W18076   7.933  34.540   4.207
46351W        W18077   6.935  37.989   3.371
46352W        W18078  31.713  19.704   2.811
46353W        W18079  34.109  32.612  10.511
46354W        W18080   9.954  11.668   1.403
46355W        W18081  13.762  41.258   2.287
46356W        W18082  15.351  35.343  12.584
46357W        W18083  32.556  44.437   3.816
46358W        W18084  36.077  29.953   1.797
46359W        W18085  19.309  30.681   3.856
46360W        W18086  12.185  27.553   2.879
46361W        W18087  16.173  11.227  14.223
46362W        W18088  31.973   3.026   0.722
46363W        W18089  40.424  14.511  12.920
46364W        W18090  24.191  35.593   4.211
46365W        W18091  29.644   7.734  12.095
46366W        W18092   8.162  25.815   3.582
46367W        W18093  32.361  44.828  14.382
46368W        W18094   6.379  28.148   2.155
46369W        W18095   5.727  18.002  14.358
46370W        W18096   9.036  33.285   5.033
46371W        W18097  20.265  26.699  12.884
46372W        W18098  31.686  31.697   2.747
46373W        W18099  13.108  31.432  13.942
46374W        W18100   1.332   9.719   1.366
46375W        W18101   3.646  12.372   1.366
46376W        W18102  33.305  17.189   5.090
46377W        W18103  12.149  35.371   1.872
46378W        W18104  43.445  17.974   1.390
46379W        W18105   0.537  38.522   4.828
46380W        W18106  26.029  25.968  11.902
46381W        W18107  19.794  29.966  13.992
46382W        W18108  44.824  26.097  12.049
46383W        W18109  29.496  36.903   1.072
46384W        W18110  36.970  30.065   1.391
46385W        W18111  17.231  31.876   3.423
46386W        W18112  37.472  25.646   0.259
46387W        W18113  19.602   3.853  13.831
46388W        W18114   0.397   1.488   2.350
46389W        W18115  37.086   0.409  14.875
46390W        W18116  26.536  21.313  14.733
46391W        W18117   6.602  16.625  13.840
46392W        W18118  39.534  20.334  11.068
46393W        W18119  21.155   5.600  13.503
46394W        W18120  38.355  36.479   0.754
46395W        W18121   7.947  31.226   4.476
46396W        W18122  26.622  38.913   1.940
46397W        W18123  21.573  37.287  14.023
46398W        W18124   2.830  36.375  12.873
46399W        W18125   4.392  27.183  13.996
46400W        W18126  41.872  31.021   0.258
46401W        W18127  21.668   7.827   3.775
46402W        W18128  33.260  14.917  13.479
46403W        W18129  30.386  13.625   3.225
46404W        W18130  11.415  29.612   3.724
46405W        W18131  44.466   3.959  10.724
46406W        W18132   6.333  20.110  10.668
46407W        W18133  19.053  28.504   2.579
46408W        W18134   7.672  12.556   4.261
46409W        W18135   4.887  31.803   4.098
46410W        W18136  19.127  15.180   2.751
46411W        W18137  38.290  11.522  13.110
46412W        W18138  11.620   9.933   0.043
46413W        W18139  14.754  39.023  14.352
46414W        W18140  28.417  33.519  13.592
46415W        W18141   1.358  40.268  14.337
46416W        W18142  32.625  41.003   9.707
46417W        W18143   7.630  10.603  11.967
46418W        W18144   0.950  16.118  13.712
46419W        W18145  42.006   1.351  12.948
46420W        W18146   1.375  36.818  14.962
46421W        W18147  12.247   1.368  11.692
46422W        W18148   0.329  19.204  11.971
46423W        W18149   5.178   8.262  14.038
46424W        W18150   8.786  42.845   2.317
46425W        W18151  27.914   1.429   2.813
46426W        W18152  27.656   5.892  10.590
46427W        W18153   2.014  34.555  14.869
46428W        W18154  36.095  33.599  14.842
46429W        W18155  15.041  28.406   3.304
46430W        W18156   0.529   8.702  14.947
46431W        W18157   6.060  16.820   2.685
46432W        W18158  23.126  31.958  11.435
46433W        W18159  22.288   4.698   3.693
46434W        W18160   2.358  30.377   5.213
46435W        W18161  30.464  16.629  13.059
46436W        W18162  10.284  13.867   1.757
46437W        W18163  28.691  44.067  13.948
46438W        W18164  42.397  22.409   3.200
46439W        W18165  22.486  40.093  11.897
46440W        W18166  24.634  34.890  14.874
46441W        W18167  24.072  22.776   4.729
46442W        W18168  13.696  37.926   4.386
46443W        W18169  28.840  42.336  13.815
46444W        W18170  43.037  10.746   0.440
46445W        W18171  30.324   0.717   1.759
46446W        W18172  33.975  31.372  12.489
46447W        W18173  21.674   8.768   2.277
46448W        W18174  29.344   5.331  11.644
46449W        W18175  34.959  28.969   1.462
46450W        W18176   4.041  38.917   4.098
46451W        W18177  34.698   4.916   0.354
46452W        W18178  20.567  34.591   4.279
46453W        W18179  21.021  26.707  11.753
46454W        W18180  44.395  26.260  12.296
46455W        W18181  14.706  27.543   3.843
46456W        W18182  22.054  39.781  11.889
46457W        W18183   1.694  22.600  14.964
46458W        W18184   9.071  17.683  13.952
46459W        W18185  38.261   0.960  10.086
46460W        W18186  40.580  20.000   2.325
46461W        W18187  44.186   0.520   0.083
46462W        W18188  27.938   2.791   4.484
46463W        W18189  19.120  13.149  14.384
46464W        W18190   0.192   7.982   0.335
46465W        W18191   5.762  44.431   2.688
46466W        W18192  43.979  23.783   1.863
46467W        W18193   1.858  16.822  10.627
46468W        W18194   0.731  18.007  14.028
46469W        W18195  22.497  26.084  14.778
46470W        W18196  21.023  24.504  14.776
46471W        W18197  15.747  17.772  14.977
46472W        W18198  31.366  37.325  11.502
46473W        W18199   3.966   0.185  13.976
46474W        W18200   6.348   0.849   1.964
46475W        W18201  43.929  41.460  11.190
46476W        W18202  37.995  44.839   0.631
46477W        W18203  11.437  36.898   0.301
46478W        W18204  22.475  13.723  13.776
46479W        W18205  25.663  34.290   0.178
46480W        W18206  11.232  39.398  14.244
46481W        W18207  23.670  39.509   2.267
46482W        W18208  17.036  10.412  13.204
46483W        W18209  16.636  43.269  13.545
46484W        W18210   2.781   2.237  11.381
46485W        W18211   0.906  32.924  13.668
46486W        W18212  23.917   6.798  12.387
46487W        W18213  12.387  34.927  10.543
46488W        W18214  28.744   4.726  13.478
46489W        W18215  31.187  32.782  12.352
46490W        W18216  12.123  33.037   1.484
46491W        W18217   0.497  13.902   2.383
46492W        W18218  11.844   9.821   0.533
46493W        W18219  18.304  23.560   4.168
46494W        W18220  15.373   3.740  11.577
46495W        W18221  44.480  41.814  14.531
46496W        W18222  27.112  37.414  10.037
46497W        W18223   1.849  38.583   0.898
46498W        W18224  11.643  16.674   2.855
46499W        W18225  29.722  35.641   1.453
46500W        W18226  23.606  22.786  11.522
46501W        W18227  26.181  25.013   1.910
46502W        W18228  43.679  38.749  11.109
46503W        W18229  21.452  18.526  11.102
46504W        W18230  40.429  27.555  11.183
46505W        W18231  30.820  29.996  10.464
46506W        W18232  32.101  23.686  13.932
46507W        W18233   4.856  30.128  14.761
46508W        W18234  31.605  20.766  10.727
46509W        W18235   0.137  10.528  13.364
46510W        W18236  41.383   5.583   2.526
46511W        W18237   3.337  29.010   5.006
46512W        W18238  10.181   5.699  14.242
46513W        W18239  23.646  10.640  11.836
46514W        W18240   0.868  12.549   0.030
46515W        W18241  23.873  21.226  14.239
46516W        W18242  29.931  28.426  12.349
46517W        W18243  29.048  16.256  13.797
46518W        W18244  16.161  32.941  11.107
46519W        W18245  23.784  40.829  14.929
46520W        W18246  30.495  29.977   0.385
46521W        W18247  35.604  16.681   2.291
46522W        W18248  10.126   2.324  14.870
46523W        W18249   5.675   8.257  14.285
46524W        W18250  18.044  22.344  10.595
46525W        W18251  27.521   1.779  11.522
46526W        W18252  13.235  19.278   3.464
46527W        W18253  27.156  41.936  11.633
46528W        W18254  41.885  12.441   4.092
46529W        W18255  30.093  30.594   1.810
46530W        W18256   3.784   5.174  14.027
46531W        W18257   5.511  24.998  12.514
46532W        W18258  18.021  31.935  14.374
46533W        W18259   1.165  32.714  14.411
46534W        W18260  43.278  32.497   0.712
46535W        W18261  44.817  31.111   3.613
46536W        W18262  18.067  37.276  11.961
46537W        W18263   0.865   3.983   0.289
46538W        W18264   9.118  35.135   1.381
46539W        W18265   3.955  18.946  12.444
46540W        W18266  31.588  11.540  11.041
46541W        W18267  24.136   6.470   1.301
46542W        W18268  35.066   8.455  13.018
46543W        W18269  37.824  11.571  14.024
46544W        W18270   4.331  40.097   1.983
46545W        W18271  38.282  20.728   0.944
46546W        W18272   2.287  28.320   2.751
46547W        W18273  20.240  39.015  11.561
46548W        W18274   7.723  28.059  13.894
46549W        W18275  35.028  43.456  11.153
46550W        W18276  11.736  12.113   1.874
46551W        W18277   9.439   3.023   0.218
46552W        W18278  19.547   6.237  12.416
46553W        W18279  43.199  26.932  12.826
46554W        W18280  44.407  43.108  14.967
46555W        W18281  17.518   5.667   4.195
46556W        W18282  19.070  31.143   4.207
46557W        W18283   2.171   0.128  11.998
46558W        W18284  31.100  24.528  11.061
46559W        W18285  17.500  15.250  14.408
46560W        W18286  30.053  12.243  14.534
46561W        W18287  39.064  17.568   4.576
46562W        W18288  33.683   3.754  11.556
46563W        W18289   0.535  17.889   3.175
46564W        W18290  41.361  34.921  10.857
46565W        W18291   2.269   0.775   1.257
46566W        W18292  11.217   0.899   2.305
46567W        W18293  22.033  24.561   1.833
46568W        W18294  11.939  17.176  14.472
46569W        W18295  23.207  44.048   4.628
46570W        W18296  35.837  36.976  14.319
46571W        W18297  23.103  37.531  13.578
46572W        W18298  21.193   8.827   4.568
46573W        W18299  44.706  43.473  11.568
46574W        W18300  12.660  18.122   1.807
46575W        W18301  31.324  19.512   2.512
46576W        W18302  17.107  44.004   2.314
46577W        W18303  27.605  32.233  11.771
46578W        W18304  37.058  11.667   1.876
46579W        W18305  24.504  22.280  11.089
46580W        W18306   7.120  28.346   1.785
46581W        W18307  20.709  36.521   3.760
46582W        W18308  16.042  21.244   0.150
46583W        W18309   0.012  11.898  14.786
46584W        W18310   4.058  13.129  12.952
46585W        W18311  13.341   3.618   2.945
46586W        W18312  41.637   6.714  14.940
46587W        W18313  41.046  21.105  10.608
46588W        W18314  15.503  31.387   4.227
46589W        W18315  12.075  21.655  11.406
46590W        W18316  37.898  33.551   1.780
46591W        W18317  36.472   5.883  14.689
46592W        W18318  17.072  29.469   2.493
46593W        W18319  39.764   8.343   3.577
46594W        W18320  24.578  27.923   0.469
46595W        W18321  18.621  34.451  14.895
46596W        W18322  25.692  16.099  14.757
46597W        W18323  27.306   2.128  13.332
46598W        W18324  43.181   7.877  10.647
46599W        W18325  21.826  10.130  14.940
46600W        W18326  11.957  12.743  13.966
46601W        W18327   5.554  27.190  11.800
46602W        W18328  17.646   6.073   4.468
46603W        W18329  25.758  44.590  12.475
46604W        W18330   2.719  11.817   3.103
46605W        W18331   8.448   2.002  14.399
46606W        W18332  35.430  10.867  11.191
46607W        W18333  14.701   9.718   4.608
46608W        W18334  30.443   3.729  12.876
46609W        W18335  30.908   6.966  12.631
46610W        W18336  11.429  35.542   4.158
46611W        W18337  37.950  40.935  14.848
46612W        W18338  21.110   7.421  14.391
46613W        W18339  43.589  29.411   0.730
46614W        W18340  18.489  12.598   1.800
46615W        W18341   1.505   6.785   3.642
46616W        W18342  31.119   1.389  14.732
46617W        W18343  27.705   6.318   0.783
46618W        W18344  39.955  14.219   0.887
46619W        W18345  20.162  10.334   4.702
46620W        W18346  33.046  19.595  14.103
46621W        W18347   4.461  37.573   3.358
46622W        W18348  38.316   2.615  12.008
46623W        W18349   3.936   1.401  14.949
46624W        W18350  26.531  39.958  12.471
46625W        W18351  23.455  44.583   2.774
46626W        W18352   1.885   5.339   1.936
46627W        W18353  13.404  16.104   2.807
46628W        W18354  37.022  39.005   4.541
46629W        W18355  37.262  14.645   1.894
46630W        W18356  41.014  43.946  13.731
46631W        W18357  37.349   6.456  13.853
46632W        W18358   6.627  32.045   4.490
46633W        W18359   4.441  42.484  12.949
46634W        W18360  34.514  44.229   2.174
46635W        W18361  16.662   8.611  12.190
46636W        W18362  32.806   9.688   0.768
46637W        W18363  12.653   9.722  12.412
46638W        W18364  33.027  12.065  14.852
46639W        W18365  16.809  41.609   0.493
46640W        W18366   5.629  35.112  14.649
46641W        W18367  31.565  22.017  12.911
46642W        W18368  25.716   7.832  14.727
46643W        W18369  32.585  12.565  12.419
46644W        W18370  38.134   3.506  11.639
46645W        W18371   4.842  26.576  10.703
46646W        W18372   8.469  29.028  14.279
46647W        W18373  37.885  24.476  10.705
46648W        W18374  31.998  39.352  11.847
46649W        W18375  43.388  34.159   0.465
46650W        W18376  29.813  26.106  10.083
46651W        W18377  12.383  27.622  14.698
46652W        W18378  38.585  33.466  11.839
46653W        W18379  11.857  31.473   4.253
46654W        W18380  15.355   9.221   1.742
46655W        W18381  19.122  22.593   3.902
46656W        W18382  25.905  43.927  13.348
46657W        W18383  25.567  27.071  12.452
46658W        W18384  35.851   5.862  11.480
46659W        W18385  39.693  33.593  14.401
46660W        W18386  16.559   7.232  14.851
46661W        W18387  27.653   4.963   1.282
46662W        W18388  38.040  40.494   4.729
46663W        W18389  21.022  14.732   4.628
46664W        W18390  30.672  38.303   4.315
46665W        W18391  25.100   5.188  11.052
46666W        W18392  39.837   1.242   1.473
46667W        W18393  33.983  14.266   2.776
46668W        W18394  27.872  27.889   5.029
46669W        W18395  41.467  10.843   3.095
46670W        W18396  43.965   9.829  14.774
46671W        W18397   1.056   1.679  14.036
46672W        W18398  14.184  41.721   3.343
46673W        W18399  26.899  14.735   4.543
46674W        W18400   1.413   7.686  13.574
46675W        W18401   4.396  36.589   0.276
46676W        W18402   6.284  20.819   4.607
46677W        W18403  20.681  32.472   4.303
46678W        W18404  23.233   9.872  11.025
46679W        W18405  12.640  15.294   3.686
46680W        W18406  20.034  36.860  12.420
46681W        W18407   2.779  16.359  11.873
46682W        W18408  31.427  27.808   1.959
46683W        W18409  14.745  36.447   3.032
46684W        W18410  12.297  36.343   3.659
46685W        W18411   7.440  15.567  13.913
46686W        W18412  20.723  23.973   0.920
46687W        W18413  31.355  13.816  13.770
46688W        W18414   9.765  40.966  10.750
46689W        W18415  42.621  40.351   3.642
46690W        W18416  28.990   4.943  13.059
46691W        W18417  21.954  27.544   2.416
46692W        W18418  25.604   9.431   0.305
46693W        W18419  16.769  32.092  11.156
46694W        W18420  24.232  22.875   1.690
46695W        W18421  24.970  16.536  10.873
46696W        W18422  24.003  13.856   4.763
46697W        W18423  33.919  31.895  14.718
46698W        W18424   4.252   9.786   0.999
46699W        W18425  36.621  20.061  10.941
46700W        W18426  26.447  40.776   0.335
46701W        W18427  28.851  11.772  14.405
46702W        W18428  39.810  44.816   2.303
46703W        W18429   8.947  35.370  11.868
46704W        W18430  32.537  19.399  14.265
46705W        W18431   2.898   1.698   0.120
46706W        W18432  31.795  19.607   2.278
46707W        W18433  32.546   6.257   4.816
46708W        W18434  41.408  19.610  11.950
46709W        W18435  21.018  22.627   3.146
46710W        W18436  44.730  21.990  13.430
46711W        W18437  35.971  27.214   1.726
46712W        W18438  24.517  43.414   1.686
46713W        W18439   5.166   5.820  12.207
46714W        W18440  11.040  14.074  11.094
46715W        W18441  41.735  26.542   1.261
46716W        W18442  12.243  13.323  11.161
46717W        W18443   2.290  33.569   3.142
46718W        W18444   3.243  36.843  14.902
46719W        W18445  31.262   9.604   1.784
46720W        W18446   7.658  21.190   2.796
46721W        W18447  22.581  34.784   4.100
46722W        W18448  12.869   8.904   0.728
46723W        W18449  12.779   3.192  14.982
46724W        W18450  21.467   7.665   4.435
46725W        W18451  40.993   2.417   4.601
46726W        W18452  39.390  33.319   4.451
46727W        W18453   6.733  19.097   3.639
46728W        W18454  41.829   2.431  13.412
46729W        W18455  23.280  17.908   4.964
46730W        W18456  18.649  44.487   0.916
46731W        W18457  42.708  39.061   1.739
46732W        W18458  43.272  15.253  11.169
46733W        W18459  31.002  22.012   4.626
46734W        W18460  31.636   2.297  11.369
46735W        W18461  28.576   3.697   2.864
46736W        W18462  10.135  43.412  13.453
46737W        W18463   8.791  18.614   0.440
46738W        W18464  35.339  19.183   1.750
46739W        W18465  15.079  24.654  14.897
46740W        W18466  15.714  25.080   2.255
46741W        W18467  31.900  17.853  14.892
46742W        W18468  24.465  26.151  10.263
46743W        W18469   2.341  31.097   2.679
46744W        W18470  13.406  19.055  14.059
46745W        W18471  25.351  12.736   1.967
46746W        W18472  13.838  24.611  11.528
46747W        W18473  12.203   5.237   2.695
46748W        W18474  26.626   6.139  14.319
46749W        W18475   2.419   2.100   2.640
46750W        W18476  35.334  25.493  11.036
46751W        W18477  21.216  36.974   0.972
46752W        W18478  17.704  28.974   1.869
46753W        W18479  26.951  26.839   4.112
46754W        W18480  25.953  42.583   3.111
46755W        W18481  20.011  39.808   2.441
46756W        W18482  23.138  42.277  13.894
46757W        W18483  16.840  21.785  13.400
46758W        W18484  34.036   3.369   3.187
46759W        W18485  35.421  14.899  14.226
46760W        W18486  17.861   5.309  11.543
46761W        W18487  14.809  42.931   3.165
46762W        W18488  42.759  15.267  13.399
46763W        W18489   0.381  40.945   2.656
46764W        W18490  10.738  35.294   9.948
46765W        W18491  34.504   2.432  14.282
46766W        W18492  13.330  23.296   0.695
46767W        W18493  28.599  31.010  11.659
46768W        W18494  12.650  18.477   2.594
46769W        W18495  13.282  12.573   3.599
46770W        W18496  26.191  13.091   4.739
46771W        W18497  21.021   2.318  10.907
46772W        W18498   1.306  29.700  14.708
46773W        W18499   1.327  27.777  14.813
46774W        W18500   5.648  41.871   3.772
46775W        W18501  31.462  39.873   2.139
46776W        W18502  39.990  11.437  11.147
46777W        W18503  17.470  17.567  12.611
46778W        W18504  11.205  20.268  13.949
46779W        W18505  15.993   7.009  12.107
46780W        W18506  22.900  32.709  11.110
46781W        W18507   9.854  43.194  12.053
46782W        W18508  30.789  18.149   0.630
46783W        W18509  17.575  12.622   2.747
46784W        W18510  41.573  16.318  11.128
46785W        W18511  16.226  14.888  14.851
46786W        W18512  17.087  29.990  13.585
46787W        W18513  10.200  12.276   2.209
46788W        W18514  29.636  11.091   0.896
46789W        W18515  15.272  33.553   4.123
46790W        W18516  28.933  43.574  10.623
46791W        W18517  12.324   8.363   3.302
46792W        W18518   1.946  12.465   3.819
46793W        W18519  17.774  26.651  12.129
46794W        W18520  40.436   8.698  14.025
46795W        W18521  42.287   4.407   3.757
46796W        W18522  39.844  31.935  12.848
46797W        W18523  21.555   6.749  14.763
46798W        W18524  21.266   3.290   0.592
46799W        W18525   2.007  38.087   4.283
46800W        W18526   5.534  11.609   9.675
46801W        W18527  17.357  22.375   4.306
46802W        W18528  39.109  23.557   1.751
46803W        W18529  25.519  12.939   4.115
46804W        W18530  40.928  20.817  11.554
46805W        W18531   9.326  22.773  14.029
46806W        W18532  27.622   5.601  11.014
46807W        W18533   8.854  44.869   4.217
46808W        W18534  31.689  28.345  12.962
46809W        W18535  44.310   7.907  11.027
46810W        W18536  21.549   8.817   3.710
46811W        W18537  22.790  19.073   0.555
46812W        W18538  40.528   8.628  13.008
46813W        W18539   5.212  32.585  11.448
46814W        W18540  39.421  18.333   4.002
46815W        W18541  12.367  40.570   1.300
46816W        W18542  32.981  32.008   0.493
46817W        W18543  28.980  38.794  12.964
46818W        W18544  17.203   6.917  13.532
46819W        W18545  20.276  21.815   4.285
46820W        W18546  12.632  24.440  12.012
46821W        W18547  33.259  16.165   1.316
46822W        W18548  15.333  34.958   3.531
46823W        W18549  16.654  31.422   2.670
46824W        W18550  42.227   4.936   3.662
46825W        W18551   1.470   9.255   1.570
46826W        W18552   4.784   9.814  10.648
46827W        W18553  20.654  21.224   0.442
46828W        W18554  17.868  38.436  14.928
46829W        W18555   2.334  23.508   0.895
46830W        W18556  16.823  39.987   0.950
46831W        W18557  14.530  23.698   1.354
46832W        W18558   3.261  32.093  13.284
46833W        W18559  14.191   9.481   0.440
46834W        W18560   4.830   5.163  13.021
46835W        W18561  25.288  39.559  11.014
46836W        W18562  29.053   8.452  11.138
46837W        W18563  35.426  23.930   4.181
46838W        W18564  14.158  40.011  12.980
46839W        W18565  12.916  40.791   1.855
46840W        W18566  15.611   3.322   2.396
46841W        W18567  24.616  41.832   2.147
46842W        W18568  25.001  17.232   4.563
46843W        W18569  12.681  25.447  11.109
46844W        W18570  19.104   7.414  13.434
46845W        W18571  26.445  12.002   1.162
46846W        W18572  17.165  41.357   4.743
46847W        W18573  26.192  44.896   2.308
46848W        W18574  29.002  31.209  11.917
46849W        W18575  44.825  19.275   2.075
46850W        W18576  37.625  38.381   2.413
46851W        W18577  40.097  25.616   1.763
46852W        W18578  40.956  23.195  14.271
46853W        W18579  30.587  39.887   2.656
46854W        W18580  35.834  19.812   0.694
46855W        W18581  33.181  36.976  14.822
46856W        W18582  23.729   7.701   3.179
46857W        W18583  26.168  27.716   4.750
46858W        W18584  11.768  19.795   3.587
46859W        W18585  12.713  19.676   4.971
46860W        W18586   5.743  18.765  12.657
46861W        W18587  39.348  40.382  11.694
46862W        W18588  38.367   4.224   1.931
46863W        W18589  16.283  12.021  11.776
46864W        W18590   6.069  26.005  13.530
46865W        W18591  32.548   3.747   4.304
46866W        W18592  35.064  30.960   3.989
46867W        W18593  30.985  21.576  11.555
46868W        W18594   5.228  19.581  10.769
46869W        W18595  18.476  32.047   3.648
46870W        W18596   2.293  33.784   4.291
46871W        W18597   0.998  44.691  13.930
46872W        W18598  39.853  36.513  13.581
46873W        W18599  42.475  17.098   0.964
46874W        W18600  32.940   8.982   3.549
46875W        W18601  30.551   4.996  11.506
46876W        W18602   1.296  20.672  14.466
46877W        W18603   8.615  35.964  13.917
46878W        W18604  10.038   1.686   0.371
46879W        W18605   9.829  34.288  13.663
46880W        W18606  12.749  25.669   1.270
46881W        W18607  14.359  38.000   0.054
46882W        W18608  17.313  34.359  13.788
46883W        W18609  32.807  32.936  10.621
46884W        W18610   5.330  42.515  10.751
46885W        W18611  12.722   9.354  12.026
46886W        W18612  42.546  33.036  14.506
46887W        W18613  34.416  44.891  13.958
46888W        W18614  44.905  43.532   4.040
46889W        W18615  32.970   7.761   4.092
46890W        W18616   5.443  26.643   1.379
46891W        W18617  20.237  41.068   1.016
46892W        W18618   5.671   9.150  14.278
46893W        W18619   6.911  21.569  14.440
46894W        W18620  37.566  27.959   4.034
46895W        W18621  41.461  13.151  14.381
46896W        W18622  12.187   0.886   4.558
46897W        W18623  24.566  34.443   4.574
46898W        W18624  35.584  26.279  11.828
46899W        W18625  12.800  31.131  14.281
46900W        W18626   4.954  28.871  11.096
46901W        W18627  11.679   6.731  13.049
46902W        W18628  39.686  11.184   4.105
46903W        W18629   2.806  41.027  10.513
46904W        W18630  16.881   1.721  14.953
46905W        W18631  25.700   1.053   1.773
46906W        W18632  36.945  22.245  14.473
46907W        W18633  25.233   4.646   0.952
46908W        W18634  40.072  35.180  13.541
46909W        W18635  44.348  27.198   2.326
46910W        W18636  29.280  23.355  13.907
46911W        W18637  12.350  13.137   3.948
46912W        W18638  37.813  25.283  13.518
46913W        W18639  10.187  21.143   0.398
46914W        W18640  33.725  12.384   0.159
46915W        W18641  33.471   3.936  10.676
46916W        W18642   1.431  13.123   1.256
46917W        W18643  23.404  28.977  14.020
46918W        W18644   5.848   9.913   2.856
46919W        W18645  20.024  23.820   4.935
46920W        W18646  42.553   9.688   0.775
46921W        W18647  29.400   5.742   2.718
46922W        W18648  28.144  27.250   3.878
46923W        W18649   3.864  20.065   4.496
46924W        W18650  36.995  38.978   0.052
46925W        W18651  10.323  44.392  14.330
46926W        W18652  22.265  36.617  13.954
46927W        W18653  14.931  16.368  11.041
46928W        W18654  10.539   6.077   4.934
46929W        W18655   0.184  21.516  10.618
46930W        W18656  26.738  24.482   4.665
46931W        W18657  25.161  31.539  10.697
46932W        W18658  32.584  13.332  12.975
46933W        W18659  19.933  38.095   0.854
46934W        W18660   1.319  15.889   1.882
46935W        W18661   4.285  20.740   2.228
46936W        W18662  16.978  12.332  14.318
46937W        W18663  32.150  34.450   3.382
46938W        W18664  17.507   8.760  13.298
46939W        W18665  30.119  31.833  12.885
46940W        W18666  44.464   2.302  13.545
46941W        W18667  32.987  40.006   4.245
46942W        W18668  15.005  27.014  14.122
46943W        W18669   4.958   7.251   2.893
46944W        W18670  18.124  30.273  10.342
46945W        W18671   0.021  39.776   3.646
46946W        W18672  34.518  12.832  10.740
46947W        W18673  21.699   3.468   3.635
46948W        W18674  44.419  33.835  13.016
46949W        W18675  39.906   3.997   4.659
46950W        W18676  25.505  41.296  13.532
46951W        W18677  39.615  39.481  12.480
46952W        W18678   1.389  37.001   2.869
46953W        W18679   0.282  33.167   0.314
46954W        W18680  28.119  11.713   0.816
46955W        W18681  15.284   5.771  13.014
46956W        W18682  15.240  16.019   2.234
46957W        W18683  10.638  35.429  12.858
46958W        W18684  20.835  31.017   1.828
46959W        W18685  33.519   5.760  11.160
46960W        W18686  40.472  40.905   4.187
46961W        W18687  10.143   2.833  14.847
46962W        W18688  41.575  13.767   3.840
46963W        W18689  39.011  17.560   0.270
46964W        W18690   1.831  35.795   4.557
46965W        W18691  11.343  24.594  10.400
46966W        W18692  16.131  14.368   1.310
46967W        W18693  19.939   9.847   0.354
46968W        W18694   8.814   4.737   1.698
46969W        W18695  44.368   7.079  13.476
46970W        W18696   7.385  13.156  13.841
46971W        W18697   6.866  43.535  14.556
46972W        W18698   8.747  13.632   0.169
46973W        W18699  17.566  20.683   4.990
46974W        W18700  23.049   3.229   0.938
46975W        W18701  41.410  23.469  11.537
46976W        W18702  42.828  30.755  11.505
46977W        W18703  19.100  31.133  14.569
46978W        W18704   6.848  16.005  14.794
46979W        W18705  27.189  23.613   2.032
46980W        W18706  33.879  21.113   2.344
46981W        W18707   3.290   9.741   3.303
46982W        W18708  30.078  24.434   4.625
46983W        W18709  40.873  27.316  12.389
46984W        W18710  21.667  19.181  12.441
46985W        W18711  19.790  12.728   2.377
46986W        W18712  38.249  32.602  10.962
46987W        W18713  17.139   6.335   1.940
46988W        W18714  11.882  17.172   5.018
46989W        W18715  13.821  35.584   4.819
46990W        W18716  21.229  16.321   2.619
46991W        W18717  17.132  34.922  13.546
46992W        W18718  44.442  18.130  13.681
46993W        W18719  38.648  14.291   1.835
46994W        W18720  40.027  22.096   2.610
46995W        W18721  39.328  12.691  11.517
46996W        W18722  38.290  38.272  13.053
46997W        W18723  42.284  41.711  11.593
46998W        W18724  28.097  38.309   2.555
46999W        W18725  35.954  22.208  12.713
47000W        W18726  33.504  23.619  14.197
47001W        W18727   3.311  23.058   4.400
47002W        W18728  24.362  18.595   4.633
47003W        W18729  19.810   9.179   2.637
47004W        W18730   3.699  18.188   3.508
47005W        W18731  30.728  10.895   2.909
47006W        W18732  23.899  40.088   3.870
47007W        W18733  38.060  36.151  12.471
47008W        W18734   9.581  13.929   2.348
47009W        W18735   0.913   8.147   0.756
47010W        W18736   1.825  26.774   1.374
47011W        W18737  12.374  12.362   0.736
47012W        W18738  37.017  29.671  10.740
47013W        W18739  22.609  24.322  10.668
47014W        W18740   5.839  14.722  11.856
47015W        W18741  34.603  41.080   4.068
47016W        W18742   6.385   5.458  10.468
47017W        W18743  32.189  11.910   0.746
47018W        W18744   4.876  34.516   2.218
47019W        W18745  34.549  33.417   0.799
47020W        W18746  32.547   3.687  10.460
47021W        W18747  15.870  12.250  11.977
47022W        W18748  36.045  43.328   3.997
47023W        W18749   3.158  41.409  10.493
47024W        W18750  11.678  32.674   1.154
47025W        W18751  19.259  33.012  13.886
47026W        W18752   3.930   4.466  12.564
47027W        W18753   2.400  15.644   3.680
47028W        W18754  37.881  12.331   2.164
47029W        W18755   6.057  26.938   2.486
47030W        W18756  11.090   6.138  14.059
47031W        W18757  17.365  18.217  10.558
47032W        W18758  28.454  14.765   0.203
47033W        W18759  31.380  34.628  12.460
47034W        W18760  27.448   8.382  10.657
47035W        W18761  24.695  28.381   1.727
47036W        W18762  16.833  38.089  12.018
47037W        W18763  17.598   4.511   3.720
47038W        W18764  34.420  21.608  12.823
47039W        W18765  40.786   1.223  10.633
47040W        W18766  16.598  23.996   3.214
47041W        W18767  12.088  42.942  12.383
47042W        W18768  20.620  44.951  13.458
47043W        W18769  11.352  23.271  10.866
47044W        W18770  44.271  12.968   0.722
47045W        W18771  34.339  23.266  12.648
47046W        W18772  18.594   7.370   3.796
47047W        W18773  19.105  16.074   3.403
47048W        W18774  36.375  24.999  14.584
47049W        W18775   7.248  36.438   3.106
47050W        W18776  36.272  10.348  14.490
47051W        W18777  40.028  39.460   2.160
47052W        W18778  39.990  30.859  10.791
47053W        W18779  34.614  17.141  12.041
47054W        W18780  31.200  31.685   4.118
47055W        W18781  35.141  13.987  11.651
47056W        W18782  19.122  16.567  11.069
47057W        W18783  20.300   2.665   0.505
47058W        W18784   7.183  16.804   0.747
47059W        W18785   6.285  32.006  11.660
47060W        W18786  41.467  18.605   4.622
47061W        W18787   4.237   9.961   2.065
47062W        W18788   9.485   3.549   0.966
47063W        W18789  18.736  24.935  12.041
47064W        W18790  29.653  42.518  13.858
47065W        W18791  36.054   5.968   2.788
47066W        W18792  24.009  16.644   1.260
47067W        W18793  31.612  38.791   3.238
47068W        W18794  12.302   1.773   2.212
47069W        W18795  33.973  11.268  11.202
47070W        W18796  10.583  34.990  12.555
47071W        W18797  42.421  36.482   2.171
47072W        W18798  21.091  44.351  12.555
47073W        W18799   1.012  18.753  13.113
47074W        W18800  16.618  17.251   1.931
47075W        W18801  14.584  31.320  13.017
47076W        W18802  42.959   3.900  14.274
47077W        W18803  21.546  35.371  11.627
47078W        W18804  43.977  11.320  11.168
47079W        W18805   9.920  14.709   0.024
47080W        W18806   3.654   0.387  11.117
47081W        W18807   3.708  40.092   0.796
47082W        W18808  43.336   9.149   4.897
47083W        W18809  36.499  33.562  11.080
47084W        W18810   6.764   3.568   3.626
47085W        W18811   8.330   4.392   1.267
47086W        W18812  12.018  37.502  14.130
47087W        W18813  11.175  23.583   3.183
47088W        W18814  23.629  31.924  11.455
47089W        W18815  12.584  17.540   2.089
47090W        W18816  38.515  22.757  12.915
47091W        W18817  36.578  44.450  14.455
47092W        W18818  34.106  37.815   2.885
47093W        W18819  41.572  37.155  13.646
47094W        W18820  18.407  34.961  14.730
47095W        W18821  17.777  36.290   0.502
47096W        W18822  33.063  26.953   2.833
47097W        W18823  28.570  15.164  10.810
47098W        W18824   8.859  28.683   4.149
47099W        W18825  32.641   5.501  10.993
47100W        W18826   8.898  24.015   5.009
47101W        W18827  30.783  34.700   5.032
47102W        W18828  13.435  18.612   0.696
47103W        W18829  31.459  38.795   0.309
47104W        W18830  31.002  41.487   4.334
47105W        W18831  32.089   7.554  12.301
47106W        W18832  41.017  35.580  12.413
47107W        W18833  21.693  10.875  13.363
47108W        W18834  33.218   1.362  14.107
47109W        W18835  28.670  30.685  13.570
47110W        W18836  39.325  39.793  14.019
47111W        W18837  36.374  30.352   5.007
47112W        W18838  10.408  25.611   1.018
47113W        W18839   2.299  26.999   1.228
47114W        W18840  33.054  32.657  11.399
47115W        W18841   4.509   0.552  10.986
47116W        W18842  32.929   5.948  12.213
47117W        W18843  15.167  28.479   2.443
47118W        W18844   9.267  43.844  13.742
47119W        W18845  21.761  40.340   5.009
47120W        W18846   8.831  29.900  13.258
47121W        W18847  41.016  37.161  10.969
47122W        W18848  33.501  43.937  12.045
47123W        W18849  27.082  42.415  11.849
47124W        W18850  37.640  24.023  10.695
47125W        W18851   4.586  13.951   0.807
47126W        W18852  16.357  24.596   4.281
47127W        W18853   0.823   0.031  13.504
47128W        W18854  23.500  23.184   3.197
47129W        W18855  32.395  38.657   2.710
47130W        W18856   9.062  26.169  11.654
47131W        W18857  12.652  12.836  13.624
47132W        W18858  10.269  35.374  12.461
47133W        W18859  25.491  21.579   3.859
47134W        W18860  28.949   9.211   3.966
47135W        W18861  14.514  19.123  11.976
47136W        W18862   1.105  35.826   4.023
47137W        W18863   6.002  41.004  14.857
47138W        W18864  36.963   4.041  13.875
47139W        W18865  16.059  26.372   1.523
47140W        W18866  12.129  17.564   3.349
47141W        W18867  19.760  30.705   0.729
47142W        W18868   0.571   0.796  13.210
47143W        W18869  41.035  12.780  10.756
47144W        W18870   8.159   4.830  12.940
47145W        W18871  33.976  28.608   3.761
47146W        W18872  11.833  12.611   1.740
47147W        W18873  37.791  31.594   2.802
47148W        W18874  36.582  20.521  14.792
47149W        W18875  38.107  35.813   1.591
47150W        W18876  24.458  28.733  11.123
47151W        W18877  19.980  22.289   3.790
47152W        W18878   8.441  19.547   1.042
47153W        W18879  30.288   2.086   4.999
47154W        W18880  13.242  33.696   4.320
47155W        W18881   4.218   9.634   4.093
47156W        W18882   6.770  15.384   1.184
47157W        W18883  42.058  17.234  14.157
47158W        W18884  21.075  21.493   4.869
47159W        W18885  20.612   1.417  12.011
47160W        W18886  14.765  28.470  14.968
47161W        W18887  25.603  32.651   1.294
47162W        W18888  34.550  17.080   3.671
47163W        W18889  37.613  29.167   1.769
47164W        W18890  38.188  17.261  14.855
47165W        W18891  11.656  20.298   0.264
47166W        W18892  14.644  30.868   2.196
47167W        W18893  17.152  23.511  14.060
47168W        W18894   6.852  42.763  14.007
47169W        W18895  33.280  31.357  11.853
47170W        W18896   2.243  21.108  10.697
47171W        W18897  12.821  36.384   3.688
47172W        W18898  39.989   9.968  11.057
47173W        W18899  42.286   9.895  13.438
47174W        W18900  19.681  13.443   3.696
47175W        W18901  33.610  24.637   3.078
47176W        W18902  31.599  21.285  14.856
47177W        W18903  16.251  15.715   1.759
47178W        W18904  10.744  27.580  14.594
47179W        W18905   1.839  32.493  13.354
47180W        W18906  36.483   9.422  12.687
47181W        W18907   7.023  10.197  13.632
47182W        W18908  25.910   5.870  12.092
47183W        W18909  16.688   4.324   3.927
47184W        W18910  12.827  17.259  11.927
47185W        W18911  36.668  23.076   4.760
47186W        W18912   9.325  13.004  14.562
47187W        W18913  23.721  10.658  10.407
47188W        W18914  36.327  15.305   0.151
47189W        W18915  33.114  13.570   1.836
47190W        W18916  21.951  42.549   1.239
47191W        W18917  29.130   4.245   3.130
47192W        W18918   0.233   0.798   4.063
47193W        W18919  28.164  14.669   2.937
47194W        W18920  44.796  33.698   4.440
47195W        W18921  20.919   9.814  13.918
47196W        W18922  18.231  19.313  11.884
47197W        W18923   5.184   4.427   4.984
47198W        W18924  40.289  33.338  13.793
47199W        W18925  41.968  39.600   3.626
47200W        W18926  10.090   9.812   3.683
47201W        W18927  40.996  28.217   2.293
47202W        W18928  35.375  21.749   1.886
47203W        W18929  39.532   2.326   0.720
47204W        W18930  25.221  16.183   4.222
47205W        W18931  30.050  33.563   2.151
47206W        W18932   9.805  13.131  14.472
47207W        W18933   5.184   2.728   3.640
47208W        W18934  40.031   9.667   2.725
47209W        W18935  31.000  17.163   3.194
47210W        W18936  18.992  18.728  11.100
47211W        W18937   0.197  42.507   2.331
47212W        W18938  17.762  34.444  11.873
47213W        W18939  38.446   0.085  14.929
47214W        W18940   8.785  31.619   0.505
47215W        W18941  22.692  21.807   2.820
47216W        W18942  14.599  16.827   4.717
47217W        W18943  30.342   0.836   5.158
47218W        W18944  38.831  13.336   3.393
47219W        W18945   1.841  34.788  14.461
47220W        W18946   8.576   2.451  11.123
47221W        W18947   1.693  37.689   4.233
47222W        W18948  24.962  32.073  14.982
47223W        W18949  29.915   4.447   1.320
47224W        W18950  30.761   2.393  11.635
47225W        W18951  20.454  23.106   1.803
47226W        W18952  19.808   5.198   2.880
47227W        W18953  19.636  42.817   3.629
47228W        W18954   4.466  28.692   3.614
47229W        W18955  23.523  12.759   2.247
47230W        W18956  11.251  20.079   1.603
47231W        W18957   3.148  12.129  12.499
47232W        W18958  36.259   4.365   3.342
47233W        W18959  28.738  38.867   4.163
47234W        W18960   1.793   0.539   3.954
47235W        W18961  26.203  34.170  13.527
47236W        W18962  10.505   7.095  13.977
47237W        W18963  41.647  43.306   3.296
47238W        W18964  36.617  23.564  12.467
47239W        W18965  42.368  44.721   2.234
47240W        W18966  21.230  18.959   1.909
47241W        W18967  26.575   1.912  13.900
47242W        W18968   2.336  25.686  11.597
47243W        W18969   0.934  11.884  12.924
47244W        W18970  13.673   9.645   3.828
47245W        W18971  21.587  11.374  14.371
47246W        W18972  10.784  25.028  11.936
47247W        W18973  42.865  26.228  14.777
47248W        W18974  37.991  12.169  12.313
47249W        W18975  13.065  20.699  11.575
47250W        W18976   4.407  31.380   3.683
47251W        W18977   1.212  43.316   4.178
47252W        W18978  11.146  10.005  14.790
47253W        W18979  38.383   2.932   2.003
47254W        W18980   7.298   3.392  13.853
47255W        W18981   3.950   9.823  12.558
47256W        W18982  12.383  18.516   3.062
47257W        W18983  29.396  15.814  10.316
47258W        W18984  19.764  21.554  11.240
47259W        W18985   4.310  17.079   1.634
47260W        W18986  10.031   4.697   3.618
47261W        W18987  36.593   5.692  13.759
47262W        W18988  30.948  41.508   3.347
47263W        W18989   3.684  31.866   2.639
47264W        W18990  27.194  13.753   3.956
47265W        W18991   5.188   0.208   4.258
47266W        W18992  24.271  19.674   1.653
47267W        W18993  35.358  30.944   3.184
47268W        W18994  42.703  15.929  12.097
47269W        W18995   8.315  10.031   4.890
47270W        W18996  24.662  21.973  13.514
47271W        W18997  39.014  15.542  11.503
47272W        W18998  17.152   1.715  13.714
47273W        W18999  42.983  11.522  11.024
47274W        W19000   4.987  36.841   0.412
47275W        W19001  15.113  18.142  11.517
47276W        W19002  44.923  42.317   0.549
47277W        W19003  22.671  29.157  11.176
47278W        W19004  41.992  42.937   1.841
47279W        W19005   4.250  32.946   3.389
47280W        W19006  44.906  29.335  12.935
47281W        W19007  44.306  22.178   4.623
47282W        W19008  28.460  19.441  12.495
47283W        W19009   7.241   4.158  12.756
47284W        W19010  20.550  37.149  13.905
47285W        W19011  23.966  26.261   0.460
47286W        W19012  43.504  37.406   5.065
47287W        W19013  29.548  16.984   3.686
47288W        W19014  22.854  12.670  10.122
47289W        W19015  31.452   1.449  14.344
47290W        W19016  11.164  42.890  11.952
47291W        W19017   0.217   3.401   0.261
47292W        W19018   6.524  43.526  13.509
47293W        W19019  39.474   9.979  14.385
47294W        W19020  34.492  15.675   3.661
47295W        W19021   7.596  20.668  11.919
47296W        W19022  33.458  24.220   3.841
47297W        W19023   6.212  10.639   1.936
47298W        W19024   7.373  22.508  14.353
47299W        W19025  41.386  25.921   2.400
47300W        W19026   8.715  21.474  10.589
47301W        W19027  15.588  34.902   1.405
47302W        W19028  23.073  27.753  14.434
47303W        W19029   5.911  42.363  13.284
47304W        W19030  21.313  15.722   4.717
47305W        W19031  34.547  33.475  11.740
47306W        W19032  10.532  20.175   0.208
47307W        W19033  44.281   8.261  13.002
47308W        W19034  18.864  28.133   1.820
47309W        W19035  25.972  14.794  12.004
47310W        W19036  37.830  36.456  12.860
47311W        W19037  23.604  20.598   0.810
47312W        W19038  28.482   5.848  11.347
47313W        W19039   7.281   6.126  14.947
47314W        W19040  18.998   3.808   1.638
47315W        W19041  34.905  18.332  13.872
47316W        W19042  38.727  19.802  13.917
47317W        W19043  26.814  35.140   4.560
47318W        W19044  27.230  28.618  13.924
47319W        W19045  27.677  34.353   0.239
47320W        W19046  34.511  44.220  13.482
47321W        W19047   1.322  20.182   1.221
47322W        W19048  41.440  39.437   2.323
47323W        W19049  31.887  23.999  13.151
47324W        W19050  36.764  18.089  13.837
47325W        W19051  30.077   3.731  12.490
47326W        W19052  12.820  20.650   1.218
47327W        W19053  17.611  13.720  14.843
47328W        W19054  17.180  40.990  12.947
47329W        W19055  40.830  27.080   1.713
47330W        W19056   3.229  33.049  14.795
47331W        W19057  42.022  27.641   0.337
47332W        W19058  20.304  14.352  14.830
47333W        W19059   7.185  22.846  14.002
47334W        W19060  42.343  24.149  14.412
47335W        W19061  38.327  15.557  14.451
47336W        W19062   2.805  19.409   4.304
47337W        W19063  36.990   7.377   0.312
47338W        W19064  30.919   5.645  13.088
47339W        W19065  41.383  11.847   0.456
47340W        W19066  33.618  33.370  10.281
47341W        W19067  36.789  38.538   1.947
47342W        W19068  32.392  21.691  11.094
47343W        W19069  33.896   0.495   2.305
47344W        W19070  12.035  23.482   0.236
47345W        W19071  22.636  20.021   3.269
47346W        W19072  38.463  23.307   2.880
47347W        W19073  34.071  12.751   3.791
47348W        W19074  27.599   8.974   4.120
47349W        W19075   3.966  19.127   0.382
47350W        W19076  24.605  24.973   1.754
47351W        W19077  29.961  34.454   1.925
47352W        W19078  23.325   6.066  11.538
47353W        W19079  36.543  19.735   0.548
47354W        W19080   3.460  40.572  12.359
47355W        W19081  17.557  33.902  13.953
47356W        W19082  38.847  27.306  12.808
47357W        W19083  44.986   4.360   2.213
47358W        W19084  15.863  21.439   4.463
47359W        W19085   1.835  26.195   1.359
47360W        W19086  17.916   9.334   3.185
47361W        W19087  11.191  26.907  14.402
47362W        W19088  19.565  39.873  12.565
47363W        W19089   1.350  22.511  13.982
47364W        W19090   6.844  23.478   0.480
47365W        W19091  38.742  20.299   0.806
47366W        W19092  11.871  13.470   1.953
47367W        W19093  17.717  32.337  11.524
47368W        W19094  24.149  20.229   2.438
47369W        W19095  31.572  31.461   1.022
47370W        W19096  29.213  30.857   3.759
47371W        W19097  35.632  10.393  12.050
47372W        W19098  40.779  25.478   2.906
47373W        W19099   4.692  36.418  13.274
47374W        W19100  26.914  14.610  14.855
47375W        W19101  16.469  35.140  11.897
47376W        W19102  22.102  12.392   5.429
47377W        W19103  34.808   9.362  13.032
47378W        W19104  21.495  30.055   2.809
47379W        W19105  41.910  34.147   3.827
47380W        W19106  31.687   7.852  12.408
47381W        W19107  12.975  20.293   0.379
47382W        W19108  24.445   1.809   5.041
47383W        W19109   2.526  32.923   4.657
47384W        W19110  17.822  24.307   4.152
47385W        W19111  43.197   4.996  11.954
47386W        W19112  21.182  42.779   2.289
47387W        W19113  34.693   1.872  13.827
47388W        W19114  34.381  11.839   1.184
47389W        W19115  23.996  41.331   4.092
47390W        W19116   3.729   8.167  13.147
47391W        W19117  13.062  11.111   2.275
47392W        W19118  24.230  34.635  13.002
47393W        W19119  30.190  26.059   4.567
47394W        W19120  17.743   0.796   1.309
47395W        W19121  36.223  37.446  13.709
47396W        W19122  34.653  18.776  13.857
47397W        W19123  15.829  28.212   3.722
47398W        W19124  40.966  10.849   3.174
47399W        W19125  16.118  42.402   0.519
47400W        W19126  25.338  44.014  11.969
47401W        W19127  35.354  33.475  10.647
47402W        W19128  13.194   8.903  14.940
47403W        W19129  22.252  38.726  10.757
47404W        W19130  37.199  35.228  13.902
47405W        W19131  44.919  30.379   0.248
47406W        W19132  33.484  30.884   3.843
47407W        W19133  39.916  18.608   1.751
47408W        W19134  16.891  19.184  14.461
47409W        W19135  27.596  23.780   4.763
47410W        W19136   3.422  23.244   0.970
47411W        W19137  42.800  29.133  13.327
47412W        W19138  17.171  26.250  12.995
47413W        W19139   2.757  32.524   3.812
47414W        W19140  25.930  40.124  11.376
47415W        W19141   7.370  36.910  13.868
47416W        W19142   6.149  18.573   4.729
47417W        W19143  21.171  44.921  14.708
47418W        W19144  23.948  13.816   2.391
47419W        W19145  25.541  37.895  11.233
47420W        W19146   0.992  15.924  11.692
47421W        W19147  39.575   5.677   2.232
47422W        W19148  26.436  39.753  14.338
47423W        W19149  21.594  11.471  11.955
47424W        W19150  15.597  14.777  12.496
47425W        W19151  13.565   2.707  13.769
47426W        W19152  25.959  21.845   3.332
47427W        W19153   7.659  44.458   0.736
47428W        W19154  30.612  27.099  12.558
47429W        W19155  36.673   3.950  14.508
47430W        W19156   0.445   4.068  14.685
47431W        W19157  14.776  19.749  10.899
47432W        W19158  33.042   8.600   0.963
47433W        W19159  10.223   3.481  14.980
47434W        W19160  34.956  24.483  13.025
47435W        W19161  38.723  20.213  13.594
47436W        W19162  15.021  25.455  13.348
47437W        W19163  32.387   8.396  12.104
47438W        W19164  23.978   7.482  11.246
47439W        W19165  10.280  21.043   2.246
47440W        W19166  24.261   4.767   1.160
47441W        W19167  41.478   4.403  14.947
47442W        W19168   7.878  37.424  11.660
47443W        W19169   7.019  10.738  13.755
47444W        W19170  41.848  25.018   3.832
47445W        W19171   6.684  17.561  14.311
47446W        W19172  13.176  21.065   5.002
47447W        W19173  13.229   9.907   3.589
47448W        W19174  30.055  32.896   1.763
47449W        W19175  17.036  14.241  11.168
47450W        W19176  22.001  44.504  12.545
47451W        W19177  41.527  12.005  11.140
47452W        W19178  40.881  41.967  10.700
47453W        W19179   5.000  36.519  14.782
47454W        W19180   3.651  34.997   0.241
47455W        W19181   4.731   6.761   4.181
47456W        W19182  18.088  37.530   5.166
47457W        W19183  20.627  23.116  10.449
47458W        W19184  40.486  21.185   4.581
47459W        W19185  42.803   9.937  10.966
47460W        W19186  12.898  16.772  10.627
47461W        W19187  23.938  31.914  13.961
47462W        W19188  23.505  36.783   3.286
47463W        W19189  36.960  39.236   3.649
47464W        W19190  36.462  13.167  10.467
47465W        W19191   9.635  41.741  11.111
47466W        W19192  33.068  43.761  11.818
47467W        W19193  15.845  26.566  13.319
47468W        W19194  12.102  44.455  14.896
47469W        W19195  12.805  23.551   0.739
47470W        W19196  28.669  17.719  13.449
47471W        W19197  19.140  41.559  13.902
47472W        W19198  28.018  41.817  14.437
47473W        W19199   9.425   1.981  12.038
47474W        W19200  11.139  30.554  13.956
47475W        W19201  14.051  13.838   4.151
47476W        W19202  44.855  21.090   0.863
47477W        W19203  35.346   6.750   3.271
47478W        W19204   6.404  21.474  14.387
47479W        W19205   5.887  12.638  12.388
47480W        W19206  14.314  18.083   2.577
47481W        W19207  40.546  23.533  11.205
47482W        W19208   0.816  38.469  11.206
47483W        W19209  35.868  28.520  13.668
47484W        W19210  19.830  18.168  10.460
47485W        W19211  13.812   3.932   4.259
47486W        W19212  15.126   0.246   4.042
47487W        W19213  35.819  24.468  10.538
47488W        W19214  16.555  36.902   4.165
47489W        W19215  15.320  43.562   2.450
47490W        W19216  21.862  43.032  11.561
47491W        W19217  44.361  29.118   3.314
47492W        W19218  21.799  40.381  14.021
47493W        W19219  29.538   0.814  10.145
47494W        W19220  19.270  31.662  11.544
47495W        W19221  38.809   1.449   2.627
47496W        W19222  26.364  30.558   0.856
47497W        W19223  20.713   6.458  10.707
47498W        W19224  29.183  42.707  13.922
47499W        W19225  44.388  14.041  10.716
47500W        W19226  11.748  28.726   2.774
47501W        W19227  39.993   1.300   4.541
47502W        W19228  31.913  24.676  14.945
47503W        W19229  22.967  42.945   1.301
47504W        W19230  33.131  13.590   0.300
47505W        W19231  26.867  24.982   4.713
47506W        W19232  26.272  37.553  14.726
47507W        W19233  34.866  38.976   4.871
47508W        W19234   0.476  12.381   2.340
47509W        W19235  32.540   0.494  14.009
47510W        W19236  39.830  41.085  12.399
47511W        W19237  33.018  34.373   3.338
47512W        W19238  15.058  23.105  13.289
47513W        W19239  18.656   8.488   1.722
47514W        W19240   8.977  36.588   2.811
47515W        W19241   6.265  27.833   0.829
47516W        W19242  28.747  25.033   4.638
47517W        W19243   5.777  18.594   4.336
47518W        W19244  19.459   4.606   4.765
47519W        W19245  39.428  33.993  13.998
47520W        W19246  15.792  42.444  10.501
47521W        W19247   3.769  26.550  13.808
47522W        W19248  20.759   9.156  13.975
47523W        W19249  28.672  36.108  14.679
47524W        W19250   8.751  28.494  13.408
47525W        W19251  42.401  43.338  13.292
47526W        W19252  37.476  10.421   4.178
47527W        W19253  36.220  11.831  10.688
47528W        W19254  30.008   0.702  13.351
47529W        W19255  43.887  38.887  13.365
47530W        W19256  31.546  43.541  11.978
47531W        W19257  32.070  35.653   2.748
47532W        W19258  30.401  39.133  13.770
47533W        W19259  10.652  38.922   2.153
47534W        W19260  16.591   3.446   3.836
47535W        W19261  28.275  43.476  11.019
47536W        W19262  38.613  37.915  14.046
47537W        W19263  33.839   0.322  12.596
47538W        W19264   4.440  18.174  13.933
47539W        W19265  38.439  42.716  12.349
47540W        W19266   9.240  37.558  10.523
47541W        W19267  19.723  11.376  14.170
47542W        W19268   5.247  26.517   3.294
47543W        W19269  11.845   1.954  10.723
47544W        W19270   9.728  33.687   1.214
47545W        W19271  17.536  31.833  11.554
47546W        W19272  21.304  15.601  13.695
47547W        W19273  15.851   0.069   3.212
47548W        W19274  42.532  37.307   4.643
47549W        W19275   7.244   1.424   3.914
47550W        W19276  29.720  44.445   4.596
47551W        W19277  31.341  25.804   9.797
47552W        W19278  43.318  43.003  11.469
47553W        W19279   1.898  32.331  11.406
47554W        W19280  20.800  31.016   3.354
47555W        W19281  33.078   2.907   4.553
47556W        W19282   8.738  35.778  13.392
47557W        W19283  42.729  36.955  12.986
47558W        W19284  43.252   3.301   5.033
47559W        W19285  24.597  36.055   3.727
47560W        W19286  15.737   3.381   4.397
47561W        W19287  18.360  35.168  14.249
47562W        W19288  44.843  29.554   4.584
47563W        W19289  18.738  32.123  10.766
47564W        W19290  37.118  17.040   3.660
47565W        W19291  19.873  40.296  12.541
47566W        W19292  18.246   0.024   4.708
47567W        W19293  28.528  11.341  10.740
47568W        W19294  22.691  23.612   3.311
47569W        W19295  17.784  20.629  14.972
47570W        W19296  20.521  25.441   4.193
47571W        W19297  10.530   7.262  12.030
47572W        W19298  16.224  42.666   0.963
47573W        W19299  27.584   2.289  11.593
47574W        W19300  43.163  31.190  10.675
47575W        W19301   7.167   7.143  10.136
47576W        W19302  37.766  24.585  14.070
47577W        W19303  13.908  28.616   2.113
47578W        W19304  25.159   3.773   4.317
47579W        W19305   2.961  15.927   2.295
47580W        W19306  37.760   2.613  13.903
47581W        W19307  14.257   0.321   1.900
47582W        W19308  27.424  26.958  12.033
47583W        W19309  38.919  26.661   1.726
47584W        W19310   2.796  41.854  12.009
47585W        W19311  44.924  27.931  13.011
47586W        W19312  16.247   9.884  10.696
47587W        W19313  23.424  42.821  14.744
47588W        W19314  36.026   5.291   2.334
47589W        W19315  43.922  31.840  12.029
47590W        W19316   1.458   6.975  11.195
47591W        W19317  21.181  42.098  11.272
47592W        W19318  24.890  32.303   3.265
47593W        W19319   1.622  32.163   0.995
47594W        W19320   0.488  34.423   0.903
47595W        W19321  15.150  38.625   0.738
47596W        W19322  33.413  25.382  10.705
47597W        W19323  37.539  42.960  11.922
47598W        W19324  19.018  12.271   2.698
47599W        W19325  44.108  42.424  11.131
47600W        W19326   6.875   6.719  11.699
47601W        W19327  31.401   6.191   5.099
47602W        W19328  34.952  41.584   5.114
47603W        W19329  40.923  30.600  11.459
47604W        W19330  29.710   7.693   1.897
47605W        W19331  25.518   8.757   1.232
47606W        W19332  36.989  43.756  12.061
47607W        W19333  29.845  15.908  11.144
47608W        W19334  22.060  15.605  12.607
47609W        W19335  39.727   7.101  10.977
47610W        W19336  40.311   7.104   4.599
47611W        W19337   6.805  39.378  13.417
47612W        W19338  43.765  33.852   3.140
47613W        W19339  16.340  11.734  12.594
47614W        W19340  36.339   3.933   2.750
47615W        W19341  18.489   9.386   3.827
47616W        W19342   2.783   1.246   0.315
47617W        W19343  43.970  28.728   0.341
47618W        W19344  35.107   9.312   3.712
47619W        W19345   3.848  37.551   4.236
47620W        W19346  41.117  26.526   1.070
47621W        W19347  10.569   8.959   3.202
47622W        W19348  27.458  42.434   3.648
47623W        W19349  38.965   1.218   2.181
47624W        W19350  23.763   9.272   1.428
47625W        W19351  41.218  33.449   3.106
47626W        W19352  28.392  30.546  11.746
47627W        W19353  10.647  27.661   1.245
47628W        W19354  38.465   0.198   3.373
47629W        W19355  22.955  39.232  13.800
47630W        W19356  43.271  40.562  13.096
47631W        W19357  12.471  23.190  13.551
47632W        W19358  35.343  42.353  13.968
47633W        W19359  23.254   9.838   3.513
47634W        W19360  42.885  37.617   1.475
47635W        W19361   3.941  17.161   9.896
47636W        W19362  21.427  14.400   2.628
47637W        W19363  32.046  20.235   2.151
47638W        W19364  38.364  13.160   2.791
47639W        W19365  43.567  34.643   0.467
47640W        W19366  40.080  10.278  13.304
47641W        W19367  20.152   7.250   5.124
47642W        W19368  41.329  37.756  11.564
47643W        W19369  37.389  10.884   4.373
47644W        W19370   2.514  26.977   2.597
47645W        W19371  16.255  17.678  14.860
47646W        W19372  38.316  38.771  12.110
47647W        W19373  21.356  27.440  10.862
47648W        W19374   0.859  12.670  11.060
47649W        W19375  36.662  41.799  11.573
47650W        W19376   4.383  33.304  13.338
47651W        W19377   5.818  12.092  11.490
47652W        W19378   6.439   7.690  12.010
47653W        W19379  13.722  15.299  14.125
47654W        W19380  16.917   9.647  14.195
47655W        W19381  38.289  43.309   0.356
47656W        W19382   1.598  44.945  14.755
47657W        W19383  23.136  20.233   2.162
47658W        W19384  28.964  10.803   3.288
47659W        W19385   8.082  31.133  11.208
47660W        W19386   3.478  13.384   3.193
47661W        W19387  32.812   0.418   4.902
47662W        W19388  39.926   8.879   1.808
47663W        W19389   2.851  35.105  14.280
47664W        W19390  29.878   7.895  11.495
47665W        W19391  24.695  40.303   3.706
47666W        W19392  15.087   1.892   4.526
47667W        W19393  41.741  14.242   0.225
47668W        W19394   0.227  34.430   4.557
47669W        W19395  12.612   9.947  13.943
47670W        W19396  12.122  40.413  12.019
47671W        W19397   5.785  19.087   4.140
47672W        W19398  13.268  23.437  12.557
47673W        W19399  12.860  20.762  12.084
47674W        W19400  29.992  34.435   4.159
47675W        W19401  31.549  40.400   4.312
47676W        W19402  32.939   1.939  12.552
47677W        W19403   6.404  21.559   3.132
47678W        W19404  17.797  37.025  14.432
47679W        W19405  13.747   9.152  11.461
47680W        W19406  25.231   3.701   0.368
47681W        W19407  22.426  39.052   2.047
47682W        W19408   3.098  36.504   4.807
47683W        W19409  29.867  14.584   1.983
47684W        W19410  14.170   0.412   0.465
47685W        W19411  36.830   5.651  12.947
47686W        W19412  10.847  24.804   3.211
47687W        W19413  16.230   8.507  14.620
47688W        W19414  37.988  35.935   0.709
47689W        W19415  27.507   3.201  11.199
47690W        W19416  20.807  14.225  13.341
47691W        W19417  44.626  12.697  12.024
47692W        W19418   2.289   8.006   0.918
47693W        W19419   5.296  32.938   1.536
47694W        W19420  27.143  10.350   4.894
47695W        W19421  19.715  21.085  11.453
47696W        W19422   9.485  26.483  10.097
47697W        W19423  15.972   7.794  10.727
47698W        W19424  29.003  26.095  10.797
47699W        W19425   2.362  41.372  12.878
47700W        W19426  29.519   7.793   1.017
47701W        W19427  34.406   1.285  11.922
47702W        W19428   4.428   1.680  14.520
47703W        W19429  18.631  42.903  14.003
47704W        W19430  35.697  18.073  14.167
47705W        W19431  31.101   5.438   4.858
47706W        W19432   8.817  43.779   2.746
47707W        W19433  37.380  34.144   0.910
47708W        W19434  39.398  38.045   2.639
47709W        W19435  19.648  17.656   3.938
47710W        W19436  32.038  21.143  12.816
47711W        W19437   9.923  30.429   1.951
47712W        W19438  42.346  15.390   0.908
47713W        W19439  37.493   8.658   3.707
47714W        W19440  29.636  39.263  13.491
47715W        W19441  15.863  22.261  11.073
47716W        W19442  44.435  31.431  11.574
47717W        W19443   8.166  31.584  11.490
47718W        W19444   5.713   9.583  14.013
47719W        W19445   5.566  21.056  14.465
47720W        W19446  28.025  32.424  14.497
47721W        W19447  23.524   2.158  12.976
47722W        W19448  11.796   2.779  12.250
47723W        W19449  41.927  13.165   1.804
47724W        W19450   9.379   5.706  10.914
47725W        W19451   6.231  41.425   2.042
47726W        W19452  31.667  12.890  11.667
47727W        W19453  42.198   1.316   4.955
47728W        W19454  37.448  31.056  10.715
47729W        W19455   9.854   3.731  12.635
47730W        W19456  35.883  18.769  13.749
47731W        W19457   6.286  38.551  10.743
47732W        W19458  13.204   4.505   3.980
47733W        W19459  15.695  29.600  11.910
47734W        W19460  32.117   8.266   1.212
47735W        W19461  30.339  39.627  13.938
47736W        W19462  34.941  11.033  14.449
47737W        W19463   8.265  43.763  13.997
47738W        W19464  19.725  19.303  11.909
47739W        W19465  19.235  18.701   1.439
47740W        W19466  23.247  16.889  14.965
47741W        W19467   8.741  15.147  12.362
47742W        W19468  39.036  21.677   2.252
47743W        W19469  39.908  15.250  13.988
47744W        W19470  39.583  35.389   4.538
47745W        W19471  14.159  33.078   1.273
47746W        W19472   4.709  19.604  10.659
47747W        W19473   0.262  24.081  11.184
47748W        W19474  33.489  22.810   2.182
47749W        W19475  30.530  27.593   2.153
47750W        W19476  18.322   1.984   3.034
47751W        W19477  36.928  28.553  13.510
47752W        W19478  19.570   6.999  11.956
47753W        W19479  36.597  18.307  11.576
47754W        W19480  44.214   2.026   2.233
47755W        W19481   6.714  24.592   3.249
47756W        W19482  34.684   5.412   4.828
47757W        W19483   0.019  11.397  13.585
47758W        W19484  19.110  36.591  14.876
47759W        W19485  36.378  35.944   2.346
47760W        W19486  18.709  20.732  13.459
47761W        W19487   3.786  42.899  12.032
47762W        W19488   8.404   1.592   1.423
47763W        W19489  23.271  25.617   1.722
47764W        W19490  14.598   2.209  11.866
47765W        W19491  20.151   0.370  10.596
47766W        W19492   9.388  43.252  14.803
47767W        W19493  38.818  22.020  13.246
47768W        W19494  30.746  14.377   0.373
47769W        W19495  30.116  32.298   1.745
47770W        W19496  15.033   6.614   4.166
47771W        W19497  17.864  36.773   0.377
47772W        W19498  12.230  20.832  11.195
47773W        W19499  33.640  26.328   3.755
47774W        W19500  39.252  25.832   1.819
47775W        W19501  32.725   0.024  14.000
47776W        W19502  43.425   7.801  13.896
47777W        W19503  37.418   1.007  12.955
47778W        W19504  25.579  36.071  10.253
47779W        W19505   5.640  10.240  13.435
47780W        W19506  42.068  29.170   3.676
47781W        W19507  43.326  25.955  13.841
47782W        W19508  34.934  29.417  12.567
47783W        W19509  23.289  16.276   3.306
47784W        W19510  12.086  37.517   4.700
47785W        W19511  23.146  29.003   3.615
47786W        W19512  43.979  25.785   0.462
47787W        W19513   3.251   3.219  13.307
47788W        W19514  33.598  13.289  11.122
47789W        W19515  30.803  19.593   5.042
47790W        W19516  13.841  17.185  10.680
47791W        W19517  21.307  12.872  11.496
47792W        W19518  36.148  38.904  12.273
47793W        W19519   5.769   9.489  11.137
47794W        W19520  43.037  11.882  13.981
47795W        W19521  27.743  30.993  11.106
47796W        W19522  13.104  39.889   1.244
47797W        W19523  25.551  13.754   1.760
47798W        W19524   4.702  13.805   0.213
47799W        W19525  13.819  26.887  13.436
47800W        W19526   4.456  19.318  11.498
47801W        W19527  26.598   1.337  11.657
47802W        W19528  13.781  20.094  12.768
47803W        W19529  25.810  32.574   2.659
47804W        W19530   7.876   4.314   5.635
47805W        W19531  31.479   0.397  12.046
47806W        W19532  20.818  26.046   2.380
47807W        W19533  28.716  11.802  11.602
47808W        W19534   4.262   3.127  13.326
47809W        W19535   5.386  34.846   4.027
47810W        W19536  35.417  23.097   2.818
47811W        W19537  37.300  29.161  12.027
47812W        W19538   6.700  16.059   0.851
47813W        W19539  15.548  42.980   3.754
47814W        W19540  44.844  29.665  14.326
47815W        W19541  11.387   0.351  12.065
47816W        W19542  34.847  25.106   2.592
47817W        W19543  23.482   5.576  12.243
47818W        W19544  32.077  34.957  11.434
47819W        W19545  37.737   4.771   1.240
47820W        W19546   7.221  44.526  14.769
47821W        W19547  41.536  37.234   2.600
47822W        W19548   0.198  27.198   3.787
47823W        W19549  22.010  41.569   3.571
47824W        W19550  42.539  33.705  12.873
47825W        W19551  33.985  33.930  13.543
47826W        W19552  18.799   4.893  11.441
47827W        W19553  17.782  42.423   3.890
47828W        W19554  35.033   8.786   2.570
47829W        W19555  44.907   6.402   3.928
47830W        W19556   3.421  38.347  13.098
47831W        W19557  20.773  31.408  11.354
47832W        W19558  23.832  23.268   4.152
47833W        W19559  32.557   9.722   4.604
47834W        W19560  12.425  38.930   4.189
47835W        W19561  10.417   4.421   2.629
47836W        W19562  28.182   2.301  13.096
47837W        W19563  34.602  18.214   3.110
47838W        W19564  15.737   3.888   0.766
47839W        W19565  34.009   4.540  14.996
47840W        W19566  36.853  43.872   4.097
47841W        W19567  15.029   4.787   4.400
47842W        W19568   8.987  39.803  10.458
47843W        W19569  12.601  13.260  13.324
47844W        W19570  27.201  24.579  14.780
47845W        W19571   4.320   3.347   3.198
47846W        W19572   8.490  16.787   3.715
47847W        W19573  33.625  33.115  13.208
47848W        W19574  33.724   3.407   1.011
47849W        W19575   8.182  39.848  14.497
47850W        W19576  17.556  13.030   1.924
47851W        W19577  34.567   0.391   4.128
47852W        W19578  28.426   3.378   0.892
47853W        W19579  32.922  15.718   3.615
47854W        W19580  13.209  38.601   4.418
47855W        W19581  10.239  33.071  11.156
47856W        W19582  41.141  41.663   0.808
47857W        W19583   2.957  15.654   1.834
47858W        W19584   8.827  23.661   2.437
47859W        W19585  22.590  18.203  10.143
47860W        W19586  28.046  15.067   0.041
47861W        W19587   7.966   0.932  12.895
47862W        W19588  22.667  12.182   9.736
47863W        W19589  34.418  28.694  14.924
47864W        W19590  43.967   3.518  10.962
47865W        W19591   3.415  38.956   2.782
47866W        W19592  43.892  31.156  14.744
47867W        W19593  35.293  37.979  11.066
47868W        W19594   7.281  24.087   0.343
47869W        W19595  40.524  18.709   5.005
47870W        W19596   3.890  10.581   4.100
47871W        W19597  37.814  21.492  14.709
47872W        W19598   1.088  10.708  11.959
47873W        W19599  11.429   0.276   1.584
47874W        W19600  34.285  15.028  13.460
47875W        W19601   4.992  31.977   2.325
47876W        W19602  30.655  14.604  10.391
47877W        W19603  10.343  14.399  11.706
47878W        W19604  26.891   6.703   4.581
47879W        W19605  11.604  16.700   4.353
47880W        W19606   9.625  28.103   3.409
47881W        W19607  14.624  44.172  14.016
47882W        W19608  35.263  35.716   2.781
47883W        W19609  10.658  44.861   1.848
47884W        W19610   3.219  35.505  12.094
47885W        W19611  19.805  27.138   0.279
47886W        W19612  37.264  35.799   0.382
47887W        W19613   7.265   7.189   4.627
47888W        W19614  21.954  35.329   2.959
47889W        W19615  18.744  20.859  12.881
47890W        W19616   6.839   9.806   0.727
47891W        W19617  43.873  14.580   0.304
47892W        W19618  38.530  28.933  12.909
47893W        W19619  33.642   3.179   2.860
47894W        W19620  19.868  16.245   1.722
47895W        W19621  40.903  10.434   1.304
47896W        W19622  21.022  35.436   0.678
47897W        W19623  23.995  40.926  10.414
47898W        W19624  40.319  29.003  10.919
47899W        W19625  20.114   7.617  12.621
47900W        W19626  36.979  30.206  10.733
47901W        W19627  11.512  25.115  11.567
47902W        W19628  25.029  26.225  11.083
47903W        W19629  34.771  20.017   3.651
47904W        W19630  27.085  17.021  13.306
47905W        W19631  41.309  33.345   0.868
47906W        W19632  13.287  23.513  13.105
47907W        W19633  23.520  33.365   4.255
47908W        W19634  35.643  13.721  11.239
47909W        W19635   7.372  38.686  13.492
47910W        W19636  10.295  41.946   0.751
47911W        W19637   6.918  26.565   0.854
47912W        W19638  23.235  25.065  12.928
47913W        W19639  29.183  16.164  12.958
47914W        W19640  28.541  41.529   0.292
47915W        W19641  17.670   0.072   2.795
47916W        W19642  37.327  19.060   4.781
47917W        W19643   9.897  25.611   0.822
47918W        W19644  28.519  34.745  12.597
47919W        W19645   9.695  28.536   4.590
47920W        W19646  35.527  16.259  13.591
47921W        W19647  31.786  44.830   3.716
47922W        W19648  37.817   5.012  13.726
47923W        W19649   9.197  28.735  12.038
47924W        W19650  35.150  40.908  12.454
47925W        W19651   0.466  44.362   1.726
47926W        W19652  23.635  28.042  12.740
47927W        W19653   1.433  25.432  11.977
47928W        W19654  25.904  20.709   4.711
47929W        W19655   2.694   8.785   4.449
47930W        W19656  26.190  27.013   3.112
47931W        W19657   1.017  18.451   1.318
47932W        W19658  38.938  11.450   2.823
47933W        W19659  41.012  23.158  10.634
47934W        W19660  19.127  44.804   4.197
47935W        W19661   3.692  10.741   4.534
47936W        W19662  30.191  18.768   3.379
47937W        W19663  23.567   1.450   4.084
47938W        W19664  40.399  18.787   1.759
47939W        W19665  25.938  11.540   2.682
47940W        W19666  43.924  44.536  11.127
47941W        W19667  33.133  31.646   1.417
47942W        W19668  36.093  32.957   4.061
47943W        W19669   9.332  28.958   3.731
47944W        W19670  24.530  14.114  14.310
47945W        W19671  34.346  29.878  14.425
47946W        W19672  10.748  33.459  11.598
47947W        W19673  44.854  21.607   3.914
47948W        W19674  13.205  21.281   0.163
47949W        W19675   6.405  41.918   2.225
47950W        W19676  44.299  18.702   2.193
47951W        W19677  39.605  12.996   2.256
47952W        W19678  28.395  35.446   0.410
47953W        W19679   4.455   4.762   3.274
47954W        W19680  23.946  12.071   5.038
47955W        W19681  38.438  39.809  14.212
47956W        W19682  10.227  29.826   1.888
47957W        W19683  42.780  14.490   2.392
47958W        W19684  23.657  34.194  11.608
47959W        W19685  34.499   2.091  11.936
47960W        W19686  31.107  21.219  13.146
47961W        W19687  25.493  17.417   4.454
47962W        W19688  22.570  26.614   3.631
47963W        W19689  34.091  17.957   3.903
47964W        W19690   9.701  26.561  13.623
47965W        W19691  15.123  33.145   1.074
47966W        W19692  32.608  42.620   4.223
47967W        W19693   2.493  14.109  13.422
47968W        W19694  19.697   2.935  13.916
47969W        W19695  19.668  22.676  13.704
47970W        W19696  30.397  41.982   1.730
47971W        W19697   4.743  24.054   4.759
47972W        W19698  13.022  35.541   0.868
47973W        W19699  29.576   3.833   2.390
47974W        W19700  41.664  24.729  12.900
47975W        W19701  31.856  38.344   0.946
47976W        W19702  27.437  21.056  12.199
47977W        W19703  15.366  17.146   1.610
47978W        W19704  13.227  29.987   0.263
47979W        W19705   3.083   8.700  14.965
47980W        W19706   5.944  22.121   1.754
47981W        W19707  17.274  21.314   5.058
47982W        W19708  36.335  26.185   0.669
47983W        W19709  21.099  34.873  10.754
47984W        W19710  16.640   2.280   3.198
47985W        W19711  12.139  23.714  13.271
47986W        W19712  35.884  27.071   0.261
47987W        W19713  31.334  10.754  12.569
47988W        W19714  39.122  25.965   0.341
47989W        W19715  32.010  12.268   3.127
47990W        W19716  34.605  42.922   4.623
47991W        W19717   0.626  25.683   4.378
47992W        W19718   3.397  41.468  10.928
47993W        W19719  15.142  23.562   3.588
47994W        W19720   6.307   3.753   3.816
47995W        W19721   6.200  26.021   3.343
47996W        W19722  39.919  44.847  12.514
47997W        W19723  38.426  29.385   0.481
47998W        W19724  38.493  26.741  13.748
47999W        W19725   2.780   4.524  12.523
48000W        W19726  44.984  29.298   0.435
48001W        W19727  23.219   8.707  14.884
48002W        W19728  41.466  26.502   4.579
48003W        W19729  23.665  27.609   2.781
48004W        W19730  43.922  15.557   2.993
48005W        W19731  19.625  22.277   3.194
48006W        W19732  24.789  34.274   1.235
48007W        W19733  41.035   0.866   2.211
48008W        W19734  11.584  13.203   1.124
48009W        W19735  11.342  10.283  12.082
48010W        W19736   0.726  28.230  12.467
48011W        W19737  38.939  36.091   2.976
48012W        W19738  19.301  31.837   3.639
48013W        W19739  21.238  42.523   0.449
48014W        W19740  31.972   8.762   3.543
48015W        W19741  18.241  30.554  14.869
48016W        W19742  38.989   9.761  10.985
48017W        W19743  30.903  42.012   1.630
48018W        W19744  21.579  14.109  11.089
48019W        W19745  29.269  25.100   4.500
48020W        W19746   2.275  27.192  14.893
48021W        W19747  24.798  24.011  10.769
48022W        W19748  42.303  37.696  12.428
48023W        W19749  18.536   5.424  12.294
48024W        W19750  33.036  36.599   1.376
48025W        W19751   4.679  39.340  11.592
48026W        W19752  21.328  15.194   1.778
48027W        W19753  28.514  39.068  11.052
48028W        W19754  17.392  10.775  10.715
48029W        W19755   7.854  40.309   0.436
48030W        W19756  14.709  18.984   1.197
48031W        W19757   3.251  43.155   0.420
48032W        W19758  43.367  14.689  11.908
48033W        W19759  17.112   5.221  11.159
48034W        W19760  23.024  32.929  13.077
48035W        W19761  32.400  34.577  10.946
48036W        W19762   4.765   1.843   1.431
48037W        W19763  43.940  30.052   1.168
48038W        W19764  15.698   4.778  12.498
48039W        W19765   7.918  42.894  13.964
48040W        W19766  31.107  12.782   2.919
48041W        W19767  23.527  16.613  11.991
48042W        W19768  21.598  24.035  10.670
48043W        W19769  44.202   0.813   3.334
48044W        W19770   7.969  33.669   4.135
48045W        W19771  37.615  36.410  12.398
48046W        W19772   9.385  21.747   3.062
48047W        W19773  18.692   3.069   5.029
48048W        W19774   6.692  18.722   3.173
48049W        W19775  17.275  20.102   1.476
48050W        W19776   4.395  31.149   0.966
48051W        W19777  42.560   0.817  13.439
48052W        W19778   7.696  34.879   4.561
48053W        W19779   3.273  36.939  12.849
48054W        W19780   5.142  31.070   1.837
48055W        W19781   1.400  42.460   1.436
48056W        W19782  28.426   2.963  10.476
48057W        W19783  25.531  31.636  11.418
48058W        W19784  34.329  42.406  13.984
48059W        W19785  26.105  21.209  13.944
48060W        W19786   8.023  17.651   2.371
48061W        W19787  20.058  12.438  11.696
48062W        W19788   4.926   1.929  10.251
48063W        W19789   1.206   1.759  12.093
48064W        W19790  24.667   3.636   2.428
48065W        W19791  15.669  10.100  13.409
48066W        W19792  21.402  12.423   5.041
48067W        W19793  40.220  37.667   0.763
48068W        W19794  33.655  12.739   1.430
48069W        W19795  27.252  43.426  14.420
48070W        W19796  18.816  30.749  14.367
48071W        W19797  29.622  41.061  13.030
48072W        W19798  26.049  22.014  11.991
48073W        W19799  30.055  26.566   1.794
48074W        W19800   5.953  21.188   2.329
48075W        W19801  15.335  33.620  12.039
48076W        W19802  10.912  23.555  12.888
48077W        W19803  23.761  24.167   2.769
48078W        W19804  15.440   6.348   1.868
48079W        W19805   6.156  36.901   2.276
48080W        W19806   3.901   3.470  11.499
48081W        W19807  36.437  21.570   4.667
48082W        W19808   6.676  12.082  11.071
48083W        W19809  23.689  22.136   0.958
48084W        W19810  34.825  28.093   0.960
48085W        W19811  44.335  10.182   2.167
48086W        W19812   0.721  43.330  10.709
48087W        W19813  22.524  44.714  12.525
48088W        W19814  33.472  37.366  14.982
48089W        W19815   1.323  36.478   3.155
48090W        W19816  17.647  27.836  14.702
48091W        W19817  26.970  42.321   3.850
48092W        W19818  18.614  41.060   4.625
48093W        W19819  17.511   0.553   0.928
48094W        W19820  25.976  11.207   4.014
48095W        W19821   4.113  26.466   4.612
48096W        W19822  21.480  11.995   3.844
48097W        W19823  34.422   7.216   3.348
48098W        W19824   5.407  18.647   2.435
48099W        W19825  32.809  32.993   4.098
48100W        W19826  22.636  12.762  13.886
48101W        W19827  18.923   6.378  12.078
48102W        W19828  10.125   8.653  10.671
48103W        W19829  23.450   4.622  14.983
48104W        W19830  12.306  16.784  14.813
48105W        W19831  10.910  33.107   3.807
48106W        W19832  20.556  22.161  13.826
48107W        W19833  15.635  17.087  14.023
48108W        W19834  22.450  11.889   4.219
48109W        W19835  33.515  28.425  14.373
48110W        W19836  34.485  25.741  14.015
48111W        W19837  13.335  40.175  10.151
48112W        W19838   0.497  17.335  13.130
48113W        W19839  39.388  36.208   2.745
48114W        W19840   4.348  25.493  12.115
48115W        W19841  12.832  15.623  10.958
48116W        W19842  11.002  36.390  13.633
48117W        W19843  13.903  11.065  10.982
48118W        W19844   5.183  10.169  10.573
48119W        W19845  41.446  28.885   0.212
48120W        W19846  44.947   7.945   0.790
48121W        W19847   5.352   0.985  14.823
48122W        W19848  13.383  30.618   1.054
48123W        W19849  35.221   6.342   2.833
48124W        W19850  41.402  28.887  11.518
48125W        W19851  34.440  24.260   1.759
48126W        W19852  35.176  22.986   3.261
48127W        W19853  28.479  14.588  13.475
48128W        W19854  12.222  40.972   0.909
48129W        W19855   2.863   3.429  10.746
48130W        W19856   0.831  29.480  10.411
48131W        W19857   2.360  26.189  11.509
48132W        W19858  23.963  44.993  14.723
48133W        W19859  40.358  22.576  11.590
48134W        W19860  30.746   6.696  11.294
48135W        W19861  21.726  26.309  10.249
48136W        W19862  35.625  20.992   2.209
48137W        W19863  11.823   8.360   3.388
48138W        W19864  19.244   1.885   1.917
48139W        W19865  20.855  16.162   0.872
48140W        W19866  22.590   6.677   4.892
48141W        W19867  34.640   3.241   2.823
48142W        W19868   8.379   6.964   2.374
48143W        W19869  39.553  32.980   2.297
48144W        W19870  32.473  11.930   1.356
48145W        W19871   8.802  33.837  10.692
48146W        W19872   0.893  42.808   5.004
48147W        W19873   7.717   5.844  10.639
48148W        W19874  25.510  22.718   2.447
48149W        W19875  26.430   5.900  13.865
48150W        W19876  23.745  22.657  13.070
48151W        W19877  25.737  29.326  11.084
48152W        W19878   0.782  16.256   0.697
48153W        W19879   9.159  25.197  13.105
48154W        W19880  15.686   5.200   2.772
48155W        W19881  26.561  17.343   2.698
48156W        W19882   8.194  34.560   1.775
48157W        W19883  13.372  25.187  11.143
48158W        W19884  28.400  38.067  12.577
48159W        W19885  35.880  41.776  14.517
48160W        W19886  22.083   5.470  14.744
48161W        W19887   6.744  40.550   2.348
48162W        W19888  18.554  30.848   0.814
48163W        W19889  30.399  12.579   3.132
48164W        W19890  12.495   2.131   9.932
48165W        W19891  12.157  20.488   0.823
48166W        W19892  18.556  11.594  12.552
48167W        W19893  40.967  24.423   4.763
48168W        W19894   4.424  39.705  14.423
48169W        W19895  34.043  17.661  13.478
48170W        W19896  41.900  23.587   4.119
48171W        W19897   8.423  42.892  13.801
48172W        W19898   3.951  26.736  12.078
48173W        W19899   0.242   7.287  13.812
48174W        W19900  30.599  11.397   2.911
48175W        W19901   1.537  13.791  13.045
48176W        W19902   9.398  16.081   1.426
48177W        W19903   8.126  38.398  12.977
48178W        W19904  43.406  30.197   1.881
48179W        W19905  31.604   2.038   0.350
48180W        W19906   1.675  15.173  13.723
48181W        W19907  27.041  34.227   4.522
48182W        W19908  13.082   9.749  13.811
48183W        W19909  44.386  13.529  10.684
48184W        W19910  18.474   3.916   3.661
48185W        W19911  22.134  24.984   2.604
48186W        W19912   0.138   8.703  13.079
48187W        W19913  29.827  39.587   0.911
48188W        W19914   0.698  26.372  12.558
48189W        W19915  16.093  44.367  14.739
48190W        W19916  29.352  14.597   1.230
48191W        W19917  41.867  31.576  13.509
48192W        W19918  18.217  23.499   3.552
48193W        W19919  13.340  36.017   2.935
48194W        W19920   2.213  20.140  14.004
48195W        W19921  35.081  31.411   4.278
48196W        W19922  41.065  32.537   3.310
48197W        W19923  11.454  42.787  11.542
48198W        W19924   2.938   7.817  11.603
48199W        W19925   6.213  38.956   2.452
48200W        W19926   7.909   1.417  10.684
48201W        W19927  27.217   0.865  11.585
48202W        W19928  33.480  22.504   0.934
48203W        W19929  18.106  32.626   2.652
48204W        W19930  29.064  12.210  13.467
48205W        W19931   7.269  41.808  12.114
48206W        W19932  33.080  17.054  13.853
48207W        W19933  16.314  33.659  14.012
48208W        W19934  21.447  13.127  12.552
48209W        W19935  10.643   6.447  13.375
48210W        W19936  36.470  39.458  10.315
48211W        W19937  10.659  44.017  14.001
48212W        W19938  37.555   9.619   1.318
48213W        W19939  31.130  22.623  12.015
48214W        W19940  22.628  31.805   0.991
48215W        W19941  37.656  23.031  13.318
48216W        W19942   9.933  20.291  11.268
48217W        W19943   9.774  20.790  12.510
48218W        W19944  12.943  14.707  10.958
48219W        W19945  17.069  41.399  12.012
48220W        W19946  13.660  32.574   0.867
48221W        W19947   7.283  23.570   0.207
48222W        W19948  15.112   1.134  13.101
48223W        W19949  37.890  14.776  13.013
48224W        W19950  39.446  11.306   0.159
48225W        W19951  23.073  39.528  11.944
48226W        W19952  27.144   7.026   0.895
48227W        W19953  40.701  24.883  14.922
48228W        W19954   7.876  30.056  13.440
48229W        W19955  35.009  14.928   3.944
48230W        W19956  37.896  15.060   3.603
48231W        W19957  25.672   9.576  13.980
48232W        W19958  19.773  35.574   0.664
48233W        W19959  36.016   4.031   4.220
48234W        W19960  21.391   2.988   2.727
48235W        W19961  39.374  37.054   4.673
48236W        W19962  28.010  40.526  10.278
48237W        W19963  15.795  22.662   4.147
48238W        W19964  32.793  18.250  14.936
48239W        W19965  10.718  29.190   1.919
48240W        W19966   9.965  37.113   5.051
48241W        W19967  27.216   7.433   0.504
48242W        W19968   4.420  19.508   4.203
48243W        W19969   9.666  36.235   0.734
48244W        W19970   1.340  25.720  12.400
48245W        W19971   4.765  23.809   0.246
48246W        W19972   7.225   1.434   0.163
48247W        W19973   8.467  43.853   3.179
48248W        W19974  29.539  18.214   3.037
48249W        W19975   1.450  33.927   4.202
48250W        W19976  30.558   2.989   1.284
48251W        W19977  27.987  39.989  14.856
48252W        W19978  27.584  16.308   1.238
48253W        W19979  14.834  37.009  11.058
48254W        W19980  31.195  10.147  11.130
48255W        W19981  36.175  28.189  11.086
48256W        W19982  21.050  14.289   0.822
48257W        W19983  11.784  26.663   3.233
48258W        W19984  40.468   9.853  12.887
48259W        W19985  18.765  27.634   1.475
48260W        W19986  16.818   5.369  10.763
48261W        W19987   6.292  42.474  13.961
48262W        W19988  44.261  28.007  13.401
48263W        W19989  36.001  29.441  11.648
48264W        W19990   4.835  10.166  13.069
48265W        W19991   8.103  35.839   4.317
48266W        W19992  13.311   7.788   1.433
48267W        W19993  15.448  41.201   5.490
48268W        W19994   8.492  35.766   1.411
48269W        W19995  24.698  36.605   2.959
48270W        W19996   3.171  15.656   3.028
48271W        W19997   9.689  32.338   3.007
48272W        W19998  17.275  22.914  11.814
48273W        W19999  18.753   4.524  12.754
48274W        W20000  22.025   0.219   4.266
48275W        W20001  10.185   7.530  10.139
48276W        W20002   1.180  32.622   2.501
48277W        W20003  25.841  12.835   1.800
48278W        W20004  10.625  13.387   0.865
48279W        W20005  10.140  34.959   1.413
48280W        W20006  34.397  28.035   2.424
48281W        W20007   8.607  20.715   2.856
48282W        W20008   5.212   5.196   3.253
48283W        W20009   6.790  16.405  10.207
48284W        W20010  43.539  15.286   2.091
48285W        W20011  29.747  24.190   9.755
48286W        W20012  42.514   5.589  14.403
48287W        W20013   5.437  16.095   4.384
48288W        W20014  10.699  16.504  11.964
48289W        W20015  30.166  31.144   0.766
48290W        W20016   5.690  19.673  12.190
48291W        W20017   7.442  27.367  11.676
48292W        W20018  43.924  30.149  11.272
48293W        W20019  14.254  36.087  13.107
48294W        W20020  38.246   5.383   3.378
48295W        W20021  44.820   5.246  12.567
48296W        W20022  32.495   2.111   2.686
48297W        W20023  20.299  24.491  13.177
48298W        W20024  34.189   3.871  10.642
48299W        W20025   0.213  34.874  10.756
48300W        W20026  22.187  31.419  12.593
48301W        W20027  44.920  13.273   3.240
48302W        W20028  44.331  34.062   3.740
48303W        W20029  19.631  10.668   1.205
48304W        W20030   4.975  29.545  12.450
48305W        W20031  11.106  26.115  14.440
48306W        W20032  19.056  39.174   3.708
48307W        W20033   1.911  21.753  11.935
48308W        W20034  42.571   2.333  12.086
48309W        W20035  13.642  16.911   4.685
48310W        W20036  43.753  32.174   2.264
48311W        W20037  32.875   9.216   2.241
48312W        W20038  35.469  10.582   3.094
48313W        W20039  26.550  32.348   3.697
48314W        W20040  10.214  35.526   0.430
48315W        W20041   3.917  14.904  12.035
48316W        W20042  10.532  23.433   1.321
48317W        W20043  13.942  25.229  10.615
48318W        W20044   2.886  28.558  14.587
48319W        W20045  14.943  38.171   0.871
48320W        W20046  17.648  42.439  11.035
48321W        W20047   7.207   1.921   4.047
48322W        W20048  33.457   0.753  10.613
48323W        W20049   1.819   1.566  13.225
48324W        W20050   9.216  24.969  14.473
48325W        W20051  25.612  28.816  13.250
48326W        W20052  41.977  26.510   4.659
48327W        W20053   1.750  12.692   3.384
48328W        W20054  24.767  34.829  12.431
48329W        W20055  40.476   4.446  10.404
48330W        W20056  36.401  35.979   1.403
48331W        W20057   5.642  39.559   3.204
48332W        W20058  18.025  27.113  10.684
48333W        W20059  23.202  17.717  11.178
48334W        W20060  34.044   2.210  11.303
48335W        W20061  44.323  29.480   4.614
48336W        W20062  34.540  19.795  13.869
48337W        W20063  12.570   9.798   1.898
48338W        W20064  42.841   6.384  14.618
48339W        W20065  22.390  33.662  14.016
48340W        W20066  32.308  30.455  13.145
48341W        W20067   2.504  20.299   2.665
48342W        W20068  18.585  21.214   2.296
48343W        W20069  25.292   3.233  13.083
48344W        W20070  24.568   2.778   3.450
48345W        W20071  36.934  20.207   2.030
48346W        W20072  16.793  44.761   4.754
48347W        W20073   3.972  35.988  13.324
48348W        W20074  37.089   0.165   4.868
48349W        W20075  14.905  10.670  12.063
48350W        W20076  30.307  33.058   2.967
48351W        W20077  25.484  20.667  13.531
48352W        W20078   9.692  15.165   1.834
48353W        W20079   7.925  13.220  12.911
48354W        W20080  20.352  14.527  11.213
48355W        W20081  23.257  28.950   0.753
48356W        W20082  22.274   8.371  13.563
48357W        W20083   9.871  17.616   4.602
48358W        W20084  40.568  10.180   4.339
48359W        W20085   3.728  35.377   2.140
48360W        W20086   0.291  25.078  11.159
48361W        W20087  19.703   4.330   0.573
48362W        W20088  36.071  13.671   1.257
48363W        W20089  38.186  41.379   0.025
48364W        W20090  31.509  31.854   3.653
48365W        W20091  16.771   7.774   1.290
48366W        W20092  22.738  30.508   1.265
48367W        W20093  17.223  11.263  12.671
48368W        W20094  29.737  40.524   1.607
48369W        W20095   9.714  33.243  10.551
48370W        W20096  43.333  37.966  11.568
48371W        W20097  10.810  41.059  11.589
48372W        W20098  28.152   6.707  10.585
48373W        W20099  30.667  23.813  14.130
48374W        W20100  30.354  34.058   3.194
48375W        W20101  36.148  16.284  12.322
48376W        W20102  32.950  14.920   3.142
48377W        W20103   5.189  40.288   4.501
48378W        W20104  21.569  15.655   2.182
48379W        W20105   0.224   0.756   1.760
48380W        W20106   0.342   4.987  13.369
48381W        W20107   5.612  18.117   3.152
48382W        W20108  21.570  30.158  12.039
48383W        W20109  28.272  39.808  13.465
48384W        W20110  39.542   8.413  13.224
48385W        W20111  17.996  33.077  10.662
48386W        W20112  33.517   7.438   3.335
48387W        W20113  23.168  19.139   3.146
48388W        W20114  24.210  11.615   2.412
48389W        W20115   3.393  26.033   0.741
48390W        W20116  22.587  11.905  12.717
48391W        W20117  15.646  13.582   1.364
48392W        W20118  20.812   4.332  12.750
48393W        W20119   3.237  10.375   0.731
48394W        W20120  37.472  44.519  13.546
48395W        W20121  38.926  18.297  12.007
48396W        W20122  37.497  10.650  13.724
48397W        W20123  16.646  12.813  12.078
48398W        W20124   1.210  34.993  14.813
48399W        W20125  31.546   3.929  11.593
48400W        W20126  26.476  36.529  13.060
48401W        W20127  10.423  44.056   1.216
48402W        W20128  20.485  26.248   4.191
48403W        W20129  23.962  27.562   2.347
48404W        W20130   5.340  36.589   4.589
48405W        W20131  33.605  37.601  11.765
48406W        W20132  43.990  30.543   0.958
48407W        W20133  37.960  36.877   3.802
48408W        W20134  25.377   7.125   2.856
48409W        W20135  44.362  18.512  14.484
48410W        W20136  41.865  16.224   4.836
48411W        W20137  25.591  22.197  12.171
48412W        W20138   4.687  25.227   2.670
48413W        W20139  25.807  21.209   0.843
48414W        W20140  31.720  14.674  13.442
48415W        W20141  14.795   3.426   0.695
48416W        W20142  33.068  16.259   2.963
48417W        W20143  42.709  35.328  13.473
48418W        W20144   3.105  21.679  14.622
48419W        W20145  32.697  37.472   2.830
48420W        W20146  17.895  28.135   4.434
48421W        W20147  37.270  10.642   3.743
48422W        W20148   5.866  35.817   0.766
48423W        W20149  21.279  23.294  14.051
48424W        W20150  29.006  18.382   2.306
48425W        W20151  12.159  39.046  11.681
48426W        W20152  21.313  30.126  14.309
48427W        W20153   7.348   8.325  14.107
48428W        W20154  34.388  18.202  13.937
48429W        W20155  36.391  33.193   2.460
48430W        W20156   8.904  27.547   2.968
48431W        W20157  10.608   1.277  12.487
48432W        W20158  30.409  28.308  13.818
48433W        W20159  30.118  22.732  12.446
48434W        W20160  12.625  29.244  14.496
48435W        W20161   7.231  40.874  11.577
48436W        W20162   6.844  11.999   4.167
48437W        W20163  25.750   3.270   4.586
48438W        W20164  20.149   9.226  12.648
48439W        W20165  24.691   2.342   3.179
48440W        W20166   2.386  25.247   2.561
48441W        W20167   8.463   2.238  12.643
48442W        W20168   2.885  39.891  12.139
48443W        W20169  10.405  44.270  10.926
48444W        W20170   4.727  43.263  12.792
48445W        W20171  22.636  38.606   1.262
48446W        W20172  43.278  28.758  12.440
48447W        W20173  12.033  29.544  13.313
48448W        W20174  19.197  12.935   1.275
48449W        W20175  39.243  17.240   2.385
48450W        W20176  38.271  44.376   4.874
48451W        W20177  33.111  23.206   3.282
48452W        W20178   8.908  31.365  12.966
48453W        W20179  44.055  15.020  12.391
48454W        W20180  18.744  40.626  10.806
48455W        W20181  36.150  41.076   0.779
48456W        W20182  43.072  42.290   0.821
48457W        W20183  38.803  29.688   4.610
48458W        W20184  23.168  19.050  14.305
48459W        W20185  19.596  19.276   4.346
48460W        W20186  16.290  12.730  12.950
48461W        W20187  38.044   8.281  11.644
48462W        W20188   1.644  10.480   5.030
48463W        W20189  33.834  37.060  11.466
48464W        W20190   7.898  42.269   3.032
48465W        W20191  14.390  43.953  14.446
48466W        W20192   7.749   9.561  11.196
48467W        W20193  13.625  43.986  14.861
48468W        W20194  32.523  27.679  12.534
48469W        W20195   1.318  13.607  13.479
48470W        W20196  25.113   7.778   3.118
48471W        W20197   3.709   5.893  13.594
48472W        W20198  25.883  38.701   4.254
48473W        W20199  33.906  42.238  14.926
48474W        W20200  13.843  12.136  11.065
48475W        W20201  37.773   1.855   0.875
48476W        W20202  20.640  30.705   0.801
48477W        W20203  25.723   0.102   3.524
48478W        W20204   4.271   2.168   4.105
48479W        W20205  19.356  31.486   3.254
48480W        W20206  20.774  38.795   2.842
48481W        W20207  28.614  15.814   0.082
48482W        W20208  37.453  40.985  13.095
48483W        W20209  41.957  23.446  12.025
48484W        W20210  14.834   9.055   2.610
48485W        W20211  24.173  36.116   3.286
48486W        W20212   4.217  14.208   4.035
48487W        W20213  27.453  40.078   2.695
48488W        W20214   0.897  12.555   4.366
48489W        W20215  22.673  37.291   2.057
48490W        W20216  23.957  22.514   4.274
48491W        W20217  17.845  34.079   0.203
48492W        W20218  32.218  11.571   3.487
48493W        W20219  15.742  19.317   1.684
48494W        W20220   5.073   5.871  11.274
48495W        W20221  22.978   8.200  12.937
48496W        W20222  28.156  36.426  11.566
48497W        W20223  17.874   9.299   4.660
48498W        W20224  35.146  18.525  14.720
48499W        W20225   7.545   6.298  12.001
48500W        W20226  35.000  16.174   4.236
48501W        W20227   1.662  17.527   1.221
48502W        W20228  17.767   4.775  13.536
48503W        W20229  13.686  21.180  13.305
48504W        W20230  10.280   8.909  11.512
48505W        W20231  15.384   8.380  12.766
48506W        W20232  11.693   4.716  14.838
48507W        W20233  32.438  36.111   2.922
48508W        W20234  32.571  28.628  12.609
48509W        W20235  32.113  12.552  10.616
48510W        W20236  18.967   9.301   4.586
48511W        W20237  17.709  35.921   3.733
48512W        W20238   1.175   2.166   2.278
48513W        W20239  20.301   3.045  14.483
48514W        W20240  43.951  20.651  12.943
48515W        W20241  10.832  18.992  12.192
48516W        W20242  33.140  25.511   2.751
48517W        W20243  42.007  22.738   9.973
48518W        W20244  28.245   8.685  10.723
48519W        W20245  26.204  38.426   2.317
48520W        W20246  25.177  11.389   0.725
48521W        W20247   2.045  11.114   1.358
48522W        W20248  24.936  33.464   4.896
48523W        W20249   1.522  32.422   0.217
48524W        W20250  32.099  10.717   3.904
48525W        W20251  36.892  10.420   4.583
48526W        W20252  26.464   9.466   3.577
48527W        W20253  28.019  29.005  13.333
48528W        W20254   1.778  13.344  10.558
48529W        W20255  10.777  35.020   3.810
48530W        W20256  12.632  14.147  12.530
48531W        W20257  27.487  27.677  11.615
48532W        W20258   4.306  11.787  12.814
48533W        W20259  19.932  13.659  14.871
48534W        W20260   2.305  14.652   4.741
48535W        W20261  41.503  32.484   3.031
48536W        W20262   4.281  25.209   1.208
48537W        W20263  18.625   2.315   4.567
48538W        W20264  32.399   8.945  10.693
48539W        W20265   8.366  32.504  12.470
48540W        W20266  26.346  22.749   4.278
48541W        W20267  24.270  12.136   2.303
48542W        W20268  34.943   1.405   4.674
48543W        W20269   8.930  12.112   3.836
48544W        W20270  38.305   1.369   2.716
48545W        W20271  29.965  29.895  12.444
48546W        W20272  11.175  28.934  11.946
48547W        W20273  24.877  26.549   4.573
48548W        W20274  41.266   5.912  11.159
48549W        W20275  19.874   6.568   3.153
48550W        W20276  38.002  37.406  11.006
48551W        W20277  42.377  42.001   4.561
48552W        W20278  44.863  26.874   0.041
48553W        W20279  28.208   3.742   1.625
48554W        W20280   5.985  11.301  11.077
48555W        W20281  42.980  44.322   4.809
48556W        W20282  30.184  36.500   4.427
48557W        W20283   5.044  19.705   0.939
48558W        W20284  30.120  41.426   0.707
48559W        W20285  20.990  18.797   3.235
48560W        W20286   2.173  24.933  11.147
48561W        W20287  13.590  39.363   4.438
48562W        W20288  13.086  30.915   4.172
48563W        W20289  35.517   0.245  14.016
48564W        W20290  26.013  18.251   1.730
48565W        W20291  10.894   8.717   0.696
48566W        W20292  26.091  26.603   4.245
48567W        W20293  17.232  28.364   0.462
48568W        W20294  11.729  37.321  13.366
48569W        W20295  23.129  12.916  13.732
48570W        W20296  34.069  23.678   0.287
48571W        W20297  41.434  17.678  12.323
48572W        W20298  38.893   5.415  11.954
48573W        W20299  20.532  12.644  14.917
48574W        W20300  13.620   8.152   3.640
48575W        W20301  10.634  34.609   0.829
48576W        W20302  22.574  28.873  10.241
48577W        W20303  20.391  27.922  12.170
48578W        W20304  33.974  30.011   3.902
48579W        W20305   0.417  40.951   0.449
48580W        W20306  11.112  35.843   0.306
48581W        W20307  33.930  27.196   1.722
48582W        W20308   8.311  23.456   1.805
48583W        W20309  12.668  20.823   4.477
48584W        W20310  10.432   6.964  11.595
48585W        W20311  18.053   7.088   0.124
48586W        W20312  26.227   8.628  13.551
48587W        W20313   4.495  17.857  12.639
48588W        W20314  39.037  11.975   2.830
48589W        W20315  27.587  14.265  14.959
48590W        W20316   3.312  10.138   1.192
48591W        W20317  11.084  24.052   2.958
48592W        W20318  24.484  36.540   0.263
48593W        W20319  32.170  15.149   4.035
48594W        W20320  19.232  35.491  12.020
48595W        W20321  44.468  14.541   1.860
48596W        W20322  22.017  12.717   0.441
48597W        W20323  21.579  36.351  14.541
48598W        W20324  37.272  24.148   3.629
48599W        W20325   2.626   8.891   3.955
48600W        W20326   4.904  43.927  12.398
48601W        W20327  44.427  28.918   2.861
48602W        W20328  36.091  20.988  14.046
48603W        W20329  35.683  23.791  11.992
48604W        W20330  21.249  31.344   1.774
48605W        W20331  22.434   2.692   1.273
48606W        W20332  32.140  14.118   4.111
48607W        W20333  19.771  21.046  11.954
48608W        W20334   5.744  13.068   3.805
48609W        W20335  35.600  27.512   1.923
48610W        W20336  35.995  41.355   4.842
48611W        W20337  24.655  15.336  12.587
48612W        W20338  43.666  40.808   3.026
48613W        W20339  17.968  32.859  12.501
48614W        W20340  13.794  38.395  14.539
48615W        W20341  40.589  21.470  12.884
48616W        W20342  30.140  30.486  14.039
48617W        W20343  11.673  30.964  14.331
48618W        W20344  20.051  22.043  13.849
48619W        W20345  14.545  11.494   3.354
48620W        W20346   3.985  26.777  13.362
48621W        W20347   8.199  25.897  10.878
48622W        W20348   8.097  29.965   0.328
48623W        W20349   3.438   0.965  11.772
48624W        W20350  23.671   3.775   1.523
48625W        W20351  10.814  29.424  11.115
48626W        W20352  40.068  34.575   2.310
48627W        W20353  16.200  20.055   1.707
48628W        W20354  41.518  31.717   1.770
48629W        W20355  42.361  28.912  11.584
48630W        W20356  19.692  39.792  13.984
48631W        W20357   1.119  26.643  12.565
48632W        W20358  23.009  21.614   1.799
48633W        W20359  42.777  42.910   1.435
48634W        W20360   0.871  27.344   3.254
48635W        W20361  37.481  17.424   3.588
48636W        W20362  20.055   4.987  12.031
48637W        W20363  10.760  26.507   4.125
48638W        W20364  37.473  22.771  11.070
48639W        W20365  11.291   9.393   4.117
48640W        W20366  17.148  10.353   4.486
48641W        W20367  44.031   4.503   3.120
48642W        W20368  11.172  30.813   1.223
48643W        W20369  29.683  24.685   0.933
48644W        W20370  24.089  39.922  13.975
48645W        W20371  39.898   0.816   0.167
48646W        W20372  12.845   7.132  13.128
48647W        W20373  29.024  42.210  11.535
48648W        W20374  24.423   8.583   2.362
48649W        W20375  12.192  19.134   0.485
48650W        W20376  14.838  38.803  12.049
48651W        W20377  19.307  29.602   3.089
48652W        W20378  29.235  20.831   1.841
48653W        W20379  24.185  37.448  14.970
48654W        W20380  34.970  31.875   3.578
48655W        W20381  21.293  35.941  14.322
48656W        W20382   2.528  43.904   1.340
48657W        W20383   9.692   0.869   0.344
48658W        W20384   6.264  44.683   0.871
48659W        W20385  31.024   7.821  14.431
48660W        W20386  35.911  42.490   1.979
48661W        W20387  44.257  14.866  11.913
48662W        W20388  19.083  22.566   4.946
48663W        W20389  14.047  30.112   2.292
48664W        W20390  25.953  20.782  13.408
48665W        W20391  15.199  36.892  12.039
48666W        W20392  32.606  44.192   2.335
48667W        W20393   5.711   6.634   3.268
48668W        W20394  24.781  12.178   0.636
48669W        W20395   8.281  32.555   2.969
48670W        W20396   5.242  18.626   0.656
48671W        W20397   3.902  19.685  12.083
48672W        W20398  12.304  17.135  14.082
48673W        W20399   3.916   2.962   4.115
48674W        W20400  14.818  30.732  13.541
48675W        W20401  21.154  26.865   2.518
48676W        W20402  35.895  28.243   0.787
48677W        W20403  31.569  13.130   0.409
48678W        W20404  17.385  40.405  13.397
48679W        W20405  44.135  20.000  14.955
48680W        W20406  31.451  16.150  13.808
48681W        W20407   9.341  43.383   4.656
48682W        W20408  15.409  36.982   0.209
48683W        W20409  30.736   4.161   0.893
48684W        W20410  37.611   8.351  13.346
48685W        W20411  40.722  35.882   4.856
48686W        W20412   8.732  22.125  14.230
48687W        W20413  35.238   5.439  11.687
48688W        W20414  28.755  11.225   0.679
48689W        W20415  18.103   0.912   2.965
48690W        W20416  22.865   9.774  14.191
48691W        W20417  22.653  31.576   2.666
48692W        W20418  31.106  22.338  13.944
48693W        W20419  42.318  33.826   3.914
48694W        W20420  32.336  18.132  10.963
48695W        W20421  15.811  26.487  10.693
48696W        W20422   1.470  30.383  11.846
48697W        W20423  36.401  37.100   4.134
48698W        W20424   4.276  29.378  11.156
48699W        W20425   7.135  40.238   5.129
48700W        W20426  38.625  30.222   4.058
48701W        W20427   5.192  12.919   2.861
48702W        W20428   6.360  40.328   5.023
48703W        W20429  26.650  11.566   0.306
48704W        W20430   4.521   5.548  10.060
48705W        W20431  31.640  24.237  12.756
48706W        W20432   3.243  30.142  10.449
48707W        W20433  20.525  15.261   3.020
48708W        W20434  13.048  36.456   4.146
48709W        W20435  12.247  12.835  14.403
48710W        W20436   8.848  16.566   2.326
48711W        W20437  28.161  28.471  12.291
48712W        W20438  43.603  18.157  12.916
48713W        W20439  12.532  16.835  12.975
48714W        W20440   6.349  16.057   0.403
48715W        W20441   9.918  24.677  12.905
48716W        W20442  19.085  15.190  11.914
48717W        W20443  31.069  32.006  11.892
48718W        W20444  16.448  33.752   1.715
48719W        W20445  19.096  23.054  11.865
48720W        W20446  44.837  20.026  12.799
48721W        W20447   8.679  34.404   3.644
48722W        W20448  40.296  23.163   4.594
48723W        W20449  18.598  31.043  12.414
48724W        W20450  38.486  40.563   0.343
48725W        W20451  18.568  20.602  14.970
48726W        W20452  29.905  25.591   5.469
48727W        W20453   1.446  14.880   1.887
48728W        W20454  22.435  13.830  12.839
48729W        W20455  36.635  39.056  13.927
48730W        W20456  33.921   6.349   4.790
48731W        W20457  22.028  32.248   1.436
48732W        W20458  20.689  11.918   4.133
48733W        W20459   0.358  13.075   1.243
48734W        W20460  26.646   7.212   0.809
48735W        W20461  30.555  41.492   5.077
48736W        W20462  32.096  27.772   3.338
48737W        W20463  27.137   9.569  11.210
48738W        W20464  39.917  15.136   4.233
48739W        W20465   6.776  11.901  14.304
48740W        W20466  40.789   4.154  13.376
48741W        W20467   6.846  23.551   2.057
48742W        W20468  15.424  31.599  11.014
48743W        W20469  44.398   8.819   2.736
48744W        W20470  37.863  34.887   1.705
48745W        W20471  14.732  15.133   3.722
48746W        W20472   2.669   1.871  14.676
48747W        W20473  15.572  15.663   2.681
48748W        W20474  11.384  20.260  12.629
48749W        W20475  26.788  42.777  14.841
48750W        W20476  36.886  30.150   0.866
48751W        W20477  28.581   2.378   0.804
48752W        W20478  15.240  26.106   2.329
48753W        W20479  10.130  39.256  11.608
48754W        W20480  41.689  33.555  13.510
48755W        W20481  22.711  10.655   2.673
48756W        W20482  33.050  12.192  10.681
48757W        W20483  17.232  30.369   3.406
48758W        W20484  28.606  38.151  11.498
48759W        W20485   0.382  28.643   0.079
48760W        W20486  38.287   0.506  12.983
48761W        W20487   7.528  11.569   1.312
48762W        W20488  36.192  33.306  10.137
48763W        W20489  22.091  24.456  10.191
48764W        W20490  29.239  37.111  12.816
48765W        W20491   4.310   4.260   5.613
48766W        W20492   8.227  40.597   0.699
48767W        W20493   5.399   3.331  12.513
48768W        W20494  21.561  18.248  13.948
48769W        W20495  39.563   4.249  11.495
48770W        W20496   7.388  21.115   1.235
48771W        W20497   6.487   2.472  14.618
48772W        W20498  32.460   9.081  11.534
48773W        W20499  31.524  29.524  11.903
48774W        W20500  21.552  26.552   0.057
48775W        W20501  44.352  34.418   3.137
48776W        W20502  35.347  21.247   1.837
48777W        W20503  12.064  37.796   1.440
48778W        W20504   4.916  39.713   0.715
48779W        W20505  36.851  33.083   0.386
48780W        W20506  19.257  25.385   3.960
48781W        W20507  36.422  15.326  11.388
48782W        W20508  32.618  11.646   1.986
48783W        W20509  21.560   8.822  12.232
48784W        W20510  22.319  34.530   1.712
48785W        W20511  18.056  12.313   0.212
48786W        W20512   9.202  22.933  10.633
48787W        W20513  23.680  16.161  11.073
48788W        W20514  42.358  24.475   2.307
48789W        W20515  40.046  16.819  11.982
48790W        W20516  38.587  20.055  11.023
48791W        W20517  36.987  40.538   4.513
48792W        W20518  28.219  31.406  11.714
48793W        W20519  20.521  16.448   3.158
48794W        W20520  22.649  17.348   4.679
48795W        W20521  30.165  32.102   3.428
48796W        W20522  36.552   8.803   1.284
48797W        W20523  17.149  16.099  10.565
48798W        W20524  11.805  25.046   1.778
48799W        W20525  25.824   1.467   2.042
48800W        W20526   8.571  35.034  10.184
48801W        W20527  12.376  43.571  11.968
48802W        W20528  26.176   0.002   3.321
48803W        W20529   6.288   5.671  11.904
48804W        W20530  33.657  14.542   3.310
48805W        W20531  20.277  26.191  14.456
48806W        W20532  38.433   1.212  14.311
48807W        W20533   1.797   3.207  12.403
48808W        W20534  42.987  13.287   2.698
48809W        W20535  15.638  37.865  13.828
48810W        W20536   6.898  19.953  13.465
48811W        W20537  19.633   4.272   1.067
48812W        W20538  20.300  35.387   0.927
48813W        W20539   2.688  14.865   2.213
48814W        W20540   2.731  24.364  11.517
48815W        W20541  38.930  37.557  12.560
48816W        W20542   4.931  25.644   2.862
48817W        W20543  35.379  38.767   3.258
48818W        W20544  41.766  16.637  14.489
48819W        W20545  29.202   6.821   3.410
48820W        W20546   2.715   7.965  14.374
48821W        W20547  31.172  15.430   4.378
48822W        W20548   0.873   3.955   4.427
48823W        W20549  11.608  33.898   2.269
48824W        W20550   2.252  19.014  14.981
48825W        W20551  40.453  24.182  11.858
48826W        W20552   5.415  14.623  13.071
48827W        W20553   3.036  23.747   1.843
48828W        W20554  28.163  18.044   3.324
48829W        W20555  27.887  16.719  14.447
48830W        W20556  42.901  33.403   1.703
48831W        W20557  36.605   1.476  11.103
48832W        W20558  40.415  12.213   1.431
48833W        W20559   2.448  41.831  13.783
48834W        W20560   2.303  24.038   0.698
48835W        W20561  43.458  38.325   1.773
48836W        W20562  25.717   1.296  13.060
48837W        W20563  40.016  13.313   0.894
48838W        W20564   5.729  40.032  11.253
48839W        W20565  43.877  39.269   3.054
48840W        W20566  36.337  22.963   2.487
48841W        W20567   5.403  40.513   1.312
48842W        W20568  35.370  40.468   2.721
48843W        W20569  25.175  25.033   1.668
48844W        W20570  42.912  37.842   1.016
48845W        W20571  19.597  41.215   2.358
48846W        W20572  11.633  21.491  12.980
48847W        W20573  18.689  40.426  14.731
48848W        W20574  43.239  32.016  12.678
48849W        W20575   2.494  23.635   1.942
48850W        W20576  25.095  38.575  12.179
48851W        W20577  30.091  32.052  14.683
48852W        W20578   2.008  38.078   2.724
48853W        W20579   9.557  11.223   3.658
48854W        W20580  26.705  22.161   1.786
48855W        W20581  43.035  36.880  13.411
48856W        W20582   0.513  21.692   4.668
48857W        W20583  10.491   1.407   0.286
48858W        W20584   6.934  11.279  13.307
48859W        W20585  36.478  33.500  14.316
48860W        W20586   7.297  34.796   5.208
48861W        W20587   9.186  27.910  10.785
48862W        W20588   7.615  36.475   0.651
48863W        W20589  38.558  25.169   4.217
48864W        W20590  31.171   5.040   4.523
48865W        W20591   5.777  35.949   1.955
48866W        W20592  39.283  26.032   0.834
48867W        W20593  30.193  25.777   0.344
48868W        W20594  28.269   1.753  10.408
48869W        W20595   8.377  35.038  11.535
48870W        W20596  41.585   6.433  11.985
48871W        W20597   4.296   4.768   0.069
48872W        W20598   4.250  24.215   4.750
48873W        W20599   6.719  39.566   2.308
48874W        W20600   4.948   2.974  10.689
48875W        W20601   7.359  27.070   3.168
48876W        W20602  14.350  16.023  13.793
48877W        W20603  23.162  34.024  12.347
48878W        W20604  39.022  28.177   2.994
48879W        W20605  31.386  18.744  12.403
48880W        W20606  41.408   6.441  13.484
48881W        W20607  13.331  40.211  12.412
48882W        W20608   5.264  12.628  13.937
48883W        W20609  39.693   4.976   0.379
48884W        W20610   9.283  28.636   2.334
48885W        W20611  39.932  43.875  12.358
48886W        W20612  24.106  43.124   3.809
48887W        W20613  39.154  41.726   4.720
48888W        W20614   1.810  21.388  10.548
48889W        W20615  40.837  30.135  14.284
48890W        W20616  20.084  25.789  13.137
48891W        W20617  27.957  11.129  14.989
48892W        W20618   6.353   9.728  14.501
48893W        W20619   5.659  40.658  12.069
48894W        W20620  22.052  42.440   4.410
48895W        W20621   0.782  29.362   1.429
48896W        W20622  14.417  20.724   3.650
48897W        W20623  25.874  31.943   0.478
48898W        W20624  33.150  37.399  13.269
48899W        W20625  18.974  29.975  14.536
48900W        W20626  22.283  35.119  10.376
48901W        W20627   7.180   5.167  10.679
48902W        W20628  21.954  40.874  14.033
48903W        W20629  20.629   1.982  13.823
48904W        W20630  29.436  10.412   4.557
48905W        W20631  44.881  21.216  13.953
48906W        W20632  16.052  15.098  13.556
48907W        W20633  37.709  17.681   4.289
48908W        W20634  16.769  31.896  14.244
48909W        W20635  35.529   3.933   4.032
48910W        W20636   7.922  21.554  14.505
48911W        W20637  18.367   2.716  14.316
48912W        W20638  39.446  27.961  14.274
48913W        W20639  15.560  39.399   0.301
48914W        W20640  34.496  26.752   1.223
48915W        W20641   3.368  19.668   2.678
48916W        W20642  26.805  10.823   2.263
48917W        W20643  30.877  36.296  13.442
48918W        W20644  25.415   7.882  11.563
48919W        W20645  31.073  24.900   3.698
48920W        W20646  26.069  40.271   3.861
48921W        W20647  30.616   1.347  14.607
48922W        W20648  35.672  17.750  14.559
48923W        W20649  33.962  19.560   2.908
48924W        W20650  13.564  42.783   3.775
48925W        W20651   5.942  24.698   0.354
48926W        W20652  44.002  36.661   4.796
48927W        W20653  32.366  25.084   2.782
48928W        W20654   5.271  41.942   2.953
48929W        W20655  16.823   2.968  14.515
48930W        W20656  40.421   8.207   2.385
48931W        W20657  39.993  21.841  10.374
48932W        W20658  42.536   7.221   3.160
48933W        W20659   7.638   9.235   3.263
48934W        W20660  25.680  35.129  14.870
48935W        W20661   5.126  27.433  11.627
48936W        W20662  32.888  40.849  11.422
48937W        W20663  19.549  14.459   1.033
48938W        W20664  13.789  10.352   1.353
48939W        W20665   0.418   8.265   0.726
48940W        W20666  21.834  43.262   2.773
48941W        W20667  35.866  32.603  13.854
48942W        W20668  31.855   6.749  12.942
48943W        W20669  19.345  19.747   4.297
48944W        W20670  31.590  28.021  11.600
48945W        W20671  10.433  26.580   3.675
48946W        W20672   8.190   4.991  10.989
48947W        W20673  25.993  19.010   3.225
48948W        W20674   3.748  42.784  12.529
48949W        W20675  32.632  33.127   2.742
48950W        W20676  18.000  26.831   0.971
48951W        W20677  14.223  12.752  12.773
48952W        W20678  31.658  17.114  11.610
48953W        W20679  28.170  44.291   0.581
48954W        W20680  25.061  11.811   0.371
48955W        W20681  43.730   5.287  13.999
48956W        W20682  12.535   6.133  10.951
48957W        W20683  31.962  15.334   2.026
48958W        W20684  30.498  23.450   2.000
48959W        W20685   7.849  15.739  12.154
48960W        W20686  16.581  35.008   1.596
48961W        W20687  20.610  19.608   3.139
48962W        W20688  29.088  13.374   3.877
48963W        W20689  17.525   1.147   1.841
48964W        W20690  20.527  23.594  12.511
48965W        W20691   7.026  42.804   4.537
48966W        W20692  43.419  31.053   0.838
48967W        W20693  43.009  37.782  13.559
48968W        W20694   5.246  11.182  12.647
48969W        W20695   3.502  20.328  11.569
48970W        W20696  26.572  26.668  14.025
48971W        W20697  12.179  31.358  14.943
48972W        W20698   4.961   0.752  11.029
48973W        W20699   6.106  26.261   0.750
48974W        W20700  29.066   5.697   4.579
48975W        W20701  33.469  34.410   3.573
48976W        W20702  31.281  27.101   5.645
48977W        W20703  39.581  23.632   3.646
48978W        W20704  12.818   2.439  14.342
48979W        W20705  17.824  28.087   2.846
48980W        W20706  40.514  41.546   4.990
48981W        W20707  21.145  31.907  12.385
48982W        W20708  42.463   4.655  12.586
48983W        W20709  25.560  11.935   4.157
48984W        W20710   1.414  41.836   1.230
48985W        W20711  14.504  36.875  11.431
48986W        W20712  32.415  43.626   1.508
48987W        W20713  16.863   8.873   2.576
48988W        W20714  29.936  21.024   0.010
48989W        W20715   8.817  33.580  11.118
48990W        W20716   0.840  38.320   4.471
48991W        W20717  12.700   3.039   2.390
48992W        W20718  30.061  44.969   0.742
48993W        W20719  33.388   5.350  13.840
48994W        W20720  43.472  37.174   3.592
48995W        W20721  37.085  17.292  10.716
48996W        W20722  32.542  41.874  11.935
48997W        W20723  26.731  13.548  10.955
48998W        W20724   8.209  34.801  11.079
48999W        W20725  30.629  26.041  14.457
49000W        W20726  19.789  24.035  11.442
49001W        W20727   2.418  13.916  11.400
49002W        W20728  31.572  40.355   2.306
49003W        W20729  25.663   1.193   0.367
49004W        W20730  28.247  44.010  14.745
49005W        W20731   5.602  17.251  10.573
49006W        W20732  13.816  43.654   4.486
49007W        W20733  24.110   0.606  10.596
49008W        W20734   5.627  40.027  13.986
49009W        W20735  19.196  23.635   2.034
49010W        W20736   6.269  14.594   3.500
49011W        W20737  13.289  39.584  14.312
49012W        W20738  40.094  42.461  10.706
49013W        W20739  20.006  23.008  10.802
49014W        W20740   1.764  17.924   0.399
49015W        W20741  10.400   7.311   2.963
49016W        W20742  19.775  27.029   2.821
49017W        W20743  11.898   3.142  14.917
49018W        W20744  33.599  42.447  11.040
49019W        W20745  24.495  10.369   2.789
49020W        W20746  36.402  22.198   0.468
49021W        W20747  20.779  30.625   3.741
49022W        W20748   6.833  16.835   0.355
49023W        W20749  27.799  27.608  13.736
49024W        W20750   7.178  12.106  10.712
49025W        W20751  17.827  16.800   1.324
49026W        W20752   8.579  23.895   0.960
49027W        W20753   6.765  34.725   0.507
49028W        W20754  27.174  27.242  11.644
49029W        W20755   4.034  17.696   3.931
49030W        W20756  32.901  43.152   2.862
49031W        W20757  35.587  25.918   4.606
49032W        W20758  29.073   3.251   3.048
49033W        W20759  42.987  27.201  13.844
49034W        W20760  44.449  28.615   3.291
49035W        W20761   4.457  10.301   0.177
49036W        W20762  39.514  34.520  14.538
49037W        W20763  19.846   3.823   2.793
49038W        W20764  13.406   3.400  11.259
49039W        W20765  15.063   3.255   2.318
49040W        W20766  38.213  19.116   2.999
49041W        W20767  35.435  14.489   3.161
49042W        W20768  18.801  39.377  14.816
49043W        W20769  31.901  35.920  12.528
49044W        W20770  37.491  30.159  11.924
49045W        W20771  19.483  24.607   1.733
49046W        W20772   4.906  25.404  13.293
49047W        W20773  30.408  21.494   2.528
49048W        W20774  22.682  37.154  11.916
49049W        W20775  12.724  19.023   0.493
49050W        W20776  24.783  35.522  10.855
49051W        W20777  40.935  39.460  11.530
49052W        W20778   1.219   3.366   1.333
49053W        W20779  11.310  27.910  10.025
49054W        W20780  44.953  24.522   3.280
49055W        W20781  19.212  22.975  14.324
49056W        W20782  24.124  18.266  10.195
49057W        W20783   6.452  28.611  10.938
49058W        W20784  24.332  38.034  12.403
49059W        W20785  28.618  16.481  14.019
49060W        W20786  43.556  37.157  12.012
49061W        W20787  38.911  38.755   0.425
49062W        W20788  33.058   3.716   4.150
49063W        W20789  21.874  31.232  14.678
49064W        W20790  21.459  30.811   4.568
49065W        W20791  27.558  43.472   0.914
49066W        W20792  29.904  31.203  12.045
49067W        W20793   9.282   0.290  10.740
49068W        W20794   3.914  34.128  12.161
49069W        W20795  24.743   5.274  12.190
49070W        W20796  34.493  29.478   2.406
49071W        W20797  19.334  11.745  11.188
49072W        W20798   6.515  10.697  13.622
49073W        W20799  43.060  22.152  14.339
49074W        W20800  32.372   8.295   2.245
49075W        W20801  36.046   9.789  11.209
49076W        W20802  21.072  23.198  13.562
49077W        W20803  22.172  38.530   0.299
49078W        W20804  11.397  15.917  11.551
49079W        W20805   3.433   6.246   4.188
49080W        W20806   1.912   5.857  14.934
49081W        W20807   0.800  43.735   0.271
49082W        W20808   1.848  17.403   0.392
49083W        W20809   3.419  21.589   0.926
49084W        W20810   8.628  36.987   1.740
49085W        W20811   4.353  42.759  12.075
49086W        W20812  40.940  17.731  12.552
49087W        W20813   9.447  10.207   0.386
49088W        W20814  32.720   3.359   0.045
49089W        W20815  40.427  43.216   1.264
49090W        W20816   9.473   8.458  13.445
49091W        W20817  26.208   4.787   3.319
49092W        W20818   7.152  41.537   0.346
49093W        W20819  20.357  34.563  10.892
49094W        W20820   5.132  40.369  12.728
49095W        W20821  41.756  23.581  10.633
49096W        W20822  42.810  26.432   1.442
49097W        W20823  11.311  33.301   3.546
49098W        W20824  27.707  34.659   0.989
49099W        W20825  38.771  29.633   0.068
49100W        W20826  36.089  21.139  10.734
49101W        W20827   9.352  34.342   4.184
49102W        W20828   2.398  44.812  14.907
49103W        W20829  16.844   3.901  12.517
49104W        W20830   0.868  35.498  13.790
49105W        W20831  41.593  40.052   2.115
49106W        W20832  24.252  44.902   4.964
49107W        W20833  38.435  26.085   4.150
49108W        W20834  12.632  40.883  12.922
49109W        W20835  44.286  21.542   0.238
49110W        W20836  34.244  33.508   1.206
49111W        W20837  12.303   0.269   3.102
49112W        W20838  33.472  40.649   2.764
49113W        W20839  25.044  22.465   1.686
49114W        W20840  40.391  31.731  12.124
49115W        W20841  20.107  44.963  12.337
49116W        W20842  24.992   5.114   1.845
49117W        W20843  25.673   6.239  11.853
49118W        W20844  42.992   7.890   3.155
49119W        W20845  27.259   6.960  13.919
49120W        W20846   3.418  24.215   1.817
49121W        W20847   1.970  36.637  14.826
49122W        W20848   3.714  39.508   1.341
49123W        W20849  41.914  20.343  10.551
49124W        W20850   4.750  26.545   0.008
49125W        W20851  41.756  43.760  14.209
49126W        W20852  31.091  23.593  11.506
49127W        W20853  44.296   2.835   3.570
49128W        W20854   9.610  14.995  11.945
49129W        W20855  37.328  43.979  13.566
49130W        W20856  34.135  24.040   1.284
49131W        W20857  39.979  13.816   2.206
49132W        W20858  29.743   9.181  14.925
49133W        W20859  41.466  37.820  12.073
49134W        W20860  21.192  23.029   3.656
49135W        W20861   6.702  20.908   1.766
49136W        W20862  22.600  28.545  14.561
49137W        W20863  17.171   4.822   3.814
49138W        W20864  27.235  23.533  12.499
49139W        W20865  36.859  22.493  14.954
49140W        W20866  21.957  28.623   1.490
49141W        W20867   5.424  13.084  14.886
49142W        W20868  42.637  19.622  12.346
49143W        W20869  12.382  32.108   4.335
49144W        W20870  42.776  38.365  14.760
49145W        W20871  17.682  41.059   4.170
49146W        W20872  13.135  19.227  13.384
49147W        W20873   7.587   6.235  13.353
49148W        W20874   7.217  19.352   0.043
49149W        W20875  17.349  33.189   0.316
49150W        W20876  33.009   7.103  13.432
49151W        W20877  28.456  23.579   0.877
49152W        W20878  27.196  35.427  11.896
49153W        W20879  35.039  43.983   2.272
49154W        W20880  42.459  21.042   4.155
49155W        W20881  31.053  33.084  14.352
49156W        W20882  27.837  20.101   4.064
49157W        W20883   4.222  25.192   0.491
49158W        W20884  11.372  43.913  14.709
49159W        W20885  14.343  36.529  14.595
49160W        W20886  39.131  22.073   4.972
49161W        W20887  22.658  19.186   3.054
49162W        W20888  27.990  39.604  12.681
49163W        W20889   5.810  16.270   5.649
49164W        W20890   0.796   3.492   3.671
49165W        W20891  20.559  21.018   2.173
49166W        W20892  43.038  38.757  14.983
49167W        W20893  29.370  36.067   1.467
49168W        W20894  16.610   5.656  14.206
49169W        W20895  16.235  21.702  10.479
49170W        W20896  40.424   1.092   4.217
49171W        W20897   5.675  18.795  12.101
49172W        W20898  29.443  21.490  12.542
49173W        W20899  25.160  30.143  13.518
49174W        W20900  30.615  12.754  10.735
49175W        W20901  15.227  19.190   2.457
49176W        W20902  33.347   1.002   1.852
49177W        W20903  41.085  29.650   2.208
49178W        W20904   7.158   5.321   5.034
49179W        W20905  31.622  40.739   2.766
49180W        W20906  44.204  43.545  14.765
49181W        W20907   7.641   3.852   0.431
49182W        W20908  44.846  23.248  13.822
49183W        W20909  30.870   3.275   1.931
49184W        W20910   2.452  11.391   4.602
49185W        W20911   3.665  27.202  13.284
49186W        W20912  20.690   9.088   2.853
49187W        W20913   6.408   4.335   1.446
49188W        W20914  20.383  43.316   3.714
49189W        W20915  42.756  13.751   1.645
49190W        W20916  32.747  17.855   2.159
49191W        W20917  36.368  36.314  11.078
49192W        W20918   7.335   5.244  14.080
49193W        W20919  34.573   8.961  14.311
49194W        W20920   2.490  30.940  12.880
49195W        W20921  15.321  35.986   0.820
49196W        W20922  28.153   6.915   3.262
49197W        W20923  13.018  41.881  12.056
49198W        W20924  44.696  39.898   1.505
49199W        W20925  32.481  25.121   5.160
49200W        W20926  22.240   7.336  10.656
49201W        W20927  15.523  22.614   3.722
49202W        W20928  26.113  38.869  12.835
49203W        W20929   7.833  42.989  12.984
49204W        W20930  25.566  20.778   1.390
49205W        W20931  39.488  37.230  11.286
49206W        W20932  44.641  43.128  11.174
49207W        W20933  33.584   5.355  12.428
49208W        W20934  35.314  27.173   3.716
49209W        W20935  36.694  15.821  10.674
49210W        W20936  37.628  43.363   0.899
49211W        W20937  12.884  23.191  11.905
49212W        W20938   2.465  18.514   3.253
49213W        W20939  26.662  27.711  14.906
49214W        W20940  31.878   2.892  14.869
49215W        W20941  15.670  43.610  14.960
49216W        W20942   5.510  39.695   2.326
49217W        W20943  26.580  28.160   5.112
49218W        W20944   8.298   8.869   1.666
49219W        W20945  24.002  30.988   4.629
49220W        W20946  18.949  41.993  11.894
49221W        W20947  15.300  33.009   3.834
49222W        W20948  29.623  26.525  14.907
49223W        W20949  36.086   3.858   3.215
49224W        W20950  30.911   8.746   3.562
49225W        W20951  17.114  21.444  10.322
49226W        W20952  32.187  26.503  11.643
49227W        W20953  29.839  38.900  13.790
49228W        W20954   2.334  24.721  10.684
49229W        W20955   0.751   9.114   4.527
49230W        W20956  29.080  40.488  13.434
49231W        W20957  11.792   7.617   4.131
49232W        W20958  33.482  11.202   2.265
49233W        W20959  33.811  13.773  14.289
49234W        W20960   1.861  30.727  12.164
49235W        W20961  14.755   2.479   1.027
49236W        W20962  38.190  29.922  13.429
49237W        W20963  37.374  22.559   3.236
49238W        W20964  14.554  33.987   0.453
49239W        W20965  11.047  26.797   4.601
49240W        W20966  38.550  15.755  12.554
49241W        W20967  38.926  17.785  14.258
49242W        W20968  12.825  16.692  13.996
49243W        W20969  35.580  10.431   2.599
49244W        W20970  20.988   7.748   2.442
49245W        W20971   3.219  35.463   3.739
49246W        W20972  41.488  39.607  14.272
49247W        W20973   6.210  30.666   3.214
49248W        W20974   6.804  27.609  10.772
49249W        W20975  32.679  36.096  10.610
49250W        W20976   2.008   4.209  12.002
49251W        W20977  28.654  25.955   2.861
49252W        W20978   0.443  24.674   3.385
49253W        W20979   2.499   1.796   1.384
49254W        W20980  14.796  37.017  12.597
49255W        W20981  14.899  26.591  11.900
49256W        W20982  12.869   3.355   1.748
49257W        W20983  13.658  23.668  11.445
49258W        W20984  38.534  33.512   3.936
49259W        W20985   6.837   6.795  10.298
49260W        W20986  19.983  15.244   1.564
49261W        W20987  11.876  37.496   3.197
49262W        W20988  12.650  42.185  12.412
49263W        W20989  12.231  34.661   0.413
49264W        W20990   4.734  13.278  13.585
49265W        W20991  28.024   3.735  12.791
49266W        W20992   1.037  25.768  11.111
49267W        W20993  30.671  26.113   2.424
49268W        W20994  42.304  38.878   3.269
49269W        W20995   9.360   0.204  13.015
49270W        W20996  41.014  43.238  14.541
49271W        W20997  17.722  14.669  13.293
49272W        W20998  38.524  27.980  11.076
49273W        W20999  26.744   6.672   0.819
49274W        W21000  28.117  19.562   3.656
49275W        W21001  20.539  24.635  11.067
49276W        W21002  22.240   9.372   0.372
49277W        W21003   1.498  27.141  11.853
49278W        W21004  42.806   9.267  12.086
49279W        W21005  37.649  23.852  13.894
49280W        W21006  30.524  25.995  11.650
49281W        W21007   7.332   8.831  10.931
49282W        W21008   8.328  44.149   3.602
49283W        W21009  31.829  35.800   4.133
49284W        W21010  39.668  39.700  11.084
49285W        W21011  23.497  20.554   3.437
49286W        W21012  15.498  13.380   4.383
49287W        W21013   4.697  12.922  14.408
49288W        W21014  22.553  25.633  10.670
49289W        W21015   2.378   6.650  14.780
49290W        W21016  38.999  29.422   3.628
49291W        W21017  27.632  39.897   3.161
49292W        W21018  20.573  12.399   3.275
49293W        W21019  26.527  11.266  11.961
49294W        W21020  10.834  23.007   1.366
49295W        W21021  29.745  16.196   0.867
49296W        W21022  41.780  22.653   1.333
49297W        W21023  23.981   0.792   4.736
49298W        W21024  29.350  25.693  11.601
49299W        W21025  26.635  13.174   2.945
49300W        W21026  13.040  23.710  10.827
49301W        W21027   6.935   3.449   1.891
49302W        W21028  15.170  28.196  14.285
49303W        W21029   3.955  24.738  13.722
49304W        W21030  42.802  11.786  11.432
49305W        W21031  13.183  31.467  10.560
49306W        W21032  43.395  37.509   2.153
49307W        W21033  15.521  34.479   3.417
49308W        W21034   3.950  30.107  12.772
49309W        W21035  35.842  11.656  13.873
49310W        W21036  10.432  15.744   1.996
49311W        W21037  36.932  41.451   4.673
49312W        W21038  38.355  22.555  11.709
49313W        W21039  10.659  11.096   4.264
49314W        W21040  11.791  42.786  11.124
49315W        W21041  40.509  22.657   4.558
49316W        W21042   4.787  39.832  11.659
49317W        W21043  11.734  34.146   1.784
49318W        W21044  12.114   0.067   0.813
49319W        W21045   6.218   8.765  10.692
49320W        W21046  17.451  20.803  11.055
49321W        W21047  27.983   3.802   2.099
49322W        W21048  42.961  15.699  12.481
49323W        W21049   3.946  36.770   3.967
49324W        W21050  25.006   5.625   2.740
49325W        W21051  23.189   8.458   2.960
49326W        W21052   8.252  40.546  12.266
49327W        W21053  40.355  23.038  14.890
49328W        W21054  19.266  34.542   1.683
49329W        W21055  24.622  35.324  14.414
49330W        W21056   9.940  20.293  12.571
49331W        W21057   8.808  14.859   1.413
49332W        W21058  23.230  19.128  12.541
49333W        W21059  31.040   8.813   0.224
49334W        W21060   1.701  31.699  11.072
49335W        W21061  11.311  44.431   2.771
49336W        W21062  31.531   8.222  12.732
49337W        W21063   8.917  42.018  13.480
49338W        W21064   7.065  14.488  12.650
49339W        W21065   4.315   1.946   0.328
49340W        W21066   2.163   3.356   4.291
49341W        W21067   9.197   3.260  12.697
49342W        W21068  11.302  12.304  13.159
49343W        W21069  38.537  24.942   1.955
49344W        W21070  23.659  42.953   0.787
49345W        W21071  20.247  13.732  11.696
49346W        W21072  32.934  18.741   0.543
49347W        W21073  36.286  33.469  12.384
49348W        W21074   1.194  27.591  11.922
49349W        W21075   3.936   5.241  11.674
49350W        W21076   5.809  17.698  10.681
49351W        W21077   6.681   2.953   2.726
49352W        W21078   9.382  12.138   0.414
49353W        W21079  24.170  18.917   0.397
49354W        W21080  22.671  44.057  11.099
49355W        W21081  37.152  15.123   5.154
49356W        W21082  11.935  37.059   0.322
49357W        W21083  21.686  30.311   4.673
49358W        W21084   0.181   7.829  11.143
49359W        W21085  34.070  33.617   0.708
49360W        W21086   6.792  17.732   1.738
49361W        W21087  41.207  18.174  12.434
49362W        W21088  17.050  44.482   5.138
49363W        W21089   1.290  30.909  13.954
49364W        W21090  20.527   8.392   0.402
49365W        W21091  38.603  25.075   3.359
49366W        W21092   2.909  37.615  12.570
49367W        W21093   6.187   6.873  13.448
49368W        W21094   5.733   4.982  10.249
49369W        W21095  20.512  30.378   0.373
49370W        W21096   6.091   3.782   1.735
49371W        W21097   4.529  20.978   0.481
49372W        W21098  13.094  27.193   2.408
49373W        W21099  14.937   1.729  10.274
49374W        W21100  36.822  19.235   3.494
49375W        W21101  19.444  36.224   2.347
49376W        W21102  21.492  44.193  11.063
49377W        W21103   7.707  27.221  12.591
49378W        W21104  19.308  37.080  11.873
49379W        W21105  43.278  21.808   2.785
49380W        W21106   0.499   2.545   0.458
49381W        W21107  30.083   4.657   4.205
49382W        W21108  25.664  42.471  12.848
49383W        W21109  13.258  22.091   2.761
49384W        W21110  40.422  25.043   0.334
49385W        W21111  13.285  38.497   2.149
49386W        W21112   1.376  37.563  14.367
49387W        W21113  36.865  22.314  12.106
49388W        W21114  31.368  17.548  13.059
49389W        W21115  19.074  25.957   0.713
49390W        W21116  43.522  19.956  11.925
49391W        W21117  39.097  39.295  12.561
49392W        W21118   2.316  34.064   4.714
49393W        W21119  37.445  14.168  13.326
49394W        W21120   5.321  22.101  14.021
49395W        W21121   1.166   0.714   0.349
49396W        W21122  18.974   3.920   0.362
49397W        W21123  29.592  12.533   4.866
49398W        W21124  33.025   3.168   1.291
49399W        W21125  10.031  17.706   2.214
49400W        W21126  26.570  44.490  13.775
49401W        W21127  25.053  29.607  12.158
49402W        W21128  43.176   4.781  14.464
49403W        W21129   7.193  11.869  13.515
49404W        W21130  15.653  11.959  14.359
49405W        W21131  22.249  17.749   4.032
49406W        W21132  44.443  13.790  14.523
49407W        W21133  36.998  11.433  11.196
49408W        W21134  27.614  16.010   2.818
49409W        W21135  33.902  24.017   2.822
49410W        W21136  19.125   3.415   0.368
49411W        W21137  11.754  19.026   3.213
49412W        W21138  40.330  23.245  11.978
49413W        W21139   8.447   9.037   2.125
49414W        W21140  15.020  40.018  12.391
49415W        W21141   9.836  14.597  14.117
49416W        W21142  44.853  43.824   1.497
49417W        W21143  27.450  35.960   0.497
49418W        W21144  33.921   8.603   0.812
49419W        W21145  34.149  34.745  10.903
49420W        W21146  34.013   8.565   4.955
49421W        W21147  41.539   0.954   4.187
49422W        W21148   3.539  34.160  11.278
49423W        W21149  15.009  32.364   2.753
49424W        W21150  13.405  41.076  11.200
49425W        W21151  35.437  26.485  12.287
49426W        W21152  31.915  15.769   3.417
49427W        W21153   2.435  44.480   0.697
49428W        W21154  15.125  12.124   1.866
49429W        W21155  15.667  44.409   1.403
49430W        W21156  20.538  10.339   3.588
49431W        W21157  29.500  42.976   1.190
49432W        W21158  37.194  33.211  10.817
49433W        W21159  18.308  29.621   0.815
49434W        W21160  10.157  13.766   3.208
49435W        W21161  22.293  38.497  12.830
49436W        W21162  25.674   7.856  12.542
49437W        W21163  36.327  22.558  11.661
49438W        W21164  36.330   9.123   2.105
49439W        W21165  37.064   6.862   2.669
49440W        W21166   4.309  27.027   4.806
49441W        W21167  42.740  13.060  11.966
49442W        W21168   6.320  41.852  12.143
49443W        W21169  26.219   6.813  12.048
49444W        W21170  20.305  23.659  11.552
49445W        W21171  17.589  35.825  13.982
49446W        W21172   1.688  21.103  12.953
49447W        W21173   4.212  43.382   1.978
49448W        W21174  34.865  24.755   1.287
49449W        W21175   2.675  16.228  13.314
49450W        W21176  23.494   2.460   3.883
49451W        W21177  25.643   0.077  10.348
49452W        W21178   0.525   9.161   1.231
49453W        W21179  30.643  16.206   3.285
49454W        W21180  44.061  11.863  11.916
49455W        W21181   3.431  30.470  11.630
49456W        W21182   8.921  11.416   4.303
49457W        W21183  35.833   1.985   3.271
49458W        W21184  18.751  36.032  13.432
49459W        W21185  33.501  33.436   3.450
49460W        W21186  26.372  17.009  12.741
49461W        W21187  38.864  18.874  13.027
49462W        W21188  44.716   7.308  13.792
49463W        W21189   6.247  40.310  13.515
49464W        W21190   0.929  39.428  10.373
49465W        W21191  39.026  18.587   4.665
49466W        W21192  28.513  25.658   0.978
49467W        W21193   0.064  26.550   2.010
49468W        W21194  28.422  40.693   4.069
49469W        W21195  41.577   1.641   0.843
49470W        W21196  25.047  12.559  12.461
49471W        W21197   5.671  28.012  14.395
49472W        W21198  42.260  17.644  13.911
49473W        W21199  11.544  18.549  10.687
49474W        W21200  42.372  23.622   1.812
49475W        W21201  41.215  32.381  11.054
49476W        W21202  33.673   0.821   2.714
49477W        W21203  28.417   2.190  11.009
49478W        W21204  29.960  41.849   4.440
49479W        W21205   0.813  31.163  12.974
49480W        W21206  42.559   3.832  14.991
49481W        W21207  28.354  39.728   0.206
49482W        W21208   8.140  28.767  12.130
49483W        W21209  12.879  12.711   4.451
49484W        W21210   2.489   5.805   3.304
49485W        W21211   7.377  21.221   4.084
49486W        W21212   0.700  44.867   4.169
49487W        W21213   5.228  24.917   4.636
49488W        W21214   6.687  19.613  12.078
49489W        W21215   0.346  17.384  14.489
49490W        W21216  10.305  28.415  10.439
49491W        W21217  25.604  19.691  11.595
49492W        W21218   0.639  42.976  10.295
49493W        W21219  38.153   3.644   3.232
49494W        W21220  38.301   5.699   2.619
49495W        W21221  13.907   7.122  12.974
49496W        W21222  24.744  27.593   0.131
49497W        W21223   5.485  11.699   4.988
49498W        W21224  35.416  18.391  12.064
49499W        W21225  37.106  21.790   3.621
49500W        W21226  38.707  12.635   0.499
49501W        W21227  31.155  19.166   4.456
49502W        W21228   3.164  33.854  13.775
49503W        W21229  18.016  18.177   3.741
49504W        W21230  31.568  39.268   2.837
49505W        W21231   8.952  19.092   1.263
49506W        W21232  35.046  13.129  13.425
49507W        W21233  12.544  36.358   4.128
49508W        W21234   1.484  42.817  14.517
49509W        W21235  31.038  38.393   1.602
49510W        W21236  37.365  30.501  13.474
49511W        W21237  13.234  43.073   4.091
49512W        W21238  12.267  25.497  14.384
49513W        W21239  41.486   4.216   1.275
49514W        W21240  34.239  15.902  13.514
49515W        W21241  28.036  33.835  10.662
49516W        W21242  33.393  15.597  13.016
49517W        W21243  17.483  19.113  11.592
49518W        W21244   9.715  35.003   5.136
49519W        W21245  33.324  43.745   1.765
49520W        W21246   1.770  18.617  12.488
49521W        W21247  21.360  38.502  11.157
49522W        W21248  16.689   0.950  12.327
49523W        W21249  26.097  14.886   0.461
49524W        W21250  37.861  32.114   0.353
49525W        W21251  29.483  19.494   1.061
49526W        W21252  32.073  41.605   1.301
49527W        W21253  43.048  44.519  12.983
49528W        W21254   3.181  31.251   0.442
49529W        W21255  37.316  33.388   1.450
49530W        W21256   3.888  25.261  14.458
49531W        W21257  30.597  38.849  11.442
49532W        W21258  20.046  25.257  14.078
49533W        W21259  10.209  31.091   0.246
49534W        W21260  37.404   3.335  11.038
49535W        W21261  20.986  10.069   3.720
49536W        W21262  29.302  20.555  14.571
49537W        W21263  28.489  27.260  14.280
49538W        W21264  25.164   2.400   4.105
49539W        W21265   5.416  43.298   4.137
49540W        W21266  21.718  21.471   4.232
49541W        W21267  41.687  39.463   2.799
49542W        W21268  20.893  28.484  13.040
49543W        W21269  31.560  23.410  11.556
49544W        W21270  38.345  12.386   1.924
49545W        W21271  13.230  29.928  10.750
49546W        W21272  29.926   4.505  10.941
49547W        W21273  17.252  19.860  10.286
49548W        W21274   7.221  33.605  14.133
49549W        W21275  34.802  35.491  11.521
49550W        W21276  19.188  22.986  13.791
49551W        W21277  19.491  20.263  12.836
49552W        W21278   1.819  32.974   4.739
49553W        W21279  34.552  41.254   4.782
49554W        W21280  14.802  37.551  11.156
49555W        W21281   3.965   2.679  12.424
49556W        W21282  13.678  43.499   3.449
49557W        W21283   3.894  19.838   1.791
49558W        W21284  40.050  29.516  13.560
49559W        W21285   4.685   0.882   3.684
49560W        W21286  12.309  33.376   1.888
49561W        W21287   1.917   2.921   1.653
49562W        W21288  42.019  25.169  11.516
49563W        W21289  18.531  24.670  13.351
49564W        W21290  23.343  34.563  12.513
49565W        W21291  21.543  32.578  14.870
49566W        W21292  37.889  24.272  13.694
49567W        W21293   3.446  38.149   3.771
49568W        W21294  17.099  19.285  12.528
49569W        W21295  26.465  32.266  13.263
49570W        W21296  17.052  12.842  13.424
49571W        W21297  13.974   5.851  11.268
49572W        W21298  36.149  13.595  11.176
49573W        W21299  24.647  42.309  11.155
49574W        W21300  29.236  26.098  11.904
49575W        W21301   9.861  19.253  14.265
49576W        W21302  18.695  33.988   4.347
49577W        W21303  14.765  27.865  11.860
49578W        W21304  43.872  25.407   4.308
49579W        W21305   9.265  37.982   3.095
49580W        W21306  25.657   6.322   1.826
49581W        W21307  26.675  38.602  11.349
49582W        W21308  23.404  41.560  14.536
49583W        W21309  41.373  41.628  14.453
49584W        W21310  32.365  19.781  12.045
49585W        W21311  18.167  25.083   0.382
49586W        W21312  14.292  15.210  10.927
49587W        W21313  13.358  36.799   0.189
49588W        W21314  19.645  21.348   0.763
49589W        W21315  41.506  28.471   1.496
49590W        W21316  13.290   8.307  13.462
49591W        W21317  33.177  35.017  14.946
49592W        W21318  21.144  24.468  12.404
49593W        W21319   0.354   8.971   0.374
49594W        W21320  29.561  43.797  14.377
49595W        W21321  14.315  19.628  12.153
49596W        W21322  21.566  14.604  14.015
49597W        W21323  42.415   1.695  12.658
49598W        W21324   7.741  34.373   4.653
49599W        W21325  16.667  13.737  13.468
49600W        W21326  12.243   6.622  11.034
49601W        W21327   6.353  32.504   4.302
49602W        W21328   4.253  15.634  13.312
49603W        W21329  11.781  27.918  11.439
49604W        W21330   8.418   9.692  11.564
49605W        W21331  27.414  15.627   3.702
49606W        W21332   0.399   5.481  12.462
49607W        W21333  31.926  26.476  12.086
49608W        W21334  14.131  16.614   2.833
49609W        W21335  36.495  18.597  12.949
49610W        W21336  32.991  29.637   4.271
49611W        W21337  38.894  42.022   4.336
49612W        W21338  12.976  21.692  12.541
49613W        W21339  26.248  33.850  13.020
49614W        W21340  18.075  13.617   1.511
49615W        W21341  26.835  15.137  14.561
49616W        W21342  37.699  31.192  11.700
49617W        W21343   2.805   8.832  11.501
49618W        W21344  38.274  36.591   1.336
49619W        W21345   2.794   3.973  11.631
49620W        W21346   1.579  33.124  11.064
49621W        W21347  14.300  19.777   0.967
49622W        W21348  21.373   8.930   2.776
49623W        W21349  24.578  44.932  10.411
49624W        W21350  27.505  24.477   2.704
49625W        W21351   0.354  37.138  14.300
49626W        W21352  31.569  17.059   0.124
49627W        W21353   7.271   6.221   0.852
49628W        W21354  13.488  22.672  10.214
49629W        W21355   3.362  14.318  10.528
49630W        W21356  11.694  14.483  11.561
49631W        W21357  27.114  20.751   4.169
49632W        W21358  36.059  27.391   3.328
49633W        W21359  40.526  28.045  13.384
49634W        W21360   8.578  30.653   4.101
49635W        W21361  39.384  30.679   2.128
49636W        W21362  24.710  41.525   1.154
49637W        W21363  18.089  15.363  12.510
49638W        W21364  16.107  42.188   5.020
49639W        W21365  37.913  11.685  12.131
49640W        W21366  33.988  28.158   3.444
49641W        W21367  32.434  41.194   4.547
49642W        W21368  25.280  30.463   5.093
49643W        W21369  21.758  38.860  13.967
49644W        W21370  10.284  25.902   0.268
49645W        W21371   0.742  35.965  14.801
49646W        W21372   8.943  43.941   1.779
49647W        W21373  31.844  42.919  13.335
49648W        W21374   4.874  16.183   2.198
49649W        W21375  43.306   1.685  14.090
49650W        W21376  20.785  10.273  13.605
49651W        W21377  28.200  24.463  14.968
49652W        W21378  26.704   2.126  13.349
49653W        W21379  33.489  18.662   3.625
49654W        W21380   4.860  36.358   4.608
49655W        W21381   6.177   2.764  12.543
49656W        W21382   2.217  26.053   1.689
49657W        W21383  42.736  37.882  12.168
49658W        W21384  26.888  15.595   3.316
49659W        W21385  16.295  11.817  13.942
49660W        W21386  44.480  43.531  12.439
49661W        W21387   9.476  44.016  11.097
49662W        W21388  36.902  24.922  12.292
49663W        W21389  15.144  43.889   3.382
49664W        W21390   8.434  17.154   4.126
49665W        W21391  16.080  40.780   1.332
49666W        W21392   8.286  38.891  12.904
49667W        W21393  34.331  17.813  11.667
49668W        W21394  32.380  25.461   2.412
49669W        W21395  21.701  30.688   3.740
49670W        W21396  22.665   8.700  13.372
49671W        W21397  23.159  26.431   4.636
49672W        W21398  25.147  40.858  13.371
49673W        W21399  27.940  22.444   0.566
49674W        W21400  33.935  43.129   3.679
49675W        W21401  30.143   4.427   3.103
49676W        W21402  40.580  10.664   4.104
49677W        W21403  11.652  20.076  10.735
49678W        W21404  15.667  19.619  14.827
49679W        W21405  35.799   0.909  11.680
49680W        W21406  10.231   2.790  10.070
49681W        W21407   9.409   2.884  11.806
49682W        W21408  30.069  28.569  10.319
49683W        W21409  33.060  15.471  10.670
49684W        W21410  40.287  38.972   2.268
49685W        W21411   0.465  35.049   3.235
49686W        W21412  19.830  20.607  11.245
49687W        W21413  32.914  28.647  13.924
49688W        W21414  21.886  18.165   2.232
49689W        W21415  14.621  13.515   0.531
49690W        W21416  28.566  38.149  12.015
49691W        W21417  17.687  31.626   3.313
49692W        W21418  21.968  13.774   4.624
49693W        W21419  26.633  36.488  10.670
49694W        W21420  20.996  32.430   3.099
49695W        W21421   8.809  16.895  11.516
49696W        W21422  44.993   4.735  12.481
49697W        W21423   8.716   3.477  11.449
49698W        W21424  39.036  18.361  14.146
49699W        W21425  32.605   1.294   4.158
49700W        W21426  17.797  37.417  12.854
49701W        W21427  30.562  12.445   3.683
49702W        W21428  17.789   3.219   4.280
49703W        W21429  32.015  26.991  13.496
49704W        W21430  41.845  12.585   9.942
49705W        W21431  29.999  24.183  14.105
49706W        W21432  28.398  30.598  14.524
49707W        W21433   1.722  19.039   2.104
49708W        W21434  22.301  43.316  11.520
49709W        W21435  34.699  18.273  14.376
49710W        W21436   8.029   2.546   4.077
49711W        W21437   0.998  13.292  11.692
49712W        W21438  30.142  18.793  10.716
49713W        W21439  38.725   2.448   5.130
49714W        W21440   8.884  41.136  13.852
49715W        W21441  43.478  27.644  10.535
49716W        W21442  11.159  29.436   4.594
49717W        W21443  28.385  16.704  13.020
49718W        W21444  14.292   9.640   2.317
49719W        W21445  16.529   6.579  12.857
49720W        W21446  39.940  20.126  12.525
49721W        W21447  37.311  12.236  13.466
49722W        W21448  41.393  24.928  12.483
49723W        W21449  17.785  13.494   4.560
49724W        W21450   2.508  15.002  13.450
49725W        W21451  17.030   7.732  13.074
49726W        W21452  20.458  20.342   2.681
49727W        W21453  42.248  18.580   0.748
49728W        W21454  21.807   1.045   0.483
49729W        W21455  25.062   6.150   2.847
49730W        W21456   3.231  44.270  13.021
49731W        W21457  36.990  43.113  12.529
49732W        W21458  15.929  27.047   3.370
49733W        W21459  25.956  17.556  11.646
49734W        W21460  29.004  26.006   0.276
49735W        W21461  40.437   2.970  10.980
49736W        W21462  44.150  20.292   3.094
49737W        W21463  16.044  31.621   1.907
49738W        W21464   5.382  19.716  12.607
49739W        W21465   3.248  14.089   2.668
49740W        W21466  20.198  37.874   2.388
49741W        W21467   9.935   7.754  12.470
49742W        W21468  30.082  24.433   0.725
49743W        W21469  14.485  42.365   0.257
49744W        W21470   9.792  42.838   4.662
49745W        W21471  42.817   8.759   3.762
49746W        W21472  43.448  19.169  10.713
49747W        W21473  17.338  21.213   2.831
49748W        W21474  13.264  42.025  12.512
49749W        W21475  35.669   8.879  13.956
49750W        W21476  21.226   6.125   3.271
49751W        W21477  11.857  39.781  14.288
49752W        W21478  13.604  22.999  10.875
49753W        W21479   9.464  40.484  11.627
49754W        W21480  37.400  16.703   4.211
49755W        W21481  36.604  27.784  12.619
49756W        W21482   4.648  14.680  11.416
49757W        W21483   9.793  24.204   2.497
49758W        W21484  27.714  16.654   0.831
49759W        W21485  25.182   9.079  13.741
49760W        W21486  20.081  43.323   4.701
49761W        W21487  11.823  13.962  11.590
49762W        W21488   9.876   2.709   3.471
49763W        W21489  27.898   3.142  11.548
49764W        W21490   7.843   9.820   4.869
49765W        W21491  37.284   0.578   5.117
49766W        W21492  31.482  29.716  14.953
49767W        W21493  16.818  31.429   2.137
49768W        W21494   7.128  22.787   3.243
49769W        W21495  22.691   6.310   3.106
49770W        W21496  34.336  13.241   3.718
49771W        W21497  33.856  42.785   2.138
49772W        W21498   4.243  19.605   1.467
49773W        W21499  28.088  14.965  10.670
49774W        W21500  20.557  11.048  10.565
49775W        W21501  11.228  19.010   0.455
49776W        W21502   4.546  24.566   4.974
49777W        W21503  28.650  30.282  13.886
49778W        W21504  25.645  20.115   1.462
49779W        W21505  17.075  40.704  14.367
49780W        W21506  13.730  40.447   0.075
49781W        W21507  14.274  30.148   4.220
49782W        W21508  23.808   1.798   4.445
49783W        W21509  41.240   6.857  12.022
49784W        W21510  26.472  26.381  10.124
49785W        W21511  34.842   5.207  11.217
49786W        W21512  30.703   0.151   2.380
49787W        W21513  25.167   7.134  13.781
49788W        W21514   6.823  40.514   4.550
49789W        W21515  16.213  34.924  12.838
49790W        W21516  41.480  23.190   2.825
49791W        W21517  20.119  18.322   3.719
49792W        W21518  37.111   0.450  10.710
49793W        W21519  13.604  33.557   0.028
49794W        W21520  36.993  23.113   4.333
49795W        W21521  36.487   5.957   0.698
49796W        W21522  28.613  12.576  14.642
49797W        W21523  11.689  15.017  11.596
49798W        W21524  32.794   6.661   4.581
49799W        W21525  18.066  23.044   2.299
49800W        W21526   6.764   6.759   2.297
49801W        W21527  14.824  44.937   1.930
49802W        W21528  39.680  33.240  13.127
49803W        W21529  18.636  40.826  12.446
49804W        W21530  32.414  12.133   2.790
49805W        W21531  16.565  42.282  11.443
49806W        W21532   5.922  35.455   2.699
49807W        W21533   6.767  12.534   4.140
49808W        W21534  31.676  27.533  14.788
49809W        W21535  14.226   8.951  11.656
49810W        W21536  15.065   3.952   4.732
49811W        W21537  25.726  15.607  13.984
49812W        W21538  44.475  18.521   1.751
49813W        W21539  16.422  26.891   3.362
49814W        W21540  15.344  41.673   4.173
49815W        W21541  16.770  42.486   4.087
49816W        W21542  39.762  14.945  11.573
49817W        W21543  20.647  19.223  11.836
49818W        W21544  30.379  15.360   3.155
49819W        W21545  27.919  43.380  12.909
49820W        W21546  39.997  10.952  11.072
49821W        W21547  40.878  41.701   1.809
49822W        W21548  12.314  43.937  11.619
49823W        W21549  33.879  44.205  10.963
49824W        W21550  17.756  33.096  12.076
49825W        W21551  39.397  27.455   4.254
49826W        W21552  41.765   9.860   2.654
49827W        W21553  40.453  33.585  14.827
49828W        W21554  24.668  32.419   3.764
49829W        W21555  12.323  21.468   0.830
49830W        W21556  32.969  21.195  10.750
49831W        W21557  43.438  10.875   2.667
49832W        W21558  35.300  20.404  13.807
49833W        W21559  34.148  11.818   2.834
49834W        W21560   8.832  25.019   2.530
49835W        W21561  37.390  36.295   0.464
49836W        W21562  37.114   6.774   3.618
49837W        W21563  14.147  41.062  14.965
49838W        W21564   5.863  26.522   2.226
49839W        W21565  11.855  14.785   1.293
49840W        W21566  12.647   9.922  13.060
49841W        W21567  41.789  24.855  14.781
49842W        W21568  26.125  27.469   0.623
49843W        W21569   6.600  43.898  11.882
49844W        W21570   0.416  37.321   1.825
49845W        W21571  18.167  33.309  12.352
49846W        W21572  10.566  26.300  11.476
49847W        W21573  43.358  15.823  14.266
49848W        W21574   0.249  40.407   1.319
49849W        W21575  35.411  38.384   0.348
49850W        W21576   7.340  31.174   4.584
49851W        W21577   3.269   7.278  14.691
49852W        W21578  18.029  22.378  14.802
49853W        W21579  21.115  15.302  14.968
49854W        W21580  38.804  34.468  13.570
49855W        W21581  35.455  17.237  13.225
49856W        W21582  44.489  41.984   1.702
49857W        W21583  39.800  44.590   1.843
49858W        W21584  33.125  41.999  14.247
49859W        W21585  22.986  29.215   3.104
49860W        W21586  35.195  24.654   0.912
49861W        W21587  40.919  12.189   2.794
49862W        W21588  36.539   2.337  11.211
49863W        W21589  42.914   5.556   2.571
49864W        W21590  14.644  36.607   2.535
49865W        W21591  39.985  30.520  12.995
49866W        W21592  20.132  22.974   0.097
49867W        W21593  39.805  35.368   4.022
49868W        W21594  20.808  13.371  10.102
49869W        W21595   5.827  32.495  14.295
49870W        W21596   0.629  29.864  13.998
49871W        W21597  22.810  40.412  14.300
49872W        W21598  23.297   5.375  14.783
49873W        W21599   2.738  37.079   2.223
49874W        W21600  31.244   7.859   2.701
49875W        W21601  24.587  11.125  10.661
49876W        W21602  40.807  23.990   4.505
49877W        W21603   1.933  31.375   4.546
49878W        W21604  16.289  18.684  11.661
49879W        W21605  36.638   6.682   4.766
49880W        W21606  19.097  44.714   2.839
49881W        W21607  11.629   1.853   1.732
49882W        W21608   2.420  37.382  12.912
49883W        W21609  38.389  37.500   0.364
49884W        W21610  15.807  32.573   0.260
49885W        W21611  40.447  17.925  12.066
49886W        W21612  30.038  28.290   0.944
49887W        W21613  11.936   4.396   4.359
49888W        W21614   6.279  15.826  12.523
49889W        W21615  36.979  18.007  14.929
49890W        W21616   8.875  20.265   1.668
49891W        W21617  24.700  20.592   2.360
49892W        W21618  31.673   2.907  12.641
49893W        W21619  33.204  41.633  12.509
49894W        W21620  42.455  30.962  11.175
49895W        W21621   8.820  25.618  14.380
49896W        W21622   1.018  28.699   3.181
49897W        W21623   3.418   5.382  12.464
49898W        W21624  24.937  19.697   0.502
49899W        W21625  18.830  20.923   0.300
49900W        W21626   8.836  24.517   4.866
49901W        W21627   7.960  43.200   1.385
49902W        W21628  28.391  37.859   4.638
49903W        W21629  18.272  42.021   3.306
49904W        W21630  36.712  30.953   3.805
49905W        W21631  40.351   1.216  12.624
49906W        W21632  17.299  25.991  14.466
49907W        W21633  28.241  44.789   4.177
49908W        W21634   0.232  43.790  13.262
49909W        W21635  28.265  33.954   0.677
49910W        W21636  33.191  25.927   4.488
49911W        W21637  31.720  11.619  11.542
49912W        W21638  40.493   3.671  14.825
49913W        W21639  40.353  14.623   2.308
49914W        W21640  18.568   3.389   4.627
49915W        W21641  32.654  24.472  13.983
49916W        W21642  24.655  23.502   3.674
49917W        W21643  10.950  15.868  13.377
49918W        W21644  36.498  27.963   3.627
49919W        W21645  29.149  36.942  10.918
49920W        W21646  13.462  28.437  12.621
49921W        W21647  41.028  38.017   1.012
49922W        W21648   6.968  23.248  13.733
49923W        W21649  36.960  27.252  13.871
49924W        W21650  32.473  17.614  11.852
49925W        W21651  35.758  25.786  11.865
49926W        W21652  30.367   2.285   1.698
49927W        W21653  40.927  41.063   2.629
49928W        W21654   6.748  28.561  13.507
49929W        W21655  29.141   8.757   3.913
49930W        W21656   0.088  30.915  12.390
49931W        W21657  28.552  32.206   3.803
49932W        W21658   3.308   7.095  13.441
49933W        W21659  15.077   3.661   3.894
49934W        W21660   8.368  26.931   0.391
49935W        W21661  18.273  10.294   1.893
49936W        W21662  15.703  27.291   4.632
49937W        W21663  38.530  12.779   3.719
49938W        W21664  27.509  28.369  12.123
49939W        W21665  35.008   7.737  11.635
49940W        W21666  19.725  42.876  13.740
49941W        W21667  36.229   2.166  11.653
49942W        W21668  25.634  31.658  10.925
49943W        W21669   6.336  15.553   3.109
49944W        W21670   9.294  24.817  10.215
49945W        W21671  14.324   2.322   3.827
49946W        W21672  15.705   8.761   3.681
49947W        W21673   2.763   3.768   2.330
49948W        W21674  27.411  17.787   3.550
49949W        W21675  15.677  24.603  13.274
49950W        W21676  28.392  32.455   4.264
49951W        W21677  17.658  36.890  13.939
49952W        W21678  44.807  10.415  13.813
49953W        W21679   5.701  29.604  11.109
49954W        W21680  16.881  13.106  14.789
49955W        W21681  43.042  18.208  12.827
49956W        W21682   8.355  11.397  14.436
49957W        W21683   6.841  35.159   0.214
49958W        W21684   2.961  30.572  10.320
49959W        W21685  28.130  13.785   2.155
49960W        W21686  32.043  25.001  10.855
49961W        W21687  17.157  23.633  14.562
49962W        W21688  40.546  13.990   1.896
49963W        W21689  28.428  34.819  11.198
49964W        W21690  13.373  14.958  11.055
49965W        W21691  26.590   4.799   0.538
49966W        W21692   6.682  21.771   1.031
49967W        W21693   1.008   5.762  13.111
49968W        W21694   3.523  44.032   3.179
49969W        W21695  11.057  30.585   0.709
49970W        W21696  42.543  41.559  13.141
49971W        W21697  13.180  31.644  11.042
49972W        W21698  16.670  43.855   4.617
49973W        W21699   5.990  30.050   4.117
49974W        W21700  16.715   4.693  11.614
49975W        W21701  36.128  17.356   3.595
49976W        W21702  43.799   7.180   4.139
49977W        W21703  22.970  29.575   2.728
49978W        W21704  30.193  44.491   2.750
49979W        W21705  18.233  12.430  11.418
49980W        W21706  14.680   9.683   1.800
49981W        W21707   2.249   3.837  10.606
49982W        W21708  44.472  35.931   0.433
49983W        W21709  21.694  35.366  14.278
49984W        W21710   2.542  43.915  11.545
49985W        W21711  21.216  34.364  14.329
49986W        W21712  27.893  16.430  11.421
49987W        W21713   4.465  31.945  11.590
49988W        W21714  35.976  33.375  14.399
49989W        W21715   4.313   1.885   1.707
49990W        W21716  18.826  19.605   1.664
49991W        W21717  40.357   1.956   3.302
49992W        W21718  22.743  17.851   3.239
49993W        W21719  12.710   0.811  14.036
49994W        W21720  20.551  27.941   0.561
49995W        W21721  42.446   8.850  14.771
49996W        W21722  28.122  13.067  11.170
49997W        W21723  29.060  15.502   0.012
49998W        W21724  31.058  42.759  10.859
49999W        W21725  39.992   6.141   4.587
50000W        W21726  28.476  18.567   1.831
50001W        W21727  33.865   8.231  10.939
50002W        W21728  20.974   0.926  12.061
50003W        W21729  15.683  10.105  12.500
50004W        W21730  14.486  40.833  10.643
50005W        W21731   3.215  17.820  14.409
50006W        W21732   4.688  30.406  12.025
50007W        W21733  33.029  39.422  11.662
50008W        W21734  18.477  16.572  11.165
50009W        W21735  27.417   6.720   1.931
50010W        W21736  19.762  40.429   4.576
50011W        W21737  14.852   0.518  12.079
50012W        W21738  37.492  24.890   1.800
50013W        W21739  27.025   4.942  10.906
50014W        W21740  42.338   5.400  13.944
50015W        W21741  18.086   2.863  11.103
50016W        W21742  18.777  44.495  10.920
50017W        W21743  13.219  31.634   0.801
50018W        W21744  43.540  40.946   4.398
50019W        W21745  23.076  12.371   0.314
50020W        W21746  37.998  22.168  10.612
50021W        W21747  44.133  12.824  10.276
50022W        W21748   0.434   0.947  14.247
50023W        W21749  15.970  35.998  12.558
50024W        W21750  36.464  22.437  12.404
50025W        W21751  44.391  41.080  13.445
50026W        W21752  44.774  19.912   0.513
50027W        W21753   6.801  29.439   4.382
50028W        W21754  38.454   0.428  13.889
50029W        W21755  19.007   4.690  10.998
50030W        W21756  21.772  22.650   2.775
50031W        W21757  41.933  19.244   0.322
50032W        W21758   2.205  21.551   4.883
50033W        W21759  10.413  15.595  10.433
50034W        W21760  44.787  31.623   3.573
50035W        W21761   6.420   0.873   4.657
50036W        W21762   2.062  23.267  12.880
50037W        W21763  11.707  32.996  13.002
50038W        W21764  39.779  31.068  12.208
50039W        W21765  32.550  17.033   3.827
50040W        W21766  40.566  24.540   0.304
50041W        W21767  17.095   2.167  12.878
50042W        W21768  25.997  18.468  11.950
50043W        W21769  10.673  26.600   0.568
50044W        W21770  41.793  35.166  11.080
50045W        W21771   9.607  18.998   4.087
50046W        W21772   9.065  36.050  10.778
50047W        W21773  14.282  42.454   4.637
50048W        W21774  10.383  16.059   3.579
50049W        W21775  39.311  32.186   2.148
50050W        W21776  40.028  37.485   0.309
50051W        W21777  27.065  18.625   1.493
50052W        W21778  30.884  13.449  12.467
50053W        W21779  26.567   7.368  13.404
50054W        W21780  44.853  23.670  10.614
50055W        W21781  13.796  19.552  11.857
50056W        W21782  44.825  24.213  12.424
50057W        W21783  30.226   3.920   3.118
50058W        W21784  17.590  38.571  14.501
50059W        W21785  36.329  22.769   3.149
50060W        W21786  34.579  28.343  12.005
50061W        W21787  23.042  24.099   1.159
50062W        W21788  16.272  34.864   3.175
50063W        W21789  21.704  20.966  14.979
50064W        W21790  34.930   5.995   3.666
50065W        W21791  12.444  24.773   0.238
50066W        W21792  37.020   4.321   1.793
50067W        W21793   4.323   8.818  11.711
50068W        W21794  27.402  13.887  11.498
50069W        W21795  40.883  41.578   2.742
50070W        W21796  13.878  37.952  10.918
50071W        W21797   8.195  38.863   2.130
50072W        W21798  28.099  24.155   0.392
50073W        W21799  36.451   1.272   5.066
50074W        W21800  40.421  19.572  11.427
50075W        W21801  24.412  25.037   2.301
50076W        W21802   1.429   8.638   0.229
50077W        W21803  15.789  40.033  11.067
50078W        W21804   0.996   3.400   4.622
50079W        W21805  33.389  20.715   2.173
50080W        W21806  20.178  24.677  11.509
50081W        W21807  13.153  32.478  10.652
50082W        W21808  34.343  30.060   1.366
50083W        W21809  39.583   3.271   3.888
50084W        W21810   9.758   6.772   2.746
50085W        W21811   8.751   2.478   4.708
50086W        W21812  39.373  40.211  12.176
50087W        W21813  15.182   4.927  13.479
50088W        W21814  14.118   0.427   3.752
50089W        W21815   8.532  39.828  10.709
50090W        W21816  38.028  25.383  10.030
50091W        W21817  16.662  32.404  14.282
50092W        W21818  27.939  35.114   0.806
50093W        W21819  16.029  40.471   0.834
50094W        W21820   5.132   4.917  11.408
50095W        W21821  12.087  26.878  12.871
50096W        W21822  42.521   9.373  12.500
50097W        W21823  25.505  37.984  14.786
50098W        W21824  25.112  15.360   1.348
50099W        W21825  33.974  43.395   9.687
50100W        W21826   1.277  38.584   3.153
50101W        W21827  20.636   7.754  12.080
50102W        W21828   2.416  30.455  13.810
50103W        W21829  27.470  39.080  10.978
50104W        W21830   2.249  35.074  11.135
50105W        W21831  36.629   2.041  13.602
50106W        W21832  38.607   4.401  14.766
50107W        W21833   2.141  18.020  13.679
50108W        W21834   1.836  44.283   1.401
50109W        W21835  32.542  32.477   1.340
50110W        W21836   4.348   3.853  10.531
50111W        W21837  19.320   0.388   1.407
50112W        W21838  26.126  35.955   4.951
50113W        W21839  44.331  33.930   2.289
50114W        W21840  42.847   4.604  12.928
50115W        W21841  24.260  41.453   3.681
50116W        W21842  24.889  12.689   2.214
50117W        W21843  13.638  25.544  13.764
50118W        W21844   9.418  27.577  14.311
50119W        W21845  44.865  11.830   2.329
50120W        W21846   8.161  14.651   0.850
50121W        W21847  25.479  34.170  11.152
50122W        W21848  22.621  11.785   1.829
50123W        W21849   8.143   2.830  11.073
50124W        W21850  28.730  11.265   3.182
50125W        W21851  33.154  41.375  14.968
50126W        W21852  11.880  15.216  14.301
50127W        W21853  38.406  14.398  11.656
50128W        W21854   4.703  13.222   1.812
50129W        W21855   0.271  28.674   2.668
50130W        W21856  42.438   2.446   4.577
50131W        W21857  23.170  28.740   3.158
50132W        W21858   5.803   6.460  10.402
50133W        W21859   9.264  30.723  11.136
50134W        W21860  35.922   7.911   0.544
50135W        W21861  16.834   1.980   4.125
50136W        W21862  36.568  32.082  10.767
50137W        W21863  37.607   6.250   1.360
50138W        W21864  14.574   8.325   0.349
50139W        W21865  38.825  17.059  13.878
50140W        W21866   7.761   9.847   3.804
50141W        W21867   4.805   4.897  11.001
50142W        W21868  21.436  38.807   1.853
50143W        W21869  20.765   6.962   4.222
50144W        W21870  25.712  27.129   1.453
50145W        W21871  42.085   1.280   3.652
50146W        W21872  24.963  26.749  10.205
50147W        W21873  21.033   3.763   2.177
50148W        W21874   5.745  33.527  11.069
50149W        W21875  10.187   9.764   5.143
50150W        W21876  40.610  32.530   3.101
50151W        W21877  44.710  28.670  10.386
50152W        W21878   4.458  12.806   3.606
50153W        W21879  11.802   8.372   4.648
50154W        W21880  40.298  16.434   1.566
50155W        W21881   2.034  43.415   2.268
50156W        W21882   9.801  13.755   0.884
50157W        W21883  27.002  16.293   0.489
50158W        W21884  39.035  43.203  12.049
50159W        W21885  20.804   8.741  12.929
50160W        W21886   3.692   6.896   0.774
50161W        W21887   9.091  31.896  10.719
50162W        W21888  24.990  10.831  12.223
50163W        W21889  37.508  44.219  12.587
50164W        W21890   6.900  30.010  12.854
50165W        W21891  12.029  27.233  12.010
50166W        W21892  18.652  36.979   2.355
50167W        W21893   7.975  31.184   0.964
50168W        W21894  31.574  35.011  12.192
50169W        W21895  35.889   0.772  12.503
50170W        W21896  30.420  37.587  10.985
50171W        W21897  26.186  20.326   3.288
50172W        W21898   0.681   8.136   1.323
50173W        W21899  20.750  24.681   0.179
50174W        W21900  19.608  37.545  10.587
50175W        W21901  37.608  19.498   4.682
50176W        W21902   1.529  20.663   0.393
50177W        W21903  29.593   4.214   1.672
50178W        W21904   4.713   5.034   4.482
50179W        W21905   1.805   8.561   5.014
50180W        W21906  44.453  25.199   2.735
50181W        W21907  35.521  14.629   0.695
50182W        W21908  25.987  13.591  11.582
50183W        W21909  37.511   3.351   0.044
50184W        W21910  41.414  37.029  13.167
50185W        W21911   3.317  15.381  12.471
50186W        W21912  43.962   6.191  11.050
50187W        W21913  43.707   5.550   1.986
50188W        W21914  27.406   8.045   3.965
50189W        W21915  25.730  15.879  10.543
50190W        W21916  40.073  15.349   3.709
50191W        W21917  40.065   9.650  14.549
50192W        W21918  35.587  34.133   4.159
50193W        W21919  22.428   4.520   4.937
50194W        W21920  25.467   1.647   9.821
50195W        W21921  22.990  18.151   1.285
50196W        W21922  43.482  18.488  11.116
50197W        W21923  38.467  30.115  12.124
50198W        W21924  13.293  30.162  12.755
50199W        W21925  29.551   8.215   0.690
50200W        W21926   0.773  16.019  11.252
50201W        W21927  33.703  41.329   0.780
50202W        W21928  41.894  39.769  11.167
50203W        W21929  35.614  28.080  13.442
50204W        W21930  23.042  37.997  12.955
50205W        W21931  14.119   4.700   4.087
50206W        W21932  17.556  32.441  14.010
50207W        W21933   4.291  33.524   0.379
50208W        W21934  43.991  25.779   1.329
50209W        W21935  28.102   1.836  14.059
50210W        W21936  37.174  16.754   2.294
50211W        W21937  14.707   8.598   2.789
50212W        W21938  39.489  14.232  12.917
50213W        W21939   0.712  17.103  13.580
50214W        W21940  39.774  28.218  13.057
50215W        W21941   3.821   2.287   1.125
50216W        W21942  30.569  20.814   4.075
50217W        W21943   7.246  39.256   2.424
50218W        W21944   4.943   8.789   3.816
50219W        W21945  21.164  11.397   9.862
50220W        W21946  21.155  29.380  12.069
50221W        W21947  33.647  43.501  11.821
50222W        W21948  26.168  10.180   2.261
50223W        W21949  26.308  10.966   3.182
50224W        W21950  10.770   7.817   3.679
50225W        W21951  24.317  38.463  13.094
50226W        W21952  39.273   0.014   3.024
50227W        W21953   4.463  35.486  12.227
50228W        W21954   8.664  43.860   2.233
50229W        W21955   2.823  14.623  13.895
50230W        W21956   3.381  37.429   1.680
50231W        W21957  42.562  11.827   1.387
50232W        W21958  22.405  19.541  13.482
50233W        W21959   3.032   8.356   4.466
50234W        W21960   0.420  13.975  12.751
50235W        W21961  43.477  25.791   0.442
50236W        W21962   7.797  36.364  10.547
50237W        W21963  29.385  24.898  13.078
50238W        W21964  13.203  22.347  14.503
50239W        W21965  30.117  41.359   4.324
50240W        W21966  30.887  32.797   0.745
50241W        W21967  14.865  29.150   3.838
50242W        W21968   8.925   0.439   3.732
50243W        W21969  14.146  10.699  10.609
50244W        W21970   9.923  23.189   5.006
50245W        W21971  35.897  18.432   1.687
50246W        W21972  10.744  27.105  13.805
50247W        W21973  21.690   4.719   3.143
50248W        W21974  29.172  28.184   0.475
50249W        W21975  38.797  24.046   0.099
50250W        W21976  22.648  23.724  12.522
50251W        W21977  16.206   0.473   4.622
50252W        W21978  43.031   4.258   4.720
50253W        W21979  18.724  28.976   4.114
50254W        W21980  35.082  20.055   0.670
50255W        W21981  27.420   5.425   1.225
50256W        W21982  22.363   1.601   5.287
50257W        W21983   8.574  23.952   3.749
50258W        W21984  23.504   8.168   3.274
50259W        W21985  39.072  21.184  13.327
50260W        W21986  21.367  24.015  11.118
50261W        W21987  43.289  15.827   1.102
50262W        W21988  27.057   0.400   4.258
50263W        W21989  11.274  11.870   1.746
50264W        W21990  11.884  40.906   0.513
50265W        W21991  32.639   6.292  13.513
50266W        W21992   6.815   1.365  10.751
50267W        W21993  24.589  28.045   4.382
50268W        W21994   2.803   1.987   3.880
50269W        W21995  37.478  41.463   2.684
50270W        W21996  33.352   1.359   2.819
50271W        W21997  29.439   9.805   3.268
50272W        W21998  28.138  30.512   4.115
50273W        W21999   1.099  17.946  13.465
50274W        W22000   3.703   5.122   2.760
50275W        W22001  13.739   6.377   3.131
50276W        W22002  43.505  31.755   0.224
50277W        W22003   5.242   7.653   3.184
50278W        W22004  32.181   1.730  12.034
50279W        W22005  21.618   0.453  12.322
50280W        W22006   8.196  21.606   4.966
50281W        W22007  14.285   6.875  14.806
50282W        W22008  33.295  32.162  13.679
50283W        W22009  15.612   9.678   3.316
50284W        W22010   9.334  41.103   4.195
50285W        W22011  33.036  42.517  13.020
50286W        W22012  34.572  19.362  10.431
50287W        W22013  22.380  38.548   0.790
50288W        W22014  36.865  26.194  12.996
50289W        W22015  36.518  11.424   3.015
50290W        W22016   3.158   1.935  12.863
50291W        W22017  35.648   2.924  13.985
50292W        W22018  25.584  23.282  14.051
50293W        W22019  14.086  29.989   4.686
50294W        W22020  35.512  26.292   3.698
50295W        W22021   4.130   4.234   4.698
50296W        W22022   8.617  22.612   3.275
50297W        W22023  33.236  41.904   3.704
50298W        W22024   3.943  10.549  13.801
50299W        W22025  31.496  27.731  13.547
50300W        W22026  26.890  33.513  11.052
50301W        W22027  35.508  41.445   4.632
50302W        W22028  28.213  12.920   2.684
50303W        W22029  23.578   5.362   2.084
50304W        W22030  21.727  40.831   1.736
50305W        W22031  27.189  13.168  13.019
50306W        W22032  37.001  23.087  14.941
50307W        W22033  12.130   6.814  13.300
50308W        W22034  24.115  39.486   3.815
50309W        W22035   4.690  24.016  10.591
50310W        W22036  33.348  36.059   2.453
50311W        W22037  14.535  24.596  12.816
50312W        W22038  42.994  40.419   1.967
50313W        W22039   1.219  18.480   2.910
50314W        W22040   7.628  11.861  10.623
50315W        W22041   2.771  30.785  11.705
50316W        W22042   7.815  19.592  13.018
50317W        W22043  44.725  41.333  14.479
50318W        W22044   1.044  17.922   0.068
50319W        W22045   3.372  23.646  13.257
50320W        W22046  34.452   6.196  13.076
50321W        W22047  36.537  27.915  10.846
50322W        W22048  32.204  11.750  14.909
50323W        W22049  26.026  32.417  10.942
50324W        W22050  10.257  12.624  12.491
50325W        W22051  25.423   1.330  10.817
50326W        W22052  31.208  15.676   2.299
50327W        W22053  31.182  18.569  12.974
50328W        W22054  41.992  26.707   1.688
50329W        W22055  14.394  37.225   3.324
50330W        W22056  34.511  44.478   3.635
50331W        W22057  44.237  19.083  11.920
50332W        W22058  36.494  27.258  12.580
50333W        W22059  24.147  13.930   1.380
50334W        W22060   8.930  18.021  12.534
50335W        W22061  29.140  44.460   2.436
50336W        W22062  24.054  29.153   1.239
50337W        W22063  18.264  31.625   0.815
50338W        W22064  31.005  40.030  14.262
50339W        W22065   6.832  37.339  13.367
50340W        W22066  30.441  28.765  12.123
50341W        W22067   3.922   3.864   3.243
50342W        W22068   4.976  43.015  14.466
50343W        W22069  24.507  15.265  13.952
50344W        W22070  25.442  13.648   2.792
50345W        W22071   5.837   5.706   4.206
50346W        W22072   3.958  35.113   2.834
50347W        W22073  14.306  15.352   3.924
50348W        W22074  19.363  26.944  13.849
50349W        W22075  29.061  31.037  11.439
50350W        W22076  16.298  23.274   3.693
50351W        W22077  31.503  15.161   4.683
50352W        W22078  20.572   4.780  12.775
50353W        W22079  19.641  35.146  11.966
50354W        W22080  39.755  36.067   1.360
50355W        W22081  32.883  25.091   2.670
50356W        W22082   2.519  37.383   4.540
50357W        W22083  24.276   8.511  11.575
50358W        W22084   6.830   4.496  11.481
50359W        W22085   3.457   7.418  13.064
50360W        W22086  19.300  28.169   3.837
50361W        W22087  28.677   0.933  11.572
50362W        W22088  30.910  16.315  14.862
50363W        W22089  43.292   1.428   3.835
50364W        W22090  35.517   3.978  13.118
50365W        W22091  13.318  13.095   4.619
50366W        W22092  12.080  15.667   4.259
50367W        W22093   3.551  39.056  10.650
50368W        W22094  27.731  10.137   0.489
50369W        W22095  28.137  42.866   1.469
50370W        W22096  28.348  13.790   1.677
50371W        W22097   7.196   1.974  11.512
50372W        W22098  21.272  25.379  10.216
50373W        W22099  11.333   7.389   4.245
50374W        W22100  35.320  30.871   1.763
50375W        W22101  21.987   9.086   1.995
50376W        W22102  33.722  35.545  14.488
50377W        W22103   2.352   6.912   2.733
50378W        W22104  39.584  23.968   4.099
50379W        W22105  37.592  16.082   2.621
50380W        W22106  44.997   8.152   4.728
50381W        W22107  27.286  22.116  11.580
50382W        W22108  20.901  25.951   4.107
50383W        W22109  44.457  14.563  10.802
50384W        W22110   3.940  39.794   4.065
50385W        W22111   2.814   1.183   4.285
50386W        W22112  34.319   0.959  11.520
50387W        W22113  32.550  16.940   1.272
50388W        W22114  24.540  37.552   2.683
50389W        W22115  34.309  12.761  11.203
50390W        W22116   9.219   9.101   4.892
50391W        W22117  35.515  36.556   2.663
50392W        W22118   4.252  37.877  12.076
50393W        W22119   3.667  40.730  14.791
50394W        W22120  28.880  41.852   3.399
50395W        W22121  35.872  17.779  11.097
50396W        W22122  40.682  31.105   2.480
50397W        W22123  43.737  13.705   2.841
50398W        W22124  14.651  11.412   2.462
50399W        W22125   8.883  22.246   4.670
50400W        W22126  35.296  30.156  11.636
50401W        W22127  19.826  37.902   4.329
50402W        W22128  34.932  14.464  11.585
50403W        W22129   9.844  18.018  13.498
50404W        W22130  38.498  13.175  10.976
50405W        W22131  23.851  37.014   4.264
50406W        W22132  26.525   3.506   1.831
50407W        W22133  35.122   4.161   1.074
50408W        W22134   8.389   6.330   3.203
50409W        W22135   0.349  10.335   0.679
50410W        W22136   7.404  11.995  13.065
50411W        W22137  33.338  25.911   3.584
50412W        W22138   0.856  44.331   0.621
50413W        W22139  34.423  25.127   0.009
50414W        W22140  18.670  35.632   1.344
50415W        W22141  25.714   6.095  13.275
50416W        W22142  34.569  33.927  10.648
50417W        W22143  29.672  37.600  14.351
50418W        W22144  29.575  39.615   1.848
50419W        W22145  40.168  43.705   0.570
50420W        W22146  26.596   5.256  12.009
50421W        W22147  14.793  40.416  10.635
50422W        W22148  15.647  23.934   0.213
50423W        W22149   0.862   6.272  11.534
50424W        W22150  40.607   2.506   1.899
50425W        W22151  16.262  21.234  11.441
50426W        W22152  14.778  40.437   1.783
50427W        W22153  17.537  11.171  14.879
50428W        W22154  13.757   7.146   3.790
50429W        W22155  22.538  10.318  14.294
50430W        W22156  11.256  22.202   4.275
50431W        W22157  15.727  36.073  14.545
50432W        W22158  26.409  41.034   4.180
50433W        W22159  29.388   7.816   1.517
50434W        W22160  42.402  11.264   1.932
50435W        W22161   9.437  30.554   3.791
50436W        W22162   0.177  24.884  13.978
50437W        W22163  32.424  36.942   0.355
50438W        W22164   8.357  34.506  11.451
50439W        W22165  34.895  27.099  12.830
50440W        W22166  31.263  14.588   1.785
50441W        W22167  13.203  16.806   0.334
50442W        W22168   0.323  27.475   0.299
50443W        W22169  12.708  17.010  12.339
50444W        W22170  39.877  14.206   0.374
50445W        W22171  10.947  40.385   0.985
50446W        W22172  15.058  44.234   4.169
50447W        W22173   2.791  19.740   1.466
50448W        W22174  30.421   1.434   0.462
50449W        W22175  21.978   7.899   1.179
50450W        W22176   4.370   1.411   0.397
50451W        W22177  24.725  44.486  12.309
50452W        W22178   9.281  33.517  10.714
50453W        W22179  33.038   4.943  14.875
50454W        W22180   1.502  36.998  10.741
50455W        W22181  10.907  18.888   4.092
50456W        W22182   6.865  38.459  11.441
50457W        W22183  29.140  26.617  12.488
50458W        W22184  16.102   1.778   2.723
50459W        W22185  15.096  44.548  11.965
50460W        W22186  23.468  43.400   4.144
50461W        W22187   7.456   0.839   3.106
50462W        W22188  27.711  11.379  10.618
50463W        W22189  38.085  30.565   0.794
50464W        W22190  32.147  37.548   3.738
50465W        W22191  36.952  15.807  13.953
50466W        W22192  32.902  28.178  12.355
50467W        W22193  11.820  39.563  11.149
50468W        W22194  16.842  41.294   0.038
50469W        W22195  17.723  18.491  11.257
50470W        W22196   5.226   7.911   1.797
50471W        W22197   0.980  31.174  11.140
50472W        W22198   8.775  44.399   4.430
50473W        W22199  26.724  28.233   1.281
50474W        W22200  34.447  17.832  10.788
50475W        W22201   2.405  25.732   2.716
50476W        W22202   6.270   3.030  10.778
50477W        W22203  24.280   0.515   5.560
50478W        W22204  29.916  35.390  12.865
50479W        W22205   3.067   8.318  10.733
50480W        W22206  44.270  10.682   2.283
50481W        W22207  29.708  12.723  13.406
50482W        W22208  14.719  12.722   3.695
50483W        W22209  43.227  15.311   1.263
50484W        W22210  18.207   8.931   4.879
50485W        W22211  28.564  23.169  10.523
50486W        W22212  11.288  40.412  13.098
50487W        W22213  29.720  40.088   3.687
50488W        W22214  40.418  39.809  13.823
50489W        W22215   5.464  24.235   3.649
50490W        W22216  15.708  40.325   9.775
50491W        W22217   1.115   4.404  14.130
50492W        W22218  13.093  42.825  13.936
50493W        W22219  13.561  11.218   3.858
50494W        W22220  42.325  36.350   3.216
50495W        W22221  12.210  35.946  13.824
50496W        W22222  40.970  15.042   2.263
50497W        W22223  32.093  44.033  11.085
50498W        W22224  18.255  14.404  13.446
50499W        W22225  23.663  14.567   2.793
50500W        W22226  40.072   6.704  10.967
50501W        W22227  39.610  17.179  11.709
50502W        W22228  43.657   5.015  12.883
50503W        W22229  43.525  10.264  12.998
50504W        W22230  31.857  34.054   1.289
50505W        W22231  37.961  25.687   0.468
50506W        W22232  25.883  11.792   4.685
50507W        W22233  18.049   8.746   1.302
50508W        W22234  39.749   5.298   3.297
50509W        W22235  42.991   6.406  13.558
50510W        W22236  39.550  10.158  13.900
50511W        W22237  29.353  39.912  10.656
50512W        W22238  16.656  14.214   1.852
50513W        W22239  37.800  27.987   4.495
50514W        W22240   6.775  33.896   0.718
50515W        W22241  44.791  37.374  12.470
50516W        W22242  44.509  39.503   0.881
50517W        W22243  40.601  31.341   0.003
50518W        W22244  32.031  12.797   1.638
50519W        W22245  27.077  37.065  11.142
50520W        W22246  42.698   3.208   4.115
50521W        W22247  31.547  37.403  10.990
50522W        W22248  19.194  37.860  14.029
50523W        W22249  10.915  11.296  12.636
50524W        W22250  23.016  11.647   0.838
50525W        W22251   3.794  24.417  14.746
50526W        W22252  26.888   0.025   0.779
50527W        W22253   9.730  24.065  10.162
50528W        W22254  25.487  14.252  12.476
50529W        W22255  26.011  17.271  13.475
50530W        W22256   3.172  25.085  11.244
50531W        W22257   0.976   7.501  11.212
50532W        W22258  28.647  18.053   3.097
50533W        W22259  36.634  44.549  11.655
50534W        W22260  24.731  33.484   0.874
50535W        W22261  33.332   9.694   0.772
50536W        W22262  37.269  16.021  10.807
50537W        W22263  29.935  36.668  11.030
50538W        W22264  31.846  44.554  12.807
50539W        W22265  12.741   1.914  12.839
50540W        W22266  40.299  26.937  13.792
50541W        W22267  16.575  31.919   2.883
50542W        W22268  14.698  22.686   1.369
50543W        W22269  28.088  42.608  13.931
50544W        W22270  37.842  37.328   2.833
50545W        W22271   2.726  18.786   0.799
50546W        W22272  21.999  27.496  11.514
50547W        W22273   4.367  37.330   1.753
50548W        W22274   3.861  31.907   1.307
50549W        W22275  43.967   2.979   3.171
50550W        W22276  23.729   2.752  13.918
50551W        W22277  26.173  13.683  14.008
50552W        W22278  11.734  31.834  11.203
50553W        W22279   9.150  42.389   1.694
50554W        W22280  18.481  43.740  11.163
50555W        W22281  24.126   5.409   3.310
50556W        W22282  41.281  42.193  11.487
50557W        W22283  34.893  14.039   1.739
50558W        W22284  20.172  11.537   2.343
50559W        W22285   4.040   4.623  10.523
50560W        W22286  35.956  38.823   4.010
50561W        W22287  12.055   8.173  10.697
50562W        W22288  12.357  21.429  14.974
50563W        W22289  22.902   3.478   2.230
50564W        W22290  11.086  41.888  10.618
50565W        W22291  34.674  13.532   4.134
50566W        W22292  33.353  19.822   1.303
50567W        W22293  26.253  37.467   4.178
50568W        W22294  43.790   6.341  11.505
50569W        W22295   9.202  27.595   2.381
50570W        W22296  44.007  10.897  12.412
50571W        W22297  24.645  43.242   5.013
50572W        W22298  11.267  36.027   4.269
50573W        W22299   8.904   8.089   0.402
50574W        W22300  38.412  39.055  12.527
50575W        W22301  44.412  37.265   3.163
50576W        W22302   6.715   2.852   3.595
50577W        W22303   2.429  33.316  10.806
50578W        W22304  25.731   4.824  11.196
50579W        W22305  16.736  41.929  11.773
50580W        W22306  39.381  13.117   1.794
50581W        W22307  38.924  20.696  14.115
50582W        W22308  33.681   5.328   4.578
50583W        W22309  32.034  23.521   3.828
50584W        W22310  42.943  21.544  13.309
50585W        W22311  11.259  39.185  10.609
50586W        W22312  30.114  16.942   2.808
50587W        W22313  11.312   7.318  11.423
50588W        W22314   4.694  16.632   1.383
50589W        W22315   8.798  38.089  14.781
50590W        W22316  35.727  36.397  14.289
50591W        W22317  22.250   3.209   2.827
50592W        W22318  14.796  35.331   1.263
50593W        W22319  33.598  17.208   1.113
50594W        W22320   1.096  33.087  11.918
50595W        W22321  29.660  25.937   2.417
50596W        W22322  18.676  43.272   4.400
50597W        W22323   5.251   4.710  11.864
50598W        W22324  28.032  35.091  11.926
50599W        W22325  13.336  31.994  10.668
50600W        W22326  37.118  21.734  14.437
50601W        W22327  16.733  34.594   1.932
50602W        W22328  13.420  19.270   1.196
50603W        W22329  20.237  35.189   2.313
50604W        W22330  39.187  16.518  11.042
50605W        W22331  18.133  38.612   1.978
50606W        W22332  26.933  37.576  12.068
50607W        W22333  37.479  31.995  11.277
50608W        W22334  33.396  24.398  10.603
50609W        W22335  23.514  29.834   0.014
50610W        W22336  44.093   8.508   1.387
50611W        W22337  16.612  24.711  14.566
50612W        W22338  19.361  21.716  14.014
50613W        W22339  17.937  41.037  12.967
50614W        W22340   9.532  22.102  10.247
50615W        W22341  19.128  25.142   3.162
50616W        W22342   3.248   3.723  13.396
50617W        W22343   2.757   5.534  13.319
50618W        W22344   5.003  34.463   1.272
50619W        W22345  20.112  36.849   0.318
50620W        W22346  38.333  35.576  14.508
50621W        W22347  27.518  19.854  13.558
50622W        W22348  39.799   5.826  11.972
50623W        W22349  12.707   3.754  10.909
50624W        W22350  43.712   4.495  12.374
50625W        W22351  16.649  15.708  13.539
50626W        W22352   2.913   7.944   2.124
50627W        W22353   8.409  39.548  11.308
50628W        W22354  27.288  37.756  13.904
50629W        W22355  14.068  42.790  11.974
50630W        W22356   2.619  29.714  13.089
50631W        W22357  24.805  10.061  13.486
50632W        W22358  10.163  10.018   4.549
50633W        W22359  26.131  17.783  13.475
50634W        W22360  13.923  32.200   3.281
50635W        W22361  36.052   9.728  13.822
50636W        W22362  44.137  38.047   4.722
50637W        W22363  23.022  15.145  10.639
50638W        W22364   0.953  34.547  10.381
50639W        W22365  22.109   4.687  11.395
50640W        W22366  11.657   0.964   4.983
50641W        W22367  17.685   1.581  11.913
50642W        W22368  23.471  12.615   4.584
50643W        W22369  25.136  21.940  13.865
50644W        W22370   3.331  39.262  11.489
50645W        W22371   0.556  27.894   2.336
50646W        W22372  23.549  28.111  14.678
50647W        W22373   8.322  41.798   0.289
50648W        W22374  14.691  39.061   2.913
50649W        W22375  11.380  11.577  13.417
50650W        W22376   0.434  12.664  14.769
50651W        W22377  28.018   3.443   4.182
50652W        W22378  18.268   0.876  11.194
50653W        W22379  42.269   9.885   2.626
50654W        W22380  31.968  35.576  14.250
50655W        W22381   5.160  24.145  14.553
50656W        W22382  42.001   1.760   0.294
50657W        W22383  40.459   9.636  14.900
50658W        W22384  16.428   0.282   4.018
50659W        W22385  34.340  42.768  10.648
50660W        W22386  37.035  36.535  14.642
50661W        W22387  13.172  12.917  11.929
50662W        W22388  33.869  11.247   4.883
50663W        W22389  29.592  19.182  14.320
50664W        W22390  15.318  10.397   2.156
50665W        W22391  29.457  19.193  14.813
50666W        W22392  12.854  38.967   4.490
50667W        W22393   8.702  20.342   0.891
50668W        W22394   4.492  32.154  13.449
50669W        W22395  18.385  26.527   1.895
50670W        W22396  19.285   9.104   0.769
50671W        W22397  38.739   4.952  14.259
50672W        W22398  42.650   9.346   3.116
50673W        W22399  23.176  14.528  10.185
50674W        W22400  30.557   3.377  10.679
50675W        W22401  10.469  23.939   2.768
50676W        W22402  36.443   8.428  12.308
50677W        W22403  20.120  43.332   2.771
50678W        W22404  29.512  18.366   3.704
50679W        W22405  33.894  43.796  11.415
50680W        W22406  19.671  32.608   1.420
50681W        W22407  26.311  10.332   2.739
50682W        W22408  15.764   8.910  11.029
50683W        W22409  29.192  23.532   2.546
50684W        W22410   8.156  25.547   0.016
50685W        W22411  31.058  41.012   3.597
50686W        W22412  29.308  18.059   2.031
50687W        W22413   2.414  31.425   3.117
50688W        W22414  15.166  36.497  13.934
50689W        W22415   8.338  12.267  14.018
50690W        W22416   6.489  26.164  14.327
50691W        W22417  43.953  15.347  11.055
50692W        W22418  37.825  21.225  12.961
50693W        W22419   7.354   0.482  10.687
50694W        W22420   1.323   3.523   0.149
50695W        W22421  40.165  31.614  12.615
50696W        W22422   7.310   4.379  14.248
50697W        W22423  39.008  23.464  14.425
50698W        W22424  41.406   2.203  12.488
50699W        W22425   5.859  42.945   0.587
50700W        W22426  22.556  21.498   1.447
50701W        W22427   6.342  38.522   3.650
50702W        W22428  43.768  27.975  14.204
50703W        W22429  25.192  29.564   1.486
50704W        W22430  17.611  11.074   3.645
50705W        W22431  23.123  18.624  12.693
50706W        W22432   5.933  10.323   1.091
50707W        W22433  27.178  24.057  12.937
50708W        W22434  36.291  42.716   3.709
50709W        W22435  26.965  37.992   4.476
50710W        W22436  21.662   0.737   2.926
50711W        W22437  14.302  22.619  13.414
50712W        W22438   2.016  38.835  12.807
50713W        W22439  16.536  16.513  14.035
50714W        W22440  19.262  19.837   1.840
50715W        W22441  18.551  33.937  13.934
50716W        W22442  19.191   8.293  13.404
50717W        W22443  20.075   0.874  12.862
50718W        W22444  10.321   0.385  13.917
50719W        W22445   0.649  41.077  12.085
50720W        W22446  32.403   7.121   2.724
50721W        W22447   9.691   7.412  11.231
50722W        W22448   6.110  28.593  10.525
50723W        W22449  37.014   6.817   0.437
50724W        W22450  25.014  22.265  14.356
50725W        W22451  19.016  31.083   2.723
50726W        W22452   3.091  28.681   1.809
50727W        W22453  15.615  26.250   4.562
50728W        W22454  39.167  39.572  11.212
50729W        W22455   7.406  34.127  11.766
50730W        W22456  12.646  15.654   1.833
50731W        W22457   0.404  17.533   1.696
50732W        W22458  22.620  14.878  10.796
50733W        W22459   2.605  13.853   1.461
50734W        W22460  42.009  19.363   5.073
50735W        W22461   4.162  33.987  10.737
50736W        W22462   1.190  41.498  13.994
50737W        W22463   1.569  40.178  11.052
50738W        W22464  26.017  37.982  14.897
50739W        W22465  31.333   4.660   3.703
50740W        W22466  41.897  41.297   4.553
50741W        W22467  29.130  33.896  13.595
50742W        W22468  11.325  43.098  11.172
50743W        W22469  39.239   8.348   0.379
50744W        W22470   4.780   8.082  10.972
50745W        W22471  20.478  20.641   3.833
50746W        W22472  41.557  43.313   0.982
50747W        W22473  27.396  13.341  12.513
50748W        W22474  10.542   0.547   3.229
50749W        W22475  44.199  29.395   2.895
50750W        W22476   1.002   2.138  11.657
50751W        W22477  25.879   0.851   4.710
50752W        W22478  13.809   4.658  11.171
50753W        W22479  28.879  25.120  14.806
50754W        W22480  33.668  22.446   0.091
50755W        W22481   9.275   9.289   0.290
50756W        W22482  40.796  16.527  12.455
50757W        W22483  14.327   8.424  12.579
50758W        W22484  27.733  35.949   3.230
50759W        W22485  21.379  37.376   2.931
50760W        W22486   0.887   6.267  12.415
50761W        W22487  30.562  42.410  10.175
50762W        W22488  13.037  28.720   2.727
50763W        W22489  40.569  36.656   1.778
50764W        W22490  16.760   2.779   3.160
50765W        W22491   7.224   5.890   0.399
50766W        W22492  36.665  19.504  14.641
50767W        W22493  34.738   3.016  10.757
50768W        W22494  19.655  44.482  10.666
50769W        W22495   0.028  38.383   2.838
50770W        W22496   5.737   7.595   2.418
50771W        W22497  22.693  15.094   2.717
50772W        W22498   2.221  31.565   1.789
50773W        W22499  21.379  42.910   3.780
50774W        W22500   7.867  32.181   2.954
50775W        W22501  14.204  21.057  11.896
50776W        W22502   7.938  41.771   1.220
50777W        W22503  44.836  27.697  10.809
50778W        W22504   3.235   8.799  10.843
50779W        W22505  37.419  27.031   0.857
50780W        W22506  27.478  36.040  10.530
50781W        W22507   1.718   5.700   0.848
50782W        W22508   8.918   9.193   3.811
50783W        W22509   3.220  17.084   2.819
50784W        W22510  10.311   2.574   4.146
50785W        W22511  12.753  23.996  13.173
50786W        W22512  19.264  21.566   1.820
50787W        W22513   8.700  31.136   0.213
50788W        W22514   6.944   7.015   5.477
50789W        W22515   6.336  33.667   3.820
50790W        W22516   1.410   2.224  12.007
50791W        W22517  30.205   7.657   2.720
50792W        W22518  40.466  30.669   3.246
50793W        W22519  29.585  36.860   0.538
50794W        W22520   2.792  18.814   3.527
50795W        W22521  21.816  35.129  13.677
50796W        W22522  33.308  35.056   0.872
50797W        W22523   5.936  16.680   3.807
50798W        W22524  29.129  20.077  13.362
50799W        W22525  37.585  28.434   4.312
50800W        W22526   6.487   5.345  13.496
50801W        W22527   0.874   8.343   3.267
50802W        W22528   8.839  30.622  12.062
50803W        W22529  26.920  40.445   0.964
50804W        W22530  34.837  31.025   3.171
50805W        W22531  29.249  38.924  11.437
50806W        W22532  20.337  14.638  12.105
50807W        W22533  24.134  26.788  13.577
50808W        W22534   6.307  28.840  13.646
50809W        W22535  32.791  33.855  10.509
50810W        W22536  21.887   9.444   4.093
50811W        W22537  26.207  31.448  14.948
50812W        W22538  12.261  29.672   0.786
50813W        W22539   1.985  42.971   3.097
50814W        W22540  36.327  43.582  11.351
50815W        W22541   9.360  41.347  11.618
50816W        W22542  33.076  19.659  13.598
50817W        W22543  10.481  37.753  13.826
50818W        W22544   5.935  32.407  11.615
50819W        W22545   9.270  37.893   0.529
50820W        W22546  13.147  43.238   1.379
50821W        W22547  28.778  24.709   0.540
50822W        W22548  40.485  37.948   1.141
50823W        W22549   2.705  37.947   3.218
50824W        W22550  23.683   3.154   4.621
50825W        W22551  19.244   2.287   0.057
50826W        W22552  11.587  43.409  11.540
50827W        W22553   4.858   5.882  10.813
50828W        W22554  24.630   9.672   1.266
50829W        W22555  20.723   0.386   4.582
50830W        W22556  32.693   6.847   4.093
50831W        W22557  24.485  38.517   1.496
50832W        W22558   5.298  29.363   2.379
50833W        W22559   7.866  16.806  12.480
50834W        W22560   2.952  31.191   0.912
50835W        W22561  17.155  37.670  12.905
50836W        W22562  38.958  13.387  14.560
50837W        W22563   0.727  35.675   1.218
50838W        W22564  10.318   3.861  13.889
50839W        W22565  28.877   4.728  12.603
50840W        W22566  32.350  35.428   3.110
50841W        W22567   9.249  43.948   1.283
50842W        W22568  33.342  23.036  13.815
50843W        W22569  32.367  27.097  14.944
50844W        W22570  24.166  36.077   4.063
50845W        W22571   8.345  17.333   4.618
50846W        W22572  18.776  15.978  12.820
50847W        W22573   8.288  33.051   3.219
50848W        W22574  14.907  30.590   4.673
50849W        W22575   7.105   9.670   1.410
50850W        W22576  36.431  20.779   0.299
50851W        W22577  15.142  33.168  13.006
50852W        W22578   8.286  23.564   5.516
50853W        W22579  27.330  10.250   2.800
50854W        W22580  11.220  12.381  13.665
50855W        W22581   3.430  40.506   4.378
50856W        W22582   1.413  15.169   2.397
50857W        W22583  19.108  34.116   3.050
50858W        W22584  34.028  33.828  11.906
50859W        W22585  21.481  30.387   2.338
50860W        W22586  28.963  35.981   1.907
50861W        W22587  39.125  17.929  13.800
50862W        W22588   8.707  14.963  11.883
50863W        W22589  31.441  44.800   3.320
50864W        W22590  36.308  17.187   1.242
50865W        W22591  35.931  18.614   1.185
50866W        W22592  22.616   2.513   2.199
50867W        W22593  16.506  19.156   3.232
50868W        W22594  41.465   4.748   1.390
50869W        W22595   4.972  39.075  14.334
50870W        W22596  39.465  18.584  10.664
50871W        W22597  22.961   5.778  14.716
50872W        W22598  35.359  41.941   4.540
50873W        W22599   6.725   0.684   0.396
50874W        W22600   6.493  14.833   4.991
50875W        W22601  10.093   2.870   2.954
50876W        W22602  21.331   1.770  14.497
50877W        W22603  38.469  19.524   0.703
50878W        W22604  41.316  44.480   1.212
50879W        W22605  38.585   2.952  10.718
50880W        W22606  30.579  43.047  13.047
50881W        W22607  39.327  13.245  10.648
50882W        W22608  22.538  25.463  13.021
50883W        W22609  34.217   5.817   4.854
50884W        W22610  16.078  22.492  11.494
50885W        W22611   4.824   7.666  12.530
50886W        W22612   3.566  20.250   1.803
50887W        W22613   3.475  42.490   4.434
50888W        W22614  28.179  10.113  13.436
50889W        W22615  35.312  38.258  13.106
50890W        W22616  24.699   7.588   2.376
50891W        W22617  20.547  28.232   1.489
50892W        W22618   7.644  31.080   1.920
50893W        W22619  31.210  37.765  14.283
50894W        W22620  28.160  11.145   1.845
50895W        W22621  18.034   9.148   3.761
50896W        W22622  27.423  35.099   0.780
50897W        W22623  20.162  42.816   0.565
50898W        W22624   8.295   3.509   3.194
50899W        W22625  25.027  35.165  11.158
50900W        W22626  23.152  31.103   3.666
50901W        W22627  21.832  35.455   1.961
50902W        W22628  37.190  23.219   4.787
50903W        W22629  25.670   8.360  12.401
50904W        W22630  41.361   3.223   4.569
50905W        W22631   0.881   0.254   0.251
50906W        W22632  25.690  22.982   4.845
50907W        W22633   5.951   6.352  11.389
50908W        W22634   3.420  29.983   2.271
50909W        W22635  11.811  43.294   4.440
50910W        W22636  41.724  24.570   0.984
50911W        W22637  14.278  38.413  14.723
50912W        W22638  31.604  26.431   1.742
50913W        W22639  34.060   9.838  11.842
50914W        W22640  40.857  36.363   2.814
50915W        W22641  21.248  11.106  11.119
50916W        W22642  40.542   6.294  10.748
50917W        W22643   3.111  32.410  12.907
50918W        W22644  44.836  17.134   1.126
50919W        W22645  38.079   8.349   4.381
50920W        W22646  18.825  16.688  11.595
50921W        W22647  32.020  34.688  13.946
50922W        W22648  35.086  44.931  13.477
50923W        W22649  25.567   7.460   0.910
50924W        W22650  24.209  28.676  12.547
50925W        W22651  22.271   8.441   0.319
50926W        W22652   2.544  31.199  13.319
50927W        W22653  44.584   9.149   0.750
50928W        W22654  25.724  24.454  10.992
50929W        W22655  10.578  30.658   3.209
50930W        W22656  22.006  34.476  12.056
50931W        W22657   2.459  40.637   1.873
50932W        W22658  22.597  24.680  10.247
50933W        W22659  36.172  18.944  14.143
50934W        W22660  19.329  31.356  10.558
50935W        W22661   2.267  19.784  10.379
50936W        W22662  11.231  27.430  14.574
50937W        W22663  31.433  34.417  11.504
50938W        W22664  38.926  33.633  13.832
50939W        W22665  27.155   2.803   0.898
50940W        W22666  26.167  30.175   1.711
50941W        W22667  34.430  40.109  14.723
50942W        W22668  19.259   0.288  12.893
50943W        W22669  13.276  31.638   1.834
50944W        W22670  13.153  37.238   1.948
50945W        W22671  31.988   0.197   0.296
50946W        W22672  13.260  10.148  11.559
50947W        W22673  15.303  14.360   4.146
50948W        W22674  42.926  22.397   4.921
50949W        W22675  18.080  28.000  13.002
50950W        W22676  23.779  41.618  12.134
50951W        W22677  42.901  15.805   1.748
50952W        W22678  20.918  23.494   3.059
50953W        W22679  29.227   6.223   1.822
50954W        W22680  35.111  17.255  11.850
50955W        W22681   9.786   9.827   0.937
50956W        W22682  40.299  22.249  14.472
50957W        W22683  30.980   7.098   3.117
50958W        W22684  35.142  34.184   1.815
50959W        W22685  42.832  35.338   3.717
50960W        W22686  29.613   1.255  11.586
50961W        W22687   4.584  18.550  14.929
50962W        W22688  30.422   2.376  12.899
50963W        W22689   6.861   7.701   3.864
50964W        W22690   3.765  29.562   4.864
50965W        W22691   0.809  10.383  11.621
50966W        W22692  36.822  41.950  13.091
50967W        W22693  27.680  27.995  14.394
50968W        W22694  26.352  12.284  12.575
50969W        W22695  24.717  32.970  13.300
50970W        W22696  39.366  44.261  12.922
50971W        W22697  19.223  20.004   3.156
50972W        W22698   2.943  34.308   4.074
50973W        W22699  10.647  12.383  14.927
50974W        W22700  33.307   9.546   2.319
50975W        W22701   9.871  40.777  14.042
50976W        W22702   5.570   6.802  11.838
50977W        W22703  26.843  42.888  13.579
50978W        W22704   2.677  21.165   2.239
50979W        W22705  26.181  37.775  11.917
50980W        W22706  30.755  31.474   1.455
50981W        W22707  11.650   2.216  14.960
50982W        W22708  44.750  30.620   3.730
50983W        W22709   0.043  25.963  14.554
50984W        W22710  21.024  42.916   4.155
50985W        W22711  29.512  35.442   4.836
50986W        W22712  17.875  22.826   1.184
50987W        W22713  44.465   9.079  10.434
50988W        W22714  22.989  25.948  10.564
50989W        W22715  17.073   9.138  12.948
50990W        W22716  38.061  29.679   1.017
50991W        W22717  23.446  43.734   0.882
50992W        W22718   0.243   6.672   1.294
50993W        W22719  22.617  41.486  11.756
50994W        W22720   0.499  11.693   0.742
50995W        W22721   3.670   7.271  13.772
50996W        W22722  14.782  15.050  12.021
50997W        W22723   1.708  42.002  12.573
50998W        W22724  25.140  26.441  11.545
50999W        W22725   1.230  31.444   1.835
51000W        W22726  26.176  35.090   0.397
51001W        W22727   7.353  39.881   0.960
51002W        W22728   4.481  16.033  14.494
51003W        W22729  17.757  14.037  11.635
51004W        W22730  13.970   0.947  11.082
51005W        W22731  10.190  38.215  11.716
51006W        W22732  20.586  12.414  11.618
51007W        W22733  10.692   0.446  11.647
51008W        W22734  28.061   0.780  10.346
51009W        W22735  38.384  30.355  10.772
51010W        W22736   2.950  22.758   0.201
51011W        W22737  31.465  36.458  12.810
51012W        W22738  41.396  33.219   1.825
51013W        W22739  43.038   3.276  11.153
51014W        W22740   5.038   3.950   4.868
51015W        W22741  24.596  22.966  11.666
51016W        W22742   7.754  36.626  11.004
51017W        W22743   8.960  40.329  11.529
51018W        W22744  35.503  25.951   1.856
51019W        W22745  15.533  28.512  11.639
51020W        W22746  38.565  29.768   1.020
51021W        W22747  18.879   0.019  13.122
51022W        W22748  38.691  37.931  13.171
51023W        W22749   3.615  29.733   0.787
51024W        W22750  13.086  12.916   2.572
51025W        W22751  11.333  32.847   2.775
51026W        W22752  20.095   4.858  12.997
51027W        W22753   5.506   6.219  12.435
51028W        W22754  28.643   2.511   4.242
51029W        W22755  32.734  28.101  12.844
51030W        W22756  42.072  10.801   4.046
51031W        W22757   2.468  24.388  11.998
51032W        W22758  14.243   4.219   4.279
51033W        W22759  32.374  12.448   1.845
51034W        W22760   3.807  20.137   1.361
51035W        W22761  18.492  36.863   1.856
51036W        W22762  35.204   8.749  10.969
51037W        W22763  11.713  42.267  11.064
51038W        W22764  29.521  34.547  11.574
51039W        W22765  11.647   5.815  11.224
51040W        W22766  44.483   5.086   1.277
51041W        W22767  40.311   2.190   2.365
51042W        W22768   4.891  39.029   4.320
51043W        W22769  32.730  12.507  12.926
51044W        W22770  18.762  38.085  11.374
51045W        W22771  24.161  38.486   3.625
51046W        W22772   8.359   0.894   4.290
51047W        W22773  26.534  21.210   3.189
51048W        W22774  14.410  11.295  12.523
51049W        W22775  19.630  25.027   0.888
51050W        W22776  27.008  19.434   0.999
51051W        W22777   3.936   0.366   2.623
51052W        W22778  39.469  24.182  11.416
51053W        W22779  38.741  30.269  11.681
51054W        W22780  36.709  31.045  11.930
51055W        W22781   0.217   1.265   3.823
51056W        W22782  37.096  14.216   2.726
51057W        W22783  17.647   3.911   1.527
51058W        W22784  44.411  16.566   1.339
51059W        W22785  22.215  37.088   1.880
51060W        W22786  20.615  19.541   3.635
51061W        W22787  30.617  26.708   4.680
51062W        W22788  19.003  21.594  14.956
51063W        W22789   8.018  10.673  12.744
51064W        W22790  25.956  28.929  13.899
51065W        W22791   7.068  23.062   4.510
51066W        W22792  34.553  16.237   2.753
51067W        W22793  19.568  13.329   3.185
51068W        W22794  23.247  31.105  10.567
51069W        W22795   9.613  14.330   2.700
51070W        W22796   3.785  26.922   4.688
51071W        W22797   0.608  31.578  14.045
51072W        W22798  36.878  39.062  12.957
51073W        W22799  27.079   7.805   3.082
51074W        W22800  34.555  38.836  14.311
51075W        W22801  32.886  16.345  13.430
51076W        W22802  22.512  39.825   0.391
51077W        W22803  14.824  19.562   3.696
51078W        W22804   7.780  27.534  13.529
51079W        W22805  25.844  43.877  10.294
51080W        W22806  35.527  31.973  11.572
51081W        W22807  33.627   6.954   0.850
51082W        W22808   1.414  34.446  13.337
51083W        W22809  35.245  14.129  12.536
51084W        W22810  40.223  13.433  12.057
51085W        W22811  22.695  34.698   3.070
51086W        W22812  24.375  23.289  11.306
51087W        W22813  14.040   4.716   5.017
51088W        W22814  12.600  14.238   1.227
51089W        W22815   4.764  29.223   4.632
51090W        W22816  28.620   0.403  11.485
51091W        W22817  11.390  41.066   0.601
51092W        W22818   1.701   8.822   2.762
51093W        W22819  29.534  11.355   2.751
51094W        W22820  26.607  23.032   4.644
51095W        W22821   9.377  40.977  13.978
51096W        W22822  41.593  40.406   1.668
51097W        W22823   3.893  39.031   4.601
51098W        W22824  41.286   4.366   0.794
51099W        W22825  16.052   5.215  14.559
51100W        W22826  17.061   3.722  12.094
51101W        W22827  40.838  44.891   2.226
51102W        W22828   1.440   9.747   4.707
51103W        W22829  38.507  26.667  14.770
51104W        W22830  28.207  15.698   0.885
51105W        W22831  10.322  29.285  10.322
51106W        W22832  27.065   2.362  11.387
51107W        W22833  22.046  11.165  14.650
51108W        W22834   5.337   7.858   0.530
51109W        W22835  16.075   3.443   3.737
51110W        W22836  30.958  26.132   1.615
51111W        W22837   4.794   7.884  14.478
51112W        W22838  23.466  29.873   0.911
51113W        W22839  25.967  29.492  11.677
51114W        W22840  39.979  22.065  14.907
51115W        W22841  27.142  44.572   0.546
51116W        W22842  32.127  15.609  13.440
51117W        W22843  14.115  18.297   3.507
51118W        W22844  19.750  28.524  11.541
51119W        W22845  29.023  14.874  14.372
51120W        W22846  22.809  26.155   3.792
51121W        W22847   0.468  29.584   3.912
51122W        W22848  13.273  25.365   2.816
51123W        W22849  16.198   3.845   0.300
51124W        W22850   1.763  32.880   0.389
51125W        W22851  16.540  44.428   4.180
51126W        W22852  21.554  40.092   3.553
51127W        W22853  19.552  13.672   1.717
51128W        W22854   1.399  28.006  12.902
51129W        W22855   4.292  34.308   3.785
51130W        W22856  16.764  16.282  10.933
51131W        W22857  10.030  35.126   1.879
51132W        W22858  24.773   5.722   0.344
51133W        W22859  28.514  34.784   4.909
51134W        W22860  42.108  33.482  13.052
51135W        W22861  14.327   1.418   2.730
51136W        W22862   7.783  16.297  11.425
51137W        W22863  27.118  33.090   0.413
51138W        W22864  40.426   3.490   1.710
51139W        W22865  42.494  32.512   3.219
51140W        W22866  44.955  15.146  11.523
51141W        W22867  34.269   7.794  12.627
51142W        W22868   5.527   5.775  10.048
51143W        W22869  10.434  37.326   5.029
51144W        W22870  13.977  20.602   0.812
51145W        W22871   4.625  31.466  12.604
51146W        W22872  25.542  34.630  14.821
51147W        W22873  19.912  35.947   4.607
51148W        W22874   5.757  28.075   4.622
51149W        W22875  17.255  39.786   4.086
51150W        W22876  32.876  17.997  13.924
51151W        W22877  13.667   7.475  13.914
51152W        W22878  31.760  12.964  12.158
51153W        W22879  41.078  28.247  12.546
51154W        W22880   9.697  25.111  14.347
51155W        W22881  29.640  17.191  14.762
51156W        W22882  23.359  28.973  12.557
51157W        W22883  35.060  37.930  13.845
51158W        W22884   0.813  40.585   2.204
51159W        W22885  11.799  22.662  10.648
51160W        W22886  29.650  30.894   2.255
51161W        W22887   3.863  27.658  13.449
51162W        W22888  31.634   1.104   5.018
51163W        W22889  43.848  27.888   0.649
51164W        W22890   9.840  34.558   1.329
51165W        W22891  37.853  17.172   1.224
51166W        W22892  43.575  35.454   4.378
51167W        W22893  22.423  37.265   0.144
51168W        W22894   4.518  33.953  13.776
51169W        W22895  33.460  36.606  13.401
51170W        W22896  38.087   5.758   3.985
51171W        W22897  44.979  36.477  14.922
51172W        W22898  23.273   2.969  13.853
51173W        W22899  41.358  26.146  14.876
51174W        W22900  17.655   6.490  14.507
51175W        W22901   9.662   7.831  13.876
51176W        W22902   7.740  32.190  13.077
51177W        W22903   0.924  32.023  13.437
51178W        W22904  36.639  43.173   1.794
51179W        W22905   9.349  15.799   0.291
51180W        W22906  27.979  39.981   5.137
51181W        W22907   7.180  33.984   1.497
51182W        W22908  28.093  27.511   5.260
51183W        W22909  21.004   0.877   0.040
51184W        W22910  26.470  17.818  14.879
51185W        W22911  10.885  44.056  10.779
51186W        W22912  29.096  16.492   4.105
51187W        W22913  34.467  41.076   2.749
51188W        W22914  29.419  13.254   2.652
51189W        W22915   8.735   8.304  13.997
51190W        W22916  27.418  16.160   3.693
51191W        W22917  31.821  26.579   2.239
51192W        W22918  10.216  43.986   2.264
51193W        W22919  26.396  21.467   4.232
51194W        W22920  35.005  24.592  14.531
51195W        W22921  18.159  11.653   1.412
51196W        W22922  14.132  38.306  12.393
51197W        W22923  14.590  40.012   4.151
51198W        W22924  44.858  30.221   1.157
51199W        W22925  11.904   1.521  11.077
51200W        W22926   5.714   4.082   1.933
51201W        W22927  15.717   0.541  13.474
51202W        W22928   2.802   2.896   2.303
51203W        W22929   6.820  18.257  14.006
51204W        W22930  10.753  32.635  12.580
51205W        W22931  20.765  34.527  10.527
51206W        W22932  37.115  34.946  13.455
51207W        W22933  24.392   4.356  11.929
51208W        W22934  11.731  37.935  14.364
51209W        W22935  41.720  15.133  13.544
51210W        W22936  34.741  11.849   2.174
51211W        W22937  41.976  30.909  11.004
51212W        W22938  32.957  31.350   1.799
51213W        W22939   7.303  28.590   1.326
51214W        W22940   1.347  28.892  12.729
51215W        W22941   2.962  43.594   1.337
51216W        W22942  38.260  14.004  11.950
51217W        W22943  10.727  19.172   2.945
51218W        W22944  44.367  14.867   0.428
51219W        W22945  35.544   3.431  13.904
51220W        W22946  38.381   0.704  14.332
51221W        W22947  11.873  17.478  12.030
51222W        W22948  22.084  20.095  12.497
51223W        W22949   5.470   4.038  11.229
51224W        W22950  17.706  25.807   3.195
51225W        W22951   5.161  20.734  11.583
51226W        W22952  17.802  22.104   0.702
51227W        W22953  22.227  28.538   3.725
51228W        W22954  36.559  22.952  14.260
51229W        W22955   2.649   1.473  11.347
51230W        W22956  10.369  12.841  14.891
51231W        W22957  43.306   3.574   0.576
51232W        W22958  27.093  11.819   0.433
51233W        W22959  32.909  22.660   3.206
51234W        W22960  34.506   2.829  13.934
51235W        W22961  31.027  20.774  10.366
51236W        W22962   2.921  19.768   1.952
51237W        W22963  22.304  35.129  13.839
51238W        W22964   1.862   6.677   4.076
51239W        W22965  12.332   8.627  10.810
51240W        W22966  18.064  17.163  11.426
51241W        W22967   2.773  34.256  13.896
51242W        W22968  16.722  29.070   4.756
51243W        W22969   6.730  23.016   4.111
51244W        W22970  42.740  31.846   2.231
51245W        W22971  41.258   2.934  12.926
51246W        W22972  24.551  16.623  10.584
51247W        W22973  25.123  42.563   0.020
51248W        W22974  32.145  17.332   3.697
51249W        W22975  43.052  15.993   4.290
51250W        W22976  40.089  32.049  11.867
51251W        W22977  22.594  20.291   1.783
51252W        W22978   3.851  44.888   4.188
51253W        W22979  13.526   2.218  12.001
51254W        W22980  40.948   2.329   0.666
51255W        W22981  24.232  12.124   3.307
51256W        W22982   3.385   2.761  11.617
51257W        W22983  44.336  13.697   1.262
51258W        W22984  23.986  30.721  11.483
51259W        W22985  42.571  27.051  11.137
51260W        W22986  41.951   7.748  11.136
51261W        W22987  23.007  39.741   4.137
51262W        W22988  10.722  14.429  11.274
51263W        W22989  34.344  37.074  10.666
51264W        W22990  18.646  17.203   4.155
51265W        W22991   7.331  29.643   2.157
51266W        W22992  34.942  16.061   1.234
51267W        W22993  26.923   7.973  11.105
51268W        W22994  41.268   4.176   2.632
51269W        W22995  29.752  29.563  13.795
51270W        W22996  23.548   9.739  11.442
51271W        W22997  44.750  37.410   4.633
51272W        W22998  18.797   4.536   1.459
51273W        W22999  27.431   0.890  14.370
51274W        W23000  17.108  27.927   3.223
51275W        W23001   2.269  22.555   0.713
51276W        W23002  23.354  10.201  14.876
51277W        W23003  44.829   3.354  11.235
51278W        W23004  31.362  14.588  11.997
51279W        W23005  17.529  24.015   1.818
51280W        W23006  32.993  28.185   3.790
51281W        W23007   0.396  28.153   4.327
51282W        W23008   5.874  11.774   4.665
51283W        W23009  29.665  25.511  10.686
51284W        W23010   9.683  33.416   3.714
51285W        W23011  44.667  30.150  14.423
51286W        W23012  35.710  34.198  12.812
51287W        W23013   8.209   8.722  10.988
51288W        W23014  12.851  41.397  11.841
51289W        W23015  41.525  38.675  14.486
51290W        W23016   0.947   8.619   0.493
51291W        W23017  12.886  36.177   2.705
51292W        W23018  27.593  13.124  11.215
51293W        W23019  22.928  25.741  11.038
51294W        W23020  20.160  35.547   1.906
51295W        W23021  43.039  41.155  14.475
51296W        W23022  11.225  12.250  14.153
51297W        W23023  26.745  18.226  11.584
51298W        W23024  28.524  38.582  11.231
51299W        W23025  41.811  22.238   2.451
51300W        W23026  21.169  24.991  14.974
51301W        W23027   4.799  24.546  10.590
51302W        W23028  12.574  33.179  12.579
51303W        W23029  13.010  16.724  13.110
51304W        W23030   5.455  28.224  11.955
51305W        W23031   1.451  36.389   1.723
51306W        W23032  33.545  43.172  14.298
51307W        W23033  16.251  32.006  12.665
51308W        W23034  36.955  20.066  13.845
51309W        W23035  39.448  11.156  13.083
51310W        W23036  39.384  30.418  13.354
51311W        W23037  35.812  18.680   4.334
51312W        W23038  35.598  29.407  12.502
51313W        W23039  36.504  31.350  11.024
51314W        W23040  43.849  37.148   4.753
51315W        W23041  25.382  25.971  11.369
51316W        W23042  31.381   3.297  14.047
51317W        W23043   0.889  21.981  14.449
51318W        W23044  18.632  28.135   1.357
51319W        W23045  16.677  21.252  13.471
51320W        W23046  27.088  25.026   0.034
51321W        W23047  27.953   1.828   1.322
51322W        W23048  15.984  11.093   1.934
51323W        W23049  41.025   8.066   4.565
51324W        W23050  14.904  15.074   3.253
51325W        W23051  39.625   1.814  14.409
51326W        W23052  30.494  21.992  11.119
51327W        W23053  42.955  16.342  10.494
51328W        W23054  22.289  27.647  13.755
51329W        W23055  13.722  38.364   3.596
51330W        W23056  30.892  38.941  12.871
51331W        W23057  31.149   8.819   2.156
51332W        W23058  16.580   2.804   1.298
51333W        W23059  26.759  31.133  12.025
51334W        W23060  34.301  20.249  13.868
51335W        W23061  30.941  11.817  11.012
51336W        W23062  18.468  19.740  12.094
51337W        W23063  28.699  10.722  14.865
51338W        W23064  42.805  36.498  12.112
51339W        W23065  27.435  34.761  13.180
51340W        W23066   9.766  20.502   4.198
51341W        W23067  33.825  25.151   2.355
51342W        W23068  26.022  18.569  13.918
51343W        W23069   3.888  44.493  11.992
51344W        W23070  38.639  13.308   2.370
51345W        W23071  25.275  11.222  11.399
51346W        W23072  12.216   9.637  12.071
51347W        W23073   9.216   6.263  10.696
51348W        W23074   0.309  36.869  12.291
51349W        W23075   2.719  15.868  12.011
51350W        W23076   5.864  41.737   1.262
51351W        W23077  10.722  26.122  11.010
51352W        W23078  23.496  20.969   2.437
51353W        W23079  13.668  36.418   0.321
51354W        W23080  39.761  29.828  12.410
51355W        W23081   9.433  30.090   2.124
51356W        W23082  26.972  29.121   3.862
51357W        W23083  23.517   2.262   3.399
51358W        W23084  44.956  32.026  10.696
51359W        W23085  17.698   9.721  10.673
51360W        W23086  27.676  29.381  13.270
51361W        W23087   1.743  24.095  11.629
51362W        W23088  13.212   6.669   4.313
51363W        W23089  23.745  37.887   0.600
51364W        W23090   1.312  34.311   0.525
51365W        W23091  38.385  44.478  13.090
51366W        W23092  40.222  34.293  10.443
51367W        W23093  22.623  31.491  10.769
51368W        W23094  31.402   6.638  14.710
51369W        W23095  26.321  43.154   3.718
51370W        W23096   2.728  35.024   3.259
51371W        W23097  12.742  27.884   2.929
51372W        W23098  29.564  11.786  11.986
51373W        W23099  13.872   6.838   1.205
51374W        W23100   7.363  42.308   3.279
51375W        W23101  37.548  32.215  11.735
51376W        W23102   0.875  18.600   0.234
51377W        W23103  21.690  36.524  14.038
51378W        W23104  29.891  25.159   1.143
51379W        W23105  24.500  39.289  14.852
51380W        W23106  35.518  13.708   3.869
51381W        W23107  32.458  20.755   3.929
51382W        W23108  18.325  27.559   3.703
51383W        W23109  44.283  12.547  10.691
51384W        W23110   0.786   2.231  14.858
51385W        W23111  19.328   8.358   4.963
51386W        W23112  15.772  16.333   4.184
51387W        W23113  43.758  11.773   1.109
51388W        W23114   0.780  15.663  12.073
51389W        W23115  40.284  25.567  14.103
51390W        W23116  10.321  19.237  12.666
51391W        W23117  39.831  29.734   4.718
51392W        W23118  39.073  36.540  12.368
51393W        W23119   4.781  40.409   4.166
51394W        W23120  32.863  22.939   3.636
51395W        W23121  25.443   0.477   3.325
51396W        W23122  16.339  31.053  12.916
51397W        W23123  11.793   4.879  14.061
51398W        W23124  28.512  24.594   1.407
51399W        W23125  39.616   9.481  14.318
51400W        W23126  44.934  19.747   0.999
51401W        W23127  33.107   0.289  11.873
51402W        W23128  22.463  27.023   4.555
51403W        W23129  32.317  44.867   9.537
51404W        W23130   9.339   5.652  12.481
51405W        W23131   3.822  16.632   1.070
51406W        W23132  14.200  36.329   2.392
51407W        W23133  34.480   4.095   2.675
51408W        W23134  22.151  19.831  13.995
51409W        W23135  37.105  33.351   2.344
51410W        W23136  22.757  14.545   2.742
51411W        W23137  39.555  34.848  11.163
51412W        W23138   6.647   1.689  13.986
51413W        W23139  32.500  12.946   1.811
51414W        W23140  13.762  40.816  12.825
51415W        W23141   6.164  22.155   3.144
51416W        W23142   8.718  25.463  12.068
51417W        W23143  11.465  11.818  12.028
51418W        W23144   7.671  34.076   4.216
51419W        W23145  44.478  18.929   0.349
51420W        W23146  14.319  14.145  13.315
51421W        W23147  16.753  15.620   0.334
51422W        W23148   4.279  25.026  14.994
51423W        W23149  27.213   5.889  14.871
51424W        W23150  17.213  30.618  14.716
51425W        W23151  26.159  34.940   4.314
51426W        W23152  22.711  32.479   1.820
51427W        W23153  11.180  13.183  14.044
51428W        W23154  17.407  27.639  14.296
51429W        W23155  32.103   4.802   1.253
51430W        W23156  37.984  20.924   0.261
51431W        W23157  17.947  41.941   3.723
51432W        W23158  44.801  25.630  14.251
51433W        W23159   8.808  29.606   4.226
51434W        W23160   1.739  30.353   2.742
51435W        W23161  20.019  34.577  13.681
51436W        W23162  29.511  21.505   2.650
51437W        W23163  24.443  38.480  10.679
51438W        W23164  28.430  44.640  13.305
51439W        W23165  29.569  41.522  13.852
51440W        W23166  15.314  12.677   2.236
51441W        W23167  31.984  36.618   0.328
51442W        W23168  44.762   8.157  14.735
51443W        W23169   7.217  12.423  12.027
51444W        W23170  28.627  13.517   2.652
51445W        W23171  25.937   5.016   0.926
51446W        W23172   6.788  25.029   2.027
51447W        W23173  39.374   5.253   2.016
51448W        W23174   3.203  16.017  11.914
51449W        W23175  11.962  38.936  12.155
51450W        W23176  12.733  27.028  14.433
51451W        W23177  24.205  32.432  12.297
51452W        W23178  17.943  10.636   1.250
51453W        W23179  33.847  30.983  13.812
51454W        W23180  24.681  22.451  11.592
51455W        W23181  44.841  41.241  11.153
51456W        W23182  39.122   0.174  13.305
51457W        W23183  32.343  43.870  14.364
51458W        W23184  13.665  36.457   2.337
51459W        W23185   9.229  41.849  11.507
51460W        W23186  27.018   0.730   1.949
51461W        W23187  23.049  15.810   0.917
51462W        W23188  18.103  19.517   0.849
51463W        W23189  24.417   0.032   5.437
51464W        W23190   8.316  24.699   1.246
51465W        W23191  20.365  25.610   5.390
51466W        W23192  14.642   9.136  11.939
51467W        W23193  27.146   6.727   1.366
51468W        W23194  30.415  34.490   2.875
51469W        W23195  10.646  40.827  11.128
51470W        W23196   4.711   1.295  12.013
51471W        W23197  10.535  14.896  11.336
51472W        W23198  34.101  29.055  12.042
51473W        W23199  28.575   6.097  13.609
51474W        W23200  37.328  42.351  12.304
51475W        W23201  15.749  23.748  10.648
51476W        W23202  27.448   8.644   0.308
51477W        W23203  41.351   7.781   3.224
51478W        W23204   7.840   5.024  12.592
51479W        W23205  22.339  18.188   0.191
51480W        W23206  33.399  31.571  12.646
51481W        W23207  30.991   9.129  11.907
51482W        W23208  39.454   9.026   1.466
51483W        W23209  34.397  24.676   0.292
51484W        W23210  22.989  25.873   3.191
51485W        W23211  32.814  41.740  12.890
51486W        W23212  11.279  31.364   1.989
51487W        W23213  40.843   8.157   1.391
51488W        W23214  20.097  44.725  10.489
51489W        W23215  23.066  38.835  13.498
51490W        W23216  14.211   2.759  12.481
51491W        W23217  15.047   4.554   1.311
51492W        W23218  30.873  17.315  12.389
51493W        W23219  32.005  35.805   2.238
51494W        W23220  36.526  41.908  12.685
51495W        W23221  26.240  17.549  12.086
51496W        W23222  41.503  31.812   0.844
51497W        W23223  15.112  25.998   4.589
51498W        W23224   2.443  14.822   4.253
51499W        W23225   3.788  23.707   0.156
51500W        W23226  10.717  27.533   3.148
51501W        W23227  23.169   9.129   4.673
51502W        W23228  18.801  33.546   1.171
51503W        W23229  33.694  15.299  14.041
51504W        W23230  38.688   4.137   2.322
51505W        W23231  17.794  31.114  14.259
51506W        W23232  29.769  23.138   1.355
51507W        W23233  12.181  30.949   3.607
51508W        W23234  13.141  34.371   2.114
51509W        W23235  13.175  31.552   3.356
51510W        W23236  42.985  23.209   3.188
51511W        W23237   2.963   6.896   4.715
51512W        W23238  21.850  25.235   4.647
51513W        W23239  40.821  24.753  13.038
51514W        W23240   3.943  32.583  11.851
51515W        W23241  44.766  21.568   2.741
51516W        W23242  10.481  30.990  12.454
51517W        W23243  40.002  31.133   3.809
51518W        W23244  16.677  22.952  10.654
51519W        W23245  15.392  33.507   0.383
51520W        W23246  42.548  30.641  14.337
51521W        W23247  31.915  21.248   2.399
51522W        W23248  34.364   7.205  12.006
51523W        W23249  16.623   5.452  11.979
51524W        W23250  31.835  37.947  14.358
51525W        W23251  40.012  31.945  14.954
51526W        W23252   9.425  35.347  12.050
51527W        W23253   4.392  19.786   1.923
51528W        W23254  21.267   9.625   9.884
51529W        W23255  37.973  44.926  14.767
51530W        W23256  24.095  18.667  12.148
51531W        W23257   3.403  33.810   2.839
51532W        W23258  29.067  43.784   4.843
51533W        W23259  20.249  35.928  10.700
51534W        W23260  35.652   7.334  10.698
51535W        W23261  11.180  39.007   0.949
51536W        W23262  17.753   3.681  12.527
51537W        W23263  16.707  41.022  14.144
51538W        W23264  44.469  16.645   1.858
51539W        W23265  21.754  12.938  10.243
51540W        W23266  39.383  18.488   2.730
51541W        W23267  23.458   2.907   2.927
51542W        W23268  33.590  16.480  12.039
51543W        W23269  18.705  10.166   0.722
51544W        W23270   4.287  32.996   0.557
51545W        W23271  16.333  15.371   1.373
51546W        W23272  31.029   5.633   0.707
51547W        W23273  39.066  38.494  12.510
51548W        W23274  29.667  41.547  13.328
51549W        W23275   0.570  24.566  13.942
51550W        W23276  16.271  16.052  13.816
51551W        W23277   9.623  27.413  12.079
51552W        W23278  16.520  15.066  12.591
51553W        W23279   7.900  40.358   3.667
51554W        W23280  28.957  33.537   1.285
51555W        W23281  20.714  14.601   3.689
51556W        W23282   9.953   7.778   4.228
51557W        W23283  10.092  14.653   3.280
51558W        W23284  14.593   3.942   2.450
51559W        W23285  42.955  39.761  14.950
51560W        W23286   1.225  43.240  10.705
51561W        W23287  29.441  38.997  12.385
51562W        W23288  27.230  24.090   1.250
51563W        W23289  20.874  24.704   1.957
51564W        W23290   8.079  42.501  12.972
51565W        W23291  44.541  42.899  13.953
51566W        W23292  31.017  16.113  11.443
51567W        W23293  14.325  38.960  10.314
51568W        W23294  42.331  27.225   2.617
51569W        W23295  38.639   6.663  10.605
51570W        W23296  28.017  34.138  14.400
51571W        W23297  42.388  28.987   3.234
51572W        W23298   1.876  15.139  14.207
51573W        W23299  28.254  39.256  10.640
51574W        W23300  20.788  16.511   0.502
51575W        W23301  28.423  41.965   2.098
51576W        W23302  41.355  32.620   1.398
51577W        W23303  12.445  28.513  12.416
51578W        W23304  36.820  12.226  13.345
51579W        W23305  14.843  11.681  13.920
51580W        W23306  21.621  34.059  12.021
51581W        W23307   6.166  24.676  13.815
51582W        W23308  27.043  41.829   3.640
51583W        W23309  41.968  40.588   1.226
51584W        W23310  12.576  19.958   0.491
51585W        W23311   2.320   0.858  10.589
51586W        W23312  13.150  17.296   3.761
51587W        W23313  40.663  25.058   1.329
51588W        W23314  34.604  25.141  10.646
51589W        W23315  13.877   3.483  13.401
51590W        W23316  40.664  41.828  13.873
51591W        W23317  40.839   3.891   2.844
51592W        W23318  27.298  27.571   2.557
51593W        W23319  38.334  36.983   4.622
51594W        W23320  21.978  42.866  10.726
51595W        W23321   6.824  31.964   2.258
51596W        W23322  14.515  32.582   1.242
51597W        W23323   7.795  13.808  10.524
51598W        W23324  27.562  29.177  12.414
51599W        W23325   9.183  33.186  11.104
51600W        W23326  33.559  15.052  14.519
51601W        W23327  22.797  16.616  10.522
51602W        W23328   8.705  24.264   0.543
51603W        W23329  15.267  43.576   1.922
51604W        W23330  20.975   5.904   1.678
51605W        W23331  32.474  40.800  13.384
51606W        W23332  24.082  35.931   0.487
51607W        W23333  23.896  21.049   1.479
51608W        W23334  34.931  38.116   2.311
51609W        W23335  27.438  10.652  13.302
51610W        W23336  26.145   9.880   4.240
51611W        W23337  35.989  15.530  13.323
51612W        W23338   3.496  27.128  14.280
51613W        W23339  10.644  13.663   3.258
51614W        W23340  17.742   2.267   4.590
51615W        W23341  40.789  33.602   0.806
51616W        W23342  40.578   2.349  12.836
51617W        W23343  21.494  28.671  12.404
51618W        W23344   7.248  35.413   0.019
51619W        W23345  35.277  39.334   1.988
51620W        W23346  16.006  23.617   9.943
51621W        W23347  31.171  10.701  12.045
51622W        W23348  32.207  26.500   1.276
51623W        W23349  13.158  12.342   1.719
51624W        W23350   8.475  33.554   4.086
51625W        W23351  16.483  17.991  14.080
51626W        W23352  25.551  28.929   4.402
51627W        W23353   6.673   8.884  12.525
51628W        W23354  24.170  38.888  12.339
51629W        W23355  30.854  35.448  11.514
51630W        W23356  12.690  11.371   0.392
51631W        W23357  28.399  21.149   1.960
51632W        W23358  16.537  40.402   0.809
51633W        W23359  28.389  14.394   4.267
51634W        W23360  15.364  12.041   3.686
51635W        W23361  13.451  37.352  10.422
51636W        W23362  18.582  25.946  11.122
51637W        W23363  37.789  22.607  14.568
51638W        W23364  14.102   8.443  10.735
51639W        W23365  35.493  43.995   3.051
51640W        W23366  23.399  30.140   3.283
51641W        W23367  38.919   3.673   4.989
51642W        W23368  21.224  39.469  13.480
51643W        W23369  13.326  37.165  14.826
51644W        W23370   0.765   3.485  13.468
51645W        W23371  10.724  11.298   1.991
51646W        W23372  20.170  19.334   3.809
51647W        W23373  11.387   1.475  12.022
51648W        W23374   3.730  17.534  11.532
51649W        W23375  34.967  27.418  11.016
51650W        W23376   5.916  12.237   4.377
51651W        W23377  10.220  39.278   1.263
51652W        W23378  19.065  21.629  14.435
51653W        W23379  26.192   9.291  10.875
51654W        W23380  14.297   7.460  12.981
51655W        W23381  31.473  35.071  12.697
51656W        W23382   8.708  10.340  13.214
51657W        W23383  19.939  37.518  11.006
51658W        W23384   5.719  40.744   0.186
51659W        W23385  30.268   9.148  12.927
51660W        W23386  25.199  15.511   5.029
51661W        W23387  43.685   6.584   0.749
51662W        W23388  16.773  26.651   0.216
51663W        W23389  28.015   3.377   2.388
51664W        W23390  33.217   6.039   5.059
51665W        W23391  38.353  40.765   0.799
51666W        W23392  26.936  43.224  11.565
51667W        W23393  27.346  37.957   4.800
51668W        W23394  27.951  27.092  12.146
51669W        W23395  20.775  12.788  10.074
51670W        W23396  43.624  11.383  10.432
51671W        W23397  33.825  29.972   4.916
51672W        W23398  20.165  21.270  11.641
51673W        W23399  31.349  38.367  11.216
51674W        W23400  15.669  43.038  14.812
51675W        W23401  13.241   6.641   0.400
51676W        W23402  24.539  21.782   1.222
51677W        W23403  44.946  37.548   1.189
51678W        W23404  11.274  34.820   3.711
51679W        W23405  43.958   0.695  12.003
51680W        W23406  33.419  23.990  13.850
51681W        W23407  40.078  13.645  13.112
51682W        W23408  32.627  37.880  14.898
51683W        W23409  32.219  21.781   1.213
51684W        W23410  15.875   1.890  11.955
51685W        W23411   4.470  21.080   4.948
51686W        W23412  18.666  29.128   3.126
51687W        W23413  13.616  11.885   0.447
51688W        W23414  11.634  25.641  13.836
51689W        W23415  18.040   9.015  12.050
51690W        W23416  38.285  15.251   3.311
51691W        W23417  14.356  27.544  14.019
51692W        W23418  22.062  10.192  13.959
51693W        W23419   3.258   4.968   1.818
51694W        W23420   5.787  21.666   0.966
51695W        W23421  23.447  44.404  12.963
51696W        W23422  10.971   0.083   2.214
51697W        W23423   0.019  19.143   3.116
51698W        W23424  28.192   1.106   5.275
51699W        W23425  27.970  30.948   2.809
51700W        W23426  34.868  42.835  14.981
51701W        W23427  31.605  32.389  12.552
51702W        W23428  27.046  25.617  11.887
51703W        W23429  15.115  21.020   1.984
51704W        W23430   1.236  11.696  14.831
51705W        W23431  25.153  24.748  12.486
51706W        W23432  27.126  23.552  10.687
51707W        W23433  37.900  20.346   4.298
51708W        W23434  44.879  34.537   1.702
51709W        W23435  14.738  38.875   3.391
51710W        W23436  44.457  43.953  12.935
51711W        W23437  34.870  14.252  12.906
51712W        W23438  12.683  43.495  14.884
51713W        W23439  17.614  13.112  11.561
51714W        W23440  13.737   4.771  12.753
51715W        W23441  22.654  14.361  10.770
51716W        W23442  24.089  44.938   0.219
51717W        W23443  20.168   4.697  11.608
51718W        W23444  39.772  19.788   1.385
51719W        W23445   9.675  33.950   0.442
51720W        W23446  39.526  11.707   0.951
51721W        W23447  35.082  22.717   3.699
51722W        W23448   7.372  29.226   3.285
51723W        W23449   3.289   6.347  14.706
51724W        W23450  22.292  21.107   1.236
51725W        W23451  43.971  26.938   0.904
51726W        W23452  18.212  44.444   1.241
51727W        W23453   5.408   2.177   4.538
51728W        W23454  30.875  42.381   4.967
51729W        W23455  20.798  18.448  11.683
51730W        W23456  11.240  19.651   4.437
51731W        W23457  35.128  34.134   3.847
51732W        W23458  12.996  13.649   4.051
51733W        W23459  21.601  14.066   3.381
51734W        W23460   6.314  42.267   0.904
51735W        W23461  22.559  41.527  14.961
51736W        W23462   0.611  19.739   2.682
51737W        W23463  39.069  40.303   2.300
51738W        W23464  22.047  15.034   4.094
51739W        W23465  37.902   5.725   4.470
51740W        W23466   2.020   5.339  10.986
51741W        W23467   1.120   4.581  13.216
51742W        W23468  42.461  22.991  12.434
51743W        W23469  11.352  35.536   3.268
51744W        W23470  16.031  26.192  12.415
51745W        W23471  39.431  40.964   1.216
51746W        W23472  24.052   2.730   3.751
51747W        W23473  42.807  15.084   3.205
51748W        W23474   4.306  14.336   1.683
51749W        W23475  42.239  22.529  12.396
51750W        W23476  34.646  43.084  11.510
51751W        W23477  35.556   2.659   4.682
51752W        W23478  18.659   7.420  10.783
51753W        W23479  38.544   8.603   3.670
51754W        W23480  40.442  37.258  13.153
51755W        W23481  44.446  38.167   1.840
51756W        W23482  44.411  17.619   1.726
51757W        W23483  38.022   5.349  11.902
51758W        W23484  30.994  42.613   0.413
51759W        W23485  10.822   9.287  12.184
51760W        W23486  44.993  26.937  13.120
51761W        W23487  29.913   7.931   2.327
51762W        W23488  29.073  20.918   4.134
51763W        W23489  25.740  13.925  14.360
51764W        W23490  26.412   4.846   3.777
51765W        W23491  19.724  36.964  14.083
51766W        W23492  16.795  23.070   0.009
51767W        W23493   7.224  22.505  11.944
51768W        W23494  39.863   7.361   1.587
51769W        W23495   5.943  44.781  11.298
51770W        W23496   9.232  10.155  14.081
51771W        W23497  18.612  33.104   4.896
51772W        W23498   4.002  39.967   1.234
51773W        W23499  33.519  27.548  12.466
51774W        W23500  30.591  22.535  11.721
51775W        W23501  18.279  35.818  13.562
51776W        W23502  26.527  43.425  12.684
51777W        W23503  41.453  26.982   0.451
51778W        W23504  14.848  19.730   2.696
51779W        W23505  12.077   7.195  11.847
51780W        W23506  23.433  33.314  13.123
51781W        W23507  44.891  44.372  13.639
51782W        W23508  42.563  35.525   4.134
51783W        W23509   9.156  12.591  10.513
51784W        W23510   7.783   5.335  11.030
51785W        W23511  26.592  33.308  12.510
51786W        W23512   5.718  22.593   0.987
51787W        W23513   0.035  32.639   2.805
51788W        W23514  18.714   1.452  10.871
51789W        W23515  31.212  22.106   2.411
51790W        W23516  22.014  20.656  10.654
51791W        W23517  43.452  25.727   1.367
51792W        W23518  19.188  20.267  12.423
51793W        W23519   9.558   4.977  10.774
51794W        W23520  18.802  44.914   9.567
51795W        W23521  43.980  36.834   4.320
51796W        W23522  34.987  34.181  13.944
51797W        W23523  42.403  34.217   2.325
51798W        W23524  27.229  21.748  12.120
51799W        W23525  30.273  19.099  11.104
51800W        W23526  25.752  39.387   3.087
51801W        W23527  29.455  34.467  12.920
51802W        W23528  33.333  33.320  12.420
51803W        W23529  32.120  35.858  13.342
51804W        W23530  35.100  21.042   2.235
51805W        W23531  11.920   0.321  12.034
51806W        W23532  38.315  34.189   0.058
51807W        W23533  13.222  27.071   0.487
51808W        W23534  29.645  14.876   4.646
51809W        W23535  19.058  11.730   0.876
51810W        W23536  35.661  21.973  13.977
51811W        W23537  34.167   1.261   4.201
51812W        W23538  44.281  32.422  14.777
51813W        W23539  36.281  23.070   3.752
51814W        W23540  21.289   5.769  12.568
51815W        W23541  38.353  17.013  12.077
51816W        W23542  39.910  17.631   0.291
51817W        W23543  36.992   4.158  12.051
51818W        W23544  20.567   1.000  10.702
51819W        W23545  17.089  11.845  13.480
51820W        W23546  24.930  28.714  11.967
51821W        W23547  20.176  11.653   1.841
51822W        W23548  15.846  36.090  12.080
51823W        W23549  44.440  23.185   4.598
51824W        W23550   0.240  15.802   4.047
51825W        W23551   1.743  40.390   1.281
51826W        W23552  35.372  28.924   3.726
51827W        W23553  24.513  25.927  14.632
51828W        W23554  43.380  16.708   3.616
51829W        W23555  40.982  23.768  12.936
51830W        W23556  22.173   7.374  13.465
51831W        W23557  44.994  20.183  14.249
51832W        W23558  23.593  33.233  11.585
51833W        W23559  40.722  11.057  12.019
51834W        W23560  28.622  11.673   3.589
51835W        W23561  26.203  23.881   1.939
51836W        W23562  36.288  33.221   3.658
51837W        W23563  16.174  21.692  14.905
51838W        W23564  37.294  15.726   2.379
51839W        W23565   3.668   9.250  11.468
51840W        W23566  11.464  26.477  14.270
51841W        W23567  16.203  27.142  11.002
51842W        W23568  36.786  13.859  11.944
51843W        W23569  41.389  21.065  12.851
51844W        W23570  41.389  40.526   4.946
51845W        W23571  34.069  32.844  12.542
51846W        W23572  27.587  24.132   0.285
51847W        W23573  33.073  30.733  11.158
51848W        W23574  21.372  42.952  10.268
51849W        W23575  43.029   7.347   3.157
51850W        W23576  11.253  35.440   1.728
51851W        W23577  21.704  30.590   0.865
51852W        W23578  18.228  43.295   3.439
51853W        W23579  19.151  25.984  12.172
51854W        W23580  27.967   8.023   4.024
51855W        W23581  41.380   7.368  14.489
51856W        W23582  35.521  21.230   0.255
51857W        W23583   2.523  36.115   2.375
51858W        W23584  16.706  44.852   3.274
51859W        W23585  43.530  18.478   1.293
51860W        W23586  31.022  35.590  12.057
51861W        W23587  29.474   5.839   4.247
51862W        W23588  17.081  23.200   1.337
51863W        W23589  35.687   1.371  11.423
51864W        W23590  13.597  14.670   0.822
51865W        W23591  16.072  34.384   2.336
51866W        W23592  20.998  18.454  12.160
51867W        W23593  18.474  18.694   0.307
51868W        W23594  26.173  37.965  14.409
51869W        W23595  10.271  31.124  12.917
51870W        W23596  38.984  26.195  14.323
51871W        W23597  16.031  38.905  14.850
51872W        W23598  10.365  19.978  10.361
51873W        W23599  10.102  44.035  12.521
51874W        W23600   1.123  31.129   4.117
51875W        W23601  20.212  44.227  13.130
51876W        W23602   3.323  40.918   3.109
51877W        W23603   9.342   7.029   2.925
51878W        W23604  28.252   6.109  14.921
51879W        W23605  15.260  22.034  10.716
51880W        W23606  27.402  36.478   0.680
51881W        W23607  35.570  15.616   4.545
51882W        W23608   6.386  43.460  13.002
51883W        W23609  41.036  17.098  12.013
51884W        W23610  28.580  39.148   3.760
51885W        W23611  15.370  27.328  13.943
51886W        W23612  38.941  33.102   4.582
51887W        W23613  19.278  17.602   1.405
51888W        W23614  24.578  33.618  13.863
51889W        W23615  24.366  16.802  13.091
51890W        W23616  37.615  37.442   3.267
51891W        W23617  38.124  44.002  11.499
51892W        W23618  16.192   7.809   3.068
51893W        W23619  29.108  37.740   2.244
51894W        W23620   1.962  23.715   3.700
51895W        W23621  27.689  36.125   4.603
51896W        W23622  30.634  18.920   0.307
51897W        W23623  25.947  26.429   1.345
51898W        W23624  26.311  27.255  12.934
51899W        W23625  24.605  19.747  10.723
51900W        W23626  29.563   7.102   4.817
51901W        W23627  30.887  33.520  13.823
51902W        W23628  41.104  17.609  13.028
51903W        W23629  13.796  32.453   4.125
51904W        W23630   6.168   3.441  12.971
51905W        W23631  42.892   4.538   2.407
51906W        W23632  38.133  29.114   4.617
51907W        W23633  40.342   6.173   4.172
51908W        W23634   0.394  40.431  14.779
51909W        W23635   8.842  17.868  11.176
51910W        W23636  34.344  11.254   2.056
51911W        W23637  41.162  27.079  12.020
51912W        W23638  21.376  39.518  10.469
51913W        W23639  19.862  26.948   0.819
51914W        W23640  34.563  14.584  13.361
51915W        W23641  31.652  26.952   0.783
51916W        W23642   0.049  44.839  13.858
51917W        W23643   2.695   1.947  12.159
51918W        W23644  19.290  13.409   2.574
51919W        W23645  34.301   9.380  13.110
51920W        W23646  26.093   8.158   1.361
51921W        W23647  15.378   9.290  12.710
51922W        W23648  15.717  27.300   2.512
51923W        W23649  39.245  36.243   1.254
51924W        W23650  22.963  32.068  13.983
51925W        W23651  15.552   5.282  10.986
51926W        W23652  32.172  37.083   2.146
51927W        W23653  27.580  27.469  12.072
51928W        W23654  26.116  35.962  11.099
51929W        W23655  13.018  28.134  10.728
51930W        W23656   9.452  35.883  11.081
51931W        W23657  20.712   1.354  12.931
51932W        W23658  11.921  23.121   3.351
51933W        W23659  17.009  15.304  12.500
51934W        W23660  40.301  31.423  13.164
51935W        W23661  26.744   6.000  11.494
51936W        W23662   8.135  17.250  10.782
51937W        W23663   7.861  44.861  14.322
51938W        W23664  22.962  16.165   3.830
51939W        W23665  18.041  11.856   3.723
51940W        W23666  14.887   1.480   1.812
51941W        W23667  37.674   9.210   9.938
51942W        W23668  14.332  12.784   2.194
51943W        W23669  31.137  20.737  12.916
51944W        W23670  14.038  17.060  12.408
51945W        W23671  33.140  25.557  10.300
51946W        W23672  11.765  40.921   4.116
51947W        W23673  44.391  19.082  10.502
51948W        W23674  35.642  19.180  11.637
51949W        W23675  27.493   9.680   4.547
51950W        W23676  29.162  13.143  12.067
51951W        W23677  19.117  14.273   3.817
51952W        W23678  20.795  38.498   2.418
51953W        W23679  39.630  43.083  14.303
51954W        W23680   1.809  20.547  12.605
51955W        W23681  40.576  42.136  11.073
51956W        W23682  21.036  34.408   4.692
51957W        W23683  36.648  32.424   4.418
51958W        W23684  31.255   6.185  14.892
51959W        W23685  40.398  35.051   4.597
51960W        W23686  24.272  40.343  12.840
51961W        W23687  24.077  14.307   4.516
51962W        W23688  42.885  29.780   1.275
51963W        W23689  17.567  36.129   3.125
51964W        W23690  23.018  24.958  14.354
51965W        W23691  30.443  38.444   3.839
51966W        W23692  31.201   2.731  12.028
51967W        W23693  24.978  24.221  11.239
51968W        W23694  29.280  21.131   1.398
51969W        W23695  15.317  18.350  12.844
51970W        W23696   1.959  17.725   3.460
51971W        W23697  25.089  24.978  12.968
51972W        W23698  17.252  37.565   4.538
51973W        W23699   2.306   4.970   2.841
51974W        W23700  38.857  44.533  14.290
51975W        W23701   4.749  41.076   1.869
51976W        W23702   1.337  28.681  12.100
51977W        W23703  40.299  41.414  13.894
51978W        W23704   3.384  10.837  14.334
51979W        W23705  21.338  39.952   2.019
51980W        W23706  29.150  44.122   0.548
51981W        W23707  32.494  12.485   3.186
51982W        W23708  10.916  25.125  13.752
51983W        W23709  23.941  11.699   4.047
51984W        W23710   7.140   1.693   4.530
51985W        W23711  24.931  37.965   4.230
51986W        W23712  18.544  39.125   3.662
51987W        W23713  10.301  16.820  12.869
51988W        W23714  38.311  14.586  10.650
51989W        W23715  26.901  28.399  11.003
51990W        W23716  13.337   8.861   0.975
51991W        W23717   2.804   1.902   0.959
51992W        W23718  23.626  41.599  10.452
51993W        W23719  35.868   6.918  14.953
51994W        W23720  10.035   1.267   4.832
51995W        W23721  19.816   6.375   4.668
51996W        W23722  19.245  30.411  12.374
51997W        W23723  22.808  36.484   2.857
51998W        W23724  31.333  35.277  11.426
51999W        W23725  42.953   7.607   3.594
52000W        W23726  37.045  23.764   2.661
52001W        W23727  12.273  22.131  10.671
52002W        W23728   6.716  34.206  12.537
52003W        W23729   1.760  32.410  13.864
52004W        W23730   9.852  25.655   5.107
52005W        W23731  16.103  34.947   1.395
52006W        W23732  20.287  29.704   3.243
52007W        W23733  17.179   6.387   2.849
52008W        W23734  29.556  44.173   0.869
52009W        W23735  13.337  35.335   4.687
52010W        W23736   8.234  28.925  11.325
52011W        W23737  33.511  11.951   0.008
52012W        W23738   4.875  13.581   4.153
52013W        W23739   2.890  44.502  12.162
52014W        W23740   8.455  32.807  11.975
52015W        W23741  12.604   2.762   0.902
52016W        W23742  19.232  37.963  13.060
52017W        W23743  24.120  36.364  11.453
52018W        W23744   2.601  30.280   2.253
52019W        W23745  12.823  15.235  14.549
52020W        W23746   5.874  43.544   1.276
52021W        W23747   4.892  26.044  12.509
52022W        W23748   6.262  22.955   0.389
52023W        W23749  40.138   2.200   1.399
52024W        W23750   8.659  14.586   3.259
52025W        W23751  42.446   4.108   3.226
52026W        W23752  38.458  44.326  11.703
52027W        W23753  16.602   9.357  11.858
52028W        W23754  32.652  38.256   1.365
52029W        W23755  18.096  36.522  13.779
52030W        W23756  10.700   2.489  13.080
52031W        W23757  42.406  37.005   1.993
52032W        W23758  10.211  39.038  13.007
52033W        W23759   7.173   7.483  12.337
52034W        W23760  15.898  44.803   1.784
52035W        W23761  39.870  20.087  13.024
52036W        W23762  11.367  21.734   2.884
52037W        W23763  38.898  41.273   2.275
52038W        W23764  35.179  40.926  11.531
52039W        W23765   5.888   2.033  14.384
52040W        W23766   1.928  19.139   4.945
52041W        W23767  31.409  21.305   4.175
52042W        W23768  28.886  23.866   0.819
52043W        W23769  18.672  21.189   5.126
52044W        W23770   2.257  30.496   1.494
52045W        W23771  12.860  23.585   4.186
52046W        W23772  23.632  25.067   2.810
52047W        W23773   9.445  10.638  13.969
52048W        W23774  13.762   1.529   2.961
52049W        W23775  32.994  26.953  11.079
52050W        W23776  17.789  26.704   0.398
52051W        W23777  10.755   0.442  12.848
52052W        W23778  35.056  41.427  14.278
52053W        W23779  19.272   5.312   1.747
52054W        W23780  22.730  32.061   0.540
52055W        W23781  10.402   8.691  12.386
52056W        W23782  41.808  41.071  14.877
52057W        W23783  32.879  24.005  13.093
52058W        W23784  22.970   4.209   2.705
52059W        W23785   8.734  18.569   4.933
52060W        W23786  26.555  41.818   3.830
52061W        W23787  30.359  24.716   2.425
52062W        W23788   9.667   8.181   4.350
52063W        W23789  33.467  36.896   0.264
52064W        W23790  18.627  16.875   5.048
52065W        W23791   5.020   0.855   1.441
52066W        W23792   6.882  43.556   0.400
52067W        W23793   8.811  30.237   0.768
52068W        W23794  33.536  27.560   1.534
52069W        W23795  15.572   6.406  13.772
52070W        W23796  15.119  10.654  13.870
52071W        W23797  33.613  12.124   3.195
52072W        W23798  38.457   3.910   3.635
52073W        W23799  25.990   9.930   2.826
52074W        W23800  18.533   0.904  13.655
52075W        W23801  11.950  13.058   5.209
52076W        W23802   0.539  17.912  12.442
52077W        W23803  28.119  18.527   3.597
52078W        W23804  18.258  34.950  13.432
52079W        W23805  17.227   1.261  14.987
52080W        W23806  21.047  41.857   0.924
52081W        W23807  34.606  17.061   5.062
52082W        W23808   2.708  32.079   4.175
52083W        W23809  29.631  10.125   3.603
52084W        W23810   8.270  36.108   3.701
52085W        W23811  29.445   6.944   0.453
52086W        W23812  36.040   3.684   0.885
52087W        W23813   7.187  23.020  12.014
52088W        W23814  13.312  37.570   4.755
52089W        W23815  24.597  16.150   2.850
52090W        W23816  14.061  20.488   4.616
52091W        W23817   6.226  19.297  12.902
52092W        W23818  39.297  12.453   3.620
52093W        W23819  38.507  22.194  11.386
52094W        W23820  14.124  43.385   0.421
52095W        W23821  29.170  18.986  11.144
52096W        W23822  32.960   9.844   1.234
52097W        W23823  35.022   5.318   0.317
52098W        W23824  22.347  18.395  12.436
52099W        W23825  10.079   0.256   3.224
52100W        W23826  25.564  39.941  11.704
52101W        W23827  10.855   6.893  13.613
52102W        W23828  18.255  28.831   3.187
52103W        W23829  23.334  30.572   2.628
52104W        W23830   8.756   3.437  10.876
52105W        W23831  35.967  10.904   0.502
52106W        W23832   2.926  37.107  13.565
52107W        W23833  27.399  20.554   1.047
52108W        W23834  21.263  23.276  12.231
52109W        W23835   0.818  31.114  14.058
52110W        W23836  39.519  17.777  11.065
52111W        W23837  34.370   6.682  10.616
52112W        W23838  28.597   2.292   2.835
52113W        W23839   8.303  33.841  10.822
52114W        W23840  39.958  30.968  14.884
52115W        W23841  14.405   9.957  12.495
52116W        W23842  41.252  10.647  12.927
52117W        W23843  22.471  23.167   3.000
52118W        W23844  40.554  15.259  12.925
52119W        W23845   5.146  20.529   1.230
52120W        W23846  42.883  26.238   3.341
52121W        W23847  10.128  39.259  12.510
52122W        W23848  40.225   7.738   0.102
52123W        W23849  11.637   0.720  12.307
52124W        W23850  43.368  22.100  11.115
52125W        W23851   9.373  41.581  10.338
52126W        W23852  39.169  43.448   0.799
52127W        W23853   5.266   3.872  11.673
52128W        W23854   0.500  15.036  13.220
52129W        W23855  30.099  12.788   2.766
52130W        W23856   2.711  41.332   0.416
52131W        W23857  39.158  18.164   3.614
52132W        W23858  26.616  20.339   0.050
52133W        W23859  17.197   1.335  14.069
52134W        W23860  22.725  25.553   4.900
52135W        W23861  32.362  35.356  11.617
52136W        W23862  30.231  10.322   0.224
52137W        W23863  32.626  25.528   2.875
52138W        W23864  22.230  21.662  13.118
52139W        W23865  37.953  13.684  12.561
52140W        W23866  42.413  40.889  11.375
52141W        W23867  29.411  25.183   2.560
52142W        W23868  36.241   6.386  13.324
52143W        W23869   7.332  43.873   1.999
52144W        W23870   1.188  44.302   2.202
52145W        W23871  23.542  30.831   4.405
52146W        W23872  11.651  44.805   0.836
52147W        W23873  16.046   9.345   0.738
52148W        W23874  12.779  13.185   4.664
52149W        W23875  41.946  14.671  13.606
52150W        W23876  15.128  21.955   2.868
52151W        W23877  32.871  38.198   0.744
52152W        W23878  17.027  29.108  11.979
52153W        W23879  12.781   2.939  11.969
52154W        W23880  19.776   0.429  13.435
52155W        W23881  24.620  22.957   2.402
52156W        W23882  25.838  35.068  10.160
52157W        W23883  36.859  44.100  12.456
52158W        W23884  40.291  16.965   1.441
52159W        W23885  19.136  19.066  13.045
52160W        W23886   1.699   1.178  11.435
52161W        W23887  33.497   5.302  11.403
52162W        W23888   5.299  38.943  11.854
52163W        W23889  40.796  11.803   2.259
52164W        W23890  32.441  10.309  11.976
52165W        W23891  15.228   4.770   0.378
52166W        W23892  18.854  44.284   5.010
52167W        W23893  21.568  26.651   1.591
52168W        W23894  15.121  44.636  10.526
52169W        W23895   9.173  24.201   2.914
52170W        W23896  16.567  24.698  14.037
52171W        W23897  19.808  22.003   4.175
52172W        W23898  34.687   3.278   0.923
52173W        W23899  25.207   7.299   3.342
52174W        W23900   9.447   8.218   2.372
52175W        W23901  31.306   5.485  14.487
52176W        W23902  22.990  37.468  10.970
52177W        W23903  32.507  38.150  10.519
52178W        W23904  14.610  26.230   0.377
52179W        W23905   8.865  20.549   4.547
52180W        W23906  38.438   4.358   3.902
52181W        W23907  19.491  28.631  12.552
52182W        W23908  44.013  40.099   2.747
52183W        W23909   1.238  40.303   1.360
52184W        W23910  23.985  16.611  12.287
52185W        W23911  18.117  10.904   0.848
52186W        W23912  12.179  44.841   1.840
52187W        W23913  32.731  43.587   4.726
52188W        W23914  24.768   1.727   3.612
52189W        W23915   0.718  14.852  12.405
52190W        W23916  41.429  13.120   1.253
52191W        W23917  14.828  21.317  12.670
52192W        W23918   5.704  41.987  14.037
52193W        W23919   7.581  40.585   2.197
52194W        W23920  31.722  16.554   3.613
52195W        W23921   5.417  11.437   0.476
52196W        W23922  36.308  12.256  14.241
52197W        W23923  23.967  20.683   2.671
52198W        W23924  12.924  44.363   5.103
52199W        W23925  41.553   0.727  11.238
52200W        W23926   5.198  41.261   4.543
52201W        W23927  44.357   5.053   4.557
52202W        W23928   2.977  43.344   4.064
52203W        W23929  31.175  18.023  12.924
52204W        W23930   9.587   2.879   2.827
52205W        W23931  34.990  38.792  13.372
52206W        W23932  18.715  30.482   4.653
52207W        W23933  29.081  33.426  12.345
52208W        W23934  37.584  42.576   2.284
52209W        W23935   2.235  36.152  13.756
52210W        W23936  23.448  42.534   4.529
52211W        W23937   6.262  20.531  13.048
52212W        W23938  40.960   8.300  11.604
52213W        W23939  39.015  33.906  12.667
52214W        W23940   4.897   8.198   1.371
52215W        W23941   9.762  28.505  13.180
52216W        W23942  36.059  36.799  14.758
52217W        W23943  43.415  12.816  14.366
52218W        W23944  27.103  17.737   1.355
52219W        W23945   4.297   9.930   1.531
52220W        W23946   1.733  38.145  14.971
52221W        W23947  44.290  12.169   2.957
52222W        W23948  38.267   9.880   3.095
52223W        W23949  44.765  39.972   4.806
52224W        W23950  33.335  14.811   2.326
52225W        W23951   8.970  30.581   5.054
52226W        W23952   6.461  40.903  13.820
52227W        W23953  29.711   6.465  13.345
52228W        W23954  24.879  11.373  14.473
52229W        W23955  30.432   7.882   2.323
52230W        W23956  37.913  33.772  12.434
52231W        W23957  19.989  25.059  12.655
52232W        W23958  35.525  20.416   3.254
52233W        W23959  35.667   9.774  12.930
52234W        W23960   3.915  22.676  14.010
52235W        W23961  29.001  26.603  10.023
52236W        W23962  10.713  35.087   5.169
52237W        W23963  15.645  42.675  11.952
52238W        W23964  30.939  37.921   1.830
52239W        W23965   8.796   6.105   0.484
52240W        W23966   5.692  32.026  12.944
52241W        W23967  42.768   7.198  11.146
52242W        W23968  10.655   5.892  14.187
52243W        W23969  31.860  29.983  10.659
52244W        W23970  24.214  32.252   1.849
52245W        W23971   7.865  23.377   4.197
52246W        W23972  13.372   1.258   4.282
52247W        W23973  39.304   6.964  11.275
52248W        W23974  20.677  17.530   2.109
52249W        W23975  20.111   9.620   2.580
52250W        W23976  32.068  31.648   2.121
52251W        W23977  33.462  44.533   3.814
52252W        W23978  15.270  12.117  10.769
52253W        W23979  43.929  27.234  10.516
52254W        W23980  44.503   9.328  11.579
52255W        W23981   3.985  44.991  12.008
52256W        W23982  38.505   7.449  14.716
52257W        W23983   4.254   5.154   5.162
52258W        W23984  10.629  11.703  10.531
52259W        W23985  37.513  38.644  10.824
52260W        W23986   2.395  18.553  11.536
52261W        W23987  44.316  32.812   0.119
52262W        W23988  25.391  34.863   3.830
52263W        W23989  30.594  35.587  14.525
52264W        W23990   4.083  35.456  11.863
52265W        W23991  41.210   9.639   4.368
52266W        W23992  27.001   3.777  14.872
52267W        W23993  16.367  17.837  11.810
52268W        W23994   9.265  39.764  14.521
52269W        W23995   1.289  38.837   2.694
52270W        W23996  15.376  44.740   4.615
52271W        W23997  11.682  33.961  10.222
52272W        W23998   5.871  41.359  12.764
52273W        W23999  14.986  23.640  11.540
52274W        W24000  38.834  24.625   1.657
52275W        W24001   7.631  28.876  12.498
52276W        W24002  19.680   2.638  12.082
52277W        W24003   9.828  13.152  10.396
52278W        W24004  12.830   2.269   1.781
52279W        W24005  28.055  15.473  10.589
52280W        W24006  22.526  29.424  11.603
52281W        W24007  13.163   0.531   3.876
52282W        W24008  40.558  31.580  14.165
52283W        W24009  38.219  23.467   2.129
52284W        W24010  25.907   8.213  11.943
52285W        W24011  13.295  22.598   3.843
52286W        W24012  19.435  11.077   1.439
52287W        W24013  33.226  28.181   5.095
52288W        W24014  17.640  43.037  12.515
52289W        W24015  24.083  21.967   3.070
52290W        W24016  29.576   9.425  10.675
52291W        W24017  41.393  33.560   4.567
52292W        W24018  23.938  28.048  13.838
52293W        W24019  40.930   2.439  12.453
52294W        W24020  28.116  23.242   2.800
52295W        W24021  27.473   9.146   0.427
52296W        W24022  26.434  22.712  10.746
52297W        W24023  37.971  14.523  11.427
52298W        W24024  37.100   4.252   3.243
52299W        W24025  32.680  31.071  13.428
52300W        W24026  13.700  10.688  12.617
52301W        W24027  22.501   9.813   0.186
52302W        W24028  22.943  33.427   0.519
52303W        W24029   9.690  32.008   4.111
52304W        W24030  32.665  23.065  10.996
52305W        W24031   7.329  10.283   2.741
52306W        W24032  28.420  41.479   4.676
52307W        W24033  27.693   0.164  11.153
52308W        W24034  20.800  30.995   4.124
52309W        W24035  31.362  26.207   1.268
52310W        W24036  13.842  30.428   0.330
52311W        W24037  12.003  43.313   1.264
52312W        W24038  17.986  24.666   5.099
52313W        W24039  11.693  15.748   1.502
52314W        W24040  15.846   5.547  11.351
52315W        W24041  23.439  30.274   1.805
52316W        W24042  30.001  27.923  12.547
52317W        W24043  23.012  11.303  12.041
52318W        W24044   8.050  39.811  11.563
52319W        W24045  28.329  17.879  11.443
52320W        W24046  29.535  24.629  10.642
52321W        W24047  34.494  40.535  13.758
52322W        W24048  16.047  43.544   4.126
52323W        W24049  30.612  37.885   2.213
52324W        W24050  15.694  10.287   3.785
52325W        W24051  16.581   2.322  11.619
52326W        W24052   4.135  43.974  11.020
52327W        W24053   3.538  44.004   2.349
52328W        W24054  12.208  30.160  10.929
52329W        W24055  17.963  32.912   3.567
52330W        W24056  39.399  44.459   4.248
52331W        W24057  22.560  16.186  10.733
52332W        W24058   2.315   9.392  11.100
52333W        W24059  25.466   7.489   4.664
52334W        W24060  35.426  15.988   0.963
52335W        W24061  33.184  41.421   0.866
52336W        W24062  17.850  31.101  13.760
52337W        W24063   8.608   3.915  13.854
52338W        W24064  43.981   5.492   3.418
52339W        W24065  41.532  37.304   0.400
52340W        W24066  30.580  38.321   1.916
52341W        W24067  22.099  19.738   0.444
52342W        W24068  14.840  25.027   2.190
52343W        W24069  34.869  14.538  10.718
52344W        W24070   1.373  34.547   1.398
52345W        W24071  41.601  20.084   0.691
52346W        W24072   7.189  42.556   2.750
52347W        W24073   7.821  42.508   4.564
52348W        W24074  17.608   3.403   0.268
52349W        W24075  13.201   8.269   1.299
52350W        W24076  32.019  39.028   2.667
52351W        W24077  38.354  13.657  14.306
52352W        W24078  10.378  14.093   4.913
52353W        W24079  29.601  32.926  14.913
52354W        W24080  16.038   5.045   4.300
52355W        W24081   1.885  44.309  12.948
52356W        W24082   6.281  22.532  13.885
52357W        W24083  14.743  10.076  12.911
52358W        W24084  26.132  26.987   4.587
52359W        W24085   0.427  41.725   4.463
52360W        W24086  12.797   1.728   3.974
52361W        W24087  15.693  30.522   0.356
52362W        W24088  32.704  33.590  11.645
52363W        W24089  23.709   4.940   0.293
52364W        W24090  39.348  23.233  12.026
52365W        W24091  30.114  26.095  14.527
52366W        W24092  33.905  36.558  11.543
52367W        W24093  39.914  22.395  10.416
52368W        W24094   1.497  43.419  11.106
52369W        W24095  24.301  27.960   5.126
52370W        W24096  11.646  11.354  11.891
52371W        W24097  28.886  14.289  13.285
52372W        W24098  10.885  17.670  14.881
52373W        W24099   4.211  42.626  13.405
52374W        W24100  10.496  36.537  13.687
52375W        W24101  14.064  31.120   1.385
52376W        W24102  38.352   7.615   4.223
52377W        W24103  40.845  42.745  11.824
52378W        W24104   9.359  30.681  12.071
52379W        W24105   1.248  27.568   0.397
52380W        W24106  25.107  43.517   2.388
52381W        W24107  21.611  14.138  13.769
52382W        W24108   1.265   5.417  14.377
52383W        W24109   0.662  14.793   2.319
52384W        W24110  42.398  26.493   4.370
52385W        W24111  27.487  18.629   4.836
52386W        W24112  13.041   7.374  14.394
52387W        W24113  34.506  24.841  11.450
52388W        W24114   1.379  34.422  12.104
52389W        W24115  24.841  14.281   3.512
52390W        W24116  19.809   0.573   1.361
52391W        W24117   7.466   5.215   1.729
52392W        W24118   2.499  14.610   2.659
52393W        W24119  26.998  27.491  10.759
52394W        W24120  18.277  15.151  12.955
52395W        W24121  35.074  27.207  14.461
52396W        W24122   6.579   4.040  10.703
52397W        W24123  20.091  22.297  11.511
52398W        W24124  14.080  33.605   4.741
52399W        W24125   3.460  24.884  13.572
52400W        W24126  17.503  34.573   4.298
52401W        W24127  17.148  32.652  10.622
52402W        W24128   4.922  30.582  13.984
52403W        W24129  39.346  21.579  13.937
52404W        W24130   2.369  33.448  13.519
52405W        W24131  27.133   7.723   0.085
52406W        W24132   7.469  39.111   4.196
52407W        W24133   3.143  42.344   2.001
52408W        W24134  28.218   0.463  12.968
52409W        W24135  37.546  34.825  13.870
52410W        W24136  39.310  15.845  13.512
52411W        W24137  19.321  13.322  13.485
52412W        W24138  39.370  35.421  12.875
52413W        W24139  22.642  35.887  10.447
52414W        W24140  18.313  25.899  13.422
52415W        W24141  28.065  30.054  10.266
52416W        W24142  15.619  41.273   1.320
52417W        W24143   1.865  27.979  10.427
52418W        W24144   0.595  17.763  13.479
52419W        W24145   3.528  38.617  11.968
52420W        W24146  12.119  20.278  13.439
52421W        W24147   1.005  20.966   4.278
52422W        W24148  12.861  31.881   4.232
52423W        W24149  13.853   9.667  13.310
52424W        W24150   8.591  30.619  12.566
52425W        W24151   1.984  38.872   4.140
52426W        W24152  11.057   0.542  11.129
52427W        W24153  10.887  34.492  11.002
52428W        W24154  34.584  10.739  10.620
52429W        W24155   5.444  30.489   5.046
52430W        W24156  25.062   4.341   1.330
52431W        W24157   2.579  25.923  14.469
52432W        W24158  14.678  18.171   4.226
52433W        W24159  11.988  32.091  13.117
52434W        W24160  29.556   4.917   1.853
52435W        W24161  28.031  41.502   1.354
52436W        W24162  42.931  36.617  14.883
52437W        W24163  34.860  34.475  13.013
52438W        W24164   9.162  10.434  11.974
52439W        W24165  34.986   7.736   0.948
52440W        W24166  25.644  24.991  12.410
52441W        W24167   3.410  18.901   3.085
52442W        W24168  17.135   6.484  14.349
52443W        W24169  34.385   7.681   4.351
52444W        W24170  21.490  42.489  10.474
52445W        W24171  14.291  40.512  12.854
52446W        W24172  18.303  44.706  11.164
52447W        W24173   1.398  16.658   1.235
52448W        W24174   9.834  25.635  11.078
52449W        W24175  43.866  17.812  10.706
52450W        W24176  17.322   4.171  12.012
52451W        W24177  43.140  38.781   1.774
52452W        W24178  39.546  32.686  14.923
52453W        W24179  41.881   6.174  14.267
52454W        W24180  24.694  44.896  11.930
52455W        W24181  11.899   4.914  12.551
52456W        W24182  15.843  31.957  12.946
52457W        W24183   2.286  27.695  11.113
52458W        W24184   0.160  18.805   1.327
52459W        W24185  12.890  11.183  12.454
52460W        W24186   7.893  27.602  11.617
52461W        W24187  34.596  21.105   2.195
52462W        W24188  17.782  33.621   4.048
52463W        W24189  43.587  41.647   2.071
52464W        W24190  21.711   9.366   0.399
52465W        W24191  38.543  41.285   4.075
52466W        W24192  33.637  43.491  14.695
52467W        W24193  17.568   5.201  14.343
52468W        W24194   0.895  20.202  12.003
52469W        W24195  26.657  44.681   2.228
52470W        W24196  42.264   3.618   3.143
52471W        W24197  21.492  33.196   1.829
52472W        W24198   4.749  34.138   1.602
52473W        W24199   5.753  37.766  12.813
52474W        W24200   3.331  16.019   4.093
52475W        W24201  22.579  13.337   4.045
52476W        W24202   5.235   4.042   5.334
52477W        W24203  37.134  13.315  13.505
52478W        W24204  21.574  24.218  12.525
52479W        W24205   7.237  27.549   1.243
52480W        W24206  34.366  44.199  14.803
52481W        W24207  24.559  43.770  11.667
52482W        W24208  27.486  26.036   2.862
52483W        W24209  44.183  44.386  10.684
52484W        W24210  30.472  29.027  10.902
52485W        W24211  33.814  38.389   1.885
52486W        W24212  33.806  21.865   1.812
52487W        W24213  17.702  30.215  10.619
52488W        W24214  26.057  44.977   4.842
52489W        W24215  25.059  15.695  12.600
52490W        W24216  36.432  19.077  12.627
52491W        W24217  39.847   9.352  12.902
52492W        W24218   3.733   7.619   4.312
52493W        W24219  31.076   4.699  13.731
52494W        W24220  32.998  28.439   2.912
52495W        W24221   3.493  31.528   2.247
52496W        W24222   3.381  33.630   1.932
52497W        W24223  19.692  24.967   1.398
52498W        W24224   1.819  38.868  10.474
52499W        W24225  30.653  43.559  13.931
52500W        W24226  10.035  15.427   5.429
52501W        W24227  11.818  24.874   5.054
52502W        W24228  22.101  42.591   4.938
52503W        W24229  38.712  44.867  11.379
52504W        W24230  39.236  19.432   3.756
52505W        W24231  38.357  15.868   3.677
52506W        W24232  37.768  41.083   1.757
52507W        W24233  27.387  39.985  11.901
52508W        W24234   5.182  41.299   2.298
52509W        W24235  37.399  21.392   4.811
52510W        W24236   4.705  37.830   3.926
52511W        W24237  34.141  28.051  11.971
52512W        W24238   0.162  15.402   1.399
52513W        W24239  16.759  44.500   2.721
52514W        W24240  31.977  19.751   3.527
52515W        W24241  13.423  41.550  11.034
52516W        W24242  36.285   9.905   4.176
52517W        W24243  16.491  29.779   3.997
52518W        W24244   0.677  14.312  14.309
52519W        W24245   2.679  42.477   2.887
52520W        W24246   3.741  19.141  14.467
52521W        W24247  10.210  27.713   2.331
52522W        W24248   8.659  44.541  13.587
52523W        W24249  21.101   7.720   3.427
52524W        W24250  43.498   9.965  10.469
52525W        W24251  38.623  38.282   0.607
52526W        W24252   4.431  14.887   2.320
52527W        W24253  25.949  26.323  14.536
52528W        W24254  43.893  21.705  14.241
52529W        W24255  34.969  29.162  10.754
52530W        W24256  16.840  34.418  11.462
52531W        W24257  10.902   6.605   1.333
52532W        W24258  26.394   8.145  11.965
52533W        W24259  28.451  39.670   3.773
52534W        W24260  37.880  39.020  11.969
52535W        W24261  35.802   6.761  12.627
52536W        W24262  33.428   3.539  13.733
52537W        W24263   8.863   9.649   3.024
52538W        W24264  26.852  10.810   3.188
52539W        W24265  25.397   5.404   4.506
52540W        W24266   8.746  21.878   0.046
52541W        W24267  42.803  27.027  11.612
52542W        W24268  15.729  15.015   4.906
52543W        W24269  31.195  30.959  14.444
52544W        W24270  42.570  38.801   2.778
52545W        W24271  39.394  19.631   0.641
52546W        W24272  32.489   4.523   1.449
52547W        W24273   4.701   1.444   3.222
52548W        W24274  31.986  41.900  10.195
52549W        W24275   4.241  21.727  13.622
52550W        W24276  17.235   4.699  11.928
52551W        W24277  37.525   9.854   0.859
52552W        W24278   3.378   1.769   1.208
52553W        W24279  19.116  36.864   3.660
52554W        W24280  29.050   4.794   1.054
52555W        W24281  24.531  35.388  14.997
52556W        W24282   7.416  35.488  14.001
52557W        W24283   1.363   8.785   4.729
52558W        W24284  30.598   0.974   3.818
52559W        W24285   0.023  10.625  11.199
52560W        W24286  24.225  22.203  11.512
52561W        W24287  43.385  30.649   1.642
52562W        W24288  20.067  14.155  11.462
52563W        W24289  24.524  15.390   0.393
52564W        W24290   0.351  38.521   4.321
52565W        W24291  35.856  32.780  13.007
52566W        W24292  12.311  38.445   1.804
52567W        W24293  44.211  34.469   2.643
52568W        W24294   7.499  39.302  14.681
52569W        W24295   4.422  40.577   1.315
52570W        W24296  21.157  37.198   3.349
52571W        W24297  44.425   1.060   2.192
52572W        W24298  38.081  25.053   1.205
52573W        W24299  37.782   5.500  13.104
52574W        W24300  23.034  26.814  12.443
52575W        W24301   1.751   5.291   3.642
52576W        W24302  18.726  36.530  13.486
52577W        W24303   7.988   4.816   2.211
52578W        W24304  22.076  24.960   5.033
52579W        W24305  22.503   9.877   1.690
52580W        W24306   8.939  43.238  11.130
52581W        W24307  11.527   2.423  12.015
52582W        W24308   6.673  14.762  10.661
52583W        W24309  38.048  26.422  12.588
52584W        W24310   8.956  17.280  13.139
52585W        W24311  22.975  41.455   0.825
52586W        W24312  13.032  28.090  12.944
52587W        W24313  43.328   9.841  10.933
52588W        W24314  24.679  40.952  14.529
52589W        W24315  36.329   3.049   2.876
52590W        W24316  26.560  16.342   4.376
52591W        W24317  36.953  13.580  12.796
52592W        W24318  40.241  20.541  13.508
52593W        W24319   1.741  24.447   3.311
52594W        W24320  12.295   2.200   1.868
52595W        W24321  43.078   3.783   5.010
52596W        W24322  42.937  34.852  14.343
52597W        W24323  41.516  13.116   2.437
52598W        W24324  21.496  29.640  11.141
52599W        W24325  15.650  15.493   1.244
52600W        W24326   7.173   1.394  13.291
52601W        W24327  23.539  17.253   3.745
52602W        W24328  33.100  23.567   0.583
52603W        W24329  35.582   3.754  11.494
52604W        W24330  30.712  12.840  11.627
52605W        W24331  20.818  22.400   0.992
52606W        W24332   3.396   2.653  14.110
52607W        W24333   1.203  25.262   0.382
52608W        W24334  10.970  31.969  13.022
52609W        W24335  30.949  14.762  11.690
52610W        W24336  12.344  31.591  13.434
52611W        W24337   6.108  14.202   2.297
52612W        W24338   2.187  25.346   4.814
52613W        W24339  13.539  19.188  12.116
52614W        W24340  12.576  12.887   2.299
52615W        W24341  30.953   4.399  12.439
52616W        W24342   7.401  16.003   5.301
52617W        W24343   7.189  37.382  11.054
52618W        W24344   8.901  24.191   3.357
52619W        W24345  31.774  24.705  13.714
52620W        W24346  14.587  10.075   9.972
52621W        W24347  36.754  29.655   0.334
52622W        W24348  28.146  41.490  12.618
52623W        W24349  31.457  26.230  12.011
52624W        W24350  27.492  19.833   0.401
52625W        W24351  15.294  22.834  14.287
52626W        W24352  36.536  28.556   4.540
52627W        W24353  32.466  43.215  11.126
52628W        W24354   8.905  30.347  10.651
52629W        W24355  14.338  25.293   4.979
52630W        W24356  12.259  24.237  11.464
52631W        W24357  22.616   2.913   0.823
52632W        W24358  32.110  26.522  13.042
52633W        W24359  19.583  22.772   0.336
52634W        W24360  38.934   8.252  13.856
52635W        W24361  13.162  32.523   0.471
52636W        W24362   0.901  15.302  10.711
52637W        W24363  44.832  30.969  11.544
52638W        W24364  16.795  12.827  10.721
52639W        W24365  20.431  31.015  11.067
52640W        W24366  18.759  20.346   2.266
52641W        W24367  30.109   9.400   3.705
52642W        W24368  27.383  15.267   2.106
52643W        W24369  24.373  40.071  10.616
52644W        W24370  43.445  38.947   1.388
52645W        W24371   5.759  42.852  13.445
52646W        W24372  37.325  17.315   4.081
52647W        W24373  18.128  15.419  13.369
52648W        W24374   2.323  28.857  14.004
52649W        W24375   5.147   2.549  13.787
52650W        W24376  23.039  11.604  12.920
52651W        W24377  42.402   8.159   1.431
52652W        W24378  22.115  22.552   3.606
52653W        W24379  25.699  13.382  11.128
52654W        W24380   4.253  25.614   2.646
52655W        W24381  37.205  35.965  12.070
52656W        W24382  39.850   8.479  10.724
52657W        W24383  34.464   1.290  14.894
52658W        W24384  40.302  37.002   1.462
52659W        W24385  38.809  33.356   1.650
52660W        W24386  38.533  13.910  11.515
52661W        W24387  29.218  21.673  14.008
52662W        W24388  43.391  10.086   2.245
52663W        W24389  21.256   1.678   4.879
52664W        W24390  39.758  23.157   2.330
52665W        W24391  24.881  14.757   0.866
52666W        W24392  18.668  32.847   0.876
52667W        W24393  16.158  41.811   3.616
52668W        W24394  11.061  30.807   3.352
52669W        W24395  34.066   5.368   1.736
52670W        W24396  16.584   1.301   2.290
52671W        W24397  32.394  11.085   0.509
52672W        W24398   7.821  21.471  12.492
52673W        W24399  27.639   4.487   1.833
52674W        W24400  35.385  30.368  14.790
52675W        W24401   8.289  25.059   5.486
52676W        W24402  43.214  35.820  14.979
52677W        W24403  44.639  31.214   1.346
52678W        W24404  44.890  44.473  10.169
52679W        W24405  25.170  31.189   2.470
52680W        W24406  15.192  34.628   0.359
52681W        W24407  35.105  19.118  13.009
52682W        W24408  35.924  35.019  10.443
52683W        W24409  23.202  28.438   3.575
52684W        W24410  18.992  19.188   3.490
52685W        W24411  34.385   0.273  11.276
52686W        W24412  28.769  43.341  14.415
52687W        W24413  39.381  37.895   2.128
52688W        W24414  18.288  42.394   3.965
52689W        W24415  30.453  35.152  11.738
52690W        W24416  14.346  10.197  13.548
52691W        W24417  40.878   1.514  11.465
52692W        W24418  40.402  10.416   4.759
52693W        W24419  29.432   7.376   0.168
52694W        W24420  21.433  27.574   0.653
52695W        W24421   7.741  19.757   0.405
52696W        W24422   8.820   7.228   4.717
52697W        W24423   1.217  30.387   3.704
52698W        W24424  41.926  44.295  14.030
52699W        W24425   8.827  31.880   0.037
52700W        W24426   1.325  35.554   2.231
52701W        W24427  37.055  32.207  10.622
52702W        W24428  29.964   7.189   2.779
52703W        W24429  10.741   9.290   1.851
52704W        W24430  28.280  25.741  12.916
52705W        W24431   4.587   3.281  12.899
52706W        W24432  24.096  30.967  13.122
52707W        W24433  40.466  42.827   4.581
52708W        W24434   0.475  12.655   2.818
52709W        W24435   5.768   7.593   0.503
52710W        W24436  11.028  41.297   2.715
52711W        W24437  38.116   5.714  12.692
52712W        W24438   6.664  36.920   2.361
52713W        W24439  35.447   2.327  14.978
52714W        W24440  20.980   1.822  10.741
52715W        W24441  13.527  44.379   3.796
52716W        W24442  19.498  36.357   4.647
52717W        W24443  41.774  25.257  12.577
52718W        W24444  15.453  19.118  14.595
52719W        W24445  40.257  26.693   3.696
52720W        W24446  20.246  28.610  11.650
52721W        W24447  24.472   8.965   3.364
52722W        W24448  19.808  41.542   1.862
52723W        W24449  24.019  27.176   0.316
52724W        W24450  11.601   9.761   4.594
52725W        W24451   0.742  20.807   3.831
52726W        W24452   0.837   3.207  11.523
52727W        W24453  41.135  17.084   0.498
52728W        W24454   5.380  22.808   3.742
52729W        W24455  38.321   4.529   2.373
52730W        W24456   7.467  26.225   4.931
52731W        W24457   2.452  32.373   0.288
52732W        W24458  21.014  27.575  13.280
52733W        W24459   5.710  11.706   2.723
52734W        W24460  32.879   8.407   4.869
52735W        W24461  42.787  37.072  14.416
52736W        W24462  41.602   2.381  12.951
52737W        W24463  15.282  19.344   0.052
52738W        W24464  22.752  14.664  14.509
52739W        W24465  42.188  32.923  13.657
52740W        W24466  14.355  26.042  10.751
52741W        W24467  27.543  41.891  14.616
52742W        W24468  40.069  44.074   2.793
52743W        W24469  10.659  35.642   5.189
52744W        W24470  28.846  32.956   3.503
52745W        W24471  40.283   3.947   0.830
52746W        W24472  23.214  28.504  10.955
52747W        W24473  26.214  44.199   4.957
52748W        W24474  20.453  25.100   0.284
52749W        W24475  32.104  42.973  14.276
52750W        W24476  25.083   7.359  14.731
52751W        W24477  37.964   6.699   4.828
52752W        W24478   8.816  34.637  13.044
52753W        W24479  39.487  28.977  14.199
52754W        W24480  39.315  20.597   0.467
52755W        W24481  33.125  29.778  13.912
52756W        W24482  28.955  37.431  10.750
52757W        W24483  34.939  26.032  12.904
52758W        W24484  34.470  29.868  11.829
52759W        W24485  39.057  20.220  11.194
52760W        W24486  32.485  40.105  11.269
52761W        W24487  10.877   0.713  14.753
52762W        W24488  44.676  40.369  12.335
52763W        W24489  27.219  44.865   4.185
52764W        W24490  26.922  39.882  10.429
52765W        W24491  10.150  21.297  13.415
52766W        W24492   9.381  33.565   0.269
52767W        W24493  10.095  44.437   1.304
52768W        W24494  13.199   5.122   3.146
52769W        W24495  16.916  28.461   0.955
52770W        W24496  31.185  39.831  11.013
52771W        W24497  24.660  29.739  14.957
52772W        W24498  40.243  35.887   1.376
52773W        W24499  33.137  17.034   1.303
52774W        W24500  34.096  44.827   0.888
52775W        W24501   1.421  25.591  13.881
52776W        W24502  21.199  17.752  12.381
52777W        W24503   1.442   8.434  13.809
52778W        W24504  28.656  12.204  10.489
52779W        W24505   6.426  23.133   0.849
52780W        W24506  34.926  40.475   3.238
52781W        W24507   6.281  15.866   2.670
52782W        W24508  12.799  20.520  13.048
52783W        W24509  17.633   7.328  11.064
52784W        W24510  24.199  42.879  10.903
52785W        W24511   8.121   7.233  13.750
52786W        W24512  10.917  23.861  12.374
52787W        W24513  31.620  29.491   2.750
52788W        W24514  24.510  22.048   2.741
52789W        W24515  37.862  24.561   0.006
52790W        W24516  30.696  44.909  12.510
52791W        W24517  34.454   9.440   1.916
52792W        W24518  26.266  35.610  14.321
52793W        W24519  20.153   0.449  11.505
52794W        W24520   8.588   7.698   4.744
52795W        W24521   5.757  43.762  14.931
52796W        W24522   0.289  36.928   2.592
52797W        W24523   4.744   9.903   0.791
52798W        W24524  37.853  18.866   2.693
52799W        W24525  20.083  41.352  14.401
52800W        W24526  12.012  31.996   9.855
52801W        W24527  38.175  39.747   3.068
52802W        W24528   0.624  37.828  11.486
52803W        W24529   1.445  27.237   4.748
52804W        W24530  36.511   3.767  12.628
52805W        W24531   0.417  35.646  11.392
52806W        W24532  13.735   3.380  10.863
52807W        W24533  30.598   8.610  11.663
52808W        W24534  24.613  26.975  12.082
52809W        W24535   5.759  15.155  11.577
52810W        W24536  33.132   9.366   1.425
52811W        W24537  44.288   1.931  14.984
52812W        W24538  37.944   2.289  13.025
52813W        W24539  41.993  13.160   0.342
52814W        W24540  34.511  43.874  12.083
52815W        W24541  39.795   3.741   0.904
52816W        W24542   9.010  35.385  14.300
52817W        W24543   2.313   8.707   0.132
52818W        W24544   0.297   7.759   3.618
52819W        W24545  40.420   0.024   0.931
52820W        W24546  33.843  32.178  12.885
52821W        W24547  20.538  23.437  14.424
52822W        W24548   4.255  42.849  12.619
52823W        W24549  25.469  20.558   2.728
52824W        W24550  23.869  41.800  13.591
52825W        W24551   6.445  10.130  12.022
52826W        W24552  21.896  32.497   0.597
52827W        W24553  28.984   9.339  13.562
52828W        W24554   9.152  19.877  12.928
52829W        W24555  21.194   4.138   4.232
52830W        W24556   0.614  29.220  11.841
52831W        W24557  37.381   7.924  14.435
52832W        W24558  34.535  36.294   1.158
52833W        W24559   9.388  21.707   3.590
52834W        W24560   0.253  44.334   4.513
52835W        W24561  32.110  25.311   3.337
52836W        W24562   8.385   6.115   3.677
52837W        W24563  38.886  26.459   3.078
52838W        W24564  25.653  26.889   2.703
52839W        W24565  22.761  29.468  14.725
52840W        W24566   2.275  14.330   0.842
52841W        W24567   9.749  37.959   3.672
52842W        W24568   8.491  15.087  14.260
52843W        W24569   1.818  17.216  11.442
52844W        W24570   8.277  37.393  12.994
52845W        W24571  12.670  43.955   0.904
52846W        W24572  17.822  41.051   1.742
52847W        W24573  15.877  42.969  13.908
52848W        W24574  17.559  10.838   1.517
52849W        W24575  23.444  24.560   2.930
52850W        W24576   8.318   4.848  12.411
52851W        W24577  26.503  23.743  14.673
52852W        W24578   3.911  41.283   4.638
52853W        W24579   1.472  20.032   4.244
52854W        W24580  32.101  17.201  11.350
52855W        W24581  34.567  37.798   2.109
52856W        W24582  29.563   2.547   2.913
52857W        W24583  32.667  24.111  11.864
52858W        W24584  34.046  42.797   1.164
52859W        W24585  19.183  15.775  12.115
52860W        W24586  29.360  34.590   2.812
52861W        W24587   1.925  44.299   2.751
52862W        W24588  44.040   6.728   4.084
52863W        W24589  23.993  26.238   5.213
52864W        W24590  39.381  42.532  12.490
52865W        W24591  24.118  37.111  12.943
52866W        W24592  39.836  19.691  10.696
52867W        W24593  28.939  44.273  13.040
52868W        W24594   3.764  24.922  14.829
52869W        W24595  32.067   3.815   2.651
52870W        W24596  31.442  22.280   0.083
52871W        W24597   7.228   2.702   3.701
52872W        W24598   9.907  41.328  11.976
52873W        W24599  44.225   8.663  12.098
52874W        W24600  21.469   2.005  12.974
52875W        W24601   5.355  36.430   3.028
52876W        W24602   5.730  36.385  12.697
52877W        W24603  14.742  23.574   3.251
52878W        W24604   5.932  35.530  11.113
52879W        W24605  13.812  27.675   3.959
52880W        W24606  43.921  13.809  14.812
52881W        W24607   3.654  19.216  12.129
52882W        W24608  16.541  31.704  13.827
52883W        W24609   2.317  11.380  13.238
52884W        W24610  20.555  36.575   0.174
52885W        W24611  24.755  11.110   2.184
52886W        W24612  35.533  43.794  14.026
52887W        W24613   6.141  34.509  14.179
52888W        W24614  13.201  29.512   4.549
52889W        W24615   0.936  42.296  10.536
52890W        W24616  28.157  19.565   2.256
52891W        W24617  26.649  28.716  10.624
52892W        W24618  34.444  22.727   0.765
52893W        W24619  38.283  28.579   0.915
52894W        W24620  40.018  41.519   1.684
52895W        W24621  12.610  36.424  13.368
52896W        W24622   7.147  19.718  11.486
52897W        W24623  16.993   7.026   4.969
52898W        W24624  10.167  16.678   2.696
52899W        W24625  17.334  37.805   1.058
52900W        W24626  37.056   5.260   2.178
52901W        W24627  39.015  20.979   3.769
52902W        W24628  25.665  28.853  14.604
52903W        W24629  37.277  18.685  13.483
52904W        W24630  14.263  27.561   3.182
52905W        W24631   7.807  40.452  10.483
52906W        W24632  31.970   0.320   2.650
52907W        W24633  37.513  30.636  11.022
52908W        W24634   0.804  27.945  14.897
52909W        W24635  32.504  36.646  11.576
52910W        W24636   7.176   6.355  11.100
52911W        W24637  42.044  27.916  14.787
52912W        W24638  27.547  21.241   0.880
52913W        W24639  24.690  33.769   1.299
52914W        W24640   2.313  19.131   0.828
52915W        W24641  39.623  38.367   0.701
52916W        W24642   1.267  35.524  10.664
52917W        W24643  29.080   7.774   4.651
52918W        W24644  25.001  36.645   0.385
52919W        W24645  30.498  35.041  12.569
52920W        W24646   9.230  22.478   2.022
52921W        W24647   1.396  17.331   2.371
52922W        W24648   8.762  33.034   2.289
52923W        W24649  43.511  26.116   3.879
52924W        W24650  21.342  23.601  11.424
52925W        W24651  34.498   9.406  11.145
52926W        W24652  37.575  11.162  13.857
52927W        W24653   8.936  38.601   4.220
52928W        W24654  24.920   2.928  10.487
52929W        W24655  21.586  38.078   3.694
52930W        W24656  34.604  13.719   1.192
52931W        W24657   6.386  34.572   2.401
52932W        W24658   6.884  16.283  11.585
52933W        W24659  22.494  15.255   3.349
52934W        W24660  21.818  29.945  10.824
52935W        W24661  40.889  12.102  14.395
52936W        W24662  42.292  37.517   5.042
52937W        W24663  15.990   6.438  12.866
52938W        W24664  13.868  27.505  12.876
52939W        W24665  13.831   5.566  13.059
52940W        W24666  37.263  28.569  11.010
52941W        W24667  40.813   5.831  10.388
52942W        W24668   2.811  42.244   4.661
52943W        W24669   9.746  10.863  11.666
52944W        W24670  23.105  39.998  10.571
52945W        W24671  19.088  33.667   2.806
52946W        W24672   0.312  21.287  10.114
52947W        W24673  40.131   6.479  14.009
52948W        W24674  17.855  39.483  14.776
52949W        W24675   2.838  17.744  14.806
52950W        W24676  43.099  13.377  14.079
52951W        W24677   3.866  21.142  12.517
52952W        W24678  44.272  38.501   0.184
52953W        W24679  35.300  10.226   1.254
52954W        W24680  17.143  12.248   4.614
52955W        W24681   9.672   5.327   0.978
52956W        W24682  31.394  38.992  12.776
52957W        W24683  21.718   3.345   0.360
52958W        W24684  14.907  38.403   2.301
52959W        W24685   0.718   8.719  11.064
52960W        W24686  23.304  35.831   2.843
52961W        W24687  22.780   0.216   2.967
52962W        W24688  44.878  36.783   3.774
52963W        W24689  42.493  38.371   1.691
52964W        W24690   4.632  33.340  14.553
52965W        W24691   0.846  16.182   3.620
52966W        W24692  44.322  14.032   4.649
52967W        W24693   4.910  14.815   2.131
52968W        W24694  31.573  24.667   2.637
52969W        W24695  18.221  44.510   3.882
52970W        W24696  18.807  29.438   4.373
52971W        W24697   7.889  36.972  13.926
52972W        W24698   1.783  44.778   1.205
52973W        W24699   5.989  32.386  14.774
52974W        W24700  14.870  39.031  11.585
52975W        W24701   7.935  27.789   5.029
52976W        W24702   1.211  11.760  12.496
52977W        W24703  14.621   9.618   3.226
52978W        W24704  26.342  13.236  13.358
52979W        W24705   3.066  10.878  12.117
52980W        W24706  34.820  13.277   1.589
52981W        W24707   9.328  39.410   4.632
52982W        W24708  15.619  17.235  11.607
52983W        W24709   2.402   3.579   1.967
52984W        W24710  15.472  14.241   1.838
52985W        W24711  43.469  12.330   2.263
52986W        W24712  23.315  21.068   4.498
52987W        W24713  27.534  42.391  14.489
52988W        W24714   3.192  16.096   1.701
52989W        W24715   8.502  32.137   1.259
52990W        W24716   0.233   1.056   0.276
52991W        W24717  33.923  23.173   4.970
52992W        W24718  36.652  21.127   3.306
52993W        W24719   9.289   1.134   4.918
52994W        W24720  40.795  10.941   1.344
52995W        W24721  18.259   1.473  14.908
52996W        W24722  44.168   9.238   4.450
52997W        W24723   8.487   6.618   1.275
52998W        W24724  20.123  44.021  14.175
52999W        W24725  25.260  23.210   2.785
53000W        W24726  28.533  17.747   1.385
53001W        W24727  37.385  19.729  10.601
53002W        W24728  12.200  27.138  13.315
53003W        W24729   6.821  13.010  10.902
53004W        W24730  25.330  15.200  14.320
53005W        W24731  42.607   8.273   3.196
53006W        W24732  44.031   1.862  12.937
53007W        W24733  17.419  21.065   4.146
53008W        W24734  17.750  20.330   1.462
53009W        W24735  33.848  17.288  11.895
53010W        W24736  33.017   9.968   2.729
53011W        W24737  31.082  30.850  12.489
53012W        W24738  38.825  41.570  12.892
53013W        W24739  29.032  14.729  13.496
53014W        W24740   2.550   8.211  10.752
53015W        W24741  40.556  33.921  12.716
53016W        W24742  11.254  21.528   0.882
53017W        W24743  18.539  15.062   4.152
53018W        W24744  18.717  14.841   3.635
53019W        W24745  39.815  17.623  12.448
53020W        W24746  33.591   4.885  13.981
53021W        W24747  17.022  32.627   2.452
53022W        W24748  43.480   9.382  10.638
53023W        W24749  34.071  27.218  11.609
53024W        W24750  10.789  44.504  11.179
53025W        W24751  30.350  31.558  11.575
53026W        W24752  35.671  26.992  11.437
53027W        W24753   5.889  44.891   1.403
53028W        W24754  12.891  27.087   1.859
53029W        W24755   2.223  36.968  14.373
53030W        W24756  26.047  10.235   1.298
53031W        W24757   5.329  35.823   2.164
53032W        W24758  18.523  15.552   4.911
53033W        W24759   7.601  12.824  12.891
53034W        W24760  35.614  19.698  11.681
53035W        W24761  12.912  39.864  13.501
53036W        W24762  38.977  36.788   2.390
53037W        W24763   6.351  25.135   2.326
53038W        W24764  18.526  42.877   3.579
53039W        W24765  39.117   4.362  10.897
53040W        W24766  37.597  30.001   0.427
53041W        W24767  31.863  29.155  12.006
53042W        W24768  12.340  25.741   4.021
53043W        W24769   9.361  36.248  14.427
53044W        W24770  36.511   5.286  11.002
53045W        W24771  22.630  14.832  11.681
53046W        W24772  33.080  44.358   1.198
53047W        W24773  14.270  26.856  12.468
53048W        W24774  21.489  41.796  11.005
53049W        W24775  30.940  41.566   2.371
53050W        W24776  28.081  28.205  10.987
53051W        W24777   0.007  12.791   2.013
53052W        W24778   2.448  21.112  13.483
53053W        W24779  15.116  42.331   0.965
53054W        W24780  41.572  42.110  13.050
53055W        W24781   2.478  39.942  12.506
53056W        W24782   7.743  16.470  10.635
53057W        W24783   4.972  26.115   3.070
53058W        W24784  23.622  24.518   2.420
53059W        W24785  41.692   4.458   5.121
53060W        W24786  21.036  34.138  13.854
53061W        W24787  21.489  41.347   4.637
53062W        W24788  30.682  12.043  13.723
53063W        W24789  17.570  40.668  12.960
53064W        W24790   8.679   1.424  13.352
53065W        W24791  24.556  12.594   0.891
53066W        W24792  12.706   1.463   2.311
53067W        W24793  17.758  35.393  13.083
53068W        W24794  15.329  13.688   4.772
53069W        W24795   9.336   3.456   0.479
53070W        W24796  25.465  11.520  11.916
53071W        W24797  34.321  11.366  10.807
53072W        W24798  10.657  37.699   3.686
53073W        W24799  12.072  41.610   4.461
53074W        W24800  44.491   0.032   3.617
53075W        W24801  33.083  38.664   0.927
53076W        W24802  21.513  38.582  14.441
53077W        W24803  27.366  15.633  10.117
53078W        W24804  18.801  21.168  12.058
53079W        W24805  15.665   9.214   2.428
53080W        W24806  14.120  10.275  14.542
53081W        W24807  33.579  14.153  14.029
53082W        W24808  13.845  37.897  12.366
53083W        W24809  20.066  15.699   0.804
53084W        W24810  31.108  42.292  13.872
53085W        W24811  44.793  23.707  12.597
53086W        W24812  35.541   9.882  12.025
53087W        W24813   0.005  34.622  14.846
53088W        W24814   2.257  13.218  12.928
53089W        W24815   0.408  24.618   0.741
53090W        W24816  37.437  30.093  14.952
53091W        W24817   3.793   3.161   2.841
53092W        W24818  24.097  27.157  11.202
53093W        W24819  25.639  11.384   0.965
53094W        W24820  15.155  19.554   0.923
53095W        W24821  24.723  39.881  11.564
53096W        W24822  27.893  18.282  14.911
53097W        W24823  25.911   8.482  10.688
53098W        W24824  43.492  35.312  14.883
53099W        W24825  11.752  11.156  12.870
53100W        W24826  16.145  32.190   2.941
53101W        W24827  10.966  40.455  10.947
53102W        W24828   4.402  27.573  13.404
53103W        W24829  16.740  26.860   1.856
53104W        W24830   8.654  39.371  10.487
53105W        W24831  12.763   4.213   2.286
53106W        W24832  38.877  17.273   2.746
53107W        W24833  10.844  27.472  10.649
53108W        W24834  25.651  19.745   2.254
53109W        W24835  19.066  41.448  13.018
53110W        W24836  39.057  36.884  14.808
53111W        W24837   7.999  37.629  14.917
53112W        W24838  29.864   7.713   0.056
53113W        W24839  22.762  28.145  12.755
53114W        W24840   5.446  25.494   1.051
53115W        W24841  28.155  12.647   4.548
53116W        W24842  30.996  12.295  11.214
53117W        W24843   3.671  27.093  12.429
53118W        W24844   1.836  44.058  14.868
53119W        W24845  37.806  41.549  11.176
53120W        W24846  36.030  14.593   1.199
53121W        W24847  39.145  41.247  10.166
53122W        W24848  36.967   6.317  10.412
53123W        W24849   2.162  41.078  14.994
53124W        W24850  13.785  43.058  11.636
53125W        W24851  41.292  35.854  11.677
53126W        W24852  11.422  39.456  11.968
53127W        W24853  12.650  11.711   3.091
53128W        W24854  18.324  11.223   4.545
53129W        W24855  44.316  14.316  12.068
53130W        W24856  42.087   8.978  10.480
53131W        W24857  13.554  31.018   1.344
53132W        W24858  37.416   3.029   4.739
53133W        W24859  18.738  22.451   4.563
53134W        W24860  44.107  10.460  12.123
53135W        W24861  17.091  11.252   2.914
53136W        W24862  13.336  18.277   0.327
53137W        W24863  19.970  17.572   4.547
53138W        W24864  42.950   8.457  12.387
53139W        W24865   8.710  19.041   1.736
53140W        W24866  37.538  32.713   3.405
53141W        W24867   1.357   3.853   1.516
53142W        W24868  39.334  36.419  14.044
53143W        W24869  25.049  24.820  10.692
53144W        W24870  42.221  38.621  12.923
53145W        W24871   4.269  34.002   4.262
53146W        W24872  43.359  20.663   4.118
53147W        W24873  26.173  27.253  10.615
53148W        W24874   4.927  40.784   1.295
53149W        W24875  39.555   5.832   1.273
53150W        W24876  41.520  39.005   3.786
53151W        W24877   9.890  38.609   4.948
53152W        W24878  40.310  43.887   2.095
53153W        W24879  39.475   8.325   2.703
53154W        W24880  24.399  13.368   0.241
53155W        W24881  38.038  23.587   3.682
53156W        W24882  29.600  37.535   9.778
53157W        W24883  33.160  21.930   3.193
53158W        W24884  32.497  41.784  14.017
53159W        W24885   0.043  26.104  14.067
53160W        W24886  19.483   4.379  12.127
53161W        W24887   0.813  38.264   3.195
53162W        W24888  32.405   9.359   0.715
53163W        W24889  11.651  32.117  12.202
53164W        W24890  24.157  10.847  10.626
53165W        W24891  16.261  28.960  14.770
53166W        W24892  34.425  19.249   3.153
53167W        W24893   4.727  42.595  11.650
53168W        W24894   3.773  31.145   4.775
53169W        W24895  15.983  28.249  11.592
53170W        W24896  40.009  30.361  14.512
53171W        W24897  43.428  12.173   0.532
53172W        W24898   1.733  37.285   1.797
53173W        W24899  27.361  17.219  12.354
53174W        W24900  29.349  10.895   1.356
53175W        W24901  24.548  13.653  10.606
53176W        W24902  29.296  40.521  12.149
53177W        W24903  35.996  23.963  11.351
53178W        W24904   4.512  19.558  12.776
53179W        W24905  26.474   9.714  10.667
53180W        W24906   3.844  11.134  14.926
53181W        W24907  18.310  42.001  12.985
53182W        W24908  19.699  19.348  13.344
53183W        W24909  13.263  12.699  10.762
53184W        W24910  31.998  20.101  13.793
53185W        W24911  40.401   4.802  11.632
53186W        W24912  23.216  17.581  13.007
53187W        W24913  33.417  28.134   1.710
53188W        W24914  31.881  20.728   4.800
53189W        W24915  11.350  29.547   3.214
53190W        W24916  23.014  20.650   4.596
53191W        W24917  27.959  33.910   3.953
53192W        W24918   7.368  24.754  12.866
53193W        W24919  13.723  26.073   2.887
53194W        W24920  28.570  25.591  11.222
53195W        W24921   5.957  30.467   0.162
53196W        W24922  43.775  35.598  14.548
53197W        W24923  31.831  10.063  10.059
53198W        W24924  21.451  15.140   3.434
53199W        W24925  24.907  29.567  14.063
53200W        W24926  33.458   2.906   2.428
53201W        W24927  26.745  23.418   3.774
53202W        W24928  39.007   9.581   0.863
53203W        W24929  35.415  35.798  11.085
53204W        W24930  14.836   2.996  14.316
53205W        W24931  27.245  24.718  14.053
53206W        W24932  28.930   9.894   0.742
53207W        W24933  13.574   3.677  14.989
53208W        W24934  25.119  31.651  13.543
53209W        W24935  42.383  19.556   0.455
53210W        W24936  36.781   3.158  12.622
53211W        W24937  12.207   7.765   0.325
53212W        W24938  24.162  25.760   5.113
53213W        W24939  36.491  40.499   4.602
53214W        W24940  10.033  33.006   3.683
53215W        W24941  20.200  15.414  14.931
53216W        W24942   9.357  27.471   0.772
53217W        W24943  31.446   5.963  10.435
53218W        W24944  20.765  13.421  11.874
53219W        W24945  27.720  43.817   2.240
53220W        W24946  13.621  22.153  14.797
53221W        W24947   1.450   3.398   3.248
53222W        W24948  35.637  43.283  12.313
53223W        W24949   2.470  40.908   4.636
53224W        W24950   3.189   4.884   0.922
53225W        W24951   8.031  31.339  13.976
53226W        W24952  38.643  32.169  14.912
53227W        W24953  32.576  29.864   4.956
53228W        W24954   5.046  17.138   2.170
53229W        W24955  13.726  12.646   3.870
53230W        W24956  14.363  43.521  11.210
53231W        W24957   7.929  12.761   3.883
53232W        W24958  14.700  18.752  11.162
53233W        W24959   4.620   5.446  13.820
53234W        W24960  15.377  14.585  13.852
53235W        W24961  19.695  38.868   1.381
53236W        W24962  36.155  23.135  14.571
53237W        W24963  34.168  15.499   3.206
53238W        W24964  19.501   6.763  13.820
53239W        W24965  10.481  25.153   9.768
53240W        W24966   1.794  33.407  12.367
53241W        W24967  44.211   0.609   4.700
53242W        W24968  25.365  11.675   4.626
53243W        W24969  24.186  19.799   2.149
53244W        W24970  32.337  33.867   2.334
53245W        W24971  40.308  22.487  14.007
53246W        W24972   0.236   1.032  12.412
53247W        W24973   8.402  33.876  14.179
53248W        W24974  31.170  36.810   3.475
53249W        W24975  25.118  13.251  14.316
53250W        W24976   1.106  38.032   1.426
53251W        W24977  44.261  25.712   4.121
53252W        W24978  25.298  20.163   3.259
53253W        W24979  24.966   0.326  11.014
53254W        W24980  21.160  17.456  11.936
53255W        W24981  30.456  40.234   0.157
53256W        W24982   2.176  38.965   4.614
53257W        W24983  32.064  12.890   4.731
53258W        W24984  37.477   3.857  10.995
53259W        W24985   2.991  38.308   2.431
53260W        W24986  17.777   8.362  14.454
53261W        W24987   6.461   8.116  13.824
53262W        W24988  41.592  44.926  13.893
53263W        W24989  20.353  17.726  11.582
53264W        W24990  24.734  15.751  13.964
53265W        W24991   1.924   0.115   3.055
53266W        W24992  19.960  43.957   3.267
53267W        W24993   8.514  36.804  10.483
53268W        W24994  23.600  11.616  13.776
53269W        W24995  16.666  37.788  14.378
53270W        W24996  35.613  18.093   0.453
53271W        W24997   1.509  25.285  14.355
53272W        W24998   5.378  26.025   3.374
53273W        W24999  29.844  23.852  10.135
53274W        W25000  36.956  13.282   4.655
53275W        W25001  42.712  29.686   2.746
53276W        W25002  20.895  11.771   0.091
53277W        W25003   3.370   6.157   3.260
53278W        W25004   3.888   2.017   1.994
53279W        W25005  40.970  36.995  14.243
53280W        W25006  24.578  24.625   0.165
53281W        W25007  26.921  39.562   2.392
53282W        W25008  32.882  11.169   1.875
53283W        W25009  16.108  27.004  13.581
53284W        W25010  36.464  16.753  14.534
53285W        W25011  27.949  24.181   2.436
53286W        W25012   6.535  15.737  12.057
53287W        W25013  10.964  39.487   2.941
53288W        W25014  38.924  41.560   0.867
53289W        W25015  33.902  29.442   0.224
53290W        W25016  20.786  20.166  11.129
53291W        W25017  44.493  42.796  12.916
53292W        W25018  31.380   3.137  12.262
53293W        W25019  25.969  27.871   2.130
53294W        W25020  32.869  44.051   3.641
53295W        W25021  25.675  12.871  13.423
53296W        W25022  17.640  42.859   3.644
53297W        W25023  28.425  34.805  14.925
53298W        W25024  16.934  37.894  13.370
53299W        W25025  43.985  24.866  11.544
53300W        W25026  10.591  40.342   0.517
53301W        W25027  42.407  17.469   3.845
53302W        W25028  38.678  18.840  12.506
53303W        W25029  42.108  23.732  10.210
53304W        W25030  13.699  14.737   3.202
53305W        W25031  33.944  17.047  14.071
53306W        W25032  22.659  28.561  14.044
53307W        W25033  34.645  18.494   1.405
53308W        W25034   4.445   4.802   1.482
53309W        W25035  16.752   8.809   4.521
53310W        W25036   6.468  34.410  13.791
53311W        W25037  28.431  19.801  11.007
53312W        W25038  31.150  14.390  12.437
53313W        W25039  36.585  39.879  14.568
53314W        W25040  34.041  36.623  12.880
53315W        W25041  29.125  29.959   0.396
53316W        W25042  30.484  29.475   0.495
53317W        W25043   5.778   2.891   1.391
53318W        W25044  14.131  19.187   3.523
53319W        W25045  35.673  40.530   1.191
53320W        W25046  11.375  14.246  12.774
53321W        W25047   6.776  40.213   2.733
53322W        W25048   2.871  13.437   1.291
53323W        W25049  37.602   4.276  10.697
53324W        W25050  20.650  43.455  12.607
53325W        W25051  37.379  36.781   0.252
53326W        W25052   3.799   4.411  14.450
53327W        W25053   7.759  18.182  11.614
53328W        W25054  36.969  19.514  13.850
53329W        W25055  38.337  20.112  13.246
53330W        W25056  40.415   4.938  13.846
53331W        W25057  24.178  33.504  14.538
53332W        W25058  40.731  33.622   4.873
53333W        W25059  39.060  28.590   4.505
53334W        W25060  19.937   2.055  12.153
53335W        W25061   9.468  29.442  10.778
53336W        W25062  26.432  32.253  11.213
53337W        W25063  16.661  17.729   0.315
53338W        W25064  18.196  34.440  13.053
53339W        W25065  12.840  24.020  12.187
53340W        W25066  36.335  42.013   4.761
53341W        W25067  29.304  41.898   2.462
53342W        W25068  42.410  12.285  12.600
53343W        W25069  33.730   2.486   2.210
53344W        W25070  20.696   6.140  11.522
53345W        W25071   1.329  14.430   3.405
53346W        W25072  13.262  30.132  13.275
53347W        W25073  21.093  25.522  14.202
53348W        W25074  34.122  18.666  14.822
53349W        W25075   6.244  27.061   3.361
53350W        W25076  24.940   7.746  11.390
53351W        W25077  24.741   2.011   1.330
53352W        W25078  38.798  27.970  12.018
53353W        W25079  28.037  13.347   2.430
53354W        W25080  26.543  37.111  14.595
53355W        W25081  27.560  43.883   1.757
53356W        W25082  27.484  44.042  12.519
53357W        W25083  19.076  17.737   0.861
53358W        W25084  37.729  15.219   3.155
53359W        W25085  19.613  27.125  10.502
53360W        W25086   7.397  35.479  10.439
53361W        W25087  10.810  22.557   2.812
53362W        W25088  29.196   1.898  14.927
53363W        W25089  31.907  24.560   3.637
53364W        W25090  33.507  42.881  11.632
53365W        W25091  41.341   1.838  13.925
53366W        W25092   7.390  15.176  13.432
53367W        W25093  27.355  20.344   3.991
53368W        W25094  36.584  10.756   1.341
53369W        W25095   0.666  11.630   2.126
53370W        W25096  33.440   0.460   0.484
53371W        W25097  10.482   2.496  10.442
53372W        W25098  26.587  31.956   4.648
53373W        W25099  43.443  40.452  10.705
53374W        W25100  10.799  29.217   0.245
53375W        W25101  43.556  13.784   5.053
53376W        W25102  40.567   2.841  11.947
53377W        W25103  40.892  12.271   1.767
53378W        W25104  43.901  31.102  14.201
53379W        W25105   4.831  12.665  12.945
53380W        W25106   5.818   7.350  10.711
53381W        W25107  16.785  29.443   2.955
53382W        W25108   2.968   9.458   2.385
53383W        W25109  39.187  21.894   2.715
53384W        W25110  26.971  19.169  13.345
53385W        W25111  20.793  33.658  13.713
53386W        W25112   3.622  21.759  11.032
53387W        W25113  44.954  12.097  11.088
53388W        W25114  11.604  33.423  11.030
53389W        W25115  42.764   5.513   1.181
53390W        W25116  30.625  33.413  10.951
53391W        W25117   3.914  23.949   1.124
53392W        W25118   6.797   2.798   0.306
53393W        W25119  36.811  23.129   0.417
53394W        W25120  20.268  41.302   4.657
53395W        W25121   7.945  12.848  13.303
53396W        W25122   1.896  24.926   3.151
53397W        W25123  22.207   7.773   1.846
53398W        W25124   4.881  15.528  13.321
53399W        W25125  27.019  22.146   3.163
53400W        W25126  24.913  20.111  14.745
53401W        W25127  10.272  33.584   1.335
53402W        W25128  39.033  18.625   3.791
53403W        W25129  25.217  36.878  13.887
53404W        W25130  22.198   6.540   4.137
53405W        W25131  25.135   1.364  14.363
53406W        W25132   2.405  28.125   0.665
53407W        W25133  29.905  20.463   3.603
53408W        W25134  25.588  30.667  14.336
53409W        W25135  40.371  20.465   2.402
53410W        W25136  44.726  11.883   1.824
53411W        W25137  25.809  16.378  10.649
53412W        W25138   7.216  25.022  13.316
53413W        W25139  26.122  12.634   3.751
53414W        W25140  21.197  30.681  10.789
53415W        W25141  37.953  34.453  13.179
53416W        W25142  20.576  34.373  11.413
53417W        W25143   6.715   7.640  12.492
53418W        W25144  14.377   7.634   2.633
53419W        W25145  36.821  21.841  11.845
53420W        W25146  33.723  39.055  12.778
53421W        W25147  32.036  39.348  12.396
53422W        W25148  42.524  40.002  13.126
53423W        W25149  38.896  16.190  14.884
53424W        W25150  39.693  42.774  11.973
53425W        W25151  11.243  20.540   2.805
53426W        W25152  44.620  35.066  11.576
53427W        W25153  28.809  44.988  10.587
53428W        W25154  29.269   0.416   4.624
53429W        W25155  30.353  18.339  12.658
53430W        W25156  19.646  40.890  11.620
53431W        W25157  18.093  42.617   4.396
53432W        W25158  15.659  24.121   2.169
53433W        W25159  25.678  15.723   1.763
53434W        W25160  12.242  17.150  10.715
53435W        W25161  27.456  31.020   2.782
53436W        W25162  33.480  21.185  10.626
53437W        W25163   0.300   2.257   0.848
53438W        W25164  26.423  15.297   0.498
53439W        W25165  24.971  24.634   4.073
53440W        W25166  10.368  32.805   1.705
53441W        W25167  11.746  19.331   2.352
53442W        W25168  29.173  15.365  11.814
53443W        W25169  16.630  44.590  14.269
53444W        W25170   1.867  33.612  11.901
53445W        W25171  14.802  40.284   3.717
53446W        W25172  43.194  21.286   1.930
53447W        W25173  23.833   8.117   2.880
53448W        W25174   2.940  40.469   1.728
53449W        W25175  43.754  37.887   1.664
53450W        W25176   7.702  33.464   3.770
53451W        W25177  40.320   0.920   5.083
53452W        W25178  34.093  37.467  11.625
53453W        W25179  38.293  38.878  14.315
53454W        W25180  36.816   8.769  14.770
53455W        W25181   3.039  31.449   1.353
53456W        W25182  12.358  19.500  12.406
53457W        W25183   8.792  10.368  10.395
53458W        W25184  29.905  25.808  12.507
53459W        W25185  20.600  27.527  12.954
53460W        W25186  34.176  32.724  14.374
53461W        W25187  42.248   4.843  11.079
53462W        W25188  29.921   5.749  12.140
53463W        W25189  33.614  32.275   3.659
53464W        W25190  19.497  39.380  12.653
53465W        W25191  30.552  23.118  10.485
53466W        W25192   5.762  32.828  12.521
53467W        W25193  14.751  42.496   4.859
53468W        W25194   2.268  22.020  11.666
53469W        W25195  18.367  39.424   1.446
53470W        W25196  15.177  10.136   1.372
53471W        W25197  23.545  35.497  13.009
53472W        W25198  37.980  33.606  11.091
53473W        W25199   5.943  15.656   1.289
53474W        W25200   9.424   7.097  14.296
53475W        W25201  40.618   7.696   4.594
53476W        W25202  36.921   0.899   4.204
53477W        W25203  37.113  13.941   3.455
53478W        W25204  23.604   9.134   4.174
53479W        W25205  23.087  14.629  10.684
53480W        W25206  35.070   7.898  14.875
53481W        W25207   3.383  13.641  12.091
53482W        W25208   2.866  33.330  10.545
53483W        W25209  16.440   6.854  11.904
53484W        W25210  20.636  30.538  12.363
53485W        W25211   8.871   7.179   1.819
53486W        W25212  44.765  42.822   2.310
53487W        W25213  43.949  27.774   1.602
53488W        W25214  12.113  16.049  14.989
53489W        W25215  26.459  30.124   3.300
53490W        W25216   7.457  37.582   1.466
53491W        W25217  41.914  42.241   4.629
53492W        W25218  38.134   2.245   2.936
53493W        W25219   7.429  24.913  14.737
53494W        W25220  25.257  10.654  14.103
53495W        W25221  32.031  31.713  14.007
53496W        W25222  25.649  27.497   2.748
53497W        W25223  41.068  38.860   2.896
53498W        W25224  18.612  35.447  14.992
53499W        W25225  23.622  27.226   4.985
53500W        W25226  24.378  33.526  10.638
53501W        W25227   6.972  37.580   1.277
53502W        W25228  23.495  30.622  11.967
53503W        W25229  37.491  27.541  12.469
53504W        W25230  21.531  27.480  13.373
53505W        W25231  22.657  27.586   2.702
53506W        W25232  14.667  19.315   2.415
53507W        W25233  19.568  14.839  11.666
53508W        W25234  32.944  42.276   4.922
53509W        W25235  31.063  14.753  10.686
53510W        W25236   6.467  12.649   2.930
53511W        W25237  25.486  20.238   0.880
53512W        W25238  18.596  36.538  14.838
53513W        W25239  33.220  34.856   3.352
53514W        W25240  42.950  35.943  11.208
53515W        W25241  32.391  20.531   1.233
53516W        W25242  44.852   2.782   4.666
53517W        W25243  13.140  14.747  14.448
53518W        W25244  29.477  10.200  14.019
53519W        W25245   0.461  33.317  14.813
53520W        W25246  37.504  19.680   0.963
53521W        W25247  42.023  38.886  13.326
53522W        W25248  36.573  44.758   1.351
53523W        W25249  35.422  33.099   0.320
53524W        W25250  23.739   5.807   1.796
53525W        W25251  21.079   0.387  13.000
53526W        W25252  36.403  38.906  13.124
53527W        W25253  37.524  29.634  13.334
53528W        W25254  29.047  37.948   3.234
53529W        W25255  35.769  43.249   2.780
53530W        W25256   5.420  10.610   3.850
53531W        W25257  35.805   4.434  12.323
53532W        W25258  19.770   9.395  11.897
53533W        W25259  34.925   2.951   3.124
53534W        W25260   9.687  11.588  13.114
53535W        W25261  19.749  23.991  14.016
53536W        W25262  44.350  24.161  14.753
53537W        W25263   4.881  21.474  14.032
53538W        W25264  34.077  44.200   1.758
53539W        W25265  42.643  12.231  14.155
53540W        W25266  31.319  21.172  10.518
53541W        W25267  30.430  41.606  11.871
53542W        W25268   5.691   2.054   4.109
53543W        W25269  12.801  21.144  14.831
53544W        W25270  36.042  39.591   0.535
53545W        W25271  36.070  27.722  12.877
53546W        W25272  26.985  12.112   3.723
53547W        W25273  16.664   6.118  13.967
53548W        W25274  11.117  26.998   1.195
53549W        W25275  21.240  32.958   0.877
53550W        W25276  36.300  21.254   1.865
53551W        W25277   4.813  13.255  10.747
53552W        W25278  42.839  19.517   0.731
53553W        W25279  20.801  37.094   1.296
53554W        W25280   3.039   9.788   2.836
53555W        W25281   1.053  40.308   1.843
53556W        W25282  41.961  10.141  11.090
53557W        W25283  19.917   1.288  11.733
53558W        W25284  33.543  24.597  11.478
53559W        W25285  21.361  41.777   2.417
53560W        W25286  25.809  38.631   2.626
53561W        W25287   1.953   6.203  10.733
53562W        W25288  28.468   9.316  11.666
53563W        W25289  38.467  23.483  14.495
53564W        W25290  37.279  25.245   3.917
53565W        W25291  37.757  25.013   4.070
53566W        W25292  23.406   7.870  14.267
53567W        W25293  18.172  37.388  14.309
53568W        W25294  18.241  16.972  12.388
53569W        W25295  29.506   7.510   4.494
53570W        W25296  44.036  37.863  14.735
53571W        W25297   8.322   3.474  13.990
53572W        W25298  40.931  19.410  11.539
53573W        W25299  14.645  25.884   2.820
53574W        W25300   2.275  43.338   0.898
53575W        W25301  21.081  32.368  13.998
53576W        W25302  22.988  18.246   4.448
53577W        W25303  20.257  25.906  12.437
53578W        W25304  20.650   1.265  14.932
53579W        W25305  34.689  24.705   0.738
53580W        W25306   0.442  38.507  13.140
53581W        W25307  19.512  10.181  13.431
53582W        W25308  30.843  34.087   3.284
53583W        W25309   9.617  13.393   2.881
53584W        W25310  22.655  30.876  14.840
53585W        W25311  29.628  33.793  13.486
53586W        W25312  33.377  43.464  10.947
53587W        W25313   8.106  26.712   1.293
53588W        W25314   9.278  32.112  13.386
53589W        W25315  14.876  29.045  11.302
53590W        W25316   6.209  15.547   0.369
53591W        W25317  38.072  30.379  14.326
53592W        W25318  24.520  43.836  14.919
53593W        W25319  24.919  14.630   3.885
53594W        W25320   2.964  20.445  13.999
53595W        W25321  35.888  13.334   4.649
53596W        W25322  16.958  10.918   0.276
53597W        W25323  10.172   7.589  14.332
53598W        W25324  22.779  41.972   0.830
53599W        W25325   2.492   9.814   4.517
53600W        W25326  31.202  12.756  11.559
53601W        W25327  18.365  21.775   0.604
53602W        W25328   5.300  30.067   1.030
53603W        W25329  26.341  36.401  13.544
53604W        W25330   8.389   2.694  10.641
53605W        W25331  25.940  28.954  11.364
53606W        W25332  44.692  33.320  11.166
53607W        W25333  42.985  44.529   0.340
53608W        W25334  38.840  42.012  12.644
53609W        W25335  34.333   0.057  14.431
53610W        W25336  14.653   4.177   3.314
53611W        W25337  12.667  35.503  11.234
53612W        W25338  11.631  23.007   2.646
53613W        W25339   8.134  11.389  12.177
53614W        W25340  35.412  15.522  13.068
53615W        W25341  21.328  11.619  11.046
53616W        W25342  40.377  31.350   0.473
53617W        W25343  25.631  34.938  12.590
53618W        W25344   2.309   2.235  14.932
53619W        W25345  19.641  34.644  12.880
53620W        W25346  43.155   9.625   3.159
53621W        W25347  24.025   0.360   5.116
53622W        W25348  29.226  25.294   4.991
53623W        W25349  10.690  26.617   3.207
53624W        W25350  27.057   1.449   3.193
53625W        W25351  21.095  44.481  11.969
53626W        W25352  26.767   5.404  10.673
53627W        W25353  31.620  18.329   3.313
53628W        W25354  21.612  15.060   9.709
53629W        W25355  28.383   4.318  14.525
53630W        W25356  34.069   3.086   3.653
53631W        W25357  23.575   6.867   0.336
53632W        W25358  33.564  17.188   2.626
53633W        W25359  31.537  12.826  10.654
53634W        W25360  41.212  18.562  13.797
53635W        W25361   8.721  36.401  11.407
53636W        W25362  28.507  31.739   1.856
53637W        W25363  19.625   4.709   2.777
53638W        W25364   0.520  11.018  12.442
53639W        W25365  33.102  14.076  12.955
53640W        W25366  38.745  34.438  14.943
53641W        W25367  18.759  43.757   4.243
53642W        W25368  29.465  32.635  11.886
53643W        W25369  27.980  16.461   0.385
53644W        W25370  43.045  17.071   2.399
53645W        W25371  28.846   7.609  12.373
53646W        W25372  13.740  27.923   4.997
53647W        W25373  33.661  10.321  10.880
53648W        W25374  43.356   7.708   0.652
53649W        W25375  27.771  32.327   4.639
53650W        W25376  24.095  21.941  11.098
53651W        W25377  12.882   6.920  12.171
53652W        W25378   8.903  23.547   0.703
53653W        W25379  20.480  33.322  11.081
53654W        W25380   4.000   1.919  14.382
53655W        W25381   9.479  10.542   2.154
53656W        W25382  28.013  44.032  10.452
53657W        W25383  30.020  10.703   4.551
53658W        W25384  11.873  43.441  11.963
53659W        W25385  37.960  17.533   0.302
53660W        W25386  35.159  23.503   3.221
53661W        W25387   6.447  33.183   3.170
53662W        W25388  36.279   1.966   1.888
53663W        W25389  18.772  19.807  13.372
53664W        W25390   5.338  15.024   1.855
53665W        W25391  18.743  31.166  13.324
53666W        W25392  30.468  31.845   0.326
53667W        W25393  38.452  14.232   0.972
53668W        W25394   6.572   4.812  12.328
53669W        W25395  14.262  34.597   3.233
53670W        W25396  42.972  42.709   4.148
53671W        W25397  20.684   7.963   3.665
53672W        W25398  31.022  23.254  10.202
53673W        W25399  22.925   3.773  11.964
53674W        W25400  13.698  38.450   3.073
53675W        W25401  17.912  43.339   3.877
53676W        W25402  15.884  30.699  11.132
53677W        W25403  31.402  13.389   4.566
53678W        W25404  13.017  30.960   1.312
53679W        W25405   3.213  15.240  10.456
53680W        W25406   6.355   2.575   0.121
53681W        W25407  37.089  31.518   0.762
53682W        W25408  23.187  23.296  13.343
53683W        W25409  30.463  24.705   3.778
53684W        W25410  25.562  25.761  13.967
53685W        W25411  32.396  19.627   4.961
53686W        W25412   2.770   4.761   1.925
53687W        W25413  30.676  17.777   1.925
53688W        W25414  25.927  33.803   1.854
53689W        W25415  15.072   5.265  12.284
53690W        W25416  30.065  16.345   1.657
53691W        W25417   5.163  26.954  13.507
53692W        W25418  38.096  44.563   4.174
53693W        W25419  30.357  14.761   1.343
53694W        W25420  14.155  30.592  12.183
53695W        W25421  19.237  18.017  14.454
53696W        W25422  24.137  14.703  13.363
53697W        W25423  23.205  24.266   4.765
53698W        W25424  29.655   2.269   1.096
53699W        W25425  42.125  11.632  11.916
53700W        W25426  13.334  23.435   2.921
53701W        W25427  26.500   9.671  12.797
53702W        W25428  16.242   1.446  13.933
53703W        W25429  41.396   5.348  12.405
53704W        W25430  43.430  17.966  11.952
53705W        W25431  15.179  19.606  14.600
53706W        W25432  25.697   3.847  12.038
53707W        W25433  29.682  10.965  10.860
53708W        W25434   0.015   5.402  11.156
53709W        W25435   0.553   0.412   3.122
53710W        W25436  39.361  37.341  10.808
53711W        W25437   3.234  37.935   1.992
53712W        W25438  15.238  20.044   0.775
53713W        W25439  23.283   1.935  11.286
53714W        W25440  19.028   2.915   2.418
53715W        W25441  38.865  39.503   0.891
53716W        W25442  29.621  27.996   1.031
53717W        W25443  42.894  44.061  12.172
53718W        W25444   3.805  16.735  11.135
53719W        W25445  35.995  23.252   2.175
53720W        W25446  13.706   2.412   2.300
53721W        W25447  15.296  11.641  12.432
53722W        W25448  39.859  32.698   0.413
53723W        W25449   9.429   9.410  12.023
53724W        W25450  12.372  30.708  12.991
53725W        W25451  10.204  38.538  13.473
53726W        W25452  25.821  21.772   1.379
53727W        W25453  21.977   1.254  12.110
53728W        W25454   2.319  25.631   3.633
53729W        W25455   5.727  36.433   0.853
53730W        W25456  13.162  16.198   0.447
53731W        W25457  15.605  10.620  14.951
53732W        W25458  33.108  22.708  14.352
53733W        W25459   6.529  16.094  13.862
53734W        W25460   4.423   9.163  14.914
53735W        W25461  13.187   3.978  14.753
53736W        W25462   2.359   0.391   1.600
53737W        W25463  14.789   5.107  11.426
53738W        W25464  32.900  29.293  13.876
53739W        W25465  16.162  44.773   0.552
53740W        W25466  21.795   5.394  11.939
53741W        W25467   7.828  21.492   2.372
53742W        W25468  28.440  29.700  11.533
53743W        W25469  44.975  18.662  13.056
53744W        W25470  40.401  36.619  14.790
53745W        W25471  34.599  23.506  12.291
53746W        W25472   8.465  18.702   3.564
53747W        W25473   6.638  24.359  11.066
53748W        W25474  27.189  39.870   4.129
53749W        W25475  44.405   2.384   2.645
53750W        W25476  37.165   6.295   0.209
53751W        W25477  14.715  36.804  14.857
53752W        W25478  44.490   9.477  12.466
53753W        W25479  21.576  31.994   1.567
53754W        W25480   8.822   1.937   4.690
53755W        W25481  19.664  21.054   1.200
53756W        W25482  30.132  38.963  13.382
53757W        W25483  33.779   4.919  10.547
53758W        W25484   8.126  30.116  11.119
53759W        W25485  32.433  15.967   3.557
53760W        W25486  13.433  41.671  11.528
53761W        W25487  30.447  39.404   2.823
53762W        W25488  41.728  20.223  14.378
53763W        W25489  21.153  31.588   2.241
53764W        W25490  20.366  12.145   0.777
53765W        W25491  28.663  26.774  11.585
53766W        W25492  35.772  14.042   1.821
53767W        W25493  43.579  39.094   3.917
53768W        W25494   7.242   8.943   3.475
53769W        W25495  16.612  26.491   4.574
53770W        W25496  24.626  41.999  14.464
53771W        W25497   5.167  18.466  12.089
53772W        W25498  21.541   3.710  12.992
53773W        W25499  24.987  27.547   2.358
53774W        W25500  33.210  43.305   4.742
53775W        W25501  19.603  12.921  14.529
53776W        W25502  17.800  10.435  11.156
53777W        W25503  19.085   4.246   4.573
53778W        W25504  24.685  15.297   0.891
53779W        W25505  11.273  30.597   2.164
53780W        W25506  12.846   9.799  10.587
53781W        W25507  39.299  27.644  12.859
53782W        W25508  43.892   7.364   3.229
53783W        W25509   1.095   2.258   1.392
53784W        W25510  15.850  41.597   4.273
53785W        W25511  22.452  19.250   2.562
53786W        W25512  21.036   9.165   2.136
53787W        W25513  29.561  26.092   4.735
53788W        W25514  15.043  27.553   1.298
53789W        W25515  38.988  35.078   1.018
53790W        W25516  15.565   2.983   1.336
53791W        W25517  35.522  27.625   3.953
53792W        W25518   2.476  39.680  14.810
53793W        W25519  26.213  29.622   4.670
53794W        W25520  32.079  33.094  11.194
53795W        W25521  40.836   0.728  10.773
53796W        W25522  42.682   7.985   2.753
53797W        W25523  21.703  16.369   1.406
53798W        W25524   5.724  34.850   4.541
53799W        W25525  15.754   2.866   3.144
53800W        W25526   5.868  24.680  10.957
53801W        W25527   1.676   2.244  10.648
53802W        W25528  30.876  22.226  10.787
53803W        W25529  17.147   7.249   3.162
53804W        W25530  30.100   4.078   1.710
53805W        W25531  20.835  35.926  10.678
53806W        W25532  27.137  14.030  10.256
53807W        W25533  26.007   1.823   3.361
53808W        W25534   7.983  35.871   1.387
53809W        W25535  31.838   1.936   3.078
53810W        W25536  44.214  32.078   5.152
53811W        W25537  43.577  40.445  13.481
53812W        W25538   8.850  44.012   3.573
53813W        W25539  21.065   9.396  13.626
53814W        W25540   0.763  35.340  13.124
53815W        W25541  35.408  28.513   2.540
53816W        W25542   4.290  41.406   0.372
53817W        W25543  12.352  22.800  13.932
53818W        W25544  19.277  17.634  13.892
53819W        W25545  28.391  17.596  14.768
53820W        W25546   0.165  14.907   1.256
53821W        W25547  14.279  43.751  14.931
53822W        W25548  31.905   6.414  11.566
53823W        W25549  32.627  13.703   4.526
53824W        W25550  41.553   1.764  14.878
53825W        W25551  38.291  37.671   3.805
53826W        W25552  31.384  41.766  11.584
53827W        W25553  42.253  12.729   1.746
53828W        W25554  20.067   4.944  14.005
53829W        W25555   0.445  19.375   3.441
53830W        W25556  19.082  13.533  13.081
53831W        W25557   6.273  24.178   4.580
53832W        W25558  22.550  18.790   0.920
53833W        W25559  15.139  22.938   2.659
53834W        W25560  22.962   0.321   1.001
53835W        W25561  30.553  41.312  12.437
53836W        W25562  34.232  11.266   3.073
53837W        W25563  42.261  21.719  14.001
53838W        W25564  44.299  13.652   4.299
53839W        W25565  20.718  10.264   2.083
53840W        W25566  41.115   9.412  12.538
53841W        W25567  11.696  34.885   1.235
53842W        W25568  11.367  20.520   4.219
53843W        W25569  11.561   4.111   4.129
53844W        W25570  17.140  32.993   1.679
53845W        W25571  31.474  44.744   2.339
53846W        W25572  23.052   8.741  12.053
53847W        W25573  34.977  17.272  11.256
53848W        W25574  16.880  14.755  12.265
53849W        W25575  31.010  11.882   1.274
53850W        W25576  21.897  12.336  14.671
53851W        W25577  28.648  35.973  13.223
53852W        W25578   4.298   9.641  10.741
53853W        W25579  42.331  30.932   1.157
53854W        W25580   5.268  14.818  10.660
53855W        W25581  26.011  25.938  14.192
53856W        W25582  33.022  27.689  12.368
53857W        W25583  12.013  25.117   4.582
53858W        W25584  41.807   6.985   4.674
53859W        W25585  36.057  24.516   0.950
53860W        W25586  20.399  18.168   1.768
53861W        W25587  44.548   1.868   2.658
53862W        W25588   2.820  17.488   3.198
53863W        W25589  42.682   0.127  11.190
53864W        W25590  40.541  13.876  14.351
53865W        W25591  16.244  39.787  13.516
53866W        W25592  44.763   6.652  14.328
53867W        W25593   8.279  26.352  10.643
53868W        W25594   3.776   0.476  12.005
53869W        W25595  26.471  24.134   0.678
53870W        W25596  24.959  22.556  10.422
53871W        W25597  33.478  15.199  10.502
53872W        W25598  20.606  20.278  10.654
53873W        W25599  38.927   9.919   1.768
53874W        W25600   9.257   0.413   1.829
53875W        W25601  13.660  29.880  13.480
53876W        W25602  33.001  30.517  12.036
53877W        W25603  17.760   7.485   2.795
53878W        W25604  19.568   8.061  11.999
53879W        W25605  43.256  22.601  12.558
53880W        W25606  18.336  39.560   2.230
53881W        W25607  34.928  24.095   4.212
53882W        W25608   9.827   2.899  12.119
53883W        W25609  38.878  14.258  10.977
53884W        W25610  18.063   1.719  14.501
53885W        W25611  24.190  22.228  10.677
53886W        W25612  22.207   5.924   4.301
53887W        W25613   6.489  27.440  11.631
53888W        W25614  39.365  40.465   1.016
53889W        W25615   9.288  41.959  13.872
53890W        W25616   2.283  25.922  13.990
53891W        W25617  28.132  17.227  12.158
53892W        W25618  43.723  11.342  12.518
53893W        W25619  42.883   0.968   4.900
53894W        W25620  43.380  22.344  13.497
53895W        W25621  24.388  37.367  13.281
53896W        W25622  13.239   6.377   0.888
53897W        W25623   1.801  30.093   0.251
53898W        W25624  39.301   6.861  13.972
53899W        W25625  30.992   3.907   1.272
53900W        W25626  24.169  36.945  14.603
53901W        W25627  42.086  25.106   2.982
53902W        W25628  32.285  30.557  14.837
53903W        W25629  25.172  19.771   0.034
53904W        W25630  26.366   0.388   5.429
53905W        W25631  32.493  17.161  13.142
53906W        W25632  14.035  11.372   2.013
53907W        W25633   5.257  14.829   2.842
53908W        W25634   1.483  29.411  13.872
53909W        W25635  15.705  38.667  14.488
53910W        W25636   8.789  31.473  10.657
53911W        W25637  26.179  21.745  13.821
53912W        W25638   8.632   0.160   2.695
53913W        W25639  24.187  29.728   4.123
53914W        W25640   4.244   2.411  14.338
53915W        W25641  34.593  32.181  14.960
53916W        W25642  44.405  11.648   2.203
53917W        W25643  31.359   8.741   1.383
53918W        W25644  34.120  22.169  12.983
53919W        W25645  17.098  10.596   1.513
53920W        W25646  22.342  30.378  14.361
53921W        W25647  31.605  13.049   3.707
53922W        W25648  43.315   4.276   1.077
53923W        W25649   1.422  22.097  14.315
53924W        W25650  34.822  12.444  14.180
53925W        W25651  23.210  16.107   1.335
53926W        W25652   7.994  42.225  12.508
53927W        W25653  15.571  11.872  13.410
53928W        W25654  32.869  43.970  12.806
53929W        W25655  25.959  16.363   2.248
53930W        W25656  35.906  18.494   0.629
53931W        W25657  29.720   7.198   2.301
53932W        W25658  30.716  34.560  12.552
53933W        W25659  13.200   5.372   0.678
53934W        W25660  13.616  42.357   1.911
53935W        W25661  19.282  21.604  12.684
53936W        W25662  42.499  30.348   4.796
53937W        W25663  38.929  12.304  11.847
53938W        W25664  23.138  16.059   0.438
53939W        W25665  34.739  29.293   1.148
53940W        W25666   9.196  40.951  12.963
53941W        W25667   8.765  12.465   1.237
53942W        W25668  27.529  10.201   4.546
53943W        W25669  21.101  20.723  10.637
53944W        W25670  11.734  30.669   1.601
53945W        W25671   7.695   0.063   2.888
53946W        W25672  21.234  31.947   0.187
53947W        W25673  31.366   9.832  13.730
53948W        W25674   6.380  14.093   3.303
53949W        W25675  23.321  32.680  12.308
53950W        W25676  32.566  22.223  12.108
53951W        W25677  19.626  17.186   0.219
53952W        W25678   4.520  39.171   2.168
53953W        W25679  36.049  43.566  12.088
53954W        W25680  39.310  25.786  12.353
53955W        W25681  30.736  13.090   2.206
53956W        W25682  13.256   0.689   4.651
53957W        W25683  14.196  35.071  13.438
53958W        W25684   5.084  39.990   2.379
53959W        W25685  41.357  38.261   4.509
53960W        W25686   2.720  15.308  11.157
53961W        W25687  16.316  22.627   4.142
53962W        W25688  22.596  37.633  14.813
53963W        W25689  27.481   5.224  12.470
53964W        W25690  34.931  15.784  11.105
53965W        W25691  10.593  12.436   2.835
53966W        W25692  22.392  25.984  10.350
53967W        W25693   5.821  19.279  11.875
53968W        W25694  43.224  27.440  13.060
53969W        W25695  29.605  31.661  11.172
53970W        W25696  12.329  10.973   2.389
53971W        W25697  39.903  18.473   0.712
53972W        W25698  10.160  40.533   4.145
53973W        W25699  34.374  14.276   3.708
53974W        W25700  18.157  12.246  12.337
53975W        W25701   4.520  39.599   1.759
53976W        W25702  42.982  17.144   0.228
53977W        W25703   4.408  23.748  14.454
53978W        W25704  22.174   8.378   1.259
53979W        W25705  19.509   6.613  11.131
53980W        W25706  23.570  39.261  14.681
53981W        W25707  30.799  11.327  14.498
53982W        W25708  33.558  11.352  10.379
53983W        W25709  32.153  42.501   2.595
53984W        W25710  24.138   0.087  10.625
53985W        W25711  35.832  36.927   3.224
53986W        W25712  26.598  40.027  12.978
53987W        W25713  27.171  34.003   2.713
53988W        W25714  16.720  38.735   3.055
53989W        W25715  19.040  34.068  10.577
53990W        W25716  15.270  15.167  13.139
53991W        W25717  24.930   3.866  12.364
53992W        W25718   8.873   8.950  12.012
53993W        W25719  31.486  29.460  11.391
53994W        W25720  28.125  37.643   1.762
53995W        W25721  16.929   0.261   4.689
53996W        W25722  19.226  24.344   2.315
53997W        W25723  11.848  24.710  12.557
53998W        W25724  26.478  20.058   0.494
53999W        W25725   2.803  20.157   2.277
54000W        W25726  44.768  24.701   0.232
54001W        W25727  40.419   3.461   5.019
54002W        W25728  29.464  43.541  11.669
54003W        W25729  20.445  33.460  12.384
54004W        W25730   4.628   4.349   0.046
54005W        W25731   5.860   1.286  11.785
54006W        W25732  13.774  27.126  12.518
54007W        W25733  41.740  16.150  11.941
54008W        W25734   1.900  37.572   0.830
54009W        W25735  23.280  16.657  13.977
54010W        W25736  17.039  18.580  13.976
54011W        W25737  19.761  43.721  14.902
54012W        W25738  15.068  43.173   0.337
54013W        W25739  37.871  21.914  13.428
54014W        W25740  20.754  20.734   0.593
54015W        W25741  40.864   9.672   3.118
54016W        W25742  43.800   2.987   1.289
54017W        W25743  21.192  30.198  11.622
54018W        W25744  23.165  11.937   1.286
54019W        W25745  26.983  28.134  13.356
54020W        W25746  21.751  14.788   2.708
54021W        W25747  29.165  23.498   1.240
54022W        W25748  11.662  11.379  10.641
54023W        W25749   8.816   3.000  10.509
54024W        W25750  22.942   7.908  14.517
54025W        W25751  26.182   2.430  14.443
54026W        W25752  14.932  20.232  11.621
54027W        W25753  14.914  13.271   3.241
54028W        W25754  32.519  21.671  11.614
54029W        W25755   3.862   9.188  12.967
54030W        W25756  36.871  36.595  12.920
54031W        W25757  19.963  29.203  14.304
54032W        W25758  18.997  17.294  14.895
54033W        W25759  38.315   1.842   4.860
54034W        W25760   1.793  23.178  12.438
54035W        W25761   9.223   8.632   2.632
54036W        W25762  36.788  14.414  12.511
54037W        W25763  34.346  40.415   1.227
54038W        W25764  35.610   6.144   0.287
54039W        W25765  20.253  19.857   3.829
54040W        W25766  38.115   5.385   2.228
54041W        W25767   9.907  25.423   1.375
54042W        W25768   1.732  30.523   2.251
54043W        W25769  23.609   7.778   1.433
54044W        W25770  13.695   2.847   3.355
54045W        W25771  10.404  12.730  13.996
54046W        W25772   8.286   4.376  12.630
54047W        W25773  35.194  29.447   3.212
54048W        W25774   1.348  23.207   3.232
54049W        W25775  44.100   2.768   2.245
54050W        W25776  31.474   9.861  14.696
54051W        W25777   1.300  14.634   4.878
54052W        W25778  27.491  12.854   0.964
54053W        W25779  40.279  13.516   1.885
54054W        W25780  34.100   0.263  12.151
54055W        W25781   1.122  42.678   1.921
54056W        W25782  12.555  42.931  13.899
54057W        W25783  25.714  18.121  10.696
54058W        W25784  26.488  17.467  12.537
54059W        W25785  37.341  21.521   4.300
54060W        W25786  21.982  25.970  12.008
54061W        W25787   2.784  37.594  13.432
54062W        W25788  26.553  18.304   0.761
54063W        W25789   4.758   5.943   3.585
54064W        W25790   6.527   6.386   5.065
54065W        W25791   3.981  32.504   1.767
54066W        W25792   9.773  18.867   0.222
54067W        W25793   8.340  37.924  12.988
54068W        W25794  25.232  44.888   2.219
54069W        W25795   1.134   4.201   1.210
54070W        W25796  21.124   1.233  11.666
54071W        W25797   1.955   7.801   3.565
54072W        W25798  20.749  26.710   4.354
54073W        W25799  26.043   2.742   3.941
54074W        W25800  22.548  39.530  14.835
54075W        W25801   6.387  30.686  13.919
54076W        W25802  44.270  33.295   0.325
54077W        W25803  16.174  15.062  14.070
54078W        W25804  12.289  31.087   2.162
54079W        W25805   5.757   7.626   3.231
54080W        W25806  28.507  22.986   4.557
54081W        W25807  32.031  28.118   3.765
54082W        W25808   9.558  24.589   1.840
54083W        W25809  24.527  12.568   1.421
54084W        W25810  21.081  40.075  14.996
54085W        W25811  33.481  19.285  14.342
54086W        W25812  40.452  25.622  13.603
54087W        W25813   5.710  42.460  14.257
54088W        W25814  38.600  42.899   0.359
54089W        W25815  22.290  16.575  14.030
54090W        W25816  35.519  23.484  14.406
54091W        W25817  18.455  31.350  11.201
54092W        W25818   5.651   4.118  10.372
54093W        W25819   3.728  16.790  12.037
54094W        W25820   5.854  22.207  12.046
54095W        W25821  36.579  42.824  13.855
54096W        W25822  22.972  37.547   0.641
54097W        W25823   6.796  35.508   2.315
54098W        W25824  15.031   0.537   1.387
54099W        W25825  31.936  37.734  10.150
54100W        W25826  19.783   5.650   0.269
54101W        W25827  23.694   8.411   3.689
54102W        W25828   3.376  25.655   3.721
54103W        W25829  10.422  20.777   3.193
54104W        W25830   1.432  40.719   2.219
54105W        W25831  25.668  11.591   1.464
54106W        W25832  21.253  39.046   3.717
54107W        W25833  26.777  31.985  11.506
54108W        W25834   4.056  11.218   2.332
54109W        W25835  39.771  12.153  12.537
54110W        W25836  38.328   5.275   0.865
54111W        W25837  35.217  38.899   0.088
54112W        W25838   7.053  32.170  14.812
54113W        W25839  16.324  41.734  11.520
54114W        W25840  39.478  15.972  14.768
54115W        W25841   3.364  15.628  13.333
54116W        W25842  22.731  22.315   2.660
54117W        W25843  29.698  38.431  13.930
54118W        W25844  32.360   4.791  14.467
54119W        W25845  13.016  14.809  13.600
54120W        W25846  14.143  32.050   2.261
54121W        W25847   8.366   9.435  12.033
54122W        W25848  12.861  29.693   0.477
54123W        W25849  35.887  41.236  11.158
54124W        W25850  21.743  13.217   4.900
54125W        W25851  37.587  24.580  14.571
54126W        W25852  39.068  40.288  14.678
54127W        W25853   8.964  34.569   3.235
54128W        W25854   7.927   6.424   2.739
54129W        W25855  40.796  39.555   1.060
54130W        W25856  26.478  28.661  11.104
54131W        W25857   6.315   5.712  11.369
54132W        W25858   2.615   6.811  12.891
54133W        W25859  24.960  21.566  13.525
54134W        W25860   4.634  40.861   4.398
54135W        W25861   5.501   5.369   0.533
54136W        W25862  36.464  33.422   3.189
54137W        W25863  19.623  30.343   0.227
54138W        W25864  25.644  30.838  12.371
54139W        W25865   6.383  31.523  10.459
54140W        W25866   7.943  38.769   2.869
54141W        W25867  15.797  30.111  14.029
54142W        W25868  28.905  34.854  11.425
54143W        W25869  39.473   0.752  13.494
54144W        W25870   5.271  12.089   1.942
54145W        W25871   4.302  29.066   0.794
54146W        W25872   6.346  42.177   3.791
54147W        W25873  35.700   3.300   0.954
54148W        W25874  20.279  44.474   1.456
54149W        W25875   8.349  27.607  10.674
54150W        W25876  13.150  41.412   3.704
54151W        W25877  22.512   8.263   2.319
54152W        W25878   6.672   9.169   3.173
54153W        W25879   6.436  10.848  12.436
54154W        W25880   8.255   2.890   1.740
54155W        W25881  13.756  19.730  13.358
54156W        W25882  31.379   2.768  14.871
54157W        W25883  40.219   3.375  11.370
54158W        W25884  22.602   4.891   2.238
54159W        W25885  32.825  12.420  13.405
54160W        W25886  32.094  28.915  13.436
54161W        W25887   5.046  15.699   2.388
54162W        W25888   2.752  34.128  10.622
54163W        W25889   8.175  12.152  12.661
54164W        W25890  29.590   6.761  10.785
54165W        W25891  30.949  16.704   1.888
54166W        W25892  42.897  16.218  12.464
54167W        W25893  32.299  24.701  12.491
54168W        W25894  36.952   2.769   4.218
54169W        W25895  10.153   4.500   1.764
54170W        W25896   6.142  39.833   9.953
54171W        W25897  22.745   9.347   0.242
54172W        W25898  31.466  30.949  14.014
54173W        W25899  24.687  14.779  14.017
54174W        W25900  22.478   0.856   1.421
54175W        W25901   0.753  10.135   3.680
54176W        W25902  29.443  30.378   3.280
54177W        W25903  33.575  20.093  11.855
54178W        W25904  21.614  41.513   3.195
54179W        W25905  32.636  17.321   1.895
54180W        W25906  23.901  15.214  10.689
54181W        W25907  16.157  33.695  11.500
54182W        W25908   1.372  30.360   1.924
54183W        W25909  13.403   2.430  11.136
54184W        W25910  23.678   0.589   0.571
54185W        W25911  35.021   8.915   9.586
54186W        W25912   2.692  24.653   4.329
54187W        W25913  30.388   7.765  10.602
54188W        W25914  37.396  20.526   0.835
54189W        W25915  12.733  14.585   2.443
54190W        W25916   6.334   1.424  11.636
54191W        W25917  23.287  34.558  13.411
54192W        W25918   0.828  24.217   1.846
54193W        W25919   7.662   7.412  13.978
54194W        W25920   1.909  37.635   2.951
54195W        W25921  41.988  23.955   5.241
54196W        W25922  38.904  40.798  12.396
54197W        W25923  37.405  26.115   1.024
54198W        W25924   7.166  37.221  11.877
54199W        W25925  19.847  25.226   4.331
54200W        W25926  38.010  22.043  14.913
54201W        W25927  36.906   7.907   0.422
54202W        W25928   8.199  34.673  11.899
54203W        W25929  39.786  39.007  14.472
54204W        W25930  11.258   6.526  14.470
54205W        W25931  38.948  32.550  13.829
54206W        W25932   7.611  19.675  11.715
54207W        W25933  36.037  38.987   4.508
54208W        W25934  25.225  33.155  12.503
54209W        W25935  42.388  17.615   2.358
54210W        W25936  41.602  38.310   0.366
54211W        W25937  23.115  20.486   0.691
54212W        W25938   6.793  42.225  14.964
54213W        W25939  12.364  39.100  13.455
54214W        W25940  16.211  43.740   3.450
54215W        W25941  41.416   1.495  13.540
54216W        W25942  16.569  18.236   0.358
54217W        W25943  15.104  29.642   3.790
54218W        W25944  36.028  31.024  12.390
54219W        W25945  19.225  25.283  11.377
54220W        W25946  22.061  25.704  10.699
54221W        W25947  37.809  32.551  14.393
54222W        W25948  23.982  35.546  10.471
54223W        W25949   8.793  21.359   4.206
54224W        W25950  14.158  40.580  14.747
54225W        W25951  38.333  24.773   4.670
54226W        W25952  15.423  34.991  12.047
54227W        W25953   1.761  15.152  14.741
54228W        W25954  24.123  33.056   3.255
54229W        W25955   3.447  10.132   0.301
54230W        W25956  25.533  22.376   0.441
54231W        W25957  33.024  29.626   1.790
54232W        W25958  24.357  25.047   4.444
54233W        W25959  42.801  35.641   3.304
54234W        W25960   8.177  35.000   4.318
54235W        W25961   1.306  41.618   0.464
54236W        W25962  38.877  14.692   3.613
54237W        W25963  44.030  36.569   2.043
54238W        W25964  10.688  29.633  10.111
54239W        W25965  12.120  13.308  14.629
54240W        W25966  44.469  34.500   0.705
54241W        W25967  44.643  35.422  14.212
54242W        W25968  30.396  30.942   1.527
54243W        W25969  41.476  19.720  12.954
54244W        W25970  17.605  21.034   0.846
54245W        W25971  20.704  12.307   1.966
54246W        W25972  21.854  22.796  14.505
54247W        W25973   4.437  26.117  14.866
54248W        W25974   4.391  40.237  12.291
54249W        W25975  40.807  41.345  14.014
54250W        W25976  32.048   9.250   3.323
54251W        W25977   4.435   6.097  11.176
54252W        W25978  37.418  15.211   1.722
54253W        W25979  31.883   9.840   0.895
54254W        W25980  34.344  35.249  12.950
54255W        W25981   8.155   0.936  13.830
54256W        W25982  23.648  41.327  13.690
54257W        W25983  44.402  31.907   1.734
54258W        W25984  12.444  33.984   0.798
54259W        W25985   4.490  18.601   4.672
54260W        W25986  37.266  28.420   0.757
54261W        W25987  28.527   6.732  14.791
54262W        W25988   2.468  17.390  10.222
54263W        W25989  28.717  44.970   4.140
54264W        W25990  35.592  43.374  14.327
54265W        W25991  24.437  15.244   3.101
54266W        W25992  40.839  35.597  13.819
54267W        W25993  13.361   8.621   4.224
54268W        W25994  41.976  43.314  12.941
54269W        W25995  21.797  21.802   2.764
54270W        W25996  26.624  25.157   0.774
54271W        W25997   7.110  18.086  11.085
54272W        W25998  11.234  40.096   4.594
54273W        W25999  37.568  33.132   2.607
54274W        W26000   0.009  25.053   3.201
54275W        W26001   0.226  33.810  11.532
54276W        W26002   2.278  15.155   1.821
54277W        W26003  37.487  33.060  14.638
54278W        W26004  42.387   8.242   3.871
54279W        W26005  13.679  36.030  10.677
54280W        W26006  11.450  18.590   3.343
54281W        W26007  10.914  12.713  12.031
54282W        W26008  35.946  37.817   2.213
54283W        W26009  20.753  23.600  13.554
54284W        W26010   6.146  11.604  13.045
54285W        W26011   2.987  16.027   3.339
54286W        W26012   8.701  29.842   2.686
54287W        W26013  22.154  34.867   4.402
54288W        W26014   9.181  16.186   0.806
54289W        W26015  30.166  22.793  11.023
54290W        W26016  40.971   5.315   0.820
54291W        W26017  33.841   1.129   1.914
54292W        W26018  21.720  15.345   0.282
54293W        W26019  26.977  44.931   0.239
54294W        W26020   7.411  42.817  10.721
54295W        W26021  23.330  20.899   1.329
54296W        W26022  20.068  18.647  11.000
54297W        W26023  34.954  20.735  14.118
54298W        W26024  16.177  27.432  13.899
54299W        W26025  43.511   6.736   4.067
54300W        W26026  23.057  18.633   0.824
54301W        W26027  26.815  33.493   3.846
54302W        W26028   2.931   9.132  12.938
54303W        W26029   7.548  43.897  12.579
54304W        W26030  17.700   7.168  10.583
54305W        W26031  33.566  30.472   0.879
54306W        W26032  19.557  37.477  14.027
54307W        W26033  16.143  37.426  12.032
54308W        W26034  15.044  27.111  13.608
54309W        W26035   4.719  15.276   3.687
54310W        W26036  34.888   7.321   2.641
54311W        W26037  18.122  38.516   4.768
54312W        W26038  44.950  31.379   3.170
54313W        W26039  36.572  30.344  11.408
54314W        W26040  32.547   6.594  14.515
54315W        W26041  24.296   4.460   2.498
54316W        W26042   7.858  14.027   2.253
54317W        W26043  32.992  11.680   3.661
54318W        W26044  27.569   2.032   1.973
54319W        W26045  25.640   4.732   4.337
54320W        W26046  32.479  11.435   4.034
54321W        W26047  31.148   9.644  11.058
54322W        W26048  37.306  29.183   4.536
54323W        W26049  33.053  37.336  14.393
54324W        W26050   1.715  14.684   3.138
54325W        W26051  15.070  21.025  14.478
54326W        W26052  39.433  13.915  14.391
54327W        W26053  39.934  24.135  10.651
54328W        W26054  11.763  43.683   0.952
54329W        W26055  21.331   0.234   1.845
54330W        W26056  21.030  38.527  10.723
54331W        W26057  40.601  43.009  11.038
54332W        W26058   3.730  11.758  10.930
54333W        W26059  37.122  38.443   2.334
54334W        W26060   5.487  16.066  12.911
54335W        W26061  20.699  27.618   2.141
54336W        W26062   2.739  21.129  11.573
54337W        W26063  23.559  16.446  10.650
54338W        W26064   6.832  30.251  10.861
54339W        W26065  14.895  24.637   3.725
54340W        W26066  23.065   1.402  11.194
54341W        W26067  27.100  31.397   2.871
54342W        W26068  25.469  25.080  14.323
54343W        W26069  23.692  21.099   0.999
54344W        W26070  44.946  27.477   1.474
54345W        W26071  31.655  14.336  11.565
54346W        W26072   2.636  40.855  11.221
54347W        W26073  26.942  34.413   4.054
54348W        W26074  20.792   5.431   1.874
54349W        W26075   7.339  41.416  13.835
54350W        W26076  41.830  34.491   4.228
54351W        W26077   7.965   1.441  12.998
54352W        W26078   5.145  43.290   3.564
54353W        W26079   5.766  20.527   2.446
54354W        W26080  39.062  41.791  13.562
54355W        W26081  40.767  19.181   2.632
54356W        W26082   9.709  21.613  14.793
54357W        W26083  17.837  43.467  14.956
54358W        W26084   4.612  22.189  11.065
54359W        W26085  20.249  37.853   0.043
54360W        W26086  34.339  23.187   2.739
54361W        W26087   4.864  19.134  12.457
54362W        W26088  27.555   0.045   3.831
54363W        W26089  31.481  29.430   9.878
54364W        W26090  16.554  10.288  12.882
54365W        W26091  44.284   8.032   1.334
54366W        W26092  40.782  26.211   1.796
54367W        W26093  15.508  23.115   4.071
54368W        W26094  15.364  16.637   1.671
54369W        W26095  41.475  33.905   3.138
54370W        W26096  35.455  24.120  13.941
54371W        W26097   5.129   5.359   1.492
54372W        W26098  13.682  41.611   0.898
54373W        W26099  44.492   7.471   4.156
54374W        W26100  43.465   0.536   4.593
54375W        W26101  43.078  27.130   2.386
54376W        W26102  16.252   8.911  14.994
54377W        W26103  24.326  19.124  12.162
54378W        W26104  10.803  37.794  14.225
54379W        W26105  32.874   9.320  12.962
54380W        W26106   6.135  24.023  12.963
54381W        W26107  42.374  11.490  13.534
54382W        W26108   8.327  19.825   4.561
54383W        W26109  42.571  13.701  14.998
54384W        W26110  40.316  14.234  14.667
54385W        W26111  34.063  34.676   1.439
54386W        W26112  11.917   3.677  11.654
54387W        W26113  42.937  43.472   3.638
54388W        W26114  15.269   9.520   3.792
54389W        W26115  21.541  44.329   4.528
54390W        W26116   3.413  29.478  12.679
54391W        W26117  39.997  43.245  13.114
54392W        W26118  16.625  18.284  11.640
54393W        W26119  40.930  38.928  11.500
54394W        W26120  39.589  34.448   3.032
54395W        W26121  16.089  31.798   0.386
54396W        W26122  10.759   8.131   1.203
54397W        W26123   4.258  42.818   2.168
54398W        W26124   8.399  44.362   3.079
54399W        W26125  12.616  30.819   0.339
54400W        W26126  25.139  36.140   0.330
54401W        W26127  37.766  16.205   0.723
54402W        W26128  24.654   3.691  13.534
54403W        W26129  33.628  34.022  12.952
54404W        W26130  12.434  40.394  11.112
54405W        W26131  11.373   1.512   1.233
54406W        W26132   8.749   4.874  13.343
54407W        W26133  18.654   4.210  10.351
54408W        W26134  33.451   0.477  14.203
54409W        W26135  16.098  16.872  11.981
54410W        W26136  24.205  14.682  12.449
54411W        W26137  25.516  24.571  14.513
54412W        W26138   9.778  33.044   4.125
54413W        W26139  24.873   8.446  10.885
54414W        W26140  31.824  32.899   3.076
54415W        W26141  28.130   8.451   4.290
54416W        W26142  28.626   6.386   0.163
54417W        W26143  36.447   5.801  13.262
54418W        W26144  14.327   4.013   2.902
54419W        W26145   5.281  24.089  12.610
54420W        W26146  24.466  25.078  11.224
54421W        W26147  19.269  18.817   3.780
54422W        W26148   2.262  28.242  10.222
54423W        W26149  13.222  21.339  14.594
54424W        W26150   9.901   2.468   4.875
54425W        W26151  28.911   7.887   1.352
54426W        W26152   4.407  16.645  10.341
54427W        W26153  13.669  34.537  10.452
54428W        W26154  21.783  13.243  10.648
54429W        W26155  42.302  19.067   1.016
54430W        W26156  19.985  34.446  11.213
54431W        W26157   8.195  16.898  11.198
54432W        W26158  20.871  11.697   4.540
54433W        W26159  40.339   1.133   3.570
54434W        W26160  17.178  33.666   0.471
54435W        W26161  44.720   8.682  11.218
54436W        W26162  40.080  20.971   3.801
54437W        W26163  35.998  14.778   2.344
54438W        W26164  32.581  24.580   5.129
54439W        W26165   0.267  10.346  12.517
54440W        W26166  22.020  40.057  12.322
54441W        W26167  30.616  39.575   1.838
54442W        W26168  40.877  44.844   4.137
54443W        W26169  10.456  27.421   2.697
54444W        W26170  39.118  31.879   1.778
54445W        W26171  22.142  10.658  14.820
54446W        W26172  17.201  42.462   1.964
54447W        W26173  16.266  31.492  12.399
54448W        W26174  31.865   5.186  11.979
54449W        W26175   9.332  39.385  14.906
54450W        W26176  36.597  35.679   0.688
54451W        W26177  35.998   5.705   1.934
54452W        W26178  29.135  11.853   0.691
54453W        W26179  28.893  29.104   3.609
54454W        W26180  39.445   4.128   0.169
54455W        W26181  28.888  27.222   0.050
54456W        W26182   7.716  38.029   1.336
54457W        W26183  17.293  21.979   0.797
54458W        W26184  21.507   1.934  10.660
54459W        W26185  35.492  44.275  13.717
54460W        W26186   8.264  22.268   1.315
54461W        W26187  34.852  11.200   4.565
54462W        W26188  44.756  24.718  14.224
54463W        W26189  31.541  22.749  10.530
54464W        W26190  29.356  14.075   2.696
54465W        W26191   5.202  15.203   1.391
54466W        W26192  25.094  24.253   4.774
54467W        W26193   6.027  37.342  10.316
54468W        W26194  17.177  22.172   3.867
54469W        W26195   5.893  15.696  13.340
54470W        W26196  33.497   1.965  10.120
54471W        W26197  17.829  29.165  11.460
54472W        W26198  28.524  22.141  10.734
54473W        W26199  41.458  18.858  13.410
54474W        W26200   5.216  23.513   4.163
54475W        W26201  39.984  14.459  11.575
54476W        W26202  33.932   9.658  14.845
54477W        W26203  35.068   5.472  12.711
54478W        W26204  28.175   6.717   1.388
54479W        W26205  18.580  32.476   2.839
54480W        W26206  31.913  13.265  14.831
54481W        W26207  24.129  43.334   4.950
54482W        W26208   6.486  40.759  12.323
54483W        W26209  37.117  28.174   1.188
54484W        W26210  12.011  34.261  11.140
54485W        W26211  14.660  32.555  13.100
54486W        W26212  30.050  12.364   0.892
54487W        W26213   2.274  40.812  12.051
54488W        W26214  43.366  44.506  12.527
54489W        W26215   8.688   7.627  14.489
54490W        W26216  44.297  43.737  13.844
54491W        W26217   9.859   6.752   1.227
54492W        W26218  21.395  37.709   3.369
54493W        W26219  12.298  19.832  11.092
54494W        W26220   7.418   1.743   2.210
54495W        W26221  38.927  20.776   4.279
54496W        W26222  14.206  13.817  11.685
54497W        W26223   4.539  32.809  14.590
54498W        W26224  44.405   0.260  12.280
54499W        W26225   7.128  29.226  12.975
54500W        W26226  41.083  44.967  13.880
54501W        W26227  14.372  33.586  14.454
54502W        W26228   6.676  31.531  14.098
54503W        W26229   3.755  39.562  11.461
54504W        W26230  30.251  21.411  14.869
54505W        W26231   9.638  26.557   3.189
54506W        W26232  39.030  27.522   1.223
54507W        W26233  21.407  35.044  14.001
54508W        W26234  25.467  17.136   1.684
54509W        W26235  22.411  25.147   3.531
54510W        W26236  10.008  37.031   1.020
54511W        W26237  34.793  12.074  11.546
54512W        W26238   5.277   1.396  13.140
54513W        W26239  37.247  31.756   3.441
54514W        W26240   0.556  11.352   4.224
54515W        W26241   4.855   3.740   3.859
54516W        W26242  28.940   3.228   2.046
54517W        W26243  36.978   8.203   4.482
54518W        W26244  21.259  21.261   3.055
54519W        W26245  31.143  10.983  10.558
54520W        W26246  18.753  38.908  11.702
54521W        W26247  31.274  15.601  11.171
54522W        W26248   9.268  28.417  11.590
54523W        W26249  18.077  41.308  12.109
54524W        W26250  38.441  25.465   0.484
54525W        W26251  38.374  26.511  11.109
54526W        W26252  44.453  35.967  14.445
54527W        W26253  27.382  37.900  11.699
54528W        W26254   3.364  44.706  12.802
54529W        W26255  17.254  37.106   0.242
54530W        W26256  28.075  32.825   1.397
54531W        W26257  42.060  27.655  12.916
54532W        W26258  19.978  44.481   3.234
54533W        W26259  43.570  13.893  11.189
54534W        W26260  12.111  12.331  14.312
54535W        W26261  14.650  16.779  11.167
54536W        W26262   3.431   4.739  14.256
54537W        W26263  18.243  17.745  13.022
54538W        W26264  14.694  33.370   1.771
54539W        W26265  41.466  33.441  14.884
54540W        W26266  29.432  30.354   5.201
54541W        W26267  21.637  27.529   5.115
54542W        W26268  25.502  37.638   3.744
54543W        W26269  33.835   4.438  13.989
54544W        W26270  17.208  35.655  11.917
54545W        W26271  22.531   1.736  13.002
54546W        W26272  31.025  36.450   0.270
54547W        W26273  19.687  34.598  11.955
54548W        W26274  24.601  31.627  12.971
54549W        W26275  35.902   2.883   3.273
54550W        W26276  31.639  32.418   1.290
54551W        W26277  36.307  28.148   2.188
54552W        W26278  39.871  30.835   1.907
54553W        W26279  25.161  34.830  11.534
54554W        W26280  20.486  11.726   2.719
54555W        W26281   6.573  30.882  11.772
54556W        W26282   5.283  18.530   1.500
54557W        W26283   9.345  39.498  11.150
54558W        W26284  13.578  16.838   1.181
54559W        W26285  24.683   6.454  14.940
54560W        W26286  13.149  40.334   1.828
54561W        W26287  31.136  23.230  13.220
54562W        W26288  33.853  41.119  11.184
54563W        W26289  13.798   4.490   1.718
54564W        W26290   0.483  37.603   4.849
54565W        W26291   7.992  33.169  13.926
54566W        W26292   0.078  13.805  11.131
54567W        W26293  27.488  10.896  12.418
54568W        W26294   9.320  19.310   2.496
54569W        W26295   0.768  27.812  12.084
54570W        W26296  16.299   7.351  10.757
54571W        W26297   1.848  28.151   4.222
54572W        W26298  39.135   1.114  13.541
54573W        W26299  24.467  11.893  12.129
54574W        W26300   6.181   7.754   3.671
54575W        W26301  35.181  13.417   4.137
54576W        W26302  13.288  30.940  12.284
54577W        W26303  13.140  12.423  11.187
54578W        W26304  34.123  23.128   1.497
54579W        W26305  34.623  15.620  10.742
54580W        W26306  12.012  35.777  12.889
54581W        W26307  17.972  12.163   4.137
54582W        W26308  27.435   0.489   3.611
54583W        W26309  33.103  33.344   4.325
54584W        W26310  40.311  43.501  12.223
54585W        W26311   2.818  37.552   0.847
54586W        W26312  22.528  19.919  10.801
54587W        W26313  22.579  29.928  11.886
54588W        W26314   2.218   0.981   3.179
54589W        W26315  38.922   4.886  12.042
54590W        W26316  27.474  18.588   1.837
54591W        W26317  30.442  41.617   1.316
54592W        W26318  30.360   6.234   0.123
54593W        W26319  20.814  28.638  13.545
54594W        W26320  21.231  44.527   1.347
54595W        W26321  34.644  34.568  14.027
54596W        W26322  22.196  17.878  12.497
54597W        W26323  37.667  31.443  14.923
54598W        W26324  33.870  29.980   4.407
54599W        W26325  24.736  36.003  13.008
54600W        W26326  38.642  39.442  11.135
54601W        W26327  40.190  22.530  14.884
54602W        W26328   0.404   6.440   1.800
54603W        W26329  27.234  17.069  14.208
54604W        W26330   3.871  44.388   0.712
54605W        W26331  22.645  19.086  13.379
54606W        W26332  43.517  43.962   2.422
54607W        W26333  27.368  40.845  12.812
54608W        W26334  40.872  24.918   1.880
54609W        W26335   4.154  33.372   1.448
54610W        W26336  35.027   2.805   0.340
54611W        W26337   1.239  18.904  13.763
54612W        W26338  22.665  39.860  13.975
54613W        W26339   6.487  27.591  14.470
54614W        W26340  44.843  21.093   3.613
54615W        W26341   4.417  23.453   2.680
54616W        W26342  19.278  27.619   0.852
54617W        W26343  37.813  43.905   3.634
54618W        W26344  36.968  35.581  12.903
54619W        W26345  36.308  42.069   2.943
54620W        W26346  14.132  37.979   1.400
54621W        W26347  14.233   5.655   1.922
54622W        W26348  39.973  20.070  11.037
54623W        W26349  19.262  42.909   1.763
54624W        W26350  36.025  16.399   3.331
54625W        W26351  25.869   4.021  14.468
54626W        W26352  31.148  21.654  10.628
54627W        W26353  16.683  33.069  11.127
54628W        W26354  18.696  29.009  12.453
54629W        W26355  43.990   7.672   4.231
54630W        W26356  20.301  15.303   1.991
54631W        W26357  11.136   1.307  11.604
54632W        W26358  25.222   8.565  12.485
54633W        W26359  25.718  28.516  11.516
54634W        W26360  35.545  26.693  13.857
54635W        W26361  23.070  41.440  14.947
54636W        W26362  34.409  19.773  12.999
54637W        W26363  24.983  26.104   4.812
54638W        W26364  25.844  15.604   2.738
54639W        W26365  11.919  32.207  10.435
54640W        W26366  27.509  29.970   3.036
54641W        W26367  18.115  21.951  13.292
54642W        W26368   2.210  13.255   2.860
54643W        W26369   0.728   9.808   4.075
54644W        W26370  10.317  28.168  12.915
54645W        W26371  29.469  35.608  11.662
54646W        W26372  12.373  32.013  11.587
54647W        W26373  33.164  37.951   2.188
54648W        W26374  26.077  23.120  14.033
54649W        W26375   7.743   2.464   4.507
54650W        W26376   3.255  11.196  13.571
54651W        W26377  12.782  34.089  13.731
54652W        W26378   4.352   7.417  12.528
54653W        W26379   8.728  38.902  13.638
54654W        W26380   9.702  24.226  12.682
54655W        W26381  31.621   4.984   0.359
54656W        W26382  14.309  33.123  11.942
54657W        W26383   0.478  44.794   4.629
54658W        W26384   9.316  15.142   3.579
54659W        W26385  41.552   0.406  11.611
54660W        W26386  33.056  27.637   3.332
54661W        W26387  37.542  30.841  13.129
54662W        W26388  43.067  15.214   0.322
54663W        W26389  31.506  44.870  10.709
54664W        W26390  36.410  23.752  11.042
54665W        W26391  32.617  14.518   4.077
54666W        W26392  22.290  24.190  14.471
54667W        W26393   2.404  16.840   3.725
54668W        W26394   2.467  26.527   0.291
54669W        W26395  42.084  39.153  11.983
54670W        W26396  18.551   3.225  12.570
54671W        W26397  14.703  30.457   4.194
54672W        W26398  15.364  18.078  11.973
54673W        W26399  21.592  22.216   1.838
54674W        W26400  12.884  19.566  14.820
54675W        W26401  10.200  35.895   2.334
54676W        W26402  17.675  19.264  14.044
54677W        W26403  22.983  44.490   3.200
54678W        W26404  44.320  31.934  11.357
54679W        W26405  13.927  35.228   5.228
54680W        W26406   2.412  20.190   4.639
54681W        W26407  33.007  42.857  11.411
54682W        W26408  23.066  37.397   3.546
54683W        W26409  14.340  15.711  12.714
54684W        W26410  33.577  32.987  12.702
54685W        W26411   1.571   4.795  13.319
54686W        W26412  40.494   9.336  14.480
54687W        W26413  21.688  41.464   2.692
54688W        W26414  25.216   6.473  14.888
54689W        W26415   1.746  33.991  14.044
54690W        W26416   3.531  27.725   2.820
54691W        W26417   4.360  20.796   4.046
54692W        W26418  40.578   4.749   4.153
54693W        W26419  32.156  23.187  14.798
54694W        W26420  21.134  13.568   2.871
54695W        W26421  22.456  39.384  13.817
54696W        W26422  30.116   8.408   4.612
54697W        W26423  13.111  21.112  12.432
54698W        W26424  30.200  25.940   0.876
54699W        W26425  38.077   4.860   2.742
54700W        W26426  38.311   1.864   1.832
54701W        W26427  13.408  30.332  10.464
54702W        W26428  16.148   4.823   1.337
54703W        W26429  37.225  20.998   0.962
54704W        W26430  31.473   1.436  11.011
54705W        W26431  35.499  31.476  11.370
54706W        W26432   8.237  44.064   1.294
54707W        W26433  25.176  41.619   0.258
54708W        W26434   2.493  40.384  12.860
54709W        W26435  40.554  10.808  14.006
54710W        W26436  44.570  21.693  14.830
54711W        W26437  19.306  27.142  12.988
54712W        W26438  20.613  21.575   0.801
54713W        W26439  16.766   9.045  12.487
54714W        W26440  12.878  17.030  14.417
54715W        W26441  38.968  16.211   2.674
54716W        W26442  43.075  29.075  10.473
54717W        W26443  37.304  36.527   1.323
54718W        W26444  12.658  15.720  12.343
54719W        W26445   7.855  29.234   0.816
54720W        W26446  24.719  23.726  13.110
54721W        W26447  33.009  34.576  13.997
54722W        W26448  16.198  12.042   2.736
54723W        W26449  40.288   0.696   2.234
54724W        W26450  41.442  14.756  13.356
54725W        W26451  24.666  44.931   2.478
54726W        W26452  37.575  28.017   1.858
54727W        W26453  43.090  39.953   0.772
54728W        W26454  40.325  29.962  14.303
54729W        W26455  34.335  29.154   0.149
54730W        W26456  27.993   5.802   0.289
54731W        W26457  16.847  19.322  12.989
54732W        W26458  34.314  24.119  14.487
54733W        W26459  37.586  44.713   4.105
54734W        W26460   0.215   6.106  12.876
54735W        W26461  13.141  28.114   1.584
54736W        W26462  25.158  15.553  11.309
54737W        W26463  10.176  36.413   3.064
54738W        W26464  32.218  36.582  12.621
54739W        W26465  43.300  13.109   5.188
54740W        W26466  43.224  41.572  10.741
54741W        W26467  31.768  31.042   4.399
54742W        W26468  35.192  31.895   2.312
54743W        W26469  30.190  32.049   0.748
54744W        W26470  16.770  34.978  11.492
54745W        W26471  24.265  25.584  14.341
54746W        W26472  39.744   5.011  11.145
54747W        W26473  26.424  21.351   1.850
54748W        W26474  10.952   5.595  12.446
54749W        W26475   7.773  35.808   2.717
54750W        W26476  22.019   1.298  13.080
54751W        W26477  39.413  18.234   4.506
54752W        W26478   8.657  11.124   1.317
54753W        W26479  15.182  36.571   2.472
54754W        W26480  18.592  27.973  11.728
54755W        W26481  30.421  25.895  12.508
54756W        W26482  24.553  43.726  13.671
54757W        W26483  33.970  37.441  12.123
54758W        W26484  16.568  25.603  13.049
54759W        W26485  33.971  34.373   0.032
54760W        W26486   9.756   0.277   0.880
54761W        W26487  36.484  43.644  14.766
54762W        W26488   6.242  31.255  11.586
54763W        W26489   2.199   1.714  11.983
54764W        W26490  44.995   2.669   2.858
54765W        W26491   7.767  12.669   2.001
54766W        W26492  40.618  28.961  13.472
54767W        W26493  26.136  21.597  14.922
54768W        W26494  11.578  38.424  11.544
54769W        W26495  42.833   8.493  14.450
54770W        W26496  27.780  18.630  11.472
54771W        W26497   9.150  36.047  13.937
54772W        W26498   8.288   1.978   2.856
54773W        W26499   5.663   4.976  13.535
54774W        W26500  22.828  10.761   3.638
54775W        W26501  25.369   7.191  10.761
54776W        W26502  12.796  37.035  12.654
54777W        W26503  43.732   1.344   3.576
54778W        W26504  21.627  33.435   4.895
54779W        W26505  18.063  30.065   1.685
54780W        W26506  34.476  13.222   0.808
54781W        W26507   2.966  44.358   2.746
54782W        W26508  31.531  12.369  11.582
54783W        W26509  39.607  42.312   1.525
54784W        W26510   3.402  23.242  13.576
54785W        W26511   2.882  39.990  14.896
54786W        W26512   8.609  29.013   2.690
54787W        W26513  11.633  20.605  12.935
54788W        W26514  25.537  24.736   0.537
54789W        W26515  22.455  28.506   1.474
54790W        W26516  26.592  40.946   1.203
54791W        W26517  43.481  15.734  12.486
54792W        W26518  12.088  14.644   0.290
54793W        W26519   8.439   6.948   4.021
54794W        W26520  33.864  22.812   3.403
54795W        W26521  25.499  30.135   4.634
54796W        W26522  12.461  31.947   1.880
54797W        W26523  22.588   1.946  10.693
54798W        W26524  43.489  17.057   4.448
54799W        W26525  35.923  23.275  14.123
54800W        W26526  33.480  40.449   2.291
54801W        W26527  36.171   1.412   4.099
54802W        W26528  19.174  26.381   1.048
54803W        W26529  24.374  20.854   3.808
54804W        W26530  35.828  17.745  13.708
54805W        W26531  10.202  33.228  10.110
54806W        W26532  21.727  17.666   0.767
54807W        W26533  35.516   9.873   0.930
54808W        W26534  31.667  35.107  13.967
54809W        W26535  39.324  14.827  13.519
54810W        W26536  12.277  15.806   2.784
54811W        W26537   2.179   5.902  12.586
54812W        W26538   6.880  15.367  13.500
54813W        W26539  15.830  29.811   1.271
54814W        W26540   4.807  30.908   0.754
54815W        W26541  37.773  18.359   2.827
54816W        W26542   4.278  25.052  11.408
54817W        W26543   9.101  41.537  13.573
54818W        W26544   4.836  35.821  11.569
54819W        W26545  33.500  21.625  11.533
54820W        W26546  28.146  37.895  14.388
54821W        W26547  26.536  31.421  13.045
54822W        W26548  44.709  12.244  11.541
54823W        W26549   5.209  11.335  11.628
54824W        W26550  24.638   2.676  14.725
54825W        W26551  44.999  22.285  11.075
54826W        W26552   0.729  12.092   1.917
54827W        W26553  15.175  41.084   5.058
54828W        W26554  28.019  40.780   3.324
54829W        W26555  19.745  42.589   3.177
54830W        W26556  10.874   0.197  14.898
54831W        W26557   6.355   9.226  12.066
54832W        W26558  38.934  40.877  13.728
54833W        W26559  17.008  11.283  12.213
54834W        W26560   5.694  23.584  14.773
54835W        W26561   0.466  15.206   0.967
54836W        W26562   1.488  43.041  12.698
54837W        W26563  14.101  17.256   0.480
54838W        W26564  44.329  36.451   1.209
54839W        W26565  27.486  22.997  14.870
54840W        W26566  26.129   0.727  13.708
54841W        W26567  40.367  20.937   2.218
54842W        W26568  38.941  21.330   0.922
54843W        W26569  31.624   0.350   4.168
54844W        W26570  21.729  41.235   0.275
54845W        W26571   4.424  38.543  11.848
54846W        W26572  34.975  32.773  11.161
54847W        W26573  41.714  19.611  13.991
54848W        W26574  29.621  44.680   0.784
54849W        W26575  35.400  31.191  12.994
54850W        W26576   0.658  16.656  13.978
54851W        W26577  28.279  25.943   3.234
54852W        W26578  32.563  36.345   4.312
54853W        W26579   7.726  41.399   3.045
54854W        W26580  28.985  39.484   1.146
54855W        W26581  40.869   6.810  12.833
54856W        W26582  27.652  18.090  14.377
54857W        W26583  13.630  15.519   0.362
54858W        W26584  14.425   2.845  10.703
54859W        W26585  15.560  40.285   4.934
54860W        W26586   6.305  20.564   3.222
54861W        W26587  33.409  41.544   0.405
54862W        W26588   8.662  14.624   0.952
54863W        W26589   8.742  15.092   4.825
54864W        W26590  42.311  32.016   1.246
54865W        W26591  22.886  34.365  12.633
54866W        W26592  30.911   6.221   2.257
54867W        W26593  38.953  40.360   0.216
54868W        W26594  43.452  16.142   1.955
54869W        W26595  17.169  30.321   4.276
54870W        W26596  15.574  21.004   2.225
54871W        W26597  19.491   7.715   1.423
54872W        W26598  39.544  10.701   2.853
54873W        W26599  13.214   0.920  14.129
54874W        W26600  29.026  29.010   1.659
54875W        W26601  41.567  11.164  13.006
54876W        W26602  14.539  24.220  11.149
54877W        W26603   4.108  38.018   0.495
54878W        W26604   0.729   5.291   1.443
54879W        W26605   4.210  40.736   4.679
54880W        W26606  15.744   0.467  11.168
54881W        W26607  19.056  28.786  10.513
54882W        W26608  29.155  20.665   0.874
54883W        W26609  28.236  35.906   1.263
54884W        W26610   9.641   0.407   4.397
54885W        W26611  10.217  24.993   3.805
54886W        W26612  10.344  14.704  12.948
54887W        W26613  25.238  24.105  14.444
54888W        W26614   6.429  40.932   4.308
54889W        W26615  10.411  20.741  10.536
54890W        W26616  19.915  10.168  13.056
54891W        W26617  26.272  30.742   5.044
54892W        W26618  20.511  33.863   0.492
54893W        W26619  24.442   4.783   2.874
54894W        W26620  16.504  29.946   1.793
54895W        W26621   5.774  14.421   1.716
54896W        W26622  37.412  44.958  13.225
54897W        W26623  16.318  40.910   0.866
54898W        W26624  20.779  40.523   3.720
54899W        W26625   7.419  20.419  12.824
54900W        W26626   5.243  27.204  11.167
54901W        W26627  18.761  24.698   2.303
54902W        W26628  43.666   3.250   2.828
54903W        W26629  31.940  19.473  12.239
54904W        W26630  19.088  13.952  13.891
54905W        W26631  25.516  32.590   2.226
54906W        W26632  44.743   7.160  11.402
54907W        W26633  40.052  13.766   0.138
54908W        W26634  38.965   9.159   2.192
54909W        W26635  44.442  33.770  11.160
54910W        W26636  18.843  32.896   2.232
54911W        W26637  13.316  22.422  13.958
54912W        W26638   1.767  33.883  11.482
54913W        W26639  30.538  12.126   4.099
54914W        W26640  39.876  20.323  11.482
54915W        W26641  30.000  31.845  14.221
54916W        W26642  38.976  30.494   3.815
54917W        W26643  20.652  11.674   1.659
54918W        W26644  12.938  34.289   1.443
54919W        W26645  28.902   9.854   3.325
54920W        W26646   3.508   1.742  12.462
54921W        W26647  27.046  15.545   4.090
54922W        W26648  15.261  31.439  14.986
54923W        W26649  35.198   3.875   1.863
54924W        W26650  23.272   8.983   2.881
54925W        W26651  38.481  35.448   4.761
54926W        W26652   5.154  35.483  10.576
54927W        W26653  42.772  37.866   4.660
54928W        W26654  38.368  34.339  10.590
54929W        W26655  13.539  12.751   2.898
54930W        W26656  13.768   8.779   2.828
54931W        W26657   7.841  17.782   2.865
54932W        W26658  20.165  12.605  13.768
54933W        W26659   9.634  23.452  13.239
54934W        W26660  30.174  38.979  14.205
54935W        W26661  34.465  37.270   0.202
54936W        W26662  41.939  11.392   3.682
54937W        W26663  23.321  18.529  13.165
54938W        W26664  20.111  29.246   4.532
54939W        W26665  20.065   3.653  10.759
54940W        W26666  35.339  17.080   4.187
54941W        W26667  42.356  41.117  10.411
54942W        W26668  33.893   1.499  13.340
54943W        W26669   9.467  35.835   4.044
54944W        W26670  16.096   5.310  12.036
54945W        W26671  22.681   4.938  14.451
54946W        W26672  21.005  19.771  12.433
54947W        W26673  35.384  15.506   0.790
54948W        W26674  30.872  16.599  13.562
54949W        W26675  41.804  14.847  11.539
54950W        W26676  35.335  34.540   4.374
54951W        W26677  34.460  10.320  12.800
54952W        W26678  31.396   4.824   0.894
54953W        W26679  22.022  33.690   1.759
54954W        W26680  32.151  43.989   1.156
54955W        W26681  20.190  25.075   0.720
54956W        W26682  13.835  30.981   0.904
54957W        W26683  16.526  40.791  13.711
54958W        W26684  14.818  13.290  10.745
54959W        W26685  23.054  13.725   1.681
54960W        W26686  29.626  38.187   2.300
54961W        W26687  15.093  22.582  11.436
54962W        W26688  34.442  24.673   4.700
54963W        W26689  22.785  19.644  12.976
54964W        W26690  37.163  18.795  10.861
54965W        W26691   3.565  27.362  13.797
54966W        W26692  23.382  26.623   3.325
54967W        W26693  34.836  29.074   4.452
54968W        W26694  25.546   1.321  14.843
54969W        W26695   4.705  26.803  10.210
54970W        W26696  40.798  43.477  13.736
54971W        W26697   5.924  44.817  10.130
54972W        W26698  33.989  21.518  12.502
54973W        W26699  15.113  27.048  11.900
54974W        W26700   8.957  43.832  13.331
54975W        W26701  38.513  35.082  14.360
54976W        W26702  26.651  32.031   2.215
54977W        W26703   5.461  10.729  12.850
54978W        W26704  29.509  41.800  10.057
54979W        W26705   3.850  37.868  12.448
54980W        W26706  23.524   3.753   0.521
54981W        W26707  28.435  15.685  14.621
54982W        W26708  27.107  37.511  12.544
54983W        W26709  27.794  18.156   2.282
54984W        W26710  31.846  25.567  11.593
54985W        W26711  25.887  30.669   1.009
54986W        W26712  25.441   9.915   0.222
54987W        W26713  34.510  36.618  12.046
54988W        W26714  40.422  43.723   1.162
54989W        W26715  39.318  44.047  11.151
54990W        W26716  25.029  23.459   3.236
54991W        W26717  11.311  16.208   2.807
54992W        W26718   0.220  22.691  13.012
54993W        W26719  28.826  34.443  12.132
54994W        W26720   9.138   7.859   3.169
54995W        W26721   9.684  34.842  10.639
54996W        W26722  41.080  37.951   3.059
54997W        W26723   3.279   1.566   2.185
54998W        W26724  40.311   2.690   2.282
54999W        W26725   4.694  12.276  12.014
55000W        W26726  38.369  25.911   0.827
55001W        W26727  30.994  13.700   4.660
55002W        W26728  32.048  44.520   4.065
55003W        W26729  41.504   9.596  11.861
55004W        W26730  33.160   4.785  13.035
55005W        W26731  29.881   3.062  10.638
55006W        W26732   8.778  23.189   1.109
55007W        W26733  36.107  16.698   1.335
55008W        W26734  28.318  24.273   4.157
55009W        W26735   0.340  12.432   1.812
55010W        W26736  13.616  19.521   4.765
55011W        W26737  19.742   7.275   1.241
55012W        W26738  22.606  29.502   2.169
55013W        W26739  12.218  37.257  14.806
55014W        W26740  31.262   6.608   2.218
55015W        W26741  37.572   1.526   2.797
55016W        W26742  29.686   4.666  13.146
55017W        W26743  28.325  35.418   3.200
55018W        W26744  34.995   3.158   1.306
55019W        W26745  30.272   3.415   1.170
55020W        W26746   3.520  31.476  14.075
55021W        W26747  20.206  30.425   0.778
55022W        W26748   0.495  33.171  13.924
55023W        W26749  20.522  16.718  11.141
55024W        W26750   9.421  36.946  14.043
55025W        W26751   3.970   8.222   4.297
55026W        W26752  22.405  26.872  14.385
55027W        W26753  35.889  30.519   0.434
55028W        W26754  23.081  32.665   3.794
55029W        W26755  16.559  10.235  14.477
55030W        W26756  30.844  43.850   2.317
55031W        W26757   8.082  42.953   4.558
55032W        W26758  30.665  10.781  13.348
55033W        W26759  20.742  38.307   0.843
55034W        W26760   5.311  10.490  13.861
55035W        W26761  29.502   9.349  12.444
55036W        W26762  40.878  27.184  11.606
55037W        W26763  16.224  35.168  12.380
55038W        W26764   5.499  15.095  11.103
55039W        W26765  35.497   4.890   0.794
55040W        W26766  19.585  34.049   2.810
55041W        W26767  34.995  29.488  14.268
55042W        W26768  22.085  23.576   2.043
55043W        W26769   0.722  33.846  11.466
55044W        W26770  36.707  30.932   4.327
55045W        W26771  13.585  41.104  12.447
55046W        W26772  20.065  36.839   2.297
55047W        W26773  12.066  18.319  11.952
55048W        W26774  36.519  33.869  11.563
55049W        W26775  28.054  14.106  13.780
55050W        W26776  22.616  27.465  10.428
55051W        W26777  43.454  12.224  10.407
55052W        W26778  22.170  44.771   1.058
55053W        W26779   5.288   2.286   5.060
55054W        W26780  22.524  14.018   0.261
55055W        W26781  36.479   1.401  13.017
55056W        W26782   8.412   6.463   0.553
55057W        W26783  15.672  38.776   3.740
55058W        W26784  30.688  10.773  11.461
55059W        W26785   6.209  19.146   9.857
55060W        W26786  40.389   8.904   3.103
55061W        W26787  11.999  28.214   3.347
55062W        W26788  28.706   2.314   4.722
55063W        W26789  26.467  17.304  14.052
55064W        W26790  27.827  31.552  12.573
55065W        W26791  41.384  31.602  10.567
55066W        W26792  29.604   5.138  14.553
55067W        W26793  18.619  42.133  10.598
55068W        W26794  12.611  31.672  12.968
55069W        W26795  13.712   5.963  13.880
55070W        W26796  28.639  16.984  13.909
55071W        W26797  37.093  31.314   3.181
55072W        W26798   7.619  22.768  12.161
55073W        W26799  20.555  25.361   1.357
55074W        W26800  11.816  11.385  12.392
55075W        W26801  41.436  34.360   3.924
55076W        W26802  25.716  21.098   3.679
55077W        W26803   5.599  43.294  13.889
55078W        W26804  15.514  32.870  10.438
55079W        W26805   2.480  25.714   0.737
55080W        W26806  11.462  35.344   1.250
55081W        W26807  25.628  23.801   3.923
55082W        W26808  12.789  16.380  10.983
55083W        W26809  18.223  26.415  10.404
55084W        W26810   4.967  10.203   2.136
55085W        W26811   9.409  37.066  10.565
55086W        W26812  26.556   1.436  12.153
55087W        W26813  11.800  25.587  11.524
55088W        W26814  25.429   1.357   2.363
55089W        W26815   3.241  30.995   5.217
55090W        W26816   0.481  34.458   3.699
55091W        W26817  28.599  21.056  14.879
55092W        W26818  31.521  39.544  14.822
55093W        W26819  13.072  38.188  11.542
55094W        W26820   5.758  25.093   1.196
55095W        W26821   0.993  36.797   0.871
55096W        W26822  17.550  37.497   1.424
55097W        W26823  43.696  43.142  14.129
55098W        W26824   7.186  14.648   3.184
55099W        W26825  42.386  26.971  10.657
55100W        W26826   2.323  11.982   2.155
55101W        W26827  38.910  38.025  12.349
55102W        W26828  30.803  21.551  12.390
55103W        W26829  32.930  10.366   1.307
55104W        W26830  25.974  15.559  12.424
55105W        W26831  18.538  25.607  10.702
55106W        W26832   3.862  29.072   4.675
55107W        W26833   1.754  26.616  11.618
55108W        W26834  13.881  14.950   1.857
55109W        W26835  34.552  17.608   4.205
55110W        W26836   3.200  27.421   0.857
55111W        W26837  11.874  20.720  13.406
55112W        W26838  35.291  36.917  13.357
55113W        W26839  25.195   2.433  14.009
55114W        W26840  38.486  15.152   1.050
55115W        W26841  22.539  28.900  10.754
55116W        W26842  11.673   8.154  12.370
55117W        W26843  15.828  33.667  12.270
55118W        W26844  10.733  40.519   1.476
55119W        W26845  21.004  19.141  13.012
55120W        W26846   5.480  37.586  13.911
55121W        W26847  22.243  41.223  11.511
55122W        W26848  38.903  10.851  12.033
55123W        W26849  20.774  20.589   2.351
55124W        W26850  24.616  11.817  14.456
55125W        W26851   8.813  44.825   0.448
55126W        W26852  31.629  20.659  12.661
55127W        W26853  20.064  16.112  11.523
55128W        W26854   9.441  36.948   3.191
55129W        W26855  22.150  19.006  11.558
55130W        W26856   4.498  36.428  11.889
55131W        W26857  30.377   0.813  12.888
55132W        W26858  37.836  39.914  11.665
55133W        W26859  41.635  23.021  14.773
55134W        W26860  34.452  30.733  14.520
55135W        W26861  19.315  23.616  10.695
55136W        W26862   9.238  18.375  10.707
55137W        W26863   4.337  43.064  13.635
55138W        W26864  32.683  22.661   0.319
55139W        W26865  13.286   7.106  14.040
55140W        W26866  14.048  34.877  14.926
55141W        W26867  24.297  28.510  14.721
55142W        W26868  36.572  12.688  14.091
55143W        W26869  40.294  22.699  11.102
55144W        W26870  37.260   8.404   4.095
55145W        W26871  17.732  11.408   2.325
55146W        W26872  36.215  16.726  12.573
55147W        W26873  15.812   7.166  13.282
55148W        W26874   6.910  15.174   2.396
55149W        W26875  42.024   7.362  12.148
55150W        W26876  28.662  35.347  12.117
55151W        W26877   7.170  15.734   2.229
55152W        W26878   4.695  17.106  12.052
55153W        W26879  27.819  36.524  14.321
55154W        W26880   6.929  23.639  10.653
55155W        W26881   4.365  20.068  12.831
55156W        W26882   8.157  16.188   0.952
55157W        W26883  19.656  32.022  10.455
55158W        W26884  31.571  23.779  14.642
55159W        W26885  12.170   9.078   4.138
55160W        W26886  21.710  26.599   4.735
55161W        W26887  41.388  15.847   4.128
55162W        W26888   5.065  35.590   4.198
55163W        W26889  14.585  15.570  11.120
55164W        W26890   0.687  11.790  12.489
55165W        W26891  17.808   8.047  11.583
55166W        W26892   0.014  33.117   4.036
55167W        W26893  25.528  44.466  11.074
55168W        W26894  41.995  38.282  12.607
55169W        W26895  13.245  36.839  10.435
55170W        W26896   6.180  41.300   4.622
55171W        W26897  15.235  40.079  11.021
55172W        W26898   2.513  18.612  13.084
55173W        W26899  34.784   8.779   1.361
55174W        W26900  22.298  38.379   3.863
55175W        W26901  29.550  13.122   4.107
55176W        W26902  14.778  39.328  12.094
55177W        W26903  19.140  26.454   2.481
55178W        W26904  30.889  19.373  10.390
55179W        W26905  31.999  35.793  10.436
55180W        W26906  43.113  30.663   3.374
55181W        W26907  16.486  36.194   0.209
55182W        W26908  36.571  40.311  11.552
55183W        W26909  14.617  21.305   1.794
55184W        W26910  18.611  13.806  13.046
55185W        W26911   6.836   6.804  14.722
55186W        W26912  37.269  27.645  11.155
55187W        W26913  31.088  28.675  11.135
55188W        W26914   9.115  14.592   2.970
55189W        W26915  26.525   1.934   3.610
55190W        W26916  21.532   6.473  14.320
55191W        W26917  38.073  24.611   2.864
55192W        W26918  34.401  23.982  12.124
55193W        W26919   0.769  29.549   4.670
55194W        W26920  20.299   3.606   3.257
55195W        W26921  12.997  19.532  12.999
55196W        W26922   7.290   0.348   1.463
55197W        W26923  20.147  32.551  14.753
55198W        W26924  40.412  22.353  12.067
55199W        W26925  11.832   5.429  14.965
55200W        W26926  13.204  19.102  12.850
55201W        W26927  21.270  25.657  11.574
55202W        W26928  41.058  25.123   3.167
55203W        W26929  42.489   1.700   0.910
55204W        W26930   8.416   2.395   1.884
55205W        W26931  22.138  19.323  11.163
55206W        W26932  36.133   9.293  11.082
55207W        W26933  13.742  18.144   1.713
55208W        W26934  15.842  22.227   2.793
55209W        W26935  33.497   3.035  13.825
55210W        W26936  29.947  38.454  13.464
55211W        W26937   2.268  28.142  12.372
55212W        W26938  12.500  32.071  13.284
55213W        W26939   2.688   5.301   1.297
55214W        W26940  17.764  27.725  11.389
55215W        W26941  28.508  41.216  13.482
55216W        W26942  41.521  18.813  14.649
55217W        W26943  16.293   5.833  11.347
55218W        W26944  43.945  35.663  11.567
55219W        W26945  28.137  42.523  12.639
55220W        W26946  16.248  27.498   2.312
55221W        W26947   3.612  25.118   4.605
55222W        W26948  21.295  33.519  10.364
55223W        W26949   1.399  40.456  13.003
55224W        W26950  35.294  38.361   1.786
55225W        W26951  16.666   0.732   4.595
55226W        W26952  11.254  43.458  14.955
55227W        W26953  19.835  40.225   2.194
55228W        W26954  24.726  26.533   3.652
55229W        W26955  34.523  25.689   4.658
55230W        W26956   6.684  21.034  14.459
55231W        W26957  26.495  42.392   1.013
55232W        W26958  16.214  13.614  10.677
55233W        W26959  15.493   7.344   4.064
55234W        W26960   9.364  38.013  10.759
55235W        W26961   0.280   4.764  12.020
55236W        W26962  35.866   3.337  12.934
55237W        W26963  21.251  31.086   3.128
55238W        W26964  25.591  40.038   1.015
55239W        W26965  10.557  37.929  12.062
55240W        W26966  34.872  14.769  11.180
55241W        W26967   4.875  29.419   1.384
55242W        W26968  19.696  15.282  14.902
55243W        W26969  33.970  29.005   2.986
55244W        W26970   8.636  34.798  10.665
55245W        W26971  31.608  12.860  14.960
55246W        W26972  29.561  22.019  12.493
55247W        W26973   2.981  44.500   0.663
55248W        W26974  11.210   0.349   2.595
55249W        W26975  33.622   0.934   1.405
55250W        W26976  19.654  17.569   2.282
55251W        W26977  40.757   0.826  11.629
55252W        W26978  33.077  14.610  11.660
55253W        W26979  19.602   4.767   1.838
55254W        W26980  27.634  28.008   3.204
55255W        W26981  23.166  44.861   1.148
55256W        W26982  34.135  43.436  12.126
55257W        W26983  41.817  34.682   3.740
55258W        W26984  13.722  11.657   3.569
55259W        W26985   8.096  24.623  12.020
55260W        W26986  27.493  38.631  13.880
55261W        W26987  40.614  37.158   2.844
55262W        W26988  12.588  18.511  10.635
55263W        W26989  35.487   9.088   1.429
55264W        W26990   1.037  28.257  12.048
55265W        W26991  36.279  25.275  13.667
55266W        W26992  21.771   1.957   0.275
55267W        W26993   9.150  24.822  11.034
55268W        W26994  30.783  37.673   2.686
55269W        W26995  20.728  40.870   0.920
55270W        W26996  11.238  38.976  14.556
55271W        W26997  32.630   6.162   2.851
55272W        W26998   4.440  24.692  14.447
55273W        W26999  11.950  40.729   2.750
55274W        W27000  40.979  21.426   0.309
55275W        W27001   1.886  24.164  12.540
55276W        W27002   0.508  18.264   2.048
55277W        W27003  19.657   3.368  11.640
55278W        W27004   7.899  25.235   4.129
55279W        W27005  44.855  42.472   4.297
55280W        W27006  28.409  11.027  13.428
55281W        W27007  39.756  29.601   0.046
55282W        W27008  31.074  24.256   4.685
55283W        W27009   6.086   5.378  13.843
55284W        W27010  41.491  44.474  11.917
55285W        W27011  37.058  12.743  10.468
55286W        W27012  33.362  23.232   1.907
55287W        W27013  27.514   2.819  14.055
55288W        W27014  42.851   7.110   3.635
55289W        W27015  31.467   9.156  11.675
55290W        W27016   5.954  35.404   1.675
55291W        W27017   3.648   1.453  12.036
55292W        W27018  12.106  41.014   1.429
55293W        W27019  27.481   7.909  11.171
55294W        W27020   6.682  24.551  13.886
55295W        W27021  34.083  35.424  10.390
55296W        W27022  12.571  13.342  13.839
55297W        W27023   3.001   4.877  14.503
55298W        W27024  23.184  27.904   1.849
55299W        W27025  44.512   0.536   1.799
55300W        W27026  12.161  11.119   3.357
55301W        W27027   8.939  44.094  10.715
55302W        W27028  21.721   8.939  13.789
55303W        W27029  41.480  18.043   2.896
55304W        W27030   7.589  33.047  12.527
55305W        W27031   0.918   5.354   4.040
55306W        W27032  41.990   3.570  13.954
55307W        W27033   3.670  24.739  12.431
55308W        W27034  28.948   5.208   0.344
55309W        W27035   8.957   4.713  14.845
55310W        W27036  32.047  39.388  14.481
55311W        W27037   2.481   4.223  12.862
55312W        W27038  44.375  11.698  14.329
55313W        W27039  26.955   7.151  12.499
55314W        W27040  20.146  20.064   0.347
55315W        W27041  31.876  42.656  11.899
55316W        W27042   5.383  14.240   1.340
55317W        W27043  10.095   3.439  11.636
55318W        W27044  31.418  30.522   0.941
55319W        W27045  20.997  28.666   4.653
55320W        W27046  38.035   4.339   1.105
55321W        W27047  34.144  21.000   4.617
55322W        W27048  42.760   9.341   0.261
55323W        W27049  10.702   3.737   0.727
55324W        W27050  31.002  13.208   3.205
55325W        W27051  17.220  41.095  11.606
55326W        W27052   4.166  17.659  14.729
55327W        W27053   5.835  43.886  13.983
55328W        W27054  10.888  13.605  13.889
55329W        W27055  13.039  36.380   3.189
55330W        W27056  31.688  13.835   0.838
55331W        W27057   0.863  19.180  11.910
55332W        W27058  34.755  16.824  12.549
55333W        W27059  26.601  16.884   1.781
55334W        W27060  23.549  22.684  13.987
55335W        W27061  38.991   6.800  12.005
55336W        W27062  13.663  24.497  11.049
55337W        W27063  44.413  30.067  10.975
55338W        W27064  33.964  40.839   4.215
55339W        W27065  33.199  30.375  14.569
55340W        W27066   3.699  31.641   1.770
55341W        W27067   9.665  22.490  13.775
55342W        W27068  22.265   6.794   1.715
55343W        W27069   6.314  18.067   4.756
55344W        W27070  29.144  23.702   2.066
55345W        W27071  13.790  35.216   2.656
55346W        W27072  44.970  24.117  10.366
55347W        W27073  31.972  42.512   2.105
55348W        W27074  22.980  40.764  12.588
55349W        W27075  16.504   5.717   0.697
55350W        W27076  17.963  12.260   0.734
55351W        W27077  23.160   6.792  10.982
55352W        W27078  32.190  42.277   4.144
55353W        W27079  13.234   2.778   2.162
55354W        W27080  15.001  32.963   3.422
55355W        W27081  34.005  24.505  10.750
55356W        W27082   9.888  33.241  11.501
55357W        W27083   2.876  13.638  13.502
55358W        W27084  41.560  24.929  10.583
55359W        W27085  29.118  23.721  11.140
55360W        W27086   6.955   7.675   2.411
55361W        W27087  43.450  22.958  10.894
55362W        W27088  20.037  26.263  13.959
55363W        W27089   2.640  37.217   0.482
55364W        W27090  39.816  27.073  13.941
55365W        W27091  40.473   6.284  13.595
55366W        W27092  35.898  35.572   2.809
55367W        W27093  26.555  40.081  13.915
55368W        W27094  20.534  11.396   3.233
55369W        W27095  35.319  11.136  12.973
55370W        W27096   2.952   7.189   0.752
55371W        W27097  38.751   9.406   4.627
55372W        W27098  13.285  29.504  13.607
55373W        W27099   2.842  38.093  10.412
55374W        W27100  13.704  34.463   0.036
55375W        W27101   6.366  37.600  11.594
55376W        W27102   4.402  11.360  12.044
55377W        W27103  31.386  33.862  13.097
55378W        W27104  29.040   7.937  13.952
55379W        W27105  36.415  11.843   0.386
55380W        W27106  29.045  22.270   4.622
55381W        W27107   2.344  19.983   1.269
55382W        W27108  29.981  30.688  13.582
55383W        W27109   0.307   5.152   4.665
55384W        W27110  32.935   4.314   3.089
55385W        W27111  36.361  18.612   0.914
55386W        W27112  20.747  37.392  12.001
55387W        W27113  20.229  39.024  14.873
55388W        W27114  42.621  38.512   9.887
55389W        W27115  15.621  15.225  14.364
55390W        W27116  32.130   7.279   2.278
55391W        W27117  18.684   8.346  13.271
55392W        W27118   9.198  23.096  11.683
55393W        W27119  37.082   8.129  12.628
55394W        W27120  13.650  28.989  10.581
55395W        W27121   4.983  30.525  10.571
55396W        W27122   5.113   6.624   4.507
55397W        W27123  17.540  35.863  13.079
55398W        W27124  21.264  17.680  12.926
55399W        W27125  23.152  43.271  10.708
55400W        W27126  18.617   4.023   3.174
55401W        W27127  14.629  38.559   0.735
55402W        W27128  12.313  15.119  14.574
55403W        W27129  31.998   5.195   3.399
55404W        W27130   3.511  31.923  11.467
55405W        W27131  28.614  18.738   2.322
55406W        W27132  40.587  39.932  14.325
55407W        W27133  21.964  25.966   3.281
55408W        W27134  44.702  26.924  11.033
55409W        W27135  35.722  43.872   4.575
55410W        W27136  44.099  17.134   2.195
55411W        W27137  12.171  17.336  13.626
55412W        W27138  35.825  16.965  10.810
55413W        W27139  30.229  20.590  14.910
55414W        W27140  17.236  35.447   4.391
55415W        W27141  25.073  42.124   0.371
55416W        W27142  20.231  26.531   0.874
55417W        W27143  18.513   1.374  13.447
55418W        W27144   0.582  24.575   2.166
55419W        W27145  41.224  29.147  11.116
55420W        W27146  21.070  13.474  12.662
55421W        W27147   6.414  18.591   3.636
55422W        W27148  44.422  44.715   1.201
55423W        W27149  40.662  12.925  14.360
55424W        W27150  13.173  36.574   1.122
55425W        W27151  29.680  31.821  13.409
55426W        W27152  42.817  22.281   1.756
55427W        W27153  27.368  18.711  11.135
55428W        W27154  20.828  25.684   5.049
55429W        W27155  35.461  42.914  14.750
55430W        W27156  24.072   4.783   2.132
55431W        W27157  21.112  22.139  14.673
55432W        W27158   3.323  33.402   0.428
55433W        W27159  16.076  16.042   0.746
55434W        W27160  28.682  26.095  12.902
55435W        W27161  16.104  37.823  12.472
55436W        W27162  23.232  31.929   0.482
55437W        W27163  20.586  23.235   3.788
55438W        W27164   9.673  13.891  14.389
55439W        W27165   7.457  25.450  13.577
55440W        W27166  21.622  21.384  13.515
55441W        W27167  26.000  37.323  12.089
55442W        W27168  29.120  26.040  14.334
55443W        W27169  40.355   0.557   2.822
55444W        W27170  28.629   0.795  12.906
55445W        W27171  26.738   8.592   2.831
55446W        W27172  40.624  25.082   5.073
55447W        W27173  33.423   0.169   2.245
55448W        W27174  42.386   0.316   3.559
55449W        W27175   7.709  12.276   3.144
55450W        W27176  20.513  19.652  12.099
55451W        W27177  24.686  19.298   4.768
55452W        W27178  14.528  33.554   3.590
55453W        W27179  13.761  10.780   3.636
55454W        W27180  39.395  40.128  11.222
55455W        W27181   4.909  18.276  11.176
55456W        W27182  38.905  39.898  14.965
55457W        W27183  44.767  42.456   4.814
55458W        W27184  29.738   3.098   5.008
55459W        W27185  40.771   7.003   0.764
55460W        W27186  19.779  31.015   2.223
55461W        W27187  33.807  31.653  12.934
55462W        W27188  39.485  23.065  11.436
55463W        W27189   3.839  11.905  13.380
55464W        W27190  10.585  43.469  11.522
55465W        W27191  27.536   0.470  10.736
55466W        W27192  13.433   0.082   2.474
55467W        W27193  20.063  29.533   3.685
55468W        W27194  32.146  44.747   1.868
55469W        W27195  38.089  37.702   1.256
55470W        W27196   0.750  24.051  11.913
55471W        W27197  38.342  38.040  14.476
55472W        W27198   3.592  32.142   1.685
55473W        W27199  12.795  38.826  13.378
55474W        W27200   9.330  31.008   4.509
55475W        W27201   9.942  37.845   1.862
55476W        W27202  30.045  35.061  14.793
55477W        W27203  41.856  12.080  11.980
55478W        W27204  15.340  21.490  10.685
55479W        W27205  29.732  25.936   0.511
55480W        W27206  26.561  39.563  13.871
55481W        W27207  19.627   7.722  12.470
55482W        W27208   0.753  15.840  12.928
55483W        W27209  35.696  36.185   4.677
55484W        W27210  43.812  41.038   3.479
55485W        W27211  18.018  26.191   2.766
55486W        W27212  11.313  27.433  10.903
55487W        W27213  44.009  10.269  14.510
55488W        W27214  10.732   4.439   0.340
55489W        W27215  36.428  39.770   3.139
55490W        W27216  18.672  12.170  10.702
55491W        W27217   9.755  21.792   1.434
55492W        W27218   2.356  24.130   0.182
55493W        W27219  15.598   9.797   1.755
55494W        W27220   0.417   8.452  12.318
55495W        W27221  42.496  32.025   1.743
55496W        W27222  20.545  40.611  14.462
55497W        W27223  40.050  23.726  14.361
55498W        W27224  10.239  21.271   3.253
55499W        W27225  23.677  22.657   0.928
55500W        W27226  33.054  16.772  11.058
55501W        W27227  29.543  42.784  14.313
55502W        W27228  22.509  40.967  12.485
55503W        W27229  38.110  26.686   4.680
55504W        W27230  24.423   7.738  11.242
55505W        W27231   1.199  31.039   1.392
55506W        W27232   9.761  36.621  14.376
55507W        W27233  29.533  39.044   1.702
55508W        W27234  29.567  24.623   1.418
55509W        W27235  39.249  35.498   0.860
55510W        W27236  26.223  23.495   3.797
55511W        W27237  15.750  13.839  10.681
55512W        W27238  14.764   7.627   1.664
55513W        W27239  27.894  41.217   1.849
55514W        W27240  22.609  20.201   3.766
55515W        W27241  31.785  23.243  13.989
55516W        W27242  30.035  21.097  11.885
55517W        W27243   0.084   5.975   4.193
55518W        W27244  35.539  39.719  10.887
55519W        W27245  39.179   0.898   4.471
55520W        W27246  25.831  22.100   0.784
55521W        W27247  28.341  44.450   3.177
55522W        W27248  20.689  11.233   4.698
55523W        W27249  31.616  20.085   2.436
55524W        W27250  30.011  18.458   2.840
55525W        W27251   3.435  33.704  13.332
55526W        W27252  20.181   8.638  10.646
55527W        W27253  26.549  42.901  10.247
55528W        W27254   7.355   2.773   4.721
55529W        W27255  25.593   3.349  12.186
55530W        W27256  24.089  25.453   2.326
55531W        W27257  40.424   3.960  10.574
55532W        W27258  12.178  42.825   1.305
55533W        W27259  29.133  39.133  13.357
55534W        W27260  42.825  28.630   0.570
55535W        W27261  28.631   7.202   1.278
55536W        W27262  31.220  11.869   1.742
55537W        W27263  42.807   2.889  14.409
55538W        W27264  29.966  32.464   0.517
55539W        W27265   7.616  25.107   1.010
55540W        W27266  36.827   7.855   1.729
55541W        W27267  10.641  10.436   1.793
55542W        W27268   8.875  33.846   4.859
55543W        W27269  21.670  19.831  10.460
55544W        W27270  26.573  10.786  13.294
55545W        W27271  19.484  14.643  12.546
55546W        W27272   9.718  28.200   0.891
55547W        W27273  22.555  20.049   0.347
55548W        W27274   0.854  29.251   4.222
55549W        W27275  38.165  18.724  12.506
55550W        W27276   1.633  40.404  13.470
55551W        W27277  18.629  24.501  14.724
55552W        W27278   8.087   5.217  11.437
55553W        W27279  16.103  16.168  14.684
55554W        W27280   1.770   0.454  12.032
55555W        W27281  33.312  29.412  11.107
55556W        W27282  33.199  16.070   3.862
55557W        W27283  41.852  42.089   5.130
55558W        W27284   9.592  32.061  10.804
55559W        W27285  44.822   8.247  13.012
55560W        W27286  41.271  28.048  12.984
55561W        W27287  24.894  25.974  11.529
55562W        W27288  23.344  27.350   4.556
55563W        W27289  32.189  43.366  12.432
55564W        W27290  28.545  23.197   1.855
55565W        W27291  31.119   8.145   3.258
55566W        W27292  42.003  17.825  10.172
55567W        W27293  19.770  35.377  13.691
55568W        W27294   5.831  15.885  10.943
55569W        W27295  32.051   9.447  10.506
55570W        W27296  33.483   2.246  11.473
55571W        W27297   1.031   9.333  13.586
55572W        W27298  18.617  44.591   4.199
55573W        W27299  28.819  20.749  14.137
55574W        W27300  14.554   3.318   2.128
55575W        W27301   1.843  26.082  10.775
55576W        W27302  17.715   8.856   3.226
55577W        W27303  37.895   3.795   2.765
55578W        W27304   2.311  35.645  12.472
55579W        W27305  17.486  43.856  14.943
55580W        W27306  40.045   7.353  14.751
55581W        W27307  12.309  15.732   3.728
55582W        W27308  32.317  30.501   1.390
55583W        W27309  39.876  28.032   0.886
55584W        W27310  33.797  40.453  10.729
55585W        W27311  18.771  14.113  12.621
55586W        W27312  12.678  27.516  14.249
55587W        W27313  37.664   6.205   0.006
55588W        W27314   4.459  36.158   2.261
55589W        W27315   7.634  12.776  12.007
55590W        W27316   5.282  21.323   3.658
55591W        W27317  22.645  10.695  14.662
55592W        W27318  37.050  28.490   3.252
55593W        W27319  19.492   7.222   0.760
55594W        W27320  13.148  31.476   1.317
55595W        W27321  25.478  11.312  12.692
55596W        W27322  11.820  30.937  11.344
55597W        W27323  38.880   3.838   1.901
55598W        W27324  15.274  18.170   4.663
55599W        W27325  17.621  36.582   3.397
55600W        W27326  32.019  10.763   3.406
55601W        W27327   8.921   4.018  12.148
55602W        W27328  23.095  40.016  14.944
55603W        W27329   8.788   2.425  11.660
55604W        W27330   5.195  29.128  12.820
55605W        W27331  22.582  11.359  11.471
55606W        W27332  32.538  26.859   0.402
55607W        W27333  21.616  44.717  11.054
55608W        W27334  24.165  28.212  13.397
55609W        W27335  38.817  23.657   4.061
55610W        W27336  39.345  38.787  14.720
55611W        W27337  31.903   0.971  11.635
55612W        W27338  36.141   5.966  12.385
55613W        W27339   4.349  29.877  13.581
55614W        W27340  19.102  29.553  12.898
55615W        W27341  19.168  32.143  12.309
55616W        W27342  28.813  24.925  11.203
55617W        W27343  19.941   5.973   0.936
55618W        W27344  15.705   4.253   2.935
55619W        W27345  42.820  26.692  13.052
55620W        W27346  22.770  39.428   1.941
55621W        W27347  29.564  42.065  11.380
55622W        W27348  37.128  23.561  12.612
55623W        W27349  35.945  36.556   1.923
55624W        W27350  42.430  22.737  13.339
55625W        W27351  36.837  39.802   0.942
55626W        W27352  32.540  32.612   2.858
55627W        W27353  13.119  43.213  14.843
55628W        W27354  13.371  22.042  13.411
55629W        W27355   4.270  28.966  14.384
55630W        W27356  13.703   9.229   3.142
55631W        W27357  28.013  22.932   3.698
55632W        W27358   2.843  11.105  14.363
55633W        W27359  20.827  19.778  10.791
55634W        W27360  29.554  27.224  13.466
55635W        W27361   1.973  10.729  13.929
55636W        W27362  31.361   8.379   2.349
55637W        W27363   5.248  43.822  14.850
55638W        W27364   6.485   3.236   3.916
55639W        W27365  26.523   4.280  12.223
55640W        W27366   7.811   7.891   2.975
55641W        W27367  40.303  36.351  12.162
55642W        W27368   1.387  40.694  11.742
55643W        W27369   1.952   1.384   3.720
55644W        W27370   7.824   4.716  12.194
55645W        W27371  13.750  35.479   3.464
55646W        W27372  25.981  28.439   2.181
55647W        W27373  28.006  14.179   1.825
55648W        W27374  25.444   4.294  11.354
55649W        W27375  23.570  22.734  10.991
55650W        W27376  27.697  41.884  14.016
55651W        W27377  32.175  24.318   3.257
55652W        W27378  29.746   3.775  12.007
55653W        W27379  16.550  16.291  14.921
55654W        W27380  29.666  20.167   2.376
55655W        W27381  37.379  31.147   4.929
55656W        W27382  38.901  23.053   0.250
55657W        W27383  38.019  34.960  13.126
55658W        W27384  17.707   7.489   0.583
55659W        W27385  26.484   4.631  14.264
55660W        W27386   7.123  16.275   4.483
55661W        W27387  15.771  37.835   3.356
55662W        W27388  38.023  44.736  14.301
55663W        W27389  16.385  19.547  12.850
55664W        W27390  29.672  13.343  14.519
55665W        W27391   5.941  12.162   0.399
55666W        W27392  12.651  43.704  12.382
55667W        W27393   3.534   9.347   4.093
55668W        W27394  19.975  26.663   0.402
55669W        W27395  13.745  40.689   3.365
55670W        W27396  12.374  29.589   4.090
55671W        W27397  12.249  33.660   0.442
55672W        W27398  13.870   7.278  13.479
55673W        W27399  37.394   6.142   2.969
55674W        W27400  22.073  11.237  13.126
55675W        W27401   7.635  35.840   1.792
55676W        W27402  29.173  11.121  13.701
55677W        W27403  27.462   9.267   3.627
55678W        W27404  22.103  13.312  11.101
55679W        W27405  16.711   0.943  13.364
55680W        W27406  25.935  11.240  13.398
55681W        W27407  32.589  31.388   4.716
55682W        W27408   2.864   4.839   0.507
55683W        W27409  38.003  16.618  10.450
55684W        W27410  26.444  29.884  12.665
55685W        W27411  31.469  36.115   4.368
55686W        W27412  21.619  13.078  11.106
55687W        W27413   6.457   2.802   3.164
55688W        W27414   9.151  39.373   3.014
55689W        W27415  29.558  12.609   0.870
55690W        W27416  36.028   0.733  13.328
55691W        W27417   8.790  21.212  11.521
55692W        W27418  38.631  32.065   1.470
55693W        W27419  28.955   8.334   2.247
55694W        W27420   4.216  37.502   2.871
55695W        W27421  10.608  18.392  14.917
55696W        W27422  42.964   1.873   4.598
55697W        W27423  31.453  41.434   2.324
55698W        W27424  28.911  26.973  10.368
55699W        W27425   8.346  40.564  12.767
55700W        W27426  35.836  26.593   4.532
55701W        W27427   5.136  13.183   1.283
55702W        W27428  24.722  36.472  13.730
55703W        W27429   5.297  41.485   2.758
55704W        W27430  17.094  41.847   3.942
55705W        W27431  41.774  41.320   2.741
55706W        W27432   2.801   1.960   4.759
55707W        W27433  31.951  40.681  12.048
55708W        W27434  39.007   1.736   2.249
55709W        W27435   1.489   8.904   2.250
55710W        W27436  22.551  41.706  13.659
55711W        W27437  29.926   4.633  12.065
55712W        W27438  43.011  10.585   4.089
55713W        W27439  13.568  36.973   3.614
55714W        W27440   7.469  23.232  13.794
55715W        W27441  14.270  11.798  12.465
55716W        W27442  42.524  17.133   0.458
55717W        W27443  43.287  13.358   3.220
55718W        W27444   7.280   7.712  12.816
55719W        W27445   2.560   1.585   1.869
55720W        W27446  39.907  13.815   4.544
55721W        W27447  22.461  42.997  13.144
55722W        W27448  34.001  40.014   1.299
55723W        W27449  22.621   6.253   4.145
55724W        W27450  27.064  31.994   3.585
55725W        W27451   0.049  36.337   0.866
55726W        W27452  38.583   8.707  13.261
55727W        W27453   9.888  12.735   2.113
55728W        W27454  35.722   7.212   0.901
55729W        W27455  21.827   1.793  12.400
55730W        W27456  40.496  32.386  13.856
55731W        W27457   3.841  18.630   0.350
55732W        W27458  25.696  22.396  14.564
55733W        W27459  18.095  11.736   1.925
55734W        W27460  29.063   3.838   2.705
55735W        W27461  22.916  19.619  13.477
55736W        W27462  17.250  32.524   1.929
55737W        W27463  19.031  42.343  11.529
55738W        W27464  18.781  42.956  12.660
55739W        W27465  40.604  30.016   4.724
55740W        W27466  16.120  16.814  13.978
55741W        W27467  42.655  38.899   0.954
55742W        W27468  37.833  18.059   2.399
55743W        W27469   7.531  19.571   3.522
55744W        W27470  25.826  10.369   2.603
55745W        W27471  33.085  30.837  14.276
55746W        W27472  21.087  38.633  11.579
55747W        W27473  23.681  25.069  13.874
55748W        W27474  25.814  19.503   3.186
55749W        W27475   6.119  19.862  11.292
55750W        W27476   6.117  29.209   1.458
55751W        W27477  15.234   6.842  12.627
55752W        W27478  19.131  28.497   1.095
55753W        W27479  38.556  32.325   4.682
55754W        W27480   0.715  17.786   2.035
55755W        W27481  17.318  42.986   0.608
55756W        W27482  15.813  14.668   3.039
55757W        W27483  38.020  11.186   2.409
55758W        W27484  29.953  44.010   3.839
55759W        W27485  36.101  27.338  13.244
55760W        W27486  25.193  22.638  11.485
55761W        W27487  15.220  13.453   1.124
55762W        W27488  36.891  21.395   4.924
55763W        W27489  35.880   6.920   1.392
55764W        W27490  41.424  42.937   0.671
55765W        W27491   1.837  33.594   4.086
55766W        W27492  30.315  42.812   1.391
55767W        W27493   2.803  19.976   4.309
55768W        W27494  43.386  22.777  11.583
55769W        W27495  33.910  19.901  13.066
55770W        W27496  20.746  32.465   1.955
55771W        W27497  44.241  32.512   4.871
55772W        W27498   5.168  28.035  14.311
55773W        W27499   6.120  27.912   4.976
55774W        W27500  12.172  25.040   0.996
55775W        W27501  26.016   5.857   3.677
55776W        W27502  27.220  35.787   1.294
55777W        W27503  23.302  26.734  12.882
55778W        W27504  12.199   7.303   1.486
55779W        W27505  22.548   3.056  12.220
55780W        W27506  16.221   2.996   5.039
55781W        W27507   9.828  25.572  10.232
55782W        W27508  11.724  31.986   4.262
55783W        W27509  21.329  26.487   3.294
55784W        W27510  26.452  31.102   2.246
55785W        W27511  21.196  40.999   1.867
55786W        W27512  33.970  12.438   2.217
55787W        W27513  21.567  27.617   2.078
55788W        W27514  25.467  32.651  13.029
55789W        W27515  39.392  26.555   0.839
55790W        W27516  36.200  28.657   4.184
55791W        W27517  14.716  17.367   4.908
55792W        W27518  12.498   8.634  11.285
55793W        W27519  21.122  22.317  11.668
55794W        W27520  22.992  44.463  11.088
55795W        W27521  32.996  21.643   0.797
55796W        W27522  17.357  36.647   1.250
55797W        W27523  33.738  13.216   4.921
55798W        W27524  13.853  43.977   3.710
55799W        W27525   4.817   0.815   2.366
55800W        W27526  34.161  14.121  14.862
55801W        W27527  19.857   2.918   0.519
55802W        W27528  17.274  40.585  13.866
55803W        W27529   8.308  24.123  12.354
55804W        W27530   0.203  31.013   1.187
55805W        W27531  11.474  41.648  13.906
55806W        W27532  21.354  37.827   4.099
55807W        W27533  15.659  37.558   0.434
55808W        W27534  44.437  19.979  12.475
55809W        W27535  15.579   9.330   2.927
55810W        W27536  11.861  10.932   0.388
55811W        W27537  20.529  37.422  14.849
55812W        W27538  40.470   8.919  12.590
55813W        W27539  12.712  44.829  13.331
55814W        W27540  21.291  30.705  13.010
55815W        W27541  40.610  13.154  13.897
55816W        W27542  21.006  31.530   0.021
55817W        W27543   5.173   7.687  13.327
55818W        W27544  13.856  31.355  12.052
55819W        W27545  32.108  16.990   4.925
55820W        W27546   9.867  26.679  14.125
55821W        W27547   3.868  43.037  11.544
55822W        W27548   3.749  35.060   1.166
55823W        W27549  24.261  17.594  13.780
55824W        W27550  17.774  32.148  10.609
55825W        W27551  18.092  10.357  14.013
55826W        W27552  20.553   1.479   0.837
55827W        W27553  18.120  36.904  11.212
55828W        W27554  15.118  24.948   4.669
55829W        W27555  23.993  33.564  13.110
55830W        W27556  27.646  22.205  14.430
55831W        W27557  11.176  34.687   2.301
55832W        W27558  34.048  12.699   0.755
55833W        W27559  13.311  26.998  11.587
55834W        W27560   3.491  14.764   0.340
55835W        W27561  19.958   9.487  10.972
55836W        W27562   0.854   3.901  11.206
55837W        W27563  24.124  21.043  13.781
55838W        W27564  29.428   4.949   4.242
55839W        W27565  35.828   7.293   4.586
55840W        W27566   8.164  44.263  13.391
55841W        W27567   2.918  24.653  11.069
55842W        W27568  28.460  38.280   0.471
55843W        W27569   3.123  36.921   4.333
55844W        W27570  38.531  23.528  12.355
55845W        W27571   1.736  21.284   0.478
55846W        W27572  44.963  35.760   3.630
55847W        W27573   8.108  25.847  11.383
55848W        W27574   6.478   3.058  13.808
55849W        W27575  22.562   8.141   4.453
55850W        W27576  36.988  27.451   3.263
55851W        W27577  13.496  36.654   3.200
55852W        W27578  13.023   1.835  12.380
55853W        W27579  15.582  43.223   2.157
55854W        W27580   6.185  17.970  11.498
55855W        W27581  28.655  10.264  11.420
55856W        W27582  12.898  25.716   2.847
55857W        W27583  26.505  44.977   1.770
55858W        W27584  36.591  31.100  13.451
55859W        W27585  42.323  10.382   4.614
55860W        W27586  22.746   0.993   0.728
55861W        W27587   1.915  14.718  13.861
55862W        W27588  25.468   7.722   1.653
55863W        W27589  14.643  12.960  14.399
55864W        W27590  31.519  31.143  14.810
55865W        W27591   2.185  21.569  13.380
55866W        W27592  43.906   2.957  13.771
55867W        W27593  10.902  11.183   3.254
55868W        W27594  36.574  34.098  12.976
55869W        W27595  20.767  38.483  13.726
55870W        W27596  13.541  42.820  12.057
55871W        W27597  17.316  28.980   4.111
55872W        W27598   3.731  40.753   4.887
55873W        W27599  12.541  28.858  11.082
55874W        W27600  33.676  27.185  12.033
55875W        W27601  13.397  21.547   3.610
55876W        W27602   1.196  17.845   4.130
55877W        W27603   0.442  42.059  12.890
55878W        W27604  39.526   6.218  13.361
55879W        W27605   6.827  31.541  10.717
55880W        W27606  11.921  34.032   0.808
55881W        W27607  40.349  13.384   2.886
55882W        W27608  10.281  40.434  11.178
55883W        W27609  13.861  24.996  11.107
55884W        W27610  34.576  23.197  10.734
55885W        W27611  37.710  23.732  11.163
55886W        W27612  32.305  11.045   1.392
55887W        W27613  35.772  22.598   0.823
55888W        W27614  32.132   6.223  11.981
55889W        W27615  34.830  39.623   0.322
55890W        W27616  27.383   7.108   3.715
55891W        W27617   7.776  25.362  14.464
55892W        W27618   5.379  18.056  11.172
55893W        W27619   4.337  18.364  12.493
55894W        W27620  11.244  35.854   3.756
55895W        W27621  15.769  11.090   1.436
55896W        W27622   4.655  22.153  14.213
55897W        W27623  34.625  41.996  11.085
55898W        W27624   2.972  20.937  10.940
55899W        W27625  26.156  38.020   0.385
55900W        W27626  31.345   3.630  12.100
55901W        W27627  29.481  21.986   4.663
55902W        W27628  17.383  35.501   0.291
55903W        W27629  15.325  35.368   1.314
55904W        W27630  27.222  35.519   1.737
55905W        W27631  25.250  44.159   3.837
55906W        W27632  35.115  19.345  14.032
55907W        W27633  35.052   5.477   1.286
55908W        W27634  22.746  22.735  14.435
55909W        W27635  27.217  40.385  13.095
55910W        W27636  25.812   6.657  10.664
55911W        W27637  24.635   7.348   4.487
55912W        W27638   7.180  14.646  10.550
55913W        W27639   7.772  42.537   1.758
55914W        W27640  29.143  41.260   2.209
55915W        W27641  12.655   0.352   0.285
55916W        W27642  11.805  13.381  12.866
55917W        W27643   8.192  22.232   2.331
55918W        W27644  29.479  43.869   1.712
55919W        W27645  22.034  21.268  12.775
55920W        W27646  30.185  41.857  14.992
55921W        W27647  31.952   3.953  14.003
55922W        W27648   8.798  41.230  12.769
55923W        W27649  39.825  15.006  13.516
55924W        W27650  43.794   2.666  13.346
55925W        W27651  20.922  12.741  11.874
55926W        W27652  40.714   2.320  12.014
55927W        W27653   5.460   7.391   2.801
55928W        W27654   7.279   3.627  12.868
55929W        W27655  44.320  15.648   2.664
55930W        W27656  34.628   5.471   1.001
55931W        W27657  15.294   7.743   2.861
55932W        W27658  21.125   4.233  12.337
55933W        W27659  13.658  41.996   1.278
55934W        W27660  13.748  42.057  11.621
55935W        W27661  23.571  11.406   4.647
55936W        W27662  31.105  21.044  13.641
55937W        W27663   6.460  30.077   3.854
55938W        W27664  16.695  32.467   2.869
55939W        W27665  36.127  14.126  13.964
55940W        W27666  18.794  41.359   1.794
55941W        W27667  23.669  25.573   2.039
55942W        W27668  25.451  42.363   3.138
55943W        W27669  30.697  20.185   2.445
55944W        W27670  36.840  28.755  12.203
55945W        W27671  23.824  24.068   3.612
55946W        W27672  29.636  15.620  12.430
55947W        W27673  43.513  14.184  14.028
55948W        W27674  12.150  43.553  10.688
55949W        W27675  20.717  42.523   4.771
55950W        W27676   0.224  41.303   0.801
55951W        W27677  25.691  15.087   4.779
55952W        W27678  37.575  41.545   3.873
55953W        W27679  16.706  20.557  10.448
55954W        W27680   5.621  22.164  10.341
55955W        W27681  44.225  39.797  10.971
55956W        W27682  44.171  30.265  14.240
55957W        W27683  21.025  40.072   2.820
55958W        W27684  44.504  31.066   3.204
55959W        W27685  35.678  26.779   3.660
55960W        W27686  27.661   7.380  10.978
55961W        W27687  12.408  35.459   4.417
55962W        W27688  10.394  30.361   3.979
55963W        W27689  11.797  28.349  14.258
55964W        W27690  11.887  44.147   5.168
55965W        W27691  37.796  34.028   3.256
55966W        W27692   0.079   1.415   1.388
55967W        W27693  32.583  25.114   3.251
55968W        W27694  32.870   3.382   2.605
55969W        W27695  39.237  43.896  13.966
55970W        W27696  15.447  29.053  11.415
55971W        W27697   0.728  40.293   2.627
55972W        W27698  24.714  25.756   2.277
55973W        W27699  11.367  15.509   3.767
55974W        W27700  20.627   2.471  13.932
55975W        W27701  33.037  31.181   1.261
55976W        W27702  37.015  40.975  10.734
55977W        W27703  23.122  15.841   2.926
55978W        W27704  33.682   2.019   1.951
55979W        W27705   8.301  33.399  13.031
55980W        W27706   0.242  33.564   0.635
55981W        W27707   5.652   0.442  12.118
55982W        W27708   8.213  33.266  12.002
55983W        W27709  18.401  10.797   4.880
55984W        W27710   0.855  36.945  14.916
55985W        W27711  24.778  25.583  14.303
55986W        W27712  33.720  42.902   1.589
55987W        W27713  20.980  40.441  10.700
55988W        W27714   9.201   9.212  12.477
55989W        W27715  44.967  35.062  12.910
55990W        W27716  32.349   0.958  14.033
55991W        W27717  36.837  25.527   4.119
55992W        W27718  16.303  34.847   2.379
55993W        W27719  38.882  19.729   4.073
55994W        W27720   2.896  37.613  11.622
55995W        W27721  27.934   0.839  14.558
55996W        W27722  20.489  12.696  12.991
55997W        W27723  33.499  18.282   4.612
55998W        W27724  27.447  20.348   0.369
55999W        W27725  15.294  28.469   1.083
56000W        W27726  32.999   0.006   3.220
56001W        W27727  40.286   0.298   4.540
56002W        W27728  26.542   1.397  10.184
56003W        W27729   4.022  12.872  10.649
56004W        W27730  29.096   3.373   3.555
56005W        W27731   5.802  11.390   2.198
56006W        W27732  19.643  22.029  11.576
56007W        W27733   7.897  18.221  12.105
56008W        W27734  10.626  44.544   4.143
56009W        W27735  35.797   9.626   3.084
56010W        W27736   0.759   6.863   0.751
56011W        W27737  30.625  32.304   1.864
56012W        W27738  19.122  17.644  12.948
56013W        W27739   0.997  30.989   3.140
56014W        W27740   4.338   3.019   4.458
56015W        W27741  15.010  38.351   2.804
56016W        W27742   6.158  13.780   4.117
56017W        W27743  38.021  10.094  14.124
56018W        W27744  41.861  14.749   3.401
56019W        W27745  40.758  36.935  13.372
56020W        W27746  25.840  29.029   3.126
56021W        W27747  31.857  24.391  12.321
56022W        W27748  14.192   3.003  12.033
56023W        W27749  14.101   6.675   0.316
56024W        W27750  31.323  29.609   1.482
56025W        W27751  14.699  24.716  11.066
56026W        W27752  16.172   4.750   2.316
56027W        W27753  18.038  23.604  12.593
56028W        W27754  40.295  10.815  13.004
56029W        W27755   4.738  27.450   3.302
56030W        W27756   5.862  17.048   0.999
56031W        W27757  22.218  39.348   3.618
56032W        W27758  27.171  37.613   3.346
56033W        W27759  10.894  29.535   1.209
56034W        W27760  24.088   2.643   0.376
56035W        W27761  20.005   1.401   2.640
56036W        W27762  39.810   7.878   4.215
56037W        W27763  13.474   8.854   4.675
56038W        W27764  10.138  16.452  10.916
56039W        W27765  26.564  38.776  10.849
56040W        W27766  37.061  21.119  10.662
56041W        W27767  33.843  29.448   4.816
56042W        W27768  18.309  12.553  14.790
56043W        W27769  30.878  25.979  12.811
56044W        W27770  36.649  34.599   3.920
56045W        W27771   4.959   9.534  11.066
56046W        W27772  19.814  24.527  12.582
56047W        W27773  33.110  43.021  12.511
56048W        W27774   3.945  14.298   4.918
56049W        W27775  38.261  17.854  10.442
56050W        W27776  28.484  18.657  12.030
56051W        W27777   3.352  11.825  14.800
56052W        W27778  42.811  25.526   1.134
56053W        W27779  26.023   8.184   4.675
56054W        W27780  24.458  30.825  14.053
56055W        W27781  42.799  11.728   0.841
56056W        W27782   9.090  30.672  13.484
56057W        W27783  20.242  40.322   0.301
56058W        W27784  25.464  42.360   4.241
56059W        W27785  22.279  16.193   3.193
56060W        W27786  18.232   9.984   0.575
56061W        W27787  40.996  37.877  14.758
56062W        W27788  11.519  36.435   4.049
56063W        W27789   4.211  27.942  13.129
56064W        W27790  10.159  36.291  12.473
56065W        W27791  14.042  30.207  13.427
56066W        W27792   4.203  18.242   4.935
56067W        W27793  31.100  39.034  14.233
56068W        W27794  34.385  13.824   4.471
56069W        W27795   9.244  26.186   3.382
56070W        W27796  12.754  36.833  10.710
56071W        W27797  12.611  32.676  12.477
56072W        W27798  30.318  39.769  11.586
56073W        W27799  11.052  37.339   4.567
56074W        W27800  26.995  43.995   4.286
56075W        W27801  42.363  10.763   3.172
56076W        W27802  29.026  23.627  10.632
56077W        W27803  15.070  21.693   4.356
56078W        W27804  36.624   7.152   4.200
56079W        W27805  40.803  18.624  10.923
56080W        W27806  10.544  35.108   1.891
56081W        W27807   9.368  18.548   4.159
56082W        W27808  27.916   3.765   0.119
56083W        W27809  44.958  38.101  14.859
56084W        W27810  28.446  18.774  14.318
56085W        W27811   9.209  19.956  14.215
56086W        W27812  34.856  13.189   4.493
56087W        W27813  37.628  11.182  12.357
56088W        W27814   1.707  28.058   1.846
56089W        W27815  39.507  42.414   2.020
56090W        W27816   8.413  42.372  12.226
56091W        W27817   4.607  23.893  11.875
56092W        W27818   5.388  22.490  11.163
56093W        W27819  25.117  41.210   1.266
56094W        W27820  37.449  21.114  11.014
56095W        W27821  23.036  12.321   4.585
56096W        W27822   3.795  28.238  13.081
56097W        W27823  38.987  12.395  13.033
56098W        W27824  16.045  41.564  12.955
56099W        W27825  31.025  10.705   3.317
56100W        W27826  16.248  17.310  13.913
56101W        W27827   0.910  36.299   0.762
56102W        W27828  26.817  31.137   4.213
56103W        W27829  44.223  19.539  14.475
56104W        W27830  10.883  25.359   0.198
56105W        W27831  35.887  41.506  11.623
56106W        W27832  18.070  33.579  12.797
56107W        W27833  23.102  20.595  13.333
56108W        W27834  43.404  20.156  13.704
56109W        W27835   9.197  34.594   4.646
56110W        W27836  22.392   5.747  13.366
56111W        W27837  42.477   1.746  11.190
56112W        W27838  29.898  34.017  14.799
56113W        W27839  11.748  41.632   2.770
56114W        W27840  10.960  43.521   2.364
56115W        W27841  33.538  17.978   0.260
56116W        W27842   3.695  20.055  11.159
56117W        W27843  40.338  20.114  13.222
56118W        W27844  32.620  29.384   3.662
56119W        W27845  42.780  38.904   4.186
56120W        W27846  24.758  34.312  12.375
56121W        W27847   9.747  37.998   1.396
56122W        W27848   6.796   3.231   3.178
56123W        W27849   5.264   2.785   2.195
56124W        W27850   6.825   7.124  12.462
56125W        W27851  22.171   4.255  10.624
56126W        W27852  25.159  39.226  12.727
56127W        W27853  36.069  30.702   2.174
56128W        W27854  27.683   2.271  12.944
56129W        W27855  39.862  22.643  12.895
56130W        W27856  33.102   3.408  11.164
56131W        W27857  16.533  28.107  14.481
56132W        W27858  38.441  12.701  14.354
56133W        W27859  15.042  30.535  12.042
56134W        W27860  19.523  43.756   1.575
56135W        W27861  17.459  10.311  12.903
56136W        W27862  13.454   5.916  13.335
56137W        W27863   2.654  38.815   3.251
56138W        W27864  22.029  39.414   1.706
56139W        W27865  21.992  19.247   4.225
56140W        W27866  27.217  36.081  12.965
56141W        W27867   3.819  22.252   1.880
56142W        W27868   1.698  26.722   4.196
56143W        W27869  40.412   0.707   1.477
56144W        W27870  32.015  25.115  11.860
56145W        W27871   4.336  14.118   0.373
56146W        W27872   3.734  32.845  13.570
56147W        W27873  33.592  21.292   9.908
56148W        W27874  41.957   6.834   1.639
56149W        W27875  11.582  13.522  11.527
56150W        W27876  44.539  37.526   2.719
56151W        W27877  26.606  16.081  12.880
56152W        W27878  26.400  44.306   3.161
56153W        W27879   6.315  28.487  14.708
56154W        W27880  18.806  35.288  14.034
56155W        W27881  14.237   7.683  12.308
56156W        W27882   1.522  24.472  14.033
56157W        W27883  40.783  10.875   2.323
56158W        W27884  15.393  22.716  13.426
56159W        W27885  26.925   1.005  14.410
56160W        W27886  10.845  15.184  11.710
56161W        W27887  29.854  37.186   3.374
56162W        W27888  27.783  31.385  12.000
56163W        W27889  19.766  22.676  14.864
56164W        W27890  13.541  26.994  14.792
56165W        W27891  16.748  35.030   2.612
56166W        W27892  18.178  26.063  12.165
56167W        W27893  42.345  29.955  11.548
56168W        W27894   2.953  37.636  10.710
56169W        W27895  22.193  26.526   4.904
56170W        W27896  35.931  31.461  12.109
56171W        W27897  12.276  19.016   3.170
56172W        W27898  36.301  26.190  12.559
56173W        W27899  10.326  28.153   3.796
56174W        W27900  40.067  43.063  11.106
56175W        W27901  15.918  26.957  12.068
56176W        W27902   6.096  16.425   1.699
56177W        W27903  38.113   4.242  14.675
56178W        W27904   8.146  42.054   0.787
56179W        W27905  18.296   1.623   2.237
56180W        W27906  24.543  30.130  12.284
56181W        W27907  25.401   0.381  10.720
56182W        W27908  35.923  18.736   2.123
56183W        W27909  10.741  19.291   4.386
56184W        W27910   3.392  41.479   4.689
56185W        W27911   6.844  42.515   1.615
56186W        W27912   2.788   3.123   3.680
56187W        W27913  22.506  23.740   1.751
56188W        W27914  36.124  44.977  10.656
56189W        W27915   3.033  23.544   0.751
56190W        W27916  36.320  32.329  11.147
56191W        W27917   6.640  42.572   1.168
56192W        W27918   2.119  29.159  13.567
56193W        W27919   8.765  32.880  14.873
56194W        W27920  41.250  30.202  13.419
56195W        W27921  16.745   7.106  13.803
56196W        W27922  29.840  31.632  11.651
56197W        W27923   7.942  19.506  12.507
56198W        W27924  14.498  35.572  12.182
56199W        W27925  35.585  36.541  14.760
56200W        W27926  13.771  27.862   0.170
56201W        W27927  11.499  25.793   4.995
56202W        W27928   4.900  17.391  11.067
56203W        W27929   5.513   2.298  14.690
56204W        W27930   6.167  18.703  12.390
56205W        W27931  27.555   7.420  13.921
56206W        W27932  37.803  42.473  13.784
56207W        W27933  31.978  25.120  13.366
56208W        W27934  17.548  39.229   2.668
56209W        W27935  13.732   7.907   3.192
56210W        W27936  25.802  19.617  13.089
56211W        W27937  21.455  22.988  11.072
56212W        W27938  25.665  12.336   1.760
56213W        W27939  25.426   8.314   3.746
56214W        W27940  30.787   5.421   1.176
56215W        W27941  34.449  12.494   2.861
56216W        W27942  29.605  27.526   1.296
56217W        W27943   9.195   9.906  11.945
56218W        W27944  13.537   3.856  13.532
56219W        W27945  12.285  42.573   4.205
56220W        W27946  41.590  17.224  11.520
56221W        W27947  40.391  23.505   4.149
56222W        W27948  13.649  35.082  12.568
56223W        W27949   8.863  27.604   1.017
56224W        W27950  44.325  37.308   4.103
56225W        W27951  44.843  25.049  11.960
56226W        W27952  37.939  31.720  14.142
56227W        W27953  40.767   2.224   4.174
56228W        W27954  27.915  38.875   3.227
56229W        W27955  11.126  38.345  12.408
56230W        W27956  38.317  21.769   3.651
56231W        W27957  33.568  34.338   0.393
56232W        W27958  37.536  27.560   4.620
56233W        W27959  12.811  15.592  10.403
56234W        W27960  21.555  20.740  10.892
56235W        W27961  20.805  44.293   0.402
56236W        W27962   0.188  35.744   1.203
56237W        W27963  13.413  26.658  14.419
56238W        W27964  37.963   6.123   4.780
56239W        W27965  26.678  31.633   4.240
56240W        W27966  36.169  36.393   4.845
56241W        W27967  11.404  39.960   0.368
56242W        W27968  33.509  17.116  14.782
56243W        W27969  24.738  21.148  13.257
56244W        W27970  36.125  12.799  10.639
56245W        W27971  18.746  22.576   2.692
56246W        W27972   2.010  28.201  13.068
56247W        W27973  28.592  20.610  10.565
56248W        W27974  41.328  24.755   3.879
56249W        W27975  30.161  32.142  10.608
56250W        W27976  25.665  11.809  12.849
56251W        W27977  31.472  10.521   2.831
56252W        W27978  21.351  34.102  11.576
56253W        W27979  27.880   8.673   2.353
56254W        W27980  42.988  10.257  11.307
56255W        W27981  35.669   4.482  11.622
56256W        W27982  25.479   8.758  14.211
56257W        W27983  11.532  42.356  14.505
56258W        W27984  44.190  27.532   2.699
56259W        W27985  38.510   3.685   2.626
56260W        W27986  14.998  40.893  10.674
56261W        W27987   6.756  30.073  13.858
56262W        W27988  39.837  28.469  12.554
56263W        W27989   9.842   4.934   4.283
56264W        W27990  28.953  40.391   3.280
56265W        W27991   6.864  38.869   1.239
56266W        W27992  14.766  44.698  13.956
56267W        W27993  23.588  16.588  13.553
56268W        W27994  23.099  32.042  14.477
56269W        W27995  12.355   4.175   4.569
56270W        W27996  14.540  42.001   4.686
56271W        W27997  19.529  28.074  11.663
56272W        W27998  27.055  15.413  10.471
56273W        W27999   6.639  16.224   5.077
56274W        W28000  31.481  42.530  10.107
56275W        W28001  14.225  27.362  12.530
56276W        W28002  42.159  16.031  13.410
56277W        W28003  37.119  23.052   0.823
56278W        W28004   4.241   5.111   4.654
56279W        W28005  37.019   9.642  14.810
56280W        W28006  16.181  37.994  14.448
56281W        W28007  11.401  25.175   5.128
56282W        W28008  37.562  12.358  12.609
56283W        W28009  36.072  33.867   1.409
56284W        W28010  40.345  42.853   0.856
56285W        W28011  21.080  19.287   2.278
56286W        W28012  13.440  15.573  13.691
56287W        W28013   5.213   3.982   1.810
56288W        W28014   4.823  11.906  14.416
56289W        W28015  11.471  14.129  11.887
56290W        W28016   5.268  36.950   2.929
56291W        W28017  33.013  17.158   0.423
56292W        W28018  24.069  23.471  12.036
56293W        W28019  26.764   9.768   3.867
56294W        W28020   7.406  40.324  11.208
56295W        W28021   3.728  42.793  11.120
56296W        W28022   3.512  29.233  12.214
56297W        W28023   1.963  40.609  11.058
56298W        W28024  33.088  24.171   3.299
56299W        W28025  43.233  11.012   3.901
56300W        W28026  20.582  28.092  13.793
56301W        W28027  25.775  20.983   2.786
56302W        W28028   8.119   2.359  11.986
56303W        W28029  31.715  28.649  11.967
56304W        W28030  35.838  37.566   0.405
56305W        W28031  31.976  18.840   5.156
56306W        W28032  32.955   5.245   0.315
56307W        W28033  39.424  18.721  14.041
56308W        W28034  24.099  18.907  12.608
56309W        W28035  28.648  11.723  13.010
56310W        W28036  23.724   4.742   1.166
56311W        W28037  14.282  43.780   1.267
56312W        W28038  43.958  31.967   0.426
56313W        W28039  12.420  34.029   4.809
56314W        W28040  44.282  18.550  11.912
56315W        W28041  34.096  22.924  11.446
56316W        W28042  13.267  17.158   2.812
56317W        W28043  26.951  30.425  10.757
56318W        W28044  39.487  27.683  13.835
56319W        W28045  39.780  35.949  13.400
56320W        W28046  37.254  12.005  10.542
56321W        W28047  35.003  41.336   1.761
56322W        W28048  23.965   7.013  11.431
56323W        W28049  29.121  24.270  12.595
56324W        W28050   1.572  34.276   0.991
56325W        W28051  34.384  25.732   1.362
56326W        W28052  31.065  22.642   4.080
56327W        W28053   0.396  34.155   3.277
56328W        W28054  18.003  43.734  11.010
56329W        W28055  27.589  17.923  11.472
56330W        W28056  36.796  42.932   1.271
56331W        W28057  28.780  21.045  12.971
56332W        W28058  19.717  32.528  10.621
56333W        W28059  20.996   1.818  12.932
56334W        W28060  36.300  10.251   1.461
56335W        W28061  42.987  17.274   4.208
56336W        W28062  39.919  20.126   4.762
56337W        W28063   3.391   1.918   0.189
56338W        W28064   3.045  19.802  12.933
56339W        W28065  34.990  15.016  11.607
56340W        W28066  42.672  35.020   4.086
56341W        W28067  39.432  17.294   0.437
56342W        W28068  39.360  12.122  12.138
56343W        W28069  28.100  15.021  11.603
56344W        W28070  29.682   0.415  11.988
56345W        W28071  37.011  36.491   3.660
56346W        W28072  19.184  30.677   1.470
56347W        W28073  42.426  15.117   3.839
56348W        W28074  38.963   2.914  12.426
56349W        W28075   1.391  26.087   0.780
56350W        W28076  30.346  12.237   1.844
56351W        W28077  25.022   4.600   1.823
56352W        W28078  26.145   8.888  13.987
56353W        W28079  35.493   5.497   3.408
56354W        W28080  21.126   4.996   4.523
56355W        W28081  12.921  15.228   1.950
56356W        W28082  10.924  12.289   0.439
56357W        W28083  33.552  19.124   1.901
56358W        W28084   9.710  36.648   2.276
56359W        W28085   1.634   2.648  11.877
56360W        W28086  33.429  20.682   2.705
56361W        W28087  25.849  14.376   3.307
56362W        W28088   9.858  32.345  14.822
56363W        W28089  10.726  15.320   0.838
56364W        W28090  10.657  25.196   3.609
56365W        W28091  44.691  16.305  13.652
56366W        W28092   0.998  12.802   2.395
56367W        W28093  26.986   8.477  14.273
56368W        W28094  31.436   8.426   0.958
56369W        W28095  22.156  13.847  11.092
56370W        W28096  12.542  27.243  12.017
56371W        W28097  21.121  11.173  14.560
56372W        W28098  42.300  29.994   0.966
56373W        W28099   0.811  13.199  12.165
56374W        W28100  25.738  43.426   4.249
56375W        W28101   2.765  22.111   0.385
56376W        W28102  13.754  14.738  10.564
56377W        W28103  23.150  37.432   1.677
56378W        W28104   2.097   2.921   2.746
56379W        W28105   9.075  14.397  14.025
56380W        W28106  24.107  37.308   2.753
56381W        W28107  18.231   3.919  11.849
56382W        W28108   0.032   7.736  14.903
56383W        W28109  33.092  44.935   1.764
56384W        W28110  44.531  38.899   0.369
56385W        W28111   6.640  33.624  14.863
56386W        W28112  12.326  40.917  11.940
56387W        W28113  16.313   4.524  11.211
56388W        W28114  38.831  11.717  13.930
56389W        W28115  17.621  28.550   3.620
56390W        W28116  33.305  33.643  12.824
56391W        W28117  10.442  24.665  12.991
56392W        W28118   4.984  35.357   0.351
56393W        W28119  30.062  30.262   0.398
56394W        W28120  35.296  10.617   0.303
56395W        W28121  21.773  24.437   4.168
56396W        W28122  13.792  18.552   2.359
56397W        W28123   8.288  26.879  10.570
56398W        W28124  40.042  43.825   3.236
56399W        W28125   0.751  42.572   1.559
56400W        W28126  37.013  23.125   2.150
56401W        W28127  22.284  34.946   2.909
56402W        W28128   6.270  15.628   2.198
56403W        W28129   7.910  40.403   1.489
56404W        W28130  22.093  26.448  14.402
56405W        W28131  38.418   8.842   2.340
56406W        W28132   0.782  42.752  13.706
56407W        W28133  41.453  17.276  13.803
56408W        W28134  29.909  36.372  14.485
56409W        W28135   4.275  18.555   2.118
56410W        W28136  14.706  34.411   4.559
56411W        W28137  26.655  33.257   1.828
56412W        W28138   9.891  35.440  14.612
56413W        W28139  20.114  16.743   0.843
56414W        W28140  35.537  20.890  12.913
56415W        W28141  29.462  35.038  12.506
56416W        W28142  41.311  42.786   2.962
56417W        W28143  38.083  40.815  13.379
56418W        W28144  16.716  33.991  13.399
56419W        W28145  35.603  25.471   0.915
56420W        W28146   7.447   3.462  14.342
56421W        W28147  41.387   9.896   3.005
56422W        W28148  20.039  29.433  13.341
56423W        W28149  33.431  40.327  11.083
56424W        W28150  36.551  30.602  10.434
56425W        W28151  30.098  22.159  12.577
56426W        W28152   0.389  18.778  14.380
56427W        W28153  36.575  15.713  11.688
56428W        W28154  10.135  40.034   3.290
56429W        W28155  42.779  40.845  14.857
56430W        W28156  42.856   5.641  12.985
56431W        W28157  39.170  11.153   4.132
56432W        W28158  36.322  19.127  14.601
56433W        W28159  22.649  21.810  14.547
56434W        W28160  29.504  12.087   9.815
56435W        W28161  22.021  38.065  12.661
56436W        W28162  12.385  39.843   1.698
56437W        W28163  20.618  36.607   1.152
56438W        W28164  22.961  20.477   1.187
56439W        W28165  15.101  17.575  10.847
56440W        W28166   5.818  19.265   0.770
56441W        W28167  34.624  10.436  11.051
56442W        W28168  25.004  30.033  12.521
56443W        W28169  22.511  18.023  12.112
56444W        W28170  10.241  24.465   4.406
56445W        W28171  15.307  40.389  10.611
56446W        W28172  10.681  30.157  14.988
56447W        W28173  28.897  29.972   3.803
56448W        W28174  35.057  17.001  10.296
56449W        W28175  10.767   1.917   5.083
56450W        W28176   6.813   7.876  12.982
56451W        W28177  21.775  19.810  10.967
56452W        W28178  25.821  39.484  13.536
56453W        W28179   6.686  43.195   4.441
56454W        W28180  24.191  22.423  12.887
56455W        W28181   0.760  35.812   0.683
56456W        W28182  27.745  27.157   3.248
56457W        W28183  14.669   0.397  12.549
56458W        W28184  12.184  19.630   0.279
56459W        W28185  32.404  11.303  13.973
56460W        W28186  44.265  21.420   2.738
56461W        W28187   2.543   2.413  11.951
56462W        W28188  30.618  10.701   1.938
56463W        W28189   1.054   9.644   2.260
56464W        W28190  11.393   5.862  12.434
56465W        W28191   9.425  22.273   0.810
56466W        W28192  40.512  40.256  11.586
56467W        W28193   3.830  15.229  11.625
56468W        W28194  26.709  39.496   3.360
56469W        W28195   2.248   7.375   3.512
56470W        W28196  36.517   6.221  10.675
56471W        W28197   3.261  34.230  10.611
56472W        W28198  30.941   5.770  10.645
56473W        W28199  37.608   5.661  12.619
56474W        W28200   0.364  34.990   1.702
56475W        W28201  16.517  37.533   0.084
56476W        W28202  43.383  40.055  14.829
56477W        W28203   4.266  30.758  12.028
56478W        W28204  34.494  16.383  12.583
56479W        W28205  34.850  32.616   2.229
56480W        W28206   9.168   7.708   1.661
56481W        W28207  27.157  13.811  12.462
56482W        W28208  21.217  14.104  12.484
56483W        W28209  12.457  24.284   0.377
56484W        W28210   0.307  24.559   4.244
56485W        W28211  39.425  20.578  11.502
56486W        W28212  44.791  16.722  13.389
56487W        W28213  42.724  37.911  13.973
56488W        W28214  33.375  18.778   4.552
56489W        W28215  30.127  35.567   3.699
56490W        W28216  24.984  15.382  13.003
56491W        W28217  14.887  35.312   2.236
56492W        W28218   8.353  29.009   0.669
56493W        W28219  27.068  27.467   4.741
56494W        W28220  18.621  24.220   2.469
56495W        W28221   6.810  17.516  14.841
56496W        W28222  22.093  37.581  13.956
56497W        W28223  17.125  38.779  12.381
56498W        W28224  24.169  39.898   0.982
56499W        W28225   7.186  13.726  12.318
56500W        W28226   9.432  20.651  12.084
56501W        W28227  26.969  41.428  13.600
56502W        W28228  11.306  15.275  14.343
56503W        W28229   6.421  30.177   2.149
56504W        W28230  40.326  40.366   3.244
56505W        W28231   9.335  20.876  12.754
56506W        W28232  22.927  10.129  14.567
56507W        W28233  34.057   1.440   3.296
56508W        W28234   3.029   5.717   0.192
56509W        W28235  16.693  43.755   3.633
56510W        W28236  15.162  12.836  12.142
56511W        W28237  25.448  19.868  13.979
56512W        W28238   6.649  10.299  13.295
56513W        W28239  16.140  11.073   3.742
56514W        W28240  28.969  28.015  14.802
56515W        W28241   9.945  33.301   9.668
56516W        W28242  14.692  15.681   3.796
56517W        W28243  32.881  12.893   2.425
56518W        W28244   2.523   0.339   1.100
56519W        W28245  32.853  16.874   1.723
56520W        W28246  12.319  36.465  13.893
56521W        W28247  42.806  21.605  14.146
56522W        W28248   6.757  31.426  13.612
56523W        W28249   4.348  19.989   2.384
56524W        W28250  28.207   5.481   2.723
56525W        W28251   7.732  21.988  12.607
56526W        W28252  29.071  36.831  14.176
56527W        W28253  28.145  20.069   2.184
56528W        W28254  21.231  34.150   2.257
56529W        W28255  21.763  42.740  11.176
56530W        W28256   1.822  31.996  12.083
56531W        W28257  28.191  42.378   2.327
56532W        W28258   8.342  12.293  11.573
56533W        W28259  22.249  16.135  11.383
56534W        W28260  10.680   3.919  13.516
56535W        W28261  34.383   5.588  12.078
56536W        W28262  34.043  12.798   2.657
56537W        W28263   4.673   4.674  11.444
56538W        W28264   0.615  17.431   5.051
56539W        W28265   7.178  25.243   4.567
56540W        W28266  26.553  36.034   2.835
56541W        W28267  30.471  15.229  11.032
56542W        W28268  12.421   5.213  11.090
56543W        W28269  20.243  16.651   1.681
56544W        W28270   9.889  23.781   3.312
56545W        W28271  39.213  20.231  13.441
56546W        W28272  39.289  34.393  10.435
56547W        W28273   0.843  15.190  13.582
56548W        W28274   3.514  23.465   4.714
56549W        W28275  19.580  40.059  14.423
56550W        W28276   1.752  23.177  11.528
56551W        W28277  10.829  34.038  12.864
56552W        W28278  27.189  28.754   4.648
56553W        W28279  38.721  22.058   2.490
56554W        W28280   5.999  39.557  14.803
56555W        W28281  13.323  36.445   3.655
56556W        W28282   5.698  26.300  12.206
56557W        W28283  10.684  27.088   3.416
56558W        W28284   6.871  15.587   3.340
56559W        W28285  13.483  31.968  13.997
56560W        W28286  23.144  35.023  11.442
56561W        W28287  16.922  38.546  13.973
56562W        W28288   7.683  39.589   2.378
56563W        W28289  13.101  38.699  11.571
56564W        W28290  30.746   8.568   2.345
56565W        W28291  15.588  10.110  14.843
56566W        W28292  27.023  20.365   3.150
56567W        W28293  38.313  31.678  11.253
56568W        W28294  31.763  30.953  13.610
56569W        W28295  21.315  26.594   5.084
56570W        W28296  37.806  32.509  12.922
56571W        W28297  15.596  27.121  11.715
56572W        W28298  40.981  19.370   3.438
56573W        W28299  43.384  30.671  10.744
56574W        W28300  31.273  22.006  11.638
56575W        W28301  30.539  38.870   0.524
56576W        W28302  20.660  32.387  12.426
56577W        W28303  14.925  27.702  10.987
56578W        W28304   2.176  16.380   3.834
56579W        W28305  34.779  13.404   2.876
56580W        W28306  27.981  44.826  14.793
56581W        W28307  28.945   3.375  14.877
56582W        W28308  36.092   9.931   2.186
56583W        W28309  42.711  33.139  11.900
56584W        W28310  19.091   4.841   1.912
56585W        W28311  38.802   6.677  13.896
56586W        W28312  28.839  14.162   4.181
56587W        W28313   2.474   5.740   4.197
56588W        W28314   1.409  25.266  10.644
56589W        W28315  14.164  32.772   0.839
56590W        W28316  12.830  33.164  11.148
56591W        W28317   1.273  17.141   4.563
56592W        W28318  38.305  17.833   2.325
56593W        W28319  23.474  23.595   4.351
56594W        W28320  18.530  24.312   1.497
56595W        W28321  33.456  26.982  13.849
56596W        W28322   1.722  44.278   3.238
56597W        W28323  16.041  29.114   4.634
56598W        W28324   4.412  15.885  11.529
56599W        W28325   7.185  34.795  10.110
56600W        W28326   0.891  37.293   0.917
56601W        W28327  19.048   0.852   4.047
56602W        W28328   9.648  35.716  13.383
56603W        W28329  10.715  32.552  11.115
56604W        W28330  44.407  37.563  14.433
56605W        W28331  38.408  35.881  11.881
56606W        W28332  41.326  22.535   4.114
56607W        W28333  43.792  35.037  11.094
56608W        W28334  38.453   9.598   0.776
56609W        W28335  33.538  42.063   1.299
56610W        W28336  38.003  37.822   4.210
56611W        W28337  27.724  20.528   1.951
56612W        W28338  22.135  40.495   2.427
56613W        W28339  19.647  24.566   4.485
56614W        W28340  25.842  31.326   4.245
56615W        W28341   3.249   3.184   2.906
56616W        W28342  24.681   7.248  12.492
56617W        W28343  20.644  32.416  13.192
56618W        W28344  25.062  27.921   2.035
56619W        W28345  22.507  21.979  11.421
56620W        W28346   1.448  31.391   3.784
56621W        W28347  33.789  20.608  12.007
56622W        W28348  17.332  18.945  14.240
56623W        W28349   6.341   9.744   3.185
56624W        W28350  39.309  16.238  10.631
56625W        W28351  18.634  36.611   3.649
56626W        W28352  41.845  13.723  11.314
56627W        W28353   5.110   8.076  10.540
56628W        W28354  18.797   2.484  13.120
56629W        W28355  16.829  28.921   2.764
56630W        W28356  20.238  42.908  13.954
56631W        W28357  22.087  27.819   5.656
56632W        W28358  32.744  28.379  11.122
56633W        W28359  42.435  38.491  12.436
56634W        W28360  29.827   8.676   4.967
56635W        W28361  38.388  14.656   4.252
56636W        W28362  30.412  35.860   4.474
56637W        W28363   7.619   1.933  13.964
56638W        W28364  26.309  21.207   0.804
56639W        W28365  21.228  44.422  13.583
56640W        W28366  33.425  39.822  11.117
56641W        W28367  28.932   1.823  13.490
56642W        W28368   6.255  16.536   4.562
56643W        W28369  36.969  40.334  13.885
56644W        W28370  28.090   8.793  14.410
56645W        W28371  22.670   2.815  11.469
56646W        W28372   5.701  13.586   2.735
56647W        W28373  16.271  43.685   0.936
56648W        W28374  37.932   1.544  11.477
56649W        W28375  26.760  39.039   4.133
56650W        W28376  33.068  42.980  14.479
56651W        W28377  37.856  23.462   4.543
56652W        W28378  25.642  21.700  12.037
56653W        W28379  37.473  30.662  11.847
56654W        W28380  26.763  41.853   1.290
56655W        W28381  19.497  32.415   4.676
56656W        W28382  42.242   7.831  14.675
56657W        W28383  25.447  22.727  14.236
56658W        W28384   9.226   2.908  14.747
56659W        W28385  10.098  36.920  11.898
56660W        W28386  30.609  33.605   3.247
56661W        W28387  43.622  42.313  10.358
56662W        W28388  13.592   9.843  13.921
56663W        W28389  23.995  15.812   2.950
56664W        W28390  25.729   2.508   3.413
56665W        W28391  32.087  43.433  14.541
56666W        W28392  35.139  24.683   2.631
56667W        W28393  23.776  17.691   0.107
56668W        W28394  38.086  12.892  14.696
56669W        W28395  44.916  13.311   4.584
56670W        W28396  10.273  38.293   9.921
56671W        W28397   0.101  20.933   5.047
56672W        W28398  15.302  32.884  14.121
56673W        W28399  35.944   2.380  14.826
56674W        W28400   2.956  21.093  13.032
56675W        W28401  31.850   3.702  12.016
56676W        W28402   4.404  41.973   1.161
56677W        W28403  28.694   9.040   2.872
56678W        W28404   6.616  11.286   3.759
56679W        W28405  23.763  31.560   1.493
56680W        W28406  27.023  43.662   3.723
56681W        W28407  23.764  24.561  11.584
56682W        W28408  36.039   4.009   0.411
56683W        W28409  43.578  33.611  13.838
56684W        W28410   8.122  35.080   1.810
56685W        W28411   2.848  42.006   2.323
56686W        W28412  17.104  15.203  12.001
56687W        W28413  34.860  19.703  11.220
56688W        W28414  31.634   6.810  11.029
56689W        W28415  13.446  13.338   0.350
56690W        W28416   5.492  21.191   5.019
56691W        W28417   6.886   7.349  12.935
56692W        W28418  16.227  37.373   1.010
56693W        W28419  38.914  43.916   2.838
56694W        W28420  43.010  20.751   0.492
56695W        W28421  12.157  17.617  14.275
56696W        W28422   8.726  37.047  14.939
56697W        W28423  11.879  34.088   5.005
56698W        W28424  35.028  44.727   1.912
56699W        W28425  19.629   1.211   1.444
56700W        W28426   8.819  29.907   3.809
56701W        W28427  23.203  16.327   2.736
56702W        W28428  23.817  17.328   0.478
56703W        W28429  11.636  12.483  14.424
56704W        W28430  27.542   9.432  14.768
56705W        W28431   4.259  18.682  12.070
56706W        W28432  22.281  31.740   1.422
56707W        W28433  31.649  11.752  14.915
56708W        W28434  15.838  10.132   3.326
56709W        W28435  36.121  35.063   2.796
56710W        W28436  37.074  22.022  14.924
56711W        W28437  31.053  28.037   0.212
56712W        W28438   6.527  33.426  11.564
56713W        W28439  18.639  28.076  14.574
56714W        W28440  16.440  10.383   1.409
56715W        W28441  11.360  24.162  11.657
56716W        W28442  36.338   0.755   2.806
56717W        W28443  14.207   2.333  12.788
56718W        W28444   6.070  18.828  14.824
56719W        W28445  43.185  23.292  14.191
56720W        W28446  44.009  38.209   3.038
56721W        W28447  30.029  11.872   3.755
56722W        W28448   9.286  30.051   3.616
56723W        W28449   2.579  13.614   3.670
56724W        W28450   1.959  43.996   0.402
56725W        W28451   6.857  33.418   1.317
56726W        W28452   4.431   1.979  10.991
56727W        W28453   3.934  42.431   3.680
56728W        W28454  11.329   3.039   1.340
56729W        W28455  34.313  35.998  14.079
56730W        W28456  15.411  25.707  10.744
56731W        W28457   5.753   5.990  14.932
56732W        W28458  25.523   7.411   2.420
56733W        W28459  34.075  18.803   1.869
56734W        W28460  33.624  38.891   3.274
56735W        W28461  35.346  29.221   1.239
56736W        W28462  10.896  12.627   2.140
56737W        W28463  39.915  37.434  13.897
56738W        W28464   2.304  14.031   2.411
56739W        W28465   2.500  12.872  14.995
56740W        W28466  41.291   9.208  12.984
56741W        W28467  13.314  43.287  12.203
56742W        W28468  16.608  22.452   3.323
56743W        W28469   0.782  13.845   1.422
56744W        W28470  37.083   2.519   1.297
56745W        W28471  34.429  11.727   3.246
56746W        W28472  26.942  37.923  11.448
56747W        W28473  43.727  39.940  13.536
56748W        W28474  10.439  43.282  14.904
56749W        W28475  12.119  40.370   1.745
56750W        W28476  29.416  16.807  14.488
56751W        W28477  10.871  37.049   4.970
56752W        W28478  20.051  23.001   3.067
56753W        W28479   7.142   8.289  11.826
56754W        W28480  27.603  22.147   0.268
56755W        W28481  44.555   7.255   1.667
56756W        W28482  12.155   9.795   3.716
56757W        W28483  35.391  13.901  14.473
56758W        W28484  11.826  11.055   2.622
56759W        W28485  12.572  27.685  11.774
56760W        W28486  39.912  10.597  14.736
56761W        W28487  20.691  27.206   1.796
56762W        W28488  30.274   9.294   0.815
56763W        W28489  25.679  10.047   3.648
56764W        W28490  20.911   0.420   2.750
56765W        W28491  28.323  15.819  12.132
56766W        W28492  20.270  34.587   1.437
56767W        W28493   3.668   4.313   3.251
56768W        W28494  40.828  29.216   2.289
56769W        W28495  21.052  37.916   2.539
56770W        W28496  43.397  42.755  12.834
56771W        W28497   5.860  39.717   0.273
56772W        W28498  32.669  43.129   4.928
56773W        W28499  39.322  29.979   0.805
56774W        W28500  15.676   3.325  11.142
56775W        W28501  41.056  23.403   0.530
56776W        W28502   6.824  11.011   3.326
56777W        W28503   6.132  31.598   0.701
56778W        W28504  15.012   0.113  10.261
56779W        W28505  34.660  26.969  14.245
56780W        W28506  25.193  18.562   4.266
56781W        W28507  33.548  12.773   3.740
56782W        W28508  43.014  18.536   1.476
56783W        W28509  19.007  34.065  11.898
56784W        W28510  25.118   1.000  14.741
56785W        W28511  24.967   8.837   3.219
56786W        W28512  21.621  17.324  10.587
56787W        W28513  16.164   0.742  11.136
56788W        W28514  26.898  22.563   3.601
56789W        W28515  44.312   5.758   2.901
56790W        W28516  23.787  28.477  10.356
56791W        W28517  38.646  16.756   1.502
56792W        W28518  34.991  18.287   1.774
56793W        W28519  10.280  10.384   1.415
56794W        W28520  42.809  16.201   4.687
56795W        W28521  43.809  28.386   0.735
56796W        W28522  31.921  16.330   1.469
56797W        W28523  44.874  36.279  14.410
56798W        W28524  26.681  22.683   1.850
56799W        W28525  20.067   4.483  14.280
56800W        W28526  43.391  34.944   4.967
56801W        W28527   7.148  12.202  12.479
56802W        W28528  23.660  10.188   1.193
56803W        W28529  10.816  25.896  12.996
56804W        W28530  16.135  35.112  11.506
56805W        W28531   9.451  31.443   1.758
56806W        W28532  10.975   8.411  13.464
56807W        W28533  22.164   9.321  10.596
56808W        W28534  21.261   8.307  14.305
56809W        W28535  39.120  41.893   3.886
56810W        W28536  16.330  28.171  11.189
56811W        W28537   3.295  29.331   0.735
56812W        W28538  14.650  33.407  14.886
56813W        W28539  34.386  26.674   3.285
56814W        W28540  21.199  36.643  13.503
56815W        W28541  20.104  28.557   0.709
56816W        W28542   0.239   9.382   3.687
56817W        W28543  35.762   1.473   0.843
56818W        W28544  31.351  38.029   3.668
56819W        W28545  35.574  30.996  11.157
56820W        W28546  31.113  14.860   1.381
56821W        W28547  21.656  40.294   1.730
56822W        W28548  32.551  25.493   5.511
56823W        W28549  25.703  15.990  12.441
56824W        W28550  37.084   6.366   4.352
56825W        W28551  35.306  43.963   0.907
56826W        W28552  18.602   2.941   2.691
56827W        W28553  26.073  42.937   2.721
56828W        W28554  13.904  19.737  10.904
56829W        W28555  17.807  39.518  14.268
56830W        W28556  27.048   3.038   2.209
56831W        W28557   6.312  38.880  12.123
56832W        W28558   8.243  10.225  12.489
56833W        W28559  39.403   7.166   1.674
56834W        W28560  15.670  29.718  13.722
56835W        W28561  30.222  33.430  13.043
56836W        W28562  34.421  24.581   3.705
56837W        W28563   5.536  10.837   4.801
56838W        W28564  10.252  33.667  10.881
56839W        W28565  43.897   2.333   3.401
56840W        W28566  11.843  29.552   3.392
56841W        W28567  13.823  22.175   1.273
56842W        W28568  15.785  25.679   3.277
56843W        W28569  22.714   6.982  10.569
56844W        W28570   3.749  30.264  11.144
56845W        W28571  40.730  12.535  11.087
56846W        W28572  33.979  11.907   0.251
56847W        W28573  33.562  39.531  10.686
56848W        W28574  23.975  32.615   4.534
56849W        W28575  44.805   4.401  11.618
56850W        W28576   2.563   7.364  14.379
56851W        W28577  27.109  18.289   4.300
56852W        W28578  37.039  13.115  12.567
56853W        W28579   8.717  44.255  14.528
56854W        W28580  10.726  10.096   0.895
56855W        W28581  25.600  12.526   3.687
56856W        W28582  42.343  41.959   2.651
56857W        W28583  41.511  37.009  14.985
56858W        W28584  12.429   0.385  11.980
56859W        W28585  15.021  26.511  11.019
56860W        W28586  23.640  13.384   1.146
56861W        W28587  30.455  18.589   5.280
56862W        W28588  15.384  43.078  13.846
56863W        W28589  13.535   0.965  11.433
56864W        W28590  25.068  17.249  14.913
56865W        W28591  36.895  31.506  11.791
56866W        W28592   0.487  28.238  11.987
56867W        W28593  33.457  41.939   1.808
56868W        W28594  12.578  14.301  11.278
56869W        W28595   8.267   9.409   1.765
56870W        W28596   3.487  39.570   3.854
56871W        W28597  16.983  27.410   1.235
56872W        W28598   6.182  10.452  14.855
56873W        W28599  36.653  23.136   3.359
56874W        W28600  23.524  38.218  14.807
56875W        W28601  40.507  43.365   0.775
56876W        W28602  39.156  13.178   1.333
56877W        W28603  21.033  19.915   0.332
56878W        W28604  13.934  22.697   3.858
56879W        W28605  33.994  21.477  11.453
56880W        W28606  34.091  33.118   0.920
56881W        W28607   1.277  10.677   4.077
56882W        W28608   7.302   2.357  14.095
56883W        W28609   2.182   6.618   2.100
56884W        W28610  32.020  42.940  12.862
56885W        W28611  37.670   7.724   2.733
56886W        W28612  17.066  32.762   0.247
56887W        W28613   7.715  23.687  12.211
56888W        W28614  30.380  38.441   2.883
56889W        W28615  21.967  12.091  11.561
56890W        W28616  12.399  35.373   1.414
56891W        W28617  12.256  35.937   1.514
56892W        W28618  33.849   0.265  14.452
56893W        W28619  44.567  31.802  10.425
56894W        W28620  15.324   9.809   2.905
56895W        W28621  16.528  44.034   1.216
56896W        W28622   4.480  27.425   2.564
56897W        W28623  11.304  16.761  13.404
56898W        W28624  13.668  21.150  13.828
56899W        W28625  43.834  25.969  11.539
56900W        W28626  21.326  27.129  13.038
56901W        W28627  35.975  18.926   1.629
56902W        W28628  13.771  17.061   2.918
56903W        W28629  12.902  21.285  12.865
56904W        W28630  32.902  38.617  12.131
56905W        W28631  23.449  40.941   3.573
56906W        W28632   3.225  44.487   2.336
56907W        W28633  13.795  22.548  10.629
56908W        W28634  13.298   9.197   3.455
56909W        W28635   1.369  37.363   2.167
56910W        W28636  12.896   2.050  11.925
56911W        W28637  19.454  36.023   1.862
56912W        W28638  34.587   0.432   1.748
56913W        W28639  16.211  24.097   4.538
56914W        W28640  14.563  40.103  12.632
56915W        W28641  29.453  12.110   2.168
56916W        W28642   7.400   9.138   4.557
56917W        W28643   9.553   6.635  14.847
56918W        W28644  23.023  28.154  13.469
56919W        W28645  35.892  15.024  14.461
56920W        W28646  44.480  34.933   1.925
56921W        W28647  15.280   4.252   2.620
56922W        W28648  12.852  25.757  13.278
56923W        W28649  28.380  25.019   2.663
56924W        W28650  20.083  10.113   1.829
56925W        W28651  29.904  36.569  12.421
56926W        W28652  42.252  19.029   1.526
56927W        W28653  32.883  31.900  13.490
56928W        W28654  40.219  41.820  11.944
56929W        W28655  16.248  22.548  14.475
56930W        W28656  29.236  22.712   0.273
56931W        W28657  31.981   8.174   0.330
56932W        W28658  38.587  17.146  10.937
56933W        W28659  18.485  24.506  12.060
56934W        W28660   9.565  44.245   4.763
56935W        W28661   1.377  29.988   3.405
56936W        W28662   4.696   8.936  12.590
56937W        W28663   1.900  42.135   2.089
56938W        W28664  20.041  18.115  13.978
56939W        W28665  41.044  18.423  11.498
56940W        W28666   7.253  34.994   1.472
56941W        W28667  25.196  25.272  12.454
56942W        W28668  43.275   1.985  11.272
56943W        W28669  44.516   4.170   4.392
56944W        W28670   8.611   1.205   1.760
56945W        W28671  27.085  25.615   1.380
56946W        W28672  14.356  30.564   4.585
56947W        W28673  27.918   0.519   2.671
56948W        W28674   0.854  38.862  11.577
56949W        W28675  14.859  22.814  14.968
56950W        W28676  41.733  32.085  13.477
56951W        W28677   6.628  17.956  11.150
56952W        W28678   7.081  14.646  11.429
56953W        W28679  37.472  32.683  11.455
56954W        W28680  34.146  44.987  10.553
56955W        W28681   3.758  15.799   5.074
56956W        W28682  32.649  25.956   0.171
56957W        W28683  36.621   4.485  11.568
56958W        W28684  10.144  36.988   0.145
56959W        W28685   4.444  13.377  14.844
56960W        W28686  13.630  30.942   3.456
56961W        W28687   5.912   6.407   4.868
56962W        W28688  23.044   6.554  13.039
56963W        W28689  36.344  42.234  10.584
56964W        W28690  28.098  33.315  10.628
56965W        W28691  25.010  43.608  13.389
56966W        W28692  15.664   6.360   3.172
56967W        W28693   8.125   3.230  13.510
56968W        W28694  22.122  34.890  12.845
56969W        W28695  17.222   8.622   2.170
56970W        W28696  10.474   1.290   4.563
56971W        W28697  17.041  43.351  12.730
56972W        W28698  23.703  38.366   0.350
56973W        W28699  26.600  37.869  10.567
56974W        W28700  31.425  38.562   0.775
56975W        W28701   0.988   3.826   4.931
56976W        W28702  26.203  24.307   0.283
56977W        W28703  25.217  17.179   4.097
56978W        W28704  17.099  35.567  12.401
56979W        W28705   0.220   9.535  11.468
56980W        W28706  44.873  31.881   0.264
56981W        W28707  25.734  35.921  12.856
56982W        W28708  31.277  17.028  11.077
56983W        W28709   3.495  13.832  10.348
56984W        W28710  21.542  27.971   1.260
56985W        W28711   4.276  41.773  11.782
56986W        W28712  19.678  21.293   3.774
56987W        W28713  14.815  37.246  12.130
56988W        W28714  20.002  17.788   0.349
56989W        W28715  22.249  40.498  12.125
56990W        W28716  21.458  18.459   2.406
56991W        W28717  34.690  43.375   3.328
56992W        W28718   5.132  30.600  13.335
56993W        W28719  15.610  34.627   2.423
56994W        W28720   8.358  18.565   4.056
56995W        W28721  31.941  20.670   3.836
56996W        W28722  33.312  40.560  10.630
56997W        W28723   4.967  10.899   3.226
56998W        W28724  21.585  41.345  11.247
56999W        W28725  32.475  35.307  12.109
57000W        W28726   0.132   0.545  10.526
57001W        W28727  35.076  19.618   1.936
57002W        W28728   2.995  23.734  14.243
57003W        W28729  35.507   9.321   0.925
57004W        W28730  25.519  18.232   1.924
57005W        W28731  43.038  41.161   5.090
57006W        W28732  40.903  24.686   2.345
57007W        W28733  20.225  31.216  14.456
57008W        W28734   0.005   7.680  14.040
57009W        W28735  42.462   3.044  13.193
57010W        W28736   6.934  26.380  13.572
57011W        W28737  29.942  43.180   1.417
57012W        W28738  24.250  35.319   2.772
57013W        W28739   5.142  20.142   2.903
57014W        W28740   7.361   8.244  12.766
57015W        W28741  40.235  23.497  10.520
57016W        W28742  32.026  34.102   0.787
57017W        W28743  22.480  36.605   3.265
57018W        W28744  22.652  36.381  14.507
57019W        W28745   0.935  43.599  14.788
57020W        W28746  28.173  39.766   1.422
57021W        W28747  31.993  35.031  13.566
57022W        W28748  26.585  24.558  11.374
57023W        W28749  20.711  42.956  12.800
57024W        W28750   7.782  30.989  13.620
57025W        W28751  41.518  43.953  11.905
57026W        W28752   1.853  25.685   3.905
57027W        W28753  44.884  14.446   2.703
57028W        W28754  33.347  18.142  11.100
57029W        W28755  39.369  40.541   1.531
57030W        W28756  31.966   3.704  12.905
57031W        W28757  29.819  38.017   1.809
57032W        W28758   9.823  31.830  14.813
57033W        W28759  24.195  28.253   4.718
57034W        W28760  24.962   3.920  10.665
57035W        W28761   7.911   8.910   1.300
57036W        W28762  23.173  28.442   2.722
57037W        W28763  20.517  27.025  10.749
57038W        W28764  31.516  25.068   2.263
57039W        W28765  35.632  42.775  12.144
57040W        W28766  33.749  15.422  12.147
57041W        W28767  34.828  32.436   4.101
57042W        W28768  31.163  29.518  13.760
57043W        W28769   0.101   7.792  13.137
57044W        W28770  26.258   5.907  12.443
57045W        W28771   7.498   1.694  12.952
57046W        W28772  34.403   4.863  14.878
57047W        W28773  23.513  16.704   3.089
57048W        W28774  23.596  33.919   3.396
57049W        W28775  12.055  22.215   4.633
57050W        W28776  28.941  26.898   2.919
57051W        W28777  20.621  26.523  12.049
57052W        W28778   3.665  39.633  12.193
57053W        W28779   2.983  14.148  12.290
57054W        W28780  35.603  10.834  13.934
57055W        W28781  16.836  23.109  12.594
57056W        W28782  19.193   9.515   1.659
57057W        W28783  30.701  22.886  10.022
57058W        W28784  34.121  11.964   1.957
57059W        W28785  11.887  26.423  14.614
57060W        W28786  33.947  35.190   0.397
57061W        W28787  24.180  35.402  12.456
57062W        W28788  26.157  10.856  13.647
57063W        W28789  38.158   9.893  12.005
57064W        W28790  11.153  41.476   0.867
57065W        W28791   9.381   7.417   3.800
57066W        W28792  13.272  16.300   1.872
57067W        W28793  44.199   7.228  12.020
57068W        W28794  19.185   8.906   2.891
57069W        W28795  19.494   3.368  13.711
57070W        W28796  27.599  36.066  11.511
57071W        W28797  25.372  30.612  10.307
57072W        W28798  36.814   9.781   1.783
57073W        W28799  17.781  37.039   3.569
57074W        W28800  31.511  29.578   0.485
57075W        W28801   5.225  24.493  14.970
57076W        W28802  19.763  37.096  10.383
57077W        W28803   9.721  26.836  10.453
57078W        W28804  33.143  19.596   3.382
57079W        W28805  19.755  41.598   0.453
57080W        W28806   4.713  23.617   5.037
57081W        W28807  39.401  17.317   1.339
57082W        W28808  17.342  39.401   3.144
57083W        W28809  29.668  14.273   3.172
57084W        W28810  11.151  32.165   4.228
57085W        W28811  31.670   3.741  11.104
57086W        W28812  32.687  18.206   2.592
57087W        W28813  12.899  37.406   2.405
57088W        W28814  37.538  17.609  13.870
57089W        W28815  11.656  40.831  12.888
57090W        W28816  15.837   1.835   3.223
57091W        W28817  20.662  21.152  11.233
57092W        W28818  42.945  26.692  13.926
57093W        W28819  14.082  21.190  12.371
57094W        W28820  27.374  10.809  11.919
57095W        W28821  15.837  27.527   0.799
57096W        W28822  13.611   8.316  12.990
57097W        W28823  16.448  17.097  14.787
57098W        W28824  21.476  44.964  10.613
57099W        W28825  10.226  29.030  11.027
57100W        W28826  32.548  44.285  12.165
57101W        W28827   8.671   9.542  11.122
57102W        W28828  10.178  31.153   0.753
57103W        W28829  24.275  40.646   4.593
57104W        W28830  38.705  20.088   2.802
57105W        W28831  11.318  40.337   4.156
57106W        W28832  13.230  13.789   1.448
57107W        W28833  15.819  12.555   2.318
57108W        W28834  42.774  14.552  13.098
57109W        W28835  21.659  38.919  14.889
57110W        W28836  36.574  31.661  13.078
57111W        W28837  27.164   5.339  14.919
57112W        W28838  41.974  33.965  14.401
57113W        W28839   1.865   5.667   2.335
57114W        W28840  21.244  15.847   0.748
57115W        W28841  34.492  39.025  13.456
57116W        W28842  43.801  28.957  13.911
57117W        W28843  27.059  12.150  10.730
57118W        W28844   8.789  26.533  13.188
57119W        W28845  27.694   7.162  12.970
57120W        W28846  14.860  41.981  12.553
57121W        W28847  13.642  32.698  13.685
57122W        W28848  25.713  11.658   3.232
57123W        W28849  10.450  35.518  11.982
57124W        W28850   2.127  13.163  13.433
57125W        W28851  24.025  22.366  14.550
57126W        W28852  26.040  15.115  13.336
57127W        W28853  24.596  18.785  14.001
57128W        W28854  17.311  29.808   4.231
57129W        W28855  40.741  43.083   3.412
57130W        W28856  28.403  26.523   2.047
57131W        W28857  29.414  24.690   3.775
57132W        W28858  30.968   7.320   4.865
57133W        W28859   9.757  17.951  11.509
57134W        W28860  22.510  36.597   4.104
57135W        W28861  32.043  38.485  11.765
57136W        W28862  20.808  28.807   0.241
57137W        W28863  31.868   8.622  12.083
57138W        W28864   3.163   6.428   2.856
57139W        W28865   5.884  18.231  13.929
57140W        W28866   9.266  18.838   3.741
57141W        W28867  37.309  42.942  11.093
57142W        W28868   6.344  13.214   1.925
57143W        W28869  17.697  10.806   3.199
57144W        W28870  26.266  24.876   3.496
57145W        W28871  37.823  15.714   0.457
57146W        W28872  31.432  17.297   2.309
57147W        W28873  19.739  12.224  12.923
57148W        W28874   3.422  34.560  10.974
57149W        W28875  20.680  28.932  11.396
57150W        W28876  23.044   6.784  11.856
57151W        W28877  40.024  17.573  12.912
57152W        W28878  37.632   5.647  11.196
57153W        W28879   0.890   1.038  13.552
57154W        W28880   5.361  24.442   4.827
57155W        W28881   9.157  18.009   2.705
57156W        W28882  23.758  14.354  12.403
57157W        W28883  39.070  39.402   2.883
57158W        W28884  28.999  39.285  11.119
57159W        W28885  10.910  29.245  12.862
57160W        W28886  21.635  12.150   5.409
57161W        W28887  40.967   9.615  14.776
57162W        W28888  31.351  15.119   3.789
57163W        W28889  40.209  30.697  11.223
57164W        W28890  18.419   1.304   3.635
57165W        W28891  44.568  17.168   1.954
57166W        W28892  19.614  17.682   3.408
57167W        W28893   2.267   8.619   4.718
57168W        W28894  13.181  20.601   0.852
57169W        W28895  17.246  44.003   9.614
57170W        W28896   3.296  27.169   4.694
57171W        W28897  19.163   8.845   4.857
57172W        W28898  14.329  34.013   3.326
57173W        W28899   4.613  21.782   4.505
57174W        W28900  32.750  16.037   2.653
57175W        W28901   5.645  26.112   2.441
57176W        W28902  18.279  21.017   3.640
57177W        W28903   0.074  43.860  11.861
57178W        W28904  13.526  17.306   1.398
57179W        W28905   0.816   9.129   0.504
57180W        W28906  36.485   0.475  11.221
57181W        W28907  18.828  16.022   0.908
57182W        W28908  17.578  41.026  12.539
57183W        W28909  33.839  16.594  14.910
57184W        W28910   5.346  32.848   1.034
57185W        W28911  22.665  42.940  11.635
57186W        W28912  11.443  24.803  13.031
57187W        W28913  20.248  11.179   4.389
57188W        W28914  27.952  11.241  13.504
57189W        W28915  15.847  28.194   1.914
57190W        W28916  39.826  28.097   1.419
57191W        W28917   5.764  24.020  13.380
57192W        W28918  37.662  18.726  12.479
57193W        W28919  40.615  18.220   0.935
57194W        W28920  11.312  24.116  13.431
57195W        W28921  28.413  34.360   4.597
57196W        W28922  18.000   1.299  13.461
57197W        W28923  30.090   9.917   3.680
57198W        W28924  25.803  41.559   3.611
57199W        W28925  37.621  40.562  13.358
57200W        W28926  35.736  29.856   3.797
57201W        W28927   0.978  22.595   2.320
57202W        W28928  20.764  32.553   3.530
57203W        W28929  17.334  44.315   0.748
57204W        W28930  20.067  43.559   1.206
57205W        W28931  39.097  20.662   2.262
57206W        W28932  44.226  33.143  14.216
57207W        W28933  24.430  17.631  10.759
57208W        W28934  19.311  24.609  10.940
57209W        W28935  19.494  18.089  14.966
57210W        W28936  28.188  38.850  14.494
57211W        W28937  41.932  15.874   1.958
57212W        W28938  20.048  12.391  14.819
57213W        W28939  31.154  33.892   3.651
57214W        W28940   4.321   6.212   3.177
57215W        W28941  11.196  30.367  13.071
57216W        W28942  28.096   5.174  13.783
57217W        W28943  42.226   3.812   2.200
57218W        W28944  24.076  12.864  10.610
57219W        W28945  43.896   7.350  10.721
57220W        W28946  42.073  41.921   1.656
57221W        W28947  22.390  32.568   0.542
57222W        W28948  40.801  41.956  13.351
57223W        W28949   0.428  26.151  13.257
57224W        W28950  22.722  26.443  11.935
57225W        W28951   8.140   5.738   2.423
57226W        W28952  10.928  36.817   3.655
57227W        W28953  25.269  13.182   2.941
57228W        W28954  22.125  14.936  11.893
57229W        W28955   1.939  26.854  12.631
57230W        W28956   2.309  35.511   3.257
57231W        W28957   9.875   8.866   0.383
57232W        W28958  29.922  10.642   0.468
57233W        W28959  30.154  20.114   4.354
57234W        W28960  17.128   2.711  14.848
57235W        W28961   4.212  32.481   1.295
57236W        W28962  33.671  27.568  14.468
57237W        W28963  24.603  23.241   0.106
57238W        W28964  16.229  31.973  12.158
57239W        W28965   9.195  17.691   4.345
57240W        W28966  32.825   7.879   1.633
57241W        W28967   9.656   2.668  14.899
57242W        W28968   3.419  25.892   4.184
57243W        W28969  35.313   7.624   0.258
57244W        W28970  28.405   6.853  11.586
57245W        W28971  10.247  12.733   4.435
57246W        W28972   7.516  31.040  14.608
57247W        W28973  10.273   7.821  14.831
57248W        W28974  26.523  42.351  14.989
57249W        W28975  25.065  32.171   2.318
57250W        W28976  26.979   6.834   3.905
57251W        W28977  20.986  28.220  11.122
57252W        W28978   5.651  25.186   3.720
57253W        W28979  29.019  29.849   2.743
57254W        W28980   1.993  37.003  13.909
57255W        W28981  19.268  44.024   1.204
57256W        W28982   7.419  12.780   4.648
57257W        W28983  43.956   2.297  14.290
57258W        W28984  16.660  13.307   3.640
57259W        W28985  32.385  40.459   1.801
57260W        W28986  36.095   0.300   4.591
57261W        W28987   3.946  10.615  12.033
57262W        W28988  30.662   1.493  11.721
57263W        W28989  15.181  15.085  14.937
57264W        W28990  10.354   5.856   1.729
57265W        W28991  44.726  19.386   0.361
57266W        W28992  37.914   7.372  14.007
57267W        W28993   1.377  39.596  11.529
57268W        W28994   1.238   7.363  13.968
57269W        W28995  36.044  27.763   0.951
57270W        W28996  19.635  21.509   2.174
57271W        W28997  33.881  44.962   0.368
57272W        W28998  24.697  20.570  12.856
57273W        W28999  27.477   4.391  11.382
57274W        W29000   4.044  29.848  11.122
57275W        W29001  12.895  12.597  14.532
57276W        W29002  12.704  25.513  13.755
57277W        W29003  33.127  17.112   3.228
57278W        W29004   5.223  40.091  14.859
57279W        W29005  44.342  31.521  12.055
57280W        W29006  34.363   0.891  14.048
57281W        W29007  44.838   5.248   3.274
57282W        W29008  35.836  21.756  12.458
57283W        W29009   3.856   5.715  14.073
57284W        W29010   6.687  26.553  13.099
57285W        W29011  25.186  22.995  13.873
57286W        W29012  15.754  25.031   3.719
57287W        W29013   1.074  40.280  13.354
57288W        W29014  13.117  33.713  13.512
57289W        W29015   2.697   6.809  12.373
57290W        W29016  43.032  26.216  13.011
57291W        W29017  43.087  38.083   2.709
57292W        W29018  41.093   1.398   3.800
57293W        W29019  25.554  39.339   2.229
57294W        W29020  28.468  16.184   1.023
57295W        W29021  26.602  20.825   0.975
57296W        W29022  25.182   5.022   0.032
57297W        W29023   5.811  31.364   4.615
57298W        W29024  22.200   7.969  12.349
57299W        W29025   0.785  29.525   0.931
57300W        W29026  37.501  16.293  11.186
57301W        W29027  23.097  19.762   0.420
57302W        W29028  43.320  43.267  13.769
57303W        W29029  13.679   8.667  14.807
57304W        W29030   6.050  13.229  12.978
57305W        W29031  19.149  15.542   4.284
57306W        W29032  32.767  10.207   0.447
57307W        W29033   3.572  28.102  14.392
57308W        W29034  12.835  15.043  13.074
57309W        W29035  19.303  28.971   1.834
57310W        W29036  39.286  27.006  11.479
57311W        W29037   5.180  17.564  11.895
57312W        W29038  35.984  15.954  14.806
57313W        W29039  24.488  22.585  14.494
57314W        W29040  26.460  32.454   2.006
57315W        W29041  22.427  27.517  14.905
57316W        W29042  38.774   0.829  13.806
57317W        W29043  22.248  13.284  12.959
57318W        W29044  38.861  20.128  12.196
57319W        W29045  31.729   4.404   0.973
57320W        W29046   4.980  16.390   4.612
57321W        W29047  20.358  15.547  14.451
57322W        W29048  37.594  19.055   1.812
57323W        W29049   8.366  25.190   2.375
57324W        W29050   7.476  26.091   1.979
57325W        W29051   8.367   5.775  12.501
57326W        W29052   5.150  13.395   2.594
57327W        W29053  35.311  27.146   2.748
57328W        W29054  13.134  10.247  10.581
57329W        W29055  12.472   7.796  13.380
57330W        W29056  19.535  17.272  11.665
57331W        W29057  22.731  35.372  14.489
57332W        W29058  26.582  38.375  10.447
57333W        W29059  16.197  14.733  10.523
57334W        W29060  15.417  13.832   2.658
57335W        W29061  20.264  26.951   0.016
57336W        W29062  38.656  42.026   1.896
57337W        W29063  17.107  44.463  10.698
57338W        W29064  20.516   7.929   4.185
57339W        W29065   8.290  27.536  13.444
57340W        W29066   9.994  42.595   0.395
57341W        W29067  18.539  21.659  13.057
57342W        W29068   5.905  10.424   3.119
57343W        W29069  44.759   4.796  11.972
57344W        W29070  38.025  28.240   4.100
57345W        W29071  22.653  21.123  14.958
57346W        W29072  22.524  14.175  13.302
57347W        W29073  18.133  12.750   4.519
57348W        W29074  24.579  13.104   2.277
57349W        W29075   6.271  31.594   3.372
57350W        W29076  18.768  17.628  11.769
57351W        W29077  10.306  11.315  10.663
57352W        W29078  15.069  17.053  13.856
57353W        W29079  33.003  13.287  11.987
57354W        W29080  37.876  10.308  12.125
57355W        W29081   4.961  16.548   2.878
57356W        W29082  12.276  22.698   3.346
57357W        W29083  13.392  20.355  11.065
57358W        W29084  44.814  21.168  10.091
57359W        W29085  27.690  17.145  11.061
57360W        W29086  24.232   0.451   3.773
57361W        W29087  21.525  33.874   4.610
57362W        W29088  36.064  16.656  11.969
57363W        W29089  35.559  20.833  14.927
57364W        W29090  29.679  27.064  12.991
57365W        W29091   9.887   2.045   1.668
57366W        W29092  29.926   6.691   0.553
57367W        W29093  23.796  31.915   1.880
57368W        W29094  19.068   9.832   0.363
57369W        W29095  23.053  34.159  10.860
57370W        W29096  28.464  21.703  13.012
57371W        W29097  32.351   1.804   4.163
57372W        W29098  23.340  32.621  12.801
57373W        W29099  38.042  18.549   0.281
57374W        W29100  10.733   4.439  10.610
57375W        W29101  30.638  29.700  12.080
57376W        W29102  10.803  18.993  14.336
57377W        W29103  20.039  16.854   3.781
57378W        W29104  42.785  41.843  11.611
57379W        W29105  38.148  43.306   4.249
57380W        W29106   5.645  26.726  13.088
57381W        W29107  21.477  11.987  10.111
57382W        W29108  15.189  35.383   2.660
57383W        W29109  18.839   4.509   2.315
57384W        W29110  37.368  30.904  12.655
57385W        W29111  10.863  34.521   2.735
57386W        W29112  29.881  35.731  11.357
57387W        W29113   2.826  44.612  13.821
57388W        W29114  42.197   8.922   1.001
57389W        W29115  22.787   4.871   0.456
57390W        W29116  22.157   2.694   3.865
57391W        W29117   7.885   1.042   5.016
57392W        W29118   6.820   3.880   1.309
57393W        W29119  44.413  44.251  11.987
57394W        W29120   2.929  39.151  12.325
57395W        W29121  21.342   0.772   0.984
57396W        W29122  30.634  41.331   0.894
57397W        W29123   6.442  19.163  12.447
57398W        W29124  14.326  41.972  12.512
57399W        W29125   8.401  11.860   0.202
57400W        W29126  38.481  10.283   2.450
57401W        W29127  10.934  16.216  11.425
57402W        W29128  38.238  24.992  11.102
57403W        W29129   0.558  32.058  10.669
57404W        W29130   8.961  17.350  14.504
57405W        W29131  12.146  18.302  13.461
57406W        W29132   6.888  18.792  12.887
57407W        W29133  19.040   0.753   0.789
57408W        W29134   7.095  35.876  10.578
57409W        W29135  44.993  12.406  14.755
57410W        W29136   3.312  17.843  11.620
57411W        W29137  16.322  37.177  13.830
57412W        W29138  28.156  32.514  12.357
57413W        W29139  40.004   9.158   0.389
57414W        W29140  43.437  19.159   3.712
57415W        W29141  38.964  26.081  10.841
57416W        W29142  44.044  21.683  14.761
57417W        W29143  34.202   6.927   1.516
57418W        W29144  26.929  26.708   2.158
57419W        W29145  43.557   1.910   2.671
57420W        W29146  36.363   4.921   0.433
57421W        W29147  39.545  16.210  14.304
57422W        W29148  28.444  41.911  12.591
57423W        W29149  15.937  30.000   4.130
57424W        W29150  43.082  42.413  11.002
57425W        W29151  27.169  13.450  11.217
57426W        W29152  30.818  21.454   1.776
57427W        W29153  10.077  40.723   2.150
57428W        W29154  25.758  13.630   2.252
57429W        W29155  27.116  18.217  10.453
57430W        W29156  33.541  21.446   4.769
57431W        W29157  31.469  17.828   2.257
57432W        W29158  30.612  37.142  10.749
57433W        W29159  29.421  29.481  13.408
57434W        W29160  36.046  10.810   4.872
57435W        W29161  29.623  34.917   4.971
57436W        W29162  24.890  28.496   1.262
57437W        W29163  16.767  31.360  12.442
57438W        W29164  22.740  18.198  11.682
57439W        W29165  35.978   2.870   1.036
57440W        W29166  32.399  28.004  14.794
57441W        W29167  16.689  28.533  11.153
57442W        W29168   1.196  41.985   3.311
57443W        W29169  40.841  32.891   2.590
57444W        W29170  29.680  14.185   1.292
57445W        W29171  44.932  15.881   3.267
57446W        W29172  23.566   1.959   4.007
57447W        W29173   1.354  41.197  11.917
57448W        W29174   6.281   6.974   2.983
57449W        W29175  19.573   1.808   0.788
57450W        W29176  14.266  40.552  11.026
57451W        W29177   3.007   9.760   4.674
57452W        W29178  35.735  44.253  11.148
57453W        W29179   3.032   6.224   2.412
57454W        W29180  20.820  42.742   0.737
57455W        W29181  36.688  32.365   0.692
57456W        W29182  14.115  21.483   4.663
57457W        W29183  22.145  29.776   2.266
57458W        W29184   8.353  32.336  13.852
57459W        W29185  20.087  30.068   3.565
57460W        W29186  13.351  21.235   4.033
57461W        W29187   0.849  16.339  14.674
57462W        W29188   5.999   8.769   4.728
57463W        W29189  37.349  44.517   3.682
57464W        W29190  23.240  23.098  10.730
57465W        W29191  17.806  13.310   0.871
57466W        W29192  11.149  12.557  10.494
57467W        W29193  44.836   9.884   1.257
57468W        W29194  20.311  11.499  11.342
57469W        W29195  43.461  34.377   4.078
57470W        W29196  40.346  30.008   0.696
57471W        W29197  44.515  28.190   2.407
57472W        W29198  19.487   3.103  11.189
57473W        W29199  20.847   2.229   3.180
57474W        W29200  41.729  41.288   2.211
57475W        W29201   4.816  35.584  10.986
57476W        W29202   1.479  22.518  11.079
57477W        W29203  28.055  20.993   2.334
57478W        W29204  23.608  32.004   4.499
57479W        W29205   5.472  34.902  14.203
57480W        W29206   1.397  41.340  14.487
57481W        W29207  29.417   5.936   0.215
57482W        W29208  27.231  39.888  12.393
57483W        W29209   3.728   5.030   0.984
57484W        W29210  36.511   8.673   0.212
57485W        W29211   7.325  36.339  10.779
57486W        W29212  15.660  43.899   4.291
57487W        W29213  16.115  17.630  13.254
57488W        W29214   0.395   0.021  12.479
57489W        W29215  16.272   7.088  13.544
57490W        W29216  39.065  40.294   3.765
57491W        W29217  40.994  26.602  14.033
57492W        W29218  37.588  25.699   1.290
57493W        W29219   6.688  42.570  11.115
57494W        W29220  14.191   2.753  11.172
57495W        W29221  21.592  30.998  12.410
57496W        W29222  24.901   3.645  14.510
57497W        W29223  37.969  43.389   3.767
57498W        W29224  32.610  26.978  11.894
57499W        W29225  44.768  31.041  14.814
57500W        W29226  39.929  16.320   4.057
57501W        W29227   6.133  20.313   4.198
57502W        W29228  23.923  37.334   0.988
57503W        W29229  13.966  13.359  14.002
57504W        W29230  15.998  39.897   2.238
57505W        W29231  10.606  20.383   1.740
57506W        W29232  31.965  12.247  13.905
57507W        W29233  11.964  12.864  14.895
57508W        W29234  14.228  17.541  10.576
57509W        W29235  23.323   9.638   0.779
57510W        W29236  30.185  12.405   2.428
57511W        W29237  17.307  16.731   1.438
57512W        W29238  26.173  39.500   3.371
57513W        W29239  35.677  38.609   0.892
57514W        W29240  23.557  40.069   1.796
57515W        W29241  21.738  42.317   1.719
57516W        W29242   9.760  30.476   1.450
57517W        W29243  22.102  30.839  14.387
57518W        W29244  43.971  21.676   2.410
57519W        W29245  39.796   2.816   0.866
57520W        W29246  20.265   9.885  14.390
57521W        W29247  16.349  37.941   0.833
57522W        W29248  12.669  34.279   1.887
57523W        W29249  23.971  12.442   2.986
57524W        W29250  24.264  23.404   1.771
57525W        W29251  28.953  19.613   2.783
57526W        W29252  16.856  35.455   1.478
57527W        W29253  15.781  24.644   0.350
57528W        W29254  36.947  23.733  11.651
57529W        W29255   7.424  16.131   1.432
57530W        W29256  32.425  24.832   4.713
57531W        W29257  23.118  28.587  13.807
57532W        W29258  35.650  30.416  12.500
57533W        W29259  35.128   9.294  13.480
57534W        W29260  30.843  44.746  12.040
57535W        W29261  10.426  25.284   1.929
57536W        W29262  19.801  14.569   2.152
57537W        W29263  24.561  15.839  12.499
57538W        W29264  22.526  11.175   4.121
57539W        W29265  23.156   8.267  14.046
57540W        W29266  42.361  24.173  13.788
57541W        W29267  16.354  33.195  11.528
57542W        W29268  10.725  17.917   3.290
57543W        W29269   4.584  34.860   5.160
57544W        W29270  42.840  43.553  12.011
57545W        W29271  26.738  33.061  12.958
57546W        W29272  29.946   1.714  14.567
57547W        W29273  34.105  26.144  12.524
57548W        W29274  37.083  25.485  13.363
57549W        W29275  30.204  16.912  11.000
57550W        W29276   4.216  21.225   3.094
57551W        W29277  28.154  33.437   4.097
57552W        W29278   9.909   8.295   2.149
57553W        W29279   8.688  12.615  10.728
57554W        W29280  37.556  36.224   4.828
57555W        W29281  15.192   1.453  13.924
57556W        W29282  25.133   5.215   4.109
57557W        W29283   6.684  20.115   1.345
57558W        W29284  12.107  28.222  11.174
57559W        W29285  19.148  34.881   1.327
57560W        W29286  18.058  42.370   2.014
57561W        W29287  13.160  35.829  10.734
57562W        W29288  23.202  19.572   2.830
57563W        W29289   6.249  28.434   0.982
57564W        W29290  31.424  43.908  14.906
57565W        W29291   6.116  35.808  10.741
57566W        W29292  40.878  40.388  14.306
57567W        W29293   1.680  10.346  10.704
57568W        W29294  38.814   5.122   0.828
57569W        W29295  32.142  20.241   0.285
57570W        W29296  43.840  39.278   1.308
57571W        W29297   0.227  30.200  11.981
57572W        W29298  36.537  38.849   4.570
57573W        W29299  40.588  16.277  11.273
57574W        W29300  41.967   1.801   3.637
57575W        W29301   5.507  36.013  12.949
57576W        W29302   5.665   4.706  12.561
57577W        W29303  27.748  25.025   1.846
57578W        W29304  31.886  23.638   3.352
57579W        W29305  32.004  33.611   0.502
57580W        W29306  37.314  30.659  14.437
57581W        W29307   0.489  31.439   1.344
57582W        W29308   7.264  11.655  11.661
57583W        W29309   2.239  20.040  11.140
57584W        W29310   1.761  44.986  12.340
57585W        W29311  24.958  32.404   0.472
57586W        W29312  40.412  38.223  11.524
57587W        W29313  41.964  36.918  13.392
57588W        W29314  18.388  19.668   1.263
57589W        W29315  36.310  19.496   4.132
57590W        W29316  25.557   7.615   2.895
57591W        W29317  30.063  32.866   0.207
57592W        W29318  34.669  20.393   1.475
57593W        W29319   4.225  28.459  13.263
57594W        W29320  13.381   0.812  11.925
57595W        W29321  22.095  13.211   3.961
57596W        W29322   9.589  21.487   1.052
57597W        W29323  23.010  24.025   0.662
57598W        W29324  16.221   0.232  11.141
57599W        W29325   6.878  43.771   4.680
57600W        W29326  32.036  29.183   2.715
57601W        W29327  36.312  22.556   2.185
57602W        W29328  28.148  38.912  12.063
57603W        W29329  44.372   9.775   3.082
57604W        W29330  20.184  17.298   0.298
57605W        W29331  16.795  16.574  13.425
57606W        W29332   1.109  14.010  11.118
57607W        W29333  13.545  28.095  12.988
57608W        W29334  18.590  20.528  10.651
57609W        W29335  21.230   2.777  11.644
57610W        W29336  42.549   2.758  14.954
57611W        W29337   4.548  25.466   0.828
57612W        W29338   3.359  39.132   1.046
57613W        W29339   4.215  20.687   1.202
57614W        W29340  41.332  41.850  13.440
57615W        W29341  15.511   9.876  11.179
57616W        W29342  21.487  29.125   0.815
57617W        W29343  18.687  39.751  11.105
57618W        W29344  35.047  11.049   0.938
57619W        W29345  20.197   0.352   2.046
57620W        W29346   3.319  21.001   3.186
57621W        W29347  41.957  27.716   3.254
57622W        W29348   0.996  27.063  12.837
57623W        W29349  37.459  30.113  10.985
57624W        W29350  44.926  39.960  12.110
57625W        W29351  11.702  29.380  11.013
57626W        W29352  19.118  21.153  13.051
57627W        W29353  14.201  39.838  12.384
57628W        W29354  19.777  25.527  12.776
57629W        W29355  15.260  23.445  11.153
57630W        W29356  11.613  19.228  11.078
57631W        W29357   2.231  43.735  13.998
57632W        W29358  29.428  34.015  11.607
57633W        W29359  11.123  34.457  10.541
57634W        W29360  14.801  29.875  13.899
57635W        W29361  33.963  40.559  14.446
57636W        W29362  15.332   7.663   4.593
57637W        W29363  43.855  17.878  11.645
57638W        W29364  12.129   3.691   3.606
57639W        W29365  24.101  10.732  14.909
57640W        W29366  34.485  35.410   4.736
57641W        W29367  27.629  35.092   0.075
57642W        W29368  17.598  15.291   4.164
57643W        W29369  40.814  43.758   2.175
57644W        W29370   5.860  14.234  14.538
57645W        W29371   0.022  30.020  14.840
57646W        W29372  27.976  14.269  12.268
57647W        W29373  13.222  24.819   0.782
57648W        W29374   3.169  19.605   3.649
57649W        W29375  28.619  30.985  10.650
57650W        W29376   1.135  40.737   4.712
57651W        W29377   2.928  32.159  11.210
57652W        W29378  29.828  28.121  13.551
57653W        W29379  18.305  33.855   3.411
57654W        W29380  10.319  13.816   0.813
57655W        W29381  24.926  10.272  10.195
57656W        W29382  26.552  32.937   2.231
57657W        W29383  30.552  11.675  10.689
57658W        W29384  17.685   1.770  11.449
57659W        W29385  15.381  33.290  14.464
57660W        W29386  10.893  12.856  14.883
57661W        W29387  33.956  28.643  13.648
57662W        W29388  42.290  20.535  13.512
57663W        W29389  15.833  35.898   0.870
57664W        W29390  29.914  28.864  12.645
57665W        W29391   7.023  19.209  10.688
57666W        W29392  11.783  27.042   0.553
57667W        W29393  18.898  35.788   0.293
57668W        W29394   2.169  37.017   3.340
57669W        W29395  21.550  37.451   0.295
57670W        W29396   6.806   8.681  11.712
57671W        W29397  27.515   2.865  10.779
57672W        W29398  44.273   2.922   2.734
57673W        W29399  13.307  18.706  12.169
57674W        W29400   0.976  44.830   0.538
57675W        W29401  43.283  14.283  13.592
57676W        W29402  42.551  40.055   4.057
57677W        W29403  35.514  13.219  12.083
57678W        W29404  23.009  19.058   1.598
57679W        W29405  39.401  18.040  14.291
57680W        W29406  36.247  38.453  12.979
57681W        W29407  38.885   3.297   2.649
57682W        W29408  15.338  32.004   3.048
57683W        W29409  31.466   4.661   4.714
57684W        W29410  40.463  20.132   0.208
57685W        W29411  20.024  20.600   3.377
57686W        W29412  31.419  25.953  14.850
57687W        W29413  26.035   2.253   4.161
57688W        W29414   4.326  11.667  10.856
57689W        W29415  23.079  23.258   4.547
57690W        W29416  13.849  19.655  10.399
57691W        W29417   2.359  30.704  14.604
57692W        W29418   2.229  40.290   1.029
57693W        W29419  14.202  44.675   3.273
57694W        W29420   0.383  25.122  14.886
57695W        W29421  43.448   9.906  13.328
57696W        W29422  23.981   7.065   3.764
57697W        W29423  11.900  20.207  11.186
57698W        W29424  18.271  31.342  13.515
57699W        W29425  18.355  36.058   0.835
57700W        W29426  34.978  39.408   3.651
57701W        W29427  43.729   7.166  12.172
57702W        W29428   2.509   7.888   0.454
57703W        W29429  37.886  20.050   1.865
57704W        W29430  43.273  26.049   2.170
57705W        W29431  36.019   9.284  14.308
57706W        W29432  20.344  26.078   3.262
57707W        W29433  43.538   8.921  14.825
57708W        W29434   0.319  31.517   1.822
57709W        W29435  11.264   7.981  11.415
57710W        W29436  27.528   4.616  14.432
57711W        W29437  30.673  18.035  12.937
57712W        W29438  29.498  23.502  10.823
57713W        W29439  44.799  41.031   4.623
57714W        W29440  23.836  18.568  12.947
57715W        W29441  39.962  11.556  12.122
57716W        W29442   0.797  37.792  13.388
57717W        W29443   7.316  21.674  11.503
57718W        W29444  22.181   1.934   1.720
57719W        W29445  23.149  42.231  12.550
57720W        W29446  39.129   4.903   4.213
57721W        W29447  34.474  26.541   0.739
57722W        W29448   3.818  38.703   2.527
57723W        W29449  33.879  34.428  13.694
57724W        W29450  36.419  23.077   1.434
57725W        W29451  37.629  42.464  11.914
57726W        W29452  19.281  25.491   0.848
57727W        W29453   1.700  44.298   2.247
57728W        W29454  29.972   5.328   2.176
57729W        W29455  36.299  21.030  14.527
57730W        W29456  23.045  13.276  12.509
57731W        W29457  27.440   3.880  11.614
57732W        W29458  14.750  25.139   3.709
57733W        W29459  15.821  35.547  14.553
57734W        W29460  42.918  25.700   3.353
57735W        W29461  15.579   3.791   2.166
57736W        W29462   4.909   9.650  13.517
57737W        W29463  21.271  21.241  14.828
57738W        W29464  20.229   7.394  12.117
57739W        W29465  36.277   0.362  14.504
57740W        W29466  18.395  13.915   3.576
57741W        W29467  41.266  21.563  11.155
57742W        W29468   7.700  36.138  14.969
57743W        W29469  26.733   2.404   3.360
57744W        W29470  39.026  16.015  12.599
57745W        W29471  16.256   6.339   0.426
57746W        W29472  36.331  13.222   1.227
57747W        W29473   3.707  20.518  14.925
57748W        W29474  27.750  10.070  14.511
57749W        W29475  36.532  28.092  10.366
57750W        W29476  43.863  14.595  12.136
57751W        W29477  13.180   3.382   1.252
57752W        W29478  23.791  44.410  13.936
57753W        W29479  34.332   8.734   1.108
57754W        W29480  36.922  34.363   0.707
57755W        W29481  19.689  13.197   2.172
57756W        W29482  41.337   3.262  13.570
57757W        W29483  42.364  28.752   3.700
57758W        W29484   3.781  15.374   4.229
57759W        W29485   0.156  25.552  12.870
57760W        W29486  44.095  27.001  12.971
57761W        W29487   1.399  43.786  11.992
57762W        W29488   5.820  31.048   0.413
57763W        W29489   7.694   0.422   4.655
57764W        W29490   8.648   4.614   9.945
57765W        W29491  29.923  42.267   1.763
57766W        W29492  17.725   2.800  11.454
57767W        W29493  30.134   0.382  12.220
57768W        W29494  36.326  37.409   3.727
57769W        W29495  18.003  29.089  11.975
57770W        W29496  27.518  44.666  10.954
57771W        W29497   2.996  36.023   2.572
57772W        W29498  31.871   1.262   4.587
57773W        W29499  19.073   9.229   2.153
57774W        W29500   5.662   4.314  12.947
57775W        W29501  17.683   8.850   4.829
57776W        W29502   1.147   2.247  10.684
57777W        W29503  12.036  19.298   2.799
57778W        W29504  16.578   1.457   0.553
57779W        W29505  10.022  29.329   0.195
57780W        W29506  38.042  11.720   4.522
57781W        W29507  32.701  18.732   1.925
57782W        W29508  11.674   4.193  14.919
57783W        W29509   0.839  39.742   2.821
57784W        W29510   9.612  25.237   5.380
57785W        W29511  38.510  29.753   4.190
57786W        W29512  34.677  25.467  14.424
57787W        W29513  22.998  11.089  14.489
57788W        W29514  17.082  17.726   1.138
57789W        W29515  30.707  32.437   1.077
57790W        W29516  21.490  32.790  13.519
57791W        W29517  22.484  34.464   0.771
57792W        W29518  16.353  18.228   1.260
57793W        W29519   3.659  39.305  13.535
57794W        W29520  37.802  33.479   1.271
57795W        W29521   5.011   0.730   0.409
57796W        W29522  33.426  35.377   4.999
57797W        W29523  26.004  28.889   0.438
57798W        W29524  28.662  27.462   1.425
57799W        W29525  36.455  21.118  11.931
57800W        W29526   5.722  28.461  11.512
57801W        W29527  15.670  30.105  11.747
57802W        W29528  39.899   8.695  12.492
57803W        W29529   8.355  24.466   4.137
57804W        W29530  20.742   6.821   0.258
57805W        W29531  27.970   9.314   1.130
57806W        W29532  24.041  21.698  11.578
57807W        W29533  25.020  17.724  13.157
57808W        W29534  37.528  36.727   5.004
57809W        W29535  21.204  37.448  11.761
57810W        W29536   5.884  38.457  10.422
57811W        W29537  37.628  22.277  11.807
57812W        W29538  33.478  13.205  13.646
57813W        W29539  42.032  36.471  13.678
57814W        W29540  35.159  11.106   1.967
57815W        W29541  30.097  28.180   0.417
57816W        W29542  23.564   1.968  14.995
57817W        W29543  18.610  12.713   5.382
57818W        W29544  33.097  11.219   3.191
57819W        W29545  39.858  38.643  12.909
57820W        W29546   7.425  24.587   0.473
57821W        W29547  44.080  44.472  13.145
57822W        W29548   5.184  40.783   1.761
57823W        W29549  39.968  44.748   3.220
57824W        W29550  12.208   8.494   0.972
57825W        W29551   6.189   4.650   5.131
57826W        W29552   6.100   2.732  13.907
57827W        W29553  43.172  30.605  14.970
57828W        W29554  42.299  41.433  12.701
57829W        W29555  23.108   5.915   4.830
57830W        W29556  26.172   5.432   2.002
57831W        W29557  37.837  22.649   4.280
57832W        W29558  40.268  21.323   4.112
57833W        W29559  13.958  11.670  12.082
57834W        W29560  21.812   0.516   0.470
57835W        W29561  26.027  24.724   2.872
57836W        W29562  24.216  24.222  14.518
57837W        W29563  17.623   9.695   4.920
57838W        W29564   6.055  40.112  12.755
57839W        W29565  17.592  13.618   1.768
57840W        W29566  44.001  44.840   3.669
57841W        W29567  16.635   6.402   1.730
57842W        W29568  15.679   2.282  14.004
57843W        W29569  27.724  35.336   1.726
57844W        W29570  28.562  36.435  13.014
57845W        W29571  43.264  15.706   2.129
57846W        W29572  16.868  18.198   1.235
57847W        W29573  26.317  40.271  11.062
57848W        W29574  25.035  32.607   1.989
57849W        W29575  18.735   4.348   3.719
57850W        W29576  15.120  30.457   2.693
57851W        W29577  24.144   3.589  13.402
57852W        W29578   2.179  35.344   0.323
57853W        W29579  24.551   7.138  10.621
57854W        W29580  11.707  44.849  14.797
57855W        W29581   6.441  34.365  11.503
57856W        W29582  12.114   7.598  13.031
57857W        W29583   6.965  29.780   0.918
57858W        W29584  17.987  26.016  13.874
57859W        W29585  24.203  22.674  12.433
57860W        W29586  11.197  12.238  11.737
57861W        W29587  28.167  10.368   2.356
57862W        W29588  17.110  23.627   4.486
57863W        W29589  23.174  13.365  14.972
57864W        W29590  30.760   6.127  14.819
57865W        W29591  42.610   4.230  14.000
57866W        W29592  23.083  36.102  14.759
57867W        W29593   6.154  23.513  10.295
57868W        W29594  28.020  37.803  10.754
57869W        W29595  37.994  21.259   1.231
57870W        W29596  43.906  19.739  14.081
57871W        W29597   7.957  43.135  11.176
57872W        W29598  19.334   1.778  14.876
57873W        W29599  25.475  20.826  11.982
57874W        W29600  33.676  44.278  13.667
57875W        W29601   1.885  38.717  12.329
57876W        W29602  32.257  41.955   3.756
57877W        W29603  44.968  39.535   1.818
57878W        W29604  12.665   6.384  14.420
57879W        W29605  38.121  17.112  11.624
57880W        W29606  15.028  33.532   4.606
57881W        W29607  22.753   0.356  14.090
57882W        W29608   7.912  28.937  13.390
57883W        W29609  15.869  36.434  10.484
57884W        W29610   7.777  20.600  11.453
57885W        W29611  24.528  16.525   4.941
57886W        W29612  43.594   4.863  11.112
57887W        W29613   8.396  42.788  11.856
57888W        W29614  13.553  29.439  12.194
57889W        W29615  19.094  23.728  12.117
57890W        W29616  16.839  30.727   1.441
57891W        W29617  26.817  14.595  11.669
57892W        W29618  22.090   3.800  10.331
57893W        W29619  13.947  31.631  14.302
57894W        W29620   9.336  38.780   0.735
57895W        W29621  38.306  13.440   4.264
57896W        W29622  28.563  37.984   4.154
57897W        W29623  32.010   1.801  10.757
57898W        W29624  36.683  34.144   2.600
57899W        W29625  10.464   5.418  10.759
57900W        W29626   2.198  17.820  10.472
57901W        W29627  27.491   0.265   3.144
57902W        W29628   2.942  27.979   3.224
57903W        W29629  36.906   6.342   0.669
57904W        W29630  14.292  32.565   1.717
57905W        W29631  19.458  27.038  10.987
57906W        W29632  18.780  15.297   4.551
57907W        W29633  18.149  17.305   4.287
57908W        W29634  40.513  39.268  12.384
57909W        W29635  37.486   4.543   1.862
57910W        W29636  12.675  16.205  12.474
57911W        W29637   6.723  37.674  11.005
57912W        W29638  38.785  25.031   2.436
57913W        W29639  24.256  23.282   2.622
57914W        W29640  29.046  12.559  13.862
57915W        W29641  16.881  38.106  12.902
57916W        W29642  22.665  43.428  12.933
57917W        W29643  24.472  42.280   3.292
57918W        W29644  43.549  30.743  14.048
57919W        W29645  24.163  30.809  14.492
57920W        W29646  30.900  22.938   2.704
57921W        W29647  10.725  11.915   3.720
57922W        W29648   4.410  43.521  11.007
57923W        W29649  31.845  11.275   1.960
57924W        W29650  33.957  37.409   4.092
57925W        W29651  42.402  35.322   3.211
57926W        W29652  25.543  38.569  12.425
57927W        W29653  19.486  40.477   4.137
57928W        W29654  16.311   4.788   0.828
57929W        W29655  14.250  25.508  13.005
57930W        W29656  12.219  24.652  14.238
57931W        W29657  36.390  27.773   4.147
57932W        W29658  32.645  27.934   1.364
57933W        W29659   3.804  29.686   4.358
57934W        W29660  29.183   0.777  14.498
57935W        W29661  33.916  41.518  10.838
57936W        W29662  14.489  39.499   0.941
57937W        W29663  42.427  32.306  11.901
57938W        W29664  25.167  23.929  12.956
57939W        W29665  14.649  40.032   0.834
57940W        W29666  38.865   9.885   2.681
57941W        W29667  29.892  16.734   4.932
57942W        W29668  42.849  15.230  14.363
57943W        W29669   8.230  18.242   3.658
57944W        W29670  41.823  13.446   2.223
57945W        W29671  36.905   6.798  12.646
57946W        W29672  39.349  33.015  12.799
57947W        W29673  40.838  16.632   0.316
57948W        W29674  27.534  21.505  10.713
57949W        W29675  37.483  34.849  12.487
57950W        W29676  43.860   1.923   1.698
57951W        W29677  36.963  19.126  10.490
57952W        W29678  26.955  24.566   1.829
57953W        W29679  39.088  13.783  13.174
57954W        W29680   8.123   7.660   4.505
57955W        W29681   7.771  18.239  14.602
57956W        W29682   2.297  19.632   0.842
57957W        W29683   8.794   0.818   4.570
57958W        W29684  38.500  40.346   4.435
57959W        W29685  26.286  14.149   0.900
57960W        W29686   9.630  13.347  11.624
57961W        W29687  43.151  10.008   5.065
57962W        W29688  34.269  28.585  11.692
57963W        W29689  42.792  22.593   2.336
57964W        W29690  28.444  31.510  11.270
57965W        W29691  27.321  14.838   4.146
57966W        W29692  19.376   5.556   2.772
57967W        W29693  28.549  37.769   3.317
57968W        W29694  36.073  30.391  11.214
57969W        W29695  34.197  29.531   3.293
57970W        W29696  18.533  16.617   2.704
57971W        W29697   5.773  19.643   4.077
57972W        W29698  35.926  10.473  13.368
57973W        W29699  41.099  44.757   0.817
57974W        W29700  23.804  12.322   2.480
57975W        W29701  20.982  11.955   3.720
57976W        W29702  38.563   5.340  13.618
57977W        W29703  14.091  16.841   3.755
57978W        W29704  18.131  16.516   3.102
57979W        W29705  32.857  17.789   0.951
57980W        W29706  29.676  26.965  13.906
57981W        W29707  20.635  30.885  14.523
57982W        W29708  12.924  31.573   2.758
57983W        W29709  28.037  38.067   4.223
57984W        W29710  19.330  10.487  11.802
57985W        W29711  10.711  28.203  12.397
57986W        W29712  12.788  29.981  14.076
57987W        W29713   1.078  31.756   0.428
57988W        W29714   4.379  41.918   3.136
57989W        W29715  17.054  41.256  10.224
57990W        W29716  18.772  19.221  11.055
57991W        W29717  10.249  19.590   2.530
57992W        W29718  14.334   8.132  14.851
57993W        W29719  19.591  18.133   3.664
57994W        W29720  40.541  41.192  13.455
57995W        W29721  33.434  25.661  11.130
57996W        W29722  13.239  33.128   5.096
57997W        W29723  28.195  29.910   0.740
57998W        W29724  39.052   6.905  10.425
57999W        W29725  11.068  12.212  12.242
58000W        W29726  15.064  22.308  14.948
58001W        W29727  21.027  38.365  14.637
58002W        W29728  12.836   3.360   4.693
58003W        W29729   9.836   8.690  13.085
58004W        W29730  31.400  41.327   0.378
58005W        W29731  16.663  18.809   4.630
58006W        W29732   0.370   0.503   0.339
58007W        W29733  38.881   1.593  11.496
58008W        W29734  24.939  16.640   2.297
58009W        W29735   9.208  26.682  13.473
58010W        W29736  38.379   8.320  11.033
58011W        W29737   0.544  19.628   1.488
58012W        W29738  34.602  10.817   0.853
58013W        W29739  41.002  15.888   1.902
58014W        W29740  34.423   1.797   3.317
58015W        W29741   5.878  28.388   1.401
58016W        W29742  21.983  10.645  11.387
58017W        W29743  20.093  23.249  14.248
58018W        W29744   6.134  32.911  11.554
58019W        W29745  20.090  19.169   0.841
58020W        W29746  37.813  27.685   2.872
58021W        W29747   6.820  44.819  11.830
58022W        W29748  16.893  44.438  13.017
58023W        W29749  37.330  22.458  14.747
58024W        W29750  40.293  44.707   3.655
58025W        W29751  20.278  42.393  11.034
58026W        W29752  30.049  15.810   3.857
58027W        W29753  17.262  17.567   4.609
58028W        W29754  22.558  22.566  13.853
58029W        W29755  35.060   5.129  13.160
58030W        W29756   3.322  32.997   2.550
58031W        W29757  37.970  44.337  13.377
58032W        W29758  23.723   1.515   2.801
58033W        W29759   2.167  42.849  13.746
58034W        W29760   7.112  12.412  11.137
58035W        W29761  33.453  42.126   2.716
58036W        W29762  25.607  42.999  12.940
58037W        W29763   1.667   0.257  11.032
58038W        W29764  31.562  44.388   3.584
58039W        W29765  42.800   8.441   1.299
58040W        W29766   2.910  26.725   2.910
58041W        W29767   5.343  25.142   1.472
58042W        W29768   8.037  30.524  12.550
58043W        W29769  30.102  10.146  11.585
58044W        W29770  37.001   8.261  12.130
58045W        W29771  32.140  41.479   9.933
58046W        W29772  20.836  43.762  11.450
58047W        W29773  32.717   5.183   2.738
58048W        W29774  15.838  18.599  11.443
58049W        W29775  18.075  11.763  12.479
58050W        W29776  18.343  14.095   1.584
58051W        W29777   4.341  42.832   3.303
58052W        W29778   1.817  30.393   1.255
58053W        W29779  36.630   8.660  13.734
58054W        W29780  33.591   4.345   2.393
58055W        W29781  13.645   5.600   0.892
58056W        W29782   0.839  36.409   2.952
58057W        W29783  18.256  30.097  12.131
58058W        W29784   8.665  22.872  12.920
58059W        W29785   3.617   8.566   3.331
58060W        W29786  42.614   5.802   4.562
58061W        W29787  24.371  32.431   1.388
58062W        W29788  19.455  35.440   2.760
58063W        W29789   6.707  40.440  13.706
58064W        W29790   2.469  16.637   4.658
58065W        W29791  28.082  26.479   0.414
58066W        W29792  42.289  34.076  10.912
58067W        W29793  13.090   7.834   2.337
58068W        W29794  38.137  21.715  14.249
58069W        W29795  14.157   5.589   3.269
58070W        W29796  39.894  41.760  13.359
58071W        W29797  29.648  40.816  14.945
58072W        W29798  12.933  27.670  13.263
58073W        W29799   7.902  18.812  12.020
58074W        W29800  36.412   5.391  14.527
58075W        W29801  33.087  15.038   4.728
58076W        W29802   5.466  31.547   1.818
58077W        W29803  30.951   2.457  14.779
58078W        W29804  25.626  44.771   0.029
58079W        W29805   6.936  37.840  13.231
58080W        W29806  23.724  31.426  14.015
58081W        W29807  39.474  24.140  10.372
58082W        W29808  25.785   1.057  11.088
58083W        W29809  27.012  32.627  10.827
58084W        W29810   8.907  32.967   2.767
58085W        W29811  38.179  42.520  11.938
58086W        W29812  27.586  15.528  12.782
58087W        W29813  31.967   9.731   2.713
58088W        W29814  30.906   6.359  10.100
58089W        W29815  11.601  35.524   4.974
58090W        W29816  12.800  10.788   3.510
58091W        W29817   1.318  11.198   1.853
58092W        W29818   4.166  29.872  12.380
58093W        W29819  26.528   9.078   2.746
58094W        W29820  18.252  31.964  14.847
58095W        W29821  31.258  26.364  10.653
58096W        W29822  35.370  44.386   3.352
58097W        W29823  32.285   7.938  12.606
58098W        W29824   4.868  20.086  13.459
58099W        W29825  33.898  29.008   4.533
58100W        W29826  10.538  40.041   2.796
58101W        W29827   9.363  40.320  10.642
58102W        W29828  36.467  24.601   0.443
58103W        W29829  26.398  11.167  10.692
58104W        W29830  24.506  16.506  13.506
58105W        W29831  44.534  12.679   4.242
58106W        W29832  41.803  16.248  14.817
58107W        W29833  14.783  37.063   4.272
58108W        W29834  32.229  17.210   1.584
58109W        W29835   8.212   0.540   0.399
58110W        W29836  41.436  32.430  14.051
58111W        W29837  41.997  29.976  11.171
58112W        W29838   8.197   9.771  11.088
58113W        W29839  20.778  41.326   4.809
58114W        W29840  20.933  40.220   4.183
58115W        W29841   8.769  23.176   1.631
58116W        W29842  22.397  11.162   0.390
58117W        W29843   8.602  10.613   2.913
58118W        W29844  18.024  36.463   3.091
58119W        W29845   0.883  37.276   3.161
58120W        W29846  34.087  11.893   3.682
58121W        W29847  34.422  31.423   1.840
58122W        W29848  35.969  21.824  11.977
58123W        W29849  42.260   4.700   4.544
58124W        W29850  43.587  36.311   4.855
58125W        W29851   0.921   5.423  13.858
58126W        W29852  14.298  19.582  13.171
58127W        W29853  29.920  39.810   3.287
58128W        W29854  42.366   5.203  11.439
58129W        W29855  13.999   6.689  10.764
58130W        W29856  38.740  17.347  11.928
58131W        W29857  29.533  39.940   4.537
58132W        W29858  41.174  14.879   1.782
58133W        W29859  26.954  20.597  11.470
58134W        W29860   1.924   4.886   1.703
58135W        W29861  33.908  20.454   2.670
58136W        W29862   4.281  28.150  12.185
58137W        W29863  10.704  29.908   2.663
58138W        W29864  11.416   2.481   2.830
58139W        W29865  38.300  29.526   2.803
58140W        W29866  11.308  29.121   3.530
58141W        W29867  21.515   8.643  11.278
58142W        W29868  30.236  36.113   0.809
58143W        W29869  26.441  26.539   3.081
58144W        W29870  14.167  10.810  13.286
58145W        W29871  43.458  40.981   3.876
58146W        W29872  21.059  29.389  12.970
58147W        W29873  42.385  39.905   3.595
58148W        W29874  43.832   8.654  11.267
58149W        W29875  28.911  28.540   2.429
58150W        W29876  17.956  21.521  11.960
58151W        W29877  11.084  37.271   0.351
58152W        W29878   5.294  41.255  12.534
58153W        W29879  26.427  26.217   1.393
58154W        W29880  31.983  40.418  10.720
58155W        W29881  38.052   6.635   4.314
58156W        W29882   0.760   5.821  13.531
58157W        W29883  11.370  44.224   4.137
58158W        W29884  32.869  24.975   4.492
58159W        W29885   6.349  21.794   2.235
58160W        W29886  18.563   5.778  11.669
58161W        W29887  19.722  15.722   2.240
58162W        W29888  24.012  22.468  11.119
58163W        W29889  33.932  30.799  14.325
58164W        W29890  32.323  26.708   5.234
58165W        W29891  39.803  40.526   0.307
58166W        W29892  34.258  37.540  13.907
58167W        W29893  20.702  10.273   4.102
58168W        W29894  37.893  30.846  14.435
58169W        W29895   7.168  15.898  11.012
58170W        W29896  22.287  19.604  14.975
58171W        W29897  40.990  39.490   2.048
58172W        W29898  33.120  31.362  14.555
58173W        W29899  14.825  23.269  11.878
58174W        W29900  18.340   7.822  10.778
58175W        W29901  31.181   3.744   4.421
58176W        W29902  22.603  24.165   4.972
58177W        W29903   0.614  43.377   1.347
58178W        W29904  41.279  25.534  13.930
58179W        W29905  11.383   0.308   0.909
58180W        W29906  13.196  32.005   2.650
58181W        W29907  21.110  23.192   0.883
58182W        W29908   8.771   5.262   1.440
58183W        W29909  28.917  27.266   4.791
58184W        W29910  11.649  25.421  11.991
58185W        W29911  40.585  32.376   2.148
58186W        W29912  36.862  29.004   2.072
58187W        W29913   2.458  10.880  13.099
58188W        W29914  20.291  40.250   2.466
58189W        W29915   9.682  22.741   1.975
58190W        W29916  16.609  16.429  11.396
58191W        W29917  26.678  35.802  10.269
58192W        W29918  10.432  10.419  11.773
58193W        W29919  32.466  19.413   1.190
58194W        W29920   8.693  21.989   1.321
58195W        W29921  24.968  10.697   4.882
58196W        W29922  16.057  40.986   2.644
58197W        W29923  23.714  11.693  10.840
58198W        W29924  36.458  22.397  14.372
58199W        W29925  40.276  15.745  14.451
58200W        W29926  40.876  23.496  10.237
58201W        W29927  37.793  31.513  11.258
58202W        W29928  25.278   1.038  13.990
58203W        W29929  20.513  33.440  13.346
58204W        W29930  21.689  11.112   4.278
58205W        W29931  22.279  38.933  14.038
58206W        W29932   2.413   5.803  12.053
58207W        W29933   9.691   0.928   4.652
58208W        W29934  16.586  35.289  12.946
58209W        W29935   2.517  34.129  12.531
58210W        W29936   0.086  41.408  14.876
58211W        W29937  24.580  27.650   0.923
58212W        W29938  32.080  22.718   4.219
58213W        W29939  43.264  31.851   1.387
58214W        W29940  24.154   7.391  11.731
58215W        W29941   8.820   4.675   3.698
58216W        W29942  44.003  33.614  10.458
58217W        W29943  15.190  14.162  14.062
58218W        W29944   4.238  37.967  14.977
58219W        W29945  10.933  23.243   4.711
58220W        W29946  19.196  11.541  13.037
58221W        W29947  11.504  15.120  11.129
58222W        W29948  40.830   8.733   4.279
58223W        W29949  21.284   5.144   0.417
58224W        W29950  35.349   2.911  13.564
58225W        W29951  31.342   5.438   0.260
58226W        W29952  40.512  17.159  11.983
58227W        W29953  29.177   1.359   3.239
58228W        W29954  12.770   1.244  12.596
58229W        W29955   8.741  10.342  14.731
58230W        W29956  30.605  25.079   4.762
58231W        W29957   8.718  43.312   0.435
58232W        W29958  29.070  10.894   3.812
58233W        W29959  17.564  19.838   3.656
58234W        W29960   1.456   1.993  14.116
58235W        W29961  30.572  26.678   0.971
58236W        W29962  37.091  16.550   1.336
58237W        W29963  13.865  12.284  14.791
58238W        W29964   1.659  16.144   0.745
58239W        W29965   7.130  39.035  13.217
58240W        W29966   0.575  26.515   2.206
58241W        W29967  11.127  22.315   4.766
58242W        W29968  38.873  42.767   2.370
58243W        W29969  14.068  36.059   0.294
58244W        W29970  15.299   7.143  11.930
58245W        W29971  11.318  41.434  10.471
58246W        W29972  34.000  33.491   2.661
58247W        W29973  13.853   4.850  12.247
58248W        W29974  16.918  28.952  10.179
58249W        W29975  20.563  19.702  11.236
58250W        W29976   4.445  41.571  10.780
58251W        W29977   8.912  33.600  13.847
58252W        W29978   8.852   1.158  14.849
58253W        W29979  18.737  33.065   0.307
58254W        W29980   3.240  32.004   4.147
58255W        W29981  24.678  17.596   4.390
58256W        W29982  37.765  41.541   4.399
58257W        W29983  34.564  43.328  13.894
58258W        W29984  14.383   7.232  13.438
58259W        W29985   0.765  14.576   4.545
58260W        W29986  33.520   7.122  12.293
58261W        W29987  39.054  35.121   0.514
58262W        W29988  38.356  23.492  13.783
58263W        W29989   7.338  33.140   4.564
58264W        W29990  14.875  42.318  13.995
58265W        W29991  21.161   8.687   2.348
58266W        W29992  39.806  37.833   2.871
58267W        W29993   9.855  43.362   4.566
58268W        W29994  44.424  41.738  12.801
58269W        W29995  36.967   9.848   4.596
58270W        W29996   4.474  35.468   0.333
58271W        W29997  36.789  14.696   4.415
58272W        W29998  29.446  21.455   4.583
58273W        W29999  24.670  35.318  12.560
58274W        W30000  10.081  43.428  11.528
58275W        W30001  16.895  36.928   3.253
58276W        W30002   9.889  40.985   1.704
58277W        W30003  42.833  43.312   2.247
58278W        W30004  20.852   3.302   4.590
58279W        W30005  24.598  43.563   2.234
58280W        W30006  16.794   9.972  10.087
58281W        W30007   1.977  33.270  14.415
58282W        W30008  41.007  27.690   2.371
58283W        W30009  31.456   3.150   1.243
58284W        W30010  30.020   7.956   0.907
58285W        W30011  28.711  16.815  13.416
58286W        W30012  11.806   8.706   1.281
58287W        W30013  40.353  32.874  11.450
58288W        W30014  31.993  11.877   2.597
58289W        W30015  40.105  24.675   4.535
58290W        W30016  25.398  18.328  13.326
58291W        W30017  21.518  23.020  13.154
58292W        W30018  44.811   5.999   2.790
58293W        W30019  33.994  33.535  10.607
58294W        W30020   9.274  44.334  13.966
58295W        W30021   5.872  43.457  14.291
58296W        W30022  29.437  40.919   4.337
58297W        W30023  17.131  24.931   4.128
58298W        W30024  22.644  20.471   4.229
58299W        W30025  44.754  33.180   4.495
58300W        W30026  34.137  24.290  14.005
58301W        W30027  36.099  12.836  13.573
58302W        W30028  44.829  43.289   0.228
58303W        W30029  44.860   5.190  13.490
58304W        W30030  20.134  35.963   3.346
58305W        W30031   0.536   9.600  13.981
58306W        W30032  24.005  14.317   5.498
58307W        W30033  33.517  22.583  10.709
58308W        W30034  22.460  40.832   4.636
58309W        W30035  15.388  42.752   4.202
58310W        W30036  38.566  32.975  12.074
58311W        W30037  29.375  31.466   3.219
58312W        W30038  11.690  15.796  10.353
58313W        W30039  40.070  29.994  13.785
58314W        W30040  16.360   7.239   3.782
58315W        W30041   5.882  12.328  14.883
58316W        W30042  43.491  31.641   2.782
58317W        W30043  30.734   8.844  11.076
58318W        W30044  19.981  25.497   2.143
58319W        W30045   5.127  23.869  11.963
58320W        W30046  17.679  37.423   2.929
58321W        W30047  27.616   5.993   3.165
58322W        W30048  26.431  24.544   1.935
58323W        W30049  17.641  28.055   1.392
58324W        W30050  23.893   3.922  10.704
58325W        W30051  40.876   1.018  14.729
58326W        W30052  19.467   4.318  14.556
58327W        W30053  30.024  19.789   2.512
58328W        W30054  36.612   7.209  11.189
58329W        W30055  20.620  15.744  14.971
58330W        W30056  24.480   8.824   1.840
58331W        W30057   3.303  22.105   3.197
58332W        W30058  41.607   7.314   4.242
58333W        W30059  34.392  42.412  12.454
58334W        W30060  23.254  18.593  14.510
58335W        W30061  22.404  33.962   4.764
58336W        W30062  36.491  37.124  14.692
58337W        W30063  44.255  19.022  13.819
58338W        W30064  16.515  36.900   1.868
58339W        W30065  14.798  15.560  12.045
58340W        W30066  30.580  34.052  12.460
58341W        W30067   6.724  44.604   1.987
58342W        W30068  14.120  24.577  13.598
58343W        W30069   1.796  27.332   0.986
58344W        W30070  37.063  19.883  14.722
58345W        W30071  35.110   7.300  10.716
58346W        W30072  43.836  18.883   2.295
58347W        W30073  44.501  15.356  11.678
58348W        W30074  20.989  10.762   1.270
58349W        W30075   8.745   7.532  13.075
58350W        W30076  33.590  17.078   4.106
58351W        W30077  13.274   4.138   2.871
58352W        W30078  44.044  34.687   0.245
58353W        W30079  36.418  25.498  14.628
58354W        W30080  26.972  28.523   2.113
58355W        W30081  44.513  44.519  12.432
58356W        W30082   8.006  31.126  14.476
58357W        W30083   1.754  29.168  14.884
58358W        W30084  29.209  21.556   3.330
58359W        W30085   4.736  36.126  14.993
58360W        W30086  30.598   9.747   2.621
58361W        W30087   7.103   8.818   5.244
58362W        W30088  21.641  15.628  11.686
58363W        W30089   1.820  19.343   1.654
58364W        W30090  39.496  36.250  11.148
58365W        W30091   6.806  37.839  14.230
58366W        W30092  26.227  42.606  12.363
58367W        W30093  28.283  35.989  12.833
58368W        W30094  44.509  44.010   0.660
58369W        W30095  24.599  44.529   4.600
58370W        W30096  18.623  32.052   3.160
58371W        W30097  15.130  28.838  11.752
58372W        W30098  26.538  19.577   0.228
58373W        W30099  20.202  40.572   2.869
58374W        W30100  38.429  25.650  14.295
58375W        W30101  36.784   6.194  13.013
58376W        W30102  35.428   0.441  12.168
58377W        W30103  21.787  40.837  14.922
58378W        W30104  12.655   2.433  12.845
58379W        W30105  43.227  31.532   3.609
58380W        W30106  37.567  21.845  11.504
58381W        W30107  35.787  42.816   4.952
58382W        W30108  10.389   2.502  13.897
58383W        W30109  33.502  24.245  13.405
58384W        W30110  19.567  40.849   2.782
58385W        W30111   2.617  14.342   4.126
58386W        W30112  40.141   7.759  12.635
58387W        W30113  26.720  16.658  13.464
58388W        W30114  18.089  28.501   1.754
58389W        W30115  12.731  41.494   4.673
58390W        W30116  29.213  12.202  12.082
58391W        W30117  35.531  43.305  13.808
58392W        W30118   4.375  14.866   1.773
58393W        W30119  27.512  27.477   2.062
58394W        W30120  33.699  42.394  10.181
58395W        W30121   8.390  40.651   2.826
58396W        W30122  38.101  17.551  12.030
58397W        W30123   0.370  41.404   2.427
58398W        W30124  28.153   6.724  12.028
58399W        W30125  34.776  18.448   3.551
58400W        W30126  28.525  11.965  12.479
58401W        W30127   3.474  10.160   2.515
58402W        W30128  12.137   5.360  12.431
58403W        W30129  15.488  21.777   0.684
58404W        W30130   7.934  24.132  12.006
58405W        W30131  13.281  37.996   2.969
58406W        W30132   2.311  44.388   1.190
58407W        W30133  39.922  34.363   1.847
58408W        W30134  30.782  22.075  11.531
58409W        W30135   6.180  38.853  11.201
58410W        W30136  20.229  34.356   2.961
58411W        W30137   3.441   2.884  12.096
58412W        W30138  20.204  18.292  12.235
58413W        W30139  30.399  28.102   1.937
58414W        W30140  21.586  23.565  10.951
58415W        W30141  34.022   8.388  14.365
58416W        W30142  42.262   2.525  11.634
58417W        W30143  10.446  36.598  10.613
58418W        W30144  14.820   2.471   0.268
58419W        W30145  19.837  41.306  12.444
58420W        W30146  33.368  36.398   0.130
58421W        W30147  21.507  19.103  14.967
58422W        W30148  19.999  28.064  11.417
58423W        W30149   7.886  16.370   1.493
58424W        W30150   5.303   0.398  11.326
58425W        W30151  23.928   3.798   3.827
58426W        W30152  38.269   5.734   1.106
58427W        W30153  36.946  33.673   1.781
58428W        W30154  40.214  43.043   4.146
58429W        W30155  33.193  10.641   4.814
58430W        W30156  16.298   9.119  13.771
58431W        W30157  29.477  36.292  14.858
58432W        W30158  40.701  10.845  14.962
58433W        W30159  37.603   9.923   2.156
58434W        W30160  18.579  19.562   4.563
58435W        W30161  43.015  42.285  11.958
58436W        W30162   5.806  10.367  11.975
58437W        W30163   2.806   4.427  14.672
58438W        W30164   2.904  32.421  10.773
58439W        W30165  26.525   6.709   2.262
58440W        W30166  10.848   9.664  11.827
58441W        W30167  36.020  20.345  13.870
58442W        W30168  36.173  18.641  12.492
58443W        W30169   5.663  13.091   2.810
58444W        W30170  11.720  21.158   0.353
58445W        W30171  26.749  39.646  11.311
58446W        W30172  12.639  39.002   0.357
58447W        W30173  12.898  32.000  11.568
58448W        W30174  40.691  37.525  11.162
58449W        W30175  14.960  21.160   5.041
58450W        W30176  10.572  22.529  12.922
58451W        W30177  19.116   0.027   4.671
58452W        W30178  16.160   6.195   0.946
58453W        W30179  11.122  34.357  11.432
58454W        W30180  33.601   0.938   4.620
58455W        W30181   2.419  29.430   4.634
58456W        W30182  26.795  18.108   2.233
58457W        W30183  33.613  34.833  10.941
58458W        W30184  17.078  39.473   2.704
58459W        W30185  11.025  24.589   0.364
58460W        W30186  17.563  20.869   3.689
58461W        W30187   5.396  16.043   2.211
58462W        W30188  38.363  11.902   0.857
58463W        W30189   3.009  44.826  11.131
58464W        W30190   3.556  34.582   3.224
58465W        W30191   1.485  28.234  10.767
58466W        W30192  12.905  14.843  14.896
58467W        W30193  16.059  43.412   0.271
58468W        W30194  36.601  36.397  12.494
58469W        W30195  40.640   0.905   2.555
58470W        W30196   8.276  13.540   2.838
58471W        W30197  33.919  35.845  12.418
58472W        W30198  32.866   1.473   4.615
58473W        W30199   0.050   8.460  14.423
58474W        W30200  13.877   7.205  14.833
58475W        W30201  42.036  23.298  12.500
58476W        W30202  10.527   7.792   4.979
58477W        W30203  26.513  21.800   2.103
58478W        W30204  38.626  28.185  14.526
58479W        W30205  20.682  40.560   1.844
58480W        W30206  35.127  22.148  14.360
58481W        W30207   0.461  37.509  10.198
58482W        W30208  27.598  15.170  11.373
58483W        W30209  36.900   6.352   3.860
58484W        W30210   1.216   9.810  13.390
58485W        W30211  33.623  13.632   1.681
58486W        W30212   6.273   4.068   4.236
58487W        W30213  24.433  33.636   2.727
58488W        W30214  31.560  43.322   2.507
58489W        W30215  16.801  23.993  14.747
58490W        W30216   0.430   4.277   4.188
58491W        W30217  39.477  24.928   1.638
58492W        W30218  25.757  38.280  11.500
58493W        W30219   7.191  40.442   4.107
58494W        W30220   2.817  15.157   1.760
58495W        W30221  12.071  33.101  10.550
58496W        W30222   7.375  35.335   5.275
58497W        W30223  33.213   4.160   3.942
58498W        W30224  25.712   1.734  10.270
58499W        W30225  37.378  25.430  14.776
58500W        W30226  43.076   4.414   0.608
58501W        W30227  29.908  17.129  12.599
58502W        W30228   5.223  12.413   2.811
58503W        W30229   6.167  40.128  11.494
58504W        W30230  14.143  21.371  14.272
58505W        W30231  44.975  26.644  10.098
58506W        W30232   8.157   8.252  11.212
58507W        W30233  33.914  16.143   0.747
58508W        W30234  37.425  39.010  10.481
58509W        W30235  21.297  19.819   4.214
58510W        W30236  30.970   1.838   3.725
58511W        W30237  27.241  24.481  10.760
58512W        W30238  36.939   9.773   0.893
58513W        W30239  30.702  37.832  11.541
58514W        W30240  20.049  41.067   2.761
58515W        W30241  12.712  30.838  10.983
58516W        W30242  21.152   4.823  10.650
58517W        W30243  20.301  14.149  12.397
58518W        W30244   2.822  24.691   4.818
58519W        W30245   5.383  42.397   4.149
58520W        W30246  24.063  11.579   0.085
58521W        W30247  18.809  29.044  12.954
58522W        W30248   9.372   7.817   4.156
58523W        W30249  12.851  34.037   4.393
58524W        W30250  32.662  26.598  11.522
58525W        W30251  26.108  40.834   4.554
58526W        W30252   8.959  33.164  12.773
58527W        W30253  23.941  18.082   1.688
58528W        W30254  16.473  22.826  11.507
58529W        W30255   7.258  26.999   1.593
58530W        W30256  14.394  36.940   0.229
58531W        W30257   9.844  28.194  13.915
58532W        W30258  21.310  36.373   5.124
58533W        W30259  44.946  19.751   1.527
58534W        W30260  27.659  30.539   4.330
58535W        W30261  20.273  19.297   4.690
58536W        W30262  33.316  31.096   2.063
58537W        W30263   3.522  38.819  13.318
58538W        W30264   3.889  14.411   0.335
58539W        W30265  31.948  37.129   0.307
58540W        W30266  20.729  12.451   4.187
58541W        W30267  12.856  28.486   2.285
58542W        W30268  19.612   3.145  12.088
58543W        W30269   1.389   8.729  14.729
58544W        W30270  29.542  35.969   5.018
58545W        W30271  43.415  30.731  12.061
58546W        W30272   8.971  17.140   2.142
58547W        W30273  20.211  39.553  14.838
58548W        W30274  28.139  10.609   3.742
58549W        W30275   6.330   5.176  11.023
58550W        W30276  23.494  38.089  11.984
58551W        W30277  12.852  14.672   1.312
58552W        W30278  40.975  18.000   3.744
58553W        W30279  31.673  37.440   0.939
58554W        W30280  12.224  22.569  10.942
58555W        W30281  21.124  43.540  10.989
58556W        W30282   8.620  20.083  13.957
58557W        W30283   0.800  13.757  13.549
58558W        W30284  20.283  17.168  12.942
58559W        W30285   6.835   5.029   2.721
58560W        W30286  37.922  42.506   1.888
58561W        W30287  29.942  40.565   2.575
58562W        W30288   6.335  27.073   4.222
58563W        W30289  42.243  27.192  13.091
58564W        W30290  21.306   4.007  13.365
58565W        W30291  23.702  13.816   5.204
58566W        W30292  27.079  38.314   1.202
58567W        W30293  38.564  38.308   3.078
58568W        W30294  21.591  14.063   2.276
58569W        W30295  25.667  25.016   1.846
58570W        W30296  15.853  44.230  10.689
58571W        W30297  17.051  11.411   4.372
58572W        W30298  17.987   7.799   3.390
58573W        W30299   9.884  30.655  12.021
58574W        W30300  15.280  29.465  11.656
58575W        W30301   3.420   2.277   1.428
58576W        W30302  11.096  11.450   4.172
58577W        W30303  24.597   9.880  14.821
58578W        W30304  29.476  30.587  11.161
58579W        W30305  23.731   9.646   1.865
58580W        W30306  32.036  33.641  13.155
58581W        W30307  12.315  38.480  12.040
58582W        W30308  27.996  14.170  12.777
58583W        W30309   2.899   1.021  12.520
58584W        W30310  24.324  21.343  10.316
58585W        W30311  25.063  26.848  11.847
58586W        W30312  12.014  17.610  10.699
58587W        W30313  30.670  34.374   2.432
58588W        W30314  34.899   7.947  13.976
58589W        W30315  29.076   8.845  14.820
58590W        W30316  40.064   7.888   3.748
58591W        W30317   4.794  24.808  14.059
58592W        W30318  16.581  17.777   1.880
58593W        W30319  16.380  36.551  10.578
58594W        W30320  24.279  35.420   1.322
58595W        W30321  26.971  44.228   1.855
58596W        W30322  41.027  23.465   1.716
58597W        W30323  11.375  10.072  13.469
58598W        W30324   5.196  22.145  12.478
58599W        W30325  37.643  40.583  11.124
58600W        W30326  18.218  32.163  11.478
58601W        W30327   0.369  36.028  13.362
58602W        W30328  11.653  35.939   3.059
58603W        W30329  28.658   8.216  13.009
58604W        W30330  24.193  12.640   3.718
58605W        W30331   5.214  26.200  12.988
58606W        W30332   7.768  22.726  11.214
58607W        W30333  26.602   1.370   3.621
58608W        W30334  30.814  11.535  13.775
58609W        W30335  25.717   7.184   0.474
58610W        W30336  16.773  42.450  10.466
58611W        W30337  42.664  26.436   2.909
58612W        W30338  17.704   7.069   4.854
58613W        W30339  20.272   1.684  11.674
58614W        W30340  32.223  13.573   4.106
58615W        W30341  35.784  38.464   2.682
58616W        W30342  30.746   1.883   4.796
58617W        W30343  35.367  20.585  12.076
58618W        W30344  41.059  15.538  11.639
58619W        W30345  19.113   7.832  14.911
58620W        W30346  11.560   7.212  12.422
58621W        W30347  42.480  33.941  14.255
58622W        W30348   2.391  26.708  14.799
58623W        W30349  10.963  20.796   0.010
58624W        W30350  28.569  21.157   1.442
58625W        W30351  33.969  13.934  10.994
58626W        W30352  30.651   7.936   3.196
58627W        W30353   6.449  30.113  13.113
58628W        W30354  31.478  29.757   4.114
58629W        W30355  21.235  30.604  14.945
58630W        W30356  40.028   9.184  14.266
58631W        W30357   7.576   1.533  14.283
58632W        W30358  41.527  31.190  13.450
58633W        W30359   9.300  42.538   0.684
58634W        W30360   9.388  32.751   0.559
58635W        W30361  21.462  25.862  11.128
58636W        W30362  32.349  19.464  13.368
58637W        W30363  23.530  24.104  11.451
58638W        W30364  24.030  30.675   5.056
58639W        W30365  11.172  29.174  12.404
58640W        W30366  24.116  44.333   4.543
58641W        W30367   9.681  42.950   2.330
58642W        W30368  39.452  31.420   3.661
58643W        W30369   2.550   3.033   0.857
58644W        W30370  14.163  10.393   4.415
58645W        W30371  19.647  25.613   2.554
58646W        W30372  12.606  28.354  11.164
58647W        W30373   8.833   6.381  12.481
58648W        W30374  42.761  38.421   4.409
58649W        W30375  10.368   1.775  13.371
58650W        W30376  16.012  18.634  10.775
58651W        W30377  39.895  14.081   4.069
58652W        W30378  42.292  22.276   1.750
58653W        W30379  42.767  43.819  14.948
58654W        W30380  43.934   1.274  10.675
58655W        W30381  17.306  18.944  13.708
58656W        W30382  34.485   7.698   2.441
58657W        W30383  29.088  31.204  13.330
58658W        W30384   0.321   0.472   2.164
58659W        W30385  41.467  12.325  12.171
58660W        W30386  24.318   0.334  13.482
58661W        W30387   7.516  40.936  13.907
58662W        W30388  43.487  28.571   0.195
58663W        W30389  10.608  41.320   0.801
58664W        W30390  18.693   0.025  11.022
58665W        W30391  42.857   9.781  14.916
58666W        W30392   5.838   3.536  13.422
58667W        W30393  40.842  13.241   3.148
58668W        W30394  11.353   6.532   3.918
58669W        W30395   7.464  10.721  11.506
58670W        W30396  18.578  10.533   0.382
58671W        W30397   8.604  23.261  10.335
58672W        W30398  24.059  36.478   4.687
58673W        W30399  28.971  35.095   3.687
58674W        W30400  24.115   8.694  14.800
58675W        W30401  37.359   5.797   0.154
58676W        W30402  15.886  10.582   1.361
58677W        W30403  16.110  30.622   2.849
58678W        W30404   6.435  12.356   0.611
58679W        W30405  21.061  35.802  13.836
58680W        W30406   4.007  35.081  12.198
58681W        W30407  10.028   1.877   2.159
58682W        W30408  37.814   9.245   0.056
58683W        W30409  44.961  22.339   1.271
58684W        W30410  23.189   2.961   0.234
58685W        W30411  29.091  21.295   2.891
58686W        W30412  24.417  15.625  10.777
58687W        W30413  41.102  27.197   2.155
58688W        W30414  20.825  36.397   1.899
58689W        W30415   7.372  21.988   3.640
58690W        W30416   0.255  22.465  14.765
58691W        W30417   9.199  19.658  13.383
58692W        W30418  41.320  32.968  13.969
58693W        W30419  29.963  19.700  13.318
58694W        W30420  36.558   4.414   2.043
58695W        W30421   4.725   1.684   2.773
58696W        W30422  40.865  29.527  11.079
58697W        W30423  33.881   1.714   4.176
58698W        W30424  39.372  23.947  13.007
58699W        W30425  41.855  10.287  13.511
58700W        W30426  38.089  38.590  13.428
58701W        W30427   4.154  40.741  11.145
58702W        W30428  24.981  33.886  14.049
58703W        W30429  35.986  32.996  12.195
58704W        W30430  34.236  26.000  13.341
58705W        W30431  30.474   6.711   2.804
58706W        W30432   7.519  30.692  12.493
58707W        W30433  22.799  17.184  14.047
58708W        W30434  33.369  20.674   3.590
58709W        W30435  21.711  24.703  12.391
58710W        W30436  20.046  33.426   4.489
58711W        W30437  43.622  44.861  13.863
58712W        W30438  16.057   3.373   2.653
58713W        W30439  43.780  41.985   0.304
58714W        W30440  44.385  33.961   4.241
58715W        W30441  22.529  43.081   4.148
58716W        W30442  23.720  13.342   2.171
58717W        W30443  31.138  40.483  11.612
58718W        W30444  34.161  14.568   3.346
58719W        W30445  10.139  41.944  10.393
58720W        W30446   0.494  40.349   1.854
58721W        W30447  35.659  11.437  12.023
58722W        W30448   5.729  40.454  13.345
58723W        W30449  35.875  25.284  11.874
58724W        W30450  43.403   2.668  14.018
58725W        W30451  29.571  28.426   0.723
58726W        W30452  32.165  32.068  10.625
58727W        W30453  29.581  39.401  10.488
58728W        W30454   9.113  33.134   0.160
58729W        W30455  35.331   7.397   3.716
58730W        W30456  32.201  35.371  11.129
58731W        W30457  20.153  40.985  11.490
58732W        W30458  19.485  21.599  13.522
58733W        W30459  12.133  44.405  11.791
58734W        W30460  28.467  36.899  13.919
58735W        W30461  41.929   4.341  10.724
58736W        W30462  32.551  41.391  11.728
58737W        W30463  43.703  28.426  13.917
58738W        W30464   8.695  17.001  12.783
58739W        W30465   6.681  28.225  11.168
58740W        W30466  23.815  28.993   5.077
58741W        W30467  26.882  41.753   2.680
58742W        W30468  29.419  38.502  12.998
58743W        W30469  33.079  35.510   0.715
58744W        W30470  36.025  21.321  12.109
58745W        W30471  18.330  40.421  12.617
58746W        W30472   1.376   7.953  14.043
58747W        W30473  17.056  35.081   4.079
58748W        W30474  27.213  19.614   4.962
58749W        W30475  11.493  31.898  13.077
58750W        W30476  32.408  37.453  12.016
58751W        W30477   8.373  26.427   0.556
58752W        W30478  39.955  18.360  13.482
58753W        W30479  23.949  33.328   3.966
58754W        W30480  16.787  40.938  11.366
58755W        W30481  26.525   8.915   5.031
58756W        W30482  25.574   3.988   2.163
58757W        W30483   2.999  27.203  13.875
58758W        W30484  11.531  17.173   4.611
58759W        W30485   4.374  23.157  13.521
58760W        W30486  40.898  27.645  11.398
58761W        W30487  18.114  13.411   2.741
58762W        W30488   8.689  25.182   0.139
58763W        W30489   7.929  37.317  12.586
58764W        W30490   4.057  21.682  11.433
58765W        W30491  29.037  42.522  10.689
58766W        W30492  39.414  30.929   4.929
58767W        W30493  19.502  32.433   2.336
58768W        W30494   2.977  39.587   3.717
58769W        W30495   6.367  23.241   3.460
58770W        W30496  17.664  42.551   1.750
58771W        W30497   2.017  11.624  14.499
58772W        W30498   8.874  15.155   4.330
58773W        W30499  37.955   8.344  10.699
58774W        W30500  39.028  20.076  10.705
58775W        W30501  24.572  40.040  14.354
58776W        W30502  27.130  43.597   0.679
58777W        W30503  10.377  43.949   0.374
58778W        W30504   4.390   5.261   1.756
58779W        W30505  29.196  11.400   0.935
58780W        W30506  14.185  40.077  13.847
58781W        W30507  29.159  31.795   1.166
58782W        W30508  43.875  38.995  14.306
58783W        W30509  12.839  12.840  10.487
58784W        W30510  41.042  15.778   0.826
58785W        W30511  21.613   7.311  13.438
58786W        W30512  33.002  39.605  14.995
58787W        W30513  16.297  12.835   2.328
58788W        W30514  42.335   7.073   4.640
58789W        W30515  26.587  43.004   2.792
58790W        W30516  21.990  12.814  13.865
58791W        W30517  40.350  12.736   4.116
58792W        W30518  11.932  18.711   5.061
58793W        W30519  23.611  43.825   4.864
58794W        W30520  19.541  16.346  10.779
58795W        W30521  19.608  16.786  11.032
58796W        W30522  38.113   2.865  10.946
58797W        W30523  16.249  12.632   0.250
58798W        W30524  29.624  36.021   3.070
58799W        W30525  16.330  17.855   3.256
58800W        W30526  31.972  15.122  13.545
58801W        W30527  34.853  39.974   0.803
58802W        W30528  20.450   9.368  11.100
58803W        W30529  19.584  11.748   0.879
58804W        W30530  21.101  33.341   2.692
58805W        W30531   1.793  22.753   0.501
58806W        W30532  18.956  39.950  10.358
58807W        W30533  40.285  41.470  13.013
58808W        W30534  28.875  22.462  13.944
58809W        W30535  40.354  12.150   0.902
58810W        W30536  40.083  40.525  11.647
58811W        W30537  26.444  41.329   0.320
58812W        W30538  41.093  21.141  13.603
58813W        W30539  41.821  18.139   1.747
58814W        W30540  36.079  33.297  10.995
58815W        W30541  25.059  14.001   1.704
58816W        W30542  24.486   8.425  12.952
58817W        W30543  31.747  37.210   4.629
58818W        W30544  11.118  32.574   2.255
58819W        W30545  36.189  40.037  11.370
58820W        W30546  10.914   0.798   2.716
58821W        W30547  17.758   4.760  14.074
58822W        W30548  25.074  30.442   4.604
58823W        W30549  15.708  13.350   2.716
58824W        W30550  36.368  40.314   9.584
58825W        W30551  22.635  40.906  14.317
58826W        W30552  11.289   5.275   4.127
58827W        W30553  23.601  32.833   2.199
58828W        W30554  16.059  42.248  11.548
58829W        W30555  41.459  12.217   3.846
58830W        W30556  37.862  35.637   2.290
58831W        W30557  18.230  23.936   3.831
58832W        W30558  36.992  41.056   0.727
58833W        W30559  33.942  11.924   1.456
58834W        W30560  12.855  38.573  11.139
58835W        W30561   1.256  24.316  12.481
58836W        W30562   0.210   7.336   2.318
58837W        W30563   1.612   3.245  11.087
58838W        W30564  14.567  18.470  12.619
58839W        W30565  32.968  25.146   5.438
58840W        W30566  41.020  10.281  13.482
58841W        W30567  37.921   8.804  11.631
58842W        W30568   8.519  44.359   2.118
58843W        W30569   9.323  11.546   2.305
58844W        W30570   4.852  14.586   4.094
58845W        W30571  32.593  19.122   4.589
58846W        W30572  42.325   5.298   1.297
58847W        W30573   6.528  36.390  12.046
58848W        W30574   9.597  36.311   1.348
58849W        W30575  33.953  29.929  13.508
58850W        W30576  33.932  42.896  12.893
58851W        W30577  20.249  10.107  12.668
58852W        W30578  34.524  11.716  12.417
58853W        W30579  23.079  44.446   0.839
58854W        W30580  12.571  15.497   4.167
58855W        W30581   7.292  23.642  11.011
58856W        W30582  36.508  30.413  10.907
58857W        W30583   8.363  14.228  11.550
58858W        W30584  12.953  35.531  13.088
58859W        W30585   0.392  43.767   3.268
58860W        W30586  34.987  24.559  12.015
58861W        W30587  21.178  25.238  11.898
58862W        W30588  39.792  44.635  12.953
58863W        W30589  21.687  12.539   0.939
58864W        W30590  36.400  17.611   2.044
58865W        W30591  11.389   1.741  14.221
58866W        W30592  13.676  27.615  10.528
58867W        W30593  22.610  44.858   3.297
58868W        W30594   9.499  21.111   4.605
58869W        W30595  34.280   4.421   3.073
58870W        W30596  13.290  26.118  12.965
58871W        W30597  40.667  25.755  13.107
58872W        W30598  13.309   6.765   2.412
58873W        W30599  39.579  38.486  12.501
58874W        W30600   7.505   6.044  14.195
58875W        W30601  11.503  26.940  13.996
58876W        W30602  17.353  32.916   3.360
58877W        W30603   3.436  18.205  12.103
58878W        W30604  26.692  25.665   3.247
58879W        W30605  29.526  34.581   4.066
58880W        W30606  23.759  40.048   4.377
58881W        W30607  28.222  26.255  13.045
58882W        W30608  20.536   0.945   3.199
58883W        W30609  23.555  19.557   0.392
58884W        W30610  13.569  20.682   1.888
58885W        W30611   3.396  13.712  13.388
58886W        W30612  32.659  35.747   0.942
58887W        W30613  37.337  32.714  14.212
58888W        W30614   1.479   8.917   4.228
58889W        W30615  27.608  40.563   2.854
58890W        W30616   4.853  31.391   0.973
58891W        W30617  43.097  25.851  14.300
58892W        W30618  31.715  44.291  13.262
58893W        W30619  13.287  36.141  10.309
58894W        W30620   5.945   3.836  11.120
58895W        W30621  37.773  13.631   0.152
58896W        W30622   4.258   8.643   0.930
58897W        W30623  39.425   6.833   4.660
58898W        W30624  25.282   3.720   3.394
58899W        W30625  20.874  38.293   2.883
58900W        W30626   3.645   7.321   3.522
58901W        W30627  20.977  20.270   4.198
58902W        W30628   1.802  38.339  10.392
58903W        W30629  27.752  44.004  14.898
58904W        W30630  10.392  29.627  11.833
58905W        W30631   3.119   0.894   0.106
58906W        W30632  43.055  17.838  14.244
58907W        W30633  34.404  23.595  11.089
58908W        W30634  17.206  20.182   0.539
58909W        W30635  12.856  18.068   3.716
58910W        W30636  18.066  44.020  10.591
58911W        W30637  20.554   7.716  11.109
58912W        W30638  37.538  13.493  13.953
58913W        W30639  12.349   3.282   3.803
58914W        W30640  15.747   5.462   3.728
58915W        W30641  36.633   7.259   3.343
58916W        W30642  29.075  26.110   1.690
58917W        W30643  33.339   8.325   4.615
58918W        W30644  26.151  29.930   0.755
58919W        W30645  23.307  25.186   0.763
58920W        W30646   2.902  21.533   2.676
58921W        W30647   1.752  16.094  14.707
58922W        W30648  27.850   4.835  12.550
58923W        W30649   4.423  25.639  11.088
58924W        W30650  16.095  26.915   4.748
58925W        W30651   1.887  23.217   0.925
58926W        W30652  13.029  25.585   2.372
58927W        W30653  32.737   5.675   2.866
58928W        W30654  10.647  36.042  12.125
58929W        W30655   5.778   8.577   3.401
58930W        W30656   7.834  16.195   3.229
58931W        W30657   0.444  16.616  11.936
58932W        W30658  22.600  12.893  12.901
58933W        W30659  30.142  14.690  12.715
58934W        W30660  35.757  18.208   4.502
58935W        W30661  44.860  13.075  12.278
58936W        W30662  38.318  26.802   2.945
58937W        W30663  21.630  31.594  14.367
58938W        W30664  16.802  36.051   4.242
58939W        W30665  22.029   9.580   1.833
58940W        W30666  44.450  43.529   0.827
58941W        W30667   7.198   0.742   2.184
58942W        W30668   7.742  34.650  10.185
58943W        W30669   1.175   5.410   4.498
58944W        W30670  15.801   6.442   3.661
58945W        W30671   4.301  42.793  11.499
58946W        W30672  32.747  23.091  11.516
58947W        W30673  27.433  20.215   2.254
58948W        W30674  10.987  26.277   1.338
58949W        W30675  44.487  10.919   0.454
58950W        W30676   4.381   9.869  13.439
58951W        W30677  13.627  37.284  13.518
58952W        W30678   2.427  26.612   3.779
58953W        W30679   9.645  37.896  11.177
58954W        W30680  24.000  11.043  12.008
58955W        W30681  36.320  32.156   3.754
58956W        W30682   1.879  32.340   1.413
58957W        W30683  35.956  36.223   1.518
58958W        W30684  26.900  31.599  12.659
58959W        W30685  21.007  33.366   1.822
58960W        W30686   2.377  32.098  11.361
58961W        W30687  24.386  10.157  13.873
58962W        W30688   2.318  14.145   1.882
58963W        W30689   3.945  33.438  11.560
58964W        W30690   0.181  32.241   4.216
58965W        W30691  10.103  11.121   3.715
58966W        W30692  40.415  42.760  12.095
58967W        W30693  35.534  33.844  11.537
58968W        W30694  22.181  21.210   4.098
58969W        W30695   1.247  43.195   1.978
58970W        W30696  13.569  24.299   4.990
58971W        W30697  37.347  35.001  14.764
58972W        W30698  31.576  37.787   3.265
58973W        W30699  36.399  26.368  13.865
58974W        W30700  15.207   9.968   4.622
58975W        W30701  17.109   7.927   4.753
58976W        W30702   3.210  10.290  11.632
58977W        W30703   6.402  18.401  14.802
58978W        W30704  40.906  32.893  14.260
58979W        W30705   3.399  11.656  13.430
58980W        W30706  43.478  24.479   4.504
58981W        W30707   5.720  15.324   4.636
58982W        W30708   5.005  44.414   1.849
58983W        W30709  44.076  43.841   1.684
58984W        W30710  44.962  23.162   4.871
58985W        W30711  14.848  32.671  13.970
58986W        W30712  36.458  25.283  11.258
58987W        W30713  15.033  27.693   2.840
58988W        W30714   3.113  44.037  12.023
58989W        W30715  16.475   8.483   0.229
58990W        W30716  39.458  40.296  14.058
58991W        W30717   4.650  43.978  11.047
58992W        W30718   5.336   5.842   3.757
58993W        W30719  33.603  40.248  10.288
58994W        W30720   3.461  34.911   2.836
58995W        W30721  25.652   4.396  10.898
58996W        W30722   4.683  12.207   1.177
58997W        W30723  22.572  27.344  13.268
58998W        W30724  13.825  43.255  12.112
58999W        W30725  10.158  18.691   2.740
59000W        W30726   4.452  11.694   0.399
59001W        W30727  40.570  21.972   4.830
59002W        W30728   3.966  22.590   0.295
59003W        W30729  30.093  20.950   1.993
59004W        W30730  21.621  39.126   0.882
59005W        W30731  38.702  19.200   3.831
59006W        W30732  27.950  44.982  12.102
59007W        W30733   7.277  28.859   1.750
59008W        W30734   5.738  18.186  10.829
59009W        W30735  42.497   0.488   2.675
59010W        W30736  24.132  14.576   0.261
59011W        W30737  40.313  37.632  14.854
59012W        W30738  26.401  14.373   3.335
59013W        W30739  31.379  22.346   1.963
59014W        W30740   4.991  18.649   0.217
59015W        W30741   7.962  30.097  14.309
59016W        W30742   5.371  22.315   3.616
59017W        W30743  17.704   7.845   4.092
59018W        W30744  20.687  12.739   0.849
59019W        W30745   5.699   6.311  11.832
59020W        W30746  32.091  32.911   3.614
59021W        W30747  29.446   6.438   0.036
59022W        W30748   0.217  24.737  12.148
59023W        W30749  30.207  27.575   2.983
59024W        W30750   4.137  21.979  11.016
59025W        W30751   5.856  29.390  13.354
59026W        W30752  34.032   1.930  12.176
59027W        W30753  25.452   6.276   3.184
59028W        W30754  36.532  37.065   0.722
59029W        W30755  13.408  25.775   4.589
59030W        W30756   9.171  42.964   0.191
59031W        W30757   1.775  22.709  12.213
59032W        W30758   0.278  27.547   1.901
59033W        W30759  12.353  17.758   0.709
59034W        W30760  17.788  23.962  14.973
59035W        W30761  42.878  30.544   2.474
59036W        W30762   3.281  17.041  11.152
59037W        W30763   1.234  27.058   2.344
59038W        W30764  17.650  29.698   3.846
59039W        W30765   5.281   3.992   0.211
59040W        W30766  42.223  44.950   0.474
59041W        W30767  29.702  35.138   1.558
59042W        W30768  13.505  30.642  14.404
59043W        W30769   6.182   3.217   4.689
59044W        W30770  10.463   7.754   4.302
59045W        W30771  31.353   5.349  13.016
59046W        W30772   6.364  23.468   0.293
59047W        W30773   7.426  40.148   3.690
59048W        W30774  11.301   6.803  13.391
59049W        W30775  24.028   8.851   4.963
59050W        W30776  16.339  38.304   1.234
59051W        W30777  12.199  44.382   0.411
59052W        W30778   9.335  42.991  10.827
59053W        W30779  36.647  33.085  10.882
59054W        W30780   6.662  16.204  14.356
59055W        W30781  19.045   7.907   4.662
59056W        W30782  12.000  40.623  12.481
59057W        W30783   6.723  23.109   3.121
59058W        W30784  17.139  13.046   2.738
59059W        W30785  23.936  35.955   1.019
59060W        W30786  25.591  32.656  11.155
59061W        W30787   1.418  25.232   4.659
59062W        W30788  34.948  39.051   3.287
59063W        W30789   6.903  15.363  10.187
59064W        W30790  20.510   9.840   3.718
59065W        W30791   4.528  21.219  14.439
59066W        W30792   2.497  32.581  12.067
59067W        W30793   7.639  34.281   5.529
59068W        W30794  10.228  37.918   4.862
59069W        W30795   0.364   8.211   3.370
59070W        W30796   6.850  36.365   4.428
59071W        W30797  34.570  15.169  11.217
59072W        W30798  29.494   1.349   4.572
59073W        W30799  17.352   4.186  13.337
59074W        W30800   8.240   4.244  13.582
59075W        W30801   1.847   8.120  14.570
59076W        W30802  26.556  22.421   3.941
59077W        W30803  27.945  25.781   2.861
59078W        W30804  16.805  25.373   3.270
59079W        W30805  43.044  10.628  13.824
59080W        W30806  44.360  12.783   3.728
59081W        W30807  26.011  25.640   0.672
59082W        W30808  14.261   3.423   3.806
59083W        W30809   8.684   5.997  14.993
59084W        W30810  31.068  43.561  10.274
59085W        W30811  34.980  17.841   2.053
59086W        W30812  10.703  24.458   4.164
59087W        W30813   1.030  11.118   4.284
59088W        W30814  37.913  14.961   0.964
59089W        W30815  20.183  33.017  12.708
59090W        W30816  11.588  38.699   3.729
59091W        W30817   7.441  15.641  11.369
59092W        W30818  36.803  21.577  14.004
59093W        W30819  13.839  38.966   2.864
59094W        W30820  12.134  16.688  14.332
59095W        W30821  44.370   9.389   4.012
59096W        W30822  19.254  37.492  11.551
59097W        W30823  41.770  30.546   0.030
59098W        W30824  30.963  24.078  11.563
59099W        W30825   9.024  28.940  13.454
59100W        W30826  35.985  13.652  13.038
59101W        W30827  38.663   7.305  12.673
59102W        W30828  33.653  24.950   1.400
59103W        W30829  41.899   2.959  12.448
59104W        W30830  32.807  31.530   0.444
59105W        W30831  20.986  14.411   5.036
59106W        W30832   2.984  21.572  13.878
59107W        W30833   8.946  10.359  10.897
59108W        W30834  25.107  18.726  11.638
59109W        W30835  23.480  18.228   1.924
59110W        W30836  37.579  42.833   0.936
59111W        W30837  18.259  35.412  13.227
59112W        W30838  36.452  40.258  10.437
59113W        W30839   4.622  14.980  12.664
59114W        W30840  10.762  10.395  10.618
59115W        W30841   9.368  23.545  14.929
59116W        W30842  31.947   4.821  14.829
59117W        W30843  16.631  27.782   3.262
59118W        W30844  40.052   4.779   1.316
59119W        W30845  29.187  32.869  11.145
59120W        W30846  29.094  33.141   0.957
59121W        W30847  18.525  20.480  11.531
59122W        W30848  31.635  42.598  12.898
59123W        W30849  34.545  10.775   4.888
59124W        W30850  31.121  35.610  11.100
59125W        W30851   8.805   9.888  10.738
59126W        W30852  25.115  42.010  14.845
59127W        W30853  32.138  44.257  10.205
59128W        W30854  20.076  26.963   3.489
59129W        W30855  20.219   2.819  13.966
59130W        W30856  24.133   3.017   2.339
59131W        W30857  30.560  36.643   0.345
59132W        W30858  10.977  22.058  13.770
59133W        W30859  21.184   2.376   2.010
59134W        W30860  24.773  35.170  11.611
59135W        W30861  10.062  37.394  12.548
59136W        W30862  38.856  20.695  10.376
59137W        W30863  11.656  22.482  13.083
59138W        W30864  27.683  23.335  11.508
59139W        W30865  40.839   9.136  12.178
59140W        W30866  14.006  30.727  11.166
59141W        W30867  11.231  42.084   0.313
59142W        W30868  30.592  12.702   1.811
59143W        W30869  31.019   2.868   4.817
59144W        W30870  40.070   3.975  13.568
59145W        W30871  23.732   7.657  12.013
59146W        W30872   4.482  30.336   0.524
59147W        W30873  12.373  42.781  10.890
59148W        W30874  34.781  30.966  13.900
59149W        W30875  13.842  19.824  11.415
59150W        W30876  22.029  22.671   2.311
59151W        W30877   3.457  28.307   0.831
59152W        W30878  35.245  42.208   2.236
59153W        W30879  40.269  34.564   0.927
59154W        W30880  23.036  24.504  10.424
59155W        W30881  42.502   2.812   2.346
59156W        W30882  31.394  22.887  13.908
59157W        W30883   3.755  44.372   0.203
59158W        W30884   4.856   1.015   4.559
59159W        W30885  21.958  38.017  13.691
59160W        W30886  18.866  30.389   3.848
59161W        W30887  11.354  41.367   1.340
59162W        W30888  38.823  33.795   0.731
59163W        W30889  14.742  40.935   4.365
59164W        W30890  32.631  35.561   4.015
59165W        W30891  11.973  21.511  12.572
59166W        W30892   0.430  12.876  10.933
59167W        W30893  24.715  28.046   4.873
59168W        W30894  20.169  38.968   1.174
59169W        W30895  29.567  24.022  12.661
59170W        W30896  16.663  13.348  10.431
59171W        W30897  13.822  44.757   4.576
59172W        W30898  17.230  25.625   3.125
59173W        W30899  21.428  20.081   0.028
59174W        W30900  16.028  24.012  13.504
59175W        W30901  14.390  44.744  12.932
59176W        W30902  11.956  37.761   3.627
59177W        W30903  32.464  36.550   1.655
59178W        W30904  27.882  19.048  13.522
59179W        W30905  31.889  23.141   0.233
59180W        W30906   0.919   1.479   3.367
59181W        W30907  30.537  35.627  11.884
59182W        W30908  22.697  34.335  14.460
59183W        W30909   7.210  13.386   0.396
59184W        W30910  31.373  25.025   1.025
59185W        W30911  25.982  10.437   1.854
59186W        W30912   8.679  42.921  14.969
59187W        W30913  40.145  19.387  13.557
59188W        W30914  31.936  27.713  13.808
59189W        W30915   0.812  16.127   1.716
59190W        W30916   6.344  11.327  14.710
59191W        W30917   2.450  36.859   3.734
59192W        W30918  21.514  27.834   4.321
59193W        W30919  25.124   0.437   2.865
59194W        W30920   5.861  13.834  10.996
59195W        W30921  34.028   7.324  12.429
59196W        W30922   0.742  38.104   2.370
59197W        W30923  23.734   6.152   1.374
59198W        W30924  30.316   5.292   0.233
59199W        W30925  13.014   0.865   4.233
59200W        W30926   1.217  14.163  12.858
59201W        W30927   4.664  27.072  10.774
59202W        W30928  44.468  35.310  10.095
59203W        W30929  11.699  41.602  13.443
59204W        W30930  40.835   8.269  12.092
59205W        W30931  30.976   1.994  12.497
59206W        W30932  26.011  22.274  12.446
59207W        W30933   7.337  11.333   4.655
59208W        W30934   3.964  12.892  11.675
59209W        W30935  25.497   0.357   5.002
59210W        W30936  43.873   0.352  14.325
59211W        W30937  36.817  12.236  14.305
59212W        W30938  33.958  34.471   4.265
59213W        W30939  18.166  40.239  14.613
59214W        W30940  27.003  33.032  11.162
59215W        W30941  13.567  33.862  12.907
59216W        W30942   1.198  23.549   2.689
59217W        W30943  34.145  37.085   1.221
59218W        W30944   2.612  25.124   5.060
59219W        W30945   5.796   5.896   1.693
59220W        W30946  44.996   3.255  13.957
59221W        W30947   6.260  23.620  11.208
59222W        W30948  17.656  38.170   0.902
59223W        W30949   4.817   7.359  14.577
59224W        W30950  42.968  24.008  12.630
59225W        W30951  44.742  31.033   2.259
59226W        W30952  22.017   9.447  12.573
59227W        W30953  43.999   5.403   4.332
59228W        W30954  11.115  13.209   0.870
59229W        W30955  21.068  15.257  12.508
59230W        W30956   3.983   1.854  12.913
59231W        W30957  14.369  20.078   3.374
59232W        W30958   5.921  40.490   4.759
59233W        W30959  22.236  23.204   1.163
59234W        W30960  38.799   6.153  10.625
59235W        W30961  42.014  18.772  11.194
59236W        W30962  14.698  24.098   2.283
59237W        W30963  34.603  11.691   4.529
59238W        W30964  38.996  27.794  14.481
59239W        W30965   8.893   6.831   2.744
59240W        W30966  38.518  44.409  11.212
59241W        W30967  24.494  41.529  11.578
59242W        W30968  39.346  10.330   1.079
59243W        W30969  16.552  17.082  12.065
59244W        W30970  29.161   5.412   4.150
59245W        W30971  42.748   9.823  11.475
59246W        W30972  11.676  13.202  13.896
59247W        W30973  17.171   3.764   3.878
59248W        W30974  15.512  26.065  13.983
59249W        W30975  10.863  15.711  11.641
59250W        W30976   0.103  27.083  12.024
59251W        W30977  21.771  18.162  11.606
59252W        W30978  40.073  30.629  12.081
59253W        W30979  23.783  30.006  14.047
59254W        W30980  29.429   3.336  11.946
59255W        W30981  25.191  20.598  11.634
59256W        W30982   3.326   0.696  14.481
59257W        W30983  34.320  22.547   2.287
59258W        W30984  26.896  29.065   0.739
59259W        W30985   4.576  38.313   0.299
59260W        W30986   6.645   0.584  13.585
59261W        W30987   2.456   6.312  12.307
59262W        W30988  32.461   0.392  13.065
59263W        W30989  42.891  15.664   3.328
59264W        W30990  42.421  35.990  11.207
59265W        W30991   0.278  30.537  13.583
59266W        W30992   6.817  20.359   0.893
59267W        W30993  11.628  27.949  10.433
59268W        W30994  30.332   2.591  13.802
59269W        W30995  23.229   0.328   0.511
59270W        W30996  17.496  24.520   2.725
59271W        W30997  25.645   1.368  12.525
59272W        W30998  15.823  30.591  11.632
59273W        W30999  13.134  40.928  13.064
59274W        W31000  21.646  27.409   4.055
59275W        W31001   5.236  33.445  12.929
59276W        W31002  37.463   5.040   1.781
59277W        W31003   5.273  36.068  11.672
59278W        W31004  39.381  31.220  13.882
59279W        W31005  20.111  10.871  10.769
59280W        W31006  17.619  32.521   3.662
59281W        W31007   6.730   3.640   5.418
59282W        W31008   9.941  11.739  12.091
59283W        W31009  35.795  20.195   3.725
59284W        W31010  21.074  35.266   4.148
59285W        W31011  41.564  35.938   2.236
59286W        W31012  11.821  29.972  11.416
59287W        W31013  15.426  12.147   1.416
59288W        W31014  30.892   6.084   3.239
59289W        W31015   3.752   4.162  14.939
59290W        W31016  32.107  11.733  13.863
59291W        W31017  44.978  12.294   2.186
59292W        W31018  10.709   7.440   2.104
59293W        W31019  38.816   0.325  10.166
59294W        W31020  37.651  31.056   1.382
59295W        W31021  14.293   7.668   5.362
59296W        W31022  44.490  44.564   1.972
59297W        W31023  26.403  14.922  14.769
59298W        W31024  20.876   1.360   3.171
59299W        W31025  33.671  22.030  13.854
59300W        W31026   2.054  10.180   4.147
59301W        W31027  30.028   4.991  11.051
59302W        W31028  31.154  10.095   1.944
59303W        W31029  29.072   0.920   4.561
59304W        W31030  30.806  35.339  13.555
59305W        W31031   2.140   0.445   0.768
59306W        W31032  23.914  12.854   4.633
59307W        W31033  41.537  31.470   2.610
59308W        W31034  14.646   0.266  11.543
59309W        W31035  40.723  41.390  11.139
59310W        W31036  13.539  25.548   2.408
59311W        W31037  28.202  17.348   2.743
59312W        W31038  16.329  32.010   2.097
59313W        W31039  16.264  44.212  14.283
59314W        W31040  30.425  16.895   2.334
59315W        W31041  28.183   7.841   2.831
59316W        W31042  29.210  10.263   2.236
59317W        W31043  36.318  37.402   0.395
59318W        W31044  39.177  35.561  13.313
59319W        W31045  23.142  43.981   0.506
59320W        W31046  23.000   9.846   2.523
59321W        W31047  21.256  37.071   0.073
59322W        W31048  13.141  16.023  10.875
59323W        W31049  23.691  24.676  11.088
59324W        W31050   9.113   5.783  10.476
59325W        W31051  12.350  29.170  14.031
59326W        W31052  36.444  34.070   1.729
59327W        W31053  21.822   5.775   2.595
59328W        W31054  30.404  28.970  12.620
59329W        W31055  38.097  37.795  12.139
59330W        W31056  36.368  34.233  13.442
59331W        W31057  23.192  28.164  11.917
59332W        W31058  30.003  33.108   4.492
59333W        W31059  29.985  26.927  13.391
59334W        W31060  25.228  14.212  11.182
59335W        W31061  43.099  36.937   4.299
59336W        W31062   7.717  29.943   1.246
59337W        W31063  30.445  10.191   0.691
59338W        W31064  24.710  10.161  12.537
59339W        W31065  38.489  19.251   0.249
59340W        W31066  32.543  16.249   3.083
59341W        W31067  16.667  23.585  12.787
59342W        W31068  26.751  18.655   2.886
59343W        W31069   6.892  12.819   4.639
59344W        W31070   7.633  34.828   1.810
59345W        W31071  18.171  10.736  14.795
59346W        W31072  26.132  24.270   1.613
59347W        W31073  22.132  32.135   3.679
59348W        W31074   4.253  35.205   2.378
59349W        W31075   8.250  24.933   1.755
59350W        W31076   7.146   8.341   5.036
59351W        W31077  24.493  35.813  12.577
59352W        W31078  27.868  23.315  13.835
59353W        W31079  17.927   4.181   2.417
59354W        W31080  20.973  33.393  12.459
59355W        W31081   6.172  27.170  14.433
59356W        W31082  16.214  33.937   3.216
59357W        W31083   4.914  40.401  12.261
59358W        W31084   8.427  36.692   0.440
59359W        W31085  14.863  27.966  12.347
59360W        W31086   2.843  26.963  10.625
59361W        W31087   0.849  20.577   2.180
59362W        W31088  24.612  30.719   0.726
59363W        W31089  18.628  16.941   3.689
59364W        W31090  24.133   3.892   1.728
59365W        W31091  16.174  11.183  12.005
59366W        W31092  19.743  11.173  13.429
59367W        W31093  19.233  13.189  11.936
59368W        W31094  14.560  26.353   2.602
59369W        W31095  17.135  36.072  14.033
59370W        W31096  21.670   6.711  12.839
59371W        W31097  39.131  25.097  11.951
59372W        W31098  38.949   5.392   1.720
59373W        W31099  27.588  24.695  14.433
59374W        W31100   7.102   5.937   3.221
59375W        W31101   9.842  13.774  14.890
59376W        W31102  16.963  22.869   0.892
59377W        W31103  12.419   5.739   2.660
59378W        W31104  38.633   8.320   4.348
59379W        W31105  16.981  29.755  13.146
59380W        W31106   2.930  15.305  13.406
59381W        W31107   4.972   9.937   4.686
59382W        W31108  24.286  35.483  11.463
59383W        W31109  25.485  19.349  13.868
59384W        W31110   4.891  43.838  13.558
59385W        W31111   0.578  22.600  14.388
59386W        W31112  44.345   7.372   2.938
59387W        W31113  29.676  42.743   9.928
59388W        W31114  20.388  38.433   2.759
59389W        W31115  38.516  33.712   0.013
59390W        W31116  43.013  44.982   2.238
59391W        W31117  44.846  27.213  12.450
59392W        W31118   9.384  34.056   2.648
59393W        W31119  31.946  44.807   2.701
59394W        W31120  24.098  40.400   2.220
59395W        W31121  42.234  31.425   0.416
59396W        W31122  42.013  37.425   0.279
59397W        W31123  25.495  16.759  11.589
59398W        W31124   3.164   3.667   1.158
59399W        W31125  30.377  23.485  14.395
59400W        W31126  42.404  30.410   1.258
59401W        W31127  33.002  40.546  12.000
59402W        W31128  44.086  36.177   4.922
59403W        W31129   7.753  28.960   0.376
59404W        W31130   9.173  39.942   1.431
59405W        W31131  39.410   3.647  14.974
59406W        W31132   8.784  34.704   2.578
59407W        W31133  20.614   0.563  11.342
59408W        W31134  15.758  40.494  11.518
59409W        W31135   4.370   3.692  11.538
59410W        W31136  38.856  16.156  13.467
59411W        W31137  43.263  11.371  14.948
59412W        W31138  21.583   4.298   0.907
59413W        W31139   3.218  14.020   0.837
59414W        W31140  30.636  21.480  11.190
59415W        W31141  20.766  22.014   2.333
59416W        W31142   0.968   4.979   1.766
59417W        W31143  22.956  41.297  14.466
59418W        W31144   9.894   0.055   4.117
59419W        W31145  28.299  42.863  12.262
59420W        W31146  41.755   3.579   2.238
59421W        W31147   3.221  30.561  14.796
59422W        W31148   9.984  31.655   5.108
59423W        W31149  40.318  21.491  13.860
59424W        W31150  18.594  15.725  10.872
59425W        W31151   5.245  25.998   3.903
59426W        W31152  21.092  13.069   9.797
59427W        W31153   5.423  26.005  12.569
59428W        W31154  34.949  15.614   2.211
59429W        W31155  28.450   1.524  12.394
59430W        W31156  21.891  29.594   4.050
59431W        W31157  22.752  29.218   1.665
59432W        W31158  16.013   3.898  13.830
59433W        W31159  38.445   3.657   2.111
59434W        W31160  29.277  24.144  13.469
59435W        W31161  12.388  29.935   2.656
59436W        W31162  20.982  41.363  14.721
59437W        W31163  41.439  35.617   1.845
59438W        W31164   4.255  21.297   1.796
59439W        W31165  41.301  38.424   0.777
59440W        W31166  21.603   8.570  11.787
59441W        W31167  28.052  21.129  12.483
59442W        W31168  36.392  24.278   0.022
59443W        W31169  34.884  17.168   0.312
59444W        W31170  25.548  23.001   1.199
59445W        W31171   6.287  26.763   2.006
59446W        W31172  31.033  20.054   3.169
59447W        W31173  22.015  21.974  14.842
59448W        W31174   9.900   7.294   2.763
59449W        W31175  39.867  23.135  10.634
59450W        W31176   9.374  30.427  12.933
59451W        W31177  10.124   9.138  14.461
59452W        W31178  18.600  18.599   4.093
59453W        W31179   3.836  10.200  10.717
59454W        W31180  19.521  30.428  13.072
59455W        W31181  14.531  37.966   4.562
59456W        W31182  21.256   1.047   3.040
59457W        W31183  18.464  24.375   1.996
59458W        W31184  19.746   7.715   0.531
59459W        W31185   6.148   4.394   0.554
59460W        W31186   6.126   0.523  11.919
59461W        W31187   1.126  25.176  13.971
59462W        W31188  30.736  32.921  11.674
59463W        W31189  13.799  35.336   1.576
59464W        W31190   7.989  14.974  14.436
59465W        W31191  25.238  28.633   2.565
59466W        W31192  23.148  35.164  10.951
59467W        W31193  32.392  13.342   0.728
59468W        W31194  25.970  17.121   1.647
59469W        W31195  19.189  31.643   4.122
59470W        W31196  11.348  12.112  14.630
59471W        W31197  20.723  22.656  12.047
59472W        W31198  27.596   6.918   4.638
59473W        W31199   1.661  22.611  13.579
59474W        W31200  31.726   9.648  12.454
59475W        W31201  32.974   0.462   2.378
59476W        W31202  23.475  37.123   2.422
59477W        W31203  21.069  15.381   3.755
59478W        W31204  44.376  30.660   4.131
59479W        W31205   6.944   3.592  11.169
59480W        W31206   3.864  10.098  12.029
59481W        W31207  30.705  44.328   2.940
59482W        W31208  11.389  23.301   0.902
59483W        W31209  14.576  10.765   1.796
59484W        W31210  22.095  35.037   1.838
59485W        W31211  42.899   6.138  13.139
59486W        W31212   1.885  27.928  10.926
59487W        W31213  42.240  18.670  12.101
59488W        W31214   5.348  21.579   0.325
59489W        W31215  32.868   1.741  14.844
59490W        W31216   5.882  20.067   2.668
59491W        W31217   3.373  28.787  12.394
59492W        W31218  24.557  14.273  12.977
59493W        W31219  27.827  43.876   4.321
59494W        W31220  19.996   3.217   5.002
59495W        W31221  33.335  13.669  12.011
59496W        W31222  34.506  19.734  14.853
59497W        W31223  44.468  15.206   2.373
59498W        W31224  13.361  14.261   0.540
59499W        W31225  10.223  22.840  10.236
59500W        W31226  13.048  14.693   1.795
59501W        W31227  27.731  18.319   0.524
59502W        W31228  35.383  13.182   4.556
59503W        W31229   8.854  40.610   0.951
59504W        W31230  31.178  24.189  10.112
59505W        W31231  19.062  42.717   0.693
59506W        W31232  34.394  28.655  13.055
59507W        W31233   0.683  10.424   2.863
59508W        W31234  22.439  33.912   0.920
59509W        W31235  39.022  43.128  11.204
59510W        W31236   6.778   5.861  10.567
59511W        W31237  14.100  41.466   1.872
59512W        W31238  35.556  43.711  11.973
59513W        W31239   3.859  23.540   1.452
59514W        W31240  33.190  28.444  11.972
59515W        W31241  25.748  27.386   3.597
59516W        W31242  30.589  21.099  12.504
59517W        W31243  17.142  14.386   2.136
59518W        W31244  34.771  34.087  11.104
59519W        W31245  41.455  10.226  11.233
59520W        W31246  33.544  32.547  13.984
59521W        W31247  25.263  41.910   1.035
59522W        W31248  14.627   5.584  11.351
59523W        W31249   6.845  12.611   0.456
59524W        W31250   1.804  36.837   1.498
59525W        W31251  10.922  29.491   3.598
59526W        W31252   2.967  23.053  13.799
59527W        W31253  22.787  10.596  11.143
59528W        W31254   3.276  16.324  13.969
59529W        W31255  29.888   1.556   1.713
59530W        W31256  27.754  44.275   1.519
59531W        W31257  38.622  35.958  14.335
59532W        W31258  37.087  26.900  13.531
59533W        W31259   1.342  21.323  10.288
59534W        W31260  33.594  17.587   1.472
59535W        W31261  34.613  21.072  13.485
59536W        W31262  42.524  42.262  14.766
59537W        W31263  17.574  13.801  13.871
59538W        W31264  18.133  31.140   0.925
59539W        W31265  33.444   2.715   2.902
59540W        W31266   9.323  30.680   1.255
59541W        W31267  29.717  35.103  10.738
59542W        W31268  23.086  35.635  10.717
59543W        W31269   4.272  34.521   4.291
59544W        W31270  21.857   6.874  10.926
59545W        W31271  37.331  35.536   1.233
59546W        W31272  38.849  38.967  12.249
59547W        W31273  38.581  16.017   1.842
59548W        W31274  44.468   4.370   2.403
59549W        W31275   6.621  40.712   1.814
59550W        W31276  40.474  18.310   4.632
59551W        W31277  38.104  18.714   2.249
59552W        W31278  32.816  25.898   5.299
59553W        W31279  31.874  41.919  11.524
59554W        W31280  33.819  21.161  13.325
59555W        W31281  44.407  19.627   3.677
59556W        W31282   5.748  37.854   4.694
59557W        W31283  10.047  40.313   3.696
59558W        W31284  16.569  25.885  11.595
59559W        W31285  21.702  31.154   1.922
59560W        W31286   6.154  11.387   4.034
59561W        W31287  34.622   2.188   2.476
59562W        W31288   3.405  44.411   1.504
59563W        W31289   8.871  13.840   1.338
59564W        W31290   4.285  40.597   1.840
59565W        W31291   0.966  25.617   3.984
59566W        W31292  25.970  19.995  10.663
59567W        W31293  37.330  27.987  14.812
59568W        W31294  16.337  42.894   3.337
59569W        W31295  10.401  36.794   5.079
59570W        W31296  32.190  34.554  14.421
59571W        W31297   0.281  18.740  12.581
59572W        W31298  17.276  26.660   0.350
59573W        W31299  25.052  27.913   0.689
59574W        W31300  44.532  13.757  11.136
59575W        W31301  18.846  24.713   1.361
59576W        W31302  30.182   4.222  11.824
59577W        W31303  36.331  36.530  13.861
59578W        W31304  34.004  41.920   2.657
59579W        W31305  24.246  42.954   1.707
59580W        W31306  10.006  24.263   0.995
59581W        W31307  33.413  41.454  13.381
59582W        W31308   0.304  18.967  13.891
59583W        W31309  34.739  37.484   1.693
59584W        W31310  33.772  21.721   4.364
59585W        W31311  41.006  27.497  14.065
59586W        W31312  31.570   0.705  12.493
59587W        W31313  14.151  27.018  11.094
59588W        W31314   1.169  16.985  12.370
59589W        W31315   0.236  38.994   4.040
59590W        W31316   0.054  13.841   0.724
59591W        W31317   0.304  32.166   0.425
59592W        W31318  16.913  39.173   3.872
59593W        W31319   3.343  24.614  14.962
59594W        W31320  25.899  33.061  14.455
59595W        W31321  12.154   0.272   2.169
59596W        W31322  36.506   9.954  14.059
59597W        W31323  27.107  39.576  12.009
59598W        W31324  32.601   3.282   5.138
59599W        W31325  43.288  41.002  11.531
59600W        W31326   2.734  29.186  14.833
59601W        W31327  11.264  35.456  10.760
59602W        W31328  39.724  34.989  12.026
59603W        W31329  42.230  17.644   4.301
59604W        W31330   3.547  16.219  10.866
59605W        W31331  18.347   9.739   2.580
59606W        W31332  36.379   7.809   1.961
59607W        W31333  10.274  40.874  12.884
59608W        W31334   6.847   4.235  14.006
59609W        W31335  27.780  31.261  13.014
59610W        W31336  26.416  28.154  14.883
59611W        W31337   8.004  36.104  12.044
59612W        W31338  36.590  35.450  11.641
59613W        W31339  24.315  34.958  11.648
59614W        W31340   3.791  10.143   4.354
59615W        W31341  20.720  31.497   1.953
59616W        W31342  33.027  15.402  12.601
59617W        W31343  25.973  44.466   4.576
59618W        W31344   0.750  10.723   4.089
59619W        W31345   9.524  39.269  13.811
59620W        W31346  29.892   7.058  11.124
59621W        W31347  41.570  39.027  13.068
59622W        W31348  21.416  30.626  14.375
59623W        W31349  33.998  41.244  13.814
59624W        W31350  41.814  11.146   4.701
59625W        W31351  33.620  37.843   3.103
59626W        W31352  41.804   9.254   0.929
59627W        W31353  18.356  24.101  12.457
59628W        W31354  38.783   1.335   1.333
59629W        W31355   0.931  33.132   1.708
59630W        W31356   4.264   6.327  13.853
59631W        W31357   2.993   2.729  14.907
59632W        W31358   5.592  10.501  10.605
59633W        W31359  14.515  17.017   1.317
59634W        W31360  13.329  27.273  10.725
59635W        W31361  23.968  37.358  12.499
59636W        W31362  24.209  27.678   2.808
59637W        W31363  15.204  23.775   2.169
59638W        W31364  10.782  41.007  12.881
59639W        W31365  40.141  20.570  11.120
59640W        W31366  19.179  41.109  14.869
59641W        W31367  21.190  17.639  14.211
59642W        W31368  21.712  33.636  13.951
59643W        W31369   4.849  21.606   2.214
59644W        W31370   2.805  25.474  10.750
59645W        W31371  38.217   1.974  10.400
59646W        W31372  38.286  11.268  14.446
59647W        W31373  19.533   0.784   0.122
59648W        W31374   6.131  25.584  13.824
59649W        W31375  27.543   1.047  12.527
59650W        W31376   0.371  29.717  11.094
59651W        W31377  40.396  16.281   2.807
59652W        W31378  10.783  29.006   3.418
59653W        W31379   3.835  29.537   2.864
59654W        W31380   1.518  31.222   2.227
59655W        W31381  41.891  43.024  11.458
59656W        W31382  15.246  38.524   3.875
59657W        W31383  13.761  40.008   0.555
59658W        W31384  12.338  34.266  13.079
59659W        W31385   0.798  39.857   1.705
59660W        W31386  19.428  25.599  12.397
59661W        W31387   5.872  25.700  14.558
59662W        W31388  16.181  30.711   4.326
59663W        W31389   0.277  32.680   3.269
59664W        W31390   2.350  39.028   2.827
59665W        W31391  25.536  32.671  12.129
59666W        W31392   7.638   5.115   5.286
59667W        W31393   4.204  30.861  13.961
59668W        W31394   3.655  28.461  12.132
59669W        W31395   8.367  43.288  12.037
59670W        W31396   5.676  21.306   2.787
59671W        W31397   3.467  37.456   3.157
59672W        W31398   8.901  23.110   3.200
59673W        W31399   1.821  15.281  10.764
59674W        W31400  32.339   8.249  13.941
59675W        W31401  14.568   9.040  14.270
59676W        W31402  24.079  39.044   4.803
59677W        W31403   8.727   4.397  13.530
59678W        W31404  27.231  20.066  13.951
59679W        W31405  23.811  44.550   0.474
59680W        W31406   7.797  31.657   2.795
59681W        W31407  41.488  21.485   1.969
59682W        W31408  25.936   1.379   2.555
59683W        W31409   3.787  25.402   1.318
59684W        W31410  39.617   7.820  12.538
59685W        W31411  31.378  38.250  13.495
59686W        W31412  23.599   5.406   3.122
59687W        W31413  32.708  31.642   4.266
59688W        W31414   7.407  15.850   0.345
59689W        W31415  38.627  12.342   2.791
59690W        W31416  26.307  19.533  12.911
59691W        W31417   2.405   4.838   0.256
59692W        W31418   6.419  29.766  14.082
59693W        W31419  28.980   8.827   3.423
59694W        W31420  20.977  38.860  12.794
59695W        W31421   2.221  14.580   3.855
59696W        W31422  34.199  33.042   2.839
59697W        W31423   6.912   9.147   2.711
59698W        W31424   9.979   2.351   3.119
59699W        W31425  26.519  30.136  10.671
59700W        W31426  37.923  44.467  13.861
59701W        W31427  25.356   7.471   3.853
59702W        W31428  25.498  29.728  11.470
59703W        W31429  33.183   9.379   3.899
59704W        W31430   5.429  39.973   0.359
59705W        W31431  41.500  37.891  10.709
59706W        W31432   3.336  13.494  11.612
59707W        W31433  14.351  31.911   3.207
59708W        W31434  43.473  41.347   4.753
59709W        W31435  24.434   6.342   4.624
59710W        W31436  43.947  33.636  12.928
59711W        W31437  32.555  43.755  12.076
59712W        W31438  25.444  19.379  14.801
59713W        W31439  34.577  39.057   2.912
59714W        W31440  20.627   0.495  10.825
59715W        W31441  25.390  34.602  13.960
59716W        W31442  21.309  22.605  14.535
59717W        W31443   6.624  43.439   1.841
59718W        W31444  41.549  29.660  12.453
59719W        W31445  14.750   0.791   2.205
59720W        W31446  34.365   4.401  11.399
59721W        W31447  13.407  14.283  14.447
59722W        W31448  33.559  36.794  13.862
59723W        W31449   5.251  12.760   4.202
59724W        W31450  30.523  32.545  10.855
59725W        W31451  20.229   5.296   4.242
59726W        W31452   3.911  21.469   0.823
59727W        W31453  11.322  10.575  12.523
59728W        W31454  32.888  26.392   0.381
59729W        W31455  17.635  13.148   3.800
59730W        W31456  39.596  38.886  11.642
59731W        W31457   9.447   2.915   3.658
59732W        W31458  44.370   7.756   4.577
59733W        W31459  29.989   2.421  12.319
59734W        W31460   0.920  14.619  11.976
59735W        W31461  10.623  13.150  11.882
59736W        W31462  38.349  13.069  10.491
59737W        W31463  39.397   6.753  10.784
59738W        W31464  11.843  28.415  11.671
59739W        W31465  24.531  11.089  13.516
59740W        W31466  32.918  25.516  13.394
59741W        W31467  21.731  23.640  13.373
59742W        W31468  40.028  29.866  10.786
59743W        W31469  16.549  14.792  13.053
59744W        W31470  23.684  24.700   1.628
59745W        W31471  11.700  25.508   4.621
59746W        W31472  19.045  30.640  10.996
59747W        W31473  17.707  37.810   0.546
59748W        W31474  35.946  15.429  14.791
59749W        W31475  21.603   9.609   0.847
59750W        W31476  13.080  33.023  14.780
59751W        W31477  19.171  28.160   4.856
59752W        W31478  30.366  43.973  10.188
59753W        W31479  31.358  13.665  12.413
59754W        W31480  15.208  22.688   4.160
59755W        W31481  10.641  14.528   0.207
59756W        W31482   0.294  42.463   1.333
59757W        W31483  11.711  12.252  13.966
59758W        W31484   3.737  17.814  11.961
59759W        W31485  20.721   3.404  13.580
59760W        W31486  20.433  27.791   9.774
59761W        W31487  35.035  27.959  12.921
59762W        W31488  30.391  36.342   2.941
59763W        W31489  19.241  31.631  12.449
59764W        W31490  10.340  17.158   1.894
59765W        W31491  36.855   9.668  12.434
59766W        W31492  44.260  32.144   1.284
59767W        W31493  35.955   0.043  13.793
59768W        W31494   6.802  21.743   1.974
59769W        W31495   5.016  39.561  10.160
59770W        W31496  17.730   1.517  10.992
59771W        W31497  26.492   6.921  12.487
59772W        W31498  13.326  15.369   2.278
59773W        W31499  38.465  40.324  14.337
59774W        W31500  13.563  39.958  10.621
59775W        W31501  30.960   6.326  11.609
59776W        W31502  12.681  20.989  13.232
59777W        W31503  32.460  29.560   0.682
59778W        W31504  12.126  16.829   3.758
59779W        W31505  38.262  21.104  11.138
59780W        W31506  16.596  11.665  13.456
59781W        W31507  23.092  43.469   1.726
59782W        W31508  43.257  44.973   0.422
59783W        W31509  32.581  28.874  11.091
59784W        W31510  20.009  38.439   1.300
59785W        W31511  19.098  40.059  11.146
59786W        W31512  37.759  29.857  13.759
59787W        W31513  32.645   3.024  12.002
59788W        W31514   3.932  19.325   4.230
59789W        W31515  36.886  16.363   0.884
59790W        W31516  22.898   1.031  10.243
59791W        W31517   3.988   9.191   3.917
59792W        W31518  28.114  38.584  12.989
59793W        W31519   5.846  15.073  14.739
59794W        W31520  40.462   2.355   2.824
59795W        W31521  12.684  25.401  11.983
59796W        W31522  35.016  21.665  14.106
59797W        W31523  41.290  40.833  11.278
59798W        W31524  10.327  23.469   2.554
59799W        W31525  34.346  31.169   0.753
59800W        W31526   7.306  38.494  11.869
59801W        W31527  43.428   4.890  14.919
59802W        W31528  42.004   1.714  14.351
59803W        W31529  30.038  21.430   3.662
59804W        W31530   8.128   4.304   4.736
59805W        W31531  17.986  27.169   1.385
59806W        W31532  40.233  35.908   4.530
59807W        W31533  41.099  35.047   3.159
59808W        W31534  16.534  22.557   0.989
59809W        W31535  31.850  21.134   5.164
59810W        W31536  42.067  19.152  10.818
59811W        W31537  20.854  37.298  10.521
59812W        W31538  38.025  22.716  13.150
59813W        W31539   3.263  15.811  11.105
59814W        W31540  27.588  31.648  14.649
59815W        W31541  16.001   7.238   4.163
59816W        W31542  12.080  38.551  11.579
59817W        W31543  37.116  30.085  14.523
59818W        W31544  26.581  37.997   4.136
59819W        W31545   2.745  27.231   1.064
59820W        W31546   8.312  39.932  13.530
59821W        W31547   2.709  33.991  13.384
59822W        W31548  30.249  34.513  12.315
59823W        W31549  36.130  40.757  14.243
59824W        W31550  37.900  12.809  10.565
59825W        W31551   8.848  38.882  11.972
59826W        W31552  40.760   4.818   4.605
59827W        W31553  41.063  10.615  11.998
59828W        W31554  21.867   4.378   3.692
59829W        W31555  23.123  32.608   0.829
59830W        W31556  37.227  34.394  13.465
59831W        W31557   5.627  12.663  13.574
59832W        W31558  35.897  23.652  13.156
59833W        W31559  27.675  36.400  13.825
59834W        W31560  13.278  35.090   0.947
59835W        W31561   7.931  15.975  13.770
59836W        W31562  44.206  16.637  12.568
59837W        W31563  28.180  37.661  10.292
59838W        W31564  17.584  10.752   4.061
59839W        W31565   2.316   9.615  12.459
59840W        W31566  38.651  11.679  10.879
59841W        W31567  22.797   2.763  13.907
59842W        W31568  25.030  24.440  12.069
59843W        W31569   5.612  24.696  13.809
59844W        W31570  18.987  31.993  14.509
59845W        W31571  33.864   4.730   2.137
59846W        W31572  44.910  32.437   0.232
59847W        W31573  30.930   4.488   1.274
59848W        W31574  41.608   0.288   4.944
59849W        W31575   9.749  20.735   1.441
59850W        W31576  16.098  32.855   0.651
59851W        W31577  13.611  17.405   0.420
59852W        W31578  32.865  31.567   3.697
59853W        W31579  20.630  43.515  10.688
59854W        W31580  35.531   1.007   0.740
59855W        W31581  18.477  28.891  12.004
59856W        W31582   6.810  22.035   2.392
59857W        W31583   7.366  15.066  12.896
59858W        W31584   9.709  10.367   0.863
59859W        W31585  26.766  29.599  12.938
59860W        W31586  32.822  10.270   3.555
59861W        W31587   3.234  34.547   1.894
59862W        W31588  41.810   8.750  12.071
59863W        W31589  33.167   3.866   3.275
59864W        W31590  40.544  33.849   3.703
59865W        W31591  15.531  39.948  12.526
59866W        W31592  25.393   3.441   1.315
59867W        W31593  38.602  36.647  14.770
59868W        W31594  11.372  31.145  11.712
59869W        W31595   4.881  18.208  12.528
59870W        W31596   1.034   4.401  11.102
59871W        W31597  43.279  37.913  10.708
59872W        W31598  21.828  37.391   2.650
59873W        W31599  26.424  30.416  13.979
59874W        W31600  40.998  37.942  11.906
59875W        W31601  31.682  28.530   3.670
59876W        W31602  17.259   0.899   4.295
59877W        W31603  15.113  30.042  14.909
59878W        W31604  16.541  19.744   5.023
59879W        W31605  31.083   3.698   3.405
59880W        W31606  30.502  22.261   1.639
59881W        W31607   1.869  37.780   1.838
59882W        W31608  17.006  19.518   5.024
59883W        W31609  41.908  11.409   0.930
59884W        W31610  31.667  11.165  12.469
59885W        W31611   8.236  11.105  12.592
59886W        W31612  38.873  43.808  14.963
59887W        W31613  38.602   9.213   0.454
59888W        W31614   8.450  42.013   2.106
59889W        W31615  34.949  10.219  14.038
59890W        W31616  21.261  24.735   2.312
59891W        W31617  16.593  40.994   1.288
59892W        W31618  29.729  32.416  11.494
59893W        W31619  44.979  40.699   0.391
59894W        W31620  10.377   5.180   3.132
59895W        W31621  38.052  29.172  12.318
59896W        W31622  40.719  28.537  13.042
59897W        W31623  34.317  19.299  12.338
59898W        W31624  30.020  38.005  14.480
59899W        W31625  15.711   1.033  12.429
59900W        W31626  13.053  15.228  10.700
59901W        W31627  31.509   6.817   0.724
59902W        W31628  19.721  19.087   3.859
59903W        W31629   4.327  25.939   0.832
59904W        W31630  44.221  43.433  11.698
59905W        W31631  21.622  25.604   1.387
59906W        W31632  38.793  20.520  10.855
59907W        W31633   1.813  10.656   4.084
59908W        W31634  26.818  32.602  13.418
59909W        W31635  35.409  10.135  10.701
59910W        W31636  44.380   9.953  13.340
59911W        W31637  30.134   1.205   4.380
59912W        W31638  40.264  32.187   3.315
59913W        W31639  39.835  23.789   0.936
59914W        W31640   9.862  29.572   2.940
59915W        W31641  18.720  27.236  14.271
59916W        W31642  21.680  28.568  14.078
59917W        W31643  27.980  11.175   4.420
59918W        W31644   2.380  42.345   2.417
59919W        W31645   1.773   4.855  13.812
59920W        W31646  18.693  40.947  14.790
59921W        W31647  41.768   1.738   2.343
59922W        W31648  36.434  43.304  13.742
59923W        W31649  13.358  25.100   3.696
59924W        W31650  23.728  10.755   3.571
59925W        W31651  20.992  11.681   2.462
59926W        W31652  26.252   8.295   4.187
59927W        W31653  12.358  40.440   2.522
59928W        W31654  15.533  41.267   3.300
59929W        W31655   9.338  17.710  14.519
59930W        W31656  32.898  20.500   4.657
59931W        W31657  43.803  37.232  12.451
59932W        W31658  43.217  36.901   0.917
59933W        W31659  22.938  32.424  11.538
59934W        W31660   7.401  41.997   0.379
59935W        W31661  15.054  27.913  11.435
59936W        W31662  10.117  26.728   2.293
59937W        W31663  29.240  25.496   3.395
59938W        W31664  24.191   8.840  12.857
59939W        W31665  43.767  34.023  10.670
59940W        W31666  44.309   3.708   4.543
59941W        W31667  33.548  42.139  12.141
59942W        W31668  14.013   6.690   3.840
59943W        W31669  12.018  42.364  13.460
59944W        W31670  30.238  10.437   2.256
59945W        W31671  33.908  42.807   5.336
59946W        W31672  16.184   9.371   0.251
59947W        W31673  39.391   4.479   4.295
59948W        W31674   7.748  35.881  13.291
59949W        W31675  37.041  10.145  14.954
59950W        W31676  26.920  24.641  12.139
59951W        W31677   8.998   3.394   0.948
59952W        W31678  15.738  32.005  10.919
59953W        W31679   8.888   9.842  13.237
59954W        W31680  36.600  28.232   0.281
59955W        W31681  35.496  18.712   0.393
59956W        W31682  19.253  14.091  10.771
59957W        W31683  19.567   0.704   2.317
59958W        W31684  24.053   7.792  13.500
59959W        W31685  33.375  38.885  14.762
59960W        W31686   2.028   7.490  11.067
59961W        W31687  10.281  27.214  14.004
59962W        W31688   3.753   1.373   4.124
59963W        W31689  13.808  39.531   1.880
59964W        W31690  26.214  21.026   4.058
59965W        W31691  22.958   3.891  10.370
59966W        W31692  33.602  27.467  11.554
59967W        W31693   7.813  12.216  14.049
59968W        W31694  39.832  20.574   3.574
59969W        W31695  11.432  33.347   1.901
59970W        W31696  34.962  38.894  11.578
59971W        W31697   8.890   7.174   3.800
59972W        W31698  17.533  40.257  11.454
59973W        W31699  20.655  18.264   2.664
59974W        W31700   0.036   3.742   1.782
59975W        W31701   3.377  20.189  12.918
59976W        W31702  23.941  25.926   1.296
59977W        W31703  10.428  19.521  14.939
59978W        W31704   2.935  22.484  13.368
59979W        W31705  29.812  14.167   0.112
59980W        W31706   5.629  44.961   3.205
59981W        W31707  35.132   1.024   2.213
59982W        W31708  38.511  40.205  13.814
59983W        W31709   2.159  32.950  12.774
59984W        W31710  38.549  16.869   4.585
59985W        W31711  44.485   7.983   4.073
59986W        W31712  22.115  13.390  14.719
59987W        W31713  35.601   2.838  12.639
59988W        W31714  14.418  25.529  12.532
59989W        W31715   8.325  13.349   0.328
59990W        W31716  26.195   4.836  11.457
59991W        W31717  38.487  36.070   2.745
59992W        W31718  30.569   3.166  11.139
59993W        W31719   4.418  43.972  10.587
59994W        W31720  35.947  32.550   1.933
59995W        W31721   9.269  29.242  12.054
59996W        W31722  10.725  14.890   3.870
59997W        W31723   5.203  11.669  10.415
59998W        W31724   2.788  25.709  14.023
59999W        W31725  42.185   9.107   2.347
60000W        W31726  36.355  17.053   4.031
60001W        W31727   6.896  29.110   2.778
60002W        W31728   2.481  18.553   0.046
60003W        W31729  23.625  25.722   4.792
60004W        W31730  17.596  10.167   4.720
60005W        W31731   9.194   7.919  12.942
60006W        W31732  25.174  21.907  12.008
60007W        W31733  34.449  22.747  10.507
60008W        W31734  11.343  43.387  12.003
60009W        W31735  15.708  41.273  10.832
60010W        W31736  41.224  44.452  13.570
60011W        W31737  21.811  23.059   0.341
60012W        W31738   9.577  30.547  14.713
60013W        W31739  29.497  11.939  11.166
60014W        W31740  32.548  29.517  11.506
60015W        W31741  25.277  27.625   3.689
60016W        W31742  41.742   7.288  12.575
60017W        W31743   2.896  34.191   3.131
60018W        W31744   0.772  30.675  13.776
60019W        W31745  35.002  41.066  11.991
60020W        W31746  20.267  25.680   1.690
60021W        W31747  33.901  37.189   2.287
60022W        W31748   1.654  21.315  12.076
60023W        W31749  26.698   6.664  12.090
60024W        W31750  13.830  33.825  12.045
60025W        W31751   8.644  27.857   4.986
60026W        W31752  32.889  44.689   0.390
60027W        W31753  24.407  26.113  11.678
60028W        W31754  14.378  11.743   2.144
60029W        W31755   9.401   5.437   2.705
60030W        W31756  23.719  19.286   4.763
60031W        W31757   6.886   9.460  12.918
60032W        W31758  26.881   2.748   4.876
60033W        W31759   0.519  19.062   3.856
60034W        W31760  21.333  43.357   2.726
60035W        W31761  43.723   7.412  14.059
60036W        W31762  28.677  32.549  12.340
60037W        W31763  30.450   7.135   1.879
60038W        W31764  41.029  22.451   1.821
60039W        W31765  20.326  43.753   2.968
60040W        W31766   8.582  13.693  14.287
60041W        W31767   1.445  23.386   2.235
60042W        W31768  19.151  40.553   1.141
60043W        W31769  13.439   7.147  11.482
60044W        W31770  10.129   7.412   1.016
60045W        W31771  39.816  21.068   4.237
60046W        W31772  29.765  11.731  11.536
60047W        W31773   9.949  19.363   0.167
60048W        W31774  29.288   0.380   2.398
60049W        W31775  25.035   5.642   1.836
60050W        W31776   1.783  39.573  13.202
60051W        W31777  28.589  21.650   2.026
60052W        W31778  12.710  13.698  10.800
60053W        W31779  17.982   5.507  14.414
60054W        W31780  39.329  23.607   3.165
60055W        W31781  27.630   0.959   4.540
60056W        W31782  26.762  35.771  11.109
60057W        W31783  11.503  35.956   5.252
60058W        W31784  37.110  36.969   3.847
60059W        W31785   9.466  41.418  12.644
60060W        W31786  28.592  28.362  12.571
60061W        W31787  26.960   0.764  14.900
60062W        W31788  35.171   3.401   3.073
60063W        W31789  35.584  21.369  13.303
60064W        W31790  39.946  44.343   3.640
60065W        W31791   1.965  19.085   4.366
60066W        W31792  39.304  35.883  14.969
60067W        W31793  43.960  31.289   4.862
60068W        W31794  22.698  15.375  12.963
60069W        W31795  28.735   3.793  13.314
60070W        W31796  23.011   6.693   3.558
60071W        W31797  14.121  34.343   2.235
60072W        W31798  16.290  25.513   1.766
60073W        W31799   7.303   3.175  11.212
60074W        W31800   2.761   8.225  13.804
60075W        W31801   1.251  18.463  13.469
60076W        W31802  38.363  13.715   4.683
60077W        W31803  42.978  10.724  11.598
60078W        W31804  38.804  27.554  11.097
60079W        W31805  17.033   9.685   2.323
60080W        W31806  27.431  22.237   2.314
60081W        W31807  37.466  17.788   0.292
60082W        W31808   8.570  39.400   0.561
60083W        W31809  36.067  41.854  13.615
60084W        W31810  27.642  32.431   2.304
60085W        W31811   3.861  27.630  11.585
60086W        W31812  22.041   8.737  10.548
60087W        W31813  44.425  20.993  14.029
60088W        W31814   2.371  25.949   1.194
60089W        W31815   4.124  10.269   1.200
60090W        W31816   0.880  24.773   4.335
60091W        W31817   6.629  17.379   3.607
60092W        W31818  29.088  32.900   0.469
60093W        W31819   3.823  21.892  11.839
60094W        W31820  24.742  32.012  13.464
60095W        W31821   6.237  35.808   1.803
60096W        W31822   3.488   9.914   1.669
60097W        W31823   5.020   6.066   0.361
60098W        W31824  43.403  38.714  12.538
60099W        W31825  14.305  37.877  11.499
60100W        W31826   5.399  16.994   0.050
60101W        W31827  25.454   5.338  11.461
60102W        W31828  24.828  20.230  12.503
60103W        W31829   8.514  39.953   4.109
60104W        W31830  24.657  21.026  10.027
60105W        W31831  13.862  17.546   1.707
60106W        W31832  33.401  30.702  13.868
60107W        W31833  24.883  44.541  10.676
60108W        W31834  41.089  14.128   3.137
60109W        W31835  41.383  14.907  11.282
60110W        W31836  41.595  14.793   2.836
60111W        W31837  37.516  21.135   1.370
60112W        W31838  25.698  16.794   2.970
60113W        W31839  18.830  26.368  12.950
60114W        W31840  19.273  14.767   1.395
60115W        W31841  25.434  35.500  14.500
60116W        W31842   8.908  36.957   2.205
60117W        W31843  23.212  42.046  14.385
60118W        W31844   7.456  18.604   1.653
60119W        W31845  14.409  25.484  10.690
60120W        W31846  36.136  28.196   3.914
60121W        W31847  32.033  25.885   4.165
60122W        W31848   1.653  40.835   4.702
60123W        W31849  16.078  18.287  13.898
60124W        W31850   4.940   4.032   2.372
60125W        W31851  44.790   3.998  12.930
60126W        W31852  14.611  20.646  11.468
60127W        W31853  41.542  12.617  11.758
60128W        W31854  25.487  20.278  12.017
60129W        W31855  14.181  20.514  13.802
60130W        W31856  12.325   4.165   3.570
60131W        W31857  41.467  29.936   3.582
60132W        W31858   2.223  29.186  14.400
60133W        W31859   5.299  42.910  13.723
60134W        W31860  32.155   7.312  12.884
60135W        W31861  24.672  21.193   0.356
60136W        W31862  22.183  17.660   4.560
60137W        W31863  12.276  22.062   1.497
60138W        W31864  21.763  11.651   3.590
60139W        W31865  39.030   1.298   3.505
60140W        W31866  21.040  10.295  14.609
60141W        W31867  17.641  28.563  10.711
60142W        W31868  14.823  10.736  11.554
60143W        W31869  42.416  44.222   2.448
60144W        W31870   2.947  11.653  11.675
60145W        W31871  11.427  30.448   0.339
60146W        W31872  25.190   6.160  13.173
60147W        W31873  15.063   9.509   0.179
60148W        W31874   5.196  38.172   3.255
60149W        W31875  29.468  17.621   4.515
60150W        W31876   3.240  43.547  13.625
60151W        W31877  35.505  42.410   3.050
60152W        W31878  12.349  17.179  12.645
60153W        W31879  39.599   1.831  11.099
60154W        W31880  36.456  29.822   2.153
60155W        W31881  11.912  10.234  11.523
60156W        W31882   5.913   5.400   5.021
60157W        W31883  21.617   6.823   4.481
60158W        W31884  17.558   5.823  11.671
60159W        W31885  28.240  39.774  14.452
60160W        W31886   6.890  12.047  12.899
60161W        W31887  43.980  27.675  10.746
60162W        W31888  31.012  32.522  13.280
60163W        W31889  31.393  43.822   5.409
60164W        W31890  43.316  20.637  13.519
60165W        W31891  11.814  28.475   1.338
60166W        W31892   7.757  24.439  12.370
60167W        W31893  12.018  36.780  14.880
60168W        W31894  16.825  10.402   0.979
60169W        W31895   4.664  36.942   0.001
60170W        W31896  33.901   2.913  12.493
60171W        W31897  13.136  34.606   0.752
60172W        W31898   5.165  41.242   0.925
60173W        W31899   2.051  28.183  13.587
60174W        W31900   6.401  15.170  10.899
60175W        W31901   1.976  17.056  14.081
60176W        W31902  35.643  21.548  10.735
60177W        W31903   6.535  30.260   4.331
60178W        W31904  17.739   7.417  12.964
60179W        W31905  12.898  23.033   0.629
60180W        W31906  21.998   2.669   4.849
60181W        W31907   7.948   3.412   0.748
60182W        W31908  21.141   1.312  10.721
60183W        W31909  44.276   8.990   1.340
60184W        W31910  36.860  17.481   1.277
60185W        W31911  30.208  23.969   0.898
60186W        W31912  39.457  10.602  14.963
60187W        W31913  22.284  40.902  13.318
60188W        W31914  18.839  23.233  14.093
60189W        W31915  27.645  16.789  10.671
60190W        W31916  32.799  15.816   3.135
60191W        W31917  29.259  34.899   1.357
60192W        W31918  39.046  36.447   3.758
60193W        W31919  21.262  11.645  14.742
60194W        W31920  31.968  22.893  10.234
60195W        W31921  40.369   5.801  10.672
60196W        W31922  25.861   7.420   3.743
60197W        W31923   0.731  37.609   1.517
60198W        W31924  33.911  11.225   1.699
60199W        W31925  19.203  32.083  10.185
60200W        W31926  34.935   2.904  11.637
60201W        W31927   2.884  11.159  12.995
60202W        W31928  28.701   1.939  10.654
60203W        W31929  43.888  39.942   0.351
60204W        W31930  37.918   1.498  13.860
60205W        W31931  30.206  17.102  13.021
60206W        W31932   5.034  14.251   3.182
60207W        W31933   8.425   5.193  10.230
60208W        W31934  40.032   4.258   1.291
60209W        W31935   0.931  16.738   0.482
60210W        W31936  41.317  30.560   4.244
60211W        W31937  19.756   0.464  12.814
60212W        W31938  25.555  39.757  12.165
60213W        W31939  43.780  44.277   0.747
60214W        W31940  44.950  22.375   4.186
60215W        W31941  10.674  32.897  14.357
60216W        W31942   1.798  42.399  14.519
60217W        W31943  41.044  11.863  12.618
60218W        W31944  37.754  29.432  14.532
60219W        W31945   0.434  38.118  14.608
60220W        W31946   0.825  43.054   1.714
60221W        W31947   3.975  24.002  12.754
60222W        W31948  35.334  35.965  13.121
60223W        W31949   1.719  14.309  11.969
60224W        W31950  35.023  15.907  10.100
60225W        W31951   1.953  28.193   3.243
60226W        W31952  25.508   6.977   4.633
60227W        W31953  10.941  38.387  13.335
60228W        W31954  44.350  33.573   0.801
60229W        W31955  26.626  33.464  12.010
60230W        W31956  40.314  16.488   0.020
60231W        W31957  27.397  16.491  11.622
60232W        W31958  34.377  40.888   0.980
60233W        W31959  42.197  19.549   3.432
60234W        W31960  30.148  24.584  10.674
60235W        W31961  21.002   8.250   3.297
60236W        W31962   5.929  28.471   2.687
60237W        W31963  26.332  42.132  12.125
60238W        W31964  15.045  34.481  12.581
60239W        W31965   7.411  30.678   0.626
60240W        W31966   7.843  27.745  10.817
60241W        W31967  31.094  20.295  11.573
60242W        W31968  43.741  28.890   0.768
60243W        W31969  20.264  27.019   2.009
60244W        W31970  29.869  19.153   3.461
60245W        W31971  16.711  16.495   0.388
60246W        W31972  41.310  13.140   3.410
60247W        W31973   8.770  11.284   2.344
60248W        W31974  25.426  17.429  13.021
60249W        W31975  42.800   2.918  10.875
60250W        W31976  40.011  34.273   2.725
60251W        W31977  35.304  19.176   3.802
60252W        W31978   1.687  16.167   1.254
60253W        W31979   4.833  20.117   1.176
60254W        W31980  21.266  31.859   4.654
60255W        W31981  20.643  27.051   4.707
60256W        W31982  35.942   0.256   1.761
60257W        W31983  41.723  30.370   3.380
60258W        W31984  28.036  14.596  10.304
60259W        W31985  27.920  19.939  11.037
60260W        W31986   3.099  43.747  14.580
60261W        W31987  11.877  34.976  10.651
60262W        W31988  35.425  23.553   0.927
60263W        W31989  23.728  33.091   3.589
60264W        W31990  12.343   9.995   0.575
60265W        W31991  31.020   2.917   2.513
60266W        W31992   2.291  39.357   1.050
60267W        W31993  10.162  42.404   0.920
60268W        W31994  27.533  26.672   3.243
60269W        W31995   2.818  36.467  14.848
60270W        W31996  26.020  21.056   1.693
60271W        W31997  36.937  28.008   0.705
60272W        W31998  15.189  34.487  12.086
60273W        W31999   1.956  28.857  12.014
60274W        W32000   3.898  44.863  10.637
60275W        W32001  12.754   3.960   0.392
60276W        W32002  16.816  29.903   2.736
60277W        W32003  28.907  31.880   4.586
60278W        W32004  38.555  40.838  14.442
60279W        W32005  25.660  37.638  12.907
60280W        W32006  29.969  39.984   0.125
60281W        W32007  37.624  44.511   2.344
60282W        W32008  42.756  15.517  12.934
60283W        W32009  10.919   2.539   2.691
60284W        W32010  19.221  44.001   2.216
60285W        W32011   7.276  34.596   3.363
60286W        W32012   8.123  38.078   0.440
60287W        W32013  30.376  31.507  10.686
60288W        W32014  28.625  39.073  12.027
60289W        W32015  34.324   6.156  14.493
60290W        W32016  38.823  10.054  14.461
60291W        W32017  41.086  19.228  13.326
60292W        W32018  22.298   5.969  12.516
60293W        W32019  44.905   7.890  11.634
60294W        W32020  13.218   8.209  11.698
60295W        W32021  36.111  43.857   4.910
60296W        W32022  36.542  40.710  10.698
60297W        W32023  19.155  16.830   3.841
60298W        W32024  41.884  27.691  10.490
60299W        W32025   9.739  25.492  12.406
60300W        W32026   9.139  26.663   3.146
60301W        W32027  19.824   6.106  14.338
60302W        W32028  22.647  41.766  10.694
60303W        W32029  28.428  18.819  10.644
60304W        W32030  37.340  28.025   3.564
60305W        W32031  43.839   3.532  12.635
60306W        W32032  13.760  39.382  12.515
60307W        W32033   8.389  42.512   2.256
60308W        W32034  40.270  38.994   0.254
60309W        W32035  18.578   3.762   1.930
60310W        W32036  18.626  32.572   4.781
60311W        W32037  18.601  39.985   2.376
60312W        W32038  22.649  29.042  14.444
60313W        W32039  20.916  23.512   4.567
60314W        W32040  10.141  42.881  14.745
60315W        W32041  42.717  13.736   2.651
60316W        W32042  17.366  35.165  11.716
60317W        W32043   6.860  18.596  14.972
60318W        W32044  20.036  27.504   2.820
60319W        W32045  44.835  13.609  11.539
60320W        W32046  43.899  15.105   0.371
60321W        W32047  39.929  38.123   3.282
60322W        W32048  37.415  39.884  12.797
60323W        W32049   5.420  38.401  11.124
60324W        W32050   3.292   1.130   1.916
60325W        W32051  18.700  28.663   1.380
60326W        W32052  31.953  14.679  12.959
60327W        W32053  41.564   8.745  13.053
60328W        W32054   8.942  23.208   5.128
60329W        W32055  18.544  42.422   2.406
60330W        W32056  23.147  36.338  12.872
60331W        W32057  36.513   5.724   4.350
60332W        W32058  22.677  30.877   3.735
60333W        W32059   6.938  40.177  11.010
60334W        W32060  20.288  20.712   0.891
60335W        W32061  31.042  41.486   4.840
60336W        W32062  14.111  16.103  11.552
60337W        W32063   9.868   8.721   0.891
60338W        W32064  44.590  44.891   0.344
60339W        W32065   3.260  37.386  11.902
60340W        W32066  10.418  39.997  13.376
60341W        W32067  17.975   2.884  13.393
60342W        W32068  34.409  31.925   2.734
60343W        W32069  11.534  44.420   4.641
60344W        W32070   4.074   1.334   0.870
60345W        W32071  31.899   1.726  14.399
60346W        W32072  11.615  15.649  14.137
60347W        W32073  42.834  42.788   2.270
60348W        W32074  19.624  12.232  11.998
60349W        W32075  30.927  21.045  14.427
60350W        W32076   0.450  30.549   0.410
60351W        W32077   9.253  26.053   0.347
60352W        W32078  18.126  37.001   4.362
60353W        W32079  28.994  36.585   3.464
60354W        W32080   5.724  28.891   1.324
60355W        W32081   7.146  44.035  13.383
60356W        W32082  41.070  19.789  12.600
60357W        W32083  30.515  10.178   3.571
60358W        W32084  23.866  19.265  14.395
60359W        W32085  16.642   4.758  12.587
60360W        W32086  17.762   3.441   2.419
60361W        W32087  22.613  15.626  13.442
60362W        W32088   9.164  29.615  12.422
60363W        W32089  43.363  17.082   1.503
60364W        W32090   2.560  12.035   2.619
60365W        W32091   8.357  38.331   2.099
60366W        W32092  30.068  15.954  14.489
60367W        W32093  18.765   2.598   4.163
60368W        W32094  37.495  26.156   1.527
60369W        W32095  31.794  18.238   2.369
60370W        W32096  26.061   0.907   3.865
60371W        W32097  23.205   3.428  11.082
60372W        W32098  42.273  39.263   2.286
60373W        W32099  39.697  22.480  14.695
60374W        W32100  32.656  21.753   4.262
60375W        W32101  36.404   7.864  11.855
60376W        W32102  28.703  26.580  13.866
60377W        W32103  23.366  16.032  12.871
60378W        W32104   5.329  20.147   0.963
60379W        W32105  38.244  41.218  12.041
60380W        W32106  29.437  30.898   3.186
60381W        W32107  27.229  22.542   3.986
60382W        W32108   8.847  21.355  14.896
60383W        W32109  10.828   6.643  11.615
60384W        W32110  29.574  13.380   0.360
60385W        W32111  30.195  11.579   4.143
60386W        W32112  37.532  17.023   0.860
60387W        W32113  37.495   1.501  11.992
60388W        W32114  18.230  25.274   1.283
60389W        W32115   3.881   9.699   0.280
60390W        W32116  20.542  20.110  11.582
60391W        W32117  14.644  14.529  13.517
60392W        W32118  21.279  22.240  13.321
60393W        W32119  20.231   8.819  13.475
60394W        W32120   4.820  24.328  13.823
60395W        W32121  44.882  16.259   0.618
60396W        W32122  27.384  10.260  12.963
60397W        W32123  37.103  26.511   1.595
60398W        W32124  11.250  39.307   4.132
60399W        W32125   4.177  22.520   4.977
60400W        W32126  30.602  19.640  11.770
60401W        W32127   3.044  11.181   2.248
60402W        W32128  32.866  10.871   1.431
60403W        W32129   3.344  19.430   4.991
60404W        W32130  42.894  39.111  11.285
60405W        W32131  42.769   9.811  13.818
60406W        W32132  29.565  42.818  12.421
60407W        W32133   6.856  39.964   3.311
60408W        W32134  40.365  22.459   1.300
60409W        W32135  40.543  34.942  12.348
60410W        W32136  13.254   8.366  14.940
60411W        W32137  26.049  36.855  11.460
60412W        W32138  14.274  14.754  10.705
60413W        W32139  43.809  10.299   0.501
60414W        W32140  30.182  14.277   1.326
60415W        W32141  41.845  36.861   0.361
60416W        W32142   1.477  18.513   4.688
60417W        W32143  23.695  13.259  13.097
60418W        W32144  15.002  24.812  12.847
60419W        W32145  29.885   7.181   0.327
60420W        W32146  10.692   9.675   1.531
60421W        W32147  18.871  39.913   0.660
60422W        W32148  24.200  19.354   4.598
60423W        W32149  44.707  34.899  10.795
60424W        W32150  20.014  42.648   1.242
60425W        W32151   4.260  33.693   4.694
60426W        W32152  28.380  26.955   1.671
60427W        W32153  38.918  17.599  12.414
60428W        W32154  42.737  41.090   1.781
60429W        W32155  40.371  35.414  10.677
60430W        W32156  12.269  28.516   1.621
60431W        W32157  39.509   2.244  11.444
60432W        W32158  27.311   4.756  12.609
60433W        W32159  18.469  13.921  14.884
60434W        W32160  20.698  13.107   2.695
60435W        W32161   8.672  35.585   2.820
60436W        W32162  40.455  41.564   2.426
60437W        W32163  27.205   4.548   2.132
60438W        W32164  29.457  19.065  10.724
60439W        W32165   3.851  26.270   2.136
60440W        W32166  18.788  26.257  13.464
60441W        W32167  16.383   4.006  11.210
60442W        W32168  18.139  43.756  13.460
60443W        W32169   8.483  35.624  14.565
60444W        W32170  41.545  42.004   0.764
60445W        W32171  42.696  43.026   0.316
60446W        W32172  18.718  43.335   0.949
60447W        W32173   5.017  42.349   2.318
60448W        W32174  44.081  44.702  14.018
60449W        W32175   7.425  39.996   4.180
60450W        W32176  28.176   6.041   0.822
60451W        W32177  44.047  42.258  14.956
60452W        W32178  20.258  29.581   0.278
60453W        W32179  13.872  19.325  14.047
60454W        W32180  23.828  22.610  12.019
60455W        W32181   0.028  25.951  10.945
60456W        W32182   0.355  42.456  14.292
60457W        W32183  36.006   9.137   0.780
60458W        W32184  18.696   8.832  11.250
60459W        W32185  23.294  13.693  12.324
60460W        W32186  40.387   4.885  10.112
60461W        W32187  25.764  37.526  14.805
60462W        W32188   8.954  16.594   3.829
60463W        W32189   4.938  32.336   4.130
60464W        W32190   3.755  22.469  14.465
60465W        W32191  25.447  15.207   0.366
60466W        W32192   4.457   1.908   3.182
60467W        W32193  38.249  28.986   3.607
60468W        W32194   4.252  43.334   1.475
60469W        W32195   7.307  38.365   2.227
60470W        W32196  28.957  28.051   1.765
60471W        W32197  10.230  17.794  12.718
60472W        W32198  42.366  44.924   4.330
60473W        W32199  20.251  33.422  11.537
60474W        W32200  43.970  43.036  13.018
60475W        W32201  37.140  22.728   0.337
60476W        W32202  15.727   1.936  11.472
60477W        W32203   2.636  16.959   0.457
60478W        W32204   6.243   1.485   3.201
60479W        W32205  36.362  10.328  11.656
60480W        W32206  42.831   2.844   1.936
60481W        W32207  10.130  12.673   0.373
60482W        W32208   7.613   3.861  12.524
60483W        W32209  25.624  34.616  10.497
60484W        W32210  12.834  36.032   4.932
60485W        W32211  20.593  32.114   2.371
60486W        W32212  14.039  19.196  11.552
60487W        W32213  16.765  27.647  11.394
60488W        W32214  22.126  29.984  12.167
60489W        W32215  40.468  17.476  12.450
60490W        W32216   5.546  30.164  11.126
60491W        W32217  11.800  26.576   4.654
60492W        W32218  32.991  19.288   3.782
60493W        W32219  29.997  42.861   0.988
60494W        W32220  10.772  16.258   1.919
60495W        W32221  24.113   2.811   4.696
60496W        W32222  22.999  39.738  13.150
60497W        W32223  19.598   4.208   4.466
60498W        W32224  42.426  39.359  12.310
60499W        W32225  39.981  36.484   0.088
60500W        W32226  13.117   0.882   2.908
60501W        W32227  40.864  26.087  14.299
60502W        W32228   1.904  19.375  13.566
60503W        W32229  29.148  34.549   0.714
60504W        W32230  43.277  11.453  13.483
60505W        W32231  23.609  35.953  13.329
60506W        W32232  24.127  14.985   3.738
60507W        W32233  28.021  28.900   4.690
60508W        W32234  40.315   6.353  14.484
60509W        W32235  12.829  38.591  12.023
60510W        W32236   3.661  31.366   2.757
60511W        W32237  33.325  28.009  14.679
60512W        W32238  26.089  33.234   2.150
60513W        W32239  12.767  23.531  12.523
60514W        W32240  25.175  31.848  11.110
60515W        W32241   5.968   0.218  14.901
60516W        W32242   7.277  43.530  11.578
60517W        W32243  33.132  18.753  11.622
60518W        W32244   3.043   7.563  14.326
60519W        W32245  32.473  38.340  11.517
60520W        W32246  10.628  39.103  11.396
60521W        W32247  37.025  11.562   0.340
60522W        W32248  19.016  15.672   2.660
60523W        W32249  29.495  13.656   1.283
60524W        W32250   4.675  29.147  11.615
60525W        W32251  10.786  38.915  11.847
60526W        W32252   6.369  17.618  13.588
60527W        W32253  13.413   5.916   2.782
60528W        W32254   2.489  34.342   3.748
60529W        W32255  26.550  37.355  13.274
60530W        W32256  21.472  22.079   0.954
60531W        W32257   8.411  30.505  13.854
60532W        W32258  16.725  12.826   4.783
60533W        W32259  21.310  26.309  13.073
60534W        W32260  39.404  30.924   0.275
60535W        W32261  26.582   8.392  12.363
60536W        W32262  27.938   8.331  10.475
60537W        W32263  29.231  41.919  14.917
60538W        W32264  20.879  32.552   2.471
60539W        W32265  44.601  25.189  14.441
60540W        W32266   6.996   6.325  12.036
60541W        W32267  29.775   9.867  12.468
60542W        W32268   0.234   7.285   3.436
60543W        W32269  26.032  30.334  11.105
60544W        W32270  24.538  21.811  11.314
60545W        W32271  42.575  21.808  13.041
60546W        W32272   9.537  37.533   4.611
60547W        W32273  26.148  24.263  11.433
60548W        W32274  32.361  12.752   2.275
60549W        W32275  21.617   3.951  10.547
60550W        W32276  13.702  27.667   0.903
60551W        W32277   4.086   3.593   2.776
60552W        W32278  35.992  43.527  13.980
60553W        W32279  38.472  43.839   2.506
60554W        W32280  36.865  29.148   0.360
60555W        W32281  18.537  26.400   3.257
60556W        W32282   9.189  41.856   5.049
60557W        W32283   7.337  39.007   1.020
60558W        W32284   5.938  15.151  12.599
60559W        W32285  44.797  27.386   4.093
60560W        W32286  32.095   0.348   3.632
60561W        W32287  41.923  42.521  11.514
60562W        W32288  13.160  44.080   0.889
60563W        W32289  25.734  12.210   2.259
60564W        W32290   1.946  19.985  10.739
60565W        W32291  19.662  44.494  12.533
60566W        W32292  16.701  40.805   3.053
60567W        W32293  30.433  44.337  11.451
60568W        W32294  36.985  19.534  11.471
60569W        W32295  29.073  39.486  10.632
60570W        W32296  19.521  40.481   3.165
60571W        W32297  41.912  13.949   2.215
60572W        W32298  23.569  12.367  13.103
60573W        W32299  43.548  20.478   3.153
60574W        W32300  28.034  12.349   2.102
60575W        W32301  18.051  22.247  11.510
60576W        W32302  17.682  30.612   0.002
60577W        W32303  15.697  31.106  12.443
60578W        W32304  29.227  25.662   1.430
60579W        W32305  19.761  42.108  12.840
60580W        W32306  44.946  40.455  11.906
60581W        W32307  35.032  18.582   0.205
60582W        W32308  35.445   2.471  11.965
60583W        W32309  20.583  13.254   4.539
60584W        W32310   2.450  42.854  11.841
60585W        W32311   8.708  14.227   2.295
60586W        W32312  40.968  16.813   2.203
60587W        W32313  22.273  14.694   2.682
60588W        W32314   1.983  26.007   0.865
60589W        W32315  38.462  12.086   4.642
60590W        W32316  38.463  36.805   2.417
60591W        W32317  13.833  30.929  14.115
60592W        W32318  23.446   4.334  11.920
60593W        W32319  33.201   8.784   0.416
60594W        W32320  17.610  17.266  13.916
60595W        W32321  43.284  12.164  12.093
60596W        W32322   7.432  16.603  14.171
60597W        W32323  29.746  22.536  10.834
60598W        W32324  32.014  23.074   1.736
60599W        W32325  40.246   9.414   0.975
60600W        W32326  38.080  34.070   4.622
60601W        W32327  25.461  15.332   3.319
60602W        W32328   7.738   3.787   3.886
60603W        W32329  23.656  44.248  14.404
60604W        W32330   4.343  40.506   2.369
60605W        W32331   8.245  22.316  10.529
60606W        W32332  38.685  18.108  13.475
60607W        W32333  23.578  24.198  11.947
60608W        W32334   4.788  26.731   0.914
60609W        W32335  35.096  39.723  12.091
60610W        W32336   2.685  31.500  14.441
60611W        W32337  33.572  22.989  14.263
60612W        W32338  16.635  10.338   4.659
60613W        W32339  38.419  14.640  13.116
60614W        W32340  30.884   3.252   2.902
60615W        W32341  27.193   0.987  13.707
60616W        W32342  10.753  26.242   4.934
60617W        W32343  33.584  15.308  14.976
60618W        W32344  31.818  42.507  10.915
60619W        W32345   8.663   4.746  12.821
60620W        W32346  16.323  18.766   0.818
60621W        W32347  30.316  15.782   4.805
60622W        W32348   1.803  20.770  11.224
60623W        W32349   2.755   3.925   1.346
60624W        W32350  26.206  27.196   1.643
60625W        W32351  41.925  17.575   1.543
60626W        W32352  28.964  16.181   0.211
60627W        W32353  26.831  32.443  12.922
60628W        W32354  38.341  15.796  13.387
60629W        W32355  34.478  43.510  12.480
60630W        W32356  32.462   6.287  12.541
60631W        W32357  36.330  23.551   4.827
60632W        W32358   8.341  11.283  13.051
60633W        W32359   3.867  40.427  13.571
60634W        W32360  22.183  17.952   0.748
60635W        W32361   2.254  11.121  10.761
60636W        W32362  19.361  34.552  10.577
60637W        W32363  41.068  20.203   0.809
60638W        W32364  33.166  18.754   0.085
60639W        W32365  41.029   4.959   1.174
60640W        W32366   4.912   7.687   1.381
60641W        W32367   7.765   6.237  12.445
60642W        W32368  36.563  37.023  13.871
60643W        W32369   5.212   1.454   3.178
60644W        W32370  44.074  22.072   1.370
60645W        W32371  29.178  32.478  13.255
60646W        W32372  41.661  14.383   1.386
60647W        W32373  37.030  29.056   2.669
60648W        W32374  23.580  29.656  10.974
60649W        W32375  28.190  32.808  11.482
60650W        W32376  18.740  15.771   1.372
60651W        W32377  32.674  12.082  12.647
60652W        W32378  33.452   5.961   2.198
60653W        W32379  15.588  43.211   0.290
60654W        W32380  37.148  22.129   0.934
60655W        W32381  31.944  36.105   0.429
60656W        W32382  31.889   9.904   3.317
60657W        W32383  31.095  13.217   0.651
60658W        W32384  10.267  28.006  10.760
60659W        W32385   3.425  34.095   4.702
60660W        W32386  10.137  22.135   1.367
60661W        W32387  40.554  22.273   0.338
60662W        W32388  25.890  11.157  10.751
60663W        W32389  39.581  39.353   2.776
60664W        W32390  12.412   1.266  12.167
60665W        W32391  38.909  12.873  11.180
60666W        W32392  13.123  25.426  12.924
60667W        W32393  19.042  34.797  13.006
60668W        W32394  10.174  42.722  12.849
60669W        W32395   2.964   4.162  13.764
60670W        W32396  33.824   5.576  14.975
60671W        W32397  19.040  36.595   2.377
60672W        W32398  33.477  35.386   0.377
60673W        W32399   4.676  16.608  13.878
60674W        W32400  11.385  27.291   0.832
60675W        W32401  17.756   1.076  14.057
60676W        W32402  38.923  38.603   3.273
60677W        W32403  27.528  25.107  14.773
60678W        W32404  10.226  26.915  12.532
60679W        W32405  25.513   9.926  11.227
60680W        W32406  28.584  21.190  14.329
60681W        W32407  36.360  21.759   1.163
60682W        W32408  30.216  43.885  11.525
60683W        W32409  42.757  39.942  11.572
60684W        W32410   5.734  43.623  13.533
60685W        W32411  36.327   2.793   1.421
60686W        W32412  29.378  36.946  13.770
60687W        W32413  26.301   1.347   2.172
60688W        W32414   2.882   7.068  11.011
60689W        W32415   8.102  15.210   1.783
60690W        W32416  12.892  40.327   0.843
60691W        W32417  32.845   0.954   3.709
60692W        W32418  14.271  21.943  12.130
60693W        W32419   0.804  19.248  13.815
60694W        W32420  12.914  31.588  14.474
60695W        W32421  18.037  22.354  13.839
60696W        W32422   9.085  10.650   0.342
60697W        W32423  17.765   4.746  10.722
60698W        W32424  28.521  14.240   1.862
60699W        W32425   6.623  17.035   4.552
60700W        W32426  27.091   0.927   0.855
60701W        W32427   3.482  43.384   4.007
60702W        W32428  22.711  40.362   4.675
60703W        W32429  37.808  12.149  11.322
60704W        W32430  42.235  11.101  11.534
60705W        W32431   9.504  36.756   9.744
60706W        W32432  25.710  15.897  13.240
60707W        W32433   3.647  22.740   1.851
60708W        W32434   9.723  43.321   0.839
60709W        W32435  31.326   5.944  10.934
60710W        W32436  27.025   4.917  11.994
60711W        W32437  24.895  17.757  11.609
60712W        W32438   1.895  38.565  13.616
60713W        W32439  15.689  32.548  12.855
60714W        W32440  32.090  24.644   2.754
60715W        W32441  34.511  33.960   1.255
60716W        W32442  18.128  12.887  11.646
60717W        W32443  15.153  37.774   4.585
60718W        W32444   5.584   1.871   0.900
60719W        W32445  21.589  15.973  13.473
60720W        W32446  10.861  10.142  11.604
60721W        W32447  23.373  11.883   4.598
60722W        W32448  29.372  33.697   3.895
60723W        W32449   9.354  40.936   1.645
60724W        W32450   4.396  18.681   2.649
60725W        W32451  37.088  27.716  13.019
60726W        W32452  35.034  19.850  14.077
60727W        W32453  38.005  39.514  11.928
60728W        W32454   9.502   0.433   2.760
60729W        W32455  27.002   3.787   2.850
60730W        W32456  38.347  20.098  12.312
60731W        W32457   0.802  37.387  14.468
60732W        W32458  39.916  14.853   3.642
60733W        W32459  19.659   4.275  13.477
60734W        W32460  41.965  41.482   3.557
60735W        W32461  34.061  33.135  13.857
60736W        W32462  27.390  43.729   4.102
60737W        W32463  19.083   0.252   0.846
60738W        W32464  44.961   8.695  13.967
60739W        W32465  29.774  26.728   2.634
60740W        W32466  28.552  17.056  11.126
60741W        W32467  20.292   5.294   1.964
60742W        W32468  42.334  11.345   1.430
60743W        W32469   7.772   7.124   4.590
60744W        W32470  10.639  36.348   1.363
60745W        W32471  38.810  19.644   3.554
60746W        W32472  20.211   3.735  12.485
60747W        W32473  25.167  23.667  11.496
60748W        W32474  24.955  11.947  10.695
60749W        W32475  39.901   7.139  13.422
60750W        W32476  17.616   5.669  14.055
60751W        W32477   9.594  14.287  14.947
60752W        W32478  44.812   5.080   1.815
60753W        W32479  22.154  26.579   0.884
60754W        W32480   9.887  20.097   1.277
60755W        W32481  31.651  31.943  11.593
60756W        W32482  21.016  38.914  11.064
60757W        W32483   9.696   9.192   3.305
60758W        W32484  35.522  22.304  13.048
60759W        W32485  24.552  26.096  12.710
60760W        W32486  20.137  29.394   2.848
60761W        W32487   2.480  21.172   2.704
60762W        W32488  40.576  10.285  11.591
60763W        W32489  38.783  19.656   2.521
60764W        W32490  35.121  15.500   1.221
60765W        W32491  40.660  14.204   1.351
60766W        W32492  40.423  35.875  14.736
60767W        W32493   4.498  10.883  12.643
60768W        W32494  22.683  10.570   4.146
60769W        W32495  40.361  40.308   0.963
60770W        W32496  26.762   2.244  12.057
60771W        W32497  14.352  22.985   3.139
60772W        W32498  13.181  25.489   0.044
60773W        W32499   7.130  25.588  12.019
60774W        W32500  11.838  10.826  12.439
60775W        W32501  16.554  34.784  12.267
60776W        W32502  25.706   8.940   5.047
60777W        W32503   8.791  28.591  10.444
60778W        W32504  17.982  38.820  10.597
60779W        W32505  35.522  33.642  14.395
60780W        W32506  39.323  32.371  12.206
60781W        W32507  31.229  44.609   5.550
60782W        W32508   6.120   6.307  13.595
60783W        W32509   6.247  11.404   2.464
60784W        W32510  34.534   5.397   0.484
60785W        W32511   2.455  12.774   2.782
60786W        W32512   9.670  29.911  10.878
60787W        W32513  20.215  14.616   0.894
60788W        W32514  24.742   5.330  10.713
60789W        W32515  40.415  30.441   0.422
60790W        W32516  43.101  27.670   2.301
60791W        W32517  42.087  10.437   1.885
60792W        W32518  25.538  39.504   1.749
60793W        W32519  39.051   6.352   1.776
60794W        W32520  36.032   2.905   4.611
60795W        W32521  33.934  29.892  12.547
60796W        W32522  15.116   6.575  13.961
60797W        W32523   9.728  44.315  13.725
60798W        W32524  26.628   0.203   2.204
60799W        W32525  42.526  19.114   3.432
60800W        W32526  43.773  24.009  12.541
60801W        W32527  34.478  12.834  13.996
60802W        W32528  37.310  38.933   3.217
60803W        W32529   0.104   7.384   1.809
60804W        W32530   2.915  21.686  12.982
60805W        W32531  16.300  38.311  12.473
60806W        W32532  34.542  33.584  14.353
60807W        W32533   5.919   2.514  13.442
60808W        W32534   2.426  38.056   4.612
60809W        W32535  29.876  10.073  12.026
60810W        W32536  42.987  30.909  14.513
60811W        W32537   3.884  41.216  14.761
60812W        W32538   4.366  22.648  13.714
60813W        W32539  13.784   7.877   0.441
60814W        W32540   1.494  16.360   4.784
60815W        W32541  12.940   7.653  10.822
60816W        W32542  34.517  37.637  11.885
60817W        W32543  26.790   1.692  14.308
60818W        W32544  42.982  42.199  12.483
60819W        W32545  21.948   8.231   3.272
60820W        W32546  27.925  13.689  14.750
60821W        W32547  18.729  10.669   0.846
60822W        W32548  30.142  15.721   1.466
60823W        W32549  12.426  30.746  12.005
60824W        W32550  40.601  41.462   3.659
60825W        W32551  37.226  10.828   2.339
60826W        W32552  36.499  19.248  10.675
60827W        W32553  14.228  22.755  10.418
60828W        W32554  36.638   8.180  11.362
60829W        W32555   5.242  23.047   3.248
60830W        W32556   5.680  27.687  13.820
60831W        W32557  14.730   0.995   1.716
60832W        W32558  29.930   7.353   3.721
60833W        W32559  14.667  18.370  11.490
60834W        W32560  13.661  42.562  11.590
60835W        W32561  16.116  40.865  13.403
60836W        W32562  29.020  31.907   2.851
60837W        W32563   4.211  15.207   3.829
60838W        W32564  39.723  19.286   2.928
60839W        W32565  27.694  19.253   4.653
60840W        W32566  36.361   1.458  12.046
60841W        W32567  25.054  14.438  14.927
60842W        W32568  21.644  34.900   4.632
60843W        W32569  37.539  44.875  12.314
60844W        W32570  27.771  33.080  10.083
60845W        W32571   0.490  39.453   1.842
60846W        W32572  28.518  38.365   4.521
60847W        W32573   9.822  19.273  12.648
60848W        W32574  28.517   4.919   0.278
60849W        W32575  24.934  34.144  14.511
60850W        W32576  19.648  34.379   4.629
60851W        W32577  34.463  40.432  11.376
60852W        W32578  33.874  18.045  14.047
60853W        W32579   7.907   2.018   0.787
60854W        W32580  35.579  27.421   0.020
60855W        W32581  36.540  26.897  13.936
60856W        W32582  21.458   3.766   0.231
60857W        W32583  41.021  15.172   3.291
60858W        W32584  39.041   5.370   0.028
60859W        W32585  14.704  17.140   3.912
60860W        W32586   4.284  27.491   4.560
60861W        W32587  15.257   7.208   4.867
60862W        W32588  24.019  13.774  13.899
60863W        W32589  11.827  34.216   2.671
60864W        W32590  33.360   4.220   1.351
60865W        W32591  10.902   4.934   1.936
60866W        W32592  20.078  20.033   2.840
60867W        W32593   0.834  29.995  11.563
60868W        W32594   4.415  23.217  14.506
60869W        W32595   9.339   7.792  10.580
60870W        W32596   8.727  29.094  13.847
60871W        W32597  18.302  26.930  12.106
60872W        W32598  29.975  41.798   1.489
60873W        W32599  25.768  39.140   2.638
60874W        W32600  33.673   5.442  13.384
60875W        W32601  15.485  18.253   3.263
60876W        W32602   9.461  22.979  13.565
60877W        W32603  28.542  26.626   3.120
60878W        W32604  38.914  43.967   4.432
60879W        W32605  17.135   3.666  14.777
60880W        W32606  24.951  19.068   1.819
60881W        W32607   7.392  36.333   4.076
60882W        W32608  18.246   7.294  13.289
60883W        W32609   3.428  38.481  12.526
60884W        W32610  14.222  33.833   4.276
60885W        W32611  15.739  13.303   1.809
60886W        W32612  36.593  34.456   2.175
60887W        W32613  11.802   8.852  13.016
60888W        W32614  39.750  34.483   3.560
60889W        W32615  32.962  14.078   2.767
60890W        W32616  11.809  36.993   3.369
60891W        W32617  40.849  35.227   2.234
60892W        W32618  28.659   3.817   1.896
60893W        W32619   4.641  12.101   4.157
60894W        W32620  32.084  34.323   2.289
60895W        W32621   9.692  42.855  13.953
60896W        W32622  25.705   6.860  14.471
60897W        W32623  33.088   8.226  10.425
60898W        W32624   9.839  29.070   4.610
60899W        W32625  21.059  29.002   1.242
60900W        W32626  31.996  27.708  12.460
60901W        W32627  31.548  21.486  14.380
60902W        W32628  37.257  14.092   1.443
60903W        W32629  24.998  11.451  10.545
60904W        W32630  17.442   4.316   2.219
60905W        W32631   9.983  20.328   3.752
60906W        W32632  11.544  16.082  14.533
60907W        W32633  43.868  10.139  12.512
60908W        W32634  38.202  33.346  10.637
60909W        W32635  13.308  26.910  12.448
60910W        W32636  20.570   7.884   2.199
60911W        W32637   0.922   4.340  12.372
60912W        W32638   9.335  27.216   4.618
60913W        W32639  23.296  26.201   3.619
60914W        W32640  35.148  32.650   1.237
60915W        W32641  34.447  39.915   1.865
60916W        W32642  44.973  21.548  11.511
60917W        W32643  13.777  22.687   1.345
60918W        W32644  23.967   9.843  10.624
60919W        W32645  43.279  29.963   2.332
60920W        W32646  32.078  43.735  10.232
60921W        W32647  10.947  42.854  11.479
60922W        W32648  36.536  11.362   1.189
60923W        W32649  22.305  40.526  14.161
60924W        W32650  42.495   2.383   1.424
60925W        W32651  25.766  34.799   0.267
60926W        W32652   5.738  22.281   0.316
60927W        W32653  26.159  10.101  14.372
60928W        W32654   9.145   8.120  11.001
60929W        W32655  13.158  43.149  11.740
60930W        W32656   6.847   7.185  11.478
60931W        W32657  34.653  20.611   0.073
60932W        W32658   4.776  16.684   2.319
60933W        W32659  11.865   0.069  10.374
60934W        W32660  36.500   0.971  13.313
60935W        W32661  20.029  17.683   0.862
60936W        W32662  33.533  22.500  14.087
60937W        W32663  23.307  24.619   2.034
60938W        W32664  31.322  44.787   1.193
60939W        W32665  29.463  27.616   4.574
60940W        W32666  18.297   7.965   2.489
60941W        W32667  34.338  28.154  12.437
60942W        W32668  31.634  13.240  12.582
60943W        W32669  21.047  40.396  14.590
60944W        W32670  40.765   5.708  12.935
60945W        W32671   6.348   2.274  12.665
60946W        W32672   6.877  43.721   2.222
60947W        W32673   1.790   5.186  11.416
60948W        W32674  42.311  26.921   4.662
60949W        W32675  19.664  24.135   4.216
60950W        W32676  36.800  28.177   2.359
60951W        W32677  33.977  25.516  13.388
60952W        W32678  11.909  35.573   1.398
60953W        W32679  43.694   2.716   0.850
60954W        W32680  42.291  31.877   3.775
60955W        W32681   3.814   4.041  12.283
60956W        W32682  39.261  33.468  13.475
60957W        W32683  12.664  41.252   1.916
60958W        W32684  43.836  44.921  12.993
60959W        W32685  16.334  23.057   4.543
60960W        W32686  33.165  12.648   4.272
60961W        W32687  34.963  31.462  10.711
60962W        W32688  20.188  32.961  11.710
60963W        W32689  26.124  40.210   4.861
60964W        W32690   1.845  41.494   3.184
60965W        W32691  19.715   9.722   3.465
60966W        W32692  41.790  34.521  12.579
60967W        W32693  30.482  15.277   1.267
60968W        W32694  36.841  15.689   4.176
60969W        W32695  40.414  29.416  14.423
60970W        W32696  31.259   1.905  11.206
60971W        W32697   3.766  16.680  12.529
60972W        W32698  31.672  36.109  10.682
60973W        W32699   5.266  20.499  12.950
60974W        W32700  37.853  20.567   1.852
60975W        W32701   7.640  42.842   2.727
60976W        W32702   8.848  40.828  10.634
60977W        W32703  19.074  29.292  10.644
60978W        W32704  21.702  43.068   2.272
60979W        W32705  17.250  25.882  12.011
60980W        W32706  35.958  24.522  11.426
60981W        W32707  42.984  38.299   0.357
60982W        W32708   5.827  44.775   1.881
60983W        W32709  30.850  23.570  11.053
60984W        W32710   2.562   7.288  12.173
60985W        W32711   3.629  32.205  12.925
60986W        W32712  35.497  17.740   2.324
60987W        W32713  17.741   2.812  12.878
60988W        W32714  10.885  24.695  12.305
60989W        W32715  32.582  25.071   0.351
60990W        W32716  24.992   9.879   0.473
60991W        W32717  10.013  44.698  12.101
60992W        W32718  20.552  24.072  13.606
60993W        W32719  35.309  38.973   0.997
60994W        W32720  22.752  29.864  13.979
60995W        W32721  31.539   8.942   4.350
60996W        W32722  25.774   2.268   1.796
60997W        W32723  41.335  26.198   1.413
60998W        W32724   7.215  38.905   4.631
60999W        W32725  23.621  35.368  14.464
61000W        W32726  39.811  24.701   0.737
61001W        W32727  27.015  42.275   0.917
61002W        W32728  28.432  28.976   3.421
61003W        W32729  20.774  43.731   1.024
61004W        W32730  25.625   5.545  14.820
61005W        W32731  19.342  23.292   0.432
61006W        W32732  40.354  20.510   3.772
61007W        W32733   6.692  19.605  10.553
61008W        W32734   7.106  38.277  12.712
61009W        W32735  41.282  37.374   5.019
61010W        W32736  39.759   0.678   2.153
61011W        W32737  39.353  42.906   2.018
61012W        W32738  14.814   3.888  10.515
61013W        W32739  38.382  18.709   2.700
61014W        W32740  29.895   8.756  11.329
61015W        W32741  17.717   2.273  12.519
61016W        W32742  13.236  43.518  11.393
61017W        W32743  20.733   0.621   1.813
61018W        W32744  30.569  42.467  11.493
61019W        W32745   2.991   8.341  11.559
61020W        W32746  14.904  17.722  11.325
61021W        W32747  26.192  19.734   4.584
61022W        W32748  12.243   9.361   4.565
61023W        W32749  44.845  31.609  14.822
61024W        W32750   7.919  12.868   2.453
61025W        W32751  10.925  10.805  10.892
61026W        W32752  27.013   9.710  10.710
61027W        W32753   1.767   3.383   0.940
61028W        W32754  33.038  41.626  11.052
61029W        W32755  33.383  39.474   1.042
61030W        W32756  10.129   3.863   3.742
61031W        W32757  22.509  42.359   4.633
61032W        W32758   1.686  37.441   3.764
61033W        W32759  30.424  31.066   4.172
61034W        W32760  23.427  25.082   5.560
61035W        W32761   0.038  37.372   2.833
61036W        W32762   5.347  17.731   3.400
61037W        W32763  17.531  37.905  14.114
61038W        W32764  21.440  40.991  11.991
61039W        W32765  39.292  20.553  10.655
61040W        W32766   1.503  20.848   4.148
61041W        W32767  17.672  19.849  12.345
61042W        W32768   6.656  44.827   3.857
61043W        W32769   1.768  35.945   0.987
61044W        W32770  17.904   8.876   2.751
61045W        W32771  21.100   8.669  12.005
61046W        W32772  31.344  37.454   2.446
61047W        W32773  36.723  40.499   3.622
61048W        W32774  31.853   0.862  14.134
61049W        W32775  33.768   0.892  10.192
61050W        W32776  11.099  27.018  11.119
61051W        W32777  43.648  16.780   0.699
61052W        W32778  11.666   4.109  11.730
61053W        W32779   9.355  38.876  10.664
61054W        W32780  29.089  13.108   0.233
61055W        W32781  41.106  34.183   2.386
61056W        W32782  22.156  30.980   4.228
61057W        W32783  39.203  38.683  11.969
61058W        W32784  16.729   2.540  13.629
61059W        W32785   1.487  32.166  11.118
61060W        W32786  17.235  42.871  11.056
61061W        W32787   6.860  25.589  11.556
61062W        W32788  12.331  34.496  14.928
61063W        W32789  20.195  44.719  10.992
61064W        W32790  40.505   4.954  12.510
61065W        W32791  38.739   1.178  11.205
61066W        W32792  30.655  42.235   3.699
61067W        W32793  12.672  38.360  10.712
61068W        W32794   9.786  15.725  14.979
61069W        W32795  10.112  38.768  13.937
61070W        W32796   1.009  40.230   5.084
61071W        W32797   1.363  28.920   2.849
61072W        W32798  10.278  10.283  10.793
61073W        W32799   5.584  29.207   0.704
61074W        W32800   3.874  43.791  13.721
61075W        W32801   1.961  41.089   2.872
61076W        W32802  29.220  22.619  10.650
61077W        W32803   5.329   9.161   1.596
61078W        W32804   8.230   7.176   2.843
61079W        W32805  31.537  37.989  13.928
61080W        W32806  27.067  18.751  14.486
61081W        W32807   4.686  31.988  14.749
61082W        W32808  31.090   6.710   3.584
61083W        W32809  43.950   7.605   1.387
61084W        W32810  26.653  28.553   1.692
61085W        W32811  12.810  34.545  14.504
61086W        W32812  28.428   5.778   1.825
61087W        W32813  24.725  32.854   2.338
61088W        W32814  38.083  20.993   3.717
61089W        W32815  24.735   3.866   0.458
61090W        W32816  37.993  22.065   0.436
61091W        W32817  26.067  15.471   3.648
61092W        W32818   1.873   0.052  10.545
61093W        W32819  32.673  34.566   4.117
61094W        W32820  19.679  37.929   1.742
61095W        W32821   0.411   4.900   0.206
61096W        W32822  31.135  28.701   2.770
61097W        W32823  19.175  27.360  13.457
61098W        W32824  15.565  18.064   3.763
61099W        W32825  15.714  42.736  10.021
61100W        W32826  44.477  44.031   2.719
61101W        W32827   1.040   6.916  13.809
61102W        W32828  15.159  41.633  11.563
61103W        W32829   6.497  17.693   2.188
61104W        W32830  11.067  25.150   1.071
61105W        W32831   0.421   4.699   2.576
61106W        W32832  13.337  10.204   4.979
61107W        W32833  29.664  25.972   4.250
61108W        W32834  33.361   9.433  12.797
61109W        W32835  26.707   0.956  13.531
61110W        W32836  33.210  36.528   2.712
61111W        W32837  22.183   6.814  11.337
61112W        W32838   8.681  14.577  14.942
61113W        W32839  21.976  37.585  12.918
61114W        W32840  16.820  16.504  12.908
61115W        W32841  43.324  42.721  11.904
61116W        W32842   6.306   7.947  12.455
61117W        W32843  41.482  39.622   1.838
61118W        W32844  35.109   3.689  13.088
61119W        W32845  38.244  10.703   2.229
61120W        W32846  32.664   0.246   0.980
61121W        W32847  44.330  38.624  13.418
61122W        W32848  24.025  29.795   2.756
61123W        W32849  28.435   6.784   2.823
61124W        W32850  11.228  12.079  11.216
61125W        W32851  34.701  15.119  13.915
61126W        W32852  30.440  41.769   2.231
61127W        W32853  31.462  26.917  14.034
61128W        W32854  36.914   0.293   2.469
61129W        W32855  15.995  34.841  10.200
61130W        W32856  19.333  32.475  13.429
61131W        W32857   1.971  14.227  14.529
61132W        W32858  26.917   3.586  13.794
61133W        W32859  30.805  32.881   2.795
61134W        W32860   8.128  37.453   3.316
61135W        W32861  23.448   5.866   3.329
61136W        W32862  14.723  38.913  10.656
61137W        W32863  24.019  12.319   0.761
61138W        W32864  39.332  43.206  10.717
61139W        W32865  40.033  14.034  12.347
61140W        W32866  31.417  42.516  12.069
61141W        W32867  19.522  12.723   1.941
61142W        W32868  28.130  23.505   1.918
61143W        W32869  27.967   8.984  12.949
61144W        W32870  29.987  43.999  10.568
61145W        W32871  40.016  42.004   1.467
61146W        W32872   4.873  40.056  13.507
61147W        W32873  41.271  17.362   0.079
61148W        W32874  29.246   2.834  14.433
61149W        W32875  36.445  38.086   1.448
61150W        W32876   1.837  22.711   2.786
61151W        W32877  23.540  13.583  10.944
61152W        W32878  39.493  32.867   4.689
61153W        W32879  23.992  30.368   1.835
61154W        W32880  38.296  14.288   0.492
61155W        W32881  43.342  22.669   4.426
61156W        W32882   2.354  42.589   0.359
61157W        W32883  11.992  25.844   4.879
61158W        W32884  40.062   6.802  14.397
61159W        W32885  16.377  16.163  10.624
61160W        W32886  16.410  35.007   0.956
61161W        W32887  37.557  33.550   3.287
61162W        W32888  20.977  13.163   4.206
61163W        W32889  28.852  10.622   1.275
61164W        W32890  24.690  18.022   0.866
61165W        W32891  29.671  18.265  14.301
61166W        W32892   1.482  40.397   4.927
61167W        W32893  35.064  22.271  13.376
61168W        W32894  28.407  39.500   4.749
61169W        W32895   2.255  27.296   2.209
61170W        W32896  27.672  26.529   1.436
61171W        W32897   4.390  19.141  10.674
61172W        W32898  34.640  21.403   1.368
61173W        W32899   3.406   5.889  10.662
61174W        W32900   1.811  38.106  11.172
61175W        W32901  35.409   1.468   2.433
61176W        W32902  31.860  40.852   5.297
61177W        W32903  30.329   1.191   0.023
61178W        W32904   0.314  20.021   1.231
61179W        W32905   8.962  20.063  11.633
61180W        W32906   1.753  42.029   3.514
61181W        W32907   8.981  10.218   1.215
61182W        W32908  30.699  41.763  11.025
61183W        W32909   9.966  37.125  10.597
61184W        W32910  13.420  27.619  11.980
61185W        W32911  16.516   8.090   0.935
61186W        W32912  12.231  28.067  11.649
61187W        W32913  15.965  17.253  14.882
61188W        W32914  20.171  37.543   4.093
61189W        W32915  43.172  15.920  14.784
61190W        W32916  27.268  24.600   0.317
61191W        W32917   9.702  11.208   1.426
61192W        W32918  40.737  25.638  12.596
61193W        W32919  31.950  39.915   4.338
61194W        W32920   0.200  18.002   1.748
61195W        W32921  44.192  28.682  10.262
61196W        W32922  15.816  35.993  14.046
61197W        W32923  15.524  11.926  14.851
61198W        W32924  34.761   2.183   3.442
61199W        W32925  10.287   7.081  14.472
61200W        W32926  17.067  27.129  10.742
61201W        W32927  35.440  27.991  10.585
61202W        W32928  31.905   3.929   0.244
61203W        W32929  16.986  36.937  11.470
61204W        W32930  42.333  20.685   4.669
61205W        W32931  27.945  11.907   0.348
61206W        W32932  18.915  32.576   0.511
61207W        W32933  21.186  43.745   2.192
61208W        W32934  22.444  15.312  11.702
61209W        W32935  18.356  27.158  12.960
61210W        W32936  20.995  29.583  12.509
61211W        W32937  18.647  15.580   4.105
61212W        W32938  10.660  12.686   1.632
61213W        W32939  10.612  39.974  12.016
61214W        W32940  17.359  40.455   2.537
61215W        W32941   4.840  42.857   2.340
61216W        W32942  21.594  34.361   4.845
61217W        W32943   1.513  35.026  12.061
61218W        W32944  19.202  40.561   3.714
61219W        W32945   7.669  33.828   1.731
61220W        W32946  39.459  43.298   3.946
61221W        W32947  25.398  21.681  11.589
61222W        W32948  25.370  18.704   4.723
61223W        W32949  33.968  18.187  13.573
61224W        W32950  42.967  20.522  13.894
61225W        W32951  41.935   0.052   1.429
61226W        W32952  42.342  22.417   4.267
61227W        W32953   6.759  42.547  13.481
61228W        W32954  44.952   4.837   1.317
61229W        W32955  11.144  27.493   1.977
61230W        W32956  10.769  32.392  14.417
61231W        W32957  23.983  30.598  14.966
61232W        W32958   9.826  32.742  11.554
61233W        W32959  12.247   3.300   3.280
61234W        W32960  33.983  11.320   4.375
61235W        W32961   9.826  26.669   0.805
61236W        W32962  41.527  37.712  14.293
61237W        W32963  38.848   1.280  12.966
61238W        W32964  26.691  43.798   0.494
61239W        W32965  26.087  38.836   0.855
61240W        W32966  32.933  13.618   3.752
61241W        W32967  19.588  20.612   2.562
61242W        W32968  26.504  22.931   3.783
61243W        W32969  11.175  33.098   1.253
61244W        W32970  27.221  33.983   0.887
61245W        W32971   0.188  16.739   2.743
61246W        W32972  44.413  36.769   4.062
61247W        W32973   3.944  25.605   1.769
61248W        W32974  19.946  32.486   3.756
61249W        W32975  14.600   8.125  11.576
61250W        W32976  23.953  11.266   1.075
61251W        W32977  26.684  28.411   3.769
61252W        W32978  40.161   6.513   1.098
61253W        W32979  34.072  11.664   0.732
61254W        W32980  38.981   9.298  13.946
61255W        W32981  15.239  42.012   3.675
61256W        W32982  32.322  20.762  14.243
61257W        W32983  19.577  18.188  11.558
61258W        W32984   2.381   1.391   4.091
61259W        W32985  13.678  17.552  12.491
61260W        W32986  15.303  19.801   3.906
61261W        W32987  17.651  13.179   2.819
61262W        W32988  27.117   3.877  12.899
61263W        W32989  34.849  19.588   0.563
61264W        W32990   2.356  30.646   4.779
61265W        W32991  33.145  10.719  13.316
61266W        W32992  30.380  34.775   0.791
61267W        W32993  31.318   7.845   4.584
61268W        W32994  31.832  26.910  11.381
61269W        W32995  42.171   3.982   4.050
61270W        W32996   5.861  39.651   1.949
61271W        W32997  12.907  24.012   3.804
61272W        W32998  38.991  26.891  13.541
61273W        W32999   1.828  34.017  13.093
61274W        W33000   8.934  24.710   3.349
61275W        W33001  13.594  28.936   1.270
61276W        W33002  41.999   6.336  12.831
61277W        W33003   0.862  24.728   1.210
61278W        W33004  38.037  28.750   0.514
61279W        W33005  13.998  10.300   2.703
61280W        W33006  37.939  30.613   0.296
61281W        W33007  41.899   0.448   1.750
61282W        W33008  14.888   8.832   1.292
61283W        W33009  35.970   5.643  14.449
61284W        W33010   3.319   4.780   4.228
61285W        W33011  19.496  42.986  14.314
61286W        W33012  39.017  29.337   1.896
61287W        W33013  25.286  17.605   1.789
61288W        W33014  20.569  17.291  11.139
61289W        W33015   2.207  29.530  10.669
61290W        W33016  15.266  43.337   4.637
61291W        W33017  27.316  35.102   4.739
61292W        W33018  13.343   6.445  14.927
61293W        W33019  27.861  36.854   1.347
61294W        W33020  34.160  37.567  12.918
61295W        W33021   6.462  44.914   4.373
61296W        W33022   2.651  27.544  14.028
61297W        W33023   9.816  16.700  14.813
61298W        W33024   0.416  36.393   1.875
61299W        W33025   1.974  18.119  11.942
61300W        W33026  40.625  10.644  12.291
61301W        W33027  29.680  20.501  11.667
61302W        W33028  37.356  37.461   3.794
61303W        W33029  21.087  18.485   4.959
61304W        W33030  19.538  15.102   0.377
61305W        W33031   3.333  42.812   1.810
61306W        W33032   5.208  23.104  14.390
61307W        W33033  44.407  13.543   4.828
61308W        W33034   9.132   8.649  10.972
61309W        W33035  33.706  24.779  10.420
61310W        W33036  34.398   2.008  10.637
61311W        W33037   6.782  44.307   4.697
61312W        W33038  17.679   5.561   2.916
61313W        W33039  10.302  15.209   2.150
61314W        W33040   2.292  43.524  13.111
61315W        W33041   6.839  27.063   4.452
61316W        W33042  34.781  44.683   0.451
61317W        W33043  36.116  30.014   4.717
61318W        W33044   6.201  18.578  10.658
61319W        W33045  36.906  23.485   3.069
61320W        W33046  20.944  38.297   0.138
61321W        W33047  15.038  37.461   4.994
61322W        W33048  44.975   0.915   2.676
61323W        W33049  34.654  25.758   3.647
61324W        W33050  41.927  41.382   4.059
61325W        W33051  19.932  16.306   0.031
61326W        W33052  38.597  33.459   1.054
61327W        W33053  39.078   8.211   0.862
61328W        W33054   3.228  29.674   1.642
61329W        W33055  27.080  36.524   1.757
61330W        W33056  42.479   4.315  11.425
61331W        W33057   0.756   5.239  11.536
61332W        W33058  20.023   9.096   3.929
61333W        W33059   2.858  43.565  12.429
61334W        W33060  15.098  15.845   2.709
61335W        W33061  32.338  32.244  14.218
61336W        W33062  44.357  17.191   0.929
61337W        W33063   3.352  12.267  10.477
61338W        W33064  41.336  15.272   2.895
61339W        W33065  25.755  26.361   3.567
61340W        W33066  23.752   1.586   1.908
61341W        W33067   9.195  32.179   4.219
61342W        W33068  37.649  29.874   3.243
61343W        W33069  21.412  29.986   4.118
61344W        W33070  18.091  21.532  11.122
61345W        W33071  13.190  22.462  11.604
61346W        W33072  37.738  28.381   4.825
61347W        W33073  16.658  22.056   0.944
61348W        W33074  21.120  21.085   4.520
61349W        W33075  16.611   1.420  12.925
61350W        W33076  17.611  25.533   2.735
61351W        W33077  21.358  26.250   4.621
61352W        W33078  34.830   2.444  13.862
61353W        W33079   4.027  41.650  13.114
61354W        W33080  32.498   8.504   2.716
61355W        W33081  32.399  37.603  13.611
61356W        W33082   5.128  13.102  12.123
61357W        W33083  27.433  25.078  12.924
61358W        W33084  19.247  30.892   2.294
61359W        W33085  13.626  13.202   2.682
61360W        W33086  15.196   7.529   1.391
61361W        W33087  32.304  28.147   1.015
61362W        W33088  17.104  20.616   3.583
61363W        W33089  39.118  19.214   3.010
61364W        W33090  22.785  22.215   0.880
61365W        W33091  41.869  27.045   3.388
61366W        W33092  10.886  32.104  14.003
61367W        W33093  21.628  32.555   4.743
61368W        W33094  17.266  28.405   3.275
61369W        W33095  12.640   2.965  11.194
61370W        W33096   1.868   2.390   1.783
61371W        W33097  11.845  22.955  14.128
61372W        W33098  37.052   9.088  11.612
61373W        W33099  11.773  39.097   0.263
61374W        W33100   7.186  10.675  14.267
61375W        W33101  11.759   1.946  12.001
61376W        W33102  23.323  29.549   3.614
61377W        W33103  41.376  40.382   2.441
61378W        W33104  13.102   2.855   3.648
61379W        W33105   1.345  13.866   1.958
61380W        W33106  20.082  30.615   2.866
61381W        W33107   0.205   6.636  12.975
61382W        W33108  16.779  12.926  12.949
61383W        W33109  39.073  43.465  13.438
61384W        W33110  15.636  36.989  10.289
61385W        W33111  31.530  25.214  12.066
61386W        W33112  25.695  33.580   4.198
61387W        W33113   2.119  37.527   3.403
61388W        W33114   8.881   5.316  13.946
61389W        W33115  12.458  21.737  10.403
61390W        W33116  43.829  28.268   1.737
61391W        W33117   2.137   5.226   2.405
61392W        W33118  30.983  16.185  11.958
61393W        W33119  14.573  31.070   0.321
61394W        W33120  20.692  36.505  12.332
61395W        W33121  32.338   7.747   0.324
61396W        W33122  24.199   6.964  13.468
61397W        W33123   4.803  11.377   0.752
61398W        W33124   7.194  21.143  14.440
61399W        W33125  33.809   0.873   3.793
61400W        W33126  14.547  32.201  12.457
61401W        W33127  34.798  22.897   0.453
61402W        W33128  33.344   3.869   2.400
61403W        W33129   5.851  34.095  14.193
61404W        W33130  40.216  38.952  12.101
61405W        W33131  13.744  30.140   4.285
61406W        W33132  25.603  42.326  13.696
61407W        W33133  29.218  27.478  11.632
61408W        W33134  41.527  28.024   4.250
61409W        W33135  40.665  23.266   3.312
61410W        W33136   4.324  11.041   2.862
61411W        W33137  11.059   7.244   0.678
61412W        W33138  21.291  29.012   0.284
61413W        W33139  15.232  31.046   3.341
61414W        W33140  20.534   3.035   1.304
61415W        W33141  22.004  14.353   0.904
61416W        W33142  20.074   9.069   1.694
61417W        W33143   4.646   4.813   1.007
61418W        W33144  31.391  36.907  13.069
61419W        W33145  10.660   0.894  11.234
61420W        W33146  33.825  35.855   2.244
61421W        W33147  44.548  12.727   1.401
61422W        W33148   7.278  41.324   3.299
61423W        W33149  23.621  18.563  11.994
61424W        W33150  39.643  30.980  10.417
61425W        W33151  33.475  22.627  11.738
61426W        W33152  44.240  31.446  13.404
61427W        W33153  42.910  43.204   4.080
61428W        W33154  43.708  38.718   0.966
61429W        W33155   9.095  42.348  10.784
61430W        W33156  28.046   6.426   4.011
61431W        W33157  16.286  31.566   2.358
61432W        W33158  20.765   3.458   0.517
61433W        W33159  28.138  13.805  12.398
61434W        W33160  32.663  15.221   3.436
61435W        W33161   9.764  16.683   4.403
61436W        W33162   2.797   6.644   0.168
61437W        W33163  44.435  18.480  11.111
61438W        W33164  22.570   4.497  12.407
61439W        W33165  36.974  42.895   0.763
61440W        W33166  14.359  43.266  13.036
61441W        W33167  19.342  24.261  12.579
61442W        W33168  33.523  40.933  13.560
61443W        W33169   5.921  36.322   4.288
61444W        W33170  39.443  42.598   0.181
61445W        W33171  38.915  39.999  14.286
61446W        W33172  15.513  24.786  12.815
61447W        W33173   4.937  40.004   0.271
61448W        W33174  32.056  14.632   4.143
61449W        W33175  19.556  38.593   3.124
61450W        W33176  40.285  30.561  12.554
61451W        W33177  20.499  16.117   3.847
61452W        W33178  28.986  25.609  14.083
61453W        W33179   4.277  37.764  13.592
61454W        W33180  17.805  14.711  13.790
61455W        W33181   5.937  26.187  14.419
61456W        W33182  13.832  38.415  11.122
61457W        W33183  17.987   6.922  14.601
61458W        W33184  35.838  43.501  10.584
61459W        W33185  40.390   2.426  10.822
61460W        W33186  17.963  31.180   2.735
61461W        W33187  31.203   5.971  14.426
61462W        W33188  24.124  35.076  14.920
61463W        W33189  39.359   5.776  11.707
61464W        W33190   0.067  30.626   2.162
61465W        W33191  20.220  30.919  14.903
61466W        W33192  10.320  20.068  14.083
61467W        W33193   2.529  34.892  13.524
61468W        W33194  12.001  27.915   1.252
61469W        W33195   6.227  41.178   5.122
61470W        W33196  22.560  35.355  11.578
61471W        W33197   1.396  10.085  12.976
61472W        W33198  27.568  21.249  14.874
61473W        W33199  16.138  14.144   1.790
61474W        W33200  35.431  15.656  11.108
61475W        W33201  38.094  41.522   3.986
61476W        W33202  24.553  28.128  14.989
61477W        W33203  34.089  29.120   2.481
61478W        W33204   1.061  37.690   0.642
61479W        W33205   3.353  24.674   3.679
61480W        W33206  44.352  18.942  14.771
61481W        W33207  31.628  15.837  10.890
61482W        W33208  44.799  19.276  10.782
61483W        W33209  26.722  28.483  12.531
61484W        W33210  38.136  22.067  12.623
61485W        W33211  16.040  41.887   2.082
61486W        W33212  20.717  19.303   1.799
61487W        W33213  12.647  10.867  11.554
61488W        W33214  35.493   4.451   1.317
61489W        W33215  29.636  28.524  10.583
61490W        W33216  30.059  20.791  11.465
61491W        W33217  17.199  33.425   1.971
61492W        W33218   9.078   6.277  14.785
61493W        W33219  20.014  13.802  12.678
61494W        W33220   0.319  22.988  14.583
61495W        W33221  10.534  20.706  11.496
61496W        W33222  12.390  23.239  14.879
61497W        W33223  15.665  32.938  10.941
61498W        W33224  30.769   2.251   5.140
61499W        W33225  28.057  15.031  12.660
61500W        W33226  29.523  36.477   1.758
61501W        W33227  38.445  27.519  12.401
61502W        W33228  33.328   9.280   4.899
61503W        W33229  43.505  32.125   1.803
61504W        W33230  32.552  10.573  12.414
61505W        W33231   6.678  29.372   3.169
61506W        W33232   8.732  38.600  14.670
61507W        W33233  14.249  27.683  13.506
61508W        W33234  24.141  13.402   1.423
61509W        W33235  16.959  16.499   3.598
61510W        W33236  30.083   4.195  13.713
61511W        W33237   1.371  32.622  13.586
61512W        W33238  27.827  16.272   4.797
61513W        W33239   7.329   9.908   1.820
61514W        W33240  30.014   0.007  10.605
61515W        W33241  30.766  19.084  11.193
61516W        W33242  39.997  17.431   1.451
61517W        W33243  38.529  28.388   4.322
61518W        W33244  18.053   7.422  14.732
61519W        W33245   2.276  22.039   0.587
61520W        W33246  18.802  19.041  10.439
61521W        W33247   8.184  18.883  13.784
61522W        W33248  36.258  31.158   0.957
61523W        W33249   4.819  38.562  12.607
61524W        W33250  29.641   5.371   3.995
61525W        W33251  32.956  17.389  12.368
61526W        W33252  22.421  27.567   2.228
61527W        W33253  35.995  16.024  14.289
61528W        W33254  14.267  11.954   0.872
61529W        W33255  40.725   5.267   4.155
61530W        W33256  35.554  37.064  13.834
61531W        W33257   9.003   6.393   1.259
61532W        W33258   4.901   8.719   1.376
61533W        W33259  41.894   5.588   1.252
61534W        W33260  32.643  30.435   3.737
61535W        W33261  35.115   1.996   4.639
61536W        W33262  11.597  24.641   2.657
61537W        W33263  37.100  27.609  12.131
61538W        W33264  24.640   7.720   1.407
61539W        W33265  30.041  44.161  11.079
61540W        W33266  24.662   9.291  12.092
61541W        W33267  30.356  23.177  13.956
61542W        W33268  43.317   3.995   1.543
61543W        W33269   9.396  24.445   4.203
61544W        W33270  12.869  33.626   0.845
61545W        W33271   4.951  44.548   3.115
61546W        W33272  16.238  29.503   1.142
61547W        W33273  25.663   1.925   2.198
61548W        W33274  10.387  14.503  14.248
61549W        W33275   5.452  11.021   2.344
61550W        W33276   5.854  31.116  11.934
61551W        W33277  39.774  29.504  12.805
61552W        W33278  31.018  11.081   0.907
61553W        W33279  27.639  14.480  14.463
61554W        W33280   7.367  28.902   2.894
61555W        W33281  14.395  26.617   3.328
61556W        W33282  26.715  14.293  13.435
61557W        W33283  43.429  18.414   4.219
61558W        W33284  16.088  20.319  11.616
61559W        W33285  22.887  10.359   0.025
61560W        W33286  39.509  16.427  13.842
61561W        W33287  17.880   4.310  13.308
61562W        W33288  30.511  43.309   1.420
61563W        W33289  43.847  34.372   2.992
61564W        W33290   6.960   9.767  13.340
61565W        W33291   4.368  24.176   1.337
61566W        W33292  34.561  12.104  13.864
61567W        W33293  36.015  34.978   4.835
61568W        W33294  27.761  20.291   0.785
61569W        W33295  29.037  38.617  13.460
61570W        W33296   1.450   9.660  10.591
61571W        W33297  27.471  10.144  14.070
61572W        W33298  13.249  23.803   0.755
61573W        W33299   4.149  22.651   1.939
61574W        W33300  23.161  10.626   4.337
61575W        W33301  21.757  26.016  12.927
61576W        W33302  34.425  10.238  11.545
61577W        W33303  35.123  37.349  14.807
61578W        W33304  31.466   1.262   0.878
61579W        W33305  13.149  26.634   3.216
61580W        W33306  26.933   9.551   1.911
61581W        W33307  30.878  43.799  12.425
61582W        W33308  20.998  19.094   0.919
61583W        W33309  37.062  10.347   3.260
61584W        W33310  39.390  25.030   4.544
61585W        W33311  13.270   5.239  10.709
61586W        W33312   9.976  18.237   1.360
61587W        W33313  29.937  35.858   2.275
61588W        W33314  36.894  30.047   2.339
61589W        W33315   8.775  25.027   4.704
61590W        W33316   7.646  13.347  13.320
61591W        W33317  15.247  25.866   3.267
61592W        W33318   9.868   5.891  13.306
61593W        W33319  21.194  38.527   0.981
61594W        W33320  15.200   2.792  12.447
61595W        W33321  18.507  19.028   3.401
61596W        W33322  26.622  27.017  12.552
61597W        W33323  28.200  20.621   3.306
61598W        W33324  32.220  20.210   1.639
61599W        W33325  27.403  29.058   4.142
61600W        W33326  34.436  39.516  11.562
61601W        W33327  40.416   1.073  10.287
61602W        W33328   1.548  19.236   2.575
61603W        W33329  31.857  37.868   2.826
61604W        W33330   3.686  34.971  13.933
61605W        W33331  17.542  42.387  12.023
61606W        W33332  29.336  25.954  13.824
61607W        W33333  26.423   6.984   4.491
61608W        W33334  22.164   3.922   3.234
61609W        W33335  24.200  32.917  13.659
61610W        W33336   5.380  30.264   3.643
61611W        W33337  21.468  40.457  12.169
61612W        W33338  35.984  30.587  12.134
61613W        W33339  23.731  35.157  12.470
61614W        W33340  26.980  44.286  13.997
61615W        W33341  39.256  27.483  11.960
61616W        W33342  42.909   4.644  14.036
61617W        W33343  19.842  23.203  12.199
61618W        W33344  40.819  33.293  14.593
61619W        W33345   2.829  19.577   5.087
61620W        W33346  28.942  15.115  10.405
61621W        W33347  31.504  23.517   3.751
61622W        W33348   2.278   4.688  11.928
61623W        W33349  18.542   5.364  13.796
61624W        W33350  17.918   2.999  14.238
61625W        W33351  39.350  33.643   0.814
61626W        W33352   2.755  36.838   2.821
61627W        W33353   6.666  30.459  12.141
61628W        W33354  18.847  42.326   0.963
61629W        W33355  27.486  18.991  10.679
61630W        W33356   5.378  21.667  12.491
61631W        W33357  17.352   5.433   3.773
61632W        W33358   3.823  33.960   4.032
61633W        W33359  38.173   7.595   2.804
61634W        W33360  29.425  41.440   3.116
61635W        W33361  11.761  13.238  11.889
61636W        W33362  38.972  39.467  14.277
61637W        W33363   1.420  19.401  13.843
61638W        W33364  12.767  35.229   1.795
61639W        W33365  18.255  40.998  13.399
61640W        W33366  28.720  26.534  10.570
61641W        W33367  32.855  20.553  11.588
61642W        W33368  18.469  39.029   3.174
61643W        W33369  12.360  17.046   4.189
61644W        W33370  29.860   5.865  10.782
61645W        W33371  27.487  23.322   4.464
61646W        W33372   0.551  32.995  14.428
61647W        W33373   3.782  29.007   1.397
61648W        W33374  25.735  35.076  10.697
61649W        W33375  38.150  11.889  10.809
61650W        W33376  15.693  10.689   2.329
61651W        W33377  11.540  26.036  11.563
61652W        W33378   3.062  34.388   1.429
61653W        W33379   4.449  41.958   1.667
61654W        W33380  43.319  27.925  12.790
61655W        W33381  37.458  33.519  12.419
61656W        W33382  42.870  26.398   4.090
61657W        W33383   3.668   5.969  14.502
61658W        W33384  35.438  14.616  13.789
61659W        W33385  41.037  31.926   1.789
61660W        W33386  38.355  14.791   3.615
61661W        W33387  30.071  41.502  13.709
61662W        W33388  21.583  29.645  12.032
61663W        W33389  43.561  24.900   2.328
61664W        W33390  25.181  18.214   1.027
61665W        W33391  12.441  17.220  14.574
61666W        W33392  37.039   8.065  11.642
61667W        W33393  12.885  26.167   1.310
61668W        W33394  38.390  20.387   4.113
61669W        W33395  26.162  16.766   3.217
61670W        W33396  10.871  34.710  12.225
61671W        W33397  44.171  11.851   4.024
61672W        W33398  37.577   7.022   4.683
61673W        W33399   4.463  37.296  13.832
61674W        W33400  10.706   8.313  11.161
61675W        W33401  29.685  29.646  12.872
61676W        W33402   0.375  29.007  10.879
61677W        W33403   4.631  36.101  10.157
61678W        W33404  23.542  28.771   2.836
61679W        W33405   5.245   6.249   1.524
61680W        W33406  17.317  42.894  12.914
61681W        W33407  25.515  43.393  14.810
61682W        W33408  42.692   2.978  10.378
61683W        W33409  14.836  39.536  11.618
61684W        W33410  15.064  29.642  14.300
61685W        W33411  39.396  44.773   0.886
61686W        W33412  29.676  19.226   3.928
61687W        W33413   1.338  44.885   0.935
61688W        W33414  22.311   0.958  12.413
61689W        W33415  11.734  21.015   2.808
61690W        W33416  14.072  16.710   1.372
61691W        W33417   0.452  29.031  12.834
61692W        W33418   4.525  16.325  12.575
61693W        W33419   6.701  13.201  10.084
61694W        W33420  34.184  25.011  13.458
61695W        W33421  14.198   8.797  13.999
61696W        W33422  30.458  36.496  11.728
61697W        W33423  40.572   1.356   0.015
61698W        W33424  25.103   8.735   1.554
61699W        W33425  25.097   3.485  11.517
61700W        W33426  28.974  35.935  14.174
61701W        W33427  37.274  16.246  14.210
61702W        W33428  35.388  33.370   1.744
61703W        W33429  16.375  42.920  13.836
61704W        W33430  28.139   7.040   0.977
61705W        W33431  26.650  37.668   9.936
61706W        W33432   6.968   7.820  11.992
61707W        W33433   3.640  15.343   0.266
61708W        W33434  39.524   5.962   3.510
61709W        W33435  10.164  37.068   1.660
61710W        W33436   6.215  14.432  12.607
61711W        W33437  37.417  38.348   0.142
61712W        W33438  23.190  19.938   1.203
61713W        W33439  17.524  14.083  14.468
61714W        W33440  14.601  37.095   2.375
61715W        W33441   8.638  22.574   0.761
61716W        W33442  18.663  40.694   2.692
61717W        W33443  17.587   7.191  14.914
61718W        W33444  33.462  17.145   4.602
61719W        W33445  33.541  29.827   3.692
61720W        W33446  41.798  21.722   2.379
61721W        W33447   2.078  29.871   4.612
61722W        W33448  33.098  12.459  12.590
61723W        W33449  22.256  14.636  13.358
61724W        W33450  11.977  19.345   3.792
61725W        W33451  16.584  38.370  11.601
61726W        W33452   6.609   9.165  11.608
61727W        W33453  15.637  10.376  10.319
61728W        W33454  12.634  44.448   0.722
61729W        W33455  15.636  10.384  13.901
61730W        W33456  13.831  25.155   2.230
61731W        W33457   6.215   3.810  11.565
61732W        W33458  39.039  37.457   0.777
61733W        W33459  19.062  33.200   4.626
61734W        W33460  21.040  27.967   4.428
61735W        W33461  28.257  28.950  12.866
61736W        W33462  41.281   9.744  13.042
61737W        W33463  22.148  34.653   2.173
61738W        W33464   8.194  40.990  11.515
61739W        W33465   3.727  17.352   4.766
61740W        W33466  44.859  38.649   4.167
61741W        W33467  26.443   3.818   4.493
61742W        W33468   2.403   9.839  14.033
61743W        W33469  24.715  18.589   1.818
61744W        W33470  31.135   1.789  12.966
61745W        W33471  28.714  29.907   0.813
61746W        W33472  26.603  13.616  14.372
61747W        W33473   6.775  13.045   0.741
61748W        W33474   4.970  18.577   4.895
61749W        W33475  37.273  28.070  14.052
61750W        W33476   9.916  37.106   2.448
61751W        W33477  44.120   3.418   9.853
61752W        W33478   7.351  43.465   4.632
61753W        W33479  20.444  41.889  11.930
61754W        W33480  12.129  17.631  11.592
61755W        W33481   9.607   7.261  10.767
61756W        W33482  13.901  19.778  14.999
61757W        W33483   4.892  27.726  13.453
61758W        W33484   0.798  27.463   2.087
61759W        W33485   2.885  34.781  13.892
61760W        W33486   0.108  35.466   4.554
61761W        W33487   0.753  12.761   1.478
61762W        W33488  35.513  32.306  14.845
61763W        W33489  29.965  23.767   3.780
61764W        W33490  42.448   8.018   0.097
61765W        W33491  42.765  19.059  11.412
61766W        W33492   1.739  42.032  14.867
61767W        W33493   3.617  22.673  10.171
61768W        W33494   9.539  26.168   1.371
61769W        W33495   4.080  20.313   1.796
61770W        W33496  33.364  24.528   1.228
61771W        W33497  18.239  42.895   3.118
61772W        W33498  23.982  18.789   5.001
61773W        W33499  43.499  14.236  12.160
61774W        W33500   0.613   1.830   0.771
61775W        W33501   5.493  34.818   0.866
61776W        W33502   5.691   3.500  14.415
61777W        W33503   6.891  14.280  14.609
61778W        W33504  23.052  19.572  11.660
61779W        W33505  23.202  13.639  12.836
61780W        W33506  26.257  21.722   2.927
61781W        W33507   6.293  12.682   4.323
61782W        W33508  35.848   2.955   2.748
61783W        W33509  21.644  27.919  11.591
61784W        W33510  27.636   8.397  14.896
61785W        W33511  39.412  32.867   1.219
61786W        W33512  43.194  41.608  14.271
61787W        W33513  19.066   6.254  12.596
61788W        W33514  35.038  13.666   3.244
61789W        W33515  15.041  18.816   3.896
61790W        W33516  43.188  38.252   3.979
61791W        W33517  37.469  10.073  13.214
61792W        W33518  19.255  16.725  13.103
61793W        W33519  44.607  35.074  12.543
61794W        W33520  32.137  14.797   0.294
61795W        W33521   1.877  31.972  14.164
61796W        W33522   0.771  30.645  12.892
61797W        W33523  43.204   6.739   3.642
61798W        W33524   6.410  28.855   0.064
61799W        W33525  40.370  40.503   2.416
61800W        W33526  19.831   5.395  11.622
61801W        W33527  22.699  11.275   1.637
61802W        W33528  35.815  11.160  12.954
61803W        W33529  31.435  12.802  13.934
61804W        W33530   9.846  11.429   0.955
61805W        W33531  11.910  40.959  11.002
61806W        W33532  43.781  32.860   3.274
61807W        W33533  13.296   9.952  14.321
61808W        W33534  25.984  30.907   2.379
61809W        W33535  31.568  34.500   0.339
61810W        W33536   5.752   9.673  11.632
61811W        W33537   4.292   3.377  10.694
61812W        W33538  15.900  34.181   3.630
61813W        W33539  32.074  38.210   4.120
61814W        W33540  26.414  37.401   1.206
61815W        W33541  41.788  12.024  10.679
61816W        W33542  14.821  33.550   1.268
61817W        W33543  35.873  24.473  13.985
61818W        W33544  44.990  26.926   4.193
61819W        W33545  40.003   4.473  11.662
61820W        W33546  14.262  39.539  12.826
61821W        W33547  43.262  13.214   2.237
61822W        W33548  11.635  38.442  14.501
61823W        W33549  24.982   8.996   1.989
61824W        W33550  15.675  40.814  12.500
61825W        W33551  35.142  21.108  11.955
61826W        W33552  16.520  32.066   0.706
61827W        W33553  10.399   0.327   1.764
61828W        W33554  30.985  23.612   0.986
61829W        W33555  13.361   0.661   1.008
61830W        W33556   0.308  23.372  10.876
61831W        W33557  10.845  39.553  11.236
61832W        W33558  15.842  22.237   1.757
61833W        W33559  25.376  43.864   0.015
61834W        W33560  32.978  44.478  12.967
61835W        W33561  36.821  30.894   1.844
61836W        W33562  29.175   8.756   4.415
61837W        W33563  11.397  37.434   1.584
61838W        W33564   7.431  32.182  11.522
61839W        W33565  44.309  40.456  14.705
61840W        W33566   6.789  39.832  12.025
61841W        W33567  43.922  13.841  10.727
61842W        W33568  35.067  36.453  13.086
61843W        W33569  21.327  19.609  10.804
61844W        W33570  19.130   9.762  11.131
61845W        W33571   5.953  31.991   0.402
61846W        W33572  16.619   5.234   4.137
61847W        W33573  42.923  26.972   1.467
61848W        W33574  29.148  39.005   4.871
61849W        W33575  39.949  34.891   3.829
61850W        W33576   5.916  20.562  12.344
61851W        W33577  22.144   5.259   0.202
61852W        W33578  33.890  42.814  10.423
61853W        W33579   5.458   3.844   3.169
61854W        W33580  11.171   0.461  13.136
61855W        W33581  10.862  39.416  11.983
61856W        W33582  16.689  23.884   4.761
61857W        W33583  24.209  43.051   0.841
61858W        W33584  44.988   6.131   1.894
61859W        W33585  28.910   6.645  12.476
61860W        W33586   2.188  15.287  11.138
61861W        W33587  24.801  44.884  12.869
61862W        W33588   6.643  12.259  12.421
61863W        W33589   4.909  31.551   3.612
61864W        W33590  10.694   9.178  11.189
61865W        W33591  33.383  17.775  12.502
61866W        W33592  13.570  15.671   4.174
61867W        W33593  26.036  19.958  11.483
61868W        W33594  23.641  15.795   2.133
61869W        W33595  25.956  42.485  13.275
61870W        W33596  13.132   5.179  13.744
61871W        W33597   1.445   9.333   0.077
61872W        W33598   9.707  27.988  10.698
61873W        W33599  10.384  29.939   3.171
61874W        W33600  38.522  44.276   0.029
61875W        W33601   9.206  24.014  14.264
61876W        W33602  40.259  29.026   1.740
61877W        W33603   3.570   3.381  11.888
61878W        W33604  42.405  11.922   4.491
61879W        W33605  26.484  14.052  12.603
61880W        W33606  11.480  12.293   0.828
61881W        W33607  16.020   5.271  13.969
61882W        W33608  40.279  20.962   0.809
61883W        W33609  41.783  40.747  11.117
61884W        W33610  37.475   6.714  13.421
61885W        W33611  25.312  21.131   0.997
61886W        W33612  43.231  29.757  12.863
61887W        W33613  39.591   3.401   1.738
61888W        W33614  15.112  33.987   1.344
61889W        W33615  37.776  24.126  14.311
61890W        W33616  34.278  16.769   1.959
61891W        W33617   2.792   8.485   1.254
61892W        W33618  22.307  21.560   0.549
61893W        W33619   9.587  20.704  13.877
61894W        W33620  41.734  17.169   1.819
61895W        W33621  17.173   7.951  14.503
61896W        W33622  38.810  19.802  14.415
61897W        W33623  41.456  10.389   2.781
61898W        W33624  12.395  43.982  13.966
61899W        W33625  16.351  20.497   0.536
61900W        W33626   3.967  35.944   3.712
61901W        W33627  40.804  22.199   1.136
61902W        W33628  15.305  25.020  13.246
61903W        W33629  30.401  16.817  12.585
61904W        W33630  21.777  11.648  13.898
61905W        W33631  42.409  30.997   3.654
61906W        W33632  29.630   2.144  14.800
61907W        W33633  20.720   8.381   1.328
61908W        W33634   7.728  30.847   4.182
61909W        W33635  44.829  12.918  14.017
61910W        W33636  10.426  12.891   0.754
61911W        W33637  29.614  30.928  13.317
61912W        W33638  10.444  37.076  10.790
61913W        W33639  11.475  30.344   4.569
61914W        W33640  40.115   0.987   2.628
61915W        W33641   8.920   9.699  11.542
61916W        W33642  22.077   6.126   1.313
61917W        W33643  31.960  24.068   0.640
61918W        W33644  35.376  34.639  14.356
61919W        W33645  22.606  44.788  10.624
61920W        W33646  41.342  25.657   1.202
61921W        W33647   3.633  17.602  14.634
61922W        W33648   6.646  18.297   1.902
61923W        W33649  12.293  30.495  14.707
61924W        W33650  43.750  26.968  14.512
61925W        W33651  13.630  12.423  13.368
61926W        W33652  36.608   4.950   2.140
61927W        W33653  21.977  43.995  13.415
61928W        W33654  26.099  20.481   2.156
61929W        W33655   4.805  37.038   3.321
61930W        W33656  15.266  19.493  12.149
61931W        W33657  19.702  28.970  12.944
61932W        W33658  35.474  33.361   0.776
61933W        W33659  38.332  32.501  11.916
61934W        W33660   3.280  44.445  14.011
61935W        W33661   7.795   9.794  10.730
61936W        W33662  15.919  17.221  10.542
61937W        W33663  36.564  13.371   1.915
61938W        W33664  42.954  40.176   0.316
61939W        W33665  21.178  26.775   9.719
61940W        W33666  22.131  12.533   1.751
61941W        W33667  22.396  11.898   0.949
61942W        W33668   3.189  35.572   0.674
61943W        W33669  19.494  30.863   1.831
61944W        W33670  13.794  38.391   5.116
61945W        W33671  40.870   6.662  10.909
61946W        W33672  30.462  14.634  13.959
61947W        W33673   7.965   1.859  10.957
61948W        W33674  42.561   6.844  14.687
61949W        W33675  25.753  10.582  13.430
61950W        W33676  25.638  41.032   3.592
61951W        W33677  21.287  33.819  12.434
61952W        W33678  29.233  15.119   0.429
61953W        W33679  38.947  23.990   1.410
61954W        W33680  25.151  41.078   3.420
61955W        W33681  28.073  31.425   3.748
61956W        W33682  10.422  13.186   3.205
61957W        W33683  29.986  14.095   0.876
61958W        W33684  18.634   6.682  10.237
61959W        W33685  19.213  32.853   0.187
61960W        W33686  15.269  39.824   0.389
61961W        W33687   6.133  15.362   1.771
61962W        W33688  34.416  32.083  12.102
61963W        W33689  38.474  22.720   0.370
61964W        W33690  27.358  35.432   0.392
61965W        W33691  11.372  42.323   1.263
61966W        W33692  41.012  35.485  10.667
61967W        W33693  31.110  37.621  12.813
61968W        W33694  33.982   5.753  14.501
61969W        W33695  17.795  31.584  12.570
61970W        W33696  17.253  29.713   2.942
61971W        W33697  19.509  25.124  13.069
61972W        W33698  23.170  13.864   3.261
61973W        W33699  20.985  22.237   2.737
61974W        W33700  17.536  23.063  10.848
61975W        W33701   4.539   2.478  11.029
61976W        W33702   7.680  15.979  12.586
61977W        W33703  34.119  19.346  13.803
61978W        W33704  10.748   8.666  11.539
61979W        W33705  37.585  26.058  12.043
61980W        W33706  36.466  11.919   3.674
61981W        W33707  18.525   6.399   0.405
61982W        W33708  41.721  13.066  12.023
61983W        W33709  22.164  42.429  11.035
61984W        W33710  11.243  28.595  13.659
61985W        W33711   5.956  13.960   1.836
61986W        W33712  13.090  28.027  12.033
61987W        W33713   7.009   8.609   1.630
61988W        W33714  22.264   1.793   0.358
61989W        W33715  16.737   8.771  10.714
61990W        W33716  36.418  21.211  12.952
61991W        W33717  39.458  42.304   3.980
61992W        W33718   4.728  28.646  11.502
61993W        W33719  30.270  33.561   2.794
61994W        W33720   8.674  33.718   2.766
61995W        W33721  25.521  18.860  14.034
61996W        W33722   9.656   7.830  14.863
61997W        W33723  25.657  42.071   1.360
61998W        W33724   4.836  30.493   2.482
61999W        W33725  24.908  31.886   1.422
62000W        W33726  16.674  20.534  13.980
62001W        W33727  23.973  25.495  13.005
62002W        W33728  41.156  31.575  12.378
62003W        W33729  36.548  31.379   2.302
62004W        W33730  27.521  20.008   3.650
62005W        W33731  37.277  32.464   2.399
62006W        W33732  38.488  31.420  11.674
62007W        W33733  26.050  42.393  14.796
62008W        W33734  16.639  11.584  11.190
62009W        W33735  25.669   4.024  14.951
62010W        W33736  37.464   2.831   3.181
62011W        W33737  15.147   1.220  14.392
62012W        W33738  11.586  23.306   1.785
62013W        W33739  10.316   2.993  13.730
62014W        W33740   1.727  36.793  12.907
62015W        W33741  15.861  17.940  11.951
62016W        W33742  17.052  40.465   5.026
62017W        W33743  30.703  36.966   3.317
62018W        W33744   1.957  19.132   2.884
62019W        W33745  39.676  16.298   0.544
62020W        W33746  33.903   1.424   4.629
62021W        W33747  21.686  24.629   3.138
62022W        W33748  38.475  40.318  12.063
62023W        W33749  26.881  34.176   3.105
62024W        W33750   6.719  42.398   4.685
62025W        W33751  33.174  18.749  13.179
62026W        W33752  43.299  29.260  12.519
62027W        W33753  22.655  17.199   2.197
62028W        W33754   1.298   7.734   4.681
62029W        W33755  20.560  35.955   1.932
62030W        W33756  31.233  35.170  13.131
62031W        W33757   7.113  25.466   2.732
62032W        W33758   4.921  33.339   4.254
62033W        W33759  36.587  27.488  13.055
62034W        W33760  38.811  39.718  13.849
62035W        W33761  28.238  37.787   0.357
62036W        W33762   4.134  12.069  11.091
62037W        W33763  18.844  26.884  12.957
62038W        W33764  10.653  43.352  12.387
62039W        W33765  12.836  41.445  14.348
62040W        W33766   0.661  25.578  12.990
62041W        W33767  22.102  29.911  14.921
62042W        W33768  37.144  12.161  13.926
62043W        W33769  30.635   9.532   4.251
62044W        W33770   4.724  41.404   0.087
62045W        W33771   1.960  26.917  13.816
62046W        W33772   1.862  34.353  12.420
62047W        W33773  33.063  27.103   0.910
62048W        W33774  28.095   2.195  10.633
62049W        W33775  42.345   4.834  12.117
62050W        W33776  34.751  11.753  14.856
62051W        W33777  14.526  21.960   0.760
62052W        W33778  21.041  39.165   1.798
62053W        W33779   0.193  26.150   1.719
62054W        W33780  40.375  44.512   0.266
62055W        W33781   2.772  39.311   3.328
62056W        W33782   6.187  26.911  13.411
62057W        W33783  11.146   9.750   2.806
62058W        W33784   5.024  15.589  11.954
62059W        W33785   9.296  10.659  11.518
62060W        W33786  29.591  19.167   2.218
62061W        W33787  30.681  20.053   1.944
62062W        W33788  37.789   1.891   3.098
62063W        W33789  19.188  44.937  14.761
62064W        W33790  32.843  38.391   2.665
62065W        W33791   1.389  15.647   0.246
62066W        W33792  15.241  39.311  14.357
62067W        W33793  42.747  31.380   0.402
62068W        W33794   1.706  17.286   3.679
62069W        W33795  28.492   2.490  11.417
62070W        W33796  34.611   7.899  13.532
62071W        W33797  34.859  39.286   1.703
62072W        W33798  21.377  15.159   4.128
62073W        W33799  37.795  27.116   4.637
62074W        W33800  17.371   9.329   1.777
62075W        W33801  23.017   4.207  11.667
62076W        W33802   5.128   7.693  11.149
62077W        W33803  41.435   6.414  14.551
62078W        W33804   9.671  14.202   4.597
62079W        W33805  40.995  29.805   0.166
62080W        W33806  27.065  17.827  11.653
62081W        W33807  17.467  27.349   4.173
62082W        W33808  19.270  38.001   2.165
62083W        W33809  27.723   5.356  12.903
62084W        W33810  30.026  41.710  12.983
62085W        W33811  29.956   6.318  11.013
62086W        W33812  29.389   2.422  11.199
62087W        W33813  12.488   0.468   0.766
62088W        W33814  10.420  41.504  12.088
62089W        W33815  32.483  40.208  13.866
62090W        W33816   8.915  29.006  11.678
62091W        W33817  33.557  14.439  11.726
62092W        W33818  11.775   2.394  14.369
62093W        W33819  19.466  36.970   0.432
62094W        W33820  35.871   5.670   1.410
62095W        W33821  12.646  37.348   1.942
62096W        W33822  35.993  33.375  13.128
62097W        W33823  12.630  31.550  11.606
62098W        W33824  34.066  12.680  11.653
62099W        W33825  25.674  40.511  13.799
62100W        W33826  10.906  24.421  13.088
62101W        W33827  34.583   4.518  10.524
62102W        W33828   0.507   2.384  11.355
62103W        W33829  29.532  39.033  11.861
62104W        W33830  13.575   8.339   0.341
62105W        W33831  20.260  22.163  13.353
62106W        W33832  15.105  15.787   4.147
62107W        W33833  20.892  18.550  13.997
62108W        W33834  22.317  32.973   2.861
62109W        W33835  35.096   5.519  13.518
62110W        W33836  18.123  38.257   3.384
62111W        W33837  30.597   4.212   3.307
62112W        W33838   6.146  28.410   4.708
62113W        W33839  22.799  37.772   1.925
62114W        W33840  27.889  18.388   1.254
62115W        W33841  32.023   3.787   2.158
62116W        W33842  15.949  13.783   2.639
62117W        W33843   2.690  40.090  10.777
62118W        W33844  37.544  44.034   0.401
62119W        W33845  10.405  35.181  10.655
62120W        W33846   7.652   4.543   3.030
62121W        W33847  20.138  28.424   1.768
62122W        W33848   7.401  11.768   2.263
62123W        W33849  17.543   2.977   3.790
62124W        W33850  22.177  44.738   4.211
62125W        W33851  38.959   4.738  13.826
62126W        W33852   6.262  17.845  12.625
62127W        W33853  29.924  20.815   1.316
62128W        W33854  19.471   2.853  12.503
62129W        W33855   2.845  34.878   0.816
62130W        W33856  15.045  18.747  10.736
62131W        W33857  30.414  44.011  13.934
62132W        W33858  40.284  33.588   4.589
62133W        W33859  30.973  19.160  14.460
62134W        W33860   2.346   4.050   3.387
62135W        W33861  21.698  42.030   4.394
62136W        W33862  33.331  12.113  11.813
62137W        W33863  10.040  40.848  14.520
62138W        W33864  38.909   1.324  13.953
62139W        W33865  39.145  25.119  13.841
62140W        W33866  20.304   5.178  11.610
62141W        W33867  30.865  13.712   1.511
62142W        W33868  15.297  22.311  14.427
62143W        W33869  17.834  25.780  13.067
62144W        W33870   1.657  22.067   3.845
62145W        W33871  23.501  29.122   1.229
62146W        W33872  23.525  28.682   3.872
62147W        W33873  11.590  34.996   2.171
62148W        W33874  30.179  43.348   0.945
62149W        W33875  15.524  22.762   0.967
62150W        W33876  31.659   3.888  12.464
62151W        W33877  27.884  24.216  10.991
62152W        W33878  34.695  41.888  12.939
62153W        W33879  39.294  21.151  12.043
62154W        W33880  11.868  20.776   4.242
62155W        W33881  14.826  36.413   3.544
62156W        W33882  38.996  35.591   3.113
62157W        W33883   4.963  44.392  14.361
62158W        W33884  39.896  25.013  10.961
62159W        W33885  32.594  24.031   3.212
62160W        W33886  26.472  24.924  12.156
62161W        W33887  41.380  13.345  10.693
62162W        W33888  24.012  18.484  10.668
62163W        W33889  17.755   8.698  12.410
62164W        W33890  13.362  19.842  11.129
62165W        W33891  43.456  25.182  12.118
62166W        W33892  29.529  44.309  11.121
62167W        W33893  37.563   3.300   1.034
62168W        W33894  14.876  39.875   4.591
62169W        W33895  28.597   9.746  11.410
62170W        W33896  20.841   3.989  14.546
62171W        W33897  29.894  18.700   4.876
62172W        W33898  30.681  43.278  13.492
62173W        W33899  14.194  36.212   1.884
62174W        W33900  20.213  39.952  11.593
62175W        W33901  41.363  42.244   1.288
62176W        W33902  18.629   6.365  10.669
62177W        W33903  35.391  42.020   1.292
62178W        W33904  28.107   6.955   4.030
62179W        W33905  26.088  35.574   2.647
62180W        W33906  38.572  24.122   4.131
62181W        W33907  41.780  38.765  10.688
62182W        W33908  31.100  19.111  10.798
62183W        W33909  37.575  36.462   2.329
62184W        W33910  44.876  14.228   1.679
62185W        W33911   7.185  29.072   4.390
62186W        W33912  28.112  28.683   3.775
62187W        W33913  16.073  13.253  13.546
62188W        W33914   2.916  19.168  12.404
62189W        W33915  38.429  22.268  10.895
62190W        W33916  14.549  35.798   1.189
62191W        W33917  38.915  16.027   4.485
62192W        W33918  42.981  10.231  12.122
62193W        W33919  19.011  22.554  14.552
62194W        W33920   9.355  28.786  13.002
62195W        W33921  21.221  13.259   1.066
62196W        W33922  39.653  16.696  11.084
62197W        W33923  29.077  13.728  11.975
62198W        W33924   7.842  43.710   1.292
62199W        W33925  14.108   8.869  14.521
62200W        W33926  17.237  43.403  11.119
62201W        W33927   0.247  11.632   1.199
62202W        W33928  19.670   7.531  11.983
62203W        W33929  38.507  22.776   2.772
62204W        W33930  14.110  36.348  12.445
62205W        W33931   5.512  27.875   2.224
62206W        W33932  30.523   4.727   3.330
62207W        W33933   7.299  42.368   3.812
62208W        W33934  43.191  44.348  14.393
62209W        W33935  28.692   6.324  14.527
62210W        W33936   4.183  23.984  14.073
62211W        W33937  25.810  13.918   0.941
62212W        W33938  38.030   1.954  12.399
62213W        W33939  33.120   1.311   0.010
62214W        W33940   4.887  44.522   0.759
62215W        W33941  27.996  30.167  10.792
62216W        W33942  30.175  21.882  13.970
62217W        W33943   7.199  24.992   0.214
62218W        W33944   1.388  20.684  10.940
62219W        W33945   9.649   0.043   1.892
62220W        W33946  18.210  36.405  11.955
62221W        W33947  13.293   4.902   4.440
62222W        W33948  19.277  15.713   1.332
62223W        W33949  39.955  22.238   2.109
62224W        W33950  27.955  33.535  12.144
62225W        W33951  31.663  27.178  10.721
62226W        W33952   7.125  21.319  13.584
62227W        W33953  27.032   9.429  11.977
62228W        W33954   3.726  13.697  14.223
62229W        W33955  17.798  28.994  10.986
62230W        W33956  26.551  38.279   4.555
62231W        W33957  28.472  25.189   4.085
62232W        W33958   0.573  33.922  12.377
62233W        W33959  14.624   4.473   0.658
62234W        W33960  13.617  19.190   2.735
62235W        W33961  28.320  29.160   0.358
62236W        W33962  40.768  10.671   1.809
62237W        W33963  23.733  34.307   3.085
62238W        W33964  32.116   2.977  12.352
62239W        W33965   8.914   4.311  13.055
62240W        W33966   7.817  14.362   2.756
62241W        W33967   9.467  32.041   4.613
62242W        W33968   3.134  10.264  13.531
62243W        W33969   1.911   6.408  14.908
62244W        W33970  10.622  43.189  13.656
62245W        W33971  28.653  27.845  12.655
62246W        W33972  17.204  42.082  14.739
62247W        W33973  37.066  16.566  14.761
62248W        W33974  28.243   5.254  10.494
62249W        W33975  16.042  31.069   3.954
62250W        W33976  41.897  42.386   1.816
62251W        W33977  21.448  40.791  14.014
62252W        W33978  26.581  39.959   3.179
62253W        W33979  32.575  26.060   3.081
62254W        W33980  23.495   2.288  11.644
62255W        W33981  42.781  12.258   1.183
62256W        W33982   0.385  14.790  12.798
62257W        W33983  40.903   2.673   3.254
62258W        W33984  18.092  34.399   0.510
62259W        W33985  15.111  36.031   0.329
62260W        W33986  35.553  19.601   4.629
62261W        W33987   5.465  31.676   2.324
62262W        W33988  34.832  35.505   3.910
62263W        W33989  29.075  25.145   2.136
62264W        W33990  35.259  12.656  14.453
62265W        W33991  10.690  12.199   2.400
62266W        W33992   4.605   7.607  11.109
62267W        W33993  24.571  20.058  12.937
62268W        W33994  17.317  28.686   2.828
62269W        W33995  28.844  15.952  12.300
62270W        W33996  18.140  22.448   1.455
62271W        W33997  43.956  13.779   0.853
62272W        W33998   6.182  13.029   5.079
62273W        W33999  30.202  24.407  14.865
62274W        W34000   9.247  28.129   2.432
62275W        W34001  19.841  26.076   2.347
62276W        W34002   7.103   3.188   3.620
62277W        W34003  41.796  26.043  10.729
62278W        W34004   3.267  27.703   3.752
62279W        W34005  19.006  30.614   0.218
62280W        W34006  28.194  15.809   1.776
62281W        W34007  16.371  28.062   1.769
62282W        W34008  33.658  25.993   0.459
62283W        W34009  13.086  15.499   4.139
62284W        W34010  16.164   0.372  13.755
62285W        W34011  16.168  26.024   1.909
62286W        W34012  14.652  21.864   4.084
62287W        W34013  18.692  29.328  11.609
62288W        W34014  23.724  17.226  14.270
62289W        W34015  41.966   5.212   0.807
62290W        W34016  39.970   9.416   2.283
62291W        W34017   0.327  42.707   4.251
62292W        W34018   6.626  41.783  13.792
62293W        W34019   7.860  14.093   3.280
62294W        W34020  30.510   7.238   4.621
62295W        W34021  24.288   2.255   2.856
62296W        W34022  37.915  37.780  14.575
62297W        W34023  24.391  14.167  10.624
62298W        W34024  32.871  22.170  14.416
62299W        W34025   1.318  30.147   2.938
62300W        W34026  24.112  41.935  14.053
62301W        W34027   8.321  20.177  14.411
62302W        W34028   9.371  29.966  13.145
62303W        W34029  17.896  17.266  10.479
62304W        W34030   7.939  19.034  10.823
62305W        W34031  18.659   3.744  14.450
62306W        W34032  22.187   4.638  14.356
62307W        W34033  43.754  44.394  13.534
62308W        W34034  34.977  15.029  12.401
62309W        W34035   5.812  37.237  12.986
62310W        W34036  35.189  34.854   3.185
62311W        W34037  33.684  25.520   3.631
62312W        W34038  16.267  28.105  13.423
62313W        W34039   6.282  42.960   3.139
62314W        W34040   3.613   2.265  13.645
62315W        W34041  32.914   1.311  14.528
62316W        W34042  42.837   1.912   2.211
62317W        W34043   2.043  29.103  12.584
62318W        W34044  21.402  18.035   4.132
62319W        W34045  11.643  32.865  11.633
62320W        W34046   9.240  43.358  13.065
62321W        W34047   9.335   0.319  13.946
62322W        W34048  10.165  30.227   4.837
62323W        W34049  37.901  20.503   3.804
62324W        W34050  30.417  32.097   2.588
62325W        W34051  24.460  14.080  10.122
62326W        W34052   6.566  33.624   1.670
62327W        W34053  32.835  38.330  11.155
62328W        W34054  31.963  18.713   2.533
62329W        W34055  33.697  18.196   0.722
62330W        W34056  39.944  32.022  12.353
62331W        W34057  44.445  42.238  12.811
62332W        W34058  36.955  24.591   2.187
62333W        W34059  19.154  26.601  10.902
62334W        W34060   9.732   3.147   3.255
62335W        W34061  28.501  21.587   1.015
62336W        W34062  25.846  31.831  14.976
62337W        W34063  10.164  31.869   1.477
62338W        W34064   6.923   8.837  11.245
62339W        W34065   4.756  21.354  13.080
62340W        W34066  28.127  15.200  11.124
62341W        W34067  24.683  18.974  13.483
62342W        W34068  36.020   5.453  12.431
62343W        W34069   8.743  40.260   1.529
62344W        W34070  44.977  39.379  10.860
62345W        W34071   1.088  27.885   2.261
62346W        W34072  30.827  37.096   3.804
62347W        W34073  11.601  27.564  12.229
62348W        W34074   2.268  34.415  14.425
62349W        W34075  32.642   4.682  11.464
62350W        W34076   7.706  25.935  12.551
62351W        W34077   1.188  13.987  13.835
62352W        W34078   4.403  42.311   3.465
62353W        W34079   0.308  19.742  14.324
62354W        W34080  23.477  25.738  14.959
62355W        W34081   8.772   6.328   2.491
62356W        W34082  34.969   0.923  13.397
62357W        W34083  15.220   2.262   1.157
62358W        W34084  21.551   5.652  13.958
62359W        W34085  39.095  37.489  13.049
62360W        W34086  22.143  41.727  11.584
62361W        W34087  35.665  15.047   2.073
62362W        W34088  37.145  16.110  11.530
62363W        W34089  11.905  37.490   4.141
62364W        W34090  38.057  15.413   0.801
62365W        W34091  18.969  10.352  14.162
62366W        W34092  33.979  41.757   0.587
62367W        W34093  17.874  13.866   2.607
62368W        W34094  21.066   2.677   0.527
62369W        W34095   4.400   5.448  12.856
62370W        W34096  35.922  13.379  11.600
62371W        W34097  30.055  30.619   0.792
62372W        W34098  10.422  30.495  13.411
62373W        W34099  13.539  28.865   2.737
62374W        W34100  35.828  23.426   2.634
62375W        W34101  25.287  43.587   0.770
62376W        W34102  16.430  39.917   3.097
62377W        W34103  37.576  14.006   2.691
62378W        W34104  35.635   8.672   3.339
62379W        W34105  31.454  20.376  11.233
62380W        W34106  24.042   8.398  10.591
62381W        W34107   3.773  37.146  12.860
62382W        W34108   2.439  28.922  11.739
62383W        W34109  36.880  42.256  11.552
62384W        W34110  17.239  11.612  10.108
62385W        W34111   3.909   8.769   5.155
62386W        W34112  33.010  21.315  12.311
62387W        W34113  34.647  34.058   1.756
62388W        W34114  14.384  21.263  11.460
62389W        W34115  14.623  40.869  13.914
62390W        W34116   2.365   7.140   2.231
62391W        W34117  20.132  35.628   3.737
62392W        W34118   8.234  15.852  12.502
62393W        W34119  12.887  33.394   1.339
62394W        W34120  34.676   1.658   2.870
62395W        W34121  38.499  34.292   1.439
62396W        W34122   3.887   0.667   3.581
62397W        W34123  39.318   4.604   0.387
62398W        W34124  38.931   4.638   0.742
62399W        W34125   6.673  31.057  10.413
62400W        W34126  11.932  34.424   1.369
62401W        W34127   3.009   0.913   0.632
62402W        W34128  32.452  40.983   1.871
62403W        W34129  12.050  14.282   2.539
62404W        W34130  20.273  34.172  13.422
62405W        W34131  12.275  29.188   0.934
62406W        W34132  43.179   5.250   1.320
62407W        W34133  15.365  33.144   9.976
62408W        W34134  44.460  43.742   2.279
62409W        W34135  41.385  31.997  12.634
62410W        W34136  21.023  19.184  13.530
62411W        W34137   8.517   5.181   0.447
62412W        W34138  17.213   0.325   1.846
62413W        W34139   5.754  42.578   3.222
62414W        W34140  17.741   7.007  13.924
62415W        W34141   4.999  23.342   0.152
62416W        W34142   7.937  11.688  13.823
62417W        W34143  11.072   0.788  11.579
62418W        W34144   7.308  30.613  14.791
62419W        W34145   0.344  11.158  10.755
62420W        W34146  15.098  37.541   9.739
62421W        W34147   1.485  22.430   3.526
62422W        W34148  40.411   8.219  13.843
62423W        W34149  23.462  16.604   2.183
62424W        W34150  12.198  18.033   1.485
62425W        W34151  30.776  17.661  10.513
62426W        W34152   4.616  39.763   3.251
62427W        W34153  28.476  26.636   0.705
62428W        W34154  35.249   4.219  11.408
62429W        W34155  14.760  22.762  14.011
62430W        W34156  22.146  31.990   1.884
62431W        W34157  28.171  31.477   4.260
62432W        W34158   6.295  28.644   2.328
62433W        W34159   3.777  33.126   0.476
62434W        W34160   3.703   6.098   3.670
62435W        W34161  32.451  41.278  14.074
62436W        W34162   8.611  20.106   0.357
62437W        W34163   8.088   6.256  14.566
62438W        W34164   3.310  37.515   2.662
62439W        W34165  27.151  40.843  11.005
62440W        W34166  39.487  41.384  13.408
62441W        W34167  39.119  17.259  11.537
62442W        W34168   5.015  38.819  10.393
62443W        W34169  30.613  35.960  12.849
62444W        W34170   2.794  10.942  13.480
62445W        W34171   4.639  23.727  10.148
62446W        W34172  10.255   3.677   0.459
62447W        W34173  42.129  12.306  14.975
62448W        W34174  21.475  34.591  12.829
62449W        W34175   5.351  40.339  11.381
62450W        W34176  22.175  15.939   1.820
62451W        W34177  39.053  18.564  12.678
62452W        W34178   0.210  23.142  11.762
62453W        W34179  44.240   8.634  13.527
62454W        W34180  34.178   1.931  13.119
62455W        W34181  16.353   5.910   3.099
62456W        W34182   6.842  27.495   4.746
62457W        W34183  25.799   1.546   0.764
62458W        W34184  21.222  37.062  14.481
62459W        W34185  31.540  42.095  14.847
62460W        W34186   3.078  16.588   1.768
62461W        W34187  18.291  27.571   0.198
62462W        W34188  33.934  44.371   2.769
62463W        W34189  24.740   0.311   3.759
62464W        W34190  25.269  22.293   3.615
62465W        W34191   0.008  21.017   2.720
62466W        W34192  27.628  15.493   2.805
62467W        W34193  14.211  30.331   2.781
62468W        W34194  21.090  18.138  11.059
62469W        W34195   0.222  12.079  10.600
62470W        W34196  24.512  35.933  13.470
62471W        W34197  30.623  36.696  10.419
62472W        W34198  17.868  18.352  13.404
62473W        W34199  14.209  27.929   4.160
62474W        W34200  30.535  10.223   1.727
62475W        W34201  32.453  32.849   0.394
62476W        W34202  17.831  14.060   1.457
62477W        W34203  12.124  15.573   0.227
62478W        W34204   4.864  13.281  10.227
62479W        W34205   7.673  31.920   1.454
62480W        W34206   9.507  28.086  14.359
62481W        W34207   8.694  31.894   1.679
62482W        W34208  24.514  28.745  13.430
62483W        W34209  31.907   6.785   2.909
62484W        W34210  14.717  15.205  14.672
62485W        W34211  32.839  39.627  12.094
62486W        W34212   1.399  42.371   2.361
62487W        W34213  16.521   0.820  11.503
62488W        W34214  29.487  24.349  10.174
62489W        W34215  17.772  33.553  10.630
62490W        W34216  17.165  15.066  10.575
62491W        W34217   0.254  30.092   1.469
62492W        W34218  31.703   7.650  11.935
62493W        W34219  34.822  10.143   3.786
62494W        W34220   2.163  15.792  11.229
62495W        W34221  17.368  24.741  11.096
62496W        W34222  28.184  31.659  12.191
62497W        W34223  36.118  44.771   0.477
62498W        W34224  44.730  41.238  12.484
62499W        W34225  17.383  13.289   2.349
62500W        W34226   6.724  15.561  12.530
62501W        W34227  15.034   3.286  12.425
62502W        W34228  15.274   0.261  13.611
62503W        W34229  24.447  24.994  13.502
62504W        W34230  12.651  13.902  14.485
62505W        W34231  42.995   5.778   3.541
62506W        W34232   9.139   6.797   0.088
62507W        W34233  29.443   1.463  13.744
62508W        W34234  40.218  10.037   0.137
62509W        W34235   5.899  39.978   0.720
62510W        W34236  35.492  20.283   1.933
62511W        W34237   4.434   5.267  10.888
62512W        W34238  40.313   3.393  14.375
62513W        W34239  25.088  23.420  11.968
62514W        W34240  15.693  26.178   3.196
62515W        W34241  27.109  40.416   2.918
62516W        W34242  10.161  10.250  12.875
62517W        W34243  22.794  14.125   3.044
62518W        W34244  44.330  18.825   4.596
62519W        W34245  40.951  27.172   0.687
62520W        W34246  12.643  12.190  13.475
62521W        W34247  22.466   5.420   4.558
62522W        W34248   3.799  29.633   2.344
62523W        W34249  36.026  42.689  13.537
62524W        W34250  44.803   9.476   3.189
62525W        W34251  42.064  28.556  12.855
62526W        W34252  10.286  35.980  14.010
62527W        W34253   0.563  24.896  14.360
62528W        W34254  30.127  26.604  14.756
62529W        W34255   4.725  27.057  11.574
62530W        W34256  19.005  33.071   3.746
62531W        W34257  34.034  30.948  14.807
62532W        W34258  19.553  27.916   2.326
62533W        W34259   1.986  21.642   2.608
62534W        W34260  19.333   6.817   3.743
62535W        W34261  29.217  43.805  13.227
62536W        W34262   1.308  15.778  14.218
62537W        W34263  19.259  12.965  13.859
62538W        W34264  26.222  28.998  11.777
62539W        W34265   5.684  15.243  13.475
62540W        W34266  20.942  30.793   1.212
62541W        W34267  37.653  33.644   3.781
62542W        W34268   8.801  37.958   2.847
62543W        W34269  44.303  26.270   3.366
62544W        W34270  18.131  24.905   0.910
62545W        W34271  11.128  18.227  12.862
62546W        W34272   9.289   8.619   1.594
62547W        W34273   0.500  20.183  11.601
62548W        W34274  11.673  24.305  14.958
62549W        W34275  36.435  36.591   4.169
62550W        W34276   7.362  36.657  13.284
62551W        W34277  37.018   1.304  14.506
62552W        W34278  26.996  38.210   0.281
62553W        W34279  29.697  42.317  10.915
62554W        W34280  38.543  41.486   1.676
62555W        W34281   3.969   1.640  11.657
62556W        W34282  23.956  25.497  14.978
62557W        W34283  32.893  36.515  14.850
62558W        W34284  23.051  41.658  11.466
62559W        W34285  39.706  39.287   1.191
62560W        W34286  37.933   7.817   3.177
62561W        W34287  20.530  32.363   2.866
62562W        W34288   3.278  44.420  10.136
62563W        W34289  28.857  42.289  14.966
62564W        W34290  39.079  10.276  14.052
62565W        W34291  26.581  25.595  10.594
62566W        W34292  17.596  33.675  13.371
62567W        W34293  39.405  23.768   1.364
62568W        W34294  16.318  11.805   3.264
62569W        W34295  19.238   1.658  13.980
62570W        W34296  22.148  14.606   2.142
62571W        W34297   5.247  32.131  12.425
62572W        W34298  17.177  14.125   3.633
62573W        W34299  40.902  31.550   3.328
62574W        W34300  39.785   7.632  11.056
62575W        W34301  42.147  31.033  14.278
62576W        W34302  34.018  11.638  12.872
62577W        W34303  34.955   1.763  11.431
62578W        W34304   6.644  17.263  10.724
62579W        W34305   2.858   3.267  13.629
62580W        W34306  35.055  10.758  14.878
62581W        W34307  27.783  44.997  10.662
62582W        W34308  12.385   4.801  11.649
62583W        W34309  25.013   9.080   2.752
62584W        W34310  42.278  41.091   2.784
62585W        W34311  42.377  41.441   4.410
62586W        W34312   6.433  36.730  12.438
62587W        W34313  26.691  33.578  12.967
62588W        W34314  13.773  38.387  13.414
62589W        W34315  10.765  10.005   2.556
62590W        W34316  26.818   6.274  10.821
62591W        W34317  21.254  39.954  11.486
62592W        W34318  22.074  14.168  13.025
62593W        W34319   8.684  20.753  14.268
62594W        W34320  12.309  13.615   3.702
62595W        W34321   7.646   2.385   1.356
62596W        W34322  36.090  14.481   2.748
62597W        W34323  36.114  29.553   4.144
62598W        W34324  13.873  38.407   1.329
62599W        W34325   8.219  20.951  13.856
62600W        W34326  34.882  31.114   2.676
62601W        W34327  36.193   9.770  12.963
62602W        W34328  12.993  35.556   5.100
62603W        W34329  20.481  19.611   1.429
62604W        W34330  30.065  32.363  14.242
62605W        W34331  38.531  16.038  10.431
62606W        W34332  25.011  13.060  12.606
62607W        W34333  31.430  40.410  13.836
62608W        W34334  28.037  14.677  11.204
62609W        W34335  39.564  35.928  12.080
62610W        W34336  33.522  29.720   0.511
62611W        W34337  36.556  11.770   1.819
62612W        W34338  13.339  14.025  13.994
62613W        W34339  43.905  27.956  14.728
62614W        W34340  29.172   2.255   1.312
62615W        W34341   0.422  30.326  14.012
62616W        W34342  26.597  21.389  12.619
62617W        W34343  44.893  36.396   1.872
62618W        W34344   9.508   2.341   2.835
62619W        W34345  20.801   6.344  13.991
62620W        W34346  10.346  34.689  14.357
62621W        W34347  12.403   9.640   4.154
62622W        W34348   3.299  11.322   1.809
62623W        W34349   6.813  43.250  14.987
62624W        W34350  39.436  20.063  11.516
62625W        W34351  28.046  15.616  14.983
62626W        W34352  32.980  19.164   1.717
62627W        W34353   9.553  21.283   3.801
62628W        W34354  42.541   3.466  11.616
62629W        W34355  39.036   2.369   9.991
62630W        W34356  21.930  34.905   2.554
62631W        W34357  14.157  23.539   4.470
62632W        W34358  44.729   1.773   1.259
62633W        W34359  12.831  35.206  11.617
62634W        W34360  11.416  27.591   2.409
62635W        W34361  39.808  16.068  13.592
62636W        W34362   6.360  43.343   2.294
62637W        W34363  44.290   9.172  12.056
62638W        W34364  30.180   9.676  12.198
62639W        W34365   5.440   0.477  10.336
62640W        W34366   5.453  41.324  13.041
62641W        W34367  37.608  34.474   1.886
62642W        W34368  14.116  43.388  12.527
62643W        W34369  28.042  15.533   3.127
62644W        W34370  44.068  29.946  13.779
62645W        W34371  39.498  18.208   3.160
62646W        W34372  31.196  20.493  14.991
62647W        W34373  10.820  32.695  14.824
62648W        W34374  12.733  37.130   3.118
62649W        W34375  37.414  22.761   5.044
62650W        W34376  40.979   2.389  11.136
62651W        W34377  42.361  26.702  13.245
62652W        W34378  20.353  26.675  10.027
62653W        W34379  27.867  21.304  12.024
62654W        W34380  20.078  19.090  11.602
62655W        W34381   6.937  20.391   1.748
62656W        W34382   9.218  13.292  11.233
62657W        W34383   2.649   7.889  12.051
62658W        W34384  40.988  21.090   1.381
62659W        W34385  20.795  15.625  13.037
62660W        W34386  44.876   9.929   4.279
62661W        W34387  16.585  22.860  13.870
62662W        W34388  29.448  22.136  10.667
62663W        W34389  40.641  35.873  10.614
62664W        W34390  28.999  13.245   2.322
62665W        W34391   4.188  26.957   0.283
62666W        W34392  17.338  41.509   3.184
62667W        W34393  40.924  26.425   2.801
62668W        W34394   7.589   8.504   0.408
62669W        W34395  14.438   1.642   0.887
62670W        W34396   1.659  13.772  14.768
62671W        W34397   6.371  39.091  13.432
62672W        W34398  22.701   1.289   1.173
62673W        W34399   3.384  37.482  12.799
62674W        W34400  38.805   9.121   0.914
62675W        W34401  22.572  16.729   3.684
62676W        W34402  37.426   2.357  10.436
62677W        W34403   7.934  10.751  13.270
62678W        W34404  40.109   8.701   3.701
62679W        W34405  40.885   4.488   2.549
62680W        W34406  44.302   7.649  10.586
62681W        W34407  15.910  22.055  13.290
62682W        W34408   9.215  31.611   2.749
62683W        W34409   6.379   0.400   1.675
62684W        W34410   3.268  36.488  13.597
62685W        W34411  14.651   0.962  13.370
62686W        W34412  25.679  38.015  14.299
62687W        W34413  38.464  40.510  10.702
62688W        W34414  19.242   2.186  14.063
62689W        W34415  43.804  36.076   1.311
62690W        W34416  12.903   2.662  11.544
62691W        W34417   1.064  28.434  14.359
62692W        W34418  14.871  16.041  11.910
62693W        W34419  41.371  21.235   3.228
62694W        W34420   7.365  12.623  10.726
62695W        W34421  24.528  11.354  13.005
62696W        W34422   5.853   5.870  11.606
62697W        W34423  22.549   0.251  12.584
62698W        W34424  24.661  16.245   0.811
62699W        W34425  16.362  36.391   1.420
62700W        W34426   6.103  41.865   4.104
62701W        W34427  30.948  17.093   0.553
62702W        W34428  33.340  13.243  12.614
62703W        W34429  39.394  26.128   4.605
62704W        W34430  42.399  23.732  14.097
62705W        W34431  39.466  23.523  13.508
62706W        W34432   2.067  37.884  12.560
62707W        W34433  29.803  10.112   0.471
62708W        W34434  44.284  44.697   3.285
62709W        W34435   7.984   0.790  14.905
62710W        W34436   9.570  35.193  13.380
62711W        W34437  29.281  25.059  11.916
62712W        W34438  12.725  39.073   1.320
62713W        W34439  27.494  12.885   3.810
62714W        W34440  13.772  35.399   0.226
62715W        W34441  28.919   3.458  12.961
62716W        W34442   2.194  13.634  10.452
62717W        W34443   7.660  42.361  10.873
62718W        W34444  11.908   9.698   3.274
62719W        W34445  21.990   9.826   0.336
62720W        W34446  44.908  23.036  14.288
62721W        W34447  36.012   0.240   4.081
62722W        W34448  26.109  17.032  11.899
62723W        W34449  13.018  20.064  12.001
62724W        W34450   0.841  34.847  12.792
62725W        W34451  19.486  33.770   0.967
62726W        W34452  17.279  33.482  13.921
62727W        W34453  17.200  14.331   3.102
62728W        W34454  10.288  44.793   3.370
62729W        W34455  16.622  24.919   4.765
62730W        W34456   9.195  36.588  12.580
62731W        W34457  11.416   0.843  13.449
62732W        W34458  43.710  26.579   3.752
62733W        W34459  18.639  14.810  13.119
62734W        W34460   2.403  14.976  11.505
62735W        W34461  25.875  18.325   1.212
62736W        W34462  25.196   1.555   5.403
62737W        W34463  20.728  24.492   3.262
62738W        W34464  22.977  28.655  10.515
62739W        W34465   5.117  37.990  13.943
62740W        W34466  18.054  44.886   1.489
62741W        W34467  38.036   7.580  14.893
62742W        W34468  10.703  23.597   4.015
62743W        W34469  16.994  18.672  14.517
62744W        W34470  37.352   4.424   4.301
62745W        W34471  18.140  12.865  10.516
62746W        W34472  33.875  30.684   3.568
62747W        W34473   9.951  41.309  12.860
62748W        W34474  37.008  21.140  14.967
62749W        W34475  10.733   1.772  12.507
62750W        W34476  29.946  29.696   2.238
62751W        W34477  30.669  31.671  11.960
62752W        W34478  28.478  41.582  14.412
62753W        W34479  17.629  40.727   0.371
62754W        W34480   7.362  28.641   4.624
62755W        W34481   1.402  22.771  11.505
62756W        W34482  28.955  14.973  12.125
62757W        W34483  14.875   2.451  10.724
62758W        W34484  20.498  28.724  12.487
62759W        W34485  44.875  33.689  14.568
62760W        W34486   9.630  21.800  10.948
62761W        W34487  21.770  12.354  14.128
62762W        W34488   0.516  38.942   1.340
62763W        W34489  33.796  16.514   3.265
62764W        W34490  34.976  12.110  14.561
62765W        W34491   0.396  38.061   4.584
62766W        W34492  19.384   2.540   1.751
62767W        W34493  40.715  32.546  12.444
62768W        W34494  18.359  44.880  13.042
62769W        W34495  17.437  12.520   1.698
62770W        W34496  14.250  31.958  10.648
62771W        W34497  19.138  14.087  11.772
62772W        W34498   6.933  17.461   4.387
62773W        W34499  26.041   0.931   2.886
62774W        W34500  21.149  28.467   0.443
62775W        W34501  10.410  44.970  14.986
62776W        W34502   8.758  15.812   1.588
62777W        W34503  11.778  32.653   3.588
62778W        W34504  23.952  21.030  12.880
62779W        W34505  24.566  10.190  10.849
62780W        W34506  43.721  33.441  13.354
62781W        W34507  44.003   5.146   3.890
62782W        W34508  34.301  43.780   0.840
62783W        W34509  29.581  24.989   3.364
62784W        W34510   8.862   6.858  12.317
62785W        W34511  35.119  41.354  12.845
62786W        W34512  32.528  40.760   2.914
62787W        W34513  32.589   1.258   3.367
62788W        W34514  23.492  40.429  13.419
62789W        W34515  10.334   5.569  10.268
62790W        W34516  10.755  19.158   3.445
62791W        W34517  35.147  25.869   2.408
62792W        W34518  36.373  26.703   0.874
62793W        W34519  19.726  17.872   2.715
62794W        W34520  43.136  18.293   3.324
62795W        W34521  12.906  33.183  12.975
62796W        W34522  31.435   0.691   3.293
62797W        W34523  32.830  26.149   2.652
62798W        W34524   5.462   0.094  14.816
62799W        W34525  39.860  27.013   2.833
62800W        W34526  24.222  44.851   4.466
62801W        W34527  40.528   5.318  11.451
62802W        W34528   4.758  34.392   4.349
62803W        W34529   4.804  32.628  10.623
62804W        W34530  43.787  31.951  13.893
62805W        W34531   5.317  11.250  12.133
62806W        W34532  25.685  38.234   0.571
62807W        W34533   0.267  23.980  12.630
62808W        W34534  35.069  21.619  12.132
62809W        W34535  17.290  23.185   4.759
62810W        W34536   8.313  30.543  12.996
62811W        W34537  43.260  34.959  13.925
62812W        W34538   4.247  32.999   1.076
62813W        W34539  37.088   6.865   4.161
62814W        W34540  34.982  19.729   2.823
62815W        W34541  22.866  24.973   2.370
62816W        W34542  28.313  23.656  13.838
62817W        W34543  14.143  38.404   1.808
62818W        W34544   7.710  26.191  13.426
62819W        W34545  19.925  14.714  12.798
62820W        W34546  34.953  42.987  11.905
62821W        W34547   9.805  28.054  12.873
62822W        W34548  23.609   1.087   0.416
62823W        W34549  15.784  41.343   3.779
62824W        W34550   1.811   7.651   4.537
62825W        W34551   3.277   6.416  14.203
62826W        W34552   9.171  12.322  14.101
62827W        W34553  21.441  16.733   3.853
62828W        W34554  38.399  33.828  11.453
62829W        W34555  22.024  39.613  13.668
62830W        W34556  36.721   8.577  11.029
62831W        W34557  35.305  29.533   4.633
62832W        W34558  30.294  37.608   4.713
62833W        W34559  38.783   5.834  14.957
62834W        W34560  28.514   9.113   1.871
62835W        W34561  43.226  35.461  14.460
62836W        W34562   4.051  13.118   4.458
62837W        W34563   6.680  14.327  11.441
62838W        W34564  12.199   9.641  13.894
62839W        W34565  35.623  37.069  14.803
62840W        W34566   6.129  36.352  13.021
62841W        W34567   4.171  36.416   3.662
62842W        W34568  25.051  24.853   0.301
62843W        W34569   5.765   2.962   4.561
62844W        W34570  37.471  21.562  13.363
62845W        W34571   4.736   7.292  11.515
62846W        W34572  13.001  44.444   3.783
62847W        W34573  13.586  39.523   0.698
62848W        W34574  27.385   3.077  12.643
62849W        W34575   4.965   9.184  14.897
62850W        W34576   2.179  15.272  13.785
62851W        W34577   8.429  34.077  11.723
62852W        W34578  10.336  15.341   1.660
62853W        W34579   3.354   6.386   1.739
62854W        W34580  16.067   5.664  13.311
62855W        W34581  13.386   4.668  11.518
62856W        W34582  17.165  19.658  10.755
62857W        W34583  32.770  40.831  10.609
62858W        W34584  40.555  34.340   3.193
62859W        W34585  11.247  44.516  12.405
62860W        W34586  13.851  34.919  12.111
62861W        W34587  17.616  39.709   2.801
62862W        W34588  35.280   6.045   2.337
62863W        W34589  31.013  27.155  13.877
62864W        W34590  23.219  38.935   4.288
62865W        W34591   2.443  35.970  14.208
62866W        W34592  17.300  33.918   4.882
62867W        W34593   4.008  42.169  14.870
62868W        W34594  37.620  41.804   2.205
62869W        W34595  32.835  20.688   2.151
62870W        W34596  21.067   7.785  10.588
62871W        W34597   1.158  37.545   1.248
62872W        W34598  10.286  27.899  13.878
62873W        W34599  30.976  18.941   3.741
62874W        W34600  33.509  25.871  10.099
62875W        W34601  33.575   7.927   4.922
62876W        W34602  18.797  15.642  14.578
62877W        W34603  17.554  18.552  13.954
62878W        W34604  34.734  39.598   4.324
62879W        W34605  17.686  21.210   0.338
62880W        W34606  16.181  17.455   2.193
62881W        W34607  22.559  24.045  13.342
62882W        W34608   8.682  13.055  14.005
62883W        W34609  40.153  37.418  14.390
62884W        W34610  41.212  21.347   0.924
62885W        W34611  41.856   5.420  12.657
62886W        W34612   9.713  42.023  10.660
62887W        W34613  20.980  38.999  13.485
62888W        W34614   6.689   2.279   0.376
62889W        W34615  33.704  40.481  13.325
62890W        W34616  27.398  43.188  11.824
62891W        W34617  42.895  32.682  13.094
62892W        W34618   4.012  27.714   0.398
62893W        W34619   5.624  24.883   2.882
62894W        W34620  16.098  13.760   2.147
62895W        W34621   7.223  12.152  14.952
62896W        W34622  10.719  30.629  11.616
62897W        W34623  11.764  42.802  14.420
62898W        W34624  20.242  32.984   0.020
62899W        W34625   2.515  38.046   4.112
62900W        W34626  38.050  13.706  14.729
62901W        W34627  17.988  13.178   4.184
62902W        W34628  19.092  40.990   4.856
62903W        W34629  29.076  11.856   3.733
62904W        W34630  40.484   5.265  12.928
62905W        W34631  14.010  44.352   0.570
62906W        W34632  40.477   9.468  12.040
62907W        W34633  41.052  20.221  10.865
62908W        W34634  33.827  11.555  10.789
62909W        W34635  37.093  40.261   4.925
62910W        W34636  25.167  35.792  12.011
62911W        W34637  28.553  25.980   1.899
62912W        W34638  17.156  38.338   0.993
62913W        W34639  25.678  22.653   4.089
62914W        W34640  11.766  10.174   3.383
62915W        W34641  16.808   3.738  14.021
62916W        W34642  26.064  25.967  12.847
62917W        W34643   8.767  10.263   0.230
62918W        W34644  32.722  17.774   1.655
62919W        W34645   9.510  24.321   0.837
62920W        W34646  16.471  32.523  11.173
62921W        W34647  11.217  43.455   3.633
62922W        W34648  23.074  19.141   4.062
62923W        W34649  22.033   1.747  10.706
62924W        W34650  39.478  24.158  10.885
62925W        W34651  16.853  42.025  13.936
62926W        W34652   8.096   0.742   2.462
62927W        W34653  11.344  37.114  10.412
62928W        W34654  10.785  17.075  12.891
62929W        W34655  41.886   8.153   1.352
62930W        W34656  34.243  33.063   3.797
62931W        W34657  29.469   2.301   3.364
62932W        W34658   4.182  27.599   2.179
62933W        W34659  13.870  23.553   2.701
62934W        W34660  19.563  19.731  12.923
62935W        W34661  27.543   0.688  13.476
62936W        W34662  32.104  42.372  12.907
62937W        W34663   1.383   1.412   3.584
62938W        W34664  34.235  33.921   2.487
62939W        W34665  24.049   5.438  11.631
62940W        W34666  12.667  34.405   0.530
62941W        W34667   9.244  42.384   2.884
62942W        W34668  44.293  17.503  10.597
62943W        W34669  32.183  31.643   4.331
62944W        W34670  14.777  24.522  14.479
62945W        W34671  33.009  23.980   3.783
62946W        W34672  38.945  15.668  12.221
62947W        W34673   3.333  42.761  13.347
62948W        W34674  23.639  25.493   0.988
62949W        W34675  36.466  24.508   2.372
62950W        W34676  20.631  39.492   1.743
62951W        W34677  30.612  19.446   0.375
62952W        W34678   5.427  17.366   2.441
62953W        W34679  41.115  12.318  14.849
62954W        W34680   2.823  20.484   4.408
62955W        W34681  44.210  16.450   3.346
62956W        W34682  23.574  35.443  10.784
62957W        W34683  20.312  43.884   4.658
62958W        W34684  25.255   8.494   1.976
62959W        W34685  28.280   1.454  12.875
62960W        W34686   8.030  13.031  10.245
62961W        W34687  35.040  40.294   4.169
62962W        W34688  25.659  13.647   0.403
62963W        W34689  27.999  36.547  12.035
62964W        W34690  17.764   5.771  13.557
62965W        W34691   3.806  29.112  11.187
62966W        W34692  19.064   5.336  12.425
62967W        W34693  35.408  26.980   0.979
62968W        W34694  41.526  15.064   3.810
62969W        W34695   3.683  23.222  11.397
62970W        W34696  18.950  22.095   2.634
62971W        W34697  36.775  15.087  14.999
62972W        W34698  34.602  17.242   0.753
62973W        W34699  25.890  41.588  13.295
62974W        W34700  13.186  16.678   0.854
62975W        W34701   7.889  44.666  11.060
62976W        W34702  19.787  30.137  14.773
62977W        W34703  29.395  27.995   2.763
62978W        W34704  44.205  11.152  13.895
62979W        W34705   5.859  15.612  12.325
62980W        W34706  27.091  42.864  13.118
62981W        W34707  33.020  18.145  14.468
62982W        W34708  10.889  15.832   1.632
62983W        W34709  22.074   2.452  14.967
62984W        W34710  36.484  10.596  13.498
62985W        W34711  39.337   8.728  12.411
62986W        W34712  12.339  10.968  11.090
62987W        W34713  10.619  16.535  11.097
62988W        W34714  37.973   8.989  12.610
62989W        W34715  24.197  33.089  13.178
62990W        W34716   5.741  30.124  13.787
62991W        W34717   2.907  44.081  13.879
62992W        W34718   8.393  21.598  12.412
62993W        W34719  42.778  21.181   3.185
62994W        W34720   7.208   1.407  14.645
62995W        W34721  11.725  44.218   1.036
62996W        W34722  31.843  16.749   1.788
62997W        W34723  21.280   9.103   9.867
62998W        W34724   6.473  33.626   2.417
62999W        W34725  32.579  33.373  10.423
63000W        W34726  42.518  24.224   2.733
63001W        W34727  26.797  44.266   1.358
63002W        W34728  29.522   8.435   2.741
63003W        W34729   5.776  24.484  14.922
63004W        W34730  28.532  31.220   1.785
63005W        W34731  14.664  23.051  10.451
63006W        W34732  12.788  20.267   3.346
63007W        W34733  13.721  40.627   4.748
63008W        W34734  31.558  25.006  10.598
63009W        W34735   2.953   1.289  14.804
63010W        W34736  16.683   4.347   1.964
63011W        W34737  10.420  30.593  12.053
63012W        W34738  20.845   6.843   1.167
63013W        W34739  40.538  27.948   2.206
63014W        W34740   6.381  13.603  14.623
63015W        W34741  18.627  39.580  12.106
63016W        W34742  34.628  30.503  11.056
63017W        W34743  28.473  43.334  13.073
63018W        W34744  23.616  22.024   4.908
63019W        W34745   8.404   3.851  11.265
63020W        W34746  24.726  35.558   3.606
63021W        W34747  18.213  31.537   1.878
63022W        W34748  38.832  27.073  14.915
63023W        W34749  41.108  16.663   3.072
63024W        W34750  11.374  42.390  12.820
63025W        W34751  29.546  21.566   3.700
63026W        W34752  43.951  40.908   4.694
63027W        W34753   1.190  40.387  12.520
63028W        W34754  18.259  34.926   1.382
63029W        W34755   8.857  15.517  13.017
63030W        W34756   4.312  26.163  12.341
63031W        W34757   9.331  28.517  12.541
63032W        W34758  20.055  31.666   1.344
63033W        W34759  24.302  39.428  11.133
63034W        W34760  36.783  26.470   4.296
63035W        W34761  15.133   7.034   3.854
63036W        W34762  30.656  29.239   1.956
63037W        W34763  34.434  28.358   3.848
63038W        W34764  15.220  15.093   4.709
63039W        W34765  40.420   6.996   0.368
63040W        W34766  27.314  41.702  12.066
63041W        W34767  25.562  29.197   1.264
63042W        W34768  17.013  16.650  13.910
63043W        W34769  18.555   5.699   3.714
63044W        W34770  36.094  21.292  13.425
63045W        W34771   4.737  32.471  11.196
63046W        W34772   8.811  15.050  12.852
63047W        W34773  14.756  26.970  12.624
63048W        W34774  20.052  13.532  14.015
63049W        W34775  16.752   4.285  10.702
63050W        W34776  18.701  24.070  12.928
63051W        W34777   4.855  24.007   1.230
63052W        W34778   9.916  31.931  13.991
63053W        W34779  22.036  17.487  14.437
63054W        W34780  21.804  21.147   1.411
63055W        W34781   8.800  20.702   1.961
63056W        W34782  21.097   6.132  12.021
63057W        W34783  26.167  30.215  13.560
63058W        W34784  22.537   4.405  13.574
63059W        W34785  20.543   4.908  14.842
63060W        W34786  19.677   9.393  11.400
63061W        W34787  33.780  14.894  12.142
63062W        W34788   0.481   9.498   0.299
63063W        W34789  10.714  20.799   1.455
63064W        W34790  33.238  21.426   3.141
63065W        W34791  32.420  24.022  14.256
63066W        W34792   5.809   4.038   2.435
63067W        W34793  22.511   8.911   0.445
63068W        W34794  41.275   9.255  10.773
63069W        W34795   4.494  16.655   5.118
63070W        W34796   5.670  17.886   0.235
63071W        W34797  15.572  40.758   1.298
63072W        W34798   5.295  43.331   0.899
63073W        W34799  22.117  31.346   3.365
63074W        W34800  36.720   9.940   3.187
63075W        W34801  44.428   9.657  14.882
63076W        W34802   1.594   5.855   4.109
63077W        W34803   8.920  36.140   4.194
63078W        W34804  21.726  35.554   3.360
63079W        W34805   2.404  18.176   1.889
63080W        W34806  32.060  17.575  14.478
63081W        W34807  23.693  42.454  11.008
63082W        W34808  38.916   2.975   1.280
63083W        W34809  20.900  26.202   3.259
63084W        W34810  30.120  30.664  10.664
63085W        W34811  42.355   5.774   4.094
63086W        W34812  12.720  35.920  14.629
63087W        W34813  38.612  36.119   3.671
63088W        W34814  15.869  24.191   3.635
63089W        W34815  18.766  40.063  12.005
63090W        W34816  33.600  26.221   0.921
63091W        W34817  26.277  24.060   1.152
63092W        W34818  26.131  17.334   0.349
63093W        W34819  23.158  19.809  13.882
63094W        W34820  39.346  10.274  12.145
63095W        W34821  38.495  15.328  11.115
63096W        W34822  24.392  21.548   1.649
63097W        W34823  15.822  36.644   0.357
63098W        W34824  34.007   5.378  10.648
63099W        W34825  38.499  26.733   1.267
63100W        W34826  40.643  43.964  14.100
63101W        W34827   6.194   8.947   4.270
63102W        W34828  20.550  42.493  10.594
63103W        W34829  19.595  25.530  11.081
63104W        W34830  37.633   2.377   2.945
63105W        W34831  32.609  11.056  12.591
63106W        W34832  22.226  34.483  14.346
63107W        W34833  10.267  20.321   4.688
63108W        W34834  28.839   9.604   1.538
63109W        W34835   9.427  23.679   0.765
63110W        W34836   0.908  14.861  12.885
63111W        W34837   7.871  33.468   1.441
63112W        W34838  44.087  22.670  10.996
63113W        W34839   3.119  12.742   1.789
63114W        W34840  20.750  29.095   4.027
63115W        W34841  24.455  37.393   3.654
63116W        W34842  21.611  18.660   0.190
63117W        W34843  25.628  37.263   2.170
63118W        W34844  30.975   0.275  12.065
63119W        W34845   0.354  37.080  12.773
63120W        W34846  34.650   8.117   0.915
63121W        W34847  32.518  20.035   4.656
63122W        W34848  38.217   2.409   0.299
63123W        W34849  17.505  32.973   2.658
63124W        W34850  24.537   7.744   4.800
63125W        W34851   1.493  29.962   4.695
63126W        W34852   2.364  36.361   0.041
63127W        W34853  40.310  10.424   1.888
63128W        W34854  32.703   7.644  12.556
63129W        W34855  44.943  41.444  12.023
63130W        W34856  34.023  41.876   1.084
63131W        W34857   3.461  19.585  12.396
63132W        W34858  22.541   4.455   2.882
63133W        W34859   2.027   2.185   1.309
63134W        W34860  23.857  31.087   0.356
63135W        W34861   1.997  34.829  12.278
63136W        W34862  31.151  31.112  11.270
63137W        W34863  32.349  41.063   5.448
63138W        W34864  39.195   9.331  13.469
63139W        W34865  31.539  35.597  10.615
63140W        W34866  31.414  12.423  12.991
63141W        W34867  27.637  28.240   1.129
63142W        W34868   1.981   8.891  12.916
63143W        W34869  12.161  16.849   0.300
63144W        W34870  43.470  36.056  13.556
63145W        W34871   5.524  25.161  11.652
63146W        W34872  25.147  36.850  14.798
63147W        W34873   5.389  13.362   5.039
63148W        W34874   9.182   7.420  11.531
63149W        W34875  10.747  28.599   4.691
63150W        W34876  16.675  40.088  11.880
63151W        W34877  31.069  37.312  13.301
63152W        W34878   8.250  38.444  14.708
63153W        W34879  34.449  30.074  13.371
63154W        W34880  27.008   5.913   0.378
63155W        W34881  41.025  32.433   2.788
63156W        W34882  31.779   4.347  14.977
63157W        W34883  35.893  31.408   2.785
63158W        W34884  40.925   7.695  13.305
63159W        W34885  42.382  30.632   1.871
63160W        W34886   4.559  37.801   0.351
63161W        W34887  37.541  17.059   1.712
63162W        W34888  35.139  33.502   2.213
63163W        W34889  28.589  23.757  13.334
63164W        W34890   3.266   3.965   3.143
63165W        W34891   9.195  31.500   0.925
63166W        W34892  13.536  32.889   2.272
63167W        W34893  40.161  24.915   1.470
63168W        W34894  39.872  32.164   0.436
63169W        W34895  11.788  18.469  12.361
63170W        W34896  22.667   6.204  13.315
63171W        W34897   0.247   0.454   0.856
63172W        W34898  15.704  14.249   3.799
63173W        W34899  21.781  16.602  14.919
63174W        W34900  15.820  37.717   5.268
63175W        W34901  40.780  27.043  14.259
63176W        W34902  34.808  33.599  11.294
63177W        W34903  15.218  17.827  12.812
63178W        W34904  38.636  36.298  12.503
63179W        W34905   0.840  18.042   0.966
63180W        W34906  11.102   1.434   0.190
63181W        W34907  33.439  21.024  12.049
63182W        W34908  14.225  37.326   4.665
63183W        W34909  31.548  41.393   1.263
63184W        W34910  28.343  26.981  13.845
63185W        W34911  14.699  18.771  13.995
63186W        W34912  42.792  25.066  12.489
63187W        W34913  14.103   9.303  10.604
63188W        W34914   3.017  36.810  14.013
63189W        W34915  18.224   9.625  12.667
63190W        W34916  37.890   8.201   0.708
63191W        W34917   5.202  37.130   1.439
63192W        W34918  35.593   4.231   1.799
63193W        W34919   7.256  35.012   4.313
63194W        W34920  20.945  17.277   3.597
63195W        W34921  40.839  40.395   4.118
63196W        W34922  35.126  33.360  14.980
63197W        W34923  30.608  29.511  11.136
63198W        W34924  30.375  18.773   4.280
63199W        W34925  20.758   4.012  11.998
63200W        W34926  36.557   0.398  14.928
63201W        W34927   2.317   6.393  12.802
63202W        W34928  23.954  29.590  13.797
63203W        W34929  41.409  22.934  12.934
63204W        W34930  37.701  36.095  11.959
63205W        W34931   1.240  23.954   4.169
63206W        W34932   2.161  20.091  14.901
63207W        W34933  44.545  38.198   3.063
63208W        W34934   4.866  24.902  13.341
63209W        W34935   1.811  42.978  13.401
63210W        W34936  26.285  16.525  14.915
63211W        W34937  25.766  12.345  13.505
63212W        W34938   4.754  35.177  10.685
63213W        W34939  26.707   2.014  10.445
63214W        W34940  29.573  37.937   3.228
63215W        W34941  30.617  41.517  14.872
63216W        W34942   9.858   5.491  10.789
63217W        W34943   0.050  22.532  14.294
63218W        W34944  39.400  27.291   0.267
63219W        W34945  34.376  22.799   4.088
63220W        W34946  38.822   9.745  11.454
63221W        W34947  11.234  19.524   0.269
63222W        W34948  40.245  31.144  12.429
63223W        W34949  10.476  29.529   4.106
63224W        W34950  37.598  14.684   3.305
63225W        W34951  41.498   8.667   4.005
63226W        W34952  32.456  11.604   0.377
63227W        W34953  24.510  32.034   1.075
63228W        W34954   3.823  32.986  11.141
63229W        W34955  34.766  31.972  14.023
63230W        W34956  42.550  30.370  12.836
63231W        W34957  30.054  43.532  10.348
63232W        W34958  34.894  10.047  11.551
63233W        W34959  23.467   1.312  12.044
63234W        W34960  10.647  27.950   3.431
63235W        W34961  38.344  24.723   1.517
63236W        W34962  21.533  38.962  13.494
63237W        W34963  34.324  32.573   3.983
63238W        W34964  16.813  23.055   3.176
63239W        W34965  35.452   5.435   1.591
63240W        W34966  26.074   8.334  11.146
63241W        W34967  11.153  42.858  12.854
63242W        W34968  32.666  43.108   4.058
63243W        W34969   0.867  41.297  11.179
63244W        W34970  17.720  18.554   1.270
63245W        W34971  21.599  29.527   2.727
63246W        W34972   3.329  27.070  10.867
63247W        W34973  43.533  36.965  13.337
63248W        W34974   3.207   4.401   3.460
63249W        W34975  40.508   4.290  14.442
63250W        W34976  30.109  33.825   0.660
63251W        W34977  19.366   7.790   3.719
63252W        W34978  27.918  38.303  10.971
63253W        W34979   2.935  37.008   3.834
63254W        W34980  43.507   3.642   1.900
63255W        W34981  38.889   5.440   3.050
63256W        W34982   6.411  22.813   3.746
63257W        W34983   1.005  38.291  12.507
63258W        W34984  34.861  16.080  14.233
63259W        W34985  38.041  26.182   4.796
63260W        W34986  25.481  31.419   3.843
63261W        W34987  29.876  40.272  12.911
63262W        W34988   7.660  24.553  11.001
63263W        W34989   3.926  18.100  13.929
63264W        W34990  35.642  36.067   2.751
63265W        W34991  16.581  38.558  12.854
63266W        W34992  14.606  31.028   4.568
63267W        W34993  32.141   6.339   2.826
63268W        W34994  44.374  10.413   2.742
63269W        W34995  20.619  31.842  12.389
63270W        W34996  35.895   6.386  14.937
63271W        W34997  11.059  40.595   4.563
63272W        W34998  36.666  17.805   1.646
63273W        W34999  28.252  39.306  13.357
63274W        W35000  23.051  20.972   2.703
63275W        W35001  40.385  23.511   1.329
63276W        W35002  31.070  36.906  10.626
63277W        W35003  40.862  27.479  13.560
63278W        W35004  11.804  41.874   3.224
63279W        W35005  32.800   0.001   2.188
63280W        W35006  34.295  23.786   4.567
63281W        W35007  26.459   0.769   0.057
63282W        W35008   2.370   1.595   2.759
63283W        W35009  31.683   9.085   3.867
63284W        W35010  39.797  29.094   4.117
63285W        W35011   5.404  44.976  13.020
63286W        W35012  29.376  44.749   2.092
63287W        W35013   7.816   1.354   0.180
63288W        W35014   2.792  43.203  11.991
63289W        W35015  30.427  22.144   3.250
63290W        W35016  19.504  31.315   0.527
63291W        W35017  17.309  18.880  11.167
63292W        W35018  39.754   1.276  10.935
63293W        W35019  10.736  13.239  10.874
63294W        W35020  31.091  33.631  11.133
63295W        W35021  25.963   7.268   4.599
63296W        W35022  43.430   6.255  13.810
63297W        W35023  33.937  13.220   1.563
63298W        W35024  24.356  39.958   2.322
63299W        W35025   2.246  12.059   4.971
63300W        W35026  38.044  23.697  12.497
63301W        W35027   4.715   3.170  14.306
63302W        W35028   4.667  37.070   2.264
63303W        W35029  28.913  19.672  11.848
63304W        W35030   9.405  16.669  12.411
63305W        W35031  13.052  44.437  13.361
63306W        W35032  20.631   4.840   3.164
63307W        W35033  38.944  30.702  10.243
63308W        W35034  22.204  29.704  10.504
63309W        W35035   8.150  14.586   4.226
63310W        W35036  18.260  10.401   0.891
63311W        W35037  34.754   9.243  14.895
63312W        W35038  36.508   9.128  13.532
63313W        W35039  18.590  13.227  14.342
63314W        W35040  32.325  24.643   1.263
63315W        W35041  19.972  10.784   4.543
63316W        W35042  38.117   3.002  13.858
63317W        W35043   3.673   3.429   4.199
63318W        W35044  18.568   2.811  11.264
63319W        W35045  30.204  13.885  11.088
63320W        W35046  15.739   8.556  14.401
63321W        W35047   4.170   7.749   3.411
63322W        W35048  44.753  44.771  14.866
63323W        W35049  33.404  43.866  13.510
63324W        W35050  15.046  41.772  14.910
63325W        W35051  30.822   0.994   4.292
63326W        W35052  23.670  12.201   5.447
63327W        W35053  22.141  39.167   4.111
63328W        W35054  33.344  40.148   4.605
63329W        W35055   7.897   1.947   2.258
63330W        W35056  33.483  24.598  14.411
63331W        W35057   8.917  14.204  12.339
63332W        W35058  11.204  39.026  12.109
63333W        W35059  12.638  38.210   3.932
63334W        W35060  19.569  29.471  14.081
63335W        W35061  17.717   3.906  11.729
63336W        W35062  16.831  40.813   0.850
63337W        W35063  25.662  11.348  13.796
63338W        W35064  23.615  15.884   0.248
63339W        W35065  15.932  24.643   5.227
63340W        W35066  35.397   6.864  14.741
63341W        W35067  21.023   6.098  13.431
63342W        W35068   0.498  26.246  10.890
63343W        W35069   0.625   2.450   1.323
63344W        W35070  17.233   3.619  13.334
63345W        W35071  16.981   8.977  11.980
63346W        W35072  33.996  29.425   0.725
63347W        W35073  37.072  29.124  13.172
63348W        W35074  26.800  16.759  12.007
63349W        W35075  35.685   7.758   1.500
63350W        W35076   6.009  26.750  10.166
63351W        W35077  28.438  44.979  12.429
63352W        W35078  42.269   5.198   1.842
63353W        W35079   7.851  35.825   3.607
63354W        W35080   4.456  29.952  11.965
63355W        W35081  38.858  39.622  12.954
63356W        W35082   8.182  15.748   2.262
63357W        W35083  17.193  30.451   0.203
63358W        W35084  22.536  11.417   0.824
63359W        W35085   8.099  35.635   1.826
63360W        W35086   9.188  20.515  11.633
63361W        W35087   7.703   6.344  13.827
63362W        W35088  23.453  28.799  10.579
63363W        W35089   1.229  42.080  14.754
63364W        W35090  35.351   0.487   0.388
63365W        W35091  22.132  27.696   5.156
63366W        W35092  12.691  33.922   0.292
63367W        W35093  20.043   1.002   2.254
63368W        W35094  43.799  44.001   3.945
63369W        W35095  37.461  33.006   4.167
63370W        W35096   8.828   0.910   3.542
63371W        W35097  16.284  24.165   2.738
63372W        W35098  12.810  28.744  14.446
63373W        W35099  23.941  10.296   3.322
63374W        W35100  15.624  22.971   0.519
63375W        W35101  32.634   3.671  12.447
63376W        W35102  35.525  37.180  12.585
63377W        W35103  31.531   4.754   2.788
63378W        W35104   8.873  18.821  13.354
63379W        W35105   6.410  44.446   2.391
63380W        W35106   9.149  20.217  12.088
63381W        W35107   4.596  27.674  13.888
63382W        W35108  30.585   0.900   2.736
63383W        W35109  19.772  40.013   1.696
63384W        W35110   9.291  42.560  12.173
63385W        W35111  31.187   1.490  11.557
63386W        W35112  28.106   7.455  13.114
63387W        W35113  43.889  42.618  11.647
63388W        W35114  21.600  29.089  12.016
63389W        W35115  33.404   8.732  14.895
63390W        W35116  11.742  42.472  12.415
63391W        W35117  21.454   8.927   0.260
63392W        W35118   6.403  43.892   1.712
63393W        W35119  10.283  20.872  11.923
63394W        W35120  39.779   2.309   4.147
63395W        W35121  33.546  35.476  10.317
63396W        W35122  20.949  25.223  12.353
63397W        W35123  29.940  25.925  10.552
63398W        W35124  13.738  16.011   3.657
63399W        W35125  36.254  35.381   3.704
63400W        W35126  20.769   4.500  14.578
63401W        W35127  39.403  14.250   4.140
63402W        W35128  32.169  42.107  14.287
63403W        W35129   6.086  30.338  13.457
63404W        W35130  22.686   1.172   2.185
63405W        W35131  26.231  37.147  11.090
63406W        W35132  39.878  44.570  10.977
63407W        W35133  27.603   1.693  13.379
63408W        W35134  43.837  12.296   3.134
63409W        W35135  29.618  11.091  14.032
63410W        W35136  16.081  34.657  12.394
63411W        W35137   5.173  13.382  11.479
63412W        W35138  19.972  31.374  12.892
63413W        W35139  15.765  27.687   2.151
63414W        W35140  40.387  19.765  10.948
63415W        W35141  21.794  11.887  13.411
63416W        W35142   3.282  37.437  13.338
63417W        W35143   5.862   7.246  14.406
63418W        W35144  15.319  39.799   2.680
63419W        W35145   6.136  21.019   2.911
63420W        W35146   0.750   1.983  14.326
63421W        W35147   4.168  21.981  12.641
63422W        W35148  33.557  10.912  14.265
63423W        W35149  10.911  38.534  12.831
63424W        W35150  21.210   7.284   2.350
63425W        W35151  15.205  21.047  10.964
63426W        W35152   2.920  29.849   2.307
63427W        W35153  31.923  38.415  14.539
63428W        W35154  32.189  13.788   0.980
63429W        W35155  19.166  27.934  10.999
63430W        W35156  34.848   4.349  13.780
63431W        W35157  15.729  24.175  10.983
63432W        W35158   5.752  12.797  14.564
63433W        W35159  33.528  14.564  13.116
63434W        W35160  35.889  44.911   4.898
63435W        W35161  37.906  35.010   3.182
63436W        W35162  13.334  41.819  13.416
63437W        W35163  31.613   9.193   1.329
63438W        W35164  12.796  24.503   4.065
63439W        W35165   5.885  10.581   3.604
63440W        W35166  11.947  37.412  11.514
63441W        W35167   4.046  14.074   3.219
63442W        W35168   8.325   5.608   3.652
63443W        W35169   1.953  13.109   1.264
63444W        W35170   2.828  13.250  14.840
63445W        W35171  19.989  20.870   3.811
63446W        W35172  28.087  43.381   0.759
63447W        W35173   1.042  13.967  14.476
63448W        W35174  28.178  36.815   0.381
63449W        W35175  25.021  26.912  13.426
63450W        W35176  33.058  14.885  12.525
63451W        W35177  36.558  24.868  10.357
63452W        W35178   1.072  29.125  12.101
63453W        W35179  20.048   1.383   4.512
63454W        W35180  33.449   4.363  11.010
63455W        W35181  30.968   7.713  13.909
63456W        W35182  42.689   4.773   2.870
63457W        W35183  10.934  18.263   3.648
63458W        W35184  32.569  44.509   2.787
63459W        W35185  12.595  36.480   2.390
63460W        W35186  40.020  15.268  11.120
63461W        W35187  19.082  31.594  13.258
63462W        W35188  41.131  13.130  13.850
63463W        W35189  43.338   2.960  14.442
63464W        W35190   2.510   6.384  11.595
63465W        W35191   4.879  16.048  13.414
63466W        W35192  27.598  22.237  13.546
63467W        W35193  37.310  12.325  11.162
63468W        W35194   0.180   2.149   3.604
63469W        W35195  43.430   2.706   2.329
63470W        W35196  44.474  39.333  11.138
63471W        W35197  37.221  17.693   4.460
63472W        W35198  35.888  37.458  14.549
63473W        W35199  32.434   5.347   0.220
63474W        W35200  18.521   5.699   0.881
63475W        W35201  11.242  42.517   0.803
63476W        W35202   6.955  11.713   3.700
63477W        W35203  21.457  17.049  11.983
63478W        W35204  20.982  38.949   4.998
63479W        W35205   6.852   3.284   0.530
63480W        W35206  40.825  31.148  11.254
63481W        W35207  33.986   0.734  10.638
63482W        W35208   2.738  44.151   0.944
63483W        W35209  36.505  37.373  11.505
63484W        W35210  20.028  40.963   5.224
63485W        W35211   9.297  11.129   0.268
63486W        W35212  30.083   0.365  14.523
63487W        W35213  23.678  29.703   3.221
63488W        W35214  44.963  29.979   4.883
63489W        W35215  14.168  26.739   3.778
63490W        W35216  32.641  39.045  10.599
63491W        W35217  23.977  28.710  13.391
63492W        W35218   6.887   9.715  10.716
63493W        W35219  39.899   5.787  10.928
63494W        W35220   8.612   9.438   3.432
63495W        W35221  28.496  22.246   2.193
63496W        W35222  30.109   9.103   0.371
63497W        W35223   7.139  31.042   3.161
63498W        W35224  42.182  25.003   1.260
63499W        W35225  29.646  39.415  12.654
63500W        W35226  40.786   2.375  13.330
63501W        W35227  22.759  16.617  11.474
63502W        W35228  29.532  33.616  12.489
63503W        W35229  11.103  18.632   1.716
63504W        W35230  42.353  27.119  13.989
63505W        W35231  12.720  34.978  11.163
63506W        W35232  32.127  35.857   0.008
63507W        W35233  11.409  23.663  11.502
63508W        W35234  32.036   3.771  10.716
63509W        W35235  25.711   9.887   1.077
63510W        W35236   5.876  21.123  14.031
63511W        W35237  11.629  13.844  12.503
63512W        W35238  41.402  19.685  11.446
63513W        W35239  38.436  19.260  10.666
63514W        W35240  22.081  38.471   3.360
63515W        W35241  39.230   6.210  12.943
63516W        W35242   0.396  13.127  10.490
63517W        W35243   9.635  14.819   0.878
63518W        W35244  17.177  16.652  12.527
63519W        W35245   2.307   8.308   1.339
63520W        W35246   0.699  26.926  11.689
63521W        W35247  33.587  21.614   3.892
63522W        W35248  22.172  22.561  10.417
63523W        W35249  21.015  16.792  13.074
63524W        W35250  39.240  14.376  11.917
63525W        W35251  18.254  28.422   0.203
63526W        W35252  17.097  22.668  10.750
63527W        W35253  35.059  28.643  12.043
63528W        W35254  34.028  15.307  11.220
63529W        W35255  42.558  22.293  12.056
63530W        W35256  36.453  30.492  11.889
63531W        W35257  26.458  22.487   0.420
63532W        W35258  14.173  29.232  14.324
63533W        W35259  29.193   5.202   0.791
63534W        W35260  11.561  38.021  11.952
63535W        W35261  30.446  32.599  13.981
63536W        W35262  32.971   2.835  13.916
63537W        W35263  33.928   5.714   2.170
63538W        W35264  44.393  29.383  10.345
63539W        W35265  26.003  31.239  13.065
63540W        W35266  22.150   3.824  12.434
63541W        W35267   8.301  35.593   3.669
63542W        W35268  42.348  31.878  11.144
63543W        W35269  37.764   5.719  14.825
63544W        W35270  18.055   5.699  14.942
63545W        W35271  27.499  34.461   3.649
63546W        W35272  17.668  37.456  13.864
63547W        W35273  16.648   6.898  12.403
63548W        W35274  44.297   0.958   3.831
63549W        W35275  20.610  27.654   4.060
63550W        W35276  14.771   7.280  11.727
63551W        W35277  18.277  11.399   3.739
63552W        W35278  29.748  23.127  11.128
63553W        W35279  20.979  36.044   3.819
63554W        W35280  32.086  17.727   2.817
63555W        W35281  28.057  27.452   2.291
63556W        W35282   8.918  31.606  11.987
63557W        W35283  20.441  16.604   2.370
63558W        W35284  21.587  40.000  11.951
63559W        W35285   4.018  26.103   3.061
63560W        W35286  30.004   8.893   1.712
63561W        W35287  18.260  26.396  10.906
63562W        W35288  15.352  42.910  11.627
63563W        W35289  15.655  11.401  12.115
63564W        W35290  44.976  11.220   0.451
63565W        W35291   2.312  25.439  13.270
63566W        W35292  27.034  36.962  13.824
63567W        W35293  31.551  25.732  11.126
63568W        W35294  17.740  28.675   4.466
63569W        W35295  42.831  19.135  13.465
63570W        W35296  29.396  27.103   4.628
63571W        W35297  16.604   6.450  12.162
63572W        W35298   6.198   5.226  10.038
63573W        W35299  41.408  35.583   4.307
63574W        W35300   8.639  38.504  12.893
63575W        W35301   0.988  15.410  11.603
63576W        W35302  30.578  16.051  12.242
63577W        W35303  10.117  17.362  12.432
63578W        W35304   0.318   5.657   3.862
63579W        W35305  38.394  37.980  13.577
63580W        W35306   7.009  40.379  11.530
63581W        W35307  19.490  26.458   3.121
63582W        W35308  21.919  43.257  12.461
63583W        W35309  41.205  13.225   4.400
63584W        W35310  10.277  36.754   4.578
63585W        W35311  32.434  22.605   3.039
63586W        W35312  18.619  37.852   0.933
63587W        W35313  32.686   6.758  11.785
63588W        W35314   8.524  35.480  12.952
63589W        W35315  23.981  31.741   3.663
63590W        W35316  12.343  30.934   3.122
63591W        W35317  40.536  28.426   3.405
63592W        W35318  10.518  23.086  12.819
63593W        W35319  28.898  13.996   5.054
63594W        W35320  14.675  11.881   1.728
63595W        W35321  34.991  17.160   2.879
63596W        W35322  24.426   3.887  12.149
63597W        W35323   6.689  37.907   1.552
63598W        W35324  31.422   1.722  14.983
63599W        W35325   7.696  34.846   5.524
63600W        W35326  35.062  16.264   1.974
63601W        W35327  24.695  24.661   3.618
63602W        W35328  25.463   0.380   4.208
63603W        W35329  22.595  37.136   1.158
63604W        W35330  15.895  16.642   1.567
63605W        W35331  29.432  17.057   0.446
63606W        W35332  12.206   7.315   0.960
63607W        W35333  14.074  22.251   0.844
63608W        W35334  16.182  44.891  13.992
63609W        W35335   3.946   2.796  10.747
63610W        W35336  37.044  35.104  12.664
63611W        W35337  32.652  14.224   1.448
63612W        W35338   7.058   6.004  12.966
63613W        W35339  30.151  13.611   0.824
63614W        W35340  33.410  43.988  10.995
63615W        W35341  21.728  22.809  10.262
63616W        W35342  21.556  19.183   0.896
63617W        W35343  12.103  18.212   4.988
63618W        W35344  11.751  34.853  13.235
63619W        W35345   5.004   4.449   3.680
63620W        W35346  24.165   6.324   3.090
63621W        W35347   3.261  19.408  14.734
63622W        W35348   1.728   7.480  11.888
63623W        W35349  14.041  19.166  12.159
63624W        W35350  14.356  30.859  12.581
63625W        W35351  17.214   6.197  12.979
63626W        W35352  19.274  26.412   1.589
63627W        W35353  42.340   0.829   3.689
63628W        W35354  41.750  35.889   0.440
63629W        W35355  29.991   3.551   1.599
63630W        W35356  26.192  30.697  12.438
63631W        W35357   9.501  22.060   5.390
63632W        W35358  27.228  36.862  11.585
63633W        W35359  31.779   4.163  13.559
63634W        W35360  12.250  13.244  12.024
63635W        W35361  12.067  30.061  10.450
63636W        W35362  30.880  31.436   3.239
63637W        W35363  40.795   9.858  13.322
63638W        W35364  10.843  10.661  13.048
63639W        W35365  25.693  14.835  14.241
63640W        W35366  12.271  35.138  14.224
63641W        W35367  44.065  10.255   0.037
63642W        W35368  15.279  26.655   1.471
63643W        W35369  40.931   8.198   2.210
63644W        W35370  40.506   6.405   1.953
63645W        W35371  24.686  38.999  12.854
63646W        W35372  33.507  25.184   0.902
63647W        W35373   7.312  38.844  13.975
63648W        W35374  43.872  37.442   1.959
63649W        W35375  18.269  44.761  12.564
63650W        W35376  22.335   0.448   1.811
63651W        W35377  12.318  40.938   4.153
63652W        W35378  43.884   4.525  12.855
63653W        W35379  40.796  31.953  13.879
63654W        W35380  23.979  31.163  14.851
63655W        W35381  27.462  11.223   4.306
63656W        W35382  28.530  24.778  14.454
63657W        W35383  36.481  28.915  10.662
63658W        W35384   9.359   7.227   4.622
63659W        W35385  29.920  18.036  12.606
63660W        W35386  32.518  31.873  11.944
63661W        W35387  11.729  21.843  14.984
63662W        W35388  36.428  21.073  10.334
63663W        W35389  39.961  44.289  13.567
63664W        W35390  18.369  26.608   3.678
63665W        W35391  38.970  19.303   9.760
63666W        W35392  39.797  36.137   0.439
63667W        W35393  23.658  27.702   5.831
63668W        W35394  22.013  27.304   0.126
63669W        W35395  34.539  42.386   3.388
63670W        W35396  19.216  22.677  11.522
63671W        W35397  23.206   7.675   1.008
63672W        W35398  23.576  29.437  12.792
63673W        W35399  32.633  19.998   2.387
63674W        W35400  21.167   1.421  13.710
63675W        W35401  25.699  44.361   1.400
63676W        W35402  23.140  40.053  14.044
63677W        W35403  33.560  43.470  12.330
63678W        W35404  11.642  35.060  14.826
63679W        W35405  31.437   6.334  13.632
63680W        W35406  22.755  24.704  12.480
63681W        W35407  29.485  13.097  11.690
63682W        W35408  17.700  32.846   0.783
63683W        W35409  24.538  22.179   3.227
63684W        W35410  14.420  27.077  10.619
63685W        W35411  40.476  11.261   4.203
63686W        W35412  13.107  11.463   3.117
63687W        W35413  29.442   3.480   2.757
63688W        W35414  37.579  34.843   0.236
63689W        W35415  21.772  29.069   1.738
63690W        W35416  40.241  10.099   3.862
63691W        W35417  10.882  44.092  12.058
63692W        W35418  36.648  17.324  13.739
63693W        W35419  31.046  18.679  11.096
63694W        W35420  34.815   7.674   1.796
63695W        W35421  23.230  20.792  13.860
63696W        W35422  37.592  26.976   4.125
63697W        W35423  30.559  38.375   0.712
63698W        W35424   2.712  31.087   0.332
63699W        W35425  34.041   9.903   5.087
63700W        W35426   2.140  40.241   0.518
63701W        W35427  31.442  25.739   0.324
63702W        W35428  34.148  23.336   2.288
63703W        W35429  26.004   4.486   2.961
63704W        W35430  33.591  24.272  14.793
63705W        W35431  10.574   2.446   0.770
63706W        W35432  18.224  41.518  13.440
63707W        W35433  31.054  23.435   1.467
63708W        W35434  31.895   4.872   0.784
63709W        W35435  40.804  39.350   3.348
63710W        W35436  21.583  39.425  14.758
63711W        W35437  12.633  31.527   3.172
63712W        W35438  10.607  17.023  14.002
63713W        W35439  29.950   8.399  14.346
63714W        W35440  24.011   6.757  11.884
63715W        W35441  18.688  43.280   1.975
63716W        W35442  36.690  19.235   0.532
63717W        W35443  18.644  37.513  13.515
63718W        W35444   9.470  41.473  13.916
63719W        W35445  13.574  27.132  12.030
63720W        W35446  21.776  35.653  12.814
63721W        W35447  15.732  22.122   3.651
63722W        W35448   4.338  17.224   1.117
63723W        W35449   4.479  26.017   3.333
63724W        W35450  38.545  17.122   0.814
63725W        W35451  35.621   3.941  13.972
63726W        W35452  24.550   5.406   1.869
63727W        W35453  44.444  34.650  13.938
63728W        W35454  37.898  34.053   1.873
63729W        W35455  14.831  35.532  11.556
63730W        W35456  33.298  27.540  11.964
63731W        W35457   5.569  44.218  14.684
63732W        W35458   1.684  40.053  12.859
63733W        W35459  26.453  31.598  11.919
63734W        W35460  12.061  37.312   2.737
63735W        W35461  37.551  33.515   0.032
63736W        W35462  35.507  35.478  13.829
63737W        W35463  23.100  26.101  11.635
63738W        W35464   8.806  38.030  12.784
63739W        W35465  16.361  10.236  12.047
63740W        W35466  23.898   0.321  10.226
63741W        W35467  32.406  34.374  13.148
63742W        W35468  13.669  15.632  11.490
63743W        W35469  22.658  20.793   1.857
63744W        W35470  30.872  33.930   2.259
63745W        W35471  10.600   6.853   3.126
63746W        W35472   0.916   8.688  12.388
63747W        W35473  39.708  30.627  11.179
63748W        W35474  43.440  24.764   0.304
63749W        W35475  37.030   9.482   1.379
63750W        W35476  17.234  34.930   0.283
63751W        W35477  39.175   5.845   0.889
63752W        W35478  10.282   3.933  10.890
63753W        W35479   5.506  12.291   2.358
63754W        W35480   1.897  35.520  10.662
63755W        W35481  25.093  25.505  12.907
63756W        W35482   5.743  25.039  13.403
63757W        W35483   5.282   6.711   1.298
63758W        W35484  25.102  27.600   4.176
63759W        W35485  26.899  14.448  11.172
63760W        W35486  31.500  30.477   2.461
63761W        W35487  16.554   8.869  13.377
63762W        W35488  15.169  35.345   4.113
63763W        W35489  17.064   6.101   5.082
63764W        W35490  27.021  33.964  12.995
63765W        W35491  19.674  11.897  14.295
63766W        W35492  40.831  28.630  14.490
63767W        W35493  13.717  26.227  14.076
63768W        W35494  30.992  42.445  11.797
63769W        W35495  32.107  16.665   4.519
63770W        W35496   6.396   2.497   0.809
63771W        W35497  44.339  39.127  14.961
63772W        W35498  31.071   4.710  12.841
63773W        W35499   6.947  25.254   4.090
63774W        W35500  40.904  42.117  12.526
63775W        W35501   6.498  36.138   1.469
63776W        W35502  19.255  27.452  10.187
63777W        W35503  22.237  29.715   1.262
63778W        W35504   4.318  41.019  12.490
63779W        W35505   5.303  34.553   0.434
63780W        W35506   0.272   5.499  13.523
63781W        W35507  19.630  24.597  14.875
63782W        W35508  19.043  43.380  12.983
63783W        W35509  22.052  14.045   0.494
63784W        W35510   1.423  18.614   1.896
63785W        W35511  12.642  26.088  14.394
63786W        W35512  27.619  26.709   4.614
63787W        W35513  25.281  35.612  11.137
63788W        W35514  36.864   7.921  14.497
63789W        W35515   6.471  21.167  11.581
63790W        W35516  35.089   1.513  13.891
63791W        W35517  24.754  21.653  12.162
63792W        W35518  43.010  14.332   2.853
63793W        W35519   4.848   5.253   0.799
63794W        W35520  24.588  11.389  12.134
63795W        W35521  10.737  22.321  11.596
63796W        W35522  16.930  36.479  10.650
63797W        W35523  11.596   1.246   0.303
63798W        W35524  35.322   9.284  12.127
63799W        W35525   0.838  11.407  10.744
63800W        W35526  30.009  43.508   0.466
63801W        W35527   9.196  31.527  11.559
63802W        W35528  41.553  34.099  12.446
63803W        W35529   8.406  29.740   4.841
63804W        W35530  16.669  18.775   1.851
63805W        W35531  35.431  28.188   4.329
63806W        W35532  25.597  25.714  12.949
63807W        W35533  40.618  23.450  13.135
63808W        W35534   8.867  29.050   0.474
63809W        W35535  14.765   8.126  12.991
63810W        W35536  12.319  40.945  13.819
63811W        W35537  42.141  35.980   2.825
63812W        W35538  43.930  42.070   3.334
63813W        W35539  28.339  32.440  11.087
63814W        W35540   7.604  32.028  12.041
63815W        W35541  17.739  43.341   3.355
63816W        W35542  38.063  36.893   0.865
63817W        W35543   3.244  25.477  14.188
63818W        W35544  32.573  15.075  12.444
63819W        W35545  36.851  11.747   1.376
63820W        W35546  27.612   7.736  13.369
63821W        W35547   5.344   5.701   0.171
63822W        W35548  20.561  28.545   4.344
63823W        W35549  39.034   2.669  11.340
63824W        W35550  32.642  35.512   2.688
63825W        W35551   0.042   6.782  11.197
63826W        W35552   1.162   9.213   1.982
63827W        W35553   3.805  19.673   4.998
63828W        W35554   1.005  31.076  13.519
63829W        W35555   5.667  33.582   4.942
63830W        W35556  17.725  36.427  14.992
63831W        W35557  26.749  22.182  14.249
63832W        W35558  11.336  21.054  11.486
63833W        W35559   6.306  26.425   4.672
63834W        W35560   2.857  10.751   2.461
63835W        W35561  26.039  44.885   0.328
63836W        W35562  14.016  30.941   0.088
63837W        W35563  37.093  14.907   2.474
63838W        W35564   8.383  38.872   3.206
63839W        W35565  44.355  17.984   0.406
63840W        W35566  23.190  24.508   3.454
63841W        W35567  23.747  41.752   3.020
63842W        W35568  21.689  39.987   3.048
63843W        W35569  44.239  34.873  10.306
63844W        W35570   3.491  39.071   2.261
63845W        W35571   6.378  24.243   2.066
63846W        W35572   5.384  16.872  12.481
63847W        W35573  31.585  25.679   1.316
63848W        W35574  39.652   2.412   4.656
63849W        W35575  31.181  19.760   1.196
63850W        W35576  30.662  19.135   0.792
63851W        W35577  31.645  41.510  10.304
63852W        W35578  12.368  22.054   0.538
63853W        W35579  44.025   5.820   1.648
63854W        W35580  44.864  31.862   4.923
63855W        W35581   7.228  44.046   3.500
63856W        W35582  18.777  29.021   1.776
63857W        W35583  34.962  43.698   0.498
63858W        W35584  39.951  18.233   2.723
63859W        W35585  33.800  20.258  12.718
63860W        W35586  14.281   4.766  12.949
63861W        W35587   6.286  16.086  13.397
63862W        W35588  29.206  28.971  11.600
63863W        W35589  40.684  21.647   3.836
63864W        W35590  30.444  18.036   4.774
63865W        W35591  21.510   6.263  11.095
63866W        W35592  10.144  18.156   2.663
63867W        W35593   2.722  22.667  14.732
63868W        W35594  32.971  23.392   3.847
63869W        W35595   0.042  11.153  11.199
63870W        W35596  37.361   7.266   2.751
63871W        W35597  18.041  27.313  11.173
63872W        W35598   6.878  41.599   1.337
63873W        W35599  43.701   2.043  11.544
63874W        W35600  41.812  24.494  10.708
63875W        W35601  29.496  34.157  14.471
63876W        W35602   8.432  31.695   3.164
63877W        W35603   2.361  39.437  14.360
63878W        W35604  30.140   4.831  14.903
63879W        W35605  14.632   7.236  12.209
63880W        W35606  11.848  15.137   0.508
63881W        W35607  36.639  35.522  10.748
63882W        W35608   6.808  43.368  14.057
63883W        W35609  39.907  26.182   1.434
63884W        W35610  31.553  34.877  11.180
63885W        W35611   3.894  11.155  12.900
63886W        W35612   7.740  25.058  11.584
63887W        W35613  18.165   3.351  10.656
63888W        W35614   8.803  27.793  14.928
63889W        W35615   4.955   4.870   1.427
63890W        W35616  13.730  17.929   0.260
63891W        W35617   6.751   5.726  14.088
63892W        W35618  19.699  33.038  10.448
63893W        W35619   2.577  21.104   3.621
63894W        W35620  33.318   2.000   0.933
63895W        W35621  40.781   7.372   0.412
63896W        W35622  17.708   9.839  12.013
63897W        W35623   1.237  36.430  11.084
63898W        W35624  25.080  39.217  11.442
63899W        W35625  44.810  28.592  10.889
63900W        W35626   5.812  18.583   0.208
63901W        W35627  15.701  30.953   2.603
63902W        W35628  29.037  24.066   5.174
63903W        W35629  37.545  35.596  11.987
63904W        W35630   6.906  25.000  12.470
63905W        W35631  24.569  41.789  11.128
63906W        W35632   6.285  13.701  12.080
63907W        W35633  25.695  17.531  12.083
63908W        W35634  41.909  19.207   2.658
63909W        W35635  23.056  28.531   0.453
63910W        W35636  24.051  30.298  14.408
63911W        W35637  25.487  36.076   3.588
63912W        W35638  44.019  11.616   0.671
63913W        W35639  43.501  11.390   2.698
63914W        W35640   3.643  18.245  13.520
63915W        W35641  12.454  40.858   2.813
63916W        W35642  20.482  33.914   3.177
63917W        W35643  14.512  35.004   2.419
63918W        W35644  33.440  27.747  11.129
63919W        W35645  31.316  22.211   0.579
63920W        W35646  24.832  10.389   4.080
63921W        W35647  39.335  42.857  12.902
63922W        W35648   2.169  24.955  13.119
63923W        W35649  43.452  41.790   3.266
63924W        W35650  29.113  33.820   3.416
63925W        W35651  21.717   1.467  14.300
63926W        W35652  13.781  22.827  12.111
63927W        W35653   6.337  41.529  12.866
63928W        W35654   3.861   1.184   0.420
63929W        W35655   9.919  33.043  11.993
63930W        W35656  12.710  19.583  13.424
63931W        W35657  41.459  18.862  11.144
63932W        W35658   5.490   8.651  12.954
63933W        W35659  44.507  34.061   2.780
63934W        W35660  38.244  29.592   0.027
63935W        W35661   8.755  35.412  12.495
63936W        W35662  35.019  38.375   4.564
63937W        W35663   9.206  38.116   1.355
63938W        W35664  27.499  18.658  14.116
63939W        W35665   6.110  16.588   3.172
63940W        W35666  30.372  43.834   0.817
63941W        W35667   5.393  36.120   2.619
63942W        W35668  40.897  38.013   4.494
63943W        W35669  29.943  39.543   4.627
63944W        W35670   6.453  20.185  13.364
63945W        W35671   8.288  39.905   3.190
63946W        W35672  40.754  33.455   3.332
63947W        W35673  15.994   6.718   4.165
63948W        W35674  43.421  32.059  14.791
63949W        W35675  30.039  33.099   1.261
63950W        W35676  24.074  10.638   4.741
63951W        W35677  41.323  26.422   5.056
63952W        W35678  28.511  36.486  13.530
63953W        W35679  41.606  33.293  10.273
63954W        W35680   3.397  39.632   0.840
63955W        W35681   1.700  37.020   2.374
63956W        W35682  43.203  17.530   1.304
63957W        W35683   9.588  32.516  11.965
63958W        W35684  14.698  17.980   0.411
63959W        W35685   6.960  16.375  12.984
63960W        W35686  41.606   5.872   2.124
63961W        W35687  12.033  22.481  14.479
63962W        W35688  32.949  43.941  11.290
63963W        W35689  19.668  26.103  14.939
63964W        W35690  37.854  31.832   1.869
63965W        W35691  14.372   1.817  12.116
63966W        W35692  27.459   5.800  12.944
63967W        W35693  44.074   8.875   3.199
63968W        W35694   0.174  18.224   4.548
63969W        W35695  31.644  34.344  14.406
63970W        W35696  36.132  13.587  13.992
63971W        W35697  13.476   6.280   1.746
63972W        W35698  30.006  25.485   0.738
63973W        W35699   4.245  12.379   4.391
63974W        W35700  21.225  40.940   0.783
63975W        W35701   9.190  17.252  11.500
63976W        W35702  27.168  34.818   3.840
63977W        W35703   1.779  27.686  14.358
63978W        W35704   1.417  21.506  11.179
63979W        W35705  22.083   9.084   4.930
63980W        W35706  37.276   1.947  10.746
63981W        W35707   9.664  14.522   0.442
63982W        W35708   8.838  25.998   2.054
63983W        W35709  36.333   3.986  13.481
63984W        W35710  30.777  27.669  14.488
63985W        W35711  39.480   8.676   0.061
63986W        W35712  24.674   3.269   3.678
63987W        W35713  31.090   7.137   0.766
63988W        W35714  32.926  25.095   0.778
63989W        W35715  32.338  21.799  13.942
63990W        W35716  16.963   9.605   0.948
63991W        W35717  22.086  15.301   0.992
63992W        W35718  26.675   4.992  11.579
63993W        W35719  39.537  36.540   4.671
63994W        W35720   6.682  26.053  13.270
63995W        W35721  44.344  41.554   4.475
63996W        W35722  20.186  17.217   4.178
63997W        W35723  41.850  33.082  11.187
63998W        W35724  22.790  42.605  12.542
63999W        W35725  33.900  27.000   4.570
64000W        W35726  42.927  27.535  12.197
64001W        W35727   9.942  29.058  11.455
64002W        W35728  10.139  12.368  14.954
64003W        W35729  27.171  13.478  12.058
64004W        W35730  31.160  35.169   2.476
64005W        W35731   5.276  30.498  12.851
64006W        W35732  14.897  37.053   0.323
64007W        W35733   9.234  37.086   4.564
64008W        W35734  21.055   9.877  13.428
64009W        W35735  23.099   8.390  10.594
64010W        W35736  27.621  15.045   1.710
64011W        W35737  20.428  27.497   0.798
64012W        W35738  28.857  38.607  14.078
64013W        W35739   4.348  36.379  10.994
64014W        W35740  27.139   5.145   2.184
64015W        W35741   0.817   2.318   0.834
64016W        W35742  32.498   1.333  11.232
64017W        W35743  43.587   9.834  11.851
64018W        W35744  24.142  31.451   1.824
64019W        W35745  21.020  36.850   4.661
64020W        W35746  30.654  18.880   1.245
64021W        W35747  40.438   1.013   3.036
64022W        W35748   5.159   6.532   4.002
64023W        W35749  21.790  15.733  13.037
64024W        W35750  28.524   5.969  11.848
64025W        W35751   6.204  44.377   0.407
64026W        W35752   6.456  23.798   4.276
64027W        W35753  17.245  10.790  12.923
64028W        W35754  36.997   6.451  13.458
64029W        W35755  21.076  43.317  11.470
64030W        W35756  25.324  43.924   2.630
64031W        W35757  28.384   3.498  13.089
64032W        W35758   4.433   1.086  11.043
64033W        W35759  41.062  30.362  12.927
64034W        W35760  36.922   3.720  12.311
64035W        W35761   7.469  29.529  14.217
64036W        W35762  36.969   8.832  13.380
64037W        W35763  33.201  33.647  11.749
64038W        W35764  32.345   5.344  11.962
64039W        W35765  28.620   5.451  14.434
64040W        W35766  10.352  25.686  13.044
64041W        W35767  38.946  17.279  10.606
64042W        W35768   2.393  19.019   3.207
64043W        W35769  23.214   5.011   4.700
64044W        W35770  38.057   0.438  14.791
64045W        W35771  17.259  20.926  14.398
64046W        W35772  16.083  37.449   9.752
64047W        W35773  20.276   7.321  13.911
64048W        W35774  21.632  37.563  12.521
64049W        W35775  40.506  39.222  11.438
64050W        W35776  28.974  34.997   0.910
64051W        W35777  18.258  15.694  12.140
64052W        W35778  16.185  19.029   0.382
64053W        W35779  13.203   3.912  13.096
64054W        W35780   7.255  20.163  12.404
64055W        W35781  35.346  38.962   3.755
64056W        W35782   5.598  28.474  10.652
64057W        W35783  11.705  25.925   0.508
64058W        W35784   2.208  41.573   2.815
64059W        W35785  13.336  14.399  13.517
64060W        W35786  41.793   9.806  13.314
64061W        W35787  34.986   8.956   4.077
64062W        W35788   0.195  25.714   0.935
64063W        W35789  17.512  11.498   0.958
64064W        W35790  39.311  25.632   2.864
64065W        W35791  31.369   6.925  12.996
64066W        W35792   0.162  35.982   1.655
64067W        W35793   8.742  19.246  11.210
64068W        W35794  13.881  37.901  10.406
64069W        W35795   4.448   5.988   4.127
64070W        W35796   6.682   4.802   1.666
64071W        W35797  12.842  43.854   4.926
64072W        W35798   2.775   7.406   3.990
64073W        W35799  25.412   8.880   2.283
64074W        W35800  25.880   8.286   2.782
64075W        W35801  25.591  26.277  14.058
64076W        W35802  15.389  15.939  14.887
64077W        W35803   5.923  10.751  12.567
64078W        W35804  23.489   1.941   1.441
64079W        W35805  32.507  35.151  12.676
64080W        W35806  26.982  20.065  10.593
64081W        W35807  14.730  42.098   1.258
64082W        W35808  24.463  25.069   1.250
64083W        W35809  17.513   8.385   0.890
64084W        W35810   9.692   1.584  11.661
64085W        W35811   7.511   6.752  13.071
64086W        W35812  16.108  22.514   3.171
64087W        W35813   0.995  41.992   2.328
64088W        W35814  15.129  31.408   2.827
64089W        W35815  31.051  18.086   2.087
64090W        W35816  42.265  14.033  12.074
64091W        W35817  29.981   2.144   4.115
64092W        W35818  31.201  30.148  14.853
64093W        W35819  19.193  36.480  11.908
64094W        W35820   0.235  26.142   3.286
64095W        W35821  27.723   9.486  11.521
64096W        W35822  33.075   3.473  12.565
64097W        W35823  31.216  37.912  11.449
64098W        W35824  30.551  23.494  13.559
64099W        W35825  40.832   8.867   9.860
64100W        W35826  20.741  13.742  14.528
64101W        W35827  43.334  41.916   0.562
64102W        W35828  13.057   4.487  12.001
64103W        W35829  34.969  23.046  14.971
64104W        W35830  39.342  25.688  13.263
64105W        W35831   9.224  23.098   1.370
64106W        W35832  30.611  16.106   4.536
64107W        W35833  19.520  18.135  14.011
64108W        W35834  36.031  13.279   3.288
64109W        W35835  28.593  39.843   2.730
64110W        W35836  24.099  12.313  13.911
64111W        W35837  11.217   3.227   0.337
64112W        W35838  25.054   1.660   0.429
64113W        W35839  16.883  32.593  14.730
64114W        W35840  17.072  38.681   3.807
64115W        W35841  37.116  37.349  13.418
64116W        W35842   0.380  27.008  10.573
64117W        W35843  24.882   6.900  14.797
64118W        W35844  39.231  34.564  14.956
64119W        W35845  11.162   1.768   2.880
64120W        W35846  26.077   0.292   1.668
64121W        W35847  41.091   2.989  11.637
64122W        W35848   4.154   9.222  14.462
64123W        W35849   9.716  40.613   1.340
64124W        W35850  10.214  25.104   3.311
64125W        W35851  10.223  26.478  13.507
64126W        W35852  41.679  34.983   4.206
64127W        W35853  11.463  23.165   3.130
64128W        W35854  10.782   3.421   5.062
64129W        W35855  27.858  39.610  13.201
64130W        W35856  35.649  20.322   0.031
64131W        W35857  23.931  24.180  11.090
64132W        W35858  21.055  37.768  12.754
64133W        W35859  23.789   2.810   1.467
64134W        W35860  39.605  25.462   1.920
64135W        W35861  22.498  33.986   3.667
64136W        W35862  19.772  37.097   0.017
64137W        W35863   7.692  16.235  14.524
64138W        W35864  35.373  14.672   4.626
64139W        W35865   7.764  25.171   1.847
64140W        W35866  11.183  11.076  13.463
64141W        W35867   3.680  32.456  13.987
64142W        W35868  44.560  28.305  14.163
64143W        W35869  43.735  43.284  12.567
64144W        W35870  10.274  23.539   3.064
64145W        W35871   2.631  15.008   0.431
64146W        W35872  10.878  20.063  11.137
64147W        W35873   3.851  29.104   0.412
64148W        W35874  32.534   5.685  14.794
64149W        W35875  33.912  10.741   3.120
64150W        W35876  15.330  15.821   3.165
64151W        W35877  42.330   5.211   4.094
64152W        W35878  16.561  15.259  11.610
64153W        W35879  14.173  33.276   0.766
64154W        W35880   9.206  10.950  12.616
64155W        W35881  32.457   9.280  11.074
64156W        W35882  42.450  39.477  13.188
64157W        W35883  31.905   7.248   2.739
64158W        W35884  38.961  40.221  12.478
64159W        W35885  24.811  23.146  11.081
64160W        W35886  27.986  37.353  11.014
64161W        W35887   5.906  13.902   0.962
64162W        W35888  40.946  27.695   4.848
64163W        W35889  14.792   0.443  13.446
64164W        W35890  25.289  36.467   2.315
64165W        W35891  27.009  44.878  14.718
64166W        W35892  15.534  26.591   2.353
64167W        W35893  14.350  43.286  13.921
64168W        W35894  27.962  33.564  13.201
64169W        W35895  23.280  39.789  11.525
64170W        W35896  39.833   2.015   2.661
64171W        W35897  34.331  11.492   0.306
64172W        W35898  37.011  15.534   1.754
64173W        W35899  10.128  43.729   4.839
64174W        W35900  37.048  24.794   0.280
64175W        W35901  10.821  35.597  13.367
64176W        W35902  11.847  13.926   1.718
64177W        W35903  21.247  27.092  11.485
64178W        W35904  41.160  24.647   4.352
64179W        W35905   5.107  17.232  10.629
64180W        W35906  32.398  11.063  11.416
64181W        W35907  24.626  28.164   2.231
64182W        W35908  36.880  35.065  10.527
64183W        W35909  26.746  38.478   3.287
64184W        W35910  20.776  14.354  11.430
64185W        W35911  34.059  16.506   2.337
64186W        W35912  24.794  44.439   0.392
64187W        W35913  22.753  44.243  12.422
64188W        W35914  35.631  38.825   1.849
64189W        W35915   4.615  44.391   5.085
64190W        W35916   7.362  44.976   0.230
64191W        W35917  12.663  18.773   4.448
64192W        W35918  14.340   5.155   1.857
64193W        W35919   6.938  14.840   0.281
64194W        W35920  33.988   8.002   3.214
64195W        W35921  17.742  40.028  11.959
64196W        W35922  27.265  34.541   3.182
64197W        W35923   3.328  15.143  11.490
64198W        W35924  23.528  10.170   4.115
64199W        W35925  24.438  37.882  13.295
64200W        W35926  20.067   0.621   3.812
64201W        W35927  37.754   8.411   0.246
64202W        W35928  41.606  20.647  12.095
64203W        W35929  13.043   9.092  13.127
64204W        W35930   3.148   2.118  12.369
64205W        W35931  42.051  38.265  11.195
64206W        W35932   5.949  17.874  11.984
64207W        W35933  17.260   4.281  14.537
64208W        W35934  44.982  23.676   4.707
64209W        W35935  38.824   3.412  10.615
64210W        W35936  15.025  22.677   3.635
64211W        W35937  12.854  40.261   3.984
64212W        W35938  13.319  35.781   3.408
64213W        W35939  30.119  26.066   5.463
64214W        W35940  36.998   5.404   2.686
64215W        W35941  26.591  22.520  11.194
64216W        W35942  44.377   2.818   4.430
64217W        W35943  20.671  41.985  10.557
64218W        W35944  42.985  28.365  11.123
64219W        W35945  27.040  43.484   4.377
64220W        W35946   0.011  18.560   0.856
64221W        W35947  14.913  11.851   2.254
64222W        W35948   7.332  14.540   2.678
64223W        W35949  20.848  36.885  13.082
64224W        W35950   6.729  32.911   0.731
64225W        W35951  13.864  17.475  14.960
64226W        W35952  18.202  37.671   0.468
64227W        W35953  13.723   8.847  13.810
64228W        W35954  29.704  13.274  13.103
64229W        W35955  32.340   8.714  14.460
64230W        W35956  22.712  39.043  11.786
64231W        W35957  11.097  28.842  10.587
64232W        W35958  25.156  28.187   1.616
64233W        W35959  44.473  29.009   9.979
64234W        W35960   4.707  23.272  13.906
64235W        W35961  37.816  42.000  10.917
64236W        W35962  30.332  28.407   2.355
64237W        W35963  21.241   2.701  14.460
64238W        W35964  28.443  22.840  10.133
64239W        W35965  33.576  19.157  10.716
64240W        W35966  16.711  23.813  13.768
64241W        W35967  16.168  30.545  10.723
64242W        W35968  34.939  23.410   0.344
64243W        W35969  34.146   3.127   2.753
64244W        W35970  10.319   7.332   2.429
64245W        W35971  10.379  38.807  12.558
64246W        W35972   1.727  11.958  12.977
64247W        W35973  12.581  34.102   3.386
64248W        W35974  10.248  28.106  14.875
64249W        W35975  14.037  36.975   0.899
64250W        W35976  17.690  43.352  10.907
64251W        W35977  37.811  18.200   4.733
64252W        W35978  43.496   1.231  14.983
64253W        W35979  22.613  14.543   1.876
64254W        W35980  43.833  26.779   0.391
64255W        W35981  36.874   4.367   4.087
64256W        W35982   2.484   7.266   1.320
64257W        W35983  21.939  26.110   0.392
64258W        W35984  34.910  24.598   4.446
64259W        W35985  10.861   0.918   4.703
64260W        W35986  21.878  19.943  14.840
64261W        W35987  24.890  40.772  10.809
64262W        W35988  22.097   3.398   3.299
64263W        W35989   7.801  41.867  13.012
64264W        W35990   8.781  10.158   1.720
64265W        W35991   6.673  17.133   4.056
64266W        W35992   9.170  13.786   3.423
64267W        W35993  43.944   8.920  13.854
64268W        W35994   3.245  44.820   2.922
64269W        W35995   6.227  27.994  11.094
64270W        W35996   2.959  15.593  10.749
64271W        W35997  27.831   7.292  10.061
64272W        W35998  38.594   1.348   3.816
64273W        W35999  14.365  43.755   2.697
64274W        W36000  28.564  20.571  12.873
64275W        W36001  24.770  12.464   3.734
64276W        W36002  24.482  37.899  14.897
64277W        W36003   8.747  37.520  10.304
64278W        W36004  25.119  18.215   0.503
64279W        W36005  14.586  21.263  13.462
64280W        W36006  39.039  34.643  10.029
64281W        W36007  22.759  28.807   5.091
64282W        W36008   2.502  28.384  12.780
64283W        W36009   1.387  22.119   1.666
64284W        W36010  30.088  10.702   1.782
64285W        W36011  42.493   3.268  11.125
64286W        W36012  16.403  25.094   3.636
64287W        W36013  32.651  43.403  14.588
64288W        W36014  33.194  43.667  13.955
64289W        W36015  43.741  23.317   1.827
64290W        W36016  37.490  44.737   2.853
64291W        W36017  41.532  27.153  14.742
64292W        W36018   5.042  38.009  11.044
64293W        W36019  28.588  33.010   4.634
64294W        W36020  27.664   4.256   0.809
64295W        W36021  25.761  26.037   3.146
64296W        W36022  23.080   8.036   0.543
64297W        W36023  23.448  10.041   2.707
64298W        W36024  33.174  25.699  12.464
64299W        W36025  35.346  13.735   1.931
64300W        W36026  35.800  32.626   2.407
64301W        W36027  29.977  41.884   0.477
64302W        W36028  39.283  28.493  11.205
64303W        W36029  21.108  29.199  14.393
64304W        W36030   2.201  38.566  14.254
64305W        W36031  39.994  35.887   1.824
64306W        W36032  18.949   6.690   0.459
64307W        W36033  21.678  22.116  10.746
64308W        W36034  10.401  11.276   3.332
64309W        W36035   2.358  31.496  12.922
64310W        W36036  14.075  40.253   3.303
64311W        W36037   3.151  25.049  10.241
64312W        W36038  18.229  28.777  12.563
64313W        W36039  31.476  29.427   3.240
64314W        W36040  38.706   0.761   0.700
64315W        W36041  25.561   5.508   1.252
64316W        W36042   0.772  33.020   0.140
64317W        W36043   9.448  22.238  14.815
64318W        W36044  24.705  27.560   3.674
64319W        W36045  13.937   8.045  12.536
64320W        W36046  20.187  30.982   0.790
64321W        W36047  25.615  42.567  11.116
64322W        W36048  43.555   0.773  13.244
64323W        W36049   3.873   5.168   1.785
64324W        W36050  30.941  23.561   3.780
64325W        W36051   7.122  29.608   3.028
64326W        W36052  10.668  12.687  13.093
64327W        W36053  42.362  43.142  10.557
64328W        W36054  31.513  44.556   0.756
64329W        W36055  18.567  20.992  11.570
64330W        W36056  42.579  38.862  14.749
64331W        W36057   1.886  28.675   4.136
64332W        W36058   3.942  40.250   1.672
64333W        W36059  30.866  26.199   1.122
64334W        W36060   1.936  42.882  14.745
64335W        W36061  28.217   2.904   0.862
64336W        W36062  14.787   8.099   0.766
64337W        W36063  31.091   5.805   2.872
64338W        W36064  42.175  10.843  14.918
64339W        W36065  11.682  15.193   2.885
64340W        W36066   5.171  12.209   3.677
64341W        W36067   6.494  24.196   5.054
64342W        W36068  10.281   5.933  11.560
64343W        W36069  23.853   2.356  14.338
64344W        W36070   2.711  37.963   2.154
64345W        W36071  21.199  12.790   0.896
64346W        W36072  35.795  41.963   3.081
64347W        W36073  12.190  26.687   4.327
64348W        W36074  14.761  37.347  10.675
64349W        W36075  16.128   8.489   3.779
64350W        W36076   3.970  37.940   4.687
64351W        W36077  17.594  24.097   4.567
64352W        W36078  37.273   6.458  12.974
64353W        W36079  32.548  31.446  13.805
64354W        W36080  18.160   6.969   1.282
64355W        W36081  18.298  31.102  14.008
64356W        W36082   3.519  38.926   4.079
64357W        W36083  22.235  30.723  11.082
64358W        W36084  16.024  33.563  13.564
64359W        W36085  14.425  16.133  14.737
64360W        W36086  37.977  10.787  13.570
64361W        W36087   6.029  37.726   2.131
64362W        W36088  22.532  10.258   4.561
64363W        W36089  23.573   9.645   4.151
64364W        W36090  20.460  41.564   2.012
64365W        W36091  40.005  11.409  13.832
64366W        W36092  23.294   6.997  13.009
64367W        W36093  21.288  14.764   9.439
64368W        W36094  41.357   3.202   1.352
64369W        W36095  18.761  29.536   3.439
64370W        W36096  14.091  16.818  11.965
64371W        W36097  39.666  41.925   4.742
64372W        W36098   5.185  38.955  10.847
64373W        W36099   8.838  26.500  11.364
64374W        W36100  40.548   3.670   1.191
64375W        W36101  42.480  44.996  10.699
64376W        W36102  13.349  20.195   4.710
64377W        W36103   5.731   9.224  13.361
64378W        W36104  44.748  39.366  12.965
64379W        W36105  42.057  30.436  12.855
64380W        W36106  27.944  44.217  11.675
64381W        W36107  43.293  12.094   3.791
64382W        W36108  40.143  10.700  12.509
64383W        W36109  42.402  29.627  11.946
64384W        W36110  41.289  44.532  14.532
64385W        W36111  15.743   4.398   3.433
64386W        W36112   7.998  31.628   4.160
64387W        W36113   3.478  26.521   0.537
64388W        W36114  14.550   2.811  13.919
64389W        W36115   6.909  23.003  12.461
64390W        W36116  24.715   1.245   1.830
64391W        W36117  20.261  12.255  12.901
64392W        W36118  42.478   2.642  12.847
64393W        W36119  26.531  44.665   3.864
64394W        W36120  38.555  11.826   2.764
64395W        W36121   9.281  27.946   1.009
64396W        W36122  41.310   3.297   2.252
64397W        W36123  19.078  29.527   0.301
64398W        W36124  40.902   3.437   1.486
64399W        W36125  17.384   8.738  12.798
64400W        W36126  26.980  41.762  14.465
64401W        W36127  40.944  32.951   1.791
64402W        W36128  34.340  27.287   0.005
64403W        W36129   6.264  27.675  10.691
64404W        W36130  16.992   6.936   0.760
64405W        W36131   8.729  15.915  13.606
64406W        W36132  18.052  29.624  12.074
64407W        W36133  10.693  27.091  14.340
64408W        W36134   8.174  39.175  12.492
64409W        W36135  20.619  15.119  14.338
64410W        W36136  24.648  10.899   3.908
64411W        W36137  14.614  18.159  14.909
64412W        W36138  31.896   6.331   1.479
64413W        W36139  37.100   6.771  10.689
64414W        W36140   1.324   3.396   0.658
64415W        W36141  44.656  43.835   3.700
64416W        W36142   9.404   4.457   2.861
64417W        W36143  14.547  16.964   0.394
64418W        W36144  36.363  32.598   1.011
64419W        W36145  39.827  38.022  10.950
64420W        W36146   5.156  43.709   4.327
64421W        W36147  38.028  16.579  14.934
64422W        W36148  35.057   0.547   4.899
64423W        W36149  32.115  37.988  11.998
64424W        W36150   6.036  38.875   2.931
64425W        W36151  33.777   1.418   1.383
64426W        W36152  15.236  27.619   1.867
64427W        W36153  41.870   2.338   2.844
64428W        W36154   8.199  43.244  10.664
64429W        W36155   3.691   9.099  12.359
64430W        W36156  17.731  16.130  13.815
64431W        W36157  17.652   4.289  13.762
64432W        W36158  25.176  25.292   2.800
64433W        W36159  37.202  35.411   3.293
64434W        W36160  32.623  44.464  10.118
64435W        W36161   2.758  10.230  14.022
64436W        W36162  32.027  14.717   1.120
64437W        W36163  22.569   3.361  14.898
64438W        W36164  14.789  20.716  10.948
64439W        W36165  24.445  35.313   2.287
64440W        W36166  18.986  37.475   3.312
64441W        W36167   2.056  33.005  10.925
64442W        W36168  41.569   4.229  12.831
64443W        W36169  24.952   6.502  14.452
64444W        W36170  13.276  27.452   4.302
64445W        W36171  17.948  32.322  12.394
64446W        W36172  18.999  11.254   4.952
64447W        W36173   0.618  19.752  11.045
64448W        W36174  11.731  13.225  11.136
64449W        W36175  29.835  30.147   0.872
64450W        W36176  30.566   4.484  11.560
64451W        W36177  20.227   8.461  14.373
64452W        W36178  29.091  13.581   1.933
64453W        W36179  29.362   7.566   2.245
64454W        W36180  14.514  26.207   3.764
64455W        W36181   0.264  11.236   3.709
64456W        W36182  40.884   2.716   4.157
64457W        W36183  22.628  41.309   3.739
64458W        W36184   2.038  30.111  14.660
64459W        W36185  43.527   5.310   0.944
64460W        W36186  14.585  27.424   2.809
64461W        W36187   2.746  43.048   2.239
64462W        W36188  27.906  40.843  12.036
64463W        W36189  42.479  40.856   3.677
64464W        W36190   6.276  30.015  14.504
64465W        W36191  16.874  27.429   2.941
64466W        W36192  35.131   7.768  13.550
64467W        W36193  43.860   7.766  13.382
64468W        W36194  43.238  24.638   1.698
64469W        W36195   0.094  38.156  13.876
64470W        W36196  28.856  18.191  12.934
64471W        W36197  11.265  29.147  13.734
64472W        W36198  15.220  10.025   3.766
64473W        W36199  37.649   1.526  11.031
64474W        W36200  25.998  34.026   3.293
64475W        W36201  32.811  35.871   0.446
64476W        W36202  27.695  36.966  14.573
64477W        W36203  29.630  22.613   3.111
64478W        W36204  28.912   5.230  13.487
64479W        W36205  26.204   7.371   3.145
64480W        W36206   4.327  37.921  12.618
64481W        W36207   1.155  14.737   2.469
64482W        W36208  42.710  36.637   3.469
64483W        W36209  14.329  24.065   3.785
64484W        W36210   6.317  17.382  12.414
64485W        W36211  28.087  23.480  14.284
64486W        W36212  18.810  14.911  14.756
64487W        W36213  31.962  22.646   3.255
64488W        W36214  42.470   1.184   0.884
64489W        W36215   3.126  13.159   2.900
64490W        W36216  33.076   8.269   1.948
64491W        W36217  40.290  37.807  14.064
64492W        W36218   5.778  43.425  12.547
64493W        W36219  14.358  38.449  10.239
64494W        W36220  22.163  23.279   3.388
64495W        W36221   2.162  34.921   1.611
64496W        W36222  31.965  43.491   2.193
64497W        W36223  44.286  22.975   2.703
64498W        W36224  44.052  16.076  12.934
64499W        W36225  13.645  42.232   3.187
64500W        W36226  27.656  17.277  11.931
64501W        W36227  25.647  38.155   2.689
64502W        W36228  38.439  17.563   2.767
64503W        W36229  21.223  31.637  11.591
64504W        W36230  23.110  33.132   0.904
64505W        W36231  16.246  34.561   3.706
64506W        W36232  26.665  32.944   1.401
64507W        W36233  44.090  27.254  11.984
64508W        W36234  43.337  18.979   2.175
64509W        W36235   2.396  32.028  13.379
64510W        W36236  24.548  21.526   0.759
64511W        W36237   4.717  25.157  12.896
64512W        W36238  36.973  23.428  13.086
64513W        W36239  37.996  10.806  12.039
64514W        W36240  16.490  21.264  14.884
64515W        W36241  24.011  37.555  14.495
64516W        W36242  19.219  35.510  10.699
64517W        W36243  10.179   7.321   4.210
64518W        W36244   8.890  32.405   0.046
64519W        W36245  16.150  38.621   3.896
64520W        W36246  37.340  24.759  11.996
64521W        W36247  28.289  44.954  10.638
64522W        W36248   3.846   9.263  10.318
64523W        W36249   2.257   0.358   0.190
64524W        W36250  39.866  16.203   1.784
64525W        W36251  25.904  29.979   3.246
64526W        W36252  18.237  27.105  14.828
64527W        W36253  44.924  23.988   3.222
64528W        W36254   8.660  37.475  13.962
64529W        W36255  10.310  15.957  10.802
64530W        W36256  30.122  39.548   4.132
64531W        W36257   5.715  43.386   4.553
64532W        W36258   8.139  26.751  11.926
64533W        W36259  33.377  41.962  11.681
64534W        W36260   8.456  36.892   3.108
64535W        W36261   5.466  14.740   0.425
64536W        W36262  37.931  25.527  13.959
64537W        W36263  43.271  40.585   1.225
64538W        W36264  23.518  42.972  12.974
64539W        W36265  22.056  40.011  13.334
64540W        W36266  13.172  16.298  14.856
64541W        W36267  38.762  22.575   4.107
64542W        W36268  11.930   5.943   2.708
64543W        W36269  33.526  34.053  14.972
64544W        W36270  32.838  27.821  14.517
64545W        W36271   1.778  29.487   4.809
64546W        W36272  29.752   3.855  13.463
64547W        W36273  42.047  13.924   4.656
64548W        W36274  30.064   4.734   0.426
64549W        W36275  26.116  25.964   2.305
64550W        W36276  30.488  26.959  10.006
64551W        W36277  20.170  10.736  10.280
64552W        W36278  21.791  31.680  11.115
64553W        W36279  41.740  34.162   0.813
64554W        W36280  43.046  22.697  14.405
64555W        W36281  17.024  20.699   4.080
64556W        W36282  37.311  23.499   1.739
64557W        W36283  12.558  20.776  11.631
64558W        W36284  37.884   4.840  14.210
64559W        W36285  15.984   4.348   0.808
64560W        W36286  16.744   6.259   4.089
64561W        W36287   9.732   8.347  14.769
64562W        W36288  19.206  10.157   0.843
64563W        W36289   2.724  17.016  14.433
64564W        W36290  17.731  20.885   2.797
64565W        W36291  20.342  43.899  11.574
64566W        W36292  20.723  24.783  13.312
64567W        W36293  43.435   6.399  14.953
64568W        W36294  39.768   9.328  10.546
64569W        W36295  36.292   1.675  13.418
64570W        W36296  24.404  36.798  11.553
64571W        W36297  34.004  41.611  12.582
64572W        W36298  40.321  35.897   2.239
64573W        W36299   3.436  33.495   0.947
64574W        W36300  16.118  26.170   4.797
64575W        W36301   3.258  12.594  11.163
64576W        W36302   7.737  19.812  10.641
64577W        W36303  31.148  18.240   0.988
64578W        W36304  31.864  18.801   4.600
64579W        W36305   9.384  25.532  12.787
64580W        W36306  38.324  37.552   1.709
64581W        W36307  34.970  26.412   4.141
64582W        W36308  27.709   3.835  12.069
64583W        W36309  19.646  11.311  11.130
64584W        W36310   7.628  12.319   4.756
64585W        W36311  34.521   2.067   0.252
64586W        W36312   8.696   1.290   4.343
64587W        W36313  30.472  11.215   1.923
64588W        W36314  44.120  43.254  11.206
64589W        W36315   8.196   0.265   0.900
64590W        W36316   6.516   4.296   3.737
64591W        W36317  28.845   8.044  12.023
64592W        W36318  37.655   8.792  14.884
64593W        W36319  24.167  11.416  13.379
64594W        W36320  44.529   8.238   1.726
64595W        W36321  39.589  17.650   1.685
64596W        W36322  10.932  28.735   1.836
64597W        W36323  43.755  13.373   1.290
64598W        W36324  27.144  13.518   0.893
64599W        W36325  26.507  28.120   4.614
64600W        W36326  31.755  21.646   3.298
64601W        W36327   4.474  39.827   4.147
64602W        W36328  37.645   3.905   2.308
64603W        W36329   2.611   0.102  12.308
64604W        W36330  44.726  39.947   2.040
64605W        W36331  19.617  36.613   1.526
64606W        W36332  18.792  21.931   0.320
64607W        W36333  25.000  36.163  13.427
64608W        W36334  28.381  13.573  14.414
64609W        W36335  18.745  39.598   3.667
64610W        W36336  36.676   7.663  11.464
64611W        W36337   4.647  21.059   2.740
64612W        W36338  11.375  20.319  11.087
64613W        W36339   8.718   8.650  14.453
64614W        W36340  20.051   7.472  14.392
64615W        W36341  21.569  33.008  11.950
64616W        W36342  27.570  21.005  10.856
64617W        W36343  30.847  39.611  11.510
64618W        W36344  18.775  32.810  12.243
64619W        W36345  21.043  41.015   3.702
64620W        W36346  38.808  19.316  13.817
64621W        W36347   9.635  26.983   2.887
64622W        W36348  44.328  20.784  13.285
64623W        W36349  15.015  14.617   4.770
64624W        W36350  25.893  31.422   0.375
64625W        W36351  35.036   0.011   0.749
64626W        W36352   8.375  31.976  14.767
64627W        W36353  39.133  37.549   1.799
64628W        W36354  37.725  44.243   2.781
64629W        W36355  16.770  41.857   0.954
64630W        W36356  38.307  18.929   4.229
64631W        W36357  27.170   4.353  14.702
64632W        W36358  33.472  11.782  13.592
64633W        W36359  36.380  14.825  11.560
64634W        W36360  19.852  16.267   0.830
64635W        W36361  19.298  41.486   1.213
64636W        W36362  17.818  17.592  11.666
64637W        W36363  26.188  20.147  11.923
64638W        W36364   5.667  36.958   2.216
64639W        W36365  37.397   3.801   3.678
64640W        W36366  41.393  34.058  10.869
64641W        W36367  17.850  23.796   4.203
64642W        W36368   3.457  35.970   3.753
64643W        W36369  42.245  16.848  12.535
64644W        W36370  20.579   4.775   4.558
64645W        W36371  30.497  18.528  10.417
64646W        W36372  11.164   4.271  14.867
64647W        W36373  19.283  44.749  12.834
64648W        W36374  16.644   0.528  11.110
64649W        W36375   6.733  19.671   2.315
64650W        W36376  22.777  27.054   2.814
64651W        W36377  32.406  30.369  11.280
64652W        W36378  43.894  21.619  13.235
64653W        W36379   0.504  23.957   0.356
64654W        W36380  36.524  12.062  11.021
64655W        W36381  36.901  37.132  13.002
64656W        W36382  44.312   6.242   1.420
64657W        W36383  20.216  24.056  12.134
64658W        W36384  42.885  34.090   2.569
64659W        W36385  27.699  40.444  12.904
64660W        W36386  15.097  14.290   3.141
64661W        W36387  25.195  25.879   1.750
64662W        W36388  17.176   5.818   2.847
64663W        W36389  44.145  36.209   2.917
64664W        W36390  18.800   5.783   4.181
64665W        W36391  19.714   5.707  12.496
64666W        W36392  22.703  17.799   0.020
64667W        W36393  23.149  28.105   2.333
64668W        W36394  32.545  44.770   3.254
64669W        W36395  10.774  28.429  10.805
64670W        W36396  28.965   6.838  11.510
64671W        W36397   7.214  15.126  14.896
64672W        W36398  14.749   6.393   4.720
64673W        W36399  20.012  21.094  13.819
64674W        W36400  41.325  25.662   4.353
64675W        W36401  20.133   0.510  10.072
64676W        W36402  19.522  37.104  13.136
64677W        W36403  14.170  40.996   1.394
64678W        W36404  35.613   8.903   4.695
64679W        W36405  40.813  35.006   1.343
64680W        W36406  10.141   4.161  12.448
64681W        W36407  27.923  28.790   3.269
64682W        W36408  11.846   6.242  12.872
64683W        W36409  14.278  15.640   2.350
64684W        W36410  44.411  37.015   4.536
64685W        W36411  27.372  21.963  14.849
64686W        W36412   9.403  23.985   1.217
64687W        W36413  34.148  40.753  12.396
64688W        W36414  38.732  34.123   2.852
64689W        W36415  24.471  20.571  14.483
64690W        W36416   7.764   1.983   2.783
64691W        W36417  14.430  15.508  13.821
64692W        W36418  18.395  39.833   4.615
64693W        W36419  30.983   4.283   3.642
64694W        W36420  17.330  25.457   0.893
64695W        W36421  35.038  23.404   2.174
64696W        W36422  12.412  19.354   3.558
64697W        W36423  27.618   8.384   0.755
64698W        W36424  27.895  30.472   2.404
64699W        W36425  16.210   1.800   0.651
64700W        W36426  24.220  39.456   3.195
64701W        W36427  42.467  30.999   0.649
64702W        W36428   4.823  26.588   2.266
64703W        W36429   1.550  43.556   2.171
64704W        W36430  18.960  44.435   3.258
64705W        W36431   7.368  14.377  14.422
64706W        W36432  29.093  26.934  11.356
64707W        W36433   4.729   7.559   3.252
64708W        W36434  25.471  35.064   2.211
64709W        W36435   5.213   4.967  12.303
64710W        W36436  11.870  21.979   1.807
64711W        W36437   3.583  19.624   4.519
64712W        W36438  20.970   4.754  14.134
64713W        W36439  27.774   9.668   3.650
64714W        W36440   2.802  22.150   1.410
64715W        W36441  28.743  33.345   2.266
64716W        W36442  30.166  21.174   1.029
64717W        W36443  10.595  11.272  10.234
64718W        W36444  14.142  16.782  13.366
64719W        W36445  12.582  28.917   4.233
64720W        W36446  11.092  18.529   0.612
64721W        W36447   4.071   9.676  13.839
64722W        W36448   8.660  30.621  14.394
64723W        W36449   0.742  30.717  14.748
64724W        W36450  14.578   5.391  13.818
64725W        W36451  33.904  14.591   4.876
64726W        W36452  21.102  25.655   9.781
64727W        W36453  43.715   6.540   4.976
64728W        W36454  41.936  14.860   4.587
64729W        W36455  37.386  36.493  11.944
64730W        W36456  20.763  19.018   3.685
64731W        W36457  17.477  17.430   1.912
64732W        W36458  35.422  11.203   2.417
64733W        W36459  27.052  30.929   3.118
64734W        W36460   7.333  16.168  14.936
64735W        W36461  40.411  13.381  14.358
64736W        W36462  20.162  13.910   2.348
64737W        W36463  18.988  24.463  13.526
64738W        W36464  31.843   1.813   4.073
64739W        W36465  43.041   5.280   3.449
64740W        W36466   9.676   5.257   4.657
64741W        W36467   7.706   5.815   0.190
64742W        W36468   3.384  36.963  14.389
64743W        W36469  10.928  23.108  14.305
64744W        W36470  43.700   4.834   0.361
64745W        W36471  18.998  30.577   3.408
64746W        W36472  18.095   6.240   4.956
64747W        W36473  22.251  26.386  11.122
64748W        W36474  43.365   1.755  14.984
64749W        W36475  22.011  37.883   2.618
64750W        W36476  26.025  43.842   2.175
64751W        W36477   8.178  36.347  11.222
64752W        W36478  21.595  35.527   3.864
64753W        W36479   9.408  37.072   2.278
64754W        W36480   7.318   6.920  11.488
64755W        W36481  37.007   6.365  11.428
64756W        W36482  40.991   9.101   3.318
64757W        W36483  24.147  25.458   0.925
64758W        W36484  11.787   1.665   2.238
64759W        W36485  12.785   8.480  11.691
64760W        W36486  14.546  12.517  10.511
64761W        W36487   8.801  10.151   2.850
64762W        W36488  27.536  25.604  14.948
64763W        W36489  17.968  38.020   5.693
64764W        W36490  29.894  14.614  10.761
64765W        W36491  16.788  36.540  13.567
64766W        W36492  37.407   8.940   3.134
64767W        W36493  18.526  33.125  13.480
64768W        W36494   5.283  13.310   0.335
64769W        W36495  27.486   3.735   2.397
64770W        W36496   0.368   0.507  11.484
64771W        W36497   3.404  13.870  12.546
64772W        W36498   4.863  36.551   3.129
64773W        W36499  20.252  10.283   0.240
64774W        W36500  43.400  31.089  14.935
64775W        W36501  40.766   2.814  12.998
64776W        W36502  33.902   7.698   3.661
64777W        W36503  37.543  38.577   0.860
64778W        W36504   5.986   5.336  13.343
64779W        W36505  27.589  15.221  10.360
64780W        W36506   6.093  39.860   3.437
64781W        W36507  40.246  10.290  12.222
64782W        W36508   1.100  32.851   0.931
64783W        W36509  25.543   4.703   2.762
64784W        W36510   8.260  32.234   4.690
64785W        W36511   4.202  17.335  11.950
64786W        W36512   9.150  24.444   1.492
64787W        W36513  18.669  33.846   0.765
64788W        W36514  30.116   1.546  11.622
64789W        W36515  17.693  33.285  14.820
64790W        W36516  25.137  31.062  12.419
64791W        W36517  33.774  40.570   0.367
64792W        W36518   6.377  40.883   0.778
64793W        W36519  28.071  41.270  14.485
64794W        W36520   6.540   5.626   4.983
64795W        W36521  30.522  35.361   4.539
64796W        W36522  38.397   1.001  13.003
64797W        W36523  30.583  41.228   3.622
64798W        W36524   6.864  35.924   4.731
64799W        W36525  20.501   3.081   0.794
64800W        W36526  23.309  26.954  11.617
64801W        W36527  43.830  10.061  10.877
64802W        W36528  31.164  12.443  12.510
64803W        W36529  34.465  39.599  13.478
64804W        W36530  37.450  29.614   2.237
64805W        W36531  13.226  15.750  14.547
64806W        W36532   8.536  33.388  13.491
64807W        W36533  16.588  37.337  14.604
64808W        W36534  37.988  11.760  10.161
64809W        W36535  23.089  42.422  13.402
64810W        W36536   6.338  15.938  10.480
64811W        W36537  18.728  33.853   2.230
64812W        W36538  19.602   1.244   2.283
64813W        W36539  34.841  22.170   4.720
64814W        W36540  39.854  35.885   3.993
64815W        W36541  24.983   7.220  11.158
64816W        W36542  43.842   8.219   0.391
64817W        W36543  32.477  13.613  14.468
64818W        W36544  16.085  19.533   0.367
64819W        W36545  11.615  33.088   1.491
64820W        W36546  39.923  33.200   4.706
64821W        W36547  37.132  44.534   3.195
64822W        W36548  27.311   3.975  11.137
64823W        W36549   0.308   8.278  12.797
64824W        W36550  33.996  40.286  12.187
64825W        W36551  40.303  20.810  10.682
64826W        W36552  23.125  30.188  11.564
64827W        W36553  28.598  15.674  10.696
64828W        W36554  36.131  18.292   0.201
64829W        W36555  23.934   3.153  13.169
64830W        W36556   9.683  27.910  11.999
64831W        W36557   6.890  26.091  11.403
64832W        W36558  37.520  38.976  12.786
64833W        W36559  38.358  18.856  12.034
64834W        W36560  23.210  30.317   0.812
64835W        W36561  27.766  13.708   2.735
64836W        W36562  40.490   6.474   0.093
64837W        W36563  38.625   8.389   0.019
64838W        W36564  20.656  11.464  11.987
64839W        W36565   4.377  33.476  12.385
64840W        W36566  24.119  13.367  10.694
64841W        W36567  22.994  35.039   0.422
64842W        W36568  23.192   8.944   1.510
64843W        W36569  44.775  35.251  12.055
64844W        W36570  12.503  28.071  12.088
64845W        W36571  44.272  39.773   3.691
64846W        W36572   9.000  13.516  10.817
64847W        W36573   6.495  32.574  12.978
64848W        W36574  17.955  19.804  14.932
64849W        W36575  39.364  24.062  12.477
64850W        W36576  35.850   3.715  14.438
64851W        W36577  22.405  38.944  12.200
64852W        W36578  29.663  21.312   5.041
64853W        W36579  22.107  28.628  13.245
64854W        W36580   1.016  14.086   3.667
64855W        W36581  37.871  23.160   4.095
64856W        W36582  35.945  35.069  12.627
64857W        W36583  21.966  38.870  14.451
64858W        W36584   4.220  41.787  14.357
64859W        W36585   1.688  42.856   1.149
64860W        W36586  38.412   8.843  12.341
64861W        W36587  30.703  30.978   4.607
64862W        W36588  14.604  42.443   3.047
64863W        W36589  37.413   4.559  10.290
64864W        W36590  36.711  38.963  11.096
64865W        W36591  21.433  43.568   0.431
64866W        W36592  26.253  37.531  10.735
64867W        W36593   5.039  18.792   1.109
64868W        W36594  14.335  43.571   2.199
64869W        W36595   8.071   7.242   4.199
64870W        W36596   8.672  11.140  13.835
64871W        W36597  16.046  38.285  11.428
64872W        W36598   1.259  15.687  12.916
64873W        W36599   7.757  27.493   0.528
64874W        W36600  20.307  12.879  11.606
64875W        W36601  38.383  30.984   2.935
64876W        W36602  31.374   5.842   1.847
64877W        W36603  29.059  15.740  13.752
64878W        W36604  14.196  44.698  14.739
64879W        W36605  30.506  13.215   4.100
64880W        W36606   8.722   0.296  14.676
64881W        W36607  25.604  33.464   2.207
64882W        W36608  37.786  39.826   3.382
64883W        W36609   4.904  34.965  12.209
64884W        W36610  16.166  21.750  12.233
64885W        W36611   8.603  29.189  12.610
64886W        W36612  14.127  14.816  14.384
64887W        W36613  27.049   2.641  13.430
64888W        W36614  15.785  17.828   3.213
64889W        W36615   7.910  32.055   9.965
64890W        W36616  40.295  14.304   2.828
64891W        W36617  43.486   0.452   1.832
64892W        W36618  18.851  18.650   4.599
64893W        W36619  14.658  30.216  12.184
64894W        W36620  12.891  12.882  11.486
64895W        W36621   8.390   5.477   4.143
64896W        W36622  10.259   6.901   2.679
64897W        W36623  37.336  38.041  13.455
64898W        W36624  29.522   5.873   4.765
64899W        W36625  45.000  17.535  12.330
64900W        W36626  17.575  38.331   5.498
64901W        W36627  35.142  43.964   4.608
64902W        W36628  41.977   8.199  14.963
64903W        W36629  43.305  20.460   1.542
64904W        W36630  32.974  40.555  11.028
64905W        W36631  23.881   5.421  12.515
64906W        W36632  33.703  32.599   4.547
64907W        W36633  27.615  38.334  11.380
64908W        W36634  28.564  36.734   3.198
64909W        W36635  43.130  32.266  11.460
64910W        W36636  25.158   9.603   2.858
64911W        W36637  20.009  29.936  13.515
64912W        W36638  21.651  43.820  11.869
64913W        W36639   3.800  15.205  12.471
64914W        W36640  28.170  42.911   0.957
64915W        W36641  16.750  20.114   2.369
64916W        W36642  12.663  14.604  13.310
64917W        W36643  30.109  13.366  11.110
64918W        W36644  22.158  18.500  11.578
64919W        W36645  17.722  40.951   4.674
64920W        W36646  17.492  31.376   2.885
64921W        W36647  19.070  33.925  13.926
64922W        W36648  18.986  17.545   0.374
64923W        W36649   1.777  17.775   2.953
64924W        W36650  19.801   6.690  11.594
64925W        W36651  28.186   6.816   2.361
64926W        W36652  35.156  34.518   2.237
64927W        W36653  42.435   7.665  13.390
64928W        W36654  11.382  27.744  14.984
64929W        W36655  10.981  27.431   0.037
64930W        W36656   0.631   4.291   1.329
64931W        W36657  27.708  35.487  12.009
64932W        W36658  31.371  18.053   3.747
64933W        W36659  37.977   2.856  12.309
64934W        W36660  35.993  24.688  14.434
64935W        W36661  41.478  16.846  11.154
64936W        W36662  18.755  14.735  14.204
64937W        W36663  42.976  11.131   1.819
64938W        W36664  41.603  22.490  14.779
64939W        W36665  14.184  12.882   3.653
64940W        W36666  44.746  41.202   3.723
64941W        W36667  44.077  44.039   0.368
64942W        W36668  33.439  26.140  12.036
64943W        W36669  27.780  39.762  11.429
64944W        W36670  42.317  17.543   0.713
64945W        W36671  15.601  27.210  14.948
64946W        W36672  28.758  23.088   3.251
64947W        W36673  15.159  37.941   2.145
64948W        W36674  28.702   6.346   2.735
64949W        W36675  11.078   9.877  11.139
64950W        W36676  16.121  32.879  12.963
64951W        W36677  11.298  18.635   2.824
64952W        W36678  32.787  28.819   2.131
64953W        W36679  12.355  15.582   1.246
64954W        W36680  14.425  20.043   4.080
64955W        W36681  23.207  42.799   4.141
64956W        W36682  38.265  24.815  11.986
64957W        W36683  14.051   3.423   0.177
64958W        W36684  15.642  31.135  10.975
64959W        W36685  22.204   0.928  14.975
64960W        W36686  32.171  28.453  14.683
64961W        W36687  24.562  34.399   3.174
64962W        W36688  30.963  23.855   5.469
64963W        W36689  36.055  41.014   3.404
64964W        W36690  10.850   2.037   1.933
64965W        W36691   6.600   1.243  11.203
64966W        W36692   1.821  20.797  14.487
64967W        W36693  38.894  28.672  14.495
64968W        W36694  44.812  30.601   2.719
64969W        W36695  41.911  11.020   2.100
64970W        W36696  33.620  30.442   5.083
64971W        W36697  13.383  10.841   4.244
64972W        W36698  11.874   3.440  11.185
64973W        W36699  41.355   7.401  13.451
64974W        W36700   4.694   6.363   3.852
64975W        W36701  10.884   7.865   4.635
64976W        W36702  33.760  19.041  12.109
64977W        W36703   1.886  33.526   0.873
64978W        W36704  43.907  42.856  13.542
64979W        W36705  18.178  23.222  10.306
64980W        W36706  21.876  26.680   2.469
64981W        W36707  39.814  27.603   0.289
64982W        W36708  34.988  22.532   1.950
64983W        W36709  21.781  11.246   1.944
64984W        W36710  18.603  16.806   4.498
64985W        W36711  11.772  44.505  10.424
64986W        W36712  10.106   7.780   4.713
64987W        W36713  28.703   7.091  13.329
64988W        W36714  20.508  43.871  11.057
64989W        W36715  42.518   6.640  12.413
64990W        W36716  11.395  21.072  14.882
64991W        W36717  17.614  41.474   4.484
64992W        W36718  38.079  10.781  11.028
64993W        W36719  44.436  44.532   5.377
64994W        W36720  20.991  29.668  11.142
64995W        W36721   8.161  28.622   3.375
64996W        W36722   1.462  24.331   0.417
64997W        W36723  22.007  19.480   3.685
64998W        W36724  33.945  26.363  13.002
64999W        W36725   6.432  13.192  11.997
65000W        W36726  38.287  24.003  14.521
65001W        W36727   9.697   7.320   1.258
65002W        W36728  11.883  34.845   4.582
65003W        W36729  28.683  28.114   0.314
65004W        W36730  35.028  22.706  12.184
65005W        W36731  17.251   4.763  14.322
65006W        W36732  28.860  31.906   0.457
65007W        W36733   5.449   4.757   1.429
65008W        W36734   8.643  22.614  11.132
65009W        W36735  35.258  33.892  11.109
65010W        W36736   7.722  40.073  10.902
65011W        W36737  16.045  10.616  12.841
65012W        W36738   5.782  15.684   2.035
65013W        W36739   7.667   5.702  10.146
65014W        W36740  42.689  33.461  13.322
65015W        W36741  28.903  30.193  12.079
65016W        W36742  24.593  14.367   0.434
65017W        W36743  42.829   3.435  10.164
65018W        W36744   6.108  19.060   2.902
65019W        W36745  26.041  12.866   4.224
65020W        W36746  31.407  16.778   3.965
65021W        W36747  16.726  13.877  12.941
65022W        W36748  15.099  36.853  14.344
65023W        W36749  17.506  20.140  13.694
65024W        W36750  28.390  25.102   1.291
65025W        W36751  42.710  26.703  14.717
65026W        W36752  28.383   9.356  14.429
65027W        W36753  28.694  26.604   1.164
65028W        W36754  34.984  41.989   0.944
65029W        W36755  28.557  32.704   0.223
65030W        W36756  34.252  27.638  12.527
65031W        W36757   3.844   9.730  11.572
65032W        W36758  29.054  27.033  11.868
65033W        W36759   8.181  16.226   1.895
65034W        W36760  40.053  12.270   4.560
65035W        W36761  23.635  43.458  12.911
65036W        W36762  20.112  25.665   4.392
65037W        W36763  11.263  17.194   0.769
65038W        W36764   5.839  29.097  11.146
65039W        W36765   9.358  16.428   2.194
65040W        W36766  38.349  24.146   2.793
65041W        W36767   6.202  26.100   4.235
65042W        W36768  12.210  22.048  13.433
65043W        W36769  14.181   9.880   4.620
65044W        W36770   7.452   6.151   3.546
65045W        W36771  38.906  40.813  11.579
65046W        W36772  13.814   8.861   4.237
65047W        W36773  37.573   0.256  14.825
65048W        W36774   3.667  12.518   1.902
65049W        W36775  17.030  39.337   1.799
65050W        W36776  17.579   2.072  12.014
65051W        W36777  29.616  17.898   3.452
65052W        W36778  39.705  40.884  10.523
65053W        W36779  37.699  21.127  13.540
65054W        W36780  14.409  16.673   2.371
65055W        W36781   7.137  35.054  10.559
65056W        W36782  17.112  28.563   4.353
65057W        W36783  20.262  21.963   2.202
65058W        W36784  42.415  11.370   4.428
65059W        W36785  44.295  14.853  13.481
65060W        W36786  31.327  29.080  12.522
65061W        W36787   6.791  42.259   2.577
65062W        W36788  22.270  42.281  13.036
65063W        W36789  36.434  43.047   4.141
65064W        W36790  19.638   1.941   0.270
65065W        W36791   0.289  10.122  10.652
65066W        W36792  29.080  24.140   1.814
65067W        W36793  20.162  18.787  12.397
65068W        W36794   4.868   2.881   4.049
65069W        W36795  38.617  17.160  11.444
65070W        W36796  37.587  44.840  13.953
65071W        W36797  20.958  39.823  12.571
65072W        W36798  17.580  40.756   1.344
65073W        W36799   6.164  24.324   1.064
65074W        W36800  44.721  10.124   4.746
65075W        W36801  36.437  40.819  14.917
65076W        W36802  36.080  20.608   2.658
65077W        W36803  20.045  15.466  12.608
65078W        W36804   2.388  21.083   4.701
65079W        W36805   1.208  26.750  11.668
65080W        W36806  15.147  22.131   0.503
65081W        W36807  23.503  17.993  13.240
65082W        W36808  12.314  26.200  14.844
65083W        W36809  32.972  24.965  11.080
65084W        W36810   1.012  20.070   0.817
65085W        W36811  43.687  28.986  14.748
65086W        W36812  37.818  10.786   3.234
65087W        W36813  12.872  27.076   4.345
65088W        W36814  26.877   9.486  14.431
65089W        W36815  16.091   9.286   2.887
65090W        W36816  35.974  23.479  13.638
65091W        W36817  38.829  27.806  12.931
65092W        W36818  24.024  21.657   4.360
65093W        W36819  31.383   3.907  10.716
65094W        W36820  26.064  25.024  13.993
65095W        W36821   5.131  28.546  14.127
65096W        W36822   9.212   1.062   0.213
65097W        W36823  10.259  24.996  10.214
65098W        W36824  22.165  32.732   2.434
65099W        W36825  42.655  19.581  10.747
65100W        W36826   7.440  37.445   4.769
65101W        W36827  14.205  10.843  12.781
65102W        W36828  16.619   3.461  11.934
65103W        W36829  30.520  29.496   3.872
65104W        W36830  22.013  28.340   0.615
65105W        W36831   7.030  43.337  13.530
65106W        W36832   6.424  10.338   2.346
65107W        W36833  42.005  12.187  11.103
65108W        W36834  24.488  18.687  10.854
65109W        W36835  22.081   4.987   3.311
65110W        W36836  33.390  12.727   0.361
65111W        W36837   7.983   3.342   4.035
65112W        W36838  28.669  15.668   2.419
65113W        W36839  34.175  22.760  10.009
65114W        W36840   3.488   3.378   2.495
65115W        W36841   0.039   5.579  12.930
65116W        W36842   4.756  35.546  10.213
65117W        W36843  24.300  34.119   1.374
65118W        W36844  20.688   2.045   0.759
65119W        W36845   6.097  44.045  11.821
65120W        W36846  27.697  22.243   0.974
65121W        W36847  16.697  14.042   0.006
65122W        W36848  21.483   7.276   0.766
65123W        W36849  25.649  12.796   2.843
65124W        W36850   5.360  33.811  14.861
65125W        W36851  32.385  27.098   1.796
65126W        W36852  16.441  34.423   4.187
65127W        W36853   8.462   1.890   4.161
65128W        W36854   1.406  39.309  14.042
65129W        W36855  17.137  11.413   0.216
65130W        W36856  34.647  13.187  11.136
65131W        W36857  27.515  31.929   4.370
65132W        W36858  10.318  37.876  12.544
65133W        W36859  27.882  19.378   2.651
65134W        W36860  34.246  30.353  14.247
65135W        W36861  23.123  41.471  11.929
65136W        W36862  43.563  14.654  10.674
65137W        W36863   8.353  18.554   1.696
65138W        W36864   2.718  31.032   1.430
65139W        W36865  23.050   1.465   0.804
65140W        W36866   7.152  40.605   2.777
65141W        W36867   2.149   0.231   4.702
65142W        W36868  38.398  43.197   3.389
65143W        W36869   4.720   6.836   2.047
65144W        W36870  21.206  14.139   0.173
65145W        W36871   6.468  34.156  12.029
65146W        W36872  35.072  35.187  10.706
65147W        W36873  41.663   6.802  13.242
65148W        W36874   5.235  25.127  12.985
65149W        W36875  22.697  28.595  11.130
65150W        W36876  23.525   5.255  12.933
65151W        W36877  15.975  15.522   0.853
65152W        W36878  41.989  27.103   0.337
65153W        W36879  24.068  17.124   0.073
65154W        W36880   1.155  22.135   3.809
65155W        W36881  28.542  34.809  13.633
65156W        W36882  20.705  30.124  10.707
65157W        W36883   8.822   1.555  10.440
65158W        W36884  24.558  13.842   0.435
65159W        W36885  15.956  18.601   4.098
65160W        W36886  19.274  35.915   4.016
65161W        W36887  41.733   2.820   2.789
65162W        W36888  41.886   0.250   3.745
65163W        W36889  32.389  41.984   0.989
65164W        W36890  41.684  31.337  10.907
65165W        W36891   4.840  30.768   4.241
65166W        W36892  10.669  13.746   2.278
65167W        W36893  16.392  31.450  13.399
65168W        W36894   1.412  26.893  13.805
65169W        W36895  30.022  25.247   3.552
65170W        W36896  33.431  17.256  12.513
65171W        W36897  44.815   6.228   0.433
65172W        W36898  29.132  30.525  13.946
65173W        W36899  29.898   8.738   1.243
65174W        W36900  23.702  32.642   0.752
65175W        W36901  41.055  40.874  14.161
65176W        W36902  40.998  11.765   1.781
65177W        W36903   8.702  38.080  10.941
65178W        W36904  40.562  20.069   3.212
65179W        W36905  28.047  15.776   2.674
65180W        W36906  21.073   2.790  12.131
65181W        W36907   0.383  22.120  14.373
65182W        W36908  31.648  22.695   0.308
65183W        W36909   9.186   0.302  12.519
65184W        W36910  37.131   7.716   2.713
65185W        W36911   9.324  19.151  11.334
65186W        W36912   1.296  42.885   2.401
65187W        W36913   3.425   0.415   2.658
65188W        W36914  21.461  33.551  13.089
65189W        W36915  15.827  17.793   4.159
65190W        W36916  30.265  25.126   1.513
65191W        W36917  21.594   0.918  11.625
65192W        W36918   5.178  18.226  11.613
65193W        W36919  12.931  10.588   4.290
65194W        W36920  28.653  12.234  12.920
65195W        W36921  31.691  26.299   9.867
65196W        W36922  18.567  42.013   4.825
65197W        W36923  27.884  37.040   2.201
65198W        W36924  37.333  22.596  13.313
65199W        W36925   7.978  39.047   4.111
65200W        W36926  39.508   9.803  10.919
65201W        W36927  17.267   3.239   1.665
65202W        W36928  38.168  16.567   2.191
65203W        W36929  43.760  43.541   0.477
65204W        W36930  40.944  25.067  14.466
65205W        W36931  19.431   5.505  11.989
65206W        W36932  39.462  44.500   3.743
65207W        W36933  12.189   5.183   4.724
65208W        W36934  16.849  36.789   0.424
65209W        W36935  12.329  34.236  14.459
65210W        W36936  35.955  31.385  11.100
65211W        W36937  43.386  36.486  13.247
65212W        W36938  14.337  42.621   2.455
65213W        W36939   2.054  14.696  11.841
65214W        W36940  19.740   7.550  11.092
65215W        W36941  11.208  35.976  13.347
65216W        W36942  38.059  29.473   4.230
65217W        W36943  16.245  43.972   2.328
65218W        W36944  11.295  10.199   2.582
65219W        W36945  26.998   3.046   1.315
65220W        W36946  10.439  21.724   3.869
65221W        W36947   7.743  21.981   3.242
65222W        W36948  38.077  42.639  10.115
65223W        W36949  18.386   3.278  11.118
65224W        W36950   5.147   6.126   3.293
65225W        W36951   6.814  20.987  12.627
65226W        W36952  33.335   2.293   0.490
65227W        W36953   8.400  38.336  14.240
65228W        W36954  26.431  36.641  14.884
65229W        W36955   3.767  22.111  11.381
65230W        W36956   7.134  13.260  13.342
65231W        W36957  24.085   7.879  10.476
65232W        W36958  28.990  21.528  14.447
65233W        W36959   9.330  30.993  13.869
65234W        W36960  19.308  41.051   3.926
65235W        W36961  40.584  18.546   1.343
65236W        W36962  22.197  39.843  10.591
65237W        W36963  23.318  19.778  14.941
65238W        W36964  27.735  23.653  12.474
65239W        W36965  40.274  44.304   3.250
65240W        W36966   5.665   2.814  12.480
65241W        W36967  32.300   4.252  13.698
65242W        W36968  16.826   5.869  10.614
65243W        W36969  36.410  28.090   0.749
65244W        W36970  40.406   1.480   3.198
65245W        W36971   6.891  12.580   1.672
65246W        W36972  17.565  13.958   4.439
65247W        W36973   5.757  28.553   4.058
65248W        W36974   4.285   0.751  11.404
65249W        W36975   9.220  41.250   4.812
65250W        W36976  12.627  21.676  14.336
65251W        W36977  13.760  21.985  12.265
65252W        W36978  31.849  39.959   0.327
65253W        W36979  20.702  38.754  14.886
65254W        W36980  34.991  32.330   0.288
65255W        W36981  34.105  16.319   4.397
65256W        W36982   0.527  15.544  13.383
65257W        W36983  14.669  23.692   0.292
65258W        W36984   5.283  17.620   0.466
65259W        W36985  27.498   2.306  14.206
65260W        W36986  17.757  39.282   0.234
65261W        W36987  10.454   5.762  12.428
65262W        W36988  15.832   5.295   4.752
65263W        W36989  16.025  14.345  11.884
65264W        W36990  43.406  14.130  12.648
65265W        W36991  38.947  42.470   0.347
65266W        W36992   5.306   2.923   1.638
65267W        W36993   6.684   4.385  12.011
65268W        W36994  20.547   7.424  13.456
65269W        W36995  13.172  44.738   3.363
65270W        W36996  29.257  40.275  13.002
65271W        W36997  13.695  40.770   2.430
65272W        W36998  29.754   8.633  14.800
65273W        W36999  33.178  38.842  13.424
65274W        W37000  17.593  40.877   2.212
65275W        W37001  28.015   1.499   0.899
65276W        W37002  13.377   5.507  11.156
65277W        W37003  29.935   8.916   3.758
65278W        W37004  40.607  36.495   3.782
65279W        W37005   1.323  30.217   2.416
65280W        W37006  37.843  41.545  12.079
65281W        W37007   8.653   9.687   1.482
65282W        W37008  16.577  42.553   0.237
65283W        W37009  39.281  29.018   4.147
65284W        W37010  24.683   9.100  14.408
65285W        W37011  10.721  11.788   0.400
65286W        W37012  23.541  37.951  13.434
65287W        W37013  44.074  29.597   1.939
65288W        W37014  13.101  24.419  14.977
65289W        W37015  23.543  30.770   1.861
65290W        W37016  14.301   4.499  10.798
65291W        W37017  15.789   3.296  10.298
65292W        W37018   9.258  19.790   4.745
65293W        W37019   0.775  11.956  13.962
65294W        W37020  27.212   3.956  12.073
65295W        W37021  37.369  30.632   1.437
65296W        W37022  23.794  19.171   0.713
65297W        W37023  27.950   6.288   4.500
65298W        W37024  15.109   2.990  11.980
65299W        W37025  38.668  23.213  14.095
65300W        W37026   6.565  30.407  14.336
65301W        W37027  22.735  11.748   2.847
65302W        W37028  21.519  11.245   3.809
65303W        W37029   5.985  34.890   2.783
65304W        W37030   0.724  40.034   2.191
65305W        W37031   6.615  41.440   0.466
65306W        W37032  20.688   0.903   4.608
65307W        W37033  11.734  36.847   2.868
65308W        W37034  25.992  20.537   1.646
65309W        W37035   8.759  26.630   0.277
65310W        W37036  44.388  26.520   1.584
65311W        W37037  21.763  44.343   3.606
65312W        W37038   5.242  38.535  12.941
65313W        W37039   6.810   1.684  14.468
65314W        W37040   8.846   0.143  12.889
65315W        W37041  15.367  39.304  13.559
65316W        W37042  34.485  29.354   3.720
65317W        W37043  33.515  28.820   3.758
65318W        W37044   0.864  24.599  12.684
65319W        W37045  42.428  15.910   3.312
65320W        W37046  42.039  31.087  13.370
65321W        W37047  32.350  41.882   1.937
65322W        W37048   8.893  37.130  10.624
65323W        W37049  28.570  17.311   0.497
65324W        W37050  16.276   9.174   4.294
65325W        W37051  17.691  14.545  11.634
65326W        W37052  26.240  31.495   1.779
65327W        W37053   8.190  36.226   4.663
65328W        W37054  36.521  17.650   3.310
65329W        W37055  24.938  43.747   3.753
65330W        W37056  25.236  26.051   0.956
65331W        W37057   6.996  13.853  10.736
65332W        W37058   2.356   9.625  10.620
65333W        W37059  36.585  20.471   4.117
65334W        W37060  30.374   5.410  14.335
65335W        W37061   0.823   0.482   3.631
65336W        W37062  12.761  22.512   0.472
65337W        W37063   0.705   7.463  10.074
65338W        W37064  37.166  18.718  12.529
65339W        W37065  44.251  40.791  11.187
65340W        W37066   8.213  38.251   1.252
65341W        W37067  24.999   4.166  12.778
65342W        W37068  26.715  14.135  14.431
65343W        W37069  37.549  27.555   3.639
65344W        W37070  24.032  24.460  14.042
65345W        W37071  38.003  40.380   0.467
65346W        W37072  27.135  44.894   3.257
65347W        W37073  15.275  21.198  11.481
65348W        W37074  38.464  16.663   1.028
65349W        W37075  20.524  21.700  13.348
65350W        W37076  10.568  21.267   3.658
65351W        W37077  10.987  22.952   0.866
65352W        W37078  11.074  12.566   1.236
65353W        W37079   4.630  13.935  14.181
65354W        W37080  37.565   7.759  12.600
65355W        W37081  24.319  22.442  11.968
65356W        W37082  24.997  43.767  10.710
65357W        W37083  13.753  44.529  13.037
65358W        W37084   3.991  36.719  11.093
65359W        W37085  12.830   8.287   3.226
65360W        W37086  38.942  19.267  14.383
65361W        W37087   8.948  29.933  11.545
65362W        W37088  35.057  11.840   2.609
65363W        W37089  21.175   2.242  10.423
65364W        W37090  13.042   9.701  12.753
65365W        W37091  42.083  21.087  14.109
65366W        W37092  11.759  35.978  10.647
65367W        W37093   6.997  40.259   1.132
65368W        W37094  11.418  36.889   3.792
65369W        W37095  16.157   8.153   0.010
65370W        W37096  39.902  44.877  13.390
65371W        W37097   1.390   2.745   3.981
65372W        W37098  33.096  33.894  10.920
65373W        W37099  29.813  33.398   1.706
65374W        W37100  31.999  18.558  12.544
65375W        W37101   9.740  30.020   1.711
65376W        W37102  41.553  12.699   2.087
65377W        W37103  41.908  18.371   4.517
65378W        W37104  18.876  26.784   3.711
65379W        W37105  24.648  11.892   2.856
65380W        W37106  33.384  11.785  10.645
65381W        W37107  11.701  22.247  12.600
65382W        W37108  32.027  14.238   1.635
65383W        W37109  13.571  16.301   3.254
65384W        W37110  30.912   2.239  12.945
65385W        W37111  30.545  30.975  12.438
65386W        W37112  34.531   8.745   4.242
65387W        W37113  29.699  35.495   0.957
65388W        W37114   8.684  21.994  11.938
65389W        W37115  10.176  13.873  13.560
65390W        W37116   4.188  15.347   2.383
65391W        W37117  24.670  29.447   0.382
65392W        W37118  32.819  43.705   1.820
65393W        W37119  29.242  39.261   2.069
65394W        W37120   3.367  44.447   0.988
65395W        W37121  20.756  26.628   0.897
65396W        W37122  24.555   1.423   0.445
65397W        W37123  19.723  21.294  10.481
65398W        W37124   8.282   8.003   2.196
65399W        W37125  27.574  42.886   3.353
65400W        W37126  16.224  38.142   1.734
65401W        W37127  37.156   5.934   4.056
65402W        W37128  35.515  44.525  12.864
65403W        W37129  27.647   1.812  14.337
65404W        W37130  18.536  26.913   3.271
65405W        W37131  27.909  31.839   9.977
65406W        W37132  21.219   8.609   0.938
65407W        W37133   5.315  30.541   0.829
65408W        W37134   8.133  16.775  12.999
65409W        W37135  27.782  30.006   4.292
65410W        W37136   4.469  39.983   0.461
65411W        W37137  42.435  19.207  14.016
65412W        W37138  33.482  32.887   1.431
65413W        W37139  34.687   0.465  13.977
65414W        W37140  16.057  18.183  13.385
65415W        W37141  15.200   1.329   3.687
65416W        W37142  13.527   4.994  14.956
65417W        W37143  37.638  33.293   4.614
65418W        W37144   1.893  36.604   0.846
65419W        W37145   2.192  44.052  14.451
65420W        W37146  41.507   3.411  14.054
65421W        W37147  30.628  42.044  10.554
65422W        W37148  32.069  42.051  13.784
65423W        W37149  16.065  33.194   2.774
65424W        W37150  18.763  27.285   3.653
65425W        W37151  39.389  21.986   1.454
65426W        W37152   3.647  43.493  12.801
65427W        W37153  23.188   8.763   1.989
65428W        W37154  30.741  25.870  13.757
65429W        W37155   5.984  12.437   3.203
65430W        W37156  17.020  23.712   2.383
65431W        W37157  42.325  26.518  12.322
65432W        W37158  11.201  41.914  12.845
65433W        W37159   1.834   5.824   3.657
65434W        W37160  32.303  19.011  12.379
65435W        W37161  37.387  26.459   3.305
65436W        W37162  18.386   8.791   2.940
65437W        W37163  35.157  13.722  14.041
65438W        W37164  31.328  34.506   4.498
65439W        W37165  35.808  31.045  10.709
65440W        W37166   1.732  35.311   3.823
65441W        W37167   1.330  16.815   2.292
65442W        W37168  21.252   7.633  12.075
65443W        W37169  31.599  24.755  11.122
65444W        W37170   8.320  34.758  12.393
65445W        W37171  33.397   8.304  13.890
65446W        W37172   8.104  42.700   3.701
65447W        W37173  39.161  27.956   2.539
65448W        W37174  16.735  21.562   4.399
65449W        W37175   8.619  28.972   1.534
65450W        W37176   3.541  14.187  13.545
65451W        W37177  13.644  37.036   0.546
65452W        W37178  15.299  16.157  11.410
65453W        W37179   2.613  42.261   1.941
65454W        W37180  27.043   1.625   9.546
65455W        W37181  17.806  25.955  14.396
65456W        W37182  21.573  14.512  12.588
65457W        W37183  32.108  12.042   2.110
65458W        W37184   3.727  11.782   3.306
65459W        W37185  35.152  19.334  12.121
65460W        W37186  18.276  33.342   2.957
65461W        W37187  17.675  41.853  14.717
65462W        W37188  14.873  23.631   4.558
65463W        W37189  37.151  23.657  12.106
65464W        W37190  20.707   0.988  14.115
65465W        W37191  29.460  38.399  11.579
65466W        W37192  12.169   6.129   3.169
65467W        W37193  42.102  32.024  11.580
65468W        W37194  20.270   7.680  11.669
65469W        W37195  17.235  36.171   2.174
65470W        W37196  12.382  43.912   2.244
65471W        W37197  41.257  33.612   2.245
65472W        W37198  38.115   6.195   1.350
65473W        W37199  15.201   5.519  14.994
65474W        W37200   5.380  43.529  10.658
65475W        W37201  29.163  41.203  13.927
65476W        W37202  11.343  24.236   5.258
65477W        W37203  28.654  15.586  13.489
65478W        W37204  19.062  19.260   4.412
65479W        W37205  11.344  31.858  13.979
65480W        W37206  44.421  11.297   2.801
65481W        W37207  42.401  32.351   2.707
65482W        W37208  20.154  27.448   3.325
65483W        W37209  32.121  33.677   1.501
65484W        W37210   1.013  44.903  13.047
65485W        W37211   4.761  41.582   0.997
65486W        W37212  14.920   1.905  12.165
65487W        W37213  21.960   7.839  10.372
65488W        W37214  26.431  18.240  13.525
65489W        W37215  27.076  15.394  11.958
65490W        W37216  17.506   8.230   3.751
65491W        W37217  11.636   3.268  10.727
65492W        W37218   0.325  26.955   0.295
65493W        W37219  27.915  30.111   3.778
65494W        W37220  22.424  33.499  12.630
65495W        W37221  33.619   8.067  14.332
65496W        W37222  33.073  30.295  14.081
65497W        W37223  35.473  28.658   1.285
65498W        W37224  28.550  28.375   1.848
65499W        W37225  39.392  31.194  12.921
65500W        W37226  16.386  37.871  13.382
65501W        W37227  21.822  15.672   4.706
65502W        W37228  42.556   0.221   2.234
65503W        W37229  36.345   5.898  11.520
65504W        W37230  40.095  25.269  10.576
65505W        W37231   9.249  27.122   2.123
65506W        W37232  19.707  30.474   2.105
65507W        W37233  22.166  41.372  13.533
65508W        W37234  35.395  25.793  13.829
65509W        W37235  13.119  42.338   3.081
65510W        W37236  32.484  25.094  13.527
65511W        W37237  27.758  16.869  12.342
65512W        W37238  31.014  28.445  12.368
65513W        W37239  38.544  42.106  11.219
65514W        W37240  15.851   4.785  13.948
65515W        W37241  33.890  14.825   0.323
65516W        W37242   9.500  29.087  14.344
65517W        W37243  34.716  38.636  11.108
65518W        W37244  36.088   8.244   1.831
65519W        W37245   1.961  31.840   1.433
65520W        W37246   4.677  37.163   1.378
65521W        W37247  34.593  27.393  14.556
65522W        W37248  37.603  21.371   0.908
65523W        W37249  38.868   8.895  12.633
65524W        W37250  10.258  35.087  12.964
65525W        W37251   6.221  39.895   1.522
65526W        W37252  42.238  40.481   3.971
65527W        W37253   4.049  24.268   3.275
65528W        W37254   0.941  26.688  13.963
65529W        W37255  18.280  42.312   0.994
65530W        W37256  39.802   7.187   4.600
65531W        W37257  27.014  42.907   3.117
65532W        W37258  30.702   2.100  11.208
65533W        W37259  39.771  27.634   1.657
65534W        W37260  26.189   5.669   1.514
65535W        W37261  11.401  35.949   2.621
65536W        W37262   4.451  44.829   4.861
65537W        W37263  28.201   5.919  13.193
65538W        W37264  35.959  44.032  13.847
65539W        W37265  40.138  26.175   4.272
65540W        W37266  22.174   3.665   0.792
65541W        W37267  13.358   3.084   2.803
65542W        W37268  15.343  12.187   2.388
65543W        W37269  11.213  32.974  10.665
65544W        W37270  44.449   0.053  13.660
65545W        W37271  34.075  18.354  13.095
65546W        W37272  28.563  39.548  11.879
65547W        W37273  30.194  36.906   1.214
65548W        W37274  28.563  31.644   2.772
65549W        W37275  36.808   9.171   4.313
65550W        W37276  29.404   4.756  12.180
65551W        W37277  13.049  13.114  13.801
65552W        W37278   9.833  13.040  13.371
65553W        W37279  33.006  37.019   4.668
65554W        W37280  38.568  31.861   3.659
65555W        W37281   9.808  37.152  14.328
65556W        W37282  44.945   9.438   0.951
65557W        W37283  18.616  29.996  13.335
65558W        W37284  17.181  35.521   3.832
65559W        W37285  16.105  39.563  14.347
65560W        W37286   3.424  18.767  11.323
65561W        W37287   6.702   0.831  12.307
65562W        W37288   2.392  25.482   0.281
65563W        W37289   2.222  21.945   4.148
65564W        W37290  28.962  43.064   3.759
65565W        W37291  40.342  15.931  10.962
65566W        W37292  22.311  13.469   3.565
65567W        W37293   3.262   9.858  10.789
65568W        W37294  25.492  30.457   1.877
65569W        W37295  39.531  39.269   1.901
65570W        W37296   3.978  11.672  11.888
65571W        W37297  25.664  22.694  12.313
65572W        W37298  10.637  18.070  12.007
65573W        W37299  10.852  35.700  14.889
65574W        W37300  10.174   0.881  12.549
65575W        W37301  41.862  13.653  13.847
65576W        W37302  24.574  26.533   2.675
65577W        W37303  28.144   7.686   4.985
65578W        W37304   6.245  37.351  11.130
65579W        W37305   7.785   4.339  14.020
65580W        W37306   6.721  18.242   3.356
65581W        W37307   1.031  38.920   2.225
65582W        W37308  25.739  31.998   5.120
65583W        W37309  11.899  20.192   2.277
65584W        W37310   6.170   8.761   0.095
65585W        W37311  30.064  42.518   4.543
65586W        W37312  15.890  12.272  10.684
65587W        W37313  42.370  12.385   4.812
65588W        W37314  11.791  24.716   3.192
65589W        W37315   1.883  16.050  12.919
65590W        W37316  40.943  18.963  11.263
65591W        W37317   7.612  19.191  13.512
65592W        W37318  21.164   2.779  11.130
65593W        W37319  28.352  24.265  10.692
65594W        W37320  34.184  12.851  12.916
65595W        W37321  40.551  18.308   3.741
65596W        W37322  11.456  39.886  12.473
65597W        W37323  23.439  35.172   4.705
65598W        W37324   0.289  16.276   2.345
65599W        W37325   6.806  15.536   5.426
65600W        W37326  41.390  19.584  10.520
65601W        W37327  12.185  12.112   2.154
65602W        W37328  21.562   5.275   4.404
65603W        W37329  21.554  31.536   3.250
65604W        W37330   9.845  42.463   2.210
65605W        W37331  22.972  13.407  12.023
65606W        W37332  21.187  20.504  12.891
65607W        W37333  29.118  22.261  12.394
65608W        W37334   1.387  25.700   3.670
65609W        W37335  44.373  31.613   4.971
65610W        W37336  20.945  35.954   0.574
65611W        W37337  19.088  23.589   2.936
65612W        W37338  30.351  39.910  10.684
65613W        W37339  12.236  25.181  11.105
65614W        W37340  38.531  11.897   1.883
65615W        W37341  10.337   9.419  13.924
65616W        W37342   9.118  42.896   4.741
65617W        W37343  17.612  24.284   2.280
65618W        W37344  30.663  25.457   1.415
65619W        W37345  22.751  18.494  12.105
65620W        W37346  27.041  27.522  12.637
65621W        W37347  38.462  34.468  13.111
65622W        W37348  29.062  43.872   3.282
65623W        W37349  11.412  30.954  12.180
65624W        W37350  13.375  14.201  13.030
65625W        W37351  19.249  41.954  12.922
65626W        W37352   7.774   2.380  13.785
65627W        W37353  28.100  26.995   4.371
65628W        W37354  17.130  42.364  11.148
65629W        W37355  41.409  13.630   1.450
65630W        W37356  13.799  32.107  10.904
65631W        W37357  13.321   4.944  11.104
65632W        W37358  26.720  20.568   4.425
65633W        W37359  17.151  44.164  13.389
65634W        W37360  14.308  27.874   2.746
65635W        W37361  34.032  35.912   3.113
65636W        W37362  10.187   2.352   3.677
65637W        W37363  18.998   8.551  14.090
65638W        W37364  33.481  40.012  13.419
65639W        W37365  15.029  12.704  10.623
65640W        W37366   8.209  23.570   0.212
65641W        W37367  27.379  37.952  12.628
65642W        W37368  27.232  26.538  12.283
65643W        W37369  29.992   3.169   3.351
65644W        W37370  10.438  30.814  10.672
65645W        W37371  33.088   6.153  13.303
65646W        W37372  16.830  39.015   4.785
65647W        W37373  11.883  37.494   0.692
65648W        W37374  18.573  32.683  14.381
65649W        W37375  31.692   7.823  11.074
65650W        W37376   4.993  43.897   1.211
65651W        W37377  26.109  24.082  13.456
65652W        W37378  42.080   3.495  11.393
65653W        W37379  38.327  14.708   0.800
65654W        W37380   7.666  42.950   0.050
65655W        W37381  38.314   9.100  13.020
65656W        W37382   5.995  24.289   3.681
65657W        W37383  20.511  14.817   1.858
65658W        W37384  18.276  13.903  11.658
65659W        W37385   6.356   9.602   0.817
65660W        W37386  33.315  27.317   3.718
65661W        W37387  35.928   4.926   2.699
65662W        W37388  24.763  27.377   1.911
65663W        W37389  38.938  36.424   2.001
65664W        W37390  43.350   3.341  10.247
65665W        W37391  41.939  15.121   0.750
65666W        W37392  44.350  35.834  12.717
65667W        W37393  32.703  21.267  11.194
65668W        W37394  26.164  11.625   3.706
65669W        W37395   0.671  34.316  11.285
65670W        W37396   4.089  15.255  12.960
65671W        W37397  39.762   9.463   0.744
65672W        W37398   0.942  43.261  13.783
65673W        W37399  35.809  44.543  12.009
65674W        W37400  43.019  20.791  12.766
65675W        W37401  43.277  17.769  12.990
65676W        W37402   4.444   8.330   0.176
65677W        W37403  25.218  27.454  12.328
65678W        W37404  32.955  44.269   0.091
65679W        W37405  35.988  28.562   1.203
65680W        W37406  34.429   9.897   2.634
65681W        W37407  22.562  36.182  14.966
65682W        W37408  23.243  13.319  14.033
65683W        W37409   3.874  14.049   4.472
65684W        W37410  33.914  39.120   1.291
65685W        W37411  44.353  26.905   4.983
65686W        W37412  36.257  19.661   1.808
65687W        W37413  18.692  23.107   0.123
65688W        W37414  32.361  19.762  13.930
65689W        W37415   3.220  24.937  12.829
65690W        W37416  18.927  36.234  10.321
65691W        W37417  17.733  24.736  14.457
65692W        W37418   9.538  11.282  11.351
65693W        W37419  22.159   5.495   0.688
65694W        W37420   9.764   3.695  13.849
65695W        W37421  24.300   1.598  10.316
65696W        W37422  41.553  30.652  13.507
65697W        W37423  22.667  10.133  12.625
65698W        W37424   9.489  23.131  11.187
65699W        W37425  34.810  11.220  10.720
65700W        W37426   0.198  34.358   1.326
65701W        W37427   2.276   8.441  13.870
65702W        W37428  37.603  14.419   4.671
65703W        W37429  39.231  28.288  10.341
65704W        W37430   2.902  23.871   2.810
65705W        W37431  36.054   1.890   0.006
65706W        W37432   6.355  37.151   0.856
65707W        W37433  18.033   0.608   0.828
65708W        W37434  39.087  32.877   2.574
65709W        W37435   9.662  17.440  11.521
65710W        W37436  36.753   5.442  11.442
65711W        W37437  15.547   3.757  14.001
65712W        W37438  14.829  26.719   1.221
65713W        W37439   3.351  30.190  13.391
65714W        W37440  34.548   6.952   3.785
65715W        W37441  10.132  18.891   1.917
65716W        W37442  10.191  41.074   4.557
65717W        W37443  13.702  20.266  13.761
65718W        W37444  41.460   5.339   0.598
65719W        W37445  21.336  12.915   5.128
65720W        W37446  33.943  15.340   0.352
65721W        W37447  39.431  37.980   1.626
65722W        W37448  13.848   8.344  11.193
65723W        W37449  37.323  34.458  10.364
65724W        W37450  22.117  43.987   0.343
65725W        W37451  35.946   1.730  11.135
65726W        W37452  42.422  21.802   1.691
65727W        W37453  12.092  30.584  11.630
65728W        W37454  30.673  24.596  10.683
65729W        W37455  29.887  38.715  13.010
65730W        W37456  10.823   4.992  13.390
65731W        W37457  22.123   4.770  12.415
65732W        W37458  42.234  31.397   3.317
65733W        W37459  37.604  23.451  12.450
65734W        W37460  19.151  19.330   0.886
65735W        W37461  40.537  32.108  14.330
65736W        W37462  22.307  12.687  13.428
65737W        W37463  19.645  39.595   0.319
65738W        W37464  11.268  33.862   1.859
65739W        W37465  26.651  26.474  11.542
65740W        W37466  35.032  24.935  13.253
65741W        W37467   5.757  44.509   0.629
65742W        W37468  33.027  10.408  12.444
65743W        W37469   6.381  20.527   0.458
65744W        W37470  28.542   5.809   4.466
65745W        W37471   2.165  10.585  13.388
65746W        W37472  36.913   1.894  11.107
65747W        W37473  39.779  32.226  13.259
65748W        W37474  11.375   4.502  11.826
65749W        W37475  32.972  38.314  11.694
65750W        W37476  23.006  37.357  11.569
65751W        W37477  12.387   5.922  14.510
65752W        W37478   3.786  33.076   3.888
65753W        W37479   1.821   8.295  12.413
65754W        W37480  30.511  26.867   0.031
65755W        W37481  15.574  36.993   2.532
65756W        W37482  14.848  25.293   0.473
65757W        W37483  23.022  16.322   1.786
65758W        W37484   4.179  35.815  12.520
65759W        W37485  29.675  21.062   3.610
65760W        W37486  41.786  32.835  12.179
65761W        W37487  35.492  14.602   1.223
65762W        W37488   6.892  20.870   3.222
65763W        W37489  11.766  11.779   0.500
65764W        W37490  10.641  41.299   4.252
65765W        W37491  38.093   4.439   0.576
65766W        W37492  32.369  42.880  13.276
65767W        W37493   6.976  12.913  10.424
65768W        W37494  42.530   7.831  13.871
65769W        W37495  30.185  15.260  13.890
65770W        W37496  40.909  44.044   1.284
65771W        W37497  40.589  25.213  10.425
65772W        W37498  29.489  26.240  13.210
65773W        W37499  29.500  33.156   1.344
65774W        W37500  12.265  24.183  14.497
65775W        W37501  34.033  28.883   1.965
65776W        W37502   8.197  34.673   0.883
65777W        W37503  24.633  23.280   1.429
65778W        W37504   2.436  35.255  11.580
65779W        W37505  34.864  29.131   2.959
65780W        W37506  43.859  13.229  14.837
65781W        W37507  28.102  15.245   2.657
65782W        W37508  34.832  22.547  10.815
65783W        W37509  14.798  38.144  10.253
65784W        W37510  21.683  27.124  13.736
65785W        W37511  42.037   1.459  13.886
65786W        W37512  39.609  13.767   0.504
65787W        W37513  28.708   0.233  14.196
65788W        W37514  34.082  19.385  13.053
65789W        W37515   5.796  27.636  10.455
65790W        W37516  27.016  17.568   3.295
65791W        W37517  19.081  34.768  11.189
65792W        W37518  32.522  10.149   1.946
65793W        W37519  38.073  30.894  11.877
65794W        W37520  19.091  24.716  12.400
65795W        W37521  13.001  39.485  13.886
65796W        W37522   1.876  17.820   1.606
65797W        W37523  16.258  26.593   0.393
65798W        W37524  10.919  14.925  12.149
65799W        W37525   6.847  21.114   1.247
65800W        W37526  35.562  12.205   0.600
65801W        W37527  29.938  23.038  12.872
65802W        W37528  43.803  19.240  13.978
65803W        W37529  19.546  24.714  12.169
65804W        W37530   2.370  20.369   0.307
65805W        W37531   3.956  30.993   0.171
65806W        W37532  32.163  43.370  11.573
65807W        W37533   3.964  18.257  12.092
65808W        W37534   0.825  17.118   1.261
65809W        W37535  22.528  23.200   0.699
65810W        W37536   7.328  23.270   4.112
65811W        W37537  31.094  42.865  14.915
65812W        W37538   1.876  12.392  13.864
65813W        W37539   9.788  22.978  13.976
65814W        W37540  35.910  41.320   3.799
65815W        W37541  12.327  30.182  14.288
65816W        W37542   0.159   7.428  10.797
65817W        W37543   3.314  27.496  11.157
65818W        W37544   6.249  13.243   9.811
65819W        W37545  41.512   9.209   2.241
65820W        W37546  32.103   2.889  10.581
65821W        W37547  24.289  31.838  13.610
65822W        W37548  32.088   0.337  14.810
65823W        W37549  18.014  14.216  12.044
65824W        W37550  20.103  33.424  14.805
65825W        W37551  15.745  20.029  13.131
65826W        W37552   7.428   8.386  13.586
65827W        W37553  23.246   2.853  14.736
65828W        W37554  40.793  41.455  13.058
65829W        W37555  36.301  19.721  10.683
65830W        W37556  30.558  32.135   3.089
65831W        W37557  39.798  14.057  13.307
65832W        W37558   1.404  32.014   4.646
65833W        W37559  36.099  18.753  10.714
65834W        W37560   6.974  25.214   3.216
65835W        W37561   2.990   1.582  12.455
65836W        W37562  12.227  41.920  14.817
65837W        W37563  15.093  14.306   0.265
65838W        W37564  32.479  43.026   3.222
65839W        W37565  28.222  29.015   2.422
65840W        W37566  32.929   9.208  13.991
65841W        W37567   3.929  28.571   2.425
65842W        W37568   1.260  20.158  11.020
65843W        W37569   1.417   6.929   1.966
65844W        W37570   6.925  31.892  14.373
65845W        W37571  13.700   2.918   2.420
65846W        W37572   7.941  35.425   4.084
65847W        W37573  42.302  12.693   2.759
65848W        W37574  37.112  17.012   0.137
65849W        W37575  28.921  19.458  11.062
65850W        W37576  36.303  32.711   2.298
65851W        W37577   3.933   1.920   3.292
65852W        W37578  42.144  35.316   0.950
65853W        W37579  39.034   0.267   0.464
65854W        W37580  30.175  41.048  14.011
65855W        W37581  21.577  18.265  13.024
65856W        W37582  18.522  41.298   5.159
65857W        W37583  34.385  42.614  11.541
65858W        W37584  13.139  32.809  13.800
65859W        W37585  36.529  20.973  13.407
65860W        W37586  24.732  10.681   3.424
65861W        W37587  20.618   7.745   0.251
65862W        W37588  33.481  11.157  10.842
65863W        W37589  19.658  18.830  13.374
65864W        W37590  29.999  11.763  11.081
65865W        W37591  28.459  41.006  12.992
65866W        W37592  37.966  42.883  12.575
65867W        W37593   0.203  21.796  13.449
65868W        W37594  32.914  42.405   1.800
65869W        W37595   8.801  41.393   4.176
65870W        W37596  31.930  19.293   0.326
65871W        W37597  20.968  33.022  14.416
65872W        W37598  14.951  29.420   1.451
65873W        W37599  36.254  35.856  10.910
65874W        W37600   2.952  40.547   4.146
65875W        W37601  33.887  21.302   3.243
65876W        W37602  28.219  19.752  11.468
65877W        W37603  25.896  26.127   4.465
65878W        W37604  40.025   6.539   2.752
65879W        W37605  34.019  28.570   2.390
65880W        W37606   3.182  20.261   4.056
65881W        W37607  18.217   0.396   2.884
65882W        W37608  25.731   9.453  11.062
65883W        W37609  26.401  16.043   2.199
65884W        W37610  15.377  32.126  12.871
65885W        W37611  12.536   1.769   2.686
65886W        W37612   2.408  29.430   0.428
65887W        W37613  42.817  19.842  12.991
65888W        W37614  21.112   6.148  14.375
65889W        W37615  39.543  12.378  12.967
65890W        W37616   6.794  26.326   1.361
65891W        W37617  16.687  12.267  12.011
65892W        W37618  26.571  41.824  13.491
65893W        W37619  42.530  41.078  14.437
65894W        W37620  19.294  29.981   0.877
65895W        W37621   1.555   5.702  13.992
65896W        W37622  14.507  26.536  12.838
65897W        W37623  11.081  25.566  14.775
65898W        W37624  22.803   4.295  13.032
65899W        W37625  17.784  31.088  14.789
65900W        W37626   7.127  34.079   4.195
65901W        W37627   1.767  39.536  13.716
65902W        W37628  19.665  15.339   0.845
65903W        W37629  18.437  40.996  12.892
65904W        W37630  27.005  14.160   4.631
65905W        W37631  30.434  39.813   0.461
65906W        W37632   8.711   6.758  14.278
65907W        W37633   2.776  31.436   4.501
65908W        W37634  33.540   0.697  13.414
65909W        W37635  29.087   6.677   0.769
65910W        W37636  25.460  13.077  10.768
65911W        W37637  34.971  33.654  13.949
65912W        W37638  39.895  30.720   4.947
65913W        W37639  16.144   4.752   3.900
65914W        W37640   9.202  41.257  14.374
65915W        W37641   3.722   3.526  12.367
65916W        W37642   5.659  12.074  12.308
65917W        W37643  28.000  35.416   3.639
65918W        W37644  18.282  16.729  11.620
65919W        W37645  31.366  12.506  10.259
65920W        W37646   8.535  40.742  13.949
65921W        W37647  39.434  23.047  12.494
65922W        W37648  22.588  18.536   4.665
65923W        W37649   5.713  14.076   3.933
65924W        W37650   1.232  42.634   0.394
65925W        W37651  25.268  19.620  13.030
65926W        W37652   6.149  36.277   0.563
65927W        W37653  17.570  15.639   0.944
65928W        W37654  42.092   2.759   3.149
65929W        W37655   3.009  12.286  13.024
65930W        W37656  23.645   4.336  12.407
65931W        W37657  39.470  43.236   4.649
65932W        W37658  27.785  22.676  12.303
65933W        W37659   2.464  21.663   2.389
65934W        W37660   4.385   9.287   0.898
65935W        W37661  26.504  18.194   2.748
65936W        W37662  22.676  20.043   1.320
65937W        W37663  11.281  10.789  11.248
65938W        W37664  32.494  34.872  11.772
65939W        W37665  44.574  33.529  14.966
65940W        W37666  44.227  37.797  13.065
65941W        W37667  32.136  42.888   1.788
65942W        W37668  34.492  37.133  12.924
65943W        W37669  37.774  34.453  14.897
65944W        W37670  41.400  19.200  11.584
65945W        W37671  41.543  24.156   1.700
65946W        W37672  14.268  41.803   0.997
65947W        W37673  37.543  13.655  13.423
65948W        W37674   9.871  35.938   1.103
65949W        W37675  30.775  36.502  12.538
65950W        W37676  27.332  42.370  11.142
65951W        W37677  44.976  18.544  13.926
65952W        W37678   7.176  20.955   2.796
65953W        W37679   3.442  38.419  14.961
65954W        W37680  14.692  12.707   1.304
65955W        W37681   4.248  42.002   4.468
65956W        W37682  38.789  18.015   3.310
65957W        W37683  28.943  41.873  12.978
65958W        W37684  16.671  15.863   2.312
65959W        W37685   4.857  43.095  11.507
65960W        W37686   8.320   2.018   0.476
65961W        W37687  43.596  18.522   3.305
65962W        W37688   9.726  39.917   3.595
65963W        W37689  37.111  10.876  11.171
65964W        W37690  12.705  31.595  12.464
65965W        W37691   3.137  29.761   1.001
65966W        W37692   4.706  11.446  11.584
65967W        W37693   1.250  10.058   0.294
65968W        W37694  11.640   7.222  10.606
65969W        W37695  32.152  33.220   0.172
65970W        W37696  26.699   0.290  12.959
65971W        W37697  40.045   9.729  12.589
65972W        W37698  42.241  24.622  14.589
65973W        W37699  35.062  36.899   3.714
65974W        W37700  19.049  22.348   0.426
65975W        W37701  15.998   4.359  12.462
65976W        W37702  17.117  23.367   4.055
65977W        W37703  42.675  26.144  12.004
65978W        W37704  23.145  18.240   0.488
65979W        W37705  29.705   5.922   1.196
65980W        W37706  34.312  13.924  12.050
65981W        W37707  15.801  30.657  13.560
65982W        W37708  29.044  29.999  14.048
65983W        W37709   1.405  38.322  13.673
65984W        W37710  20.495  20.851  13.778
65985W        W37711  28.555   2.181   3.843
65986W        W37712  23.129   2.958  11.223
65987W        W37713   6.911  19.792  12.935
65988W        W37714  16.215  23.649   4.107
65989W        W37715   2.671  30.757   0.961
65990W        W37716   6.436  39.805   3.053
65991W        W37717  36.868  42.077  14.408
65992W        W37718  22.433  20.585  14.995
65993W        W37719  23.585  31.052   1.439
65994W        W37720   0.373   2.332  14.464
65995W        W37721  15.770  37.781   3.887
65996W        W37722   0.264  36.693  14.025
65997W        W37723  12.115   5.686   4.581
65998W        W37724  14.082  13.134  12.432
65999W        W37725  21.231  28.691  14.326
66000W        W37726  43.668   3.847   3.658
66001W        W37727  41.655  31.126  14.342
66002W        W37728  21.774  25.638  12.375
66003W        W37729   1.411  37.797  11.082
66004W        W37730  13.308   6.388   4.778
66005W        W37731  11.404  39.756  11.552
66006W        W37732  41.037  38.584  14.148
66007W        W37733   4.676  19.570   2.318
66008W        W37734   2.805   3.823   3.288
66009W        W37735  27.967  27.040  11.192
66010W        W37736  42.871  25.004   4.089
66011W        W37737  29.523  11.175   4.577
66012W        W37738   8.883  24.663  14.268
66013W        W37739  44.244  19.093   0.866
66014W        W37740  21.161  33.484   4.651
66015W        W37741  34.878  34.916  12.705
66016W        W37742  17.064  18.146   0.239
66017W        W37743  44.442  17.038  10.836
66018W        W37744   2.970  21.243   1.318
66019W        W37745   8.268  18.328  11.655
66020W        W37746   9.500  29.582  13.924
66021W        W37747  10.845  31.444  13.564
66022W        W37748  22.902  42.696  14.707
66023W        W37749  18.647  12.178  14.034
66024W        W37750  17.827   4.432  12.809
66025W        W37751  33.134  34.098  12.012
66026W        W37752  22.719  34.955   0.963
66027W        W37753  36.978  37.812   0.798
66028W        W37754  17.762  16.525   0.092
66029W        W37755  22.216  22.047  14.339
66030W        W37756  17.052  15.339  13.457
66031W        W37757  18.286   8.623  10.650
66032W        W37758  39.164  12.455   2.690
66033W        W37759  30.032  44.511  10.442
66034W        W37760  41.511  10.917  12.544
66035W        W37761   9.707  22.914   1.206
66036W        W37762  12.320  31.911   3.384
66037W        W37763   4.495  35.996   2.789
66038W        W37764  27.420  22.038   4.335
66039W        W37765  31.642   8.714  12.535
66040W        W37766  26.835  43.573  14.681
66041W        W37767  16.208  17.636   4.850
66042W        W37768  27.915  38.641   1.616
66043W        W37769  28.051  40.750  11.173
66044W        W37770   6.882  38.674   0.337
66045W        W37771  37.394  37.465  13.829
66046W        W37772  24.093  19.729  10.584
66047W        W37773  17.041  38.007  11.435
66048W        W37774  10.402  10.429  12.414
66049W        W37775  26.553  40.367  13.370
66050W        W37776  18.584  33.638  13.503
66051W        W37777  32.766  14.811  13.423
66052W        W37778  35.645  42.830   1.697
66053W        W37779  18.783  21.073   3.770
66054W        W37780  31.218   5.184   3.662
66055W        W37781   6.144  10.266  13.384
66056W        W37782  14.958   2.152   0.680
66057W        W37783  27.137  41.768   3.126
66058W        W37784   0.963  27.488   4.765
66059W        W37785  11.588  37.339   4.555
66060W        W37786  14.063   1.948  13.998
66061W        W37787  11.744   7.231   1.781
66062W        W37788   3.365   0.440  10.659
66063W        W37789  11.330  23.254  12.987
66064W        W37790  22.804  11.459   0.373
66065W        W37791  41.390   8.937  14.309
66066W        W37792  14.361   8.283  14.044
66067W        W37793   2.400   3.239  11.309
66068W        W37794  28.003  21.354   4.654
66069W        W37795  37.983  10.210   4.239
66070W        W37796  15.131  24.465   0.802
66071W        W37797   8.897   2.883  11.941
66072W        W37798  10.770  41.280   3.285
66073W        W37799   4.251  41.613  14.865
66074W        W37800  18.630  15.218  11.085
66075W        W37801  43.977   0.272  13.831
66076W        W37802   2.807  36.628   1.341
66077W        W37803   3.849  36.280  10.770
66078W        W37804  31.626  42.062  11.119
66079W        W37805  14.769   2.979   0.947
66080W        W37806  15.849  37.208   5.224
66081W        W37807  33.987   7.344   4.139
66082W        W37808   6.553   6.874  12.070
66083W        W37809  31.355   2.176  13.278
66084W        W37810   5.806  20.331   3.396
66085W        W37811  39.357  25.442  14.219
66086W        W37812  39.913  43.762  13.423
66087W        W37813  43.970  31.807   4.680
66088W        W37814  14.297  29.610  14.797
66089W        W37815  20.742  23.251  13.960
66090W        W37816  35.845  28.988   3.468
66091W        W37817  19.778  17.130  10.707
66092W        W37818   4.120  23.099  11.666
66093W        W37819  25.887  19.084   1.211
66094W        W37820  15.071  29.539   4.315
66095W        W37821  24.614  11.650  13.532
66096W        W37822  27.990  18.250  14.010
66097W        W37823   4.819  42.965  12.006
66098W        W37824  14.111  41.934   0.020
66099W        W37825  33.018  24.488   3.700
66100W        W37826  23.957   1.176  12.929
66101W        W37827  28.503  16.525   2.344
66102W        W37828  27.561   8.702  11.806
66103W        W37829  35.355  11.823  13.802
66104W        W37830   5.343  38.053   1.489
66105W        W37831   9.235  15.656  11.265
66106W        W37832  18.264  44.453  14.262
66107W        W37833  30.412  15.763   0.248
66108W        W37834   3.293   6.888  11.568
66109W        W37835  18.554  31.511  12.148
66110W        W37836  36.490   3.205   4.557
66111W        W37837  30.362  43.824   4.589
66112W        W37838  14.057  11.510   3.212
66113W        W37839   9.633  14.731  14.609
66114W        W37840  32.368  18.481  13.548
66115W        W37841  36.050  25.975   2.699
66116W        W37842  10.256  26.415  14.351
66117W        W37843   7.721  41.584  12.094
66118W        W37844   8.571  22.442  13.815
66119W        W37845  27.182  16.212  11.196
66120W        W37846  33.030  43.374   0.395
66121W        W37847  29.414  36.664  12.595
66122W        W37848  32.579   5.896   2.404
66123W        W37849   5.622  41.557   3.184
66124W        W37850  24.312  29.678  13.433
66125W        W37851  42.471  33.190  12.854
66126W        W37852  42.797  20.576  13.412
66127W        W37853  12.120   1.163   1.824
66128W        W37854  17.380  42.038  14.064
66129W        W37855  29.805  27.341   4.240
66130W        W37856  29.737  39.773  12.311
66131W        W37857  30.087  11.350  13.273
66132W        W37858   4.807  37.489   1.982
66133W        W37859   9.386  27.680  10.379
66134W        W37860  17.989  31.920   3.750
66135W        W37861  18.132  26.550   4.151
66136W        W37862  32.351   1.473   4.581
66137W        W37863  12.820  33.005  13.452
66138W        W37864  40.097   5.492   3.636
66139W        W37865  27.694  29.437  11.072
66140W        W37866  26.339  16.355  10.670
66141W        W37867   4.811  40.316  13.962
66142W        W37868  24.448   9.022  11.619
66143W        W37869  24.209  14.834  13.867
66144W        W37870  18.387  44.088   4.102
66145W        W37871  14.579   5.317  11.845
66146W        W37872   9.099  39.252  14.443
66147W        W37873  24.504   8.247   1.098
66148W        W37874  26.898  40.004   3.706
66149W        W37875  28.584  16.666  12.570
66150W        W37876  41.070   5.085   0.383
66151W        W37877  43.569  12.175  14.544
66152W        W37878  19.319   8.717  13.114
66153W        W37879  43.513  36.537  11.579
66154W        W37880  28.454  17.560  12.433
66155W        W37881   5.190  10.378   4.325
66156W        W37882   9.210  32.932   4.105
66157W        W37883   0.824  12.802  10.561
66158W        W37884  10.661  27.652  13.123
66159W        W37885   5.583  18.524  14.325
66160W        W37886  21.773  43.265   3.739
66161W        W37887  28.408   9.100   4.634
66162W        W37888  30.594  14.787   3.927
66163W        W37889  32.197   2.750  11.912
66164W        W37890  30.433  42.813  14.364
66165W        W37891  31.647  25.543  13.961
66166W        W37892  15.582  26.281  10.277
66167W        W37893  36.804   1.647   3.315
66168W        W37894  31.470  16.292  10.683
66169W        W37895  24.696  12.272   1.955
66170W        W37896  33.538  29.501   4.167
66171W        W37897  29.949  14.612   0.991
66172W        W37898  34.023  38.370   3.727
66173W        W37899  16.200  36.637  12.926
66174W        W37900  38.633  37.051   0.497
66175W        W37901  31.973   6.686  13.843
66176W        W37902   3.090  15.410  12.927
66177W        W37903  23.536  36.624  12.110
66178W        W37904  30.221  35.000  13.015
66179W        W37905  39.822  37.926   0.508
66180W        W37906  22.116  12.792  12.020
66181W        W37907  12.288   5.694   0.970
66182W        W37908  43.367  16.203  11.181
66183W        W37909  24.213  34.373  13.452
66184W        W37910  22.462  34.341  12.942
66185W        W37911  32.613  23.960  14.763
66186W        W37912   0.354  38.045  11.072
66187W        W37913  20.513  10.360   1.190
66188W        W37914  38.419   4.427   4.418
66189W        W37915  35.413  43.812  14.556
66190W        W37916  16.299  42.913   0.495
66191W        W37917  38.928   6.246  14.671
66192W        W37918  15.247  37.844  10.139
66193W        W37919  34.457  35.945   4.923
66194W        W37920  11.663  28.162  13.791
66195W        W37921   8.359   0.810   3.786
66196W        W37922  42.070  31.511  14.013
66197W        W37923  40.028  43.308  14.561
66198W        W37924  28.162  30.902   3.697
66199W        W37925   4.505  14.308   5.015
66200W        W37926  28.648   0.705   1.656
66201W        W37927  44.585  36.625  10.810
66202W        W37928  30.205   6.226   0.680
66203W        W37929  22.708   8.816   1.732
66204W        W37930  12.678  38.563   3.561
66205W        W37931   4.411  22.709   0.505
66206W        W37932  16.722  31.863   2.394
66207W        W37933  39.447   1.811   1.449
66208W        W37934  35.973  36.543   2.884
66209W        W37935  31.416  21.653  11.298
66210W        W37936  10.054  13.721  10.761
66211W        W37937  10.226  28.343  13.379
66212W        W37938  34.036  35.079   2.726
66213W        W37939  40.465  36.410   2.247
66214W        W37940  42.265  38.917  10.611
66215W        W37941  43.342  28.497  10.708
66216W        W37942  44.512  24.528  13.802
66217W        W37943   4.447   6.996  12.935
66218W        W37944  33.148   5.997  12.689
66219W        W37945  32.342  20.508  11.657
66220W        W37946  44.818   3.532  14.391
66221W        W37947  37.638  31.059  13.586
66222W        W37948  19.581  36.212  12.114
66223W        W37949  39.721   7.181  14.362
66224W        W37950   4.319  40.308   4.367
66225W        W37951  29.091  10.296  10.624
66226W        W37952  22.557  13.016  11.117
66227W        W37953  24.493  38.264   4.871
66228W        W37954   9.167  38.759   3.760
66229W        W37955  23.771  37.757   3.285
66230W        W37956  30.848   9.776  13.832
66231W        W37957   9.592  28.571   0.516
66232W        W37958  23.176  12.159   0.797
66233W        W37959  17.163  42.237   4.299
66234W        W37960  34.195  18.401   2.180
66235W        W37961  16.734  20.949  12.037
66236W        W37962  30.737  14.808  13.544
66237W        W37963  22.658   3.029  10.468
66238W        W37964   6.214  40.253   3.100
66239W        W37965  13.695   5.492  14.051
66240W        W37966  35.866   7.755   1.968
66241W        W37967  23.208   1.953   2.690
66242W        W37968  21.512   1.513   0.478
66243W        W37969   8.819   0.851   4.052
66244W        W37970  22.293  24.067  13.841
66245W        W37971  11.793   4.389  12.291
66246W        W37972  36.464   0.487  13.032
66247W        W37973  42.387  29.816   4.631
66248W        W37974  27.984  29.499  14.567
66249W        W37975  40.796  42.341  11.490
66250W        W37976   2.954  11.307   3.853
66251W        W37977   7.089   3.435   2.710
66252W        W37978  30.659  30.897   2.416
66253W        W37979  28.949  17.708  14.811
66254W        W37980  38.933  14.861   3.108
66255W        W37981  18.636  20.764   3.124
66256W        W37982  36.474  32.994  14.313
66257W        W37983  35.804   9.905   0.294
66258W        W37984  21.032   3.271  14.031
66259W        W37985  33.684  21.634  13.492
66260W        W37986   7.561  14.270  11.995
66261W        W37987  10.181  15.702   3.901
66262W        W37988  17.414  39.061   3.773
66263W        W37989  25.435  34.666   3.323
66264W        W37990  38.370  35.791   2.325
66265W        W37991  36.682  35.456  12.492
66266W        W37992  14.248  40.341  13.379
66267W        W37993  24.968  22.550  10.992
66268W        W37994  23.159  21.486   2.725
66269W        W37995  19.685  20.156   1.257
66270W        W37996  12.254  10.148   2.525
66271W        W37997  26.042   4.962  12.016
66272W        W37998  39.698  28.107   0.335
66273W        W37999  11.519  19.326   3.586
66274W        W38000   4.475  35.041  14.367
66275W        W38001  30.857  22.268   2.038
66276W        W38002  39.881  33.031   3.201
66277W        W38003  14.346  21.419  14.834
66278W        W38004  26.561  31.007   2.934
66279W        W38005  35.684   6.294   2.562
66280W        W38006   7.184  20.824  13.393
66281W        W38007   5.969  30.030   3.204
66282W        W38008   5.226  34.165  12.535
66283W        W38009  44.646  22.169   2.089
66284W        W38010  28.655  25.661  10.705
66285W        W38011  15.542   2.724  12.050
66286W        W38012  16.117  37.376  11.114
66287W        W38013  27.588  16.726  14.000
66288W        W38014  35.093  43.083   4.663
66289W        W38015   6.953   9.773   0.204
66290W        W38016  15.694  32.527   2.224
66291W        W38017  43.627   8.866  12.793
66292W        W38018  28.140   9.321  11.251
66293W        W38019  34.903  14.282   3.657
66294W        W38020  34.955  29.047   1.954
66295W        W38021  28.608   0.686  12.042
66296W        W38022   1.503  27.036  11.341
66297W        W38023  29.404  18.798   4.073
66298W        W38024  10.216  10.323  14.764
66299W        W38025   2.885  29.607   2.875
66300W        W38026  10.823  11.000   2.743
66301W        W38027   9.364  17.830   0.040
66302W        W38028   6.176   9.276  10.897
66303W        W38029  44.931  41.859  14.263
66304W        W38030  42.891  12.609  11.043
66305W        W38031   0.197  26.602   3.546
66306W        W38032   5.960  12.545   1.447
66307W        W38033  31.189  36.526   4.469
66308W        W38034   4.824  24.211  12.818
66309W        W38035  18.140   3.110   4.722
66310W        W38036   6.368  24.008   0.678
66311W        W38037  32.557  24.146   1.338
66312W        W38038  13.782  34.251   1.850
66313W        W38039  17.589  12.080  10.734
66314W        W38040  39.551  39.729  12.037
66315W        W38041  42.807   9.145   4.569
66316W        W38042  21.083  35.943   2.781
66317W        W38043  23.474  15.729   4.169
66318W        W38044  40.363  37.097   1.985
66319W        W38045  24.200  32.046   0.141
66320W        W38046   0.422  18.235   3.553
66321W        W38047  27.708  21.435  14.096
66322W        W38048  36.365   2.517  14.490
66323W        W38049   4.225  29.032  12.552
66324W        W38050  32.374   1.702   0.672
66325W        W38051  44.419  19.160   2.380
66326W        W38052  12.659  35.830  10.532
66327W        W38053   8.395   9.643   4.586
66328W        W38054  36.021   3.970   4.745
66329W        W38055   5.518  15.501   1.029
66330W        W38056  30.125   2.391   0.777
66331W        W38057  37.111  12.805  10.993
66332W        W38058   3.181   3.910   4.149
66333W        W38059   2.069   0.846   3.654
66334W        W38060  28.146  19.268   1.820
66335W        W38061  18.319   9.127  12.512
66336W        W38062   7.591  39.486   1.521
66337W        W38063  21.730  16.645  14.004
66338W        W38064  35.999  36.349   2.398
66339W        W38065   8.702  12.988   1.662
66340W        W38066  11.646   0.661  10.126
66341W        W38067  32.336  39.331  13.870
66342W        W38068  36.742  29.963   3.869
66343W        W38069  18.618  34.964   2.857
66344W        W38070   4.705   5.577   9.586
66345W        W38071  19.759  10.419   2.652
66346W        W38072  43.503  19.361  12.478
66347W        W38073  39.132  37.628   1.272
66348W        W38074   0.277  10.911   4.130
66349W        W38075  40.566   6.982   3.786
66350W        W38076  22.219  43.796   2.102
66351W        W38077  20.508  39.122   4.946
66352W        W38078  14.819  11.109  11.201
66353W        W38079  23.100  12.123   1.864
66354W        W38080  35.513  35.393  14.885
66355W        W38081   4.616  25.669  14.520
66356W        W38082  29.199   7.331   3.181
66357W        W38083  14.868  32.140  12.846
66358W        W38084   5.422  34.369  11.520
66359W        W38085  44.846   6.843   1.592
66360W        W38086  43.751  29.305  11.673
66361W        W38087  43.926  25.247  10.641
66362W        W38088  27.081   1.346   0.447
66363W        W38089  43.743  24.372  12.943
66364W        W38090  39.613  18.834   0.482
66365W        W38091   7.899   5.285   1.992
66366W        W38092  15.252  16.868  12.877
66367W        W38093   9.636   6.841  13.871
66368W        W38094  44.024  36.069   2.431
66369W        W38095   8.864  17.547   4.790
66370W        W38096  10.927  15.776   3.702
66371W        W38097   2.807  33.945   1.411
66372W        W38098  24.107   0.857   5.226
66373W        W38099   4.027   6.919  10.934
66374W        W38100  24.653  35.604  11.835
66375W        W38101  42.950  27.938  11.874
66376W        W38102  11.219   7.254  13.143
66377W        W38103   6.530  34.514   4.715
66378W        W38104   4.107  22.628   4.381
66379W        W38105  19.636   2.319   3.182
66380W        W38106  24.677  41.758  14.938
66381W        W38107  21.908  18.349   2.745
66382W        W38108  15.510  32.926   3.358
66383W        W38109   2.892  18.247  14.913
66384W        W38110  13.295  10.965  13.221
66385W        W38111  21.837  27.894   4.763
66386W        W38112  24.618  38.746   3.716
66387W        W38113  34.838   5.167   3.168
66388W        W38114  20.163   3.204  11.593
66389W        W38115  20.443  42.833  14.617
66390W        W38116  35.127  26.444  13.600
66391W        W38117  36.124  16.066   2.803
66392W        W38118   4.806  30.153  14.250
66393W        W38119  38.335  12.254   1.402
66394W        W38120  16.310  44.944   4.573
66395W        W38121  16.738   6.807   1.413
66396W        W38122  10.942  35.122  13.569
66397W        W38123  30.611  20.215   5.089
66398W        W38124  31.551  21.775   0.229
66399W        W38125  33.470  42.075   3.268
66400W        W38126  25.534   4.718  12.612
66401W        W38127  21.611   2.710  14.823
66402W        W38128  33.438  22.107  13.397
66403W        W38129  19.491   8.219   1.967
66404W        W38130  42.582  42.040   1.709
66405W        W38131   1.832  39.495   1.240
66406W        W38132  21.286  12.629  12.483
66407W        W38133  23.184   0.813   0.313
66408W        W38134   8.784  10.305   2.337
66409W        W38135   1.697   3.806  12.469
66410W        W38136  35.454   8.405   4.611
66411W        W38137  13.988  33.125   0.313
66412W        W38138   9.278  29.147   2.404
66413W        W38139  31.981   1.387   2.725
66414W        W38140  43.174  25.039   3.667
66415W        W38141  14.218  26.609   1.877
66416W        W38142  27.122  33.473  14.261
66417W        W38143   1.337  22.205  14.815
66418W        W38144  29.509  23.526  11.398
66419W        W38145  32.457  34.201  14.775
66420W        W38146   0.678   0.154  14.797
66421W        W38147  32.782  43.001  13.590
66422W        W38148  24.085   5.919   4.490
66423W        W38149  20.618  12.176   4.621
66424W        W38150  29.157  26.296  14.812
66425W        W38151  44.114  26.940  10.901
66426W        W38152  25.050  11.685   5.044
66427W        W38153  33.536  30.166  11.422
66428W        W38154  36.100  10.665  13.838
66429W        W38155  41.557  23.020  12.210
66430W        W38156   1.363  20.685  12.990
66431W        W38157   9.852  27.225   0.828
66432W        W38158  39.971   4.353  14.447
66433W        W38159  13.767   6.132  14.843
66434W        W38160  11.136   8.373   2.206
66435W        W38161  22.675  33.177   3.167
66436W        W38162  41.838  20.684   1.460
66437W        W38163  34.543  44.977  13.046
66438W        W38164  18.755  16.504  10.229
66439W        W38165  10.835  12.781  11.077
66440W        W38166   3.734  24.937  12.913
66441W        W38167   2.488  34.141   2.417
66442W        W38168  43.854  22.172   0.891
66443W        W38169   1.370  12.214  14.853
66444W        W38170  40.882  39.855   3.169
66445W        W38171  40.506  15.449  11.021
66446W        W38172  23.557  22.129  14.526
66447W        W38173  10.035  16.593  11.410
66448W        W38174   3.307  19.948   3.121
66449W        W38175  20.294  35.478   3.139
66450W        W38176  33.971  25.345  12.892
66451W        W38177  28.121  33.086  12.973
66452W        W38178  29.717   9.795  13.357
66453W        W38179  31.056  34.926   4.631
66454W        W38180  34.523  17.302  12.526
66455W        W38181  37.112  32.304  13.918
66456W        W38182  39.106  29.241  11.550
66457W        W38183   9.354  40.363   2.234
66458W        W38184   3.738  17.666  10.797
66459W        W38185  10.867  33.204   4.656
66460W        W38186  17.719  32.140   3.336
66461W        W38187  15.656  20.077   3.075
66462W        W38188  38.897  18.852  13.542
66463W        W38189  16.658  30.873  12.530
66464W        W38190  19.654   7.407   2.166
66465W        W38191  12.003   8.605   4.211
66466W        W38192   7.353   4.195   0.190
66467W        W38193  19.733  13.101  10.675
66468W        W38194  17.815  43.970  12.709
66469W        W38195  25.449  15.911   2.416
66470W        W38196  26.047  41.937   2.622
66471W        W38197  25.377  20.023   1.895
66472W        W38198  42.032  42.833  12.780
66473W        W38199   2.196  16.395   2.121
66474W        W38200  17.075  42.637  13.317
66475W        W38201  42.423  37.895   1.402
66476W        W38202  25.036   9.535   1.920
66477W        W38203  13.381  28.532   2.354
66478W        W38204  23.057  30.343   0.281
66479W        W38205   1.037  22.401   4.242
66480W        W38206  18.152  41.045   4.375
66481W        W38207  10.272  19.448  11.028
66482W        W38208  17.075  11.219  11.034
66483W        W38209  10.300   9.972  13.423
66484W        W38210   7.223  14.276   0.872
66485W        W38211  44.293  27.548  14.750
66486W        W38212  42.595  33.473  14.796
66487W        W38213  10.322  20.497  14.372
66488W        W38214   9.316  15.344  14.130
66489W        W38215   7.217   0.697  12.473
66490W        W38216  18.247  17.475  12.299
66491W        W38217  18.253  33.842   1.982
66492W        W38218   4.171  35.833   1.298
66493W        W38219  14.654  25.576  14.554
66494W        W38220   4.091  27.217  13.584
66495W        W38221  29.003  40.317  14.381
66496W        W38222  24.912  14.607  11.101
66497W        W38223  30.087   9.073   3.307
66498W        W38224  31.175  28.994  11.519
66499W        W38225  14.100  14.824  12.996
66500W        W38226  42.307  10.262   0.065
66501W        W38227  25.202  28.529  11.549
66502W        W38228  25.181  22.416  11.957
66503W        W38229  27.536  41.456   4.177
66504W        W38230  34.865   4.781   0.857
66505W        W38231  36.337  32.057  13.323
66506W        W38232  44.926  29.030   2.813
66507W        W38233   3.962  39.089   1.128
66508W        W38234  27.985  38.001   2.153
66509W        W38235  22.473  25.237   1.294
66510W        W38236   4.432   6.848  10.522
66511W        W38237  34.995  13.768   3.751
66512W        W38238  17.361  44.293   1.846
66513W        W38239   3.906  23.514  12.557
66514W        W38240   1.691   5.366   0.433
66515W        W38241  31.955  27.223  13.977
66516W        W38242   4.939  17.095  13.311
66517W        W38243  26.071  36.438   4.164
66518W        W38244  10.117  12.536   4.883
66519W        W38245  20.836  14.878   1.464
66520W        W38246   3.157  12.477   1.274
66521W        W38247   9.862  26.011  12.370
66522W        W38248  39.900  11.338  11.655
66523W        W38249  44.023   1.244   0.779
66524W        W38250  21.512   8.007   0.294
66525W        W38251  15.873  21.544   3.040
66526W        W38252  44.299   6.668   4.515
66527W        W38253  31.516  37.337  12.023
66528W        W38254  23.165   1.880  13.819
66529W        W38255  31.150  22.479   2.792
66530W        W38256  28.978  21.215   4.563
66531W        W38257  27.020  30.225  14.565
66532W        W38258  13.054  24.543  14.050
66533W        W38259  17.849  35.983   0.916
66534W        W38260   5.964  40.075   4.305
66535W        W38261   0.887  21.718   0.519
66536W        W38262   3.381  34.835  11.647
66537W        W38263  40.290  34.887  14.270
66538W        W38264  16.792  13.599   3.244
66539W        W38265  21.203  19.439   0.205
66540W        W38266   6.417  44.379  12.805
66541W        W38267  24.318  14.369   4.968
66542W        W38268  16.161  17.916   0.308
66543W        W38269  11.084  13.566  10.691
66544W        W38270   9.128  39.899  12.983
66545W        W38271   5.804  10.888  12.038
66546W        W38272  12.094   9.396  13.426
66547W        W38273  25.417  32.179   0.510
66548W        W38274  12.631  14.038   4.064
66549W        W38275  31.354  44.900  12.049
66550W        W38276  18.233  35.897   3.792
66551W        W38277  33.597  35.648   4.126
66552W        W38278  37.935  23.557  11.591
66553W        W38279   7.491  13.092   3.246
66554W        W38280   6.323   8.722   0.613
66555W        W38281  15.571  44.927   1.394
66556W        W38282  15.286  27.013  12.721
66557W        W38283  16.675  12.324   3.744
66558W        W38284  39.369  22.492   2.371
66559W        W38285  18.862  42.098  11.066
66560W        W38286  19.542  29.553  11.588
66561W        W38287  43.048  34.658   3.171
66562W        W38288  24.088  44.243   2.001
66563W        W38289  18.813  12.684   4.027
66564W        W38290  12.889  38.329   2.443
66565W        W38291  41.988   0.592   3.355
66566W        W38292   3.236  23.620   3.204
66567W        W38293  19.258  32.701   1.974
66568W        W38294  13.076  36.619  12.517
66569W        W38295  32.504  30.365   4.823
66570W        W38296  23.503  14.914  10.590
66571W        W38297  17.206  44.453  11.505
66572W        W38298   8.456  19.313  11.715
66573W        W38299  12.778  23.004   2.854
66574W        W38300   7.902  26.774  12.766
66575W        W38301   1.919  41.669  12.925
66576W        W38302   5.673  42.267  10.456
66577W        W38303  36.330  37.873  13.400
66578W        W38304  32.538  27.140   0.893
66579W        W38305  12.817  21.656   4.821
66580W        W38306  12.022  27.607   0.076
66581W        W38307  19.586  23.283   2.859
66582W        W38308  34.503  31.596   4.182
66583W        W38309  17.305  10.373  13.653
66584W        W38310  26.644  26.510  10.622
66585W        W38311  29.928  15.114   3.193
66586W        W38312  10.243   8.064   1.774
66587W        W38313  14.590  36.117   4.699
66588W        W38314  41.556   7.538  11.391
66589W        W38315  33.582   8.298   1.772
66590W        W38316   2.694   5.850  10.499
66591W        W38317   0.236  40.908  14.949
66592W        W38318   1.907  44.704   3.478
66593W        W38319   3.288  14.563   0.797
66594W        W38320  38.079  28.183  11.493
66595W        W38321  41.824  29.193   1.950
66596W        W38322  11.254  39.915   0.870
66597W        W38323   8.090  27.684  13.906
66598W        W38324   5.863   0.452  12.585
66599W        W38325  38.113   5.642  14.463
66600W        W38326  27.720  24.725  10.792
66601W        W38327   3.077  34.507   4.523
66602W        W38328  24.748  12.659  13.460
66603W        W38329  40.193   0.852  12.943
66604W        W38330  28.109  39.674  13.947
66605W        W38331  36.416  20.956   4.099
66606W        W38332  16.089   9.797  12.083
66607W        W38333   9.806  31.492   0.266
66608W        W38334  30.229  38.593  14.836
66609W        W38335  15.526  34.072   2.609
66610W        W38336   9.915  21.379   2.038
66611W        W38337  35.793   7.885  13.139
66612W        W38338  19.774  39.484   3.257
66613W        W38339  36.015  44.079  12.100
66614W        W38340  34.922  14.117   0.671
66615W        W38341  37.562  10.178   0.003
66616W        W38342  11.729  27.426  11.217
66617W        W38343  23.195  24.967   0.296
66618W        W38344  23.134  19.308  12.079
66619W        W38345   4.543  11.668  14.057
66620W        W38346  14.752  25.480   0.941
66621W        W38347  23.243  13.199  11.647
66622W        W38348  41.248  38.073   1.903
66623W        W38349   6.823  14.992  11.132
66624W        W38350  42.448  39.634  14.351
66625W        W38351  19.199  35.899   1.179
66626W        W38352   8.946   7.195  14.445
66627W        W38353   5.429  17.581  13.736
66628W        W38354  14.575   1.144  11.091
66629W        W38355  40.755  37.990   3.485
66630W        W38356  42.896  40.304  14.015
66631W        W38357  19.991   9.065   4.467
66632W        W38358  40.280  24.711   2.846
66633W        W38359   8.292   0.586   1.322
66634W        W38360  22.646  13.185   2.247
66635W        W38361  31.115  42.221  13.359
66636W        W38362   1.302  21.509   0.782
66637W        W38363  23.460  16.256   3.822
66638W        W38364  41.974  36.287   2.420
66639W        W38365   8.445  41.888  14.401
66640W        W38366  42.486   3.354   1.349
66641W        W38367  23.251  10.737  10.637
66642W        W38368  17.033  17.653  13.564
66643W        W38369   5.289  36.013   3.348
66644W        W38370  26.756  12.690   2.808
66645W        W38371  38.661  18.596   1.367
66646W        W38372  27.400  18.256  12.326
66647W        W38373  40.052   2.766  10.679
66648W        W38374   7.722  10.613  14.249
66649W        W38375  22.151  12.029   1.764
66650W        W38376   0.524  23.986   1.303
66651W        W38377  35.476  41.238  11.891
66652W        W38378  23.751  10.778   0.914
66653W        W38379  19.059  16.298  10.619
66654W        W38380  12.984  23.528   2.081
66655W        W38381  32.439   2.399   0.371
66656W        W38382  30.950  26.069  11.344
66657W        W38383  19.316  24.970   3.636
66658W        W38384  40.980   0.320  10.500
66659W        W38385  33.952  11.453  13.899
66660W        W38386  18.544  40.307   0.566
66661W        W38387  21.827  11.601  10.942
66662W        W38388  33.872  44.264  12.281
66663W        W38389  14.018   3.765   1.380
66664W        W38390  10.886  24.131   2.499
66665W        W38391  13.659   2.951  11.167
66666W        W38392  23.747  43.901  11.111
66667W        W38393   4.234  26.442   1.785
66668W        W38394  14.806   4.998   0.552
66669W        W38395  36.017   4.493   0.153
66670W        W38396  23.070  33.325  11.567
66671W        W38397  32.045   2.805   4.649
66672W        W38398  30.557  32.956  14.945
66673W        W38399  33.890  33.323  12.408
66674W        W38400  26.150   7.639   1.412
66675W        W38401   9.333  43.410  14.008
66676W        W38402  40.013  22.006  12.204
66677W        W38403  42.762  41.960  13.359
66678W        W38404  18.393  28.135   4.321
66679W        W38405  36.134  16.289   1.923
66680W        W38406  26.758  25.462   4.608
66681W        W38407  10.386  40.723   3.645
66682W        W38408  20.888  37.450   2.732
66683W        W38409  43.912   1.245  13.791
66684W        W38410  31.855  26.297   3.229
66685W        W38411  42.248   9.937  11.619
66686W        W38412  27.702   0.225  14.958
66687W        W38413  12.768   2.227   2.651
66688W        W38414  21.015  38.748   4.141
66689W        W38415  37.355  13.782   0.413
66690W        W38416  16.536  32.823   2.537
66691W        W38417   8.112  23.052   5.629
66692W        W38418  26.215   2.918   2.161
66693W        W38419   2.732  35.623   3.872
66694W        W38420  44.024   3.277   3.716
66695W        W38421  10.198   4.001  14.947
66696W        W38422  38.465   8.655  10.639
66697W        W38423  42.502   6.954  12.866
66698W        W38424  25.223  35.823  12.936
66699W        W38425  21.782  19.118   0.436
66700W        W38426  39.456  18.628   0.932
66701W        W38427  18.707   8.085  14.185
66702W        W38428  15.034  33.531  11.086
66703W        W38429  22.961  17.284  10.442
66704W        W38430  24.695  40.735  12.103
66705W        W38431  44.290  34.931  12.168
66706W        W38432  26.547  37.917  13.441
66707W        W38433  40.746  27.031  12.842
66708W        W38434  24.267  21.547   0.299
66709W        W38435  30.387  37.467   2.407
66710W        W38436   5.960  30.383   3.628
66711W        W38437  42.454  12.249   2.428
66712W        W38438   6.415  15.988  11.614
66713W        W38439  30.593   5.723   4.748
66714W        W38440   5.243  32.284  13.550
66715W        W38441  25.687  18.121  12.505
66716W        W38442  22.539  19.070   1.370
66717W        W38443  22.190  21.574  14.531
66718W        W38444  35.360   6.833  10.665
66719W        W38445   2.841  38.079  13.861
66720W        W38446  16.396  11.830   1.424
66721W        W38447  39.598  22.153  12.926
66722W        W38448   6.345   1.741  11.229
66723W        W38449   0.211  43.334  14.849
66724W        W38450  14.737  32.450   4.277
66725W        W38451   2.256  28.110   3.689
66726W        W38452  28.654  38.966  13.532
66727W        W38453  31.307   1.705   1.356
66728W        W38454  36.566   8.323   4.153
66729W        W38455  25.522  35.473  12.681
66730W        W38456  27.188  26.691   3.641
66731W        W38457  14.717  11.676   0.732
66732W        W38458  28.451   0.864  10.666
66733W        W38459  40.600  34.375   2.313
66734W        W38460  17.111  35.945  11.521
66735W        W38461   1.932  24.658  13.742
66736W        W38462  33.358  13.918   5.045
66737W        W38463  24.572  42.201  13.983
66738W        W38464  18.184  18.311   1.420
66739W        W38465   2.308  20.322  13.086
66740W        W38466  41.596  26.000  11.208
66741W        W38467   2.548   0.081  11.130
66742W        W38468  36.920   6.371   3.334
66743W        W38469  34.154  39.563   1.113
66744W        W38470  28.422   9.240   0.848
66745W        W38471   1.449  36.869   1.930
66746W        W38472  18.520  32.506  12.992
66747W        W38473  21.267  28.648   2.872
66748W        W38474  40.312  28.211   4.967
66749W        W38475  36.975  28.106  11.102
66750W        W38476  27.552  18.488  13.140
66751W        W38477  30.514  17.350   3.235
66752W        W38478  31.474  20.313  11.984
66753W        W38479   6.294  38.341  12.170
66754W        W38480  28.020  39.420   4.386
66755W        W38481  10.855  43.517   3.261
66756W        W38482  22.565  30.029   0.482
66757W        W38483  21.030  33.558  11.937
66758W        W38484   5.432  32.510   0.617
66759W        W38485  23.081  20.759   3.189
66760W        W38486  15.791  31.422   2.350
66761W        W38487  19.762  33.502  10.695
66762W        W38488  35.885  37.006   0.437
66763W        W38489   6.722  11.853  10.596
66764W        W38490  24.530  36.480  12.343
66765W        W38491  33.554  34.571   0.844
66766W        W38492  16.317  42.438   3.741
66767W        W38493  19.677  23.427   2.250
66768W        W38494  38.503   7.997  11.985
66769W        W38495  12.062  39.218   0.987
66770W        W38496  10.173  11.159   0.173
66771W        W38497  23.050  38.926   1.268
66772W        W38498  42.213  33.015   4.144
66773W        W38499  17.629  24.445  14.029
66774W        W38500  33.103   1.970   4.550
66775W        W38501  37.866  44.998  11.526
66776W        W38502  21.302  32.358   2.703
66777W        W38503   9.647  29.475  12.323
66778W        W38504  11.833  14.383  10.827
66779W        W38505  23.140  25.905   4.729
66780W        W38506   1.478  38.299   0.677
66781W        W38507  15.382   5.035  14.947
66782W        W38508  35.039   8.085  11.213
66783W        W38509  39.982   2.235   3.099
66784W        W38510  30.183  28.477   4.619
66785W        W38511   6.829  21.739   2.901
66786W        W38512  43.420  17.012  13.520
66787W        W38513   5.351  17.766   1.781
66788W        W38514  42.220  10.607  10.997
66789W        W38515  43.187  19.764  12.399
66790W        W38516  12.850  24.532   1.020
66791W        W38517  25.596  32.497  10.660
66792W        W38518  28.158  27.466   3.232
66793W        W38519  12.166  43.443  11.511
66794W        W38520  17.597  27.620   3.707
66795W        W38521  28.150  12.183  12.841
66796W        W38522  22.660  11.174  14.907
66797W        W38523  37.938  29.649  11.577
66798W        W38524   5.934   7.419   5.063
66799W        W38525  26.091  14.089  11.606
66800W        W38526  28.053  18.781  13.942
66801W        W38527  33.426   0.696   2.274
66802W        W38528  34.341  21.207   2.939
66803W        W38529  30.454  30.850  13.780
66804W        W38530  30.815  11.822  11.521
66805W        W38531  18.170  33.027  13.035
66806W        W38532  28.131  33.311   4.692
66807W        W38533  32.176  27.070  14.438
66808W        W38534  37.081  31.367   1.781
66809W        W38535  22.952  37.405   0.130
66810W        W38536   5.022  35.076   0.806
66811W        W38537  43.412   8.006  13.381
66812W        W38538   2.832  31.910   1.447
66813W        W38539  23.070  19.933  14.497
66814W        W38540  30.033  39.352   3.625
66815W        W38541  26.112  30.984  11.570
66816W        W38542  41.528  11.201   2.361
66817W        W38543  35.641  39.932   0.370
66818W        W38544  22.134  38.093   4.271
66819W        W38545  27.332  31.793   3.178
66820W        W38546  43.552  18.564  13.471
66821W        W38547  20.636   4.347   3.331
66822W        W38548  43.349  34.633   1.387
66823W        W38549  18.052  21.692   4.047
66824W        W38550   7.304   5.591  10.942
66825W        W38551  15.715  26.148   2.163
66826W        W38552   9.652  26.111   4.378
66827W        W38553  35.113   9.089  11.706
66828W        W38554  25.011  34.107   3.104
66829W        W38555  30.984   8.160  13.601
66830W        W38556   6.823  33.444  11.120
66831W        W38557  24.695  13.759  12.016
66832W        W38558   6.094  39.921   4.861
66833W        W38559  19.995   3.492  12.038
66834W        W38560  39.370  19.328  11.130
66835W        W38561   6.601   9.446   4.177
66836W        W38562  32.663  28.749   2.627
66837W        W38563  27.053  31.136  12.442
66838W        W38564   7.785   7.445  11.609
66839W        W38565  15.556  21.943   3.153
66840W        W38566   8.548  27.294   0.754
66841W        W38567  44.879  16.900   2.358
66842W        W38568  22.233  44.809  12.992
66843W        W38569   8.507  39.272   1.196
66844W        W38570  10.763  33.072   1.553
66845W        W38571  37.023  32.645   1.839
66846W        W38572   8.096  22.558   4.101
66847W        W38573  39.494   6.751   2.905
66848W        W38574  32.192  28.787  11.863
66849W        W38575   2.906  44.781   1.696
66850W        W38576   6.436   6.681  13.851
66851W        W38577  12.630  14.710   0.360
66852W        W38578   3.498  41.740  11.617
66853W        W38579  32.370  44.127   5.503
66854W        W38580  40.378   6.957  12.073
66855W        W38581   6.748  16.068  12.446
66856W        W38582  30.357  11.635  14.555
66857W        W38583  28.469  37.266   0.596
66858W        W38584  16.732  23.378   4.865
66859W        W38585  18.788  40.224   2.821
66860W        W38586  34.703   6.492   2.751
66861W        W38587  21.242  10.256   4.141
66862W        W38588   7.252   5.491  12.065
66863W        W38589  33.356  43.738   4.482
66864W        W38590  40.335  16.763   0.507
66865W        W38591  16.794  25.669   1.217
66866W        W38592  43.038   7.713  11.570
66867W        W38593  36.884  18.867   2.672
66868W        W38594  28.713  26.192   3.352
66869W        W38595  12.070  28.848   4.186
66870W        W38596  30.717  29.009   2.665
66871W        W38597  23.030  30.944   0.791
66872W        W38598   3.041   8.885  13.408
66873W        W38599   5.100  35.134  11.072
66874W        W38600  29.692  19.176  13.820
66875W        W38601  13.342   3.383  13.381
66876W        W38602  36.269   7.804  12.982
66877W        W38603  39.077  32.953  11.983
66878W        W38604   4.031  12.205   2.161
66879W        W38605  16.055  43.374  14.741
66880W        W38606  17.740   8.651  10.714
66881W        W38607  35.868  31.234   4.555
66882W        W38608  29.695  18.619  10.558
66883W        W38609  24.426  14.326   3.171
66884W        W38610  40.541  19.653   2.733
66885W        W38611  11.660  19.335   1.185
66886W        W38612   5.595  18.274  11.925
66887W        W38613  13.368  11.191  11.003
66888W        W38614  32.185   5.268  14.740
66889W        W38615  11.616   9.120  13.419
66890W        W38616  33.633  36.040   0.842
66891W        W38617  13.366   8.824  13.439
66892W        W38618  43.878   6.754  11.816
66893W        W38619  17.720   6.706  11.143
66894W        W38620  37.550   3.526   1.954
66895W        W38621  13.182  14.258  10.487
66896W        W38622  14.783  34.673  14.427
66897W        W38623   8.351  40.481  11.286
66898W        W38624  44.970  18.509  11.240
66899W        W38625   2.679  23.218   0.509
66900W        W38626  36.098  14.634   0.666
66901W        W38627  44.461  36.309   2.227
66902W        W38628  32.690  20.102  11.799
66903W        W38629   7.893  31.968   0.936
66904W        W38630  11.949  21.684   1.329
66905W        W38631  28.976  35.952  13.650
66906W        W38632  11.867  19.512  14.879
66907W        W38633   6.661   9.588  13.755
66908W        W38634  11.752   8.946   2.719
66909W        W38635  29.536  38.544   3.607
66910W        W38636  42.484   5.726  10.647
66911W        W38637  25.385   2.585   0.991
66912W        W38638  15.172  29.471  13.830
66913W        W38639  21.831  30.318  14.371
66914W        W38640   8.753   0.815   1.429
66915W        W38641  42.119  39.509  13.921
66916W        W38642   7.287  18.837   0.157
66917W        W38643  40.007   1.946  13.482
66918W        W38644  38.169  11.214   4.390
66919W        W38645  23.913  10.140   1.858
66920W        W38646  19.493   8.532  11.062
66921W        W38647  23.428  41.850   3.606
66922W        W38648  40.892  28.092  11.669
66923W        W38649  29.606   4.466   4.894
66924W        W38650  16.641  18.318  12.607
66925W        W38651   6.077  10.102   3.815
66926W        W38652  21.820  39.518   3.252
66927W        W38653   2.504   9.183   3.318
66928W        W38654  36.463  24.283  13.421
66929W        W38655  43.272  27.944   3.309
66930W        W38656  37.382  37.512   1.930
66931W        W38657  37.360  23.491   4.363
66932W        W38658  15.773  12.567   1.435
66933W        W38659   4.332  23.997   0.841
66934W        W38660   0.391  15.567   1.818
66935W        W38661  33.370   3.737  13.272
66936W        W38662   6.356  34.665   3.191
66937W        W38663  41.962  15.323  14.384
66938W        W38664  37.524  23.175   2.135
66939W        W38665  18.235  42.773   1.691
66940W        W38666  14.540  22.428  14.835
66941W        W38667  35.426  39.224   5.009
66942W        W38668  39.576  29.766   2.413
66943W        W38669  31.163  41.947   4.521
66944W        W38670   3.906  10.707  14.297
66945W        W38671  41.525  12.865   0.666
66946W        W38672  25.264   5.211  14.098
66947W        W38673   2.548  41.542   3.991
66948W        W38674  38.509   2.010   0.476
66949W        W38675   5.007  20.949   0.316
66950W        W38676   1.025  34.573   3.765
66951W        W38677   6.905  16.676  14.270
66952W        W38678  18.073  44.472  14.774
66953W        W38679  31.486  17.767  12.170
66954W        W38680  36.314  31.009  10.677
66955W        W38681  34.163  21.622   1.511
66956W        W38682  30.023   0.453   0.925
66957W        W38683  11.659  30.578  13.959
66958W        W38684  32.009  40.041   4.845
66959W        W38685  37.803  35.831   4.063
66960W        W38686  13.629  27.507  14.470
66961W        W38687  32.558   4.725  12.407
66962W        W38688  13.150  44.903  12.544
66963W        W38689  28.371  34.455  13.005
66964W        W38690   1.420   6.532  13.063
66965W        W38691  33.546  32.430   1.194
66966W        W38692  40.591  40.857  14.436
66967W        W38693  18.096  27.231  12.503
66968W        W38694   8.281  29.581  11.926
66969W        W38695  21.287  14.570  11.697
66970W        W38696  36.021  12.830   3.049
66971W        W38697  20.799  33.655   1.411
66972W        W38698  37.872   7.793   4.251
66973W        W38699  25.359  33.112  14.389
66974W        W38700  31.021  14.034  13.272
66975W        W38701  12.786  34.992  14.206
66976W        W38702   9.330  28.237  13.010
66977W        W38703  35.879  11.242   4.607
66978W        W38704   7.218  15.693   9.958
66979W        W38705  37.909   1.118   2.931
66980W        W38706  13.337   3.664   0.797
66981W        W38707  23.861  27.467   4.585
66982W        W38708   8.616   3.933  13.308
66983W        W38709  14.830   3.877   2.907
66984W        W38710  24.521  40.729   2.746
66985W        W38711   7.606  41.468   0.912
66986W        W38712  35.475  26.995   1.866
66987W        W38713  38.087  28.625   2.076
66988W        W38714  27.676  34.862   1.467
66989W        W38715  17.815  29.685   4.347
66990W        W38716   2.755  12.094   4.427
66991W        W38717   5.823   9.246   1.759
66992W        W38718  37.120  36.237  14.177
66993W        W38719  11.350  32.992  11.176
66994W        W38720   9.928  10.017   0.480
66995W        W38721   3.796   3.882  14.340
66996W        W38722  15.718  12.924   4.456
66997W        W38723  22.983  35.517  12.429
66998W        W38724  22.324  32.089  11.903
66999W        W38725  40.007   0.375  13.688
67000W        W38726  28.056  17.769   1.681
67001W        W38727  43.447  18.657   1.787
67002W        W38728  34.591  25.949  14.989
67003W        W38729  22.135   3.229   3.810
67004W        W38730  15.570  42.903   4.661
67005W        W38731  16.566   8.203   2.778
67006W        W38732  39.862  40.029  12.356
67007W        W38733  15.146   8.337  13.238
67008W        W38734  38.054  26.457  14.467
67009W        W38735   3.362  29.631   2.649
67010W        W38736  23.653  11.139  10.907
67011W        W38737  17.850  14.873   1.935
67012W        W38738   3.267  11.269  10.462
67013W        W38739   6.939  11.094   4.198
67014W        W38740  24.652  20.071   2.382
67015W        W38741  27.467  38.320   4.371
67016W        W38742  32.758   0.059   3.700
67017W        W38743   5.912   8.604  11.942
67018W        W38744  28.985  35.827  11.572
67019W        W38745  20.544  42.060  14.351
67020W        W38746  25.192  31.009  10.606
67021W        W38747  22.813  42.968  11.127
67022W        W38748  37.274  38.536  12.941
67023W        W38749  33.527  35.970  11.201
67024W        W38750  10.935   5.209  13.854
67025W        W38751   2.526  35.506   1.832
67026W        W38752  11.138  11.174   0.468
67027W        W38753  30.830   1.851   4.237
67028W        W38754   5.479  31.517  12.933
67029W        W38755   9.422   8.260   2.906
67030W        W38756  42.316  28.411  11.529
67031W        W38757  12.212  11.142  13.097
67032W        W38758   8.855  15.638   4.149
67033W        W38759  35.329  29.661  12.848
67034W        W38760   6.772  31.044  13.942
67035W        W38761  14.258  17.973  13.995
67036W        W38762  40.644  41.563  12.069
67037W        W38763   3.805  40.850   4.374
67038W        W38764  39.245  29.322  13.868
67039W        W38765   5.899  27.066   4.705
67040W        W38766  23.284  44.977   4.786
67041W        W38767  39.757  43.934  13.893
67042W        W38768  19.578  18.043   0.825
67043W        W38769   2.704  15.642  14.057
67044W        W38770  41.054   3.502  12.507
67045W        W38771  37.545   9.909  10.447
67046W        W38772   9.208  14.932   1.747
67047W        W38773  30.408  15.229   4.080
67048W        W38774  30.404  38.328  14.285
67049W        W38775  14.659  30.938   4.047
67050W        W38776  31.424  35.585  12.914
67051W        W38777  44.465  42.519   0.836
67052W        W38778  41.999  21.664  11.461
67053W        W38779   0.745  20.297   2.687
67054W        W38780  33.410  24.910   5.233
67055W        W38781  31.429  42.273  10.676
67056W        W38782  30.406   5.809   0.428
67057W        W38783  13.633  31.477  12.977
67058W        W38784  34.975  15.785  12.975
67059W        W38785   1.730  24.644   4.137
67060W        W38786  32.955  41.348  13.912
67061W        W38787  31.123  40.601   2.287
67062W        W38788  20.984   2.145   4.140
67063W        W38789  40.025  17.479  14.801
67064W        W38790  10.441  39.302   3.075
67065W        W38791  23.342  43.122   2.886
67066W        W38792   0.875  42.064   4.609
67067W        W38793  38.553  35.801  10.891
67068W        W38794  22.793   9.123  11.112
67069W        W38795  41.338  26.193   3.642
67070W        W38796   5.182  38.013  10.449
67071W        W38797  24.257  31.413  10.948
67072W        W38798  14.456  27.435  11.855
67073W        W38799  35.429  21.301  11.142
67074W        W38800  26.004  15.950   3.783
67075W        W38801  42.440  14.357   1.717
67076W        W38802   5.740  11.210  12.456
67077W        W38803   7.364  36.059   3.647
67078W        W38804   2.426  30.534  11.414
67079W        W38805   9.540   9.682   0.476
67080W        W38806  40.267  33.978   2.320
67081W        W38807  24.575  17.745   4.952
67082W        W38808   7.010  11.205   0.922
67083W        W38809  26.444  39.065   3.219
67084W        W38810  41.988   7.875   4.699
67085W        W38811  23.505  28.962  14.749
67086W        W38812  25.112  34.156   2.119
67087W        W38813   5.194   7.004   1.958
67088W        W38814  28.443  36.588  14.923
67089W        W38815  34.784  16.651   4.718
67090W        W38816  14.567  33.087  13.864
67091W        W38817  23.059  28.087  14.009
67092W        W38818  35.823  44.470   2.358
67093W        W38819   0.518  40.431   3.856
67094W        W38820   8.447  22.505   4.549
67095W        W38821  44.148  32.885   9.834
67096W        W38822  22.606  10.117  11.036
67097W        W38823  14.210  33.854  12.528
67098W        W38824  11.573  26.217   3.344
67099W        W38825  40.303   7.736   3.294
67100W        W38826  24.371  30.572   4.657
67101W        W38827  10.598  13.615   0.384
67102W        W38828   4.260  14.668  10.247
67103W        W38829  32.863  33.903   2.369
67104W        W38830  11.807  33.705   2.719
67105W        W38831  34.204  42.048  12.782
67106W        W38832  44.792  15.783   0.799
67107W        W38833  28.476  14.257   2.789
67108W        W38834   1.825  23.634  13.824
67109W        W38835  36.505   4.324  13.818
67110W        W38836  10.196  14.971  14.089
67111W        W38837   3.841   5.588  10.738
67112W        W38838   1.313  11.108  10.764
67113W        W38839  15.273  44.818   0.974
67114W        W38840  31.684   6.410   0.094
67115W        W38841   1.862  25.022   4.493
67116W        W38842  23.938  17.736   0.763
67117W        W38843  38.226   9.037  13.550
67118W        W38844  41.275  23.385  14.825
67119W        W38845   9.929  37.998  10.752
67120W        W38846  42.855  27.446  11.320
67121W        W38847  28.659  13.166   3.694
67122W        W38848  44.240   0.456   3.732
67123W        W38849  12.565   8.755   3.828
67124W        W38850  14.171   0.424  11.254
67125W        W38851  32.970  34.616   0.776
67126W        W38852  17.979  30.089  13.927
67127W        W38853  16.581  37.332   3.384
67128W        W38854  30.206  30.487   3.737
67129W        W38855  13.279  34.565  12.928
67130W        W38856  33.416   8.328   0.217
67131W        W38857  30.931  36.100  14.803
67132W        W38858  14.899   5.305  12.859
67133W        W38859   7.444   8.842  11.423
67134W        W38860  16.344  31.611  10.986
67135W        W38861  16.021  37.004  12.605
67136W        W38862  42.744   5.687  12.094
67137W        W38863  37.531  13.916   1.840
67138W        W38864  26.682  34.829   3.613
67139W        W38865  25.520  20.981  10.277
67140W        W38866  25.185  41.011   4.866
67141W        W38867  35.005   4.665  12.924
67142W        W38868  15.858  44.176   4.679
67143W        W38869  40.625  15.224   3.666
67144W        W38870   0.369  10.192   1.243
67145W        W38871  41.253  42.920   3.461
67146W        W38872  40.592  21.449   1.385
67147W        W38873  38.872  35.301  14.672
67148W        W38874  24.102  22.556   2.188
67149W        W38875   9.664   4.694  11.187
67150W        W38876   0.249  16.692  12.484
67151W        W38877  18.689  19.990   4.942
67152W        W38878   2.837  40.600   2.222
67153W        W38879  30.764  44.858   0.316
67154W        W38880  44.780  31.318   0.268
67155W        W38881  24.235  26.970   3.349
67156W        W38882  34.947  39.764   1.943
67157W        W38883  16.303  23.043   1.806
67158W        W38884   5.798  27.596   0.762
67159W        W38885  11.766   3.700  14.075
67160W        W38886  18.050  39.055  11.049
67161W        W38887  19.698  33.634  13.016
67162W        W38888   8.833   7.341  14.936
67163W        W38889  44.511  11.633   3.664
67164W        W38890  42.731  43.555  14.484
67165W        W38891  30.633   0.666   2.279
67166W        W38892  30.014  44.374  12.451
67167W        W38893  32.079  14.156  10.671
67168W        W38894   7.460  24.526   2.850
67169W        W38895  36.132  24.069   4.909
67170W        W38896  44.821  35.867   4.308
67171W        W38897  28.973   8.686   1.291
67172W        W38898  43.702  16.655   3.024
67173W        W38899   2.788  36.298   1.938
67174W        W38900   2.875  24.153   3.699
67175W        W38901  17.832   0.899   2.217
67176W        W38902  16.352  10.357   2.231
67177W        W38903  35.379   1.463  14.937
67178W        W38904  14.294  39.722   1.895
67179W        W38905  37.079  12.646  14.072
67180W        W38906  14.795  22.067   2.495
67181W        W38907  40.008  16.687   1.915
67182W        W38908  18.195  36.456  11.449
67183W        W38909   8.287   1.549   0.268
67184W        W38910  16.228   2.716  12.451
67185W        W38911  41.302  11.158  14.248
67186W        W38912  26.353  31.185   0.381
67187W        W38913  28.595   9.893   4.179
67188W        W38914  16.131  11.985   1.866
67189W        W38915   8.345  28.624   2.893
67190W        W38916  37.970  23.263   1.212
67191W        W38917  24.061   4.422  10.687
67192W        W38918  37.928  30.450  12.074
67193W        W38919   3.964  33.019  13.140
67194W        W38920  34.587  22.209   1.981
67195W        W38921  25.741  18.686   1.760
67196W        W38922   2.636  36.336   2.845
67197W        W38923  30.248  21.245  11.428
67198W        W38924  33.903   2.435  12.288
67199W        W38925  14.266  23.019   0.284
67200W        W38926  23.974  29.028   2.892
67201W        W38927  33.683  23.063  13.415
67202W        W38928  14.174   1.448   3.643
67203W        W38929  22.375  41.312   4.520
67204W        W38930  13.322  13.062  14.724
67205W        W38931  23.747  42.421   2.253
67206W        W38932  27.297  28.849   0.306
67207W        W38933  15.722  21.610   3.525
67208W        W38934  37.022   6.258  11.944
67209W        W38935  40.048  42.274  13.489
67210W        W38936  12.064  18.128   4.092
67211W        W38937   0.305  20.986   0.414
67212W        W38938  10.250  16.619  13.925
67213W        W38939  36.359   7.620   2.429
67214W        W38940  39.754  37.289  12.030
67215W        W38941  43.036   0.554  12.049
67216W        W38942  14.619   1.505   1.355
67217W        W38943  44.223  21.240  13.557
67218W        W38944  21.081   3.363   0.103
67219W        W38945  13.825   3.872  10.671
67220W        W38946  34.481  31.199  14.770
67221W        W38947  31.500   5.966   1.355
67222W        W38948  38.743   8.362   0.513
67223W        W38949  41.060  41.963   0.346
67224W        W38950  19.258   7.786  11.687
67225W        W38951  13.582   2.014   2.686
67226W        W38952  31.337  38.944  11.917
67227W        W38953  24.863   2.267  14.396
67228W        W38954  37.552  32.547   4.402
67229W        W38955  28.955   2.425   1.970
67230W        W38956  14.644  22.729  13.020
67231W        W38957   8.406  18.299   2.202
67232W        W38958  35.816  11.933  12.592
67233W        W38959  39.304  40.629  11.270
67234W        W38960  11.288  18.006   0.492
67235W        W38961  34.214  41.249   4.370
67236W        W38962   3.955   4.174   3.690
67237W        W38963  28.382  11.609   1.285
67238W        W38964  32.396  41.782   4.229
67239W        W38965   9.363  22.493  12.410
67240W        W38966   7.821  33.114   3.385
67241W        W38967  42.263  37.023   0.965
67242W        W38968   7.519  12.300   1.668
67243W        W38969  41.505   4.370  11.045
67244W        W38970  30.076  12.291   4.851
67245W        W38971   3.294  20.707  11.270
67246W        W38972  23.668   6.183  10.499
67247W        W38973  26.097   4.570   4.568
67248W        W38974   7.423  17.864  10.695
67249W        W38975   3.589  16.480   1.645
67250W        W38976  28.865  32.048  14.953
67251W        W38977  24.575  17.609   2.170
67252W        W38978  14.754  37.724  13.973
67253W        W38979  22.536  26.608   3.034
67254W        W38980   6.341  35.439  11.911
67255W        W38981   3.943   3.295   0.616
67256W        W38982  34.591  15.249   3.967
67257W        W38983  30.953  38.079   0.919
67258W        W38984  25.340   6.438   2.236
67259W        W38985  44.969  25.684  13.765
67260W        W38986   0.061  34.835   1.060
67261W        W38987  27.893  32.634  11.936
67262W        W38988   0.715   9.735  13.519
67263W        W38989  17.059  32.025  14.976
67264W        W38990  38.129  13.245   2.284
67265W        W38991  33.633  18.500   0.247
67266W        W38992  40.564  13.623  11.664
67267W        W38993   3.187  15.902  12.874
67268W        W38994  35.344   6.413  12.909
67269W        W38995  32.383  12.774  11.598
67270W        W38996  34.435  17.826   0.267
67271W        W38997   1.824   4.167   3.170
67272W        W38998  27.066  28.241   1.686
67273W        W38999  38.401  40.582  11.613
67274W        W39000  36.311  44.566  10.352
67275W        W39001  31.589  34.861   2.624
67276W        W39002   2.500   2.047  10.233
67277W        W39003  33.921   8.335   0.356
67278W        W39004  31.689   5.596  13.351
67279W        W39005  29.154  31.102   2.290
67280W        W39006   7.717  42.527  10.387
67281W        W39007  32.683  44.075  11.703
67282W        W39008  15.702  41.442  14.242
67283W        W39009  34.088  37.372   4.971
67284W        W39010   9.215  42.366   4.889
67285W        W39011  23.639  30.164  11.029
67286W        W39012  41.363  27.728   2.836
67287W        W39013  25.940  11.122   1.318
67288W        W39014  11.867  10.597  10.627
67289W        W39015  10.211  23.465   4.092
67290W        W39016  33.654   7.276  13.239
67291W        W39017  41.010  40.466  11.577
67292W        W39018   6.004  32.973   2.769
67293W        W39019  17.056  42.790   4.799
67294W        W39020  14.802   6.802   3.510
67295W        W39021  25.495  26.170   1.437
67296W        W39022  42.429  24.473   0.446
67297W        W39023   5.632   1.811  14.812
67298W        W39024   5.977   0.407   4.068
67299W        W39025  42.339  15.759  11.419
67300W        W39026  38.343   9.290   0.008
67301W        W39027   1.780  11.866  10.851
67302W        W39028  25.691  35.874   0.993
67303W        W39029  32.065  15.500  12.624
67304W        W39030   8.444  20.117  11.681
67305W        W39031  15.638  16.197  14.426
67306W        W39032  27.083  42.469  13.806
67307W        W39033  22.304  27.931   2.568
67308W        W39034  37.006  16.706  11.973
67309W        W39035  24.050   7.813   4.960
67310W        W39036  42.391  43.773  11.427
67311W        W39037  41.561  27.647  12.836
67312W        W39038  22.228  38.264  10.991
67313W        W39039  14.067   3.965  13.473
67314W        W39040   6.352  35.170   3.192
67315W        W39041   9.239  21.992   2.209
67316W        W39042  31.121  35.680   2.682
67317W        W39043  19.176  25.544   3.468
67318W        W39044  42.722  38.361  10.457
67319W        W39045  34.428  43.235   3.737
67320W        W39046  18.676  38.585   1.453
67321W        W39047  18.360  14.217  10.776
67322W        W39048  31.128  15.110   1.846
67323W        W39049  38.491  34.950   2.855
67324W        W39050  18.236  24.631   3.315
67325W        W39051  33.932   7.678  13.022
67326W        W39052  24.983   8.313   1.279
67327W        W39053  42.639   0.134   0.933
67328W        W39054  44.907  23.125   1.909
67329W        W39055  14.260  39.533   2.381
67330W        W39056  15.071  13.411   4.095
67331W        W39057  41.195   0.507   1.143
67332W        W39058  43.157   5.405  12.260
67333W        W39059  29.545  16.190  10.657
67334W        W39060  30.227   6.940  14.061
67335W        W39061  24.273   4.010  13.743
67336W        W39062  20.957  18.404   4.160
67337W        W39063  43.003   7.775  12.601
67338W        W39064   4.867  42.270   4.247
67339W        W39065  32.061  11.154   4.144
67340W        W39066  22.534  17.061  11.530
67341W        W39067   6.608   4.562   2.798
67342W        W39068  24.879  42.799   2.634
67343W        W39069  42.326   9.719  14.730
67344W        W39070  21.339  35.862  12.473
67345W        W39071   1.486  19.042  12.431
67346W        W39072  26.030  39.335   0.851
67347W        W39073  27.505  17.637  11.041
67348W        W39074  29.454   5.960  13.491
67349W        W39075  28.676  34.504   4.170
67350W        W39076  10.802  34.657   1.882
67351W        W39077  25.461  39.417  13.095
67352W        W39078   5.673  26.077   4.199
67353W        W39079  21.879  17.309  11.863
67354W        W39080   4.579  31.754   1.826
67355W        W39081  41.450  30.588   4.740
67356W        W39082  34.316   8.729   3.745
67357W        W39083   6.903  20.589  11.175
67358W        W39084  13.536  18.621   1.924
67359W        W39085  18.258  24.828  14.547
67360W        W39086   5.491  26.564   0.228
67361W        W39087   1.356  35.984  12.634
67362W        W39088  20.302  33.725  14.358
67363W        W39089  36.092   8.616  11.839
67364W        W39090  30.581  36.479   2.473
67365W        W39091  42.999  36.872  11.185
67366W        W39092  43.301  17.566   2.357
67367W        W39093  28.818  18.691  14.704
67368W        W39094  10.158  29.987   1.406
67369W        W39095   3.698  26.959   1.296
67370W        W39096  30.945  23.717   1.908
67371W        W39097  28.081   9.833   0.203
67372W        W39098   1.372  15.526   2.777
67373W        W39099   6.642   2.308   3.041
67374W        W39100  30.370  42.483   1.890
67375W        W39101  12.453  20.402  14.743
67376W        W39102  37.590  20.626  14.834
67377W        W39103  31.846  24.298   4.326
67378W        W39104  18.843  10.647  10.458
67379W        W39105  16.080  34.417  12.836
67380W        W39106  31.157   7.070  14.806
67381W        W39107  37.392  31.894   0.471
67382W        W39108  22.789   1.873   0.515
67383W        W39109   5.204  14.016  13.361
67384W        W39110  15.180  42.072   2.343
67385W        W39111  42.017  30.456   4.138
67386W        W39112  14.818   6.366   3.778
67387W        W39113   6.314   5.566  14.282
67388W        W39114   4.867  31.864   1.212
67389W        W39115  22.031  30.245  11.213
67390W        W39116  34.447  18.140   1.767
67391W        W39117   3.973  42.862  13.960
67392W        W39118  12.272  39.480  11.401
67393W        W39119  36.016  37.511  10.856
67394W        W39120  31.416   2.460  14.450
67395W        W39121  15.802  18.179  10.554
67396W        W39122   0.936  13.702  10.701
67397W        W39123  35.316  17.618  12.403
67398W        W39124   2.274  23.587  11.432
67399W        W39125  13.719  33.207   4.852
67400W        W39126  41.821   1.220   4.537
67401W        W39127   2.072  44.412   1.826
67402W        W39128  23.990  16.219   0.111
67403W        W39129  36.039   9.205  13.807
67404W        W39130  20.974  18.620   0.700
67405W        W39131  34.128  13.172  14.915
67406W        W39132  11.079  43.921   2.783
67407W        W39133  36.785  21.279   0.970
67408W        W39134  42.910  32.575   3.918
67409W        W39135  18.079   5.004  14.405
67410W        W39136  28.771  33.808  12.383
67411W        W39137   6.613   5.256   1.398
67412W        W39138  34.418  42.059  14.776
67413W        W39139  33.953  18.644   4.742
67414W        W39140   1.157  27.740   3.066
67415W        W39141  43.436  28.075  11.906
67416W        W39142  34.815  14.593   0.495
67417W        W39143  44.091  31.975  13.443
67418W        W39144   3.304   6.892  10.738
67419W        W39145  19.156  25.411  13.358
67420W        W39146  25.677  28.894   2.611
67421W        W39147  37.345  21.243  14.508
67422W        W39148  23.250   0.370   0.001
67423W        W39149  28.397   9.310  12.187
67424W        W39150  15.332  14.140  12.875
67425W        W39151  11.175   9.202   0.201
67426W        W39152  21.507  27.504  11.346
67427W        W39153  32.594  18.014   0.379
67428W        W39154  20.210  35.488   4.654
67429W        W39155  25.951  42.905   1.155
67430W        W39156  27.705   5.481  14.004
67431W        W39157  42.103  30.991  12.062
67432W        W39158   3.712  15.534  14.310
67433W        W39159  25.514  24.582   2.382
67434W        W39160   5.887  41.544  14.719
67435W        W39161  30.201  27.101  12.929
67436W        W39162   6.534  41.702  11.711
67437W        W39163   7.721  35.058  13.926
67438W        W39164  43.852   4.047  13.058
67439W        W39165  23.303  19.086   2.021
67440W        W39166   9.001   2.247   4.312
67441W        W39167  12.060  26.392   1.754
67442W        W39168  20.951  16.268  14.817
67443W        W39169  15.301  12.357  14.989
67444W        W39170   3.348  39.711  13.439
67445W        W39171  24.663  29.593   4.377
67446W        W39172  34.687  35.497   3.411
67447W        W39173   0.884  10.068  10.349
67448W        W39174  22.554  10.619   1.382
67449W        W39175  29.004   7.430  14.102
67450W        W39176  34.021   0.998   2.378
67451W        W39177  39.884  15.271  14.893
67452W        W39178  32.526   2.615   2.834
67453W        W39179  40.478   8.312  14.491
67454W        W39180   6.148   8.932  12.477
67455W        W39181  22.260  11.324  11.088
67456W        W39182  19.153   2.409  10.692
67457W        W39183  42.519  21.311  12.885
67458W        W39184  24.537  41.989   0.384
67459W        W39185  44.829  26.159  12.555
67460W        W39186   3.820  28.762  13.065
67461W        W39187  37.610  21.660   1.898
67462W        W39188  10.780   9.149  11.696
67463W        W39189  12.169   8.310   0.361
67464W        W39190  28.139  12.647  11.634
67465W        W39191   2.251  13.861  13.779
67466W        W39192   9.165  29.889  10.753
67467W        W39193  22.947  41.515   1.339
67468W        W39194   1.040  27.092  12.058
67469W        W39195  13.820  30.947   3.933
67470W        W39196  25.411  30.278   2.349
67471W        W39197  33.676   5.783  10.662
67472W        W39198   0.773  27.663  10.904
67473W        W39199  20.142   9.378   1.243
67474W        W39200  11.210  15.601   1.289
67475W        W39201   8.292   6.964  10.672
67476W        W39202  12.190   1.756  12.989
67477W        W39203  36.911  40.148   3.305
67478W        W39204   5.641   3.748  10.713
67479W        W39205   4.152  36.445   4.916
67480W        W39206  14.196  29.599   3.617
67481W        W39207  26.174  12.311  11.080
67482W        W39208  27.126   0.443  14.497
67483W        W39209  26.648  27.199   1.330
67484W        W39210   3.179  30.965  11.464
67485W        W39211  12.654  43.794  13.492
67486W        W39212  30.244  12.398   1.357
67487W        W39213  35.513  40.552   4.141
67488W        W39214   3.726  28.388  13.992
67489W        W39215  34.455   3.423   0.119
67490W        W39216   2.064  12.967   3.701
67491W        W39217   3.427  22.997  14.481
67492W        W39218   8.842  40.572  11.092
67493W        W39219  38.050   7.146   1.617
67494W        W39220  13.786  39.755  14.005
67495W        W39221  27.897  31.009   4.131
67496W        W39222  24.330   2.252  11.880
67497W        W39223  40.850  22.671   2.282
67498W        W39224   4.831   4.731   4.087
67499W        W39225  16.716  10.706   2.349
67500W        W39226   4.787  27.993  14.932
67501W        W39227  33.300   7.892   0.503
67502W        W39228  30.703  34.871   2.593
67503W        W39229  41.366  44.942  13.388
67504W        W39230   6.165   3.536   4.264
67505W        W39231  28.911  39.010  12.475
67506W        W39232  30.850   4.142   4.120
67507W        W39233   0.728  11.268  14.935
67508W        W39234  31.793   5.364  14.383
67509W        W39235  34.427  44.990   4.430
67510W        W39236  17.998  35.978   1.784
67511W        W39237   3.258   9.217  14.181
67512W        W39238  36.081  11.576   3.665
67513W        W39239   1.861   2.091   4.218
67514W        W39240  25.983  12.568  14.864
67515W        W39241  29.017  39.832  12.901
67516W        W39242   1.167  24.755   0.327
67517W        W39243  17.192  11.161   0.714
67518W        W39244  12.340  43.799  11.119
67519W        W39245  20.602  17.639   3.876
67520W        W39246  26.691   6.153  12.037
67521W        W39247  16.383  24.235  13.874
67522W        W39248   7.738  32.861  13.441
67523W        W39249  22.362  26.139   1.317
67524W        W39250  15.186  15.353   0.408
67525W        W39251  30.014  29.826   1.259
67526W        W39252  12.588   0.786  12.307
67527W        W39253  20.250   8.669   4.154
67528W        W39254  31.548   0.530   0.317
67529W        W39255  20.735  22.679   1.840
67530W        W39256   5.272  40.336  11.892
67531W        W39257   0.964   3.481  11.929
67532W        W39258  42.317  25.857   2.261
67533W        W39259   4.189  36.907   1.418
67534W        W39260  39.714   0.082  12.114
67535W        W39261   1.450  23.087  11.112
67536W        W39262  39.497  44.819  10.737
67537W        W39263  32.921  26.218  13.839
67538W        W39264  35.449   7.494   2.385
67539W        W39265  12.430  31.686   2.625
67540W        W39266  27.185  41.334  11.144
67541W        W39267  24.682  18.109  10.657
67542W        W39268  13.887  29.478  10.718
67543W        W39269  33.745  16.687   1.945
67544W        W39270  18.603  30.877  11.042
67545W        W39271  40.775  44.352   3.028
67546W        W39272  38.532  37.096  12.583
67547W        W39273  35.940   1.028   1.405
67548W        W39274   6.473  33.135   2.633
67549W        W39275   7.730  13.057  12.448
67550W        W39276  38.033   7.297  11.500
67551W        W39277  14.818  43.681   2.455
67552W        W39278  32.454  18.510   0.449
67553W        W39279  11.288  17.858   1.450
67554W        W39280   0.276   3.290  14.400
67555W        W39281  29.695   4.363  11.610
67556W        W39282  35.327   7.715   3.299
67557W        W39283  13.443  32.398   3.753
67558W        W39284   8.676  15.627   0.831
67559W        W39285  18.580  43.718   4.718
67560W        W39286  44.465  36.673  12.349
67561W        W39287  41.976   6.169  11.773
67562W        W39288  30.104  27.136  14.841
67563W        W39289  37.358  15.820  14.507
67564W        W39290  22.084   6.213  13.487
67565W        W39291   9.011   0.284   4.966
67566W        W39292  12.398  20.192  12.956
67567W        W39293   5.458  20.710   4.276
67568W        W39294  38.801   6.342   3.217
67569W        W39295  11.278  27.009  12.562
67570W        W39296  22.050  19.211   1.316
67571W        W39297  34.441   2.938   1.389
67572W        W39298   8.011   5.831  11.063
67573W        W39299  22.531  30.767  10.303
67574W        W39300  41.548  33.199   0.354
67575W        W39301  22.122  15.688   5.143
67576W        W39302   2.402   4.283  11.635
67577W        W39303  15.739  24.698  11.025
67578W        W39304  24.102  17.096  10.246
67579W        W39305  26.687  28.118   0.328
67580W        W39306  16.755   8.263   1.379
67581W        W39307  19.308  40.012   0.386
67582W        W39308  40.640  40.714   2.873
67583W        W39309  12.185  39.992   4.125
67584W        W39310  16.577   0.217  10.717
67585W        W39311  10.713  38.580  11.480
67586W        W39312   2.813  18.102  10.868
67587W        W39313  33.088  14.115  10.545
67588W        W39314   8.637  25.177  12.970
67589W        W39315  19.368   1.762   3.697
67590W        W39316  11.799  15.472  11.827
67591W        W39317  19.661  14.613  14.228
67592W        W39318  28.723  10.246   2.424
67593W        W39319  31.683  41.816   3.181
67594W        W39320   6.747  19.303  14.865
67595W        W39321   9.838  13.118   0.382
67596W        W39322  33.059   5.685   2.393
67597W        W39323  43.564   0.487   4.116
67598W        W39324  18.308  15.825  13.612
67599W        W39325   2.325  44.994   3.419
67600W        W39326   8.570  15.081  14.770
67601W        W39327  42.800   6.671   4.623
67602W        W39328  14.293   8.672  13.451
67603W        W39329   5.152  27.457   3.647
67604W        W39330  37.527  44.030  14.439
67605W        W39331  39.164  24.500  11.116
67606W        W39332  22.229  21.626  11.114
67607W        W39333  12.748  21.733  12.044
67608W        W39334  14.823   9.161   1.813
67609W        W39335  38.394  20.898   5.043
67610W        W39336  13.375  21.247  11.476
67611W        W39337  14.890  37.393  14.349
67612W        W39338  14.172  39.986   2.845
67613W        W39339   5.986   8.347  10.443
67614W        W39340  29.480  16.830   4.193
67615W        W39341   4.774  20.678   5.062
67616W        W39342  32.442  43.266  11.996
67617W        W39343   2.653  21.066  10.030
67618W        W39344  31.971  41.786   5.550
67619W        W39345  20.603  33.187  11.918
67620W        W39346   8.540   1.472   2.748
67621W        W39347  11.307  44.016   3.656
67622W        W39348  32.538  26.707  11.026
67623W        W39349   1.200  12.869  12.028
67624W        W39350  16.836  14.221   4.182
67625W        W39351  25.477  42.183  13.227
67626W        W39352  21.230  24.044   2.213
67627W        W39353   1.907   1.058  10.865
67628W        W39354   1.889  36.946  10.409
67629W        W39355  39.092   3.362   1.614
67630W        W39356  21.909  18.671   2.318
67631W        W39357   0.851  12.184  11.224
67632W        W39358   8.736   5.681  12.850
67633W        W39359  18.339  25.090  11.242
67634W        W39360  13.574  24.706   2.222
67635W        W39361  17.357  14.097   1.199
67636W        W39362  22.054  34.089   3.912
67637W        W39363  31.585  29.734   4.624
67638W        W39364  27.681   7.700   4.276
67639W        W39365   8.773  12.976  12.573
67640W        W39366  27.292  18.307   2.235
67641W        W39367  31.528  15.497   1.774
67642W        W39368  33.990  10.222  12.633
67643W        W39369   2.413  25.452  14.287
67644W        W39370  27.181  10.824  14.048
67645W        W39371   9.799  31.342  13.407
67646W        W39372   3.980   5.683  12.004
67647W        W39373  21.751  23.862   4.598
67648W        W39374  24.139  23.219  10.364
67649W        W39375  27.214  26.041  12.119
67650W        W39376  14.502  12.748  13.596
67651W        W39377  40.027  25.772  14.509
67652W        W39378  20.147  19.575   3.360
67653W        W39379  10.175  30.131  11.971
67654W        W39380  28.582  26.136  14.332
67655W        W39381  36.748   0.866  12.799
67656W        W39382  43.919   3.971   3.191
67657W        W39383  12.121  29.171  10.739
67658W        W39384  11.365  12.587  10.987
67659W        W39385  34.523  10.814  13.250
67660W        W39386   0.895  21.501   4.254
67661W        W39387   7.258  20.913  12.877
67662W        W39388  33.569  17.242  13.758
67663W        W39389  17.578  20.368   3.640
67664W        W39390  33.952  24.866  13.024
67665W        W39391  11.081   9.448  11.416
67666W        W39392   0.730  20.747   0.170
67667W        W39393  26.400  27.587   3.465
67668W        W39394  37.429  13.917   0.997
67669W        W39395  11.201  36.934   2.784
67670W        W39396  21.959  27.853  11.994
67671W        W39397  32.066   8.381   4.983
67672W        W39398  19.356  38.328  13.881
67673W        W39399  44.456  10.358   1.300
67674W        W39400  42.261  15.679  12.976
67675W        W39401  32.887  17.843  12.670
67676W        W39402  21.272  20.747  11.544
67677W        W39403  14.860  19.662   5.092
67678W        W39404  18.811  26.995  12.107
67679W        W39405  24.522   0.382  10.773
67680W        W39406  39.917   4.975  11.634
67681W        W39407  17.123   3.767   0.297
67682W        W39408   6.946  28.601   2.900
67683W        W39409  16.378  29.173   2.824
67684W        W39410   4.554   4.461  11.911
67685W        W39411  31.029   2.964  11.039
67686W        W39412  44.800  36.175  11.184
67687W        W39413  20.240   9.660  12.395
67688W        W39414  36.128  14.123  12.911
67689W        W39415  44.783  34.043  13.311
67690W        W39416  38.887  18.680  14.544
67691W        W39417  32.189   6.968  13.266
67692W        W39418  27.475  29.198  10.617
67693W        W39419  28.195  11.778  11.526
67694W        W39420  27.469   5.958  14.035
67695W        W39421  19.814  21.261   0.268
67696W        W39422   9.235  29.153  12.625
67697W        W39423   2.182  12.947  10.354
67698W        W39424  19.620  26.556  11.654
67699W        W39425  21.294  12.220   1.209
67700W        W39426  29.212   3.745   3.200
67701W        W39427  41.037   4.986  13.593
67702W        W39428  26.899  27.957  10.441
67703W        W39429  13.103   8.080  13.005
67704W        W39430   9.423  33.353  12.940
67705W        W39431  13.227  32.941   2.715
67706W        W39432   5.066  13.396   4.599
67707W        W39433  37.937  17.146  10.312
67708W        W39434  13.845  20.664  11.943
67709W        W39435  28.985  40.475   2.770
67710W        W39436  21.490   3.527   2.370
67711W        W39437  22.784  38.875  14.122
67712W        W39438  18.456  17.870  12.547
67713W        W39439  38.786   5.913   1.811
67714W        W39440  15.147  26.714  14.932
67715W        W39441   2.955  27.155   1.980
67716W        W39442  31.660  29.093  14.247
67717W        W39443  23.046  42.942   0.141
67718W        W39444  30.968  13.921  14.507
67719W        W39445   0.405  24.084  13.944
67720W        W39446  32.473  44.070  14.865
67721W        W39447  29.036  35.475  13.889
67722W        W39448   5.395  28.022  11.498
67723W        W39449   2.763  25.155   4.553
67724W        W39450  36.112  26.720   1.335
67725W        W39451  18.741  36.136   1.248
67726W        W39452  37.555  21.113   0.018
67727W        W39453  29.616  15.232  11.518
67728W        W39454   5.989   2.183   0.735
67729W        W39455  21.570   6.766  11.841
67730W        W39456   2.949   3.723  11.185
67731W        W39457  19.330  38.822   4.568
67732W        W39458   1.411  15.402   3.722
67733W        W39459  21.776  34.779  12.435
67734W        W39460   5.823   7.505   9.820
67735W        W39461   2.204   9.798  11.990
67736W        W39462  42.131  40.522   2.756
67737W        W39463  25.549   2.894   3.745
67738W        W39464  32.404  24.896  11.585
67739W        W39465  18.341   9.693   3.108
67740W        W39466   7.675  19.859  13.453
67741W        W39467  30.652  29.770   4.818
67742W        W39468  32.037  15.648  11.704
67743W        W39469  18.665  11.180  13.810
67744W        W39470   7.979  44.974  10.662
67745W        W39471  31.142  15.865   1.385
67746W        W39472  35.562  28.905  12.460
67747W        W39473  18.727   0.923  14.500
67748W        W39474  31.212  36.031   1.996
67749W        W39475  27.632  38.452  12.870
67750W        W39476  39.841  12.197   1.646
67751W        W39477   4.786   7.111  12.531
67752W        W39478   7.982  32.896  11.707
67753W        W39479  16.834  32.412  13.350
67754W        W39480   7.251   0.039  13.352
67755W        W39481  36.467  27.431   2.684
67756W        W39482   7.135  11.158  14.061
67757W        W39483  20.207  38.031  13.868
67758W        W39484   7.601  37.825   2.790
67759W        W39485  21.069  20.923  13.849
67760W        W39486  25.658  22.456  11.324
67761W        W39487  29.188  40.702  11.678
67762W        W39488   3.497  32.199   5.053
67763W        W39489  42.885   2.462   3.695
67764W        W39490  23.061  34.624   1.184
67765W        W39491  31.023  31.238   0.414
67766W        W39492   8.685  16.274   0.941
67767W        W39493  28.473  29.067   4.918
67768W        W39494  22.178  14.775   3.654
67769W        W39495  33.051  23.864  12.590
67770W        W39496   2.153   8.850   1.660
67771W        W39497  40.739  35.987   0.514
67772W        W39498  10.385  25.621   3.887
67773W        W39499  36.405   1.865   4.169
67774W        W39500  28.755   2.980   3.348
67775W        W39501  10.015  44.302  14.766
67776W        W39502  41.976  41.776  11.990
67777W        W39503  32.075  36.904   3.182
67778W        W39504  18.964  25.986   0.212
67779W        W39505  29.191  37.272  12.005
67780W        W39506  40.307  33.380  10.541
67781W        W39507  24.316   5.184   0.808
67782W        W39508   8.404  37.648  13.467
67783W        W39509  42.997  33.011  13.514
67784W        W39510  22.669  27.982  14.817
67785W        W39511  33.122   6.371  14.683
67786W        W39512  23.812  19.584   4.234
67787W        W39513  37.149  15.186   4.089
67788W        W39514  44.596  17.788   3.181
67789W        W39515  42.932  24.652  14.004
67790W        W39516  10.362  21.130  11.233
67791W        W39517   4.696   7.865   0.888
67792W        W39518  43.466  37.330  14.687
67793W        W39519  10.237   3.911  11.945
67794W        W39520  11.716  24.363  12.068
67795W        W39521   5.318  24.977  14.167
67796W        W39522  24.881   9.314   4.559
67797W        W39523  17.245  38.848  14.244
67798W        W39524   3.360  24.131  12.068
67799W        W39525   7.943  27.177  13.982
67800W        W39526   4.500  10.421   2.094
67801W        W39527  16.660  26.423  11.583
67802W        W39528   5.419  16.131   9.719
67803W        W39529  15.686  44.551  12.586
67804W        W39530  19.173  29.185  11.525
67805W        W39531   4.279  17.476  10.429
67806W        W39532  25.212  14.941   3.592
67807W        W39533  20.603  28.110   4.616
67808W        W39534  24.090  36.680   1.821
67809W        W39535  29.168  22.384   1.620
67810W        W39536  19.203  22.413  11.962
67811W        W39537  42.416  29.356  12.990
67812W        W39538   9.173   5.455   1.178
67813W        W39539  14.488  36.284   0.626
67814W        W39540  14.325  17.476  12.423
67815W        W39541   4.656  27.691   3.759
67816W        W39542  11.230  24.391  13.884
67817W        W39543  38.943  11.108   2.440
67818W        W39544   9.372  26.032  12.923
67819W        W39545  30.836  10.747   1.272
67820W        W39546   1.814  11.850  10.334
67821W        W39547  12.371  13.297   5.024
67822W        W39548   9.315  19.041  11.988
67823W        W39549   5.856  17.569  13.380
67824W        W39550  31.674  11.769   0.841
67825W        W39551  43.917  32.061  14.915
67826W        W39552  29.809  26.050  14.090
67827W        W39553   6.770   6.470   0.815
67828W        W39554  25.214   2.436  11.520
67829W        W39555  23.732  38.763  12.703
67830W        W39556   0.435  10.303  11.136
67831W        W39557   2.384  24.907  14.493
67832W        W39558  10.374   9.074  12.001
67833W        W39559  31.067  35.316   1.126
67834W        W39560  20.167   8.009   0.309
67835W        W39561  37.892   1.774  14.744
67836W        W39562  34.333   5.757  10.602
67837W        W39563  28.089  13.657  12.877
67838W        W39564  18.189  31.320   4.577
67839W        W39565  26.492  33.884   3.278
67840W        W39566  30.908  25.324  14.723
67841W        W39567  11.646  13.850  13.534
67842W        W39568  32.908  12.232  11.173
67843W        W39569  23.934  20.046   1.722
67844W        W39570  40.562   2.868  13.982
67845W        W39571   2.402  36.003   3.812
67846W        W39572  23.135  40.723  11.301
67847W        W39573  19.472   9.926  13.896
67848W        W39574  20.791  37.376  14.407
67849W        W39575  11.714  24.911   3.735
67850W        W39576  10.246   4.321  14.523
67851W        W39577  32.053  16.748   2.646
67852W        W39578  38.102   9.316   0.489
67853W        W39579  13.826  21.813  13.512
67854W        W39580   4.985  37.466   4.691
67855W        W39581   6.821  34.896  13.449
67856W        W39582  30.247   5.292   1.686
67857W        W39583  18.783  37.423   2.833
67858W        W39584  30.640   8.666   3.993
67859W        W39585   8.213  13.302  13.345
67860W        W39586  28.667  35.071  14.515
67861W        W39587  39.472  26.223  14.082
67862W        W39588  21.435  37.927  11.854
67863W        W39589   0.937   2.457  12.051
67864W        W39590  41.356  20.202  14.755
67865W        W39591  23.702   4.792  13.160
67866W        W39592  14.765  33.581   4.052
67867W        W39593  12.327   7.148  12.918
67868W        W39594  42.870  29.954  13.600
67869W        W39595   5.251   5.960  14.731
67870W        W39596  22.514   1.434   3.098
67871W        W39597  15.605   3.875  12.935
67872W        W39598  21.927  33.962   4.951
67873W        W39599   2.587  16.328  11.151
67874W        W39600  21.181  31.682  10.627
67875W        W39601  39.658  37.570   0.819
67876W        W39602  41.454  41.185  11.628
67877W        W39603  19.508  11.936  12.533
67878W        W39604  11.500  43.284   1.189
67879W        W39605  35.459  17.075   3.187
67880W        W39606  42.274  11.242   2.431
67881W        W39607  19.263  33.517   1.428
67882W        W39608   7.296   6.754  11.994
67883W        W39609  41.169  11.839  12.106
67884W        W39610  30.408  42.516   0.957
67885W        W39611   9.272  35.559  12.480
67886W        W39612  33.758   5.680   0.480
67887W        W39613  10.712  33.343  13.313
67888W        W39614   9.052  43.415  14.440
67889W        W39615  25.524   4.403  13.407
67890W        W39616   5.364  34.318  14.943
67891W        W39617   4.180  24.692  10.643
67892W        W39618  27.611  19.655  12.627
67893W        W39619  19.607  35.139  10.690
67894W        W39620  44.870   1.212  12.056
67895W        W39621  35.881  33.525  10.586
67896W        W39622  30.482  24.767   0.641
67897W        W39623  30.637  20.280   4.142
67898W        W39624  16.447   4.736   4.319
67899W        W39625  38.809  39.393   2.399
67900W        W39626  44.446  23.444   0.316
67901W        W39627  42.852  19.644  11.882
67902W        W39628  23.570   1.421   1.417
67903W        W39629   5.370  39.364  10.488
67904W        W39630  38.888  28.993   2.269
67905W        W39631  27.819   1.760  10.699
67906W        W39632   2.417  33.489  10.314
67907W        W39633   7.890   7.371  14.892
67908W        W39634  40.257  26.120   1.809
67909W        W39635  27.962  38.254   0.291
67910W        W39636  32.593   7.477   2.360
67911W        W39637  35.094  26.027  14.851
67912W        W39638  19.775  24.424  10.776
67913W        W39639  15.329   2.351   0.313
67914W        W39640  15.331   5.110   2.385
67915W        W39641  26.185  24.212   2.822
67916W        W39642   2.949  22.630  11.294
67917W        W39643   1.989  34.989  10.651
67918W        W39644  30.860   8.770   1.162
67919W        W39645   6.327   8.378   2.463
67920W        W39646  14.809  36.308  14.763
67921W        W39647   0.960   3.028   1.827
67922W        W39648   5.013  44.083   4.936
67923W        W39649  28.814  20.655   0.429
67924W        W39650  16.153  34.088   0.361
67925W        W39651  19.320  21.061  14.412
67926W        W39652  28.747  16.679   0.006
67927W        W39653  38.606  33.018  11.080
67928W        W39654  10.749  37.793   1.414
67929W        W39655   1.166  25.011  11.108
67930W        W39656   5.884  14.713  12.883
67931W        W39657   3.341   9.800  13.415
67932W        W39658  27.330  39.972   0.299
67933W        W39659   4.650  22.136   3.421
67934W        W39660  17.043   1.643  12.739
67935W        W39661  24.082  27.877   4.371
67936W        W39662  28.054  39.053   5.229
67937W        W39663  25.470  28.986  13.730
67938W        W39664  19.784  14.181  10.595
67939W        W39665  18.268  38.765  12.013
67940W        W39666  36.979  12.210   0.833
67941W        W39667  20.896  34.462   0.553
67942W        W39668  22.078  24.274  12.468
67943W        W39669  11.861  34.071  13.212
67944W        W39670  33.494  15.615   0.405
67945W        W39671  36.884  35.851   4.137
67946W        W39672  30.545   1.185  12.573
67947W        W39673   0.585  27.194   1.655
67948W        W39674  34.736  33.664  14.871
67949W        W39675  15.490   8.327   0.574
67950W        W39676   7.439  15.588  12.856
67951W        W39677  30.666   6.811  14.391
67952W        W39678  40.057  34.096   4.502
67953W        W39679  10.299  12.869   9.846
67954W        W39680  31.671  16.732  10.894
67955W        W39681  17.625  42.424   2.734
67956W        W39682   1.973  11.133  12.465
67957W        W39683  39.762  38.330  14.756
67958W        W39684  37.262  20.115   1.103
67959W        W39685   2.447  26.654  11.118
67960W        W39686   9.764  35.232   0.486
67961W        W39687  13.337  16.537  10.748
67962W        W39688   8.312   0.085  14.412
67963W        W39689   9.638  29.423   3.736
67964W        W39690  21.698   0.064   2.224
67965W        W39691  15.565  38.919  14.009
67966W        W39692  30.508  40.787  12.674
67967W        W39693  44.229  41.362  14.624
67968W        W39694  34.879  28.059  11.349
67969W        W39695  36.584   9.097   3.838
67970W        W39696  38.826  28.958  11.995
67971W        W39697   9.644  41.376  13.401
67972W        W39698  17.533  18.040  11.446
67973W        W39699  42.955  31.022  11.099
67974W        W39700  21.783  19.511   0.097
67975W        W39701  18.783  15.865   0.047
67976W        W39702  23.071  29.146  10.362
67977W        W39703  23.765  43.508  13.930
67978W        W39704   2.221   7.440  13.982
67979W        W39705  22.778  20.831   0.839
67980W        W39706   3.435  20.802  12.222
67981W        W39707  12.619  44.460  11.948
67982W        W39708  25.837  36.800   2.907
67983W        W39709  19.735  38.932   2.782
67984W        W39710  35.618  31.408  13.982
67985W        W39711  35.483  20.664  13.386
67986W        W39712  26.641  23.435   2.889
67987W        W39713  35.301  15.803   1.892
67988W        W39714  36.386  10.199   4.620
67989W        W39715  28.549  14.609   3.577
67990W        W39716  33.910  42.290   1.895
67991W        W39717  44.665  38.521  13.794
67992W        W39718  20.942  16.399   3.900
67993W        W39719  11.581  10.309  13.911
67994W        W39720  23.494  27.041  10.331
67995W        W39721   7.705   0.830   0.337
67996W        W39722  28.531  18.431   4.945
67997W        W39723  27.535  35.049  11.708
67998W        W39724  25.434  15.285  14.822
67999W        W39725  27.449   6.643   0.425
68000W        W39726   3.384  24.923   2.413
68001W        W39727  14.143  21.990  14.058
68002W        W39728  31.007  38.113  12.861
68003W        W39729  38.006   1.018  12.402
68004W        W39730  41.973   4.825   4.094
68005W        W39731  38.843   7.807  10.941
68006W        W39732  14.322  22.667  12.001
68007W        W39733  32.719  25.967  12.545
68008W        W39734   2.896  19.512  11.101
68009W        W39735  32.885  15.285   1.682
68010W        W39736   9.260   6.916  13.042
68011W        W39737  22.360  44.722  11.591
68012W        W39738  15.371  25.941   0.027
68013W        W39739  30.536  33.133  14.451
68014W        W39740   8.272  38.555   2.551
68015W        W39741  33.964  32.433  10.984
68016W        W39742  18.953  35.457  12.479
68017W        W39743  15.150  26.501   4.562
68018W        W39744  13.037  34.957  14.907
68019W        W39745  42.803  27.453   2.710
68020W        W39746  20.004  21.440   3.417
68021W        W39747   2.492  12.309   3.072
68022W        W39748  17.609  26.456   4.044
68023W        W39749   8.460   1.485  12.881
68024W        W39750  40.448  29.532   0.868
68025W        W39751   9.885  16.275  13.675
68026W        W39752  38.428  41.739   0.701
68027W        W39753   9.760  28.736   0.964
68028W        W39754   7.852  14.486  12.377
68029W        W39755  23.451  15.629   0.653
68030W        W39756  32.561  25.233   1.767
68031W        W39757  22.106  32.893   0.200
68032W        W39758  18.144  12.566  13.112
68033W        W39759  32.507  11.928  12.195
68034W        W39760  11.407  23.153   4.496
68035W        W39761  23.969  28.009  10.854
68036W        W39762  29.627   7.283  10.729
68037W        W39763   1.910   3.158   3.171
68038W        W39764  11.331  27.450  10.388
68039W        W39765  21.322  11.925   0.387
68040W        W39766  12.876  15.017  14.068
68041W        W39767  43.560  32.981  11.493
68042W        W39768   5.851  18.034   0.962
68043W        W39769  23.607   0.489  10.611
68044W        W39770  29.921  20.235  12.934
68045W        W39771  30.627   4.357  12.899
68046W        W39772  13.225   0.408  12.429
68047W        W39773   2.815   5.812   2.174
68048W        W39774  22.506  11.201  14.387
68049W        W39775  38.061  26.038  13.878
68050W        W39776   8.419  11.433   4.161
68051W        W39777  35.367  34.338  14.782
68052W        W39778  12.609  38.761   2.307
68053W        W39779  21.120  27.513   4.157
68054W        W39780  29.891   6.734   0.036
68055W        W39781  20.777  24.020   1.452
68056W        W39782  41.514  31.657   4.571
68057W        W39783  39.105   7.840  12.569
68058W        W39784   6.273  25.768   0.853
68059W        W39785  19.986   3.675   0.332
68060W        W39786   3.386   0.049  11.379
68061W        W39787  38.442  23.577  10.690
68062W        W39788   2.231  43.815  12.209
68063W        W39789   9.639  43.419  10.703
68064W        W39790  30.529  19.460  13.993
68065W        W39791   2.404  10.203   0.380
68066W        W39792  36.512  12.543   2.489
68067W        W39793  27.734   8.914  14.810
68068W        W39794  34.607  27.231   4.218
68069W        W39795   3.375   9.596   0.296
68070W        W39796  16.361  39.858   3.603
68071W        W39797  40.068  15.119   3.222
68072W        W39798   2.941  35.829   1.629
68073W        W39799  41.901   6.818   3.702
68074W        W39800  44.993  34.417   0.772
68075W        W39801  41.353  28.015   0.853
68076W        W39802  20.562  19.085  13.896
68077W        W39803  23.595  15.083   4.595
68078W        W39804  15.140  39.115  12.747
68079W        W39805  27.195  22.437  14.390
68080W        W39806  28.986   9.318  11.541
68081W        W39807  19.731   9.458   4.222
68082W        W39808  24.187  20.106   0.339
68083W        W39809  22.497  33.394   0.770
68084W        W39810   3.832   1.853   1.472
68085W        W39811   3.883   1.217  13.946
68086W        W39812  11.966  29.336   4.270
68087W        W39813   8.302  22.888  11.670
68088W        W39814  28.337  10.556   1.232
68089W        W39815  42.147   3.870   3.566
68090W        W39816  28.946  12.052  13.950
68091W        W39817  26.951  44.741   4.634
68092W        W39818  25.567   7.399   0.012
68093W        W39819   8.491  33.867   4.483
68094W        W39820  41.313   1.794  11.590
68095W        W39821  42.828  27.652   4.246
68096W        W39822  36.549  41.804   0.611
68097W        W39823  38.578  20.236  14.157
68098W        W39824  38.617   2.885  14.030
68099W        W39825   3.948   0.698  13.944
68100W        W39826  38.654   3.653  14.317
68101W        W39827   8.803   0.997   2.988
68102W        W39828  39.100  42.790   1.192
68103W        W39829  42.799  16.276   3.379
68104W        W39830  11.854  39.965   3.134
68105W        W39831  40.956   1.449   4.752
68106W        W39832  35.676  40.903  11.537
68107W        W39833  24.409   4.397   0.125
68108W        W39834  21.007  28.096  13.476
68109W        W39835  18.161   6.781  14.122
68110W        W39836  20.220  12.761   3.690
68111W        W39837  30.609  20.963  11.149
68112W        W39838  16.201  37.550   3.080
68113W        W39839   2.985  37.207   5.127
68114W        W39840  10.242  23.491  12.579
68115W        W39841   6.226  21.732   1.295
68116W        W39842  25.961  41.553   2.962
68117W        W39843  26.084  42.158  14.343
68118W        W39844  25.205   6.626  13.990
68119W        W39845  34.440  32.016   1.053
68120W        W39846  13.889  14.896  11.039
68121W        W39847  38.066  34.907   0.723
68122W        W39848  21.089  11.940   1.952
68123W        W39849  28.719  39.542  13.309
68124W        W39850  37.777   6.801  11.404
68125W        W39851  14.045  27.494   0.432
68126W        W39852   9.741  35.195   4.278
68127W        W39853  19.135  19.721   3.649
68128W        W39854  42.967  33.862   1.439
68129W        W39855  44.334  18.028  10.705
68130W        W39856  37.506  12.047  12.125
68131W        W39857   1.322  13.857   1.432
68132W        W39858   2.919  27.693  13.028
68133W        W39859  14.744  19.825   0.738
68134W        W39860   1.753  29.144   2.587
68135W        W39861  25.933   7.742   1.905
68136W        W39862  25.533  29.030   0.210
68137W        W39863  43.794  19.101   1.521
68138W        W39864  35.015  26.804  10.163
68139W        W39865  10.860  26.867  12.862
68140W        W39866   7.751  17.672  13.365
68141W        W39867  11.243   4.359   0.992
68142W        W39868  13.440  26.827   2.340
68143W        W39869  16.037  39.075  13.044
68144W        W39870  42.307   9.762   3.147
68145W        W39871  14.573   1.915   4.602
68146W        W39872  31.929  40.515  12.958
68147W        W39873  14.731   4.903   1.588
68148W        W39874  30.152  42.400  13.774
68149W        W39875  43.951  22.174  12.496
68150W        W39876  33.017  38.366  13.474
68151W        W39877  43.963  34.886   0.741
68152W        W39878  15.069  40.301  11.960
68153W        W39879  31.063  37.115  11.924
68154W        W39880  16.750  22.752   2.399
68155W        W39881  34.580  37.333   2.359
68156W        W39882  44.015   3.296   4.648
68157W        W39883  16.669  39.575  11.933
68158W        W39884   7.778   9.144  13.288
68159W        W39885  23.085  29.134  13.522
68160W        W39886  24.099  39.942  14.510
68161W        W39887  17.083  32.529  13.811
68162W        W39888  16.330   3.470  12.916
68163W        W39889  32.334  34.709  14.895
68164W        W39890  31.553  37.585   1.973
68165W        W39891   1.621  32.377   2.736
68166W        W39892  27.371  13.268   4.131
68167W        W39893  23.759  25.624  14.505
68168W        W39894  11.635   4.434  13.360
68169W        W39895  39.884  12.264   0.710
68170W        W39896  13.619  44.273   2.467
68171W        W39897  39.070  36.900  13.960
68172W        W39898  39.018  27.477   4.571
68173W        W39899  21.235  33.616   2.260
68174W        W39900  16.859   5.801   3.257
68175W        W39901   7.307  19.682  14.213
68176W        W39902  37.454   9.162   3.617
68177W        W39903  20.745  17.538   4.864
68178W        W39904  24.538   5.507  13.054
68179W        W39905  10.218  32.763   4.137
68180W        W39906   2.216  39.215  11.956
68181W        W39907  31.957  29.248   0.924
68182W        W39908  20.313   6.704   3.426
68183W        W39909  15.697  37.520  10.249
68184W        W39910  28.362  10.313  11.847
68185W        W39911  24.472  35.369  10.464
68186W        W39912   6.994  29.503  10.537
68187W        W39913  12.735   1.292  11.514
68188W        W39914  15.328   6.270  14.831
68189W        W39915  24.735   1.605  12.099
68190W        W39916  43.274  36.989  14.306
68191W        W39917  41.243  34.213   1.768
68192W        W39918  21.693  37.829   4.500
68193W        W39919  31.605  35.054   4.570
68194W        W39920  41.771  16.631   0.526
68195W        W39921  23.553  12.591   0.766
68196W        W39922  15.687  12.654   0.304
68197W        W39923  41.712  11.129   1.340
68198W        W39924   2.996   3.333   2.487
68199W        W39925  14.621  10.727  14.107
68200W        W39926   8.386  29.441   0.987
68201W        W39927  34.595  41.994  13.769
68202W        W39928   9.894  25.011  13.892
68203W        W39929  36.459  35.027   1.338
68204W        W39930   3.546  41.755   1.747
68205W        W39931  40.523   3.694  13.514
68206W        W39932  26.147  27.650  11.372
68207W        W39933   4.466   0.345  10.513
68208W        W39934  23.220  42.573  14.316
68209W        W39935  21.605  23.758   1.971
68210W        W39936  20.837  37.868   4.175
68211W        W39937  39.580  30.049   4.348
68212W        W39938  21.674  31.405  11.536
68213W        W39939  19.572  30.922  14.411
68214W        W39940  28.981   7.941  11.149
68215W        W39941  11.300  11.636   0.276
68216W        W39942  38.843  44.852   3.253
68217W        W39943   4.012  15.411   3.298
68218W        W39944  26.510  22.771  14.975
68219W        W39945  11.454  39.803  13.919
68220W        W39946   7.214  19.281   4.307
68221W        W39947  20.256  15.556  13.066
68222W        W39948   4.554  17.270  14.673
68223W        W39949  32.306  31.116   4.353
68224W        W39950   9.665   6.401  10.924
68225W        W39951   6.771   0.982   0.845
68226W        W39952  33.507  18.501   1.170
68227W        W39953  31.696   9.691  13.340
68228W        W39954  39.096  21.018   1.312
68229W        W39955   4.690  30.133  10.708
68230W        W39956   1.361  23.183   4.547
68231W        W39957  11.851  23.114   3.852
68232W        W39958  42.096   8.418   0.923
68233W        W39959  19.712  33.013  11.954
68234W        W39960  27.083  23.550  13.475
68235W        W39961  28.102  18.301  11.245
68236W        W39962  41.106  15.391   1.822
68237W        W39963  38.013   4.129   3.138
68238W        W39964  11.219   1.910  14.995
68239W        W39965  15.171   1.746  14.367
68240W        W39966  29.548  22.185   2.843
68241W        W39967  24.512  11.815   0.347
68242W        W39968   4.007   7.982  14.446
68243W        W39969  31.222  30.067  14.325
68244W        W39970  19.214  34.345  12.789
68245W        W39971   7.784  24.621   0.923
68246W        W39972   5.251   8.769  13.984
68247W        W39973  35.428  25.004   3.344
68248W        W39974   7.294  11.640   0.855
68249W        W39975  28.947  35.853   4.206
68250W        W39976  33.866   4.401   4.661
68251W        W39977  27.456  11.103  13.565
68252W        W39978  43.017  13.247  12.821
68253W        W39979  40.376  33.028   2.818
68254W        W39980  20.233   2.695  11.499
68255W        W39981  31.642   9.952   1.716
68256W        W39982   2.529  28.009  13.178
68257W        W39983  13.260  21.694   0.519
68258W        W39984  42.403  41.440   0.048
68259W        W39985  11.313  18.161  11.510
68260W        W39986  11.613  31.515   3.273
68261W        W39987  23.277   9.367   0.353
68262W        W39988  19.687  19.437  14.459
68263W        W39989   9.390  12.142  10.620
68264W        W39990  15.562  42.904  10.526
68265W        W39991  26.599  39.516  12.834
68266W        W39992   9.817  32.988  12.927
68267W        W39993  25.678  31.834  13.367
68268W        W39994  20.668  41.363  13.196
68269W        W39995   0.995  12.144   1.402
68270W        W39996  12.738   5.487  13.489
68271W        W39997  20.351  32.075   1.250
68272W        W39998  19.861  17.187   0.708
68273W        W39999   6.290  21.505  13.888
68274W        W40000  12.577  42.872   4.580
68275W        W40001   5.748  40.854  14.417
68276W        W40002  38.731  14.203   2.806
68277W        W40003  35.662  20.986  12.053
68278W        W40004  10.927  22.363   1.643
68279W        W40005   9.894  34.132  12.830
68280W        W40006  44.096  37.066  12.045
68281W        W40007   8.439  23.509   2.776
68282W        W40008   1.353  21.951  12.539
68283W        W40009   0.427   5.241  12.918
68284W        W40010  28.899  42.415  14.472
68285W        W40011  24.006  41.826   0.463
68286W        W40012   4.217  23.294   3.135
68287W        W40013  25.980  19.692  11.952
68288W        W40014  32.969  13.576   2.893
68289W        W40015  26.435  37.511  14.244
68290W        W40016  15.266   3.543  13.122
68291W        W40017   0.951  15.194   2.211
68292W        W40018  30.458  26.167   5.081
68293W        W40019   4.725  25.158   0.382
68294W        W40020   0.872  31.637   4.443
68295W        W40021  19.549  31.924   2.246
68296W        W40022  38.086  18.508  13.011
68297W        W40023  15.657  36.812   1.633
68298W        W40024  32.429   2.636  14.364
68299W        W40025  33.326  30.662   2.762
68300W        W40026   5.424  21.667  11.592
68301W        W40027  30.940  27.930   1.216
68302W        W40028  42.143  22.527   3.783
68303W        W40029  19.359  32.186   1.417
68304W        W40030   3.100  22.161   3.714
68305W        W40031   8.635   4.304  11.313
68306W        W40032   7.890   3.367  12.163
68307W        W40033   2.898  13.749  12.593
68308W        W40034   3.077  19.675   4.640
68309W        W40035  36.836   1.511  12.195
68310W        W40036  39.622   4.487  14.822
68311W        W40037  28.660  13.369   1.732
68312W        W40038   7.055   7.429   4.238
68313W        W40039   5.147  43.919  11.105
68314W        W40040  29.961  37.343   0.326
68315W        W40041  17.768  18.462  12.598
68316W        W40042   7.164  42.850  13.419
68317W        W40043   4.792  14.218  13.142
68318W        W40044  31.022   9.303  14.312
68319W        W40045   3.788  25.679   2.854
68320W        W40046   3.382  34.957   4.964
68321W        W40047  12.703  29.949  12.043
68322W        W40048  14.143  24.274   0.802
68323W        W40049  33.969  44.224   0.947
68324W        W40050  19.325   0.393  12.046
68325W        W40051   5.170  29.078  10.671
68326W        W40052  22.151  23.601  10.777
68327W        W40053  38.942  14.289   0.735
68328W        W40054  38.092  39.033   3.620
68329W        W40055  23.086   2.188   3.134
68330W        W40056   3.394  25.590  11.186
68331W        W40057  20.761  19.618  13.045
68332W        W40058  43.891  30.626   3.508
68333W        W40059   0.428  41.453   0.295
68334W        W40060  41.464  25.591   0.056
68335W        W40061   1.301  21.684  12.087
68336W        W40062  12.113  17.280  14.971
68337W        W40063  36.610  36.163  10.644
68338W        W40064  19.736  40.054  12.086
68339W        W40065  18.073   4.733   3.703
68340W        W40066  41.890  20.318  12.603
68341W        W40067  16.577  10.131  13.920
68342W        W40068  23.789  39.595  12.495
68343W        W40069   3.256  24.681   1.943
68344W        W40070  13.640  16.329   1.328
68345W        W40071   8.114  20.412   3.708
68346W        W40072  34.452   4.850  11.667
68347W        W40073   8.592   3.840   1.910
68348W        W40074  43.219   8.454  14.802
68349W        W40075   5.860  13.335   4.806
68350W        W40076  24.201  33.872   4.650
68351W        W40077  23.965  25.046   1.341
68352W        W40078  34.203  39.827  12.037
68353W        W40079  18.385  13.373  13.514
68354W        W40080   9.880  40.364  14.442
68355W        W40081  23.715  36.319   3.441
68356W        W40082  41.126  19.577  14.955
68357W        W40083  39.824  44.040  11.012
68358W        W40084   3.209  37.937  13.513
68359W        W40085  35.577  13.690   4.408
68360W        W40086  20.513  31.675   0.036
68361W        W40087  29.430  15.348   4.629
68362W        W40088   1.197   8.619  13.391
68363W        W40089   6.202  30.185   0.524
68364W        W40090  39.029   9.114   4.293
68365W        W40091  43.357  19.407   4.168
68366W        W40092   8.217  14.048  10.707
68367W        W40093  13.755  23.780   4.722
68368W        W40094  21.769  21.054   2.332
68369W        W40095  44.058  39.573  11.509
68370W        W40096  32.596   2.414  11.931
68371W        W40097   0.281  22.492  10.665
68372W        W40098  37.921  32.907   4.405
68373W        W40099  13.105   1.680   4.410
68374W        W40100   3.668  23.978   4.094
68375W        W40101  18.575   8.412  13.785
68376W        W40102  19.489  31.589  12.917
68377W        W40103   1.275  14.894  13.560
68378W        W40104  25.779  29.133  12.860
68379W        W40105  21.970  37.811  11.701
68380W        W40106   5.942  22.172   1.205
68381W        W40107  12.761  30.555  14.926
68382W        W40108  22.555  34.462   1.263
68383W        W40109  32.735  42.316  10.611
68384W        W40110   7.175  20.969   3.671
68385W        W40111   8.127  29.718  12.852
68386W        W40112  41.415  13.680   2.491
68387W        W40113  18.109   5.255   4.617
68388W        W40114   1.818  11.294  13.495
68389W        W40115  37.476  20.339  10.544
68390W        W40116  34.194  44.798   2.886
68391W        W40117  17.397  18.536  13.436
68392W        W40118  10.184  27.815   2.871
68393W        W40119  14.693  18.494   0.341
68394W        W40120   8.281   2.440   0.011
68395W        W40121  36.795  19.012  14.765
68396W        W40122  21.626  31.763  13.385
68397W        W40123  39.302  41.354  12.919
68398W        W40124   0.860  43.332   4.956
68399W        W40125   5.890  32.081   1.707
68400W        W40126  33.971  28.534  14.654
68401W        W40127  41.675  15.749  10.432
68402W        W40128  13.288   1.543  13.464
68403W        W40129  41.006  39.095  12.401
68404W        W40130  36.272  34.520   4.865
68405W        W40131  27.560  19.590   3.359
68406W        W40132  37.836   9.288  10.432
68407W        W40133  16.395  30.672  11.176
68408W        W40134  22.615   2.392   3.943
68409W        W40135   2.296   7.445   1.806
68410W        W40136  12.770  31.323   0.290
68411W        W40137  16.516   7.328   4.264
68412W        W40138  41.020  36.604  12.712
68413W        W40139  35.965   4.278  13.212
68414W        W40140  28.840  44.231  14.431
68415W        W40141  33.070  26.065  10.334
68416W        W40142   8.821  12.784   0.792
68417W        W40143  13.518  22.684   3.003
68418W        W40144  16.846  27.921   2.766
68419W        W40145  33.577  42.964   4.972
68420W        W40146  38.738  38.042   4.609
68421W        W40147  22.616  26.508   4.604
68422W        W40148  13.661  23.594  14.287
68423W        W40149  16.015  31.458  13.014
68424W        W40150   7.861  11.323   4.750
68425W        W40151   2.379  16.721  11.947
68426W        W40152  34.053  23.282  14.937
68427W        W40153  17.545   2.397  14.946
68428W        W40154  26.831  14.094  12.978
68429W        W40155   9.894  17.657   2.719
68430W        W40156  18.659  15.353   0.013
68431W        W40157   1.448  26.929  12.319
68432W        W40158  21.033  23.602   1.247
68433W        W40159  12.635  30.613   3.574
68434W        W40160  27.281  25.272  11.076
68435W        W40161  11.125  25.182  13.142
68436W        W40162  20.312  36.443   1.998
68437W        W40163  15.562  41.921   2.825
68438W        W40164   6.802  21.723  12.880
68439W        W40165  38.035  15.161  14.236
68440W        W40166  23.213  44.943   3.114
68441W        W40167  24.972  25.105  14.392
68442W        W40168   5.543  39.043   3.092
68443W        W40169  43.907  10.627   2.697
68444W        W40170  29.514  37.420  10.463
68445W        W40171  12.705  16.017  13.376
68446W        W40172  21.615  33.982   0.554
68447W        W40173  18.514  25.096   4.472
68448W        W40174  11.687  30.338  12.932
68449W        W40175  35.140  43.384  12.166
68450W        W40176  10.211  28.667   0.714
68451W        W40177  28.093  21.981  14.319
68452W        W40178  41.585  28.126  11.127
68453W        W40179   9.881  31.397   3.265
68454W        W40180  15.664   4.162  13.343
68455W        W40181  10.821  28.911  13.701
68456W        W40182  12.672  10.298  12.199
68457W        W40183  25.530   5.317   0.282
68458W        W40184   7.333   8.922   0.800
68459W        W40185  16.064  22.877   2.800
68460W        W40186  25.181  18.844  13.416
68461W        W40187  35.671  15.007   3.254
68462W        W40188  13.051   0.023  13.989
68463W        W40189  13.852  32.325  14.069
68464W        W40190  12.077  28.665   3.683
68465W        W40191  17.277  43.236   4.498
68466W        W40192  31.392   0.292   0.949
68467W        W40193  25.434  35.559   0.010
68468W        W40194  14.213  40.294   0.689
68469W        W40195  30.964  10.932  12.941
68470W        W40196   6.129  13.861  14.250
68471W        W40197  26.606   3.710   0.443
68472W        W40198  34.130   5.820   2.966
68473W        W40199   1.966  22.029  13.480
68474W        W40200  39.347  28.201   3.754
68475W        W40201  24.131   4.001   3.234
68476W        W40202   9.154   8.784   3.601
68477W        W40203  23.761  19.134  11.226
68478W        W40204   2.215   3.953  12.481
68479W        W40205  23.698  27.493  10.243
68480W        W40206  14.370  27.497  10.936
68481W        W40207  25.053  13.339   2.512
68482W        W40208  17.733   4.373   1.779
68483W        W40209  33.568  38.328   2.321
68484W        W40210  30.546  13.337  11.642
68485W        W40211  21.557   1.751  13.872
68486W        W40212   4.954  22.966  12.121
68487W        W40213  12.267  33.894   3.750
68488W        W40214  37.092  35.488  11.793
68489W        W40215  16.763  30.403  14.484
68490W        W40216  44.916  40.358   0.803
68491W        W40217   9.550  23.057  14.418
68492W        W40218  21.617  31.947  11.510
68493W        W40219  16.206   4.874  12.295
68494W        W40220   6.174  21.345   4.661
68495W        W40221  40.941  42.523   1.305
68496W        W40222  24.132  22.331   1.716
68497W        W40223   0.809   2.792   3.640
68498W        W40224  41.551  14.864   0.193
68499W        W40225  44.001   4.984   3.295
68500W        W40226  43.074  30.186   3.216
68501W        W40227  20.855  37.334   1.794
68502W        W40228  42.821  32.410  14.040
68503W        W40229  18.211  12.676   2.251
68504W        W40230  11.647   8.857   4.487
68505W        W40231  20.353  27.975   1.907
68506W        W40232  30.234  41.103   4.894
68507W        W40233  18.066  39.489  11.520
68508W        W40234  32.398   5.355  12.889
68509W        W40235   2.168  25.959   0.350
68510W        W40236  44.409  12.679  11.552
68511W        W40237  25.055  33.063   0.212
68512W        W40238  43.865  37.769   1.178
68513W        W40239  27.448  39.172   0.055
68514W        W40240  30.447  34.122  10.739
68515W        W40241  41.040  32.590   2.232
68516W        W40242  35.565   1.943   0.732
68517W        W40243  23.586   1.516   0.733
68518W        W40244  12.105  37.967   4.068
68519W        W40245  39.786  25.670  13.006
68520W        W40246  34.919   0.543   2.214
68521W        W40247  34.783  18.221   4.854
68522W        W40248  44.578  15.901   0.341
68523W        W40249  21.051  34.932   2.739
68524W        W40250  20.563  22.541  11.070
68525W        W40251  11.411  12.147   0.339
68526W        W40252  29.328  28.412   3.326
68527W        W40253   6.151  33.722   1.358
68528W        W40254   1.717  30.451   3.783
68529W        W40255   2.019  44.726   4.545
68530W        W40256  33.066  10.862  10.732
68531W        W40257  30.588  36.999  11.254
68532W        W40258   2.093  30.701  14.133
68533W        W40259  12.551  22.007   0.064
68534W        W40260   4.385  22.656   3.755
68535W        W40261  28.549  44.955   1.381
68536W        W40262  22.708  22.645  14.963
68537W        W40263  10.182  15.785  11.683
68538W        W40264  20.681  31.592   2.469
68539W        W40265   8.306  30.626   1.606
68540W        W40266  41.773  19.258  14.429
68541W        W40267  39.130  39.177  13.044
68542W        W40268   2.345  34.942  14.410
68543W        W40269  10.882  42.837  14.897
68544W        W40270   6.965  13.818   2.317
68545W        W40271   9.525  18.874  12.501
68546W        W40272  16.117  27.632   4.098
68547W        W40273  43.369  21.837  11.953
68548W        W40274   1.206   7.988   1.330
68549W        W40275   9.898  28.638  13.647
68550W        W40276   4.383  15.639   0.479
68551W        W40277   6.372  41.853   1.262
68552W        W40278  41.836  40.290  10.568
68553W        W40279   8.929   6.671  11.853
68554W        W40280  32.991  39.429  12.537
68555W        W40281  24.974  44.818   0.740
68556W        W40282  40.340  33.504  12.400
68557W        W40283  20.034   6.676  10.956
68558W        W40284  33.387  27.225  12.914
68559W        W40285   2.582  28.906  13.560
68560W        W40286  17.995  40.559   4.288
68561W        W40287  42.326  35.767  14.799
68562W        W40288  28.825  37.335  13.011
68563W        W40289  15.549  35.066  14.025
68564W        W40290  30.429  31.684   3.313
68565W        W40291   8.304  28.219   0.093
68566W        W40292  40.774  33.159   0.105
68567W        W40293  37.565  30.951   0.474
68568W        W40294  24.422  27.139   0.732
68569W        W40295  28.076  40.438   0.671
68570W        W40296  28.161  18.657  12.496
68571W        W40297  29.710  44.777   4.045
68572W        W40298  27.315  21.437   1.828
68573W        W40299  28.185  36.416  13.946
68574W        W40300   5.654  14.795   4.802
68575W        W40301  12.822  11.397   4.544
68576W        W40302  39.110  18.791   1.264
68577W        W40303  42.571  29.610   0.753
68578W        W40304  27.612  40.987  14.090
68579W        W40305  14.599  35.972   0.266
68580W        W40306  12.708  28.984  12.556
68581W        W40307  34.519  30.176   0.848
68582W        W40308   8.454  31.184   4.684
68583W        W40309  40.346  42.924   3.104
68584W        W40310  14.394   4.828   2.791
68585W        W40311  35.861  44.209   0.902
68586W        W40312   4.351  33.878   1.835
68587W        W40313  33.662  20.547  14.911
68588W        W40314  43.505  24.081   4.117
68589W        W40315  26.701  21.601  12.170
68590W        W40316  20.559  10.371   3.069
68591W        W40317  44.937  33.006  13.445
68592W        W40318   3.191  28.756   3.680
68593W        W40319  33.611   2.160   4.124
68594W        W40320  43.845  26.122   3.164
68595W        W40321  38.829  36.199  12.996
68596W        W40322  10.830   1.462  10.601
68597W        W40323  39.161  39.312   4.254
68598W        W40324   1.992  43.502  12.541
68599W        W40325  38.048  35.809   2.744
68600W        W40326  36.100  37.030   1.803
68601W        W40327  42.354  21.122   1.309
68602W        W40328   7.607  16.495  13.689
68603W        W40329  44.889  32.860  11.532
68604W        W40330  32.579  15.549   1.324
68605W        W40331  32.995   1.169  11.944
68606W        W40332  28.881  44.722   2.778
68607W        W40333  39.466  35.351   2.683
68608W        W40334  27.620  28.436   3.928
68609W        W40335  43.879  13.033  14.308
68610W        W40336  22.627  21.835   4.633
68611W        W40337   3.945  41.229   2.891
68612W        W40338  41.384  43.801   0.974
68613W        W40339  38.414   3.083  12.999
68614W        W40340  15.580  21.229   0.360
68615W        W40341  31.177  38.943   2.965
68616W        W40342  24.857  38.894   1.363
68617W        W40343  20.033  36.352  14.420
68618W        W40344  19.391  23.846   0.441
68619W        W40345  11.876  10.764   3.051
68620W        W40346  36.545  29.240  12.440
68621W        W40347  18.493  30.082  13.833
68622W        W40348  28.322  36.498   0.780
68623W        W40349  20.850   6.316   4.591
68624W        W40350   7.712  35.085   3.162
68625W        W40351  10.200   3.126   1.168
68626W        W40352   5.848   0.825   0.138
68627W        W40353  13.158  28.998   3.178
68628W        W40354  14.093  37.276   0.469
68629W        W40355  23.250  43.527   4.629
68630W        W40356  21.156  41.892  12.286
68631W        W40357  42.472  23.424   0.558
68632W        W40358  14.335  33.950  11.168
68633W        W40359   5.288  43.708   3.829
68634W        W40360  27.531  36.030   2.371
68635W        W40361  16.043  41.909   3.104
68636W        W40362  29.593  21.002  11.634
68637W        W40363  43.482  21.549   2.392
68638W        W40364  42.479   2.523   0.463
68639W        W40365  34.016  27.086   2.657
68640W        W40366  12.118  14.675  10.497
68641W        W40367  39.822  31.636   3.948
68642W        W40368  28.295  13.343  14.917
68643W        W40369  36.012  25.255  14.272
68644W        W40370  27.855  36.637  10.953
68645W        W40371  25.526  24.685   0.036
68646W        W40372  40.362  17.186  12.872
68647W        W40373  37.480  12.093   1.377
68648W        W40374   6.781  32.065  11.536
68649W        W40375   5.725  44.222   0.189
68650W        W40376  25.658  40.297  10.812
68651W        W40377   1.718  12.713   1.501
68652W        W40378  37.824  38.815   3.230
68653W        W40379  13.065  13.540   3.258
68654W        W40380  16.270  19.079  13.062
68655W        W40381  21.639   9.081   4.652
68656W        W40382  16.848  40.296  12.580
68657W        W40383  36.669  14.349  11.664
68658W        W40384  28.082   6.836  13.385
68659W        W40385  35.085  31.224  11.151
68660W        W40386  15.605  19.303  12.839
68661W        W40387  15.145  25.011   0.795
68662W        W40388  17.863   1.865   3.202
68663W        W40389  41.194  12.873   0.224
68664W        W40390  24.777  41.739   4.131
68665W        W40391  11.451  22.170  11.855
68666W        W40392  28.970   7.236   0.387
68667W        W40393  41.559  37.363  12.326
68668W        W40394  33.351  35.990  14.485
68669W        W40395  35.105  23.179  13.018
68670W        W40396  19.400  27.228   4.172
68671W        W40397  40.822  30.726   1.603
68672W        W40398  32.379  18.035   3.655
68673W        W40399  39.318  29.382   1.485
68674W        W40400  32.038  22.104  10.951
68675W        W40401  44.714  36.593  12.994
68676W        W40402  23.533  20.224  11.990
68677W        W40403  14.764  16.020   4.871
68678W        W40404  27.090   4.840   0.442
68679W        W40405  30.222  22.539   5.111
68680W        W40406  12.118  15.242   4.789
68681W        W40407  13.698  22.278   4.604
68682W        W40408  12.632  39.131  13.885
68683W        W40409  34.036   4.273   1.958
68684W        W40410  29.678  20.138  13.380
68685W        W40411  35.918  38.082  11.690
68686W        W40412  36.375  33.260  13.756
68687W        W40413  44.445  18.231   2.317
68688W        W40414  24.251   6.403  11.586
68689W        W40415  24.258  39.221   0.748
68690W        W40416  22.814   2.789   1.719
68691W        W40417  30.864   3.444  12.455
68692W        W40418  27.137   3.606  10.434
68693W        W40419  15.057   1.807   3.668
68694W        W40420  25.136  16.364  11.613
68695W        W40421  21.584   7.471  10.370
68696W        W40422  13.287  13.027  11.190
68697W        W40423   2.668  34.848  11.326
68698W        W40424  29.461  26.111   1.324
68699W        W40425   5.899  44.275  11.394
68700W        W40426  22.591  40.296   2.595
68701W        W40427   8.614   4.408   3.290
68702W        W40428  15.361  42.352   1.906
68703W        W40429  36.319  29.499   4.641
68704W        W40430  26.148   1.237  12.423
68705W        W40431  19.319  35.032  14.360
68706W        W40432   5.259  27.961   3.082
68707W        W40433  30.354   1.931   3.403
68708W        W40434  15.105  35.622   1.731
68709W        W40435  28.638  15.532   1.837
68710W        W40436   6.803  26.547  11.685
68711W        W40437  12.779   2.336   4.673
68712W        W40438   6.550   4.469   0.894
68713W        W40439   6.799  38.365   1.323
68714W        W40440  14.700  26.599  13.998
68715W        W40441  37.408  15.257   2.226
68716W        W40442  12.628  31.630  14.894
68717W        W40443  22.103  16.524   0.352
68718W        W40444  28.025  12.893  14.375
68719W        W40445   4.267   7.438  12.009
68720W        W40446  20.607  38.559   3.266
68721W        W40447  39.660  13.286   1.352
68722W        W40448  11.176  38.535   2.804
68723W        W40449  32.932  12.985  12.852
68724W        W40450  14.468  10.690   4.131
68725W        W40451   8.341  35.378   9.856
68726W        W40452  13.066  13.338  11.607
68727W        W40453  32.161  44.207   5.027
68728W        W40454   4.208   8.822  11.179
68729W        W40455  15.980  33.973  11.885
68730W        W40456   3.445   2.827  10.671
68731W        W40457   1.984  17.543  13.491
68732W        W40458  23.287   9.753  14.515
68733W        W40459  34.467   4.264  12.380
68734W        W40460  11.741  17.970   1.236
68735W        W40461   0.364  42.530  11.810
68736W        W40462  37.748  24.952   2.235
68737W        W40463   0.959   5.322  12.882
68738W        W40464  26.627  27.480   1.784
68739W        W40465   6.296  17.718   2.686
68740W        W40466  18.318   7.237  14.337
68741W        W40467  37.602  17.719   4.819
68742W        W40468  37.833  27.142   0.018
68743W        W40469   2.787  20.539  11.241
68744W        W40470  14.876   1.508  12.567
68745W        W40471  24.637  18.340   0.336
68746W        W40472   6.218  36.159   3.275
68747W        W40473  30.648  36.107   0.374
68748W        W40474  30.023  30.382  12.603
68749W        W40475  43.760  21.090  12.709
68750W        W40476  36.883  15.855  11.150
68751W        W40477   0.258  31.119  11.904
68752W        W40478   1.695   1.513  14.497
68753W        W40479  22.255  38.501  13.360
68754W        W40480  14.216  17.754   1.388
68755W        W40481  20.096  27.884   0.848
68756W        W40482   9.420  10.374  11.066
68757W        W40483  42.695  41.532   9.876
68758W        W40484   9.386  14.328  14.426
68759W        W40485  40.257  27.736  10.741
68760W        W40486  38.820  18.954  14.974
68761W        W40487   6.102  22.958   1.668
68762W        W40488  23.834  13.835   0.949
68763W        W40489   1.439  37.397  13.369
68764W        W40490  39.404  20.561  14.314
68765W        W40491  37.557  42.892  13.972
68766W        W40492  42.896  20.777  14.353
68767W        W40493  32.808   9.286   4.742
68768W        W40494   1.183  36.986   4.392
68769W        W40495  11.749   3.172  14.046
68770W        W40496  39.011  28.885  10.281
68771W        W40497  26.944  23.088   2.133
68772W        W40498  31.142   5.285  12.337
68773W        W40499  19.160  11.715   1.808
68774W        W40500  21.906  41.999  11.202
68775W        W40501   2.252  13.228  10.782
68776W        W40502   3.601   3.066  12.547
68777W        W40503   5.294   7.622  10.685
68778W        W40504  42.344  29.600  10.452
68779W        W40505  11.688   3.601   4.103
68780W        W40506   8.473  23.107  11.215
68781W        W40507   7.796  26.628   5.061
68782W        W40508  24.523  13.998  13.426
68783W        W40509   2.912  38.913  14.514
68784W        W40510  34.926   1.779   1.702
68785W        W40511  30.337  22.753   3.675
68786W        W40512  22.504  10.429  13.080
68787W        W40513  14.895  21.568   2.643
68788W        W40514  44.030   4.431   0.235
68789W        W40515  22.626  37.496   3.768
68790W        W40516  17.487  16.229  12.464
68791W        W40517  35.582  23.087  10.643
68792W        W40518  31.685   6.229  14.597
68793W        W40519  12.831   2.681  14.936
68794W        W40520  35.626  30.816  14.943
68795W        W40521  17.138  20.257  11.568
68796W        W40522  19.948  12.661   2.896
68797W        W40523  14.993   2.696  12.919
68798W        W40524  38.931  36.274   2.499
68799W        W40525   2.324  22.006  14.563
68800W        W40526  38.798   9.299  13.009
68801W        W40527   0.245  12.148   3.738
68802W        W40528  37.912  39.964  12.629
68803W        W40529  11.902  13.772  14.830
68804W        W40530  41.008   4.780   1.665
68805W        W40531  35.814  36.864   2.363
68806W        W40532  16.333  14.157   0.893
68807W        W40533  34.335  19.732  11.201
68808W        W40534  42.301  34.466   0.906
68809W        W40535  35.885  32.534   0.782
68810W        W40536  31.896   6.795   0.388
68811W        W40537  25.041  21.719   0.786
68812W        W40538  38.465  28.591   3.858
68813W        W40539  31.536  15.321  11.524
68814W        W40540  26.387   3.405   2.784
68815W        W40541   1.937   8.937  10.476
68816W        W40542  26.753  17.312   3.664
68817W        W40543  16.530  13.197   4.139
68818W        W40544  39.742  16.250   3.413
68819W        W40545  14.177  11.901   3.619
68820W        W40546  42.205  30.465   3.135
68821W        W40547  34.798  42.842   3.270
68822W        W40548   3.768  24.251   4.534
68823W        W40549  34.424  17.089   4.584
68824W        W40550  15.146   5.957   0.261
68825W        W40551  32.559  41.702   2.971
68826W        W40552  21.072  33.043  12.085
68827W        W40553  13.590  27.978  14.267
68828W        W40554  40.823  41.872  11.683
68829W        W40555  16.718  21.796  10.984
68830W        W40556  28.489  14.013  13.468
68831W        W40557   3.493  38.223   4.644
68832W        W40558   7.777  16.065  10.969
68833W        W40559  34.349  12.820   2.240
68834W        W40560  30.590  10.284  12.463
68835W        W40561   6.111  13.556   1.308
68836W        W40562   4.445  16.836  12.431
68837W        W40563  10.420  33.532   1.876
68838W        W40564  37.979  19.794  11.973
68839W        W40565  11.161   8.412  14.777
68840W        W40566   4.940  39.593  14.375
68841W        W40567   1.209  34.202   4.583
68842W        W40568  41.387  28.997   1.696
68843W        W40569  26.019  41.830  14.738
68844W        W40570  43.972  15.546   4.492
68845W        W40571   3.239  10.046  13.992
68846W        W40572  20.712  35.196  14.822
68847W        W40573   9.385   1.525  11.192
68848W        W40574  20.850  38.820  11.983
68849W        W40575  40.413  29.347   3.623
68850W        W40576  44.099  32.055  10.471
68851W        W40577  13.131  37.852  11.921
68852W        W40578  35.058  37.603  10.809
68853W        W40579  21.064   0.398  14.456
68854W        W40580  36.571  10.440   3.313
68855W        W40581  25.026  29.079   0.274
68856W        W40582  36.569  19.588   3.158
68857W        W40583  21.306  33.520   1.407
68858W        W40584  42.556  21.157  14.319
68859W        W40585  30.568  28.557  11.108
68860W        W40586  13.999  41.103   4.888
68861W        W40587  38.989  42.484   2.783
68862W        W40588  26.483  34.996  13.629
68863W        W40589  14.735  24.265   0.407
68864W        W40590  35.416   0.356   1.396
68865W        W40591  20.286   3.464  13.327
68866W        W40592   4.950   3.403  13.856
68867W        W40593  14.337  39.436   9.960
68868W        W40594   7.784  43.706   0.259
68869W        W40595  27.728  17.772  13.950
68870W        W40596   3.189  13.368   4.946
68871W        W40597  19.401   6.105  11.160
68872W        W40598   5.394  32.053   1.971
68873W        W40599  43.280  10.251  11.715
68874W        W40600  44.718  12.126   0.739
68875W        W40601  27.199  25.543   3.331
68876W        W40602   0.446  10.677  14.696
68877W        W40603  34.521  12.983   2.745
68878W        W40604  34.912  21.211  10.462
68879W        W40605  22.468   0.714   2.312
68880W        W40606  37.472  29.855  11.487
68881W        W40607   3.815  11.353   3.628
68882W        W40608  43.534  29.686   1.852
68883W        W40609  15.682  10.137   1.197
68884W        W40610   3.309  22.222   1.681
68885W        W40611  42.936  19.087  11.890
68886W        W40612  31.445  42.494   1.969
68887W        W40613   2.722   2.335   3.016
68888W        W40614  35.465  27.467  11.223
68889W        W40615  27.133  18.790   4.449
68890W        W40616  30.907  38.175  14.280
68891W        W40617   6.210  33.880  14.994
68892W        W40618   8.887   5.391  12.461
68893W        W40619   2.529   4.741  14.323
68894W        W40620  38.432   5.321   5.008
68895W        W40621   1.457  39.955  13.304
68896W        W40622  32.783  35.110   0.900
68897W        W40623  26.286   7.750  14.047
68898W        W40624  16.656   5.949  12.136
68899W        W40625  42.572   7.780  12.904
68900W        W40626  44.880   2.949   3.672
68901W        W40627  28.958  39.896   3.133
68902W        W40628  41.830  23.258   0.194
68903W        W40629  37.460   5.182  12.521
68904W        W40630  42.856  15.756  14.316
68905W        W40631  28.128  19.188   4.995
68906W        W40632   7.741  31.117   0.484
68907W        W40633   6.775  11.246   4.702
68908W        W40634  32.439  35.552   2.204
68909W        W40635  34.054   6.908   4.936
68910W        W40636  24.672  23.977  11.583
68911W        W40637  40.773  24.245  12.884
68912W        W40638  27.546  19.615  11.174
68913W        W40639  32.463  22.703  13.915
68914W        W40640  13.286  12.280  14.730
68915W        W40641  29.658   9.600  12.022
68916W        W40642  34.997  29.176  12.090
68917W        W40643  19.279  42.661   2.438
68918W        W40644  35.958  33.062   2.173
68919W        W40645   2.238  33.010  10.427
68920W        W40646  23.689  38.367  11.203
68921W        W40647  30.037  35.123   3.027
68922W        W40648  18.745  40.569   4.649
68923W        W40649  31.920  20.737   2.281
68924W        W40650  23.215   8.222   4.608
68925W        W40651  18.590  29.391  12.125
68926W        W40652  13.783  14.677   4.790
68927W        W40653  38.654   2.400  11.654
68928W        W40654  34.963  39.148  14.314
68929W        W40655  26.842  32.637   3.385
68930W        W40656   5.477  29.979   4.080
68931W        W40657  32.310  29.542   1.183
68932W        W40658  13.779  35.105   4.580
68933W        W40659  32.667  10.145  11.487
68934W        W40660  21.930   7.803   4.233
68935W        W40661  18.756  36.974  10.662
68936W        W40662  40.845   7.792   4.139
68937W        W40663   4.814  32.146  10.760
68938W        W40664  40.502  32.132   0.848
68939W        W40665  40.841  31.560   0.432
68940W        W40666  31.492  36.309   0.371
68941W        W40667  19.763  29.572   1.512
68942W        W40668  37.270  19.576   5.104
68943W        W40669  26.191  15.995  14.906
68944W        W40670  21.270  27.304  14.066
68945W        W40671  27.145   3.294   4.085
68946W        W40672   8.740  39.954  12.066
68947W        W40673  12.207  32.881  14.254
68948W        W40674   5.150   5.323   9.688
68949W        W40675  43.829  20.597   1.886
68950W        W40676  20.582  22.311   0.492
68951W        W40677  22.937  25.996  14.266
68952W        W40678  34.301  19.489   1.414
68953W        W40679   9.305  19.523  14.504
68954W        W40680   0.492  39.977   3.561
68955W        W40681  11.595  31.550   2.319
68956W        W40682  37.299  13.783   2.268
68957W        W40683  17.676  40.125   4.186
68958W        W40684  13.144   3.842   2.438
68959W        W40685  10.806  13.123  12.833
68960W        W40686   7.175  20.218   0.229
68961W        W40687   3.566   5.104  10.172
68962W        W40688   8.897  33.076  13.716
68963W        W40689  39.343   8.108   3.288
68964W        W40690   3.253   5.725  13.386
68965W        W40691   1.568  11.202   3.415
68966W        W40692  26.671  29.839  14.656
68967W        W40693  25.292  27.161  12.973
68968W        W40694  11.713  37.125  12.147
68969W        W40695  23.653   1.037   0.941
68970W        W40696  22.893   9.361   2.782
68971W        W40697  40.379  22.279  10.656
68972W        W40698   9.908  17.501  13.181
68973W        W40699  22.982  12.778   2.326
68974W        W40700   8.860  39.394  12.034
68975W        W40701  43.436  41.751  11.967
68976W        W40702   6.986  13.714   3.769
68977W        W40703  25.635   0.833   5.160
68978W        W40704  16.558   2.185   4.593
68979W        W40705  38.069  19.026   0.080
68980W        W40706  43.831  14.572   2.635
68981W        W40707  43.037  25.106   0.900
68982W        W40708  27.254  43.988   1.340
68983W        W40709  42.029  22.719   4.617
68984W        W40710  12.923  34.140   0.917
68985W        W40711   9.896  34.875   2.775
68986W        W40712  36.657  27.956   1.166
68987W        W40713  43.002  34.154  12.109
68988W        W40714  20.580  20.052  12.515
68989W        W40715  24.993  39.481   4.767
68990W        W40716  32.820  33.627   2.790
68991W        W40717  30.795  19.803  12.819
68992W        W40718   6.225  13.681   2.654
68993W        W40719  39.435  32.851  11.341
68994W        W40720  20.701   8.531  11.666
68995W        W40721  40.849  12.884   1.780
68996W        W40722  24.010  40.259   5.119
68997W        W40723  29.670  11.594  13.069
68998W        W40724  27.291   0.398   4.710
68999W        W40725   5.419  20.652   0.231
69000W        W40726  23.727   6.378  11.644
69001W        W40727  41.967  28.083  12.644
69002W        W40728  35.806  37.445   1.850
69003W        W40729  14.672  30.014   1.685
69004W        W40730  38.504  29.412   1.800
69005W        W40731  38.520   3.522   0.756
69006W        W40732  18.766  24.588   0.216
69007W        W40733  13.158   4.509   2.435
69008W        W40734  31.858  23.401  11.099
69009W        W40735  35.448  25.118   1.903
69010W        W40736  18.580  40.832   3.201
69011W        W40737  15.714  23.677  11.143
69012W        W40738  26.630   2.566   2.884
69013W        W40739  15.659   3.313   3.456
69014W        W40740  17.684   2.895  14.980
69015W        W40741   0.426  22.489  13.912
69016W        W40742  21.773  19.604  13.125
69017W        W40743   1.253  26.531   1.109
69018W        W40744   4.399  34.644  11.557
69019W        W40745  39.667  25.179  13.860
69020W        W40746  15.325  23.083   3.565
69021W        W40747  30.866  26.674  14.293
69022W        W40748   2.313  12.381  14.971
69023W        W40749  23.265   7.710   3.415
69024W        W40750   8.746   9.314  13.271
69025W        W40751   5.296  16.067  11.047
69026W        W40752  21.784   6.270   4.234
69027W        W40753  20.036  15.127  14.482
69028W        W40754  33.035   6.620  13.619
69029W        W40755   8.690  41.232   2.214
69030W        W40756  30.650  41.020  10.425
69031W        W40757   1.983   9.093   2.384
69032W        W40758  41.079  42.454  14.911
69033W        W40759  41.904  34.702  13.864
69034W        W40760  41.819  15.546  12.666
69035W        W40761  11.536   8.595   3.017
69036W        W40762  38.296  35.556   0.515
69037W        W40763  40.983  17.010   4.446
69038W        W40764  28.891  14.556   0.420
69039W        W40765  19.945  16.618   4.773
69040W        W40766  44.106   4.213   1.246
69041W        W40767  40.747  43.670  12.041
69042W        W40768  42.197  14.398  11.122
69043W        W40769  32.112  28.259  11.973
69044W        W40770   3.995   0.354   0.675
69045W        W40771  25.079  18.569   3.750
69046W        W40772  32.951  42.687  14.037
69047W        W40773  29.341  44.367   1.560
69048W        W40774   3.749  32.664   2.214
69049W        W40775  20.756  37.614   1.309
69050W        W40776  15.023  31.588  12.847
69051W        W40777  33.112   4.478   2.618
69052W        W40778  13.199   5.662   0.229
69053W        W40779  37.126  22.782  12.046
69054W        W40780  37.516  41.920  12.134
69055W        W40781   8.243  40.427   3.274
69056W        W40782  17.060  42.897  12.470
69057W        W40783  18.320  20.762   2.233
69058W        W40784  31.536  24.195   2.874
69059W        W40785  21.654   2.567   2.198
69060W        W40786  36.396  40.921  12.932
69061W        W40787  19.064  18.318  14.853
69062W        W40788  23.474  37.365  10.787
69063W        W40789   0.753  41.319  12.547
69064W        W40790  11.269  25.636  14.297
69065W        W40791  43.280  28.510   4.148
69066W        W40792  39.839  16.589   1.396
69067W        W40793   5.748  25.399   2.853
69068W        W40794  28.568  35.566   2.718
69069W        W40795   5.297  36.749  14.364
69070W        W40796  26.854  40.886   1.723
69071W        W40797  27.620   2.286   1.242
69072W        W40798  44.466  11.946  14.886
69073W        W40799  29.121   6.576  10.567
69074W        W40800  14.031  42.010  14.513
69075W        W40801  34.323   1.280   2.064
69076W        W40802  13.728  40.596  12.319
69077W        W40803  41.805  12.834  13.463
69078W        W40804  15.391  21.704  11.537
69079W        W40805  33.427   8.856   3.321
69080W        W40806   6.764  15.562   4.019
69081W        W40807  25.992  34.384  14.782
69082W        W40808  40.005  10.467  11.022
69083W        W40809  43.254  24.030   4.564
69084W        W40810  28.379  26.866  12.434
69085W        W40811   0.985  38.030  13.834
69086W        W40812  15.293  42.369   2.751
69087W        W40813  12.087  18.086  12.499
69088W        W40814  29.517  10.321   1.802
69089W        W40815   7.750  37.096   2.128
69090W        W40816  26.496  29.410  13.333
69091W        W40817  21.275   9.640   2.149
69092W        W40818   2.752  13.123  11.593
69093W        W40819  27.493  38.601   1.336
69094W        W40820  30.581   9.101  11.511
69095W        W40821  26.147  20.685   0.771
69096W        W40822  31.086   7.655   0.718
69097W        W40823   7.594  25.761  13.994
69098W        W40824   2.959  19.578   0.248
69099W        W40825  42.683  18.690   3.732
69100W        W40826   0.878   9.880  11.679
69101W        W40827  41.867   0.738   0.346
69102W        W40828  28.401  16.814   0.368
69103W        W40829  20.091  15.062   2.816
69104W        W40830  14.910  13.949   4.030
69105W        W40831  39.065   0.544  10.578
69106W        W40832  36.484  27.685   3.165
69107W        W40833   4.239  32.406   0.427
69108W        W40834  18.687  23.563  14.911
69109W        W40835  36.079  33.111  11.468
69110W        W40836  18.202  35.640  10.386
69111W        W40837   7.739  33.077   0.391
69112W        W40838  13.272  28.189  11.568
69113W        W40839   2.304  41.349   2.369
69114W        W40840   0.478  10.761   3.645
69115W        W40841   1.327  41.125   0.307
69116W        W40842  42.411  20.466  12.597
69117W        W40843   1.877  22.710   1.017
69118W        W40844  32.014  36.030  14.524
69119W        W40845   3.378  13.169   0.490
69120W        W40846  23.530  33.904  14.493
69121W        W40847  11.055  42.379  13.373
69122W        W40848  30.079  35.377  10.452
69123W        W40849  39.230  14.903  14.442
69124W        W40850  15.608  13.355  13.243
69125W        W40851  28.796  34.178   0.634
69126W        W40852   0.838  42.790  14.229
69127W        W40853  19.774  27.904  14.782
69128W        W40854  11.834   1.908  10.205
69129W        W40855  27.034  44.666   3.714
69130W        W40856  15.436  44.832  12.966
69131W        W40857   2.676  31.723  11.124
69132W        W40858  13.765  27.030   3.731
69133W        W40859   9.586  39.238  12.554
69134W        W40860  13.416  41.843   3.758
69135W        W40861  16.152   1.874   1.155
69136W        W40862   1.347  27.479   2.623
69137W        W40863  41.514   4.205  14.481
69138W        W40864   8.479  34.358  13.966
69139W        W40865   7.804  20.419   4.113
69140W        W40866  13.630  31.423  13.918
69141W        W40867  23.938  36.861  12.461
69142W        W40868  29.688  39.786   5.017
69143W        W40869  28.024   9.234   2.634
69144W        W40870  39.952  36.852   3.834
69145W        W40871  34.684  20.906   3.239
69146W        W40872  43.224   0.258   3.624
69147W        W40873  40.002  29.418  11.071
69148W        W40874  21.330  43.819   4.308
69149W        W40875  39.491  36.058   4.894
69150W        W40876   6.324   9.135   3.801
69151W        W40877  34.022   6.157  10.646
69152W        W40878  20.163  38.525   4.067
69153W        W40879  29.168  39.607  10.133
69154W        W40880  22.685  29.219  13.202
69155W        W40881  38.292  37.348   0.864
69156W        W40882  39.901  33.677  13.899
69157W        W40883  19.517   1.229  11.398
69158W        W40884  38.004  39.780   1.285
69159W        W40885  29.374  36.445   0.826
69160W        W40886  17.077   8.459   4.735
69161W        W40887  12.401  40.914  11.124
69162W        W40888   3.126  13.302   4.418
69163W        W40889  14.144  27.532   4.911
69164W        W40890  36.061  25.744   2.234
69165W        W40891  16.436  26.541  12.025
69166W        W40892  28.443  27.906   4.591
69167W        W40893   1.956  36.040  10.723
69168W        W40894  41.274   7.256  13.951
69169W        W40895   1.164  27.539   4.007
69170W        W40896   9.854  42.925  10.653
69171W        W40897  32.458  30.142   2.669
69172W        W40898   2.712  28.050  13.871
69173W        W40899  11.236  28.661   3.290
69174W        W40900  28.982   7.640   1.826
69175W        W40901  38.283  16.223   3.245
69176W        W40902  23.133  17.471  12.154
69177W        W40903  37.491  29.017  11.148
69178W        W40904   3.468  14.204   1.247
69179W        W40905   4.317   3.908   0.027
69180W        W40906   1.204  14.467  14.319
69181W        W40907  11.994  24.959  10.709
69182W        W40908   8.239  26.220   1.320
69183W        W40909   7.842  29.854  11.542
69184W        W40910  33.873  25.923  11.165
69185W        W40911   7.238   2.485  11.481
69186W        W40912  16.122  35.896   1.306
69187W        W40913   2.455  37.785  10.641
69188W        W40914   4.514  44.872   0.512
69189W        W40915  23.482  39.765   2.717
69190W        W40916  29.992  30.409  13.138
69191W        W40917   4.722  11.101   1.290
69192W        W40918  24.306  37.955  10.587
69193W        W40919   0.871  39.148  12.178
69194W        W40920   1.873   3.977   4.896
69195W        W40921  42.884   2.420   2.870
69196W        W40922  32.871  44.857  11.724
69197W        W40923  17.786  26.602  13.680
69198W        W40924  28.886  17.803   0.829
69199W        W40925  20.871  12.539   5.035
69200W        W40926  41.031  10.030   2.664
69201W        W40927  41.848  11.889   0.725
69202W        W40928  37.507   3.350   2.455
69203W        W40929  31.873  27.558   2.289
69204W        W40930  13.891  11.181  12.541
69205W        W40931  42.270  41.441   0.926
69206W        W40932  35.807  39.886   0.888
69207W        W40933  20.617  26.114   2.831
69208W        W40934  37.534   9.111   1.339
69209W        W40935  12.954   5.956  13.507
69210W        W40936  37.551  38.516  13.390
69211W        W40937  19.689  18.197   3.151
69212W        W40938  42.674  31.066   4.111
69213W        W40939  29.674   4.963  11.777
69214W        W40940  27.942  11.143   2.792
69215W        W40941  23.123   0.658   4.042
69216W        W40942  39.883   6.905  10.527
69217W        W40943  18.854   4.302  11.283
69218W        W40944  14.789  42.800   2.671
69219W        W40945  31.163  20.500   0.914
69220W        W40946  34.941  11.804   3.166
69221W        W40947  27.370  15.372   3.244
69222W        W40948  11.411   3.692  11.515
69223W        W40949   7.798  25.629  10.670
69224W        W40950  27.720  26.221   0.718
69225W        W40951  20.702  24.474  11.519
69226W        W40952  28.077  44.005   2.935
69227W        W40953  39.764   0.504   3.673
69228W        W40954  17.490   4.501  12.389
69229W        W40955  14.218  21.549   0.324
69230W        W40956   9.052   9.663  13.997
69231W        W40957  27.602  31.872  13.776
69232W        W40958  11.511  27.613  12.757
69233W        W40959  40.451  33.166   1.800
69234W        W40960  26.738  15.188   0.075
69235W        W40961  19.823  15.233   2.411
69236W        W40962  17.231  25.192  12.894
69237W        W40963  23.134   6.690  10.470
69238W        W40964  36.941  41.064  12.964
69239W        W40965   2.361   4.227   4.355
69240W        W40966  38.139  17.371  14.362
69241W        W40967  42.797  15.492   3.850
69242W        W40968  25.002  12.367  13.795
69243W        W40969  30.738  10.336   0.291
69244W        W40970   6.805  26.949   1.897
69245W        W40971  25.471  38.312  10.567
69246W        W40972   8.363  23.574  10.010
69247W        W40973  41.311  36.847   0.451
69248W        W40974  30.129  25.107  13.467
69249W        W40975  44.737  35.062   5.263
69250W        W40976  28.440  26.729  14.339
69251W        W40977  27.213  39.031  13.444
69252W        W40978   6.650  33.734  12.358
69253W        W40979  38.043  37.209   1.422
69254W        W40980   5.839  38.452   3.698
69255W        W40981   8.697  14.084  13.325
69256W        W40982  41.805  24.720  11.611
69257W        W40983  42.585  15.766  13.379
69258W        W40984  17.004   2.907   4.060
69259W        W40985  11.724   7.084   4.138
69260W        W40986  30.131  44.466   3.633
69261W        W40987  16.112  12.300  13.775
69262W        W40988  10.243   9.218   2.880
69263W        W40989  34.105  17.506   2.411
69264W        W40990  15.891  43.468  12.865
69265W        W40991   0.028  43.323  13.405
69266W        W40992  42.969   2.599   1.479
69267W        W40993  20.642  18.461  10.595
69268W        W40994  33.268  37.286  11.559
69269W        W40995  27.567  22.674   0.283
69270W        W40996   9.584  13.084  12.101
69271W        W40997  22.520  22.127  14.962
69272W        W40998  11.551   6.566   0.312
69273W        W40999  41.861   7.790   4.096
69274W        W41000  33.384   1.807  14.772
69275W        W41001  15.346  38.041   3.632
69276W        W41002  30.851   2.940  12.395
69277W        W41003  36.453   3.257   1.602
69278W        W41004  13.922  12.393   1.281
69279W        W41005  12.956  38.437   4.858
69280W        W41006   1.181  19.371   2.186
69281W        W41007   0.403  25.985  12.751
69282W        W41008  41.978   3.110   2.307
69283W        W41009   0.374  34.188  12.959
69284W        W41010   7.294   3.747   2.317
69285W        W41011   8.674  27.017   1.745
69286W        W41012  33.057  33.600   1.685
69287W        W41013  37.958  27.261   3.800
69288W        W41014  29.921  38.470   2.644
69289W        W41015  32.871   1.422  12.619
69290W        W41016  39.606  15.977   0.944
69291W        W41017  22.944  12.897   1.441
69292W        W41018  31.783   0.837   4.310
69293W        W41019  33.540  15.228  12.570
69294W        W41020  15.263  21.369   2.354
69295W        W41021   6.578   6.781  10.740
69296W        W41022  39.006  34.316  14.484
69297W        W41023  16.725  11.348   0.525
69298W        W41024  30.003  38.588   4.780
69299W        W41025  34.122  25.497   2.850
69300W        W41026   8.486   4.827   2.347
69301W        W41027   8.292   2.554  11.553
69302W        W41028  42.046  36.643  11.950
69303W        W41029   4.498   7.130  10.958
69304W        W41030  10.632  42.322   2.821
69305W        W41031  24.580  13.378  10.167
69306W        W41032  43.547  15.147  11.608
69307W        W41033   0.596   9.847   0.695
69308W        W41034  37.504  23.455  10.352
69309W        W41035  39.906  31.137   0.387
69310W        W41036  11.437   5.463   2.199
69311W        W41037   6.297  38.157  11.667
69312W        W41038   1.020   8.946   0.941
69313W        W41039  36.327  44.256  12.528
69314W        W41040  42.779   6.197  12.182
69315W        W41041   7.975  44.099   3.210
69316W        W41042  29.584   1.313   3.586
69317W        W41043   7.848  34.115  10.806
69318W        W41044  37.188  34.174   2.683
69319W        W41045  23.248  23.108  13.804
69320W        W41046  11.466   2.768  13.182
69321W        W41047  39.931  20.812   1.132
69322W        W41048  11.128   9.303  14.347
69323W        W41049  43.327   8.392   2.812
69324W        W41050   4.697   8.376   0.897
69325W        W41051  24.132   9.139  11.998
69326W        W41052  29.396  20.141  13.803
69327W        W41053   5.606  17.338   1.957
69328W        W41054  10.601  24.518  13.495
69329W        W41055  11.400   5.850   2.808
69330W        W41056  29.219  19.148   0.790
69331W        W41057  28.966  24.793  10.475
69332W        W41058  40.574  20.542  13.092
69333W        W41059   8.698   5.842   9.980
69334W        W41060  38.546  29.235  14.816
69335W        W41061  30.768  29.263   4.843
69336W        W41062  41.975  32.389   1.390
69337W        W41063  33.609  26.184   5.340
69338W        W41064  11.647  32.651  12.379
69339W        W41065  28.761   0.468   2.312
69340W        W41066   8.412  31.174   0.684
69341W        W41067  31.536  27.459   0.761
69342W        W41068  43.979  44.419  12.644
69343W        W41069  30.108  31.063   3.755
69344W        W41070  39.755  17.362   2.077
69345W        W41071   0.170   2.771  11.169
69346W        W41072  33.104  30.304  12.498
69347W        W41073  42.461  25.713  13.552
69348W        W41074  35.082  22.121  12.856
69349W        W41075  33.243  33.108   1.848
69350W        W41076  11.682  40.889   1.005
69351W        W41077   1.005  11.157  11.168
69352W        W41078  26.120  36.814  12.387
69353W        W41079  35.810   8.321   2.262
69354W        W41080  11.520   3.469  11.960
69355W        W41081  19.545  31.016   3.546
69356W        W41082   6.611  37.807  12.833
69357W        W41083  11.549  28.933   1.321
69358W        W41084  34.548   6.654   0.610
69359W        W41085  21.052   1.886   1.109
69360W        W41086  37.367  41.435  11.942
69361W        W41087  10.667   5.889  12.870
69362W        W41088  40.437  38.730  11.548
69363W        W41089   3.258  30.178  10.994
69364W        W41090  18.538  29.896  14.796
69365W        W41091  15.220  35.160   0.332
69366W        W41092  27.010  18.055  12.560
69367W        W41093  44.183  17.652   0.017
69368W        W41094  32.180  42.942   4.962
69369W        W41095  35.032   0.469  14.848
69370W        W41096  42.542  29.493   3.222
69371W        W41097  16.600  20.342   1.899
69372W        W41098  33.300  27.110  14.738
69373W        W41099  33.400   9.783  10.106
69374W        W41100   6.426   9.050  14.748
69375W        W41101  23.316  37.872   1.932
69376W        W41102  29.847   1.432  11.154
69377W        W41103  32.769   0.826   3.159
69378W        W41104  23.536  10.235  10.673
69379W        W41105  10.138   7.590  11.982
69380W        W41106   4.166  28.267   3.690
69381W        W41107  10.413  42.036   4.369
69382W        W41108  22.286  18.524  13.429
69383W        W41109  22.886  26.181   1.212
69384W        W41110  26.510  26.704  14.925
69385W        W41111  38.434   8.749   0.370
69386W        W41112  17.780   0.097   1.041
69387W        W41113   1.675  37.522   1.306
69388W        W41114  23.551  16.259   1.797
69389W        W41115  17.311  24.265  12.879
69390W        W41116   8.894   5.218  13.004
69391W        W41117  25.785  44.219   2.425
69392W        W41118  25.139  43.976   0.464
69393W        W41119  18.238   3.212   2.439
69394W        W41120  25.791  24.038  11.729
69395W        W41121   3.129   2.682  13.381
69396W        W41122   8.905   3.862  11.132
69397W        W41123  14.846  42.862  12.420
69398W        W41124   9.331   2.921  13.693
69399W        W41125  26.028   1.390   3.085
69400W        W41126  25.624  36.345   0.456
69401W        W41127  13.067  36.101  13.481
69402W        W41128  13.798  14.260  14.086
69403W        W41129  40.750  10.717  12.797
69404W        W41130  27.144  33.543  12.054
69405W        W41131  21.203  28.507  10.209
69406W        W41132  29.069  29.224  13.734
69407W        W41133  35.088   9.746   1.234
69408W        W41134  22.797  42.012  14.963
69409W        W41135   8.008   8.749   2.093
69410W        W41136  36.241  24.181   2.716
69411W        W41137  35.813   3.226   3.659
69412W        W41138  17.193  41.317   4.184
69413W        W41139  13.225   7.220  12.429
69414W        W41140  29.117   2.226   2.965
69415W        W41141  23.146  20.212   4.839
69416W        W41142   9.063   6.691   3.241
69417W        W41143  21.917   9.166   0.857
69418W        W41144  44.551   9.433   1.274
69419W        W41145  23.657   5.741  10.758
69420W        W41146  35.146  44.873   1.236
69421W        W41147  15.712  23.186   0.063
69422W        W41148  31.062  42.923   4.195
69423W        W41149  34.629  33.941   4.603
69424W        W41150   3.636  14.058   0.020
69425W        W41151   9.329  41.489   1.375
69426W        W41152   9.664  41.429   4.630
69427W        W41153   7.672  13.574   4.225
69428W        W41154  19.990   2.239   4.278
69429W        W41155  33.055  16.717  11.586
69430W        W41156  34.810  44.261  14.525
69431W        W41157  33.435  29.943  12.374
69432W        W41158  29.986  34.612   4.640
69433W        W41159  34.450  35.910   2.808
69434W        W41160  10.725  26.220  12.587
69435W        W41161  21.383  10.414   3.647
69436W        W41162  34.078  14.858   1.894
69437W        W41163   5.799   3.500   2.433
69438W        W41164  33.757  44.312  11.771
69439W        W41165  35.910   8.808   2.909
69440W        W41166  15.652   7.265   4.541
69441W        W41167  31.793  14.443   2.463
69442W        W41168   8.848   9.048  11.172
69443W        W41169  41.300  40.774   0.861
69444W        W41170  26.916   9.919   4.719
69445W        W41171  28.394  28.493   2.350
69446W        W41172  23.098  40.755  11.798
69447W        W41173  25.337  37.448  11.101
69448W        W41174   5.335  29.640   1.332
69449W        W41175  22.017   6.403  11.090
69450W        W41176  15.210  10.778  13.374
69451W        W41177  30.151  37.254  12.827
69452W        W41178   8.419  19.658  11.027
69453W        W41179  34.074  14.065   3.322
69454W        W41180  17.567  19.948   0.820
69455W        W41181  12.056  23.765  13.767
69456W        W41182  26.360  14.847   4.380
69457W        W41183   4.712  26.182   4.577
69458W        W41184  11.746   0.802   3.636
69459W        W41185  15.281  27.397   3.327
69460W        W41186  29.860  16.597   1.246
69461W        W41187  11.564  17.767  11.720
69462W        W41188  29.402  43.749  12.346
69463W        W41189   8.618   0.942  13.530
69464W        W41190  28.360  32.969   5.123
69465W        W41191  16.318  26.966  12.857
69466W        W41192  25.982  23.127   2.148
69467W        W41193  43.332  43.362   0.715
69468W        W41194  40.419   1.739   1.449
69469W        W41195   8.179  29.007   1.163
69470W        W41196   2.475  11.386  14.617
69471W        W41197  41.156  32.630  11.558
69472W        W41198  17.663  37.822   5.298
69473W        W41199  30.893  26.967  14.698
69474W        W41200   6.904  12.960   1.272
69475W        W41201  17.818  37.512   1.925
69476W        W41202  23.671  18.479   2.370
69477W        W41203  15.238  16.267  14.092
69478W        W41204  30.466  17.755  14.495
69479W        W41205  39.293  15.595   2.212
69480W        W41206  11.830  22.092   0.491
69481W        W41207  43.801  21.196   2.624
69482W        W41208  17.037   2.541  11.631
69483W        W41209  14.814   1.239  14.828
69484W        W41210  39.811  27.962  12.167
69485W        W41211  26.639  36.811  11.070
69486W        W41212  30.059  42.464   5.467
69487W        W41213   6.595  41.318   2.896
69488W        W41214  10.852  35.896  11.089
69489W        W41215  11.762  15.526  13.301
69490W        W41216   1.706  41.379  11.585
69491W        W41217  41.058  29.403   1.749
69492W        W41218   9.664  11.687   0.374
69493W        W41219   9.285  41.270   2.923
69494W        W41220   7.680  16.330   5.005
69495W        W41221   5.335  34.837  14.974
69496W        W41222  31.527  25.938  10.644
69497W        W41223  27.334  23.564  13.018
69498W        W41224  23.100  35.269  12.872
69499W        W41225  12.893  30.381   0.409
69500W        W41226   9.654   7.228  13.143
69501W        W41227  41.055  16.784   4.922
69502W        W41228   7.013  24.592  14.352
69503W        W41229  40.461  11.515  11.962
69504W        W41230  38.348  44.978   3.845
69505W        W41231  28.735  30.646   0.464
69506W        W41232  36.341  18.464   2.373
69507W        W41233   4.034  13.070   3.299
69508W        W41234  43.212   5.872  12.012
69509W        W41235  38.464   6.296  14.912
69510W        W41236  14.792   9.208   4.626
69511W        W41237  37.830  41.094   3.794
69512W        W41238  21.032  40.322  12.408
69513W        W41239   6.181  30.687  12.046
69514W        W41240  21.137  35.440   4.655
69515W        W41241  20.742  40.891  10.652
69516W        W41242  22.101  14.793  14.015
69517W        W41243  18.472   8.386  11.094
69518W        W41244  30.433  24.142   4.985
69519W        W41245  30.568  14.853   4.439
69520W        W41246  14.085  16.171   3.293
69521W        W41247  27.878  12.408  12.441
69522W        W41248   4.272  28.151  14.989
69523W        W41249  12.572  30.595  12.519
69524W        W41250  16.794  28.095   5.062
69525W        W41251  13.403  44.909  14.402
69526W        W41252  11.810  28.423  13.385
69527W        W41253   1.128  42.781  10.369
69528W        W41254  40.779  17.280  10.786
69529W        W41255  32.552  15.267   0.295
69530W        W41256  22.804  13.284   1.768
69531W        W41257  32.215  20.513  14.830
69532W        W41258  25.961  21.737  12.433
69533W        W41259   5.850   9.179  12.066
69534W        W41260  41.957  39.302   4.622
69535W        W41261  27.395  24.538  12.965
69536W        W41262  29.663  34.987   2.629
69537W        W41263  20.257  44.929   1.248
69538W        W41264   8.917  16.279   1.431
69539W        W41265  14.033  11.641  13.421
69540W        W41266  19.805  16.817   1.442
69541W        W41267  37.366  20.765   1.681
69542W        W41268  19.513   0.155   4.195
69543W        W41269  44.677  24.579  12.084
69544W        W41270  26.628   2.978  10.799
69545W        W41271  29.541  11.794   3.911
69546W        W41272  21.029  12.126  14.709
69547W        W41273   9.819  41.764  13.093
69548W        W41274  29.675  19.313  12.007
69549W        W41275  34.695  29.572   3.232
69550W        W41276  17.210  27.459   0.755
69551W        W41277   9.231  26.644  11.820
69552W        W41278  35.145   6.398  14.283
69553W        W41279  12.905   7.397   2.857
69554W        W41280  27.440  28.844   2.271
69555W        W41281  25.239  32.093  11.537
69556W        W41282  21.284  13.678  11.211
69557W        W41283  28.634   9.661   2.906
69558W        W41284  34.322   4.302  10.907
69559W        W41285  13.563  40.224   3.267
69560W        W41286   6.626  22.670   0.954
69561W        W41287  29.660  23.661   1.198
69562W        W41288  24.954  36.355   4.801
69563W        W41289  10.322  38.883   0.273
69564W        W41290  22.305  24.728   3.861
69565W        W41291  10.307  36.781   2.655
69566W        W41292   7.885  24.714   4.134
69567W        W41293  30.690  10.624   2.451
69568W        W41294  10.475  43.841  12.223
69569W        W41295   9.161   0.911  12.451
69570W        W41296  35.840  15.748  12.883
69571W        W41297  22.686   6.348  10.298
69572W        W41298  23.688  26.069  13.930
69573W        W41299  36.848   3.868   2.716
69574W        W41300  17.218  31.756  11.118
69575W        W41301  10.502  37.873   0.939
69576W        W41302   4.247  16.820  11.928
69577W        W41303  44.862  21.966   3.073
69578W        W41304   8.770   8.907   4.300
69579W        W41305  11.207  36.864   0.787
69580W        W41306  44.904  21.689  13.019
69581W        W41307  36.414  21.474   4.146
69582W        W41308  38.588  44.007  13.027
69583W        W41309  32.952  39.529  13.029
69584W        W41310  17.745  30.009   2.271
69585W        W41311  16.701  21.094  10.173
69586W        W41312   9.702  38.522  11.625
69587W        W41313  12.122   3.941  13.797
69588W        W41314  43.935  18.046   1.245
69589W        W41315  11.530  19.053  11.554
69590W        W41316   5.804  28.630   3.547
69591W        W41317  12.043   8.122  14.122
69592W        W41318   4.716  26.026  10.729
69593W        W41319  31.481   3.396   4.166
69594W        W41320  33.165  27.685  10.628
69595W        W41321   0.292  25.354   0.555
69596W        W41322  43.998  26.018   2.676
69597W        W41323  35.354   8.681  11.900
69598W        W41324  40.741   6.679   1.169
69599W        W41325  13.573   1.400   0.944
69600W        W41326  19.062   1.243   0.628
69601W        W41327  32.203  36.429   4.727
69602W        W41328  20.728  21.854   4.032
69603W        W41329  18.730  38.416   0.135
69604W        W41330  37.271   2.469   0.519
69605W        W41331   8.689  25.916  13.552
69606W        W41332  38.562   3.059  12.105
69607W        W41333  39.463  31.740   1.257
69608W        W41334  38.809  43.377  11.622
69609W        W41335  30.402  17.801   0.518
69610W        W41336   8.739  21.824   0.575
69611W        W41337   8.213   6.411   1.749
69612W        W41338  21.139  12.572   5.480
69613W        W41339  33.305  24.105  14.352
69614W        W41340  24.381  28.396   1.267
69615W        W41341  17.798   5.969  14.504
69616W        W41342  13.555  41.995  10.809
69617W        W41343  14.136  32.890   2.667
69618W        W41344  31.972  30.296   1.735
69619W        W41345   9.853  17.917  12.401
69620W        W41346   1.942  29.399  11.106
69621W        W41347  39.429  20.083  14.811
69622W        W41348  39.944  28.443  12.041
69623W        W41349   0.493  41.001   1.355
69624W        W41350  31.673  36.054  13.561
69625W        W41351  23.251   6.001   0.437
69626W        W41352  43.988  30.002  12.578
69627W        W41353  37.942   2.271  11.966
69628W        W41354  18.708  13.110  13.847
69629W        W41355  10.402  44.887  14.127
69630W        W41356  41.627  23.080   3.343
69631W        W41357  38.817  21.824  13.826
69632W        W41358  34.477  14.271   2.517
69633W        W41359   2.302  23.619   0.390
69634W        W41360  16.607  21.263   1.070
69635W        W41361   9.216  43.830  11.514
69636W        W41362  15.496   6.378  11.015
69637W        W41363  19.822  24.255   0.439
69638W        W41364  27.660   7.932  13.842
69639W        W41365  40.838  11.783  13.986
69640W        W41366  17.136  13.704   1.454
69641W        W41367  43.837  10.254  13.472
69642W        W41368  26.871   5.552   2.789
69643W        W41369   4.270  22.658   1.034
69644W        W41370   1.324  35.413  11.146
69645W        W41371  42.778  32.384   4.913
69646W        W41372  27.988  20.233  14.786
69647W        W41373   5.559  38.063   2.908
69648W        W41374  10.786  21.984  13.295
69649W        W41375  14.935   9.881   4.177
69650W        W41376   7.630  26.107   2.479
69651W        W41377  24.256  37.629   3.166
69652W        W41378   9.295  28.494  13.462
69653W        W41379  11.315  43.445   4.550
69654W        W41380  31.006  43.825   1.827
69655W        W41381  15.711  19.089   1.228
69656W        W41382   3.828  34.785  10.730
69657W        W41383  28.967  14.430   2.706
69658W        W41384  31.322   8.761  12.934
69659W        W41385  33.270  20.164   4.804
69660W        W41386   0.907  33.615  10.643
69661W        W41387  20.263   4.217   1.768
69662W        W41388  41.504  41.681   0.347
69663W        W41389   5.702  25.163   4.623
69664W        W41390   5.466   8.702   1.388
69665W        W41391  32.097   8.770   2.155
69666W        W41392  19.426  25.979   1.855
69667W        W41393  23.340  18.434   3.549
69668W        W41394  20.043   7.209   4.132
69669W        W41395   4.482  31.515  14.945
69670W        W41396   0.726  35.333  14.264
69671W        W41397   0.888   1.345  12.109
69672W        W41398  31.116   0.063   2.090
69673W        W41399  39.829  31.419  13.007
69674W        W41400  10.933  17.742   3.716
69675W        W41401  39.497   5.377   1.529
69676W        W41402  19.218  41.371  10.687
69677W        W41403  37.181  19.559   3.809
69678W        W41404  12.233  39.455  10.873
69679W        W41405  30.030  18.807  12.589
69680W        W41406  11.703  44.374  12.616
69681W        W41407   8.308   3.313   0.373
69682W        W41408  44.114   0.366  12.877
69683W        W41409  19.173  37.894   4.595
69684W        W41410  14.047  29.145   2.212
69685W        W41411  22.491  35.693   4.428
69686W        W41412  23.291  28.465   0.917
69687W        W41413  32.835  30.093   4.067
69688W        W41414  12.234  33.440  11.416
69689W        W41415  11.293   2.858   2.373
69690W        W41416  29.797  43.339  10.756
69691W        W41417  11.117  12.408   2.881
69692W        W41418  42.450   6.188  10.883
69693W        W41419  25.198  31.991  12.029
69694W        W41420  42.294  36.139  12.557
69695W        W41421  19.751  21.769   0.423
69696W        W41422  10.618  36.096  13.386
69697W        W41423   5.915   9.406  12.909
69698W        W41424  20.209  29.624   1.205
69699W        W41425  16.273  37.200   3.858
69700W        W41426  10.238  20.961  14.853
69701W        W41427  11.097  41.320   1.833
69702W        W41428   6.805   3.251  11.519
69703W        W41429   5.274  32.918  11.974
69704W        W41430  31.068  15.127   0.941
69705W        W41431  38.724  19.618  11.493
69706W        W41432  28.070   8.269   2.107
69707W        W41433  39.828   7.837   0.744
69708W        W41434  22.466  43.414   0.375
69709W        W41435  30.375  38.053  11.192
69710W        W41436  29.145   7.063  10.764
69711W        W41437   4.676  20.604   0.883
69712W        W41438  23.507  37.686   3.750
69713W        W41439  10.915   7.321   4.516
69714W        W41440  35.808   5.159   3.149
69715W        W41441  27.412  10.730  11.038
69716W        W41442   1.523   3.796  12.983
69717W        W41443   3.973  44.669   1.351
69718W        W41444  27.017  44.779   1.868
69719W        W41445   1.793  30.178  12.800
69720W        W41446  23.676  14.359  11.468
69721W        W41447  40.034  31.428   2.953
69722W        W41448   6.998  33.987   2.840
69723W        W41449  16.149  10.566   4.622
69724W        W41450  22.326   4.766   0.225
69725W        W41451  20.516  16.756  13.291
69726W        W41452  26.187   6.442   2.974
69727W        W41453   4.298   2.431  10.572
69728W        W41454  32.881  28.898  14.950
69729W        W41455  12.807  27.931   1.005
69730W        W41456  30.619  11.210  12.629
69731W        W41457  27.539  22.477  14.002
69732W        W41458   6.730  20.761  14.930
69733W        W41459  26.644  43.550   0.928
69734W        W41460  41.904   4.776  14.427
69735W        W41461  32.367  44.736   2.354
69736W        W41462  42.635  11.741   5.011
69737W        W41463  20.549  15.228  13.333
69738W        W41464  21.017  31.543   3.283
69739W        W41465  25.442  30.640  13.069
69740W        W41466   6.600  36.499  12.891
69741W        W41467  40.525  35.892  12.305
69742W        W41468   8.884  15.371  14.483
69743W        W41469  25.400  39.161  10.235
69744W        W41470   8.710  15.576   4.637
69745W        W41471  44.097   6.453   3.656
69746W        W41472  32.518  20.767   2.875
69747W        W41473   2.372   6.813   3.278
69748W        W41474  33.329  18.317  12.488
69749W        W41475   7.895   0.044  12.861
69750W        W41476  18.684   2.983  13.061
69751W        W41477   9.201  25.375   3.848
69752W        W41478  23.636  42.610  13.337
69753W        W41479  26.569  10.787   2.735
69754W        W41480  16.709  43.378   1.073
69755W        W41481  31.074  42.347  14.891
69756W        W41482  17.564  41.403  11.123
69757W        W41483  17.613  18.107  14.849
69758W        W41484  25.726  36.840   4.665
69759W        W41485  31.792  30.696  14.827
69760W        W41486  38.226  13.304   0.001
69761W        W41487  43.447  42.336  13.743
69762W        W41488   4.808  43.930  14.558
69763W        W41489   7.205  35.921  14.880
69764W        W41490  27.967  19.286   4.189
69765W        W41491   1.496  13.495   0.251
69766W        W41492   3.890  31.958  13.813
69767W        W41493  28.375   1.147   4.173
69768W        W41494  25.908  39.741   4.860
69769W        W41495  30.160   4.662  12.930
69770W        W41496  28.430  41.564   3.381
69771W        W41497  11.723  11.771   3.400
69772W        W41498  11.590  20.041   4.356
69773W        W41499  22.136  32.059   0.397
69774W        W41500  19.900  22.813   0.785
69775W        W41501  16.407  19.789   0.700
69776W        W41502  25.463  40.050  11.216
69777W        W41503  23.481  41.492   0.780
69778W        W41504  12.650  12.872   0.409
69779W        W41505  30.023  11.269  14.343
69780W        W41506  33.876  39.394  11.881
69781W        W41507   7.022   4.750  12.094
69782W        W41508  22.289  18.739  12.018
69783W        W41509  15.182  18.121  14.914
69784W        W41510  11.259  42.832   1.215
69785W        W41511  29.000  36.494   1.834
69786W        W41512  16.767  39.289   4.358
69787W        W41513  21.003  41.834  14.389
69788W        W41514  31.555  44.097   4.998
69789W        W41515  37.044  35.816   0.911
69790W        W41516  35.304  13.200  13.912
69791W        W41517  13.250  29.149   1.772
69792W        W41518  19.020  29.345   3.858
69793W        W41519  14.645   6.483   2.211
69794W        W41520   3.363  31.445  10.707
69795W        W41521  23.112  26.596   1.420
69796W        W41522  30.556   4.180  11.112
69797W        W41523  36.306  30.439   0.770
69798W        W41524  32.407   1.774   1.209
69799W        W41525  33.466  40.448  13.777
69800W        W41526  31.972   5.335   0.491
69801W        W41527  14.392  29.092  11.064
69802W        W41528  34.591  11.721   0.735
69803W        W41529  34.646  34.113   2.750
69804W        W41530  20.247  37.343  11.922
69805W        W41531  35.823   3.660  15.000
69806W        W41532  23.746  15.381   0.295
69807W        W41533  30.839  43.090   0.307
69808W        W41534  22.273  15.149   4.530
69809W        W41535  16.743   0.427  13.018
69810W        W41536   7.148  15.195  11.496
69811W        W41537  35.951  19.428   3.307
69812W        W41538   4.384  33.344   1.916
69813W        W41539  22.175  43.871   4.140
69814W        W41540   2.759  28.863  10.488
69815W        W41541  32.663  18.510  11.649
69816W        W41542  38.285  12.649   2.377
69817W        W41543   0.446  37.009   4.613
69818W        W41544   8.898  23.802  12.909
69819W        W41545  17.523  37.049   2.628
69820W        W41546  42.040  12.069   3.164
69821W        W41547  37.888  41.808   0.062
69822W        W41548   6.933   0.089   4.213
69823W        W41549   1.704  14.280  12.986
69824W        W41550  39.108   8.295  14.888
69825W        W41551   3.549  39.957   2.669
69826W        W41552  14.124  14.097  11.255
69827W        W41553   5.348  41.568  13.474
69828W        W41554  10.349  38.268  13.899
69829W        W41555  10.857  10.722   0.553
69830W        W41556   9.584   6.670   3.239
69831W        W41557  12.874  27.539  10.837
69832W        W41558  24.813  18.004   2.385
69833W        W41559  31.884  37.492   2.436
69834W        W41560  23.334   5.693   3.821
69835W        W41561  40.033  10.876  13.866
69836W        W41562   0.758  17.138   0.745
69837W        W41563  42.238  37.162  13.039
69838W        W41564  31.452  11.905   3.297
69839W        W41565  33.940  39.143  10.917
69840W        W41566  29.475   4.183   1.164
69841W        W41567  39.272   1.926   0.921
69842W        W41568  31.136  44.750  11.091
69843W        W41569  10.325  33.920   2.334
69844W        W41570  35.716  42.303   2.433
69845W        W41571  25.592  17.074   1.167
69846W        W41572  40.413  38.285   0.750
69847W        W41573  13.812  15.505   3.756
69848W        W41574  37.386  23.468  14.832
69849W        W41575  14.640  10.815  12.510
69850W        W41576  43.040   9.220  13.524
69851W        W41577  23.073  22.617  13.780
69852W        W41578  34.147   2.175   4.166
69853W        W41579  23.775  20.723  10.733
69854W        W41580  27.977   3.698   4.625
69855W        W41581  31.863  41.495  12.377
69856W        W41582  34.595  34.932   3.771
69857W        W41583   3.683   9.345   1.401
69858W        W41584  39.953  30.641   0.466
69859W        W41585  10.105  35.939  13.515
69860W        W41586  26.097  10.700   1.063
69861W        W41587  16.801   7.518   4.653
69862W        W41588   5.450  38.374  14.866
69863W        W41589   0.909  25.136  14.956
69864W        W41590   8.581   5.882  11.905
69865W        W41591  44.424  31.006  11.238
69866W        W41592  24.342  43.894   1.169
69867W        W41593  40.917  44.361   3.984
69868W        W41594  36.590  40.844  12.466
69869W        W41595   6.780  31.066  10.905
69870W        W41596  15.341  17.324   0.593
69871W        W41597  12.205  14.762  14.223
69872W        W41598  40.374  28.395  14.314
69873W        W41599  44.990  21.160   4.126
69874W        W41600  27.625  39.273  14.596
69875W        W41601  43.560   3.247   0.901
69876W        W41602  39.568   0.864   3.132
69877W        W41603  37.884  33.846   4.200
69878W        W41604   7.832  42.800   4.985
69879W        W41605  27.655  41.411  12.837
69880W        W41606  11.698   1.027  11.018
69881W        W41607  14.307  22.536   0.457
69882W        W41608   2.323  32.885   0.366
69883W        W41609  32.539  11.313  10.495
69884W        W41610   7.966  11.282   2.744
69885W        W41611  34.346  13.103  12.508
69886W        W41612  14.844  32.505   3.253
69887W        W41613  42.866   8.218  11.913
69888W        W41614  28.904  25.228  10.750
69889W        W41615  16.799   2.416   0.333
69890W        W41616  10.328  33.061   2.685
69891W        W41617  41.682  22.751  11.046
69892W        W41618  18.161  28.771  10.719
69893W        W41619  43.254  15.374   3.548
69894W        W41620  16.228   0.753   2.777
69895W        W41621  11.940  33.591   4.057
69896W        W41622   5.191  37.254  14.352
69897W        W41623  29.897  29.511  14.299
69898W        W41624  35.369  38.028   1.406
69899W        W41625  22.175   6.381  14.971
69900W        W41626  20.670  11.383   4.187
69901W        W41627  32.612  18.099  11.966
69902W        W41628  10.876   9.838  12.347
69903W        W41629  33.576  15.580  14.498
69904W        W41630   7.764  44.387  14.855
69905W        W41631  17.613  39.680  12.384
69906W        W41632  32.398  19.709   1.623
69907W        W41633  20.906  41.142  12.026
69908W        W41634   0.680   6.435   3.131
69909W        W41635  35.577  16.764  14.365
69910W        W41636  17.696  34.480  12.903
69911W        W41637  32.098  31.254  11.227
69912W        W41638  29.506  17.417   3.260
69913W        W41639  23.958   5.865  14.890
69914W        W41640  27.155  15.313   4.952
69915W        W41641  12.593  29.091   1.448
69916W        W41642  27.269   4.802  14.947
69917W        W41643  31.791  19.051  14.883
69918W        W41644   3.469  33.308   4.261
69919W        W41645   0.692  11.277  14.424
69920W        W41646  35.233  41.837  12.999
69921W        W41647   6.927  24.264  12.121
69922W        W41648  23.939  38.626   3.163
69923W        W41649  33.111  40.917   3.754
69924W        W41650   6.385  40.368   0.809
69925W        W41651   8.696  24.706  12.722
69926W        W41652   0.082  22.771   4.520
69927W        W41653  27.592  17.268   1.478
69928W        W41654  17.665  33.519  14.324
69929W        W41655  21.142   4.298   1.486
69930W        W41656  31.689  22.593  11.071
69931W        W41657  17.047   3.020  14.023
69932W        W41658  29.747  16.028  12.083
69933W        W41659  43.088  13.839  11.007
69934W        W41660  28.186  23.717   2.410
69935W        W41661   1.480  25.023   2.726
69936W        W41662  14.051  10.177  10.719
69937W        W41663  21.003  17.736   3.389
69938W        W41664  25.501   2.293   0.236
69939W        W41665  30.571  23.285   0.433
69940W        W41666  33.825  22.205  11.026
69941W        W41667  28.367  38.478   4.037
69942W        W41668  39.999  36.093  13.854
69943W        W41669  13.768   5.316  10.908
69944W        W41670  11.365  23.645   2.703
69945W        W41671   3.246  41.367  11.393
69946W        W41672  27.103  16.548   3.327
69947W        W41673  13.756   6.448  13.791
69948W        W41674   5.546  34.638  11.074
69949W        W41675   3.806  24.679   4.828
69950W        W41676  31.205   0.465  13.102
69951W        W41677  18.761   1.374  13.913
69952W        W41678  21.904  23.992   2.323
69953W        W41679  31.192  37.635  14.807
69954W        W41680  27.035  17.938   0.858
69955W        W41681   5.325  12.697   0.871
69956W        W41682  31.351  14.291   4.682
69957W        W41683   8.151  44.026   2.198
69958W        W41684   5.361  22.517  13.734
69959W        W41685   3.645  41.816  10.655
69960W        W41686  42.244  31.874   2.348
69961W        W41687  39.496  13.223  13.654
69962W        W41688  25.747   2.515  14.163
69963W        W41689  28.453  38.966   2.146
69964W        W41690  19.225  18.318  12.136
69965W        W41691  21.107  22.502   0.088
69966W        W41692   6.313   3.843   1.266
69967W        W41693  18.774  13.186   1.777
69968W        W41694  30.979  16.673  12.975
69969W        W41695  16.020   2.997   4.010
69970W        W41696  19.866  12.861   5.113
69971W        W41697  14.228  43.962  13.378
69972W        W41698  13.612   7.273  14.388
69973W        W41699  11.258  14.590  11.954
69974W        W41700   2.420  26.572   2.879
69975W        W41701  36.651  22.636   1.252
69976W        W41702  17.876  39.629  10.227
69977W        W41703   4.752  22.981  10.690
69978W        W41704  40.376   0.485   0.061
69979W        W41705  33.158   7.649  14.784
69980W        W41706   0.973  28.607  13.780
69981W        W41707  24.737  16.331  12.557
69982W        W41708  34.372  33.603  10.991
69983W        W41709   1.883  16.160   3.173
69984W        W41710  25.144  38.306  13.939
69985W        W41711  22.200  39.930   4.873
69986W        W41712  17.020   4.136  14.966
69987W        W41713   6.747  35.552  11.613
69988W        W41714   8.217  39.779   4.492
69989W        W41715  42.987   8.845   1.031
69990W        W41716   1.541   0.903   3.673
69991W        W41717  16.040  10.581   1.875
69992W        W41718  34.337  33.530  12.207
69993W        W41719  33.661  21.124  11.573
69994W        W41720  40.086  15.373  11.608
69995W        W41721  24.005  19.591  13.519
69996W        W41722  19.727  38.047  10.428
69997W        W41723  35.426  40.375  12.912
69998W        W41724  18.823  15.338  10.619
69999W        W41725  43.521  21.500  12.887
70000W        W41726  38.449  17.385  12.427
70001W        W41727  16.824   9.657   1.848
70002W        W41728   9.425  37.891   1.787
70003W        W41729   8.368  28.203   3.609
70004W        W41730  18.180  10.612   3.211
70005W        W41731  19.819  13.141   1.674
70006W        W41732   0.566  38.513   0.889
70007W        W41733  43.299   1.982  14.522
70008W        W41734  15.278  39.816  11.477
70009W        W41735  25.077  20.164  12.955
70010W        W41736  26.964   9.909  14.059
70011W        W41737  24.717  26.389  14.478
70012W        W41738  39.018  26.984   0.408
70013W        W41739   2.220   0.472   3.278
70014W        W41740   9.694  29.527   1.513
70015W        W41741  13.152  12.891   0.521
70016W        W41742   9.812   7.924   2.988
70017W        W41743  26.015  15.773  14.465
70018W        W41744  40.252   7.797  13.132
70019W        W41745  21.220  17.175   0.425
70020W        W41746  22.639  19.238   0.049
70021W        W41747  15.107  11.181  14.020
70022W        W41748  13.387  43.919   2.784
70023W        W41749  33.091  20.739  13.530
70024W        W41750   3.110  31.156   3.829
70025W        W41751  31.023  39.243   4.262
70026W        W41752  14.342  24.916  13.282
70027W        W41753   8.185  36.865  14.976
70028W        W41754  10.092  37.468   4.597
70029W        W41755   9.378  20.147  13.346
70030W        W41756  30.123   4.273  11.338
70031W        W41757  12.343  23.100   2.601
70032W        W41758  14.414  27.071   4.708
70033W        W41759  30.611  36.914  13.070
70034W        W41760  20.183  40.079   0.804
70035W        W41761  16.292   2.454  12.869
70036W        W41762  39.454  24.679   2.464
70037W        W41763  24.567  41.229  13.088
70038W        W41764   0.424   1.391   0.969
70039W        W41765  34.872  20.164  11.470
70040W        W41766  16.345  14.424   4.222
70041W        W41767   9.078  43.351  11.614
70042W        W41768  39.843   7.633  13.405
70043W        W41769   2.702  43.642   0.867
70044W        W41770  44.486  15.262   3.743
70045W        W41771   9.938  15.990   3.276
70046W        W41772  23.739  32.423  12.530
70047W        W41773  28.047  10.188   0.948
70048W        W41774  44.842   6.151  14.272
70049W        W41775  15.335  31.818  12.451
70050W        W41776  21.256  24.129  13.901
70051W        W41777  10.637  32.879   0.636
70052W        W41778  16.423   1.764   0.184
70053W        W41779  38.737  40.143   2.651
70054W        W41780  22.788  40.336  11.262
70055W        W41781   1.035  29.557  11.796
70056W        W41782   6.572  19.018  13.255
70057W        W41783  41.403  32.111   3.857
70058W        W41784  12.090   4.727  14.465
70059W        W41785  44.044  25.406  11.553
70060W        W41786  43.221   2.148   3.181
70061W        W41787  43.423  21.190  10.268
70062W        W41788  42.795   0.909  13.899
70063W        W41789  21.006  44.894  12.825
70064W        W41790  37.118  13.694   2.745
70065W        W41791   9.829  17.202  11.096
70066W        W41792  41.589   1.977  13.443
70067W        W41793  26.161   0.793   1.869
70068W        W41794  36.324  21.774  11.599
70069W        W41795  18.202  14.347   4.745
70070W        W41796  22.514   6.286   1.545
70071W        W41797   6.865  24.478   0.716
70072W        W41798  36.514  40.317   2.251
70073W        W41799  14.252  31.698   3.897
70074W        W41800   8.752   7.727  12.084
70075W        W41801  36.758  28.308  12.587
70076W        W41802  13.816  22.860  13.405
70077W        W41803  21.821  41.804   1.760
70078W        W41804   6.483  24.658   0.287
70079W        W41805  31.720   5.116   2.428
70080W        W41806   5.185  44.283   0.045
70081W        W41807  24.503  22.065  14.366
70082W        W41808  17.348   0.392  11.865
70083W        W41809  24.475  44.423  11.048
70084W        W41810  14.092   5.167  13.883
70085W        W41811  36.992  17.329  13.368
70086W        W41812  35.109  38.885   4.397
70087W        W41813  35.170  11.327  13.444
70088W        W41814  18.830  31.689   3.513
70089W        W41815  24.711  37.422  14.827
70090W        W41816   9.526   1.853   1.991
70091W        W41817  20.114  28.981   1.115
70092W        W41818  18.610  20.599   3.628
70093W        W41819  24.504   2.197   2.162
70094W        W41820   0.287   1.340  13.962
70095W        W41821  29.074  18.762   2.636
70096W        W41822  10.424  26.604  11.072
70097W        W41823  28.042  24.358  13.034
70098W        W41824  27.108  17.310  11.921
70099W        W41825  17.734  21.003  10.439
70100W        W41826  29.395  17.781   0.961
70101W        W41827  25.303  24.147  11.625
70102W        W41828  19.173   2.175   1.445
70103W        W41829  26.496  41.520  14.275
70104W        W41830  12.516   0.793  11.337
70105W        W41831  32.377  15.317   1.738
70106W        W41832  14.494  29.693   4.419
70107W        W41833  35.957  29.603  14.436
70108W        W41834  33.431  12.208  12.294
70109W        W41835   3.844  34.476   3.985
70110W        W41836  30.826  44.805   5.277
70111W        W41837  25.894  12.658   4.677
70112W        W41838  32.508   9.800   4.077
70113W        W41839   4.829  42.088   0.911
70114W        W41840  13.517  41.948   2.763
70115W        W41841   8.389  33.621   3.218
70116W        W41842  11.844  22.108   3.650
70117W        W41843  41.713   7.468  10.763
70118W        W41844   5.017   5.761   9.968
70119W        W41845  39.035  33.672   5.221
70120W        W41846  35.310   7.400   4.585
70121W        W41847  22.508   4.049  12.144
70122W        W41848  41.968   6.660  11.586
70123W        W41849  38.760  43.825   3.399
70124W        W41850   4.045  31.420   1.264
70125W        W41851  18.508  30.042   1.426
70126W        W41852  29.887  13.299  12.610
70127W        W41853  43.995   4.819  13.258
70128W        W41854  13.141  41.962  11.178
70129W        W41855   7.453   4.737  11.856
70130W        W41856  21.727   7.269   4.227
70131W        W41857  10.877  33.521  12.840
70132W        W41858  23.962  28.999  10.793
70133W        W41859   1.375   7.139   0.829
70134W        W41860   6.500   2.456   3.870
70135W        W41861  29.120   9.796  13.372
70136W        W41862  27.913   5.276  14.466
70137W        W41863  14.315  19.679   3.686
70138W        W41864  34.796  44.198   4.972
70139W        W41865  41.309  41.690  11.604
70140W        W41866  27.130  14.526   2.730
70141W        W41867  14.351  39.948   4.628
70142W        W41868   3.461  20.924   5.081
70143W        W41869   0.536  34.116  11.878
70144W        W41870  35.643  31.883  12.548
70145W        W41871  16.507  15.281   2.746
70146W        W41872   8.918  13.160  13.062
70147W        W41873   1.855  41.528   1.639
70148W        W41874  31.235  43.549  11.572
70149W        W41875  13.305  16.504   4.107
70150W        W41876  13.703  32.925  13.222
70151W        W41877  14.688  27.424  13.437
70152W        W41878  13.467  28.101  14.806
70153W        W41879  29.589  19.648  14.106
70154W        W41880  12.246  31.011  13.450
70155W        W41881  14.088  44.489  13.437
70156W        W41882  23.446  41.371   4.614
70157W        W41883  23.501  29.894  13.597
70158W        W41884  24.196  32.204   3.679
70159W        W41885  29.690  34.508  12.405
70160W        W41886  29.317  38.787  13.878
70161W        W41887  35.844  25.523   1.794
70162W        W41888  19.658  27.432   3.174
70163W        W41889   8.647  33.392  14.876
70164W        W41890  23.068  42.788   0.669
70165W        W41891  18.777  25.554   0.960
70166W        W41892  33.366  33.558   3.938
70167W        W41893  35.721  29.408   3.162
70168W        W41894  21.532  12.274   4.573
70169W        W41895  16.844  44.423  11.151
70170W        W41896  33.399  39.821   1.816
70171W        W41897  24.556   4.163   1.242
70172W        W41898  19.977  35.402  13.213
70173W        W41899  35.033  26.918   4.183
70174W        W41900  13.429  32.138   0.718
70175W        W41901  33.370  32.454   3.231
70176W        W41902  14.129  40.898  12.479
70177W        W41903   0.363  37.817   2.601
70178W        W41904   9.257   0.715   0.846
70179W        W41905  16.761   2.406   2.329
70180W        W41906  30.631  31.961  10.686
70181W        W41907  22.876  43.957  13.724
70182W        W41908  10.656  17.230  10.747
70183W        W41909  15.166  39.446   4.910
70184W        W41910   4.327  30.350  12.381
70185W        W41911  43.076  18.115  12.326
70186W        W41912  43.423  29.864  10.645
70187W        W41913  44.543  35.579  11.546
70188W        W41914   1.618   5.207   2.373
70189W        W41915  34.411  14.043  12.775
70190W        W41916  43.895   5.261   0.563
70191W        W41917  26.062  24.173  12.474
70192W        W41918  10.046   6.826  14.853
70193W        W41919  27.875  10.277  14.973
70194W        W41920  12.716  32.075   2.823
70195W        W41921  26.521  10.210   1.495
70196W        W41922  11.620  25.235   4.177
70197W        W41923  31.421  18.861  13.561
70198W        W41924  38.027   9.621  14.787
70199W        W41925  40.100  13.772   0.653
70200W        W41926  13.266  10.598   0.170
70201W        W41927  12.105  17.354   0.474
70202W        W41928  42.869  27.098   0.971
70203W        W41929  33.306  25.047   2.328
70204W        W41930  19.812   1.043  11.031
70205W        W41931   3.467  40.561   0.818
70206W        W41932  37.243   9.351   4.482
70207W        W41933  37.269  29.991  13.620
70208W        W41934  11.736  31.232   4.692
70209W        W41935  10.897   7.442   3.130
70210W        W41936  16.058   8.884  13.150
70211W        W41937  34.074  38.514   3.232
70212W        W41938   1.036  23.208  14.898
70213W        W41939  24.082   9.272  13.776
70214W        W41940  31.112  34.274  10.144
70215W        W41941  26.079  36.398   1.781
70216W        W41942   4.900  26.989  14.822
70217W        W41943   7.812  43.257  13.417
70218W        W41944   3.037   2.211  11.847
70219W        W41945  13.752  44.757   1.718
70220W        W41946  37.928   4.068  11.088
70221W        W41947  37.366  36.540  13.844
70222W        W41948  14.326  12.249  10.934
70223W        W41949  40.934  42.820  12.955
70224W        W41950  15.357  44.794   3.774
70225W        W41951  19.006  32.444   3.146
70226W        W41952  16.524  16.118  14.407
70227W        W41953  37.598   3.039   1.770
70228W        W41954  25.164  13.037  11.584
70229W        W41955  44.948  15.871  14.850
70230W        W41956  33.744  37.290  13.967
70231W        W41957  24.528  19.786  12.524
70232W        W41958  26.921  35.163   5.054
70233W        W41959  42.995  24.645   4.945
70234W        W41960   5.471  39.522  14.003
70235W        W41961  37.838   0.053   3.797
70236W        W41962  19.494  42.937   4.613
70237W        W41963  20.642  34.010   4.094
70238W        W41964  19.972  27.601  14.385
70239W        W41965  32.704  21.741   3.382
70240W        W41966  14.439  21.770  14.436
70241W        W41967  36.224  26.456   1.766
70242W        W41968   5.476  37.404  14.763
70243W        W41969  40.319  30.432  10.772
70244W        W41970   1.708  44.955  11.842
70245W        W41971   2.943  30.142   1.864
70246W        W41972   7.343  30.908   2.714
70247W        W41973  15.341  20.905   3.130
70248W        W41974  27.476  18.474   0.131
70249W        W41975  18.312  27.313   4.330
70250W        W41976  44.486   9.053  13.351
70251W        W41977   3.876  29.617  12.881
70252W        W41978  34.136  44.149   3.722
70253W        W41979  21.543  34.406   3.852
70254W        W41980  20.293  25.689   2.903
70255W        W41981  10.166   4.690   3.110
70256W        W41982  38.405  12.432   0.879
70257W        W41983  38.355  38.460  11.707
70258W        W41984  16.683  27.691  10.358
70259W        W41985  38.627   6.847  12.921
70260W        W41986  35.582  24.959  14.273
70261W        W41987  26.654  24.167   1.633
70262W        W41988  16.801   4.883   3.318
70263W        W41989  16.468   3.375   2.335
70264W        W41990   9.201   7.603  14.678
70265W        W41991  34.310  10.273   0.438
70266W        W41992  37.322   8.677  13.006
70267W        W41993  34.621  24.076   2.252
70268W        W41994  40.548  34.084   2.751
70269W        W41995  17.868   6.844   1.704
70270W        W41996  33.953  36.413   4.215
70271W        W41997  17.039  18.116  11.394
70272W        W41998  35.158   5.927  10.244
70273W        W41999  23.595  26.929  14.441
70274W        W42000  11.171   8.631   3.846
70275W        W42001  13.630  15.255   3.305
70276W        W42002  20.158  39.834   3.379
70277W        W42003  36.123  27.159  13.735
70278W        W42004  14.663  35.588  14.014
70279W        W42005  23.161   6.188  10.606
70280W        W42006  25.000  14.307  14.408
70281W        W42007  26.692  44.453  10.834
70282W        W42008  44.906  28.765   0.314
70283W        W42009  36.109   8.383  10.662
70284W        W42010  23.154   8.674  13.034
70285W        W42011  32.577  41.291   5.033
70286W        W42012   2.016  44.229   3.662
70287W        W42013  39.987   5.979  12.859
70288W        W42014   9.177  27.739  11.248
70289W        W42015   4.282  41.970  12.778
70290W        W42016  43.164  26.133   0.218
70291W        W42017  36.063  19.445  11.749
70292W        W42018  30.163  35.346   1.392
70293W        W42019   2.847  15.179  11.687
70294W        W42020   3.861  21.642  12.295
70295W        W42021  42.740   4.817  14.711
70296W        W42022  27.033  26.825   1.467
70297W        W42023  31.222  30.172   3.677
70298W        W42024  36.892   8.610  12.561
70299W        W42025  26.276  17.373   5.050
70300W        W42026  30.197   3.857   4.631
70301W        W42027  25.196  33.017   4.947
70302W        W42028  43.041   9.323  12.608
70303W        W42029   6.360  35.679  13.387
70304W        W42030  17.294  31.673   2.046
70305W        W42031  20.979   9.153   3.590
70306W        W42032  28.500   5.600  13.472
70307W        W42033   0.507  13.236   0.387
70308W        W42034  24.441  44.921   2.933
70309W        W42035  14.238   9.367  14.553
70310W        W42036  40.606  13.000   2.651
70311W        W42037  14.180   5.622   0.402
70312W        W42038  41.240  42.935   2.443
70313W        W42039  28.787  21.002  11.941
70314W        W42040  16.808  25.652  12.145
70315W        W42041   7.618  28.040  12.377
70316W        W42042  37.535  39.457  14.062
70317W        W42043  17.785  40.065  13.359
70318W        W42044  20.107   6.737   4.432
70319W        W42045  27.403  27.836  10.392
70320W        W42046   8.190   3.273  12.637
70321W        W42047  31.431  18.750   4.319
70322W        W42048  11.363  21.056  12.935
70323W        W42049  39.810  34.119   0.367
70324W        W42050  18.523  30.632   4.149
70325W        W42051  42.567   3.291  14.982
70326W        W42052  11.194  14.723  10.576
70327W        W42053  13.025  28.731   0.828
70328W        W42054  43.865  37.312  13.526
70329W        W42055  33.949  22.865   2.430
70330W        W42056  35.475  15.823   1.429
70331W        W42057  31.341  22.220   4.155
70332W        W42058  13.950  42.859   4.742
70333W        W42059  33.012  21.188  13.881
70334W        W42060  41.494  16.117   2.715
70335W        W42061  36.164   7.999  12.511
70336W        W42062   0.724  22.042   3.549
70337W        W42063  40.048   1.960   3.790
70338W        W42064  38.335  41.848  14.766
70339W        W42065   9.503  29.607  14.808
70340W        W42066  37.582  40.299   3.357
70341W        W42067  39.778  21.720  12.593
70342W        W42068  22.548  16.844   1.365
70343W        W42069  33.436  30.649  12.282
70344W        W42070   4.896   2.865  12.883
70345W        W42071   0.011  15.242   4.590
70346W        W42072  28.729  12.515   2.745
70347W        W42073  40.332  40.730   1.265
70348W        W42074  44.828  28.503   3.665
70349W        W42075  37.826  10.371  11.182
70350W        W42076  25.464  21.035   3.212
70351W        W42077  12.638  18.512   4.927
70352W        W42078   9.927  11.215  14.381
70353W        W42079  11.701   4.021   0.413
70354W        W42080  18.632  28.494  12.295
70355W        W42081   9.020   9.694  12.426
70356W        W42082  16.510  39.117   1.170
70357W        W42083  35.901  34.544   2.823
70358W        W42084  27.943   1.951  11.180
70359W        W42085  27.996  32.974   2.900
70360W        W42086  42.467   3.467   3.708
70361W        W42087  18.584  28.563  10.508
70362W        W42088   3.045  23.589  11.835
70363W        W42089  14.816  20.999  13.083
70364W        W42090  40.503  25.254   0.850
70365W        W42091   8.758  23.334  13.142
70366W        W42092  43.348  42.381   0.344
70367W        W42093  11.415  37.043   1.234
70368W        W42094  40.009   3.217   3.336
70369W        W42095  33.449  11.661  12.121
70370W        W42096  31.495  37.172  12.590
70371W        W42097   8.672   9.550  12.825
70372W        W42098  21.184  24.534  13.279
70373W        W42099   6.631  33.372  13.470
70374W        W42100   2.831  29.664  13.948
70375W        W42101  22.147  13.724  12.411
70376W        W42102  20.619  15.710  13.557
70377W        W42103  27.612   3.399   3.841
70378W        W42104   6.651  33.100   1.684
70379W        W42105   8.044  35.537  13.078
70380W        W42106   0.267  26.014   4.174
70381W        W42107  42.339  15.330  11.127
70382W        W42108  19.677  35.608  12.827
70383W        W42109  22.713  12.068   0.590
70384W        W42110   9.694  29.445   2.482
70385W        W42111   7.387  43.888   1.483
70386W        W42112  41.668  44.027   3.357
70387W        W42113   4.629   4.994   3.708
70388W        W42114  34.332  30.713   1.014
70389W        W42115  43.345  26.454  12.691
70390W        W42116   4.959  15.095   4.117
70391W        W42117  31.008   8.846  10.610
70392W        W42118  32.446   7.424  11.138
70393W        W42119  15.297  40.793   3.022
70394W        W42120  37.319   9.879   2.598
70395W        W42121   8.144  23.052   3.885
70396W        W42122   3.379  42.994   4.335
70397W        W42123  10.220  23.427  14.818
70398W        W42124  36.838  43.239  11.362
70399W        W42125  35.687  33.694  11.999
70400W        W42126  21.468  25.190  12.348
70401W        W42127   0.454  32.344   2.894
70402W        W42128  27.594  38.447   3.321
70403W        W42129   5.780  13.805   5.044
70404W        W42130  29.228  23.197  11.118
70405W        W42131  10.864  11.048  14.045
70406W        W42132   3.446  28.480  12.794
70407W        W42133  32.657  18.252   0.866
70408W        W42134  18.731  26.453  12.054
70409W        W42135  31.503  23.223   9.975
70410W        W42136   9.122  20.033   0.271
70411W        W42137  17.557   8.868  14.440
70412W        W42138  35.840  20.150  12.416
70413W        W42139  34.309  42.228   5.094
70414W        W42140  39.305   2.911   2.568
70415W        W42141  32.692  40.307   3.319
70416W        W42142  40.388  38.461   2.968
70417W        W42143  30.675  23.504   4.249
70418W        W42144   5.672  31.677  11.091
70419W        W42145  44.807  41.564   1.642
70420W        W42146  36.633  10.103  13.540
70421W        W42147  12.311  42.866   4.994
70422W        W42148  19.613  27.979   0.681
70423W        W42149  30.440  28.071  14.804
70424W        W42150  16.542  23.454  12.321
70425W        W42151  44.343  18.971  10.990
70426W        W42152  30.086  40.896   3.569
70427W        W42153  27.107   7.806  14.570
70428W        W42154   1.878   6.631   3.208
70429W        W42155  26.027  41.954  11.080
70430W        W42156   0.411   6.193   3.795
70431W        W42157  24.059  21.525  14.815
70432W        W42158  31.554  42.738   4.181
70433W        W42159  43.542  10.777   0.429
70434W        W42160  20.996  20.482   1.429
70435W        W42161  19.390  17.951  10.672
70436W        W42162  38.399   7.969   4.645
70437W        W42163  34.022  28.019  13.489
70438W        W42164  33.605  39.506  13.609
70439W        W42165  35.065  15.752   4.528
70440W        W42166  17.733  16.776   3.881
70441W        W42167  42.526  20.998  13.426
70442W        W42168  35.449  31.583   4.809
70443W        W42169  33.945  44.972   3.315
70444W        W42170   0.927  42.437   3.274
70445W        W42171   3.756   3.396   2.084
70446W        W42172  44.772  13.203  13.287
70447W        W42173  25.122  43.062   3.013
70448W        W42174  14.524   4.204  11.861
70449W        W42175  26.149  44.286  11.539
70450W        W42176  29.064  34.843  11.909
70451W        W42177  28.765  23.343  10.982
70452W        W42178  16.588  42.777  13.380
70453W        W42179  36.469  19.797   2.668
70454W        W42180  37.029  24.110   3.153
70455W        W42181   7.316  38.514   1.212
70456W        W42182  24.146   5.430  13.390
70457W        W42183  10.237   6.205  14.088
70458W        W42184  20.186  16.790  10.724
70459W        W42185  29.610  18.282  13.303
70460W        W42186  20.033  21.966  12.916
70461W        W42187  18.701  31.840   0.981
70462W        W42188  30.495  11.139   1.155
70463W        W42189  42.076   0.995   3.029
70464W        W42190   1.146   5.185   2.191
70465W        W42191  34.462   3.117   3.305
70466W        W42192  43.013  21.287   1.408
70467W        W42193  41.531  26.092  13.036
70468W        W42194  42.923   1.103   1.127
70469W        W42195  31.673  35.394  11.057
70470W        W42196   4.744  30.130  11.575
70471W        W42197   8.871  27.228   4.353
70472W        W42198  18.877   5.009   2.359
70473W        W42199  11.289  32.881  14.886
70474W        W42200   4.746  16.095  13.926
70475W        W42201  34.744  18.135   0.755
70476W        W42202  29.771  34.076   0.296
70477W        W42203  18.131  17.294  14.698
70478W        W42204  34.534  30.563  13.571
70479W        W42205  40.420  15.444  14.874
70480W        W42206  30.770  26.434  12.557
70481W        W42207  18.288   9.768   2.051
70482W        W42208  22.581  13.879   0.933
70483W        W42209  13.831  40.372  11.382
70484W        W42210   4.717   5.209   4.952
70485W        W42211  37.411  37.174  13.034
70486W        W42212  40.476   2.961   3.235
70487W        W42213  31.304  21.116   5.075
70488W        W42214  40.477  18.578  10.509
70489W        W42215  25.765   0.738  10.183
70490W        W42216  34.449  26.553  11.945
70491W        W42217  20.432  13.274  10.474
70492W        W42218  36.876  25.463  10.902
70493W        W42219   9.783  41.824  13.663
70494W        W42220  19.665   8.148   0.245
70495W        W42221  44.470   5.246   4.101
70496W        W42222  33.079  26.227   3.129
70497W        W42223   6.989   2.387   4.009
70498W        W42224  32.989  32.966   0.410
70499W        W42225  18.512  22.136  10.675
70500W        W42226   0.965  33.105  14.144
70501W        W42227   8.200  31.008  12.652
70502W        W42228  36.502  23.249  14.945
70503W        W42229   2.779  43.371  14.378
70504W        W42230  36.321  18.097  12.884
70505W        W42231   9.549   9.620  12.722
70506W        W42232  19.510  32.280   3.220
70507W        W42233   4.264   7.367  14.937
70508W        W42234  41.919  14.636   0.521
70509W        W42235  12.103  34.039   3.135
70510W        W42236   5.417   7.878   4.672
70511W        W42237  26.563   0.959   9.892
70512W        W42238  24.204   6.699  13.017
70513W        W42239   0.028  44.745  12.869
70514W        W42240  13.854  12.733   1.947
70515W        W42241  13.316  13.399  12.045
70516W        W42242  20.083  24.765  13.954
70517W        W42243  33.606  16.093  14.708
70518W        W42244  16.279  16.404   4.119
70519W        W42245  40.279   8.202  11.406
70520W        W42246  11.927  27.181  13.893
70521W        W42247  34.403  30.678   2.369
70522W        W42248   5.742   9.689   3.798
70523W        W42249  35.628   5.255  10.762
70524W        W42250   6.790  29.954  14.370
70525W        W42251  11.104   7.716  13.923
70526W        W42252  37.930  19.447  14.338
70527W        W42253   8.215  36.399   2.313
70528W        W42254  36.043   7.866  14.570
70529W        W42255  44.177  15.833  11.123
70530W        W42256  22.441  17.866  14.574
70531W        W42257  23.564  27.923  14.194
70532W        W42258  24.433  37.083  12.544
70533W        W42259  33.516  36.874   2.488
70534W        W42260   7.151   7.920   0.885
70535W        W42261  26.753  42.407   4.321
70536W        W42262  25.620  11.178   2.473
70537W        W42263  11.918  39.324  13.027
70538W        W42264   2.408  37.749   2.851
70539W        W42265  23.914  32.649   1.299
70540W        W42266   5.739  26.251  12.955
70541W        W42267  40.927  43.668   2.788
70542W        W42268   7.827  22.251   3.676
70543W        W42269   4.127  10.366   1.746
70544W        W42270   0.705  29.519  11.422
70545W        W42271  20.112  12.792   0.186
70546W        W42272   7.338  10.253  11.647
70547W        W42273  41.073  14.642  14.983
70548W        W42274  36.910  35.290  14.813
70549W        W42275  44.748  32.357   3.971
70550W        W42276  16.855  23.935  12.431
70551W        W42277  37.639  17.341  12.558
70552W        W42278  10.727  29.167   4.387
70553W        W42279  26.392  18.752  12.156
70554W        W42280  29.124   3.880  14.789
70555W        W42281  23.443   1.178  12.847
70556W        W42282  42.275  16.676  14.325
70557W        W42283  35.006  33.933   1.371
70558W        W42284  12.434  41.336  13.079
70559W        W42285   5.628   3.247  12.059
70560W        W42286  18.248   9.144   4.285
70561W        W42287  29.001   6.395   4.016
70562W        W42288  11.796  20.784  11.913
70563W        W42289  30.717  23.096   1.677
70564W        W42290  24.754   8.372  13.890
70565W        W42291  43.044  24.168   0.895
70566W        W42292  16.092  38.538   0.243
70567W        W42293  14.765   4.749  13.711
70568W        W42294  23.578  32.941   4.585
70569W        W42295  10.573  14.665  14.716
70570W        W42296   8.140   5.962   4.119
70571W        W42297  24.697  21.519   2.054
70572W        W42298  25.528   4.801  12.098
70573W        W42299  41.214  40.914   4.637
70574W        W42300  26.140  25.488   2.141
70575W        W42301  31.013  30.643   1.812
70576W        W42302  23.968  11.923  12.449
70577W        W42303  42.424   4.624   1.973
70578W        W42304  17.672  16.166   3.179
70579W        W42305  31.987  36.885  14.015
70580W        W42306  25.047  13.085  13.557
70581W        W42307   0.337   5.477  14.285
70582W        W42308   6.966  32.020   4.031
70583W        W42309  42.659  12.284  14.929
70584W        W42310   0.423  16.093  11.719
70585W        W42311   0.919  40.645   1.087
70586W        W42312  23.999  43.494   4.169
70587W        W42313   6.649  43.042  13.321
70588W        W42314  31.402  25.953  12.697
70589W        W42315  12.413   7.593  10.754
70590W        W42316  16.488  19.266  14.790
70591W        W42317  21.062  33.088  10.088
70592W        W42318  25.957   0.763   1.412
70593W        W42319   1.895   3.677   3.176
70594W        W42320  32.161  28.847  14.361
70595W        W42321  15.845   9.614  12.525
70596W        W42322  15.338   2.766  14.446
70597W        W42323  22.037   1.528  11.209
70598W        W42324  43.301  36.543  12.051
70599W        W42325  33.374  22.218  14.485
70600W        W42326  32.849   9.437  14.936
70601W        W42327   0.993   5.459  11.141
70602W        W42328  19.573  41.307  14.044
70603W        W42329   0.395  37.838  10.608
70604W        W42330   5.674  16.328  12.061
70605W        W42331  22.525  11.308   3.108
70606W        W42332  44.277  29.206  13.011
70607W        W42333  30.510  12.729  14.282
70608W        W42334  22.724  17.598  11.858
70609W        W42335  13.145  19.477  13.956
70610W        W42336  10.812  43.010   2.085
70611W        W42337  26.520  36.099   0.510
70612W        W42338   2.265  13.882   4.153
70613W        W42339  26.498  20.236   3.709
70614W        W42340   6.015  19.751   0.892
70615W        W42341  42.582  18.932   4.334
70616W        W42342  29.996  32.569   4.113
70617W        W42343  18.724  13.894  12.005
70618W        W42344  25.101  36.086  11.198
70619W        W42345  26.143   6.343   2.477
70620W        W42346  38.818   3.929   0.939
70621W        W42347   4.009  27.629   2.676
70622W        W42348  43.571  27.169   4.285
70623W        W42349  12.897  16.205  13.832
70624W        W42350  13.790  20.738  13.550
70625W        W42351  26.145   9.657   0.175
70626W        W42352  12.483  30.156   4.619
70627W        W42353  10.371  44.977  13.560
70628W        W42354  25.393  12.746   4.570
70629W        W42355  39.955  41.752   2.373
70630W        W42356  11.194  14.365  11.495
70631W        W42357  33.334  44.014   0.875
70632W        W42358  33.893  35.702   0.517
70633W        W42359   2.326  36.888  10.667
70634W        W42360  40.808  28.702  12.557
70635W        W42361  10.307  16.639  13.390
70636W        W42362  27.870  40.523  14.813
70637W        W42363   3.698  12.176  11.861
70638W        W42364  39.352  13.404   3.673
70639W        W42365   8.617  41.626  13.648
70640W        W42366  44.414  29.961   0.932
70641W        W42367  19.935   6.277  11.220
70642W        W42368  21.986   0.996   1.411
70643W        W42369  36.956  32.773  14.950
70644W        W42370  17.024  14.707   4.396
70645W        W42371  25.182  32.597   3.984
70646W        W42372  44.481  37.829  10.403
70647W        W42373  32.202  44.731   5.083
70648W        W42374  13.065  17.813   2.115
70649W        W42375  23.143  22.214  10.670
70650W        W42376  38.862   9.306   0.005
70651W        W42377  28.042  40.761   0.258
70652W        W42378  20.817   2.391  14.391
70653W        W42379   1.491  28.335   0.848
70654W        W42380  29.030   4.269  10.453
70655W        W42381  20.207   3.966  12.013
70656W        W42382  29.628  10.268   3.107
70657W        W42383   9.694  28.475   1.398
70658W        W42384  27.671  22.053  13.053
70659W        W42385  25.756  26.885  13.896
70660W        W42386  28.561   3.926  10.588
70661W        W42387  14.417  28.584  12.494
70662W        W42388   3.752  36.644  12.919
70663W        W42389  41.571  35.461   0.194
70664W        W42390  44.028  42.770  14.978
70665W        W42391  29.369   9.240   4.284
70666W        W42392   0.386  15.110  14.961
70667W        W42393  20.541  27.431   2.669
70668W        W42394  41.774  38.036  12.992
70669W        W42395  25.602  22.557   1.448
70670W        W42396  11.758  19.082   0.178
70671W        W42397  14.925   6.616   1.635
70672W        W42398  39.619  23.549  12.461
70673W        W42399   7.448  15.626   1.224
70674W        W42400  15.674  30.094   2.189
70675W        W42401  23.595  32.294  13.845
70676W        W42402   3.812  42.053   0.799
70677W        W42403  29.401  42.381   3.116
70678W        W42404  14.278  43.785   4.659
70679W        W42405  11.757  26.273  10.278
70680W        W42406  28.392  17.592   4.631
70681W        W42407  17.609  28.508   1.624
70682W        W42408  20.791   5.598  12.452
70683W        W42409   7.132   4.299  10.090
70684W        W42410  19.719   1.252  12.322
70685W        W42411  19.103  34.608   0.859
70686W        W42412  22.901  29.112  14.001
70687W        W42413  24.737  44.959  14.235
70688W        W42414   8.195  25.303   3.716
70689W        W42415  43.886  14.216   3.205
70690W        W42416  19.319  28.417  10.766
70691W        W42417   7.796  33.544   2.451
70692W        W42418  21.202  39.398  10.939
70693W        W42419  21.266  42.268   2.361
70694W        W42420  13.365  42.987  11.316
70695W        W42421   0.265  30.378   4.968
70696W        W42422  40.452  11.767   0.447
70697W        W42423  23.991  38.279  10.803
70698W        W42424  21.524  14.594   0.868
70699W        W42425  22.957   5.648  14.221
70700W        W42426  43.810  15.877   0.962
70701W        W42427  38.838  44.938   2.729
70702W        W42428   6.900  42.847  10.642
70703W        W42429  36.908  21.724   4.521
70704W        W42430  26.222   2.202  12.023
70705W        W42431  29.247  17.794   3.031
70706W        W42432  26.703  15.725  13.393
70707W        W42433   5.799  27.379  12.219
70708W        W42434  35.303  19.553   4.180
70709W        W42435  21.737  38.421  12.924
70710W        W42436  12.700  44.911   3.178
70711W        W42437  39.211   0.667   1.380
70712W        W42438  35.251  23.606  10.728
70713W        W42439   5.954  21.200  11.676
70714W        W42440  11.317  22.897  13.943
70715W        W42441  39.479   6.167   4.249
70716W        W42442  40.721  15.776  11.327
70717W        W42443  41.542  39.339   1.250
70718W        W42444  14.993  39.487   2.907
70719W        W42445  27.212  10.760  12.835
70720W        W42446  16.128  25.099   4.058
70721W        W42447   5.491   5.429  12.354
70722W        W42448  37.778  28.036  13.996
70723W        W42449  22.062  13.286   4.481
70724W        W42450  34.319  34.681  13.633
70725W        W42451  16.650  24.027   4.256
70726W        W42452  13.256  28.568  13.088
70727W        W42453  10.032  41.425   4.958
70728W        W42454  32.492  29.065   4.711
70729W        W42455   2.916  10.382  12.074
70730W        W42456  30.438  38.538  11.058
70731W        W42457  43.079  37.491  11.468
70732W        W42458  26.989   1.759  13.081
70733W        W42459  17.498  24.829  12.085
70734W        W42460  11.240  29.151  11.061
70735W        W42461   8.239  11.197  14.941
70736W        W42462  42.138  20.453   3.249
70737W        W42463  40.083  43.849   3.730
70738W        W42464  22.343  33.587   1.324
70739W        W42465  34.914   4.794   2.338
70740W        W42466  14.753  29.226  13.081
70741W        W42467  36.170  34.511   1.817
70742W        W42468  23.668  25.980   0.843
70743W        W42469   8.338  33.830  14.956
70744W        W42470  20.245   9.861   4.913
70745W        W42471  43.450  18.136  10.731
70746W        W42472  28.129   1.349   1.468
70747W        W42473  29.453  34.389   1.956
70748W        W42474  24.244   9.615  12.107
70749W        W42475   8.889  27.178  12.517
70750W        W42476  20.038  15.955  12.435
70751W        W42477  44.168   0.467   0.982
70752W        W42478  29.426  18.694   4.582
70753W        W42479  15.974  19.421  11.418
70754W        W42480  35.472  28.059   2.746
70755W        W42481  37.198  10.243   0.923
70756W        W42482  22.794  36.706  14.114
70757W        W42483  18.041  31.698  11.241
70758W        W42484  19.750  12.626   0.492
70759W        W42485  32.211  25.251  12.519
70760W        W42486  11.942  14.315   2.043
70761W        W42487  44.787  19.285  11.977
70762W        W42488  40.118  19.390   1.324
70763W        W42489   9.686   6.040   3.950
70764W        W42490   6.680  28.141   0.832
70765W        W42491  28.616   1.758  14.805
70766W        W42492  39.023  15.591  13.921
70767W        W42493   7.509  23.758   4.135
70768W        W42494  36.045  20.363   4.832
70769W        W42495  25.710  22.140   1.730
70770W        W42496  39.815  24.081   1.871
70771W        W42497   1.777  38.828   3.673
70772W        W42498  25.970  32.524  12.404
70773W        W42499  24.115  32.981   4.877
70774W        W42500  19.089  32.691   4.531
70775W        W42501  21.782  44.346  13.802
70776W        W42502   0.466  43.281  12.476
70777W        W42503  23.084  22.128   4.472
70778W        W42504  18.045  30.400   0.336
70779W        W42505  42.789   3.928  11.590
70780W        W42506  18.047   6.238  12.379
70781W        W42507  37.034  38.758  14.089
70782W        W42508  13.093   2.227   3.403
70783W        W42509  19.711  19.663   2.625
70784W        W42510   0.350   9.292  12.854
70785W        W42511   1.334  41.086  11.417
70786W        W42512  33.722  25.470   1.952
70787W        W42513   5.190  39.305   4.588
70788W        W42514   4.684  12.028   2.784
70789W        W42515  16.806   4.847  10.775
70790W        W42516  22.487  18.712   3.121
70791W        W42517   1.342  43.525   0.623
70792W        W42518   6.909  27.471   2.035
70793W        W42519  28.520  24.257   0.755
70794W        W42520  28.043   9.200  10.735
70795W        W42521  14.722  43.667  13.933
70796W        W42522  13.644   6.915   0.248
70797W        W42523  29.205  35.043   0.444
70798W        W42524  13.667  44.420   1.341
70799W        W42525  13.078   1.735  14.794
70800W        W42526   4.966  37.629   3.283
70801W        W42527  36.324  11.107   1.617
70802W        W42528  12.857   8.663  13.375
70803W        W42529  27.421  19.361  13.562
70804W        W42530  10.047  41.938   4.820
70805W        W42531   3.351  32.880   1.300
70806W        W42532  21.936  40.493  12.579
70807W        W42533  28.842  37.626  13.421
70808W        W42534  11.831  24.976  14.329
70809W        W42535   3.028  17.392   1.653
70810W        W42536  15.317  12.656  13.879
70811W        W42537  44.888  11.600  14.362
70812W        W42538  41.302   2.390  13.383
70813W        W42539   7.496  34.581  13.880
70814W        W42540  32.252   2.952   3.290
70815W        W42541  27.449  16.821   1.252
70816W        W42542  32.034  17.327   4.207
70817W        W42543   4.662  26.893   4.131
70818W        W42544  25.189  12.166  14.829
70819W        W42545  31.690  41.808   2.636
70820W        W42546  41.725  14.074  14.705
70821W        W42547   4.947  12.157  14.863
70822W        W42548   4.345   3.479   0.324
70823W        W42549  44.160  14.605  11.232
70824W        W42550  41.305  28.371  11.462
70825W        W42551  12.663   5.218   4.385
70826W        W42552  40.758  32.794  12.000
70827W        W42553   5.501   6.140  11.279
70828W        W42554  15.818  35.974  13.515
70829W        W42555   7.163   5.404   1.308
70830W        W42556   3.417  26.642  10.118
70831W        W42557  35.873   1.478  14.712
70832W        W42558  11.268  43.755  13.070
70833W        W42559  17.611   7.266   1.964
70834W        W42560  20.334  37.533  10.653
70835W        W42561   5.550  28.127   1.759
70836W        W42562  26.423  32.741   0.984
70837W        W42563  38.711   5.625   0.877
70838W        W42564  37.932   9.552   0.907
70839W        W42565   0.737  12.348   0.501
70840W        W42566  33.132  30.893  14.814
70841W        W42567  34.956  35.555  11.049
70842W        W42568  40.165  25.199  13.754
70843W        W42569   5.362  13.999   1.816
70844W        W42570   9.203  41.460  13.080
70845W        W42571  13.841  23.423  11.038
70846W        W42572  36.075  19.748   3.708
70847W        W42573  35.346   5.159  11.175
70848W        W42574  35.298   3.836   2.617
70849W        W42575  17.252   9.351  13.847
70850W        W42576  20.676  37.420   3.941
70851W        W42577   9.337  35.453   2.321
70852W        W42578  36.959  16.626  11.480
70853W        W42579  26.753  43.757   1.382
70854W        W42580  12.855  23.486   3.671
70855W        W42581  32.955  26.134  14.790
70856W        W42582  11.305  35.129  13.173
70857W        W42583  10.327  27.545   0.828
70858W        W42584  25.922  11.143   3.512
70859W        W42585  41.066   2.836  13.413
70860W        W42586  37.419  19.620   2.984
70861W        W42587  27.485   2.157  11.108
70862W        W42588  33.224  29.940   2.265
70863W        W42589   6.733   9.298   1.380
70864W        W42590  12.630  27.048   1.367
70865W        W42591  33.543  19.525   4.171
70866W        W42592  24.662  24.062  13.537
70867W        W42593  17.805  14.211   0.959
70868W        W42594  24.266  36.938  12.057
70869W        W42595  34.882  21.041   1.748
70870W        W42596  19.462  23.415  11.937
70871W        W42597   7.841  43.651  11.158
70872W        W42598  27.704  19.804  14.900
70873W        W42599  27.410  26.500  14.608
70874W        W42600  28.285  24.690   0.421
70875W        W42601   0.362  37.892   4.096
70876W        W42602   9.148  30.215  11.157
70877W        W42603  44.515  10.878  12.445
70878W        W42604   8.717  41.842  11.539
70879W        W42605   4.949  38.986   0.205
70880W        W42606   4.985  19.832  14.657
70881W        W42607  42.392  33.900  13.338
70882W        W42608   8.259  27.198   1.206
70883W        W42609  27.606  38.786   3.720
70884W        W42610   2.963  16.459   2.252
70885W        W42611  28.169  18.201  13.532
70886W        W42612  26.644  23.943   2.878
70887W        W42613  10.739   5.478   0.220
70888W        W42614  22.647  31.452   1.715
70889W        W42615  30.870  24.262   1.822
70890W        W42616  10.719   4.412  12.931
70891W        W42617   2.954   3.771  12.973
70892W        W42618   2.371   5.302   0.884
70893W        W42619   9.996   0.944  14.434
70894W        W42620   7.127  29.112  13.891
70895W        W42621   2.250   3.761  11.574
70896W        W42622  27.034  43.590   0.167
70897W        W42623  10.067  38.878   3.738
70898W        W42624  12.928  19.592   1.734
70899W        W42625  30.982   3.232   4.385
70900W        W42626  25.688  25.565   3.364
70901W        W42627  12.877  27.085   0.883
70902W        W42628  44.356   1.836  13.366
70903W        W42629  24.525  30.935   3.385
70904W        W42630  16.260  40.363   3.564
70905W        W42631  33.621  18.350  14.418
70906W        W42632  21.072  27.613   5.221
70907W        W42633   1.059  19.195  13.361
70908W        W42634  16.717  38.874  11.599
70909W        W42635  19.292  18.523   3.314
70910W        W42636  17.856   8.340   4.133
70911W        W42637  25.896  37.477   1.148
70912W        W42638  31.668  21.831   0.722
70913W        W42639  27.227  28.255  14.374
70914W        W42640  33.092  14.980  10.811
70915W        W42641  23.175  42.371   2.935
70916W        W42642  31.369  41.770   4.069
70917W        W42643  35.478  31.589   0.343
70918W        W42644  34.961  39.192  12.108
70919W        W42645  44.482   6.172  12.030
70920W        W42646  22.244  10.304   4.049
70921W        W42647  29.655   3.386  13.761
70922W        W42648  36.824  19.642  10.632
70923W        W42649  21.905  34.463   4.227
70924W        W42650  22.002  41.305   1.753
70925W        W42651  19.803  30.813   4.042
70926W        W42652  33.531  29.518   2.331
70927W        W42653  32.767  26.184  10.730
70928W        W42654  36.340   9.373   4.216
70929W        W42655  18.150  17.478   0.160
70930W        W42656  37.091  19.064   3.907
70931W        W42657   9.401  33.640   2.958
70932W        W42658   9.704  32.086   1.659
70933W        W42659  10.752  24.599   2.276
70934W        W42660  38.231  43.206  14.477
70935W        W42661  24.147   3.969  11.592
70936W        W42662  25.092  12.648  14.978
70937W        W42663  16.208  36.152   3.087
70938W        W42664  11.245  22.080  10.632
70939W        W42665  23.073   4.673  11.392
70940W        W42666  25.077  44.652  10.208
70941W        W42667   5.540   3.947   4.898
70942W        W42668  16.824   2.917   2.646
70943W        W42669  35.093  25.515  14.755
70944W        W42670  20.571  24.022  11.303
70945W        W42671  30.571   8.958   3.205
70946W        W42672  14.084  40.039   4.132
70947W        W42673  44.338  44.071  13.420
70948W        W42674  18.585  16.287   1.370
70949W        W42675  23.681  44.310  11.433
70950W        W42676  32.302   7.816   4.988
70951W        W42677  12.643   7.653  14.025
70952W        W42678  30.025  19.235  14.571
70953W        W42679   8.114   7.233  12.368
70954W        W42680  30.569  37.907  13.992
70955W        W42681  38.466   1.788  12.590
70956W        W42682   1.347  35.321  13.889
70957W        W42683  18.242   0.825  14.308
70958W        W42684  23.415  36.521  10.700
70959W        W42685  26.703  38.927  14.499
70960W        W42686   8.449  24.530  10.501
70961W        W42687  36.631  39.423  14.306
70962W        W42688  26.225   6.430   3.733
70963W        W42689  30.223  13.285  13.014
70964W        W42690  12.515   5.693  11.247
70965W        W42691  35.281  41.874   3.193
70966W        W42692  18.152  41.502   0.364
70967W        W42693  30.241  33.539   4.667
70968W        W42694   6.325  12.196  13.029
70969W        W42695  18.241  14.798   3.807
70970W        W42696  40.512   7.321  14.966
70971W        W42697  29.499  36.037   4.049
70972W        W42698   5.453  39.629  14.916
70973W        W42699  27.018  39.052   2.373
70974W        W42700  18.740  44.448   0.395
70975W        W42701  35.542  39.912  14.403
70976W        W42702   7.662  34.031   0.713
70977W        W42703  21.656   5.486  10.440
70978W        W42704   6.348   6.375   4.592
70979W        W42705  31.801  36.994   3.652
70980W        W42706  20.792  17.981  11.453
70981W        W42707  40.977  26.522  12.861
70982W        W42708   3.714  27.609  14.327
70983W        W42709  28.146  11.894   2.325
70984W        W42710  38.977  31.218  11.575
70985W        W42711  18.663  20.510  13.984
70986W        W42712  30.897  19.564   1.741
70987W        W42713  44.381  41.495   1.930
70988W        W42714  36.882  39.782   3.824
70989W        W42715  33.511  25.589  12.897
70990W        W42716  30.144  14.287  14.170
70991W        W42717  18.685   3.964  14.930
70992W        W42718   3.836  22.002  13.528
70993W        W42719   5.233  18.274  10.729
70994W        W42720  32.407   6.782   0.486
70995W        W42721   1.547  43.496   2.701
70996W        W42722  27.372  16.684  13.047
70997W        W42723   6.393   3.118   0.140
70998W        W42724  39.838  25.563  13.514
70999W        W42725  30.159  12.248   3.426
71000W        W42726  10.772  28.565  10.279
71001W        W42727  25.222  20.196  11.174
71002W        W42728  22.272  17.502  14.907
71003W        W42729  15.395  14.047  14.907
71004W        W42730  19.015  15.681  14.105
71005W        W42731  11.879  44.819  12.798
71006W        W42732   7.916  28.444  12.457
71007W        W42733   5.900  12.646   0.578
71008W        W42734  39.512  35.237  12.419
71009W        W42735  34.320  19.014  13.436
71010W        W42736   6.706   8.287  13.317
71011W        W42737  18.037  31.562  13.938
71012W        W42738  44.251  17.153  11.836
71013W        W42739  19.914  36.845  13.343
71014W        W42740  41.542  16.192  14.280
71015W        W42741  43.605   8.611   3.219
71016W        W42742   4.183  18.104  14.410
71017W        W42743   6.629  14.073  11.007
71018W        W42744  23.993   8.441   3.216
71019W        W42745  33.075   4.975  11.503
71020W        W42746  22.187  29.194  10.495
71021W        W42747  16.113  13.252  14.059
71022W        W42748   7.744  23.578  11.725
71023W        W42749  20.454  21.775  12.016
71024W        W42750   1.140  15.664  10.347
71025W        W42751  15.200  26.267   1.798
71026W        W42752   2.405  23.977   2.931
71027W        W42753   3.533   6.377  10.805
71028W        W42754  10.581  30.399   2.699
71029W        W42755  14.565  38.586   2.687
71030W        W42756  13.208  21.579   4.434
71031W        W42757  24.762  38.067   0.330
71032W        W42758  20.551  33.155   1.637
71033W        W42759  38.575  29.053  14.328
71034W        W42760  34.990  42.097  12.014
71035W        W42761  28.608  40.702  13.366
71036W        W42762  13.768  12.931   4.837
71037W        W42763  13.676  18.278   3.232
71038W        W42764  10.377   0.229   3.654
71039W        W42765  33.932  31.044  11.038
71040W        W42766  28.411  22.157   3.451
71041W        W42767   8.795  28.186   0.286
71042W        W42768   9.730  42.362   4.898
71043W        W42769  40.193  39.477   3.643
71044W        W42770  35.323  29.088   4.214
71045W        W42771  26.999  27.597   2.142
71046W        W42772  17.647  32.428  14.515
71047W        W42773  37.830  35.615  14.364
71048W        W42774   7.399  14.793  12.355
71049W        W42775  26.645  22.956   0.425
71050W        W42776  14.445  25.880   4.191
71051W        W42777   1.449  22.549   1.391
71052W        W42778  12.768  35.963  13.896
71053W        W42779  34.091   9.393  11.474
71054W        W42780  26.097  17.384   2.057
71055W        W42781  36.818  16.215  12.005
71056W        W42782  18.203  13.624   3.193
71057W        W42783  38.367  12.186  14.437
71058W        W42784  44.396  26.016  10.518
71059W        W42785  18.644  33.748   5.149
71060W        W42786   0.939  30.622   0.733
71061W        W42787  14.879   4.927   3.927
71062W        W42788   3.706  24.963   2.971
71063W        W42789  24.098  41.326  11.823
71064W        W42790  29.391  22.203  13.977
71065W        W42791   8.875  39.936   0.552
71066W        W42792  24.978  42.723   2.126
71067W        W42793  17.796  38.987  11.884
71068W        W42794   5.401  38.934   4.306
71069W        W42795  25.552  37.198   1.574
71070W        W42796  29.735   0.601  13.797
71071W        W42797  12.814  18.564   3.928
71072W        W42798   9.160   3.355  11.159
71073W        W42799  43.174  23.235  13.385
71074W        W42800   4.231  17.213   3.842
71075W        W42801  36.018  17.510   2.448
71076W        W42802   0.982   4.202   2.404
71077W        W42803   6.853  17.746  13.820
71078W        W42804  37.799  25.449   2.007
71079W        W42805  25.739   9.691  14.850
71080W        W42806  18.094  35.414  12.723
71081W        W42807  22.603  11.299   4.613
71082W        W42808  30.921   9.253   1.939
71083W        W42809  13.378  17.518  10.462
71084W        W42810  27.769   9.414   3.181
71085W        W42811  23.138  26.113   1.656
71086W        W42812   1.815  24.008  10.684
71087W        W42813  20.709   3.368   4.080
71088W        W42814   7.958  21.631   0.322
71089W        W42815   2.549  37.031  13.924
71090W        W42816  31.072  38.822   3.975
71091W        W42817  23.157   6.278  14.800
71092W        W42818  35.293  41.460  13.368
71093W        W42819  22.663  20.758   3.797
71094W        W42820  29.009  18.898   0.399
71095W        W42821  34.361  44.340  10.864
71096W        W42822   7.978  42.950   0.927
71097W        W42823  21.487  10.589  11.543
71098W        W42824  15.894  27.936   0.298
71099W        W42825  35.536  44.663  13.360
71100W        W42826  29.508  21.472  14.410
71101W        W42827  29.407  36.497  11.103
71102W        W42828  23.215  17.701   1.851
71103W        W42829  18.865  17.830  11.306
71104W        W42830   5.206  20.212  14.930
71105W        W42831  14.405  39.518  10.987
71106W        W42832  23.588  36.901  13.444
71107W        W42833  17.753  21.461  14.044
71108W        W42834  42.331  36.028  13.875
71109W        W42835   4.541  29.395  13.376
71110W        W42836  11.826  37.772   2.758
71111W        W42837   4.946  38.826   0.935
71112W        W42838  11.091  14.542   3.553
71113W        W42839  11.674   0.209   2.410
71114W        W42840   9.404  26.540   2.701
71115W        W42841  28.686  35.739   3.322
71116W        W42842  36.490  17.692  14.060
71117W        W42843  44.943   1.940   4.048
71118W        W42844  26.115   0.906   2.364
71119W        W42845  40.489  16.829   4.559
71120W        W42846  25.148  39.528  12.337
71121W        W42847  35.943  19.017   2.987
71122W        W42848  36.786  43.852  10.637
71123W        W42849  19.629  14.157  11.120
71124W        W42850   2.925  38.334  12.933
71125W        W42851  20.137  41.869   4.504
71126W        W42852  14.197  22.101   4.701
71127W        W42853  17.877   6.866   3.870
71128W        W42854  12.336  36.806   1.665
71129W        W42855   8.316  30.163   4.520
71130W        W42856   0.696   7.223   0.277
71131W        W42857  37.466  33.260  11.266
71132W        W42858   7.087  41.126   2.836
71133W        W42859  36.089  15.021   2.861
71134W        W42860  32.827   5.692   4.682
71135W        W42861  20.531  24.912   1.626
71136W        W42862  11.177  19.590   1.275
71137W        W42863  38.890  21.605  12.958
71138W        W42864  16.613  33.038   3.997
71139W        W42865  16.543  37.253  10.851
71140W        W42866  24.002  44.382   3.189
71141W        W42867  19.488  43.932   2.665
71142W        W42868  42.194  11.783   2.651
71143W        W42869   4.264  23.136  10.669
71144W        W42870  15.110  23.511   0.513
71145W        W42871  32.506  29.124   1.464
71146W        W42872  36.042  29.573   0.839
71147W        W42873  31.068  10.264  13.652
71148W        W42874  15.044  36.132   1.698
71149W        W42875   6.870  17.920   4.791
71150W        W42876  36.826  33.956  13.408
71151W        W42877  44.835  38.456   0.266
71152W        W42878  20.997  39.868  14.502
71153W        W42879   2.019  33.608  14.966
71154W        W42880  29.623  37.100  11.715
71155W        W42881   7.652  32.085  12.576
71156W        W42882  31.497  16.639  12.863
71157W        W42883  29.173  20.677  11.649
71158W        W42884  38.435  11.035  13.043
71159W        W42885  18.546   7.369   1.978
71160W        W42886  36.713  37.900  12.411
71161W        W42887  29.489  29.692   1.313
71162W        W42888   3.891   0.412  12.986
71163W        W42889  18.704   3.665   4.074
71164W        W42890   8.962  10.503  12.795
71165W        W42891  38.074  39.269  14.823
71166W        W42892  38.959  44.277  14.720
71167W        W42893  44.965  36.588   3.262
71168W        W42894   5.388  12.602   1.954
71169W        W42895  35.066  27.118  10.579
71170W        W42896  17.629  40.370   3.278
71171W        W42897  30.985   6.863  11.720
71172W        W42898  36.119  25.171  12.312
71173W        W42899  39.778  40.871   1.821
71174W        W42900  25.747  24.611   1.520
71175W        W42901  22.806  34.409   3.755
71176W        W42902  14.734   5.433   4.037
71177W        W42903  42.244   4.304   0.915
71178W        W42904  36.069  10.711  12.909
71179W        W42905  39.605   0.967   2.600
71180W        W42906  35.087  10.193  11.113
71181W        W42907   7.712  19.925   3.198
71182W        W42908   5.996  23.551   2.695
71183W        W42909  20.208  26.375  13.312
71184W        W42910   0.486  40.816  11.627
71185W        W42911  23.621  15.117   2.808
71186W        W42912  10.811  22.893   9.790
71187W        W42913  38.254   8.256   0.356
71188W        W42914   4.705  21.533  13.556
71189W        W42915  44.963  39.415  13.451
71190W        W42916  36.156   8.191  11.536
71191W        W42917  10.899  24.002   4.283
71192W        W42918  10.357  27.541  11.057
71193W        W42919   1.750  16.159   1.779
71194W        W42920  22.735  32.991   4.539
71195W        W42921  41.351  35.471  11.093
71196W        W42922  14.156   0.527   2.365
71197W        W42923  26.943  10.537  14.974
71198W        W42924   8.913  23.591   4.714
71199W        W42925   4.357  43.467   4.101
71200W        W42926  38.312  36.297   3.203
71201W        W42927   6.306  34.519   0.653
71202W        W42928  19.413  41.076  11.170
71203W        W42929  11.882  29.884   9.987
71204W        W42930   9.650  16.117   0.554
71205W        W42931  30.142  42.754   0.059
71206W        W42932   3.989  29.945   3.150
71207W        W42933  33.547  10.715  10.585
71208W        W42934  22.335   1.783  12.343
71209W        W42935  26.016   7.988  10.753
71210W        W42936  24.575  18.743  12.388
71211W        W42937  33.859   9.999   4.316
71212W        W42938  23.483   1.345  13.691
71213W        W42939   0.762  29.382  14.359
71214W        W42940  20.658  41.082   1.903
71215W        W42941  14.790  20.083   3.720
71216W        W42942  15.373   4.251   2.083
71217W        W42943  10.691  31.878  14.450
71218W        W42944  34.132  14.776   2.798
71219W        W42945  13.714  12.895   4.304
71220W        W42946  30.842  10.777  12.430
71221W        W42947  22.828  30.732  13.510
71222W        W42948  40.011  41.909   0.297
71223W        W42949  18.709   4.469  14.780
71224W        W42950   3.383  39.984  11.879
71225W        W42951  18.188  14.407  11.590
71226W        W42952  41.749   0.268  10.971
71227W        W42953  40.427  20.631  11.535
71228W        W42954   1.927  18.815  12.982
71229W        W42955  31.141  25.215   1.473
71230W        W42956  22.643  36.961  10.394
71231W        W42957  16.313   8.587  13.735
71232W        W42958  30.149  15.408   1.899
71233W        W42959  34.816   6.900  13.530
71234W        W42960  25.252   5.252  14.597
71235W        W42961  10.422  36.201  12.918
71236W        W42962   9.788  15.080  12.895
71237W        W42963  27.642  35.058  10.712
71238W        W42964  39.935  38.564   2.311
71239W        W42965   4.128  16.257   1.727
71240W        W42966   3.793  10.747   1.815
71241W        W42967  30.317  10.665   1.295
71242W        W42968  12.587  43.408   0.393
71243W        W42969  13.534  34.923   1.427
71244W        W42970  30.889  24.015  12.622
71245W        W42971  31.858  13.925  13.729
71246W        W42972  39.169  20.747  11.109
71247W        W42973  34.048  30.430  13.421
71248W        W42974  42.961  14.836   2.759
71249W        W42975  27.566  38.489  10.414
71250W        W42976  40.496  40.972  10.832
71251W        W42977  24.612   3.723  11.648
71252W        W42978  17.606   6.975  12.037
71253W        W42979   3.365   9.403   4.568
71254W        W42980  33.003  27.466   2.843
71255W        W42981  25.975  14.119   2.296
71256W        W42982  44.809  38.946  12.606
71257W        W42983   9.357  31.622  13.440
71258W        W42984  35.998  23.398   0.012
71259W        W42985  33.199  42.504  11.964
71260W        W42986   8.265   1.863   1.867
71261W        W42987  15.157   6.739  11.132
71262W        W42988  43.324  39.474   4.611
71263W        W42989   1.099  44.897  14.829
71264W        W42990  44.458  34.910  13.007
71265W        W42991  41.497  44.856   3.304
71266W        W42992   7.911  17.194   4.071
71267W        W42993   1.744  27.177   2.278
71268W        W42994   5.243  24.310   0.823
71269W        W42995  19.477  32.127  11.471
71270W        W42996  43.611   4.156   1.930
71271W        W42997   0.961  33.796  11.904
71272W        W42998  22.811   6.284   5.147
71273W        W42999   9.370   9.542   2.132
71274W        W43000   4.459   1.334   3.658
71275W        W43001  39.409  29.910  13.404
71276W        W43002  40.775  32.094   3.334
71277W        W43003  27.400  40.960   4.107
71278W        W43004  16.114   4.811  13.307
71279W        W43005  31.133  17.874   2.659
71280W        W43006  16.677  31.857  12.447
71281W        W43007  43.978   9.638  12.442
71282W        W43008  23.617  42.776  11.581
71283W        W43009  11.249  33.705   0.500
71284W        W43010   8.065  22.347  13.871
71285W        W43011   2.977   4.479  14.177
71286W        W43012  42.573  14.063  13.057
71287W        W43013  18.027  21.836  12.343
71288W        W43014  29.006  40.999  13.454
71289W        W43015  44.136  34.917   2.371
71290W        W43016  36.557  14.883  12.434
71291W        W43017   0.782  36.134  11.092
71292W        W43018  16.558   1.391   1.364
71293W        W43019  14.700  28.407   4.577
71294W        W43020  10.808  25.612   4.222
71295W        W43021  27.118  22.673   9.495
71296W        W43022   7.380  18.378  10.758
71297W        W43023   0.956  40.644  12.105
71298W        W43024  32.834  29.246  10.810
71299W        W43025   9.665  18.514   4.656
71300W        W43026  34.406  23.964   0.007
71301W        W43027  34.378  25.225  11.084
71302W        W43028   3.523  26.962  11.931
71303W        W43029  40.808  30.575  13.483
71304W        W43030  10.135  25.488  10.682
71305W        W43031   6.332  35.152   1.382
71306W        W43032   1.799  12.276   4.795
71307W        W43033  26.965   5.423  13.373
71308W        W43034   2.439   7.711   2.243
71309W        W43035   7.258  12.159  11.595
71310W        W43036  16.491   2.909  10.770
71311W        W43037   2.862  18.093   4.044
71312W        W43038  25.549  40.559   4.281
71313W        W43039  38.570  10.582   0.450
71314W        W43040  13.065  24.918   5.075
71315W        W43041  42.021  24.264  11.520
71316W        W43042  33.041  36.002  14.977
71317W        W43043  35.287  42.700  13.020
71318W        W43044   2.761   0.298   0.047
71319W        W43045  10.202  29.385  14.205
71320W        W43046  16.583   1.290  14.353
71321W        W43047   9.105  37.846  11.166
71322W        W43048  17.144  44.827   3.577
71323W        W43049   9.216  34.982  14.580
71324W        W43050  16.489  41.952   2.364
71325W        W43051  24.134  34.554   4.855
71326W        W43052   6.207  27.461  11.177
71327W        W43053  25.406  43.949  13.438
71328W        W43054   5.241  32.371   0.137
71329W        W43055  17.384  10.593   1.091
71330W        W43056  11.271  26.146   2.288
71331W        W43057  25.955  35.899  10.610
71332W        W43058  15.048   8.977  11.673
71333W        W43059  35.926  17.658   0.474
71334W        W43060  44.571   5.407  13.026
71335W        W43061  34.957  11.803  12.075
71336W        W43062  18.120  12.881   2.735
71337W        W43063  41.267   4.291  11.484
71338W        W43064  23.793  13.697   4.322
71339W        W43065  40.927  12.286  11.486
71340W        W43066  33.443  22.812   4.178
71341W        W43067   0.704  17.307   3.683
71342W        W43068  16.308   1.557  10.768
71343W        W43069  27.786  12.633  11.275
71344W        W43070   2.711  20.696   2.447
71345W        W43071   4.202  26.658  10.669
71346W        W43072  29.837  16.747  11.330
71347W        W43073  26.545   3.616   4.022
71348W        W43074   6.666  13.824   5.017
71349W        W43075  32.460   1.355   1.965
71350W        W43076  38.453  35.192   4.269
71351W        W43077  11.907   7.351   5.061
71352W        W43078   4.208  19.599  10.520
71353W        W43079  39.346   5.425  14.219
71354W        W43080  16.305  14.381   3.352
71355W        W43081   7.838  26.240   3.889
71356W        W43082  25.871  13.349   1.814
71357W        W43083  17.269  27.097   2.928
71358W        W43084  39.168   3.714  11.139
71359W        W43085  12.160  32.533  13.376
71360W        W43086  18.522   0.984  10.770
71361W        W43087  17.148  32.421  12.294
71362W        W43088   0.954  34.974  13.810
71363W        W43089   7.450  11.356   2.742
71364W        W43090  39.692  28.062   2.629
71365W        W43091  44.239  30.960   4.557
71366W        W43092  12.703  40.781  10.705
71367W        W43093  28.549  29.390  10.677
71368W        W43094   7.221  44.848   1.704
71369W        W43095  39.214  30.543  11.109
71370W        W43096  21.753  22.024  12.445
71371W        W43097  14.262  18.013  13.062
71372W        W43098  30.953   3.887  11.207
71373W        W43099  37.454  10.126  12.379
71374W        W43100  31.544  28.602  12.455
71375W        W43101   2.920  39.705  12.606
71376W        W43102   5.338  29.041   0.291
71377W        W43103   5.531  19.716   0.754
71378W        W43104  42.023  39.542   0.986
71379W        W43105  35.602   0.838   2.290
71380W        W43106  41.803   9.355   1.822
71381W        W43107  23.937  40.542   2.735
71382W        W43108  17.348  24.054  12.398
71383W        W43109   7.611  16.822   4.241
71384W        W43110  26.708  41.766   4.677
71385W        W43111  39.595  26.650  12.522
71386W        W43112  16.276  28.481   2.069
71387W        W43113  15.595  37.615  12.938
71388W        W43114  42.047   4.408  12.736
71389W        W43115   9.800  43.876   4.419
71390W        W43116  20.624   7.747  13.904
71391W        W43117  41.842  27.061   1.276
71392W        W43118  18.218  35.990  11.659
71393W        W43119  31.073   3.280   3.866
71394W        W43120   8.504  30.071  12.885
71395W        W43121  35.259  11.777  14.854
71396W        W43122  11.768   9.403  13.811
71397W        W43123  11.296  32.336   1.823
71398W        W43124   6.133  42.729   1.196
71399W        W43125  17.253  38.147   2.287
71400W        W43126  37.025  43.346   3.967
71401W        W43127  43.073  40.158   4.140
71402W        W43128  32.956  25.475   1.461
71403W        W43129   4.891   9.847   2.802
71404W        W43130  24.731  26.985   2.894
71405W        W43131  28.438  33.000   3.200
71406W        W43132  21.645  37.525   1.259
71407W        W43133  14.869  38.263   3.657
71408W        W43134  19.732  29.950  13.036
71409W        W43135  33.639  25.497   2.677
71410W        W43136  36.342  44.456   0.961
71411W        W43137  27.412  39.909  10.558
71412W        W43138   7.359   6.930   2.386
71413W        W43139  14.218  14.295   1.335
71414W        W43140  33.463  33.228   4.695
71415W        W43141  18.400  19.599   5.098
71416W        W43142   4.892  40.499   3.645
71417W        W43143  24.342  33.248  14.107
71418W        W43144  28.095  28.589   2.770
71419W        W43145  29.648  29.678   5.180
71420W        W43146   9.375  42.459  13.814
71421W        W43147  43.470   6.338  11.889
71422W        W43148  20.028   3.014   1.438
71423W        W43149  23.022  34.650  14.233
71424W        W43150  37.133  29.781   3.220
71425W        W43151  42.443  13.348   1.852
71426W        W43152  40.633   6.386  14.091
71427W        W43153  36.140  33.026  10.570
71428W        W43154  39.977  28.056  11.690
71429W        W43155  11.516  44.876  14.261
71430W        W43156   7.866  25.736   4.000
71431W        W43157  15.655  27.128   0.480
71432W        W43158   4.982  36.010  13.098
71433W        W43159  13.269   1.897  12.842
71434W        W43160  39.970  33.354   1.797
71435W        W43161  36.527  38.377  13.410
71436W        W43162  11.524  17.527  14.405
71437W        W43163  19.008   1.088  12.564
71438W        W43164  23.744  35.734  12.091
71439W        W43165  14.619  19.275   1.611
71440W        W43166  23.025   7.312  14.824
71441W        W43167  18.450   0.213   1.648
71442W        W43168  11.001  10.622   1.275
71443W        W43169  30.910   5.203  12.803
71444W        W43170  35.290  16.301   1.513
71445W        W43171  41.376  13.557  14.016
71446W        W43172  12.039  39.590   1.380
71447W        W43173   8.151  20.706   1.414
71448W        W43174   3.939   1.350  13.437
71449W        W43175   7.939  16.197   2.341
71450W        W43176  40.269  38.206  14.856
71451W        W43177  32.713  35.600   1.774
71452W        W43178  26.649  24.202   5.126
71453W        W43179  37.464  13.238   3.399
71454W        W43180  19.237  30.475  14.416
71455W        W43181  35.020  39.817  13.590
71456W        W43182  13.925   2.347  11.056
71457W        W43183  19.106  10.180   1.763
71458W        W43184  25.453   8.705   4.186
71459W        W43185   7.689  26.697   1.657
71460W        W43186  14.089   7.693   0.049
71461W        W43187  32.610  11.451   1.503
71462W        W43188  18.887  10.258  12.095
71463W        W43189  26.097  40.056  10.667
71464W        W43190  29.854  15.766   3.150
71465W        W43191   1.405  20.157   3.740
71466W        W43192   0.121  14.107   4.762
71467W        W43193  23.430   0.457  11.838
71468W        W43194   7.606  32.537   2.688
71469W        W43195  31.391  22.313  10.755
71470W        W43196   7.602   4.769   0.794
71471W        W43197   9.142  12.221  12.281
71472W        W43198  26.148  17.203  10.988
71473W        W43199  11.730   2.551   4.149
71474W        W43200  24.118  35.509   0.833
71475W        W43201  16.066   6.506  14.361
71476W        W43202   5.794   8.673  11.411
71477W        W43203  43.297  29.000   1.373
71478W        W43204  32.125  37.831   3.274
71479W        W43205  29.642   7.024   3.172
71480W        W43206   6.495  20.676   4.147
71481W        W43207   1.417  37.352   0.834
71482W        W43208  17.489   2.552  11.869
71483W        W43209  16.247   3.213  11.672
71484W        W43210  22.063  33.537  14.403
71485W        W43211   0.392   3.817  14.223
71486W        W43212  35.489  36.047  14.579
71487W        W43213   6.746  24.531   1.828
71488W        W43214  22.948  38.072   0.454
71489W        W43215   8.256  37.768  11.610
71490W        W43216  18.315  32.928   2.219
71491W        W43217  16.627  36.060   4.729
71492W        W43218  36.833  22.648   3.214
71493W        W43219  18.782   3.170  12.070
71494W        W43220  42.003  21.608   3.786
71495W        W43221  41.783  34.330   3.358
71496W        W43222  31.436  14.823  11.547
71497W        W43223  30.136   3.761  11.508
71498W        W43224  40.281  19.275  14.937
71499W        W43225  11.659   6.350  11.339
71500W        W43226  34.228  11.852  10.643
71501W        W43227   2.328  21.509  12.497
71502W        W43228  15.437  31.532   3.318
71503W        W43229   4.183   8.125   0.984
71504W        W43230  39.776  21.794  11.215
71505W        W43231  35.534   3.296  11.207
71506W        W43232  28.385  24.654   3.790
71507W        W43233  23.627  15.525   5.007
71508W        W43234  25.593  18.156   0.269
71509W        W43235   0.332  21.279   3.727
71510W        W43236  12.373  44.314   1.854
71511W        W43237  34.056  36.817  14.018
71512W        W43238  39.509  43.740  10.731
71513W        W43239  13.332  10.879   1.282
71514W        W43240   4.434  12.176  11.499
71515W        W43241  10.761  18.113  10.610
71516W        W43242  33.902  28.039   2.588
71517W        W43243  31.906  21.196   4.193
71518W        W43244  16.253  13.917   4.317
71519W        W43245   2.699   3.260  12.111
71520W        W43246  42.187   5.766  11.114
71521W        W43247  37.986  32.498   4.069
71522W        W43248  40.517  12.608   0.727
71523W        W43249  38.076  14.802   3.173
71524W        W43250  12.641  11.294   1.706
71525W        W43251  34.819  17.650  12.145
71526W        W43252  38.900  28.606   1.394
71527W        W43253  38.848  14.574  10.587
71528W        W43254  37.037  11.790  14.479
71529W        W43255   3.529  24.762   0.654
71530W        W43256   2.448  25.313  14.793
71531W        W43257  19.732   9.360   0.873
71532W        W43258  16.589   1.910   1.439
71533W        W43259  10.700  34.571   5.322
71534W        W43260  35.493  35.507  11.513
71535W        W43261   6.744  29.939  10.448
71536W        W43262  36.155  11.460  13.445
71537W        W43263  20.914  24.946   3.081
71538W        W43264   7.375  26.189  14.348
71539W        W43265   2.989  10.912   1.511
71540W        W43266  32.429  25.144  13.006
71541W        W43267   6.594  42.920   3.554
71542W        W43268   2.177  18.955  13.404
71543W        W43269  28.530  33.136  11.653
71544W        W43270  24.485  30.650  14.857
71545W        W43271  42.293   1.483  10.543
71546W        W43272   0.926  27.926   4.468
71547W        W43273   8.164  43.866  14.957
71548W        W43274  29.023  21.472  11.966
71549W        W43275  30.139  15.415   5.115
71550W        W43276   8.475  34.144  10.393
71551W        W43277  44.278   3.888  12.151
71552W        W43278  43.543  25.980  12.819
71553W        W43279  18.263  26.481  11.403
71554W        W43280  14.223  40.901   4.461
71555W        W43281   5.244   6.875   0.225
71556W        W43282  40.858  18.064  13.100
71557W        W43283   0.581   7.836  12.854
71558W        W43284   5.211   2.046   1.218
71559W        W43285  15.599  35.078  13.461
71560W        W43286  38.883  17.736   3.732
71561W        W43287   7.602  18.920   4.053
71562W        W43288  13.809  28.394  13.319
71563W        W43289   3.263  13.239   1.591
71564W        W43290  10.315  22.213  13.246
71565W        W43291  17.659   6.731   1.274
71566W        W43292  20.495  23.489   3.342
71567W        W43293  20.137  38.450   4.575
71568W        W43294   5.775  41.435  12.270
71569W        W43295  38.473  20.633  13.844
71570W        W43296  27.264   1.427  14.342
71571W        W43297  44.799  21.264  11.948
71572W        W43298   9.871   0.836  10.735
71573W        W43299  17.746  25.374   1.459
71574W        W43300  16.680  19.062   3.767
71575W        W43301  34.572   3.936   3.620
71576W        W43302  38.111  14.862  11.058
71577W        W43303  41.021   7.687  13.813
71578W        W43304  41.852  18.478   3.388
71579W        W43305   3.706  42.496  14.564
71580W        W43306  19.549  20.629  14.132
71581W        W43307  30.884  24.578  11.560
71582W        W43308  39.868  33.212   0.432
71583W        W43309  27.056  29.921  11.548
71584W        W43310  35.819  29.112   1.984
71585W        W43311  38.504  38.524  12.576
71586W        W43312  43.768   8.898   3.625
71587W        W43313  24.618  43.096   3.178
71588W        W43314  41.551  28.424  12.760
71589W        W43315  26.694  38.465  12.353
71590W        W43316   8.151  41.821   1.711
71591W        W43317  12.080  38.586   2.618
71592W        W43318  39.084  24.144   4.124
71593W        W43319  21.672  15.149  11.051
71594W        W43320  14.674   1.730  13.041
71595W        W43321  41.649  16.258   4.342
71596W        W43322  11.328   5.222   3.597
71597W        W43323   1.944   1.891   2.891
71598W        W43324  29.466  31.459   0.876
71599W        W43325   7.875  36.836  12.907
71600W        W43326  38.786   2.799   9.823
71601W        W43327   5.776  16.012  11.671
71602W        W43328  16.300  18.519  11.175
71603W        W43329  25.624   8.702   0.741
71604W        W43330  20.221  15.744   9.998
71605W        W43331  31.183   7.655  11.978
71606W        W43332  41.873  39.270  10.712
71607W        W43333  29.087  19.380   5.052
71608W        W43334  23.435  19.552  14.440
71609W        W43335  18.865   2.007  14.848
71610W        W43336  26.156  11.704  13.506
71611W        W43337  13.320   9.136  14.497
71612W        W43338  39.689  13.162  14.130
71613W        W43339  14.050  24.230   4.801
71614W        W43340  24.321  32.264   5.237
71615W        W43341  25.008   9.226  13.260
71616W        W43342  15.274  32.874  12.578
71617W        W43343  21.965  30.173  13.580
71618W        W43344  26.270   2.887   2.683
71619W        W43345  36.809   8.189   4.988
71620W        W43346  32.788  18.890  10.752
71621W        W43347  43.839  21.308   0.757
71622W        W43348  11.680   2.761   3.690
71623W        W43349  13.694  24.213   4.430
71624W        W43350  12.773  13.337   3.655
71625W        W43351  25.683   5.822   4.572
71626W        W43352  14.503  32.143  13.529
71627W        W43353   1.076  21.197   3.830
71628W        W43354  25.515   3.815  11.556
71629W        W43355   8.247  40.051  13.013
71630W        W43356   8.367  28.105   4.624
71631W        W43357  20.285  24.031  12.647
71632W        W43358   4.851  11.656   2.462
71633W        W43359   8.675  13.732   3.407
71634W        W43360  40.229  31.208  14.032
71635W        W43361  20.659  14.055  10.992
71636W        W43362  10.573  42.735  14.513
71637W        W43363   8.130  11.713  11.506
71638W        W43364  29.595  44.392   3.669
71639W        W43365  33.027  14.277   0.480
71640W        W43366  39.564   3.065   1.331
71641W        W43367  15.311   8.937   2.756
71642W        W43368  13.538   4.750  14.454
71643W        W43369  28.105  25.179  10.639
71644W        W43370   1.825  22.935   3.261
71645W        W43371  36.901   7.469  13.743
71646W        W43372  14.047  22.409  14.993
71647W        W43373  39.972  25.634   0.360
71648W        W43374   6.155  40.565  11.962
71649W        W43375   9.363  36.326  13.001
71650W        W43376   7.189  43.499  12.495
71651W        W43377  25.615   4.227  12.389
71652W        W43378  22.194   5.693  12.101
71653W        W43379  19.645  23.135  13.970
71654W        W43380  21.025  13.516  13.356
71655W        W43381  40.997  44.501  12.965
71656W        W43382  42.592  25.928  14.302
71657W        W43383   4.797   2.347  12.929
71658W        W43384  27.910   7.349   4.596
71659W        W43385  12.198  32.347   3.651
71660W        W43386  24.501  44.702   0.977
71661W        W43387  22.071   2.000  13.860
71662W        W43388  31.987   9.168   0.447
71663W        W43389   3.342  40.956   4.633
71664W        W43390  25.015  32.560  11.449
71665W        W43391  24.676  12.907   5.377
71666W        W43392  32.181  16.519  12.606
71667W        W43393  21.473  22.143  12.854
71668W        W43394  43.290  25.066  11.169
71669W        W43395  25.154  22.177  12.447
71670W        W43396  24.023   6.417  14.299
71671W        W43397  41.325   0.124  11.240
71672W        W43398  23.014  23.046  14.767
71673W        W43399   1.711  36.253  11.164
71674W        W43400  41.670  25.928  12.055
71675W        W43401  23.609  36.785  14.543
71676W        W43402  15.225  42.693  13.254
71677W        W43403  19.479  28.955  13.926
71678W        W43404  20.299  30.923   4.123
71679W        W43405   2.332   8.153   2.846
71680W        W43406   4.838  20.730   1.891
71681W        W43407  25.919  37.534  14.300
71682W        W43408  34.253  28.617   3.317
71683W        W43409  25.199  39.938  13.239
71684W        W43410  22.320   0.378   2.685
71685W        W43411  34.059  30.425   3.166
71686W        W43412  25.140  42.708   4.001
71687W        W43413  40.857  14.661   3.219
71688W        W43414  41.116  25.018  13.966
71689W        W43415   8.364   8.305   3.704
71690W        W43416   4.705  21.283   4.548
71691W        W43417  40.999  17.224   3.137
71692W        W43418   0.533  11.392  11.169
71693W        W43419  44.911   8.455   0.756
71694W        W43420  23.725   1.182   2.401
71695W        W43421  22.276  39.383   0.712
71696W        W43422  34.062   6.309   0.455
71697W        W43423  42.241  17.411   3.239
71698W        W43424  42.342  14.868   0.978
71699W        W43425   9.301   0.712  11.513
71700W        W43426   0.814  41.500   2.227
71701W        W43427  44.838  11.699   0.231
71702W        W43428  12.358  26.487  11.558
71703W        W43429  14.856  24.476   3.213
71704W        W43430  37.404   0.507   0.270
71705W        W43431   2.533  20.240  13.571
71706W        W43432  33.019  27.478   4.814
71707W        W43433   7.863   5.454   3.426
71708W        W43434  25.066  31.846  13.055
71709W        W43435  25.580   2.303   4.463
71710W        W43436  11.284  33.661   3.191
71711W        W43437   7.203  13.142  12.455
71712W        W43438  16.542  35.495   1.878
71713W        W43439  38.594  35.567   2.748
71714W        W43440  36.803  22.667   4.124
71715W        W43441   1.321   0.721   4.128
71716W        W43442   9.329  23.765  13.810
71717W        W43443  39.994  34.402   4.052
71718W        W43444  10.385  10.907  13.058
71719W        W43445  10.271  27.433  14.468
71720W        W43446  27.671  39.895   2.215
71721W        W43447  15.626  18.965   3.846
71722W        W43448  41.834   2.856   3.643
71723W        W43449   7.315   8.961  13.426
71724W        W43450   7.959  17.757  11.899
71725W        W43451  28.231  21.760  14.845
71726W        W43452  36.362   3.538  11.001
71727W        W43453  22.187   8.446  12.608
71728W        W43454  30.311  27.950  13.438
71729W        W43455  43.784  14.075  13.612
71730W        W43456  27.897  31.460  14.274
71731W        W43457  24.556  42.003  12.602
71732W        W43458  30.483   6.046   2.000
71733W        W43459   5.306  42.940  13.211
71734W        W43460  35.363   6.491  13.827
71735W        W43461  13.821  27.495   3.471
71736W        W43462  15.385  12.542   0.714
71737W        W43463   1.786  18.563  10.720
71738W        W43464  36.915  16.710   4.466
71739W        W43465   9.884  22.517  13.320
71740W        W43466  30.485  31.052  11.471
71741W        W43467   4.321  34.007   3.314
71742W        W43468   7.374  28.984  11.526
71743W        W43469  40.445  24.452   2.344
71744W        W43470   1.323   1.570   2.542
71745W        W43471  18.070  14.303   3.717
71746W        W43472  21.448  22.563   4.243
71747W        W43473  43.851   9.282  13.038
71748W        W43474  35.115   9.014   0.740
71749W        W43475  25.296  35.347   1.717
71750W        W43476  33.305  32.559  14.452
71751W        W43477  10.814  43.152   3.782
71752W        W43478  16.901  44.886  11.569
71753W        W43479  32.108  20.518  12.532
71754W        W43480  31.023  11.893   3.604
71755W        W43481  13.724  34.957  11.241
71756W        W43482  23.744  42.956  11.127
71757W        W43483  21.101  33.870   2.688
71758W        W43484  35.910  43.717  13.430
71759W        W43485  26.539   7.198  14.432
71760W        W43486  30.989  21.653   1.345
71761W        W43487   9.144   3.784  13.862
71762W        W43488  22.353  10.912  12.816
71763W        W43489  33.632   0.080  11.924
71764W        W43490   2.314  32.054  12.860
71765W        W43491   4.129  22.802   3.324
71766W        W43492  41.359  36.953  12.068
71767W        W43493  19.637   5.611   2.328
71768W        W43494   8.421  34.618   4.070
71769W        W43495   4.887  33.370   9.937
71770W        W43496   4.987  32.897  11.044
71771W        W43497   6.951   8.312  13.769
71772W        W43498  23.770   3.613   3.373
71773W        W43499  26.225  23.288  12.344
71774W        W43500  13.205   3.414  10.278
71775W        W43501  29.349  34.201   3.753
71776W        W43502  29.244  32.572   4.858
71777W        W43503  39.787   5.214   4.641
71778W        W43504   1.140  20.558   0.916
71779W        W43505  44.029  31.476  12.914
71780W        W43506  38.403  33.927  12.441
71781W        W43507  37.970  43.591   4.644
71782W        W43508  26.490  21.140  13.094
71783W        W43509  39.778  32.115  11.465
71784W        W43510   1.316  34.855   0.296
71785W        W43511  37.388  17.181   3.089
71786W        W43512   5.367   9.130   3.348
71787W        W43513  10.547  37.412  14.488
71788W        W43514  26.905   6.727  11.628
71789W        W43515  44.339  31.120  14.471
71790W        W43516   6.071  15.865  13.807
71791W        W43517  17.189  43.820   4.567
71792W        W43518  39.427  41.882   4.291
71793W        W43519  42.742  17.616   1.499
71794W        W43520  14.847   7.143  13.201
71795W        W43521  18.237  18.344  11.882
71796W        W43522   6.912   5.744   3.734
71797W        W43523  36.851  37.991   3.219
71798W        W43524  10.903  14.049   4.917
71799W        W43525  24.851  29.095  11.030
71800W        W43526  37.049  25.189  11.865
71801W        W43527  12.169  35.054   4.217
71802W        W43528   5.240   9.792   3.672
71803W        W43529  14.319  42.880   2.912
71804W        W43530   2.320  31.146  14.326
71805W        W43531  19.375  24.677  12.868
71806W        W43532  17.480  38.856  12.943
71807W        W43533  30.294  15.793   3.396
71808W        W43534  28.083   0.237   0.347
71809W        W43535  32.403  41.361   2.261
71810W        W43536  10.797   6.075  11.561
71811W        W43537  36.518   4.317  12.040
71812W        W43538   0.922  25.030  10.656
71813W        W43539  24.355  18.771   1.279
71814W        W43540  11.712  43.948   1.932
71815W        W43541  41.534  22.577   4.606
71816W        W43542  41.941  10.657  14.482
71817W        W43543  18.232  28.424   2.861
71818W        W43544  10.679  12.259  11.895
71819W        W43545  24.737  13.321  11.623
71820W        W43546   7.271   5.684   1.768
71821W        W43547  25.893  11.845   1.868
71822W        W43548   6.223  13.666   0.134
71823W        W43549  44.329  28.460  10.710
71824W        W43550   1.169  10.266  13.929
71825W        W43551  43.046   9.273   2.211
71826W        W43552  38.626  13.768  11.030
71827W        W43553  18.951  39.173   0.837
71828W        W43554  42.004   8.318  11.850
71829W        W43555  19.981  26.093   1.841
71830W        W43556  30.695  28.020   2.379
71831W        W43557  25.742   9.630  12.000
71832W        W43558  23.282  37.090   0.392
71833W        W43559  36.115  23.678  11.741
71834W        W43560   0.864   3.934  11.713
71835W        W43561   5.766  25.208   0.329
71836W        W43562   8.359   1.740   2.356
71837W        W43563   4.259  15.798   1.525
71838W        W43564  17.523  22.082   3.444
71839W        W43565  24.995  12.528   2.973
71840W        W43566  17.161  26.488  14.408
71841W        W43567  31.952  10.094   1.325
71842W        W43568   0.741  18.640   3.649
71843W        W43569  32.027  35.113   2.848
71844W        W43570   7.889   9.203   3.742
71845W        W43571  26.091   7.957  11.527
71846W        W43572   7.646  20.682   3.689
71847W        W43573   0.690  11.758  14.798
71848W        W43574   9.740  28.516  10.797
71849W        W43575  41.858   2.202   2.058
71850W        W43576  19.305   1.979  12.559
71851W        W43577  26.016  31.352  11.136
71852W        W43578  11.797  23.451  12.841
71853W        W43579  14.314   8.295   0.816
71854W        W43580  17.048  23.216  10.926
71855W        W43581  23.203   8.390  11.601
71856W        W43582  26.011  12.069  14.740
71857W        W43583   0.805  30.883   2.624
71858W        W43584   1.316  40.532  10.748
71859W        W43585  35.909  26.137  13.942
71860W        W43586  31.558  30.464   2.960
71861W        W43587   2.151  29.502  12.971
71862W        W43588  17.517  39.012  11.016
71863W        W43589  36.101  27.694   2.378
71864W        W43590  11.170   9.628   1.265
71865W        W43591  14.755   2.326  13.872
71866W        W43592  10.354   2.566   0.289
71867W        W43593  41.895   2.548  11.184
71868W        W43594  35.166  24.050  13.435
71869W        W43595  22.335  29.494   3.727
71870W        W43596   9.719  23.579  10.964
71871W        W43597  16.882  44.804   0.731
71872W        W43598   7.136  31.537  11.563
71873W        W43599  12.169  36.602  10.638
71874W        W43600  44.976   9.142  13.524
71875W        W43601  11.689  26.659  12.600
71876W        W43602  21.007  41.044   2.731
71877W        W43603  33.339  24.715  13.542
71878W        W43604  19.335  15.548  14.501
71879W        W43605  40.800   4.959  11.917
71880W        W43606  11.978  23.606   3.804
71881W        W43607  39.287   6.197  12.028
71882W        W43608  16.220  37.470  14.268
71883W        W43609   4.395   5.269  11.890
71884W        W43610  21.081  21.710   1.010
71885W        W43611  33.141  29.502  12.329
71886W        W43612   1.434  20.181  14.371
71887W        W43613   1.215  43.997   0.852
71888W        W43614   2.908  40.437  13.999
71889W        W43615  34.861   2.880   1.724
71890W        W43616  29.931  12.254  14.041
71891W        W43617   1.439   6.139  14.858
71892W        W43618  25.037  17.041  11.824
71893W        W43619   8.774  30.958   2.641
71894W        W43620  26.308  23.956   3.298
71895W        W43621  26.676   8.422  11.199
71896W        W43622  15.218  27.446  11.569
71897W        W43623  12.122  33.627   2.299
71898W        W43624  10.218  18.469   3.788
71899W        W43625  29.301   4.360  14.893
71900W        W43626  21.572  26.091  14.796
71901W        W43627   4.752   3.433  10.985
71902W        W43628  19.067  23.881   4.812
71903W        W43629  25.678  35.513  10.397
71904W        W43630  21.637  24.406   2.182
71905W        W43631   2.263  18.040   1.299
71906W        W43632   0.058   6.913  14.701
71907W        W43633  29.370   7.782  14.871
71908W        W43634  43.254  17.680   0.283
71909W        W43635  44.168  32.515  10.756
71910W        W43636  44.912  37.689   2.397
71911W        W43637  26.177   3.608  14.386
71912W        W43638  18.233  28.574   4.595
71913W        W43639  24.095  26.941  12.102
71914W        W43640  28.267  41.896   2.572
71915W        W43641   9.039  25.875  12.066
71916W        W43642  12.914  28.590   4.036
71917W        W43643   7.684   4.266  11.843
71918W        W43644  43.539  44.120  14.746
71919W        W43645  37.924   4.292  14.211
71920W        W43646  23.010  11.186   3.881
71921W        W43647  24.822  41.890   0.790
71922W        W43648  44.258  33.912   3.219
71923W        W43649  41.104  20.800  14.013
71924W        W43650  33.344  29.915  14.365
71925W        W43651  22.546   0.219  14.545
71926W        W43652   0.366  20.614  11.846
71927W        W43653  41.944  32.306   2.364
71928W        W43654   1.591  24.324  13.531
71929W        W43655   0.285  22.015   4.325
71930W        W43656  11.279  27.049   2.733
71931W        W43657  19.125  39.224  13.542
71932W        W43658  31.933  16.273  10.927
71933W        W43659  36.132  13.647   1.792
71934W        W43660   5.815  13.405   3.229
71935W        W43661   0.502  34.529  13.325
71936W        W43662   0.328  17.279   1.250
71937W        W43663  41.615  19.707  13.472
71938W        W43664   0.911  30.631   4.263
71939W        W43665  38.942  31.927  12.889
71940W        W43666  33.048  13.096   0.493
71941W        W43667   4.326   2.966   0.096
71942W        W43668  27.895  27.685  12.723
71943W        W43669  10.793  33.941  11.482
71944W        W43670  18.174  10.203   1.379
71945W        W43671   1.044   2.403   3.281
71946W        W43672   0.147  20.067  14.722
71947W        W43673  17.548  18.032  12.381
71948W        W43674  41.719   6.650  11.117
71949W        W43675  43.998  20.252  12.560
71950W        W43676  32.871  31.161   3.346
71951W        W43677   5.924   2.683   0.948
71952W        W43678  28.066  38.400  11.983
71953W        W43679  33.958  27.882  11.063
71954W        W43680  11.466  13.222   0.471
71955W        W43681  29.662  38.982   2.930
71956W        W43682  17.588  13.495  12.555
71957W        W43683  37.198  23.968   4.506
71958W        W43684  14.705   4.405  12.293
71959W        W43685   4.216  20.070  11.933
71960W        W43686   2.289  14.071   0.319
71961W        W43687  20.987  40.811  13.775
71962W        W43688   4.209  14.703  13.867
71963W        W43689  23.823   9.936  13.776
71964W        W43690  10.460  11.907  14.966
71965W        W43691  22.660  39.828   4.523
71966W        W43692  32.873  31.795   0.953
71967W        W43693  32.768   3.027  14.374
71968W        W43694   3.072   3.542   3.806
71969W        W43695   6.267  34.121  14.513
71970W        W43696   6.264   8.319   2.968
71971W        W43697  23.523  16.519  13.031
71972W        W43698  10.114  17.104  11.515
71973W        W43699  16.785   7.716   1.838
71974W        W43700  13.916  44.005   2.801
71975W        W43701  42.485  37.443   1.179
71976W        W43702   7.597   7.618   4.566
71977W        W43703   8.632   5.513  13.538
71978W        W43704   9.226   9.643  14.894
71979W        W43705  29.786  35.609   3.328
71980W        W43706   4.803  29.062  12.411
71981W        W43707   0.289  30.050   0.338
71982W        W43708  31.641  33.982   0.396
71983W        W43709  36.299  31.031   2.912
71984W        W43710  39.760  37.300   2.889
71985W        W43711  19.015  19.683  11.066
71986W        W43712  23.057   7.874  12.530
71987W        W43713  30.635  44.000  12.922
71988W        W43714  24.035  22.123   4.608
71989W        W43715   0.992  15.051   4.618
71990W        W43716   9.353   4.544   3.774
71991W        W43717  23.562  12.835  12.788
71992W        W43718  30.012  24.973   0.680
71993W        W43719  34.758   5.837  12.389
71994W        W43720  43.357  20.808  11.674
71995W        W43721  15.269  25.776   1.905
71996W        W43722   7.482   0.738   4.276
71997W        W43723  36.820  23.357   1.711
71998W        W43724  17.077   3.485  11.155
71999W        W43725  14.831  37.006  13.903
72000W        W43726  38.295  32.160   3.347
72001W        W43727  24.563  31.457  11.553
72002W        W43728  33.568  44.434  10.188
72003W        W43729  42.789  28.302   5.405
72004W        W43730  40.474  21.432   2.303
72005W        W43731  28.559  43.483  11.452
72006W        W43732  20.125  15.982  14.248
72007W        W43733   1.549   5.859   0.320
72008W        W43734  25.248  15.845  11.721
72009W        W43735  40.237   5.173   4.329
72010W        W43736  21.242   3.585  10.492
72011W        W43737  41.472  16.169   0.829
72012W        W43738   8.412  25.054  12.053
72013W        W43739   5.355   5.959   5.065
72014W        W43740   2.437  36.615   1.737
72015W        W43741  43.774  34.883  10.569
72016W        W43742  32.362  33.941   3.222
72017W        W43743  26.155   5.459  14.091
72018W        W43744  27.800   2.305  13.442
72019W        W43745   3.436   2.930   0.133
72020W        W43746  20.754   0.325  13.833
72021W        W43747  15.886  44.659   4.491
72022W        W43748  42.283  29.572  14.474
72023W        W43749  39.077  44.736   0.436
72024W        W43750  33.848   1.317  14.264
72025W        W43751  10.103  34.351   2.223
72026W        W43752  38.792  12.895  12.974
72027W        W43753   7.762   2.749  14.828
72028W        W43754  18.733  35.142   1.527
72029W        W43755   9.736   9.257  12.428
72030W        W43756   8.835  42.009  10.513
72031W        W43757  29.301  43.374  10.958
72032W        W43758  29.642   5.437  12.624
72033W        W43759  32.522   2.672  12.351
72034W        W43760  21.805  18.326  13.495
72035W        W43761  15.742  16.800  13.085
72036W        W43762   4.937  43.390  12.333
72037W        W43763  32.842  42.365  11.445
72038W        W43764  30.296  10.354  12.043
72039W        W43765  41.767  27.623  13.348
72040W        W43766  27.080   9.167  11.526
72041W        W43767  23.682  42.957   4.350
72042W        W43768  27.959  15.604   3.632
72043W        W43769  30.449   3.292   3.655
72044W        W43770  18.202  14.599   0.348
72045W        W43771  24.104  21.277   0.719
72046W        W43772  10.903  35.785  10.596
72047W        W43773  32.447  32.674  13.302
72048W        W43774  40.879   8.676  12.388
72049W        W43775  26.239  18.661   1.973
72050W        W43776  14.750   5.677   1.982
72051W        W43777  44.588  30.494  11.550
72052W        W43778  38.836   0.640  11.931
72053W        W43779   9.973   3.239   4.754
72054W        W43780  28.162  11.644   3.786
72055W        W43781  10.098  27.718   9.532
72056W        W43782   3.153  33.518  12.883
72057W        W43783  26.589  25.016  11.642
72058W        W43784  32.939  39.014  14.502
72059W        W43785   2.744  12.469  12.618
72060W        W43786  44.778   8.156  11.161
72061W        W43787  43.797  27.980  12.545
72062W        W43788   2.194  10.668   0.306
72063W        W43789  15.385   8.793  14.034
72064W        W43790  10.060   0.407   1.317
72065W        W43791  21.232   0.850  12.523
72066W        W43792  28.444  12.238  11.532
72067W        W43793  25.017   0.184   5.115
72068W        W43794  29.152  35.486  11.237
72069W        W43795  24.174  38.018  14.288
72070W        W43796   1.798  34.820  13.267
72071W        W43797  41.075   4.904   4.077
72072W        W43798   0.196  32.332   2.392
72073W        W43799  27.582  25.285   2.284
72074W        W43800  44.829  25.129  14.922
72075W        W43801  13.326  14.105  14.979
72076W        W43802   4.448  38.317  12.307
72077W        W43803  12.846   7.152  10.677
72078W        W43804  44.495  23.208   3.548
72079W        W43805   5.009  26.543   0.463
72080W        W43806  16.690   7.305  11.107
72081W        W43807  36.374  31.646   3.696
72082W        W43808   0.818  43.506   1.963
72083W        W43809  23.176  32.142   1.818
72084W        W43810  40.848   6.543   3.791
72085W        W43811  35.351  43.815  10.525
72086W        W43812  16.051  36.928   2.277
72087W        W43813   2.237  20.855   1.995
72088W        W43814  25.094  39.888   4.346
72089W        W43815   7.203  38.692  12.323
72090W        W43816   9.266   0.632   4.688
72091W        W43817  21.729  26.818   3.392
72092W        W43818  35.067  41.263   4.228
72093W        W43819   7.666  35.451   1.197
72094W        W43820   2.654  39.565   0.312
72095W        W43821  20.124  39.827   0.305
72096W        W43822  12.703  33.144   3.732
72097W        W43823  40.731  31.114   4.137
72098W        W43824  32.486  39.937  10.237
72099W        W43825  14.588  19.736  13.639
72100W        W43826  32.559  10.921   4.078
72101W        W43827   5.278  16.009  14.787
72102W        W43828  12.319  43.808   4.789
72103W        W43829  36.614  20.706  14.281
72104W        W43830  29.045  10.387   0.826
72105W        W43831  14.121  38.927  14.687
72106W        W43832  40.605  28.855   3.690
72107W        W43833  10.570  15.270  12.791
72108W        W43834   0.301  11.249  12.034
72109W        W43835  17.812  32.053  12.834
72110W        W43836  16.134  17.215  12.382
72111W        W43837  41.396  10.280   1.356
72112W        W43838  42.035  28.005  12.149
72113W        W43839   8.808  22.756  11.586
72114W        W43840  13.259  36.024   1.897
72115W        W43841  10.338  12.237   3.218
72116W        W43842   6.459  42.989  12.851
72117W        W43843   1.267  19.216  14.676
72118W        W43844  23.101  30.931   1.296
72119W        W43845  17.374  17.088  10.461
72120W        W43846   3.995  26.587  11.136
72121W        W43847  37.896  41.960   3.203
72122W        W43848   2.320  24.334   2.542
72123W        W43849  16.114  12.285   3.199
72124W        W43850  38.428  14.450  12.194
72125W        W43851   5.402  32.121  11.328
72126W        W43852  24.363   4.392   1.934
72127W        W43853   8.166  33.196   0.651
72128W        W43854  18.607   7.671  14.791
72129W        W43855  44.108  14.062  11.162
72130W        W43856   8.716  35.876   3.809
72131W        W43857  28.166  29.762  11.103
72132W        W43858  31.633  18.538  11.452
72133W        W43859  12.767  44.982  11.920
72134W        W43860  12.901  24.054   0.346
72135W        W43861   0.296  26.494  12.899
72136W        W43862  12.450  37.074  14.374
72137W        W43863  33.874   1.461  11.980
72138W        W43864  43.381  41.417   4.179
72139W        W43865  26.054  34.187   3.778
72140W        W43866  31.148   9.365  13.792
72141W        W43867   0.284  13.492  12.653
72142W        W43868   2.748  36.620  11.598
72143W        W43869  36.880  20.179   3.765
72144W        W43870  30.975  27.036   1.700
72145W        W43871  42.634  32.137  11.482
72146W        W43872  25.701  33.353  12.472
72147W        W43873   4.463   3.024   2.732
72148W        W43874   2.458  43.698  10.745
72149W        W43875  38.082  44.943  10.709
72150W        W43876  44.770  37.394   3.752
72151W        W43877   7.190   0.361   4.586
72152W        W43878  10.622  30.971  13.332
72153W        W43879  19.549  21.138  12.793
72154W        W43880  32.990  18.129   1.339
72155W        W43881  10.540  17.578   2.113
72156W        W43882  32.592  11.231   2.330
72157W        W43883   7.761  22.431   1.215
72158W        W43884  38.947  44.467  10.453
72159W        W43885  19.672  27.669   0.242
72160W        W43886  23.761  24.075  10.584
72161W        W43887   0.350   7.804   2.085
72162W        W43888  30.627  24.008   4.523
72163W        W43889  38.355  44.361   2.897
72164W        W43890  27.740   3.702  14.321
72165W        W43891  18.220   3.829  14.727
72166W        W43892  20.630  44.288   4.049
72167W        W43893   1.383  30.623  14.971
72168W        W43894   8.740  31.981   2.178
72169W        W43895  39.745  25.986   1.877
72170W        W43896  44.315  35.219  13.401
72171W        W43897  25.649  24.507  11.510
72172W        W43898  10.297  11.735  12.468
72173W        W43899  26.122  12.874   0.255
72174W        W43900  37.845  42.913  11.045
72175W        W43901  24.757   8.779  12.561
72176W        W43902  22.976  42.778   2.698
72177W        W43903  41.367  33.719   1.730
72178W        W43904   8.247  40.319   4.424
72179W        W43905  42.782  15.065   1.173
72180W        W43906   9.897  13.601  11.272
72181W        W43907   9.971  23.009  13.475
72182W        W43908  21.719  14.495  14.509
72183W        W43909  37.910  22.341   3.199
72184W        W43910  18.226   1.960   4.607
72185W        W43911   8.468   0.408   4.082
72186W        W43912  19.300  38.818   4.049
72187W        W43913  23.771   7.150  13.260
72188W        W43914  42.960  28.111   4.064
72189W        W43915   9.322  24.928   5.037
72190W        W43916  15.982  30.933   0.246
72191W        W43917  24.651   7.801   0.870
72192W        W43918  44.697   7.466  11.810
72193W        W43919  14.279   4.379   2.441
72194W        W43920   9.642  26.554   2.236
72195W        W43921  19.789  32.710   3.305
72196W        W43922   7.281   4.310   2.741
72197W        W43923  31.909  31.632  10.431
72198W        W43924  14.339  34.464   1.212
72199W        W43925  17.413  38.251  10.645
72200W        W43926  38.024   1.974   1.293
72201W        W43927  31.640   3.067   0.304
72202W        W43928  14.890  33.930  14.914
72203W        W43929  11.105  40.874   2.406
72204W        W43930  20.640   6.892   2.695
72205W        W43931   6.475  24.779  12.676
72206W        W43932  17.666  16.674  13.104
72207W        W43933   2.042  11.100  14.536
72208W        W43934  26.176   0.749  12.194
72209W        W43935  22.100   7.345  14.487
72210W        W43936  27.496  15.566  11.720
72211W        W43937  31.682  37.721  11.352
72212W        W43938  38.891   4.445   4.150
72213W        W43939  23.071  22.652   4.586
72214W        W43940  16.845  22.189   2.927
72215W        W43941  29.768   0.159   2.493
72216W        W43942  32.909  36.345   2.338
72217W        W43943   1.838  43.045  11.058
72218W        W43944  16.617   0.264  14.070
72219W        W43945  35.371  22.513   3.194
72220W        W43946   5.159  22.002   3.263
72221W        W43947   9.662   3.292  10.393
72222W        W43948  44.755  39.062  13.960
72223W        W43949  16.105  24.556   0.749
72224W        W43950  44.107  36.563  10.629
72225W        W43951   7.487  21.226  13.229
72226W        W43952   0.414  36.524  13.520
72227W        W43953  42.987  39.802  13.013
72228W        W43954  28.400  19.714  12.029
72229W        W43955  19.100  33.373   3.322
72230W        W43956   4.930  35.368  13.975
72231W        W43957  29.207  43.330  13.497
72232W        W43958  38.189  39.512   2.620
72233W        W43959  24.025   4.923   2.618
72234W        W43960  10.313  24.692   0.929
72235W        W43961  14.766  11.370   1.456
72236W        W43962  37.405   7.884   4.541
72237W        W43963  11.980  16.308  13.994
72238W        W43964  28.448  33.631  11.586
72239W        W43965   0.897  21.759   1.042
72240W        W43966  36.504  11.361  12.448
72241W        W43967  23.187  37.014  12.003
72242W        W43968  39.989  19.899  13.536
72243W        W43969  30.026  25.604  10.154
72244W        W43970   8.819  41.399   2.683
72245W        W43971  33.905  41.829   1.588
72246W        W43972  37.080  32.056   1.418
72247W        W43973  26.070  40.142  13.309
72248W        W43974  30.693   0.333  10.438
72249W        W43975  12.128  16.646   1.187
72250W        W43976   2.543   4.262   2.300
72251W        W43977   5.785  11.615  14.436
72252W        W43978  18.686  43.932  14.225
72253W        W43979  33.522  35.349  13.083
72254W        W43980   4.800  34.457  12.486
72255W        W43981  22.948  20.169  12.960
72256W        W43982  13.512  24.965  10.715
72257W        W43983   2.889  13.655  14.507
72258W        W43984  25.032  23.756   4.612
72259W        W43985   9.856  43.698  12.034
72260W        W43986  33.346   9.524  14.056
72261W        W43987  11.182  17.246  13.192
72262W        W43988  28.850   4.372   3.701
72263W        W43989  32.379  11.230   0.003
72264W        W43990   2.789  18.152   2.345
72265W        W43991  19.749  15.782   4.520
72266W        W43992  12.783  43.872   2.969
72267W        W43993  36.499  19.481   2.249
72268W        W43994  36.945  44.506  13.888
72269W        W43995  38.204  32.860  14.517
72270W        W43996  43.767  43.022   0.486
72271W        W43997  18.551  17.602  14.854
72272W        W43998   9.230   5.608  12.989
72273W        W43999  20.850  28.099   1.890
72274W        W44000   8.317   6.452  10.709
72275W        W44001  11.012   5.316   1.191
72276W        W44002  38.611  11.790   3.683
72277W        W44003   0.903  29.116  12.601
72278W        W44004   9.978  10.204  11.626
72279W        W44005  22.272   3.854  13.500
72280W        W44006  34.896  33.606   2.675
72281W        W44007  32.497  39.260   2.783
72282W        W44008  36.152  11.179  11.204
72283W        W44009   4.493  28.093   0.892
72284W        W44010   1.213  35.460   1.343
72285W        W44011  19.354  16.796  13.587
72286W        W44012  26.036  38.552   1.829
72287W        W44013  36.113  36.095  13.997
72288W        W44014  37.286  13.930  14.271
72289W        W44015  22.208  42.574  13.504
72290W        W44016   5.182  41.443  10.977
72291W        W44017  32.233  38.315  14.124
72292W        W44018  23.131  32.154   4.643
72293W        W44019  22.231  39.524   4.518
72294W        W44020  25.165  27.059   2.351
72295W        W44021  39.403  11.627   3.010
72296W        W44022  44.769  14.535  12.127
72297W        W44023   6.644  22.007   3.288
72298W        W44024  18.278  32.950  11.064
72299W        W44025  18.237  11.675  13.018
72300W        W44026  17.304   9.184  12.493
72301W        W44027  26.050  39.824   0.980
72302W        W44028  40.107  28.603  10.659
72303W        W44029  28.236  38.957  11.483
72304W        W44030   2.282  17.860   0.381
72305W        W44031  15.616  19.737   0.333
72306W        W44032   8.588  17.712  13.828
72307W        W44033  10.709   2.259   3.708
72308W        W44034  13.245  44.790  14.884
72309W        W44035  26.720  36.145  12.805
72310W        W44036  28.557   2.008   4.329
72311W        W44037  12.850  39.762   3.133
72312W        W44038   5.869  29.737   5.014
72313W        W44039   4.376  32.690   2.574
72314W        W44040  29.178  33.397  10.959
72315W        W44041  39.908  25.951  11.250
72316W        W44042  39.136  32.505   3.155
72317W        W44043  15.562  31.452  12.116
72318W        W44044   6.837  12.826  13.372
72319W        W44045  15.968  30.067   0.364
72320W        W44046  20.601  21.095   0.935
72321W        W44047  33.369  37.842  12.889
72322W        W44048  43.668  42.560   1.676
72323W        W44049  17.261  42.585   3.367
72324W        W44050  36.000   0.327   2.706
72325W        W44051  18.909  25.190   2.153
72326W        W44052  21.262   0.297  13.981
72327W        W44053  23.251  21.595  12.013
72328W        W44054   5.240   8.941   4.228
72329W        W44055   7.910  18.147  13.532
72330W        W44056  29.170   4.774  14.591
72331W        W44057  33.906   1.371   3.776
72332W        W44058  25.157  27.179   1.512
72333W        W44059   2.960  10.625   4.123
72334W        W44060  41.827  29.465   0.025
72335W        W44061  26.487   4.046  13.491
72336W        W44062  44.340  18.062  14.191
72337W        W44063  17.624  35.509   0.771
72338W        W44064  18.362  28.072   3.808
72339W        W44065  14.417  29.359  11.493
72340W        W44066  32.994  23.976   1.890
72341W        W44067  32.400   7.343   3.211
72342W        W44068  43.820  43.782   0.002
72343W        W44069  42.158   8.599   1.440
72344W        W44070  27.747   1.373  12.934
72345W        W44071  33.690   6.780  13.056
72346W        W44072  13.369  17.974  13.848
72347W        W44073  28.511   4.451   2.235
72348W        W44074  30.662   1.789   1.887
72349W        W44075  41.393  11.804  14.886
72350W        W44076  10.845   7.754   0.810
72351W        W44077  11.900  36.983   2.373
72352W        W44078  21.718  30.611  11.065
72353W        W44079  12.119   1.135  13.405
72354W        W44080  39.012  21.787   1.735
72355W        W44081  42.359  38.147   4.211
72356W        W44082  37.348  39.943   3.654
72357W        W44083  35.963  33.586   0.726
72358W        W44084  20.488  29.119  13.765
72359W        W44085  40.288  27.221   0.251
72360W        W44086  42.340  41.440  14.088
72361W        W44087  25.425   0.734  13.109
72362W        W44088  30.104   0.595  11.209
72363W        W44089  19.010  35.491   4.615
72364W        W44090  18.493  41.115   1.200
72365W        W44091   4.998  40.431  11.028
72366W        W44092  24.471  28.044  13.862
72367W        W44093   0.031  24.422  13.831
72368W        W44094   3.278  44.415   4.110
72369W        W44095  43.017  19.227   3.447
72370W        W44096  10.409  21.172   0.861
72371W        W44097  21.098  25.967   1.398
72372W        W44098   3.251  42.877   0.859
72373W        W44099   0.237   7.271   4.918
72374W        W44100  34.437  43.447  10.324
72375W        W44101  12.794  33.193   1.812
72376W        W44102  32.884  33.888   3.252
72377W        W44103  37.952  31.343  12.149
72378W        W44104   9.358   3.063   1.210
72379W        W44105  42.257  32.299   0.093
72380W        W44106   5.451  11.968   0.510
72381W        W44107  38.867  27.652   3.058
72382W        W44108  25.170  17.342   1.299
72383W        W44109  40.908  40.507  11.080
72384W        W44110  35.524  37.968  14.054
72385W        W44111  22.779  40.275   0.279
72386W        W44112   0.246  26.198  11.324
72387W        W44113  33.360  42.928   2.229
72388W        W44114   6.418  26.966  12.938
72389W        W44115  18.179   9.718   1.527
72390W        W44116  39.876  17.631  11.629
72391W        W44117   2.980  13.665   2.841
72392W        W44118  42.326   3.926  10.658
72393W        W44119   5.651  27.012  12.610
72394W        W44120  32.649   5.585  14.261
72395W        W44121  24.453  14.082   2.296
72396W        W44122  36.501  11.414  10.553
72397W        W44123  31.406  26.603   4.214
72398W        W44124  28.376   3.842  11.454
72399W        W44125   5.194  38.499   1.252
72400W        W44126  17.497   4.355  11.580
72401W        W44127   6.161  13.590  13.397
72402W        W44128   7.902  42.173   0.345
72403W        W44129  17.902   9.717   2.842
72404W        W44130  44.972  17.074   4.115
72405W        W44131  35.731   0.320  10.695
72406W        W44132  12.878  25.518   3.288
72407W        W44133  28.738  14.716   4.043
72408W        W44134  24.763   9.316   3.141
72409W        W44135  36.594  40.923  13.411
72410W        W44136   6.002  22.723   4.692
72411W        W44137  38.530  21.061   0.532
72412W        W44138  24.082  19.014  10.800
72413W        W44139  29.125  42.299   2.189
72414W        W44140  42.003  40.870   4.225
72415W        W44141   6.888  13.541  14.775
72416W        W44142  16.087  20.241   0.887
72417W        W44143  17.574  20.739   1.775
72418W        W44144  31.000  31.712   3.649
72419W        W44145  14.741   5.371  13.339
72420W        W44146  42.814  15.637   1.232
72421W        W44147  36.155  11.317  12.065
72422W        W44148  27.200  13.122  13.962
72423W        W44149  41.035   6.989   3.590
72424W        W44150  26.639  34.386  14.423
72425W        W44151  30.139   9.295  14.039
72426W        W44152  37.049  18.241  13.425
72427W        W44153  36.938   2.687   3.322
72428W        W44154  44.898  42.660  11.984
72429W        W44155  25.134   2.106   0.999
72430W        W44156  39.858  35.404   3.004
72431W        W44157  28.926  16.766   3.131
72432W        W44158  11.359  30.201  11.274
72433W        W44159   1.259  36.482   2.645
72434W        W44160   9.762  23.205  14.868
72435W        W44161  20.192  44.851  14.823
72436W        W44162  19.209  25.505   1.602
72437W        W44163  25.084  35.749   3.945
72438W        W44164  19.675   6.275  10.768
72439W        W44165  25.729   0.938   3.328
72440W        W44166   2.600  28.724   3.004
72441W        W44167  37.506  37.010   3.544
72442W        W44168  29.700  24.237   3.717
72443W        W44169  25.205  20.127   0.447
72444W        W44170  12.121   2.003  14.939
72445W        W44171   1.228  20.500   2.834
72446W        W44172  39.226  40.906  13.231
72447W        W44173  39.562  36.864  13.866
72448W        W44174  37.150  16.056   1.713
72449W        W44175   3.659   5.413   2.256
72450W        W44176  42.736   4.999   3.742
72451W        W44177  22.892   0.453  11.896
72452W        W44178  37.110  27.934  12.544
72453W        W44179  10.382  37.519   1.820
72454W        W44180  31.313   5.507   1.161
72455W        W44181  12.601  21.341  12.443
72456W        W44182  29.732  11.871   1.804
72457W        W44183  36.433  23.281   2.894
72458W        W44184  24.886  41.982  13.594
72459W        W44185  20.209  28.056  14.525
72460W        W44186  15.723  37.689  12.004
72461W        W44187  30.063  31.011  14.885
72462W        W44188  18.695   1.080   0.995
72463W        W44189  21.217  20.775   2.829
72464W        W44190   4.074  26.222  11.492
72465W        W44191  33.097  19.616  13.090
72466W        W44192  43.859  34.413  12.486
72467W        W44193  21.698  43.713  11.043
72468W        W44194  39.867  31.577   2.163
72469W        W44195  35.908   1.378   4.558
72470W        W44196   3.691  16.387  13.601
72471W        W44197  19.076  20.659   3.385
72472W        W44198   3.949  31.536   3.155
72473W        W44199  36.520  13.248  11.989
72474W        W44200  25.535   1.063   3.802
72475W        W44201  21.507  41.988   1.387
72476W        W44202   9.334  43.539   0.239
72477W        W44203   7.390  19.765   4.430
72478W        W44204  42.788  21.989   0.868
72479W        W44205  24.019  15.251   2.150
72480W        W44206  17.749  31.512   0.921
72481W        W44207  26.239  43.349   4.186
72482W        W44208  37.221   3.304  12.414
72483W        W44209  38.267  19.725   2.438
72484W        W44210  27.193  37.360   0.041
72485W        W44211   7.815  12.389  11.582
72486W        W44212  27.463  36.017   4.160
72487W        W44213   5.301  41.481   4.096
72488W        W44214  11.361  20.494  14.834
72489W        W44215  39.897  26.104   3.800
72490W        W44216   4.867  25.521  12.468
72491W        W44217  39.309  26.736  10.717
72492W        W44218  22.748  14.265  10.279
72493W        W44219   8.193   4.761   0.437
72494W        W44220  32.621  26.141   2.161
72495W        W44221  11.093  44.419   1.457
72496W        W44222  39.172  16.286   0.675
72497W        W44223  25.625   0.071   1.865
72498W        W44224   8.312  30.706   0.851
72499W        W44225  35.482  20.035   1.017
72500W        W44226  40.387  28.561   2.927
72501W        W44227  11.816  31.991   2.459
72502W        W44228  19.477   6.385   4.285
72503W        W44229  30.568  41.264   2.180
72504W        W44230  36.956  32.056  11.123
72505W        W44231  17.683  12.382   4.520
72506W        W44232  15.432   0.772  13.913
72507W        W44233  23.939  27.026   3.776
72508W        W44234  24.378  21.048  14.246
72509W        W44235  13.576  37.992  14.801
72510W        W44236   6.659  18.848   1.786
72511W        W44237  23.932  14.313   1.104
72512W        W44238  39.545  38.828   4.875
72513W        W44239  13.607  33.480   2.279
72514W        W44240  43.831  43.621  11.438
72515W        W44241  38.807  29.968  14.199
72516W        W44242  33.455  23.452  12.008
72517W        W44243  40.265  16.120   2.096
72518W        W44244  22.461  39.023  14.533
72519W        W44245  12.699   0.457   2.160
72520W        W44246   5.283   4.352  12.574
72521W        W44247  15.745  20.027   4.592
72522W        W44248  26.677  21.492   2.730
72523W        W44249  29.395  29.249   3.753
72524W        W44250  37.407  39.471   2.387
72525W        W44251   0.865  11.792   2.558
72526W        W44252  44.048   8.152  10.615
72527W        W44253   8.171  43.428   0.945
72528W        W44254  29.652  18.190   2.527
72529W        W44255  15.134  12.881  11.105
72530W        W44256  24.422  38.205   1.931
72531W        W44257  17.303  29.672  10.793
72532W        W44258   0.557   2.806   4.126
72533W        W44259   8.578  28.091  11.474
72534W        W44260  33.378   4.783  14.439
72535W        W44261  36.327  15.567   4.207
72536W        W44262   5.909  17.228   1.491
72537W        W44263  39.378  35.625   3.627
72538W        W44264  27.622  40.499  13.403
72539W        W44265   1.644  18.525  11.999
72540W        W44266  37.774  26.272  10.204
72541W        W44267  28.507  39.398   4.214
72542W        W44268  16.333  21.080   3.251
72543W        W44269  15.317  35.348  14.432
72544W        W44270  23.508  30.944  11.463
72545W        W44271  42.755  25.467   0.590
72546W        W44272   8.326   5.739  13.138
72547W        W44273  37.907   0.249   1.358
72548W        W44274  14.615  24.503   0.857
72549W        W44275   4.749  11.752  13.083
72550W        W44276  30.586  17.318  13.479
72551W        W44277  40.249  25.558  12.281
72552W        W44278  31.796  23.873  12.262
72553W        W44279  37.801  25.256  11.012
72554W        W44280  16.612  18.316  14.484
72555W        W44281  18.678  13.069   4.507
72556W        W44282   3.921   8.833  10.626
72557W        W44283  33.950  25.152   0.191
72558W        W44284  31.478  27.430  13.991
72559W        W44285  44.210  28.635   1.659
72560W        W44286  34.607   2.264   1.098
72561W        W44287   2.344   8.389  11.200
72562W        W44288  23.432  21.855   3.806
72563W        W44289  27.101  32.340  11.670
72564W        W44290   7.246  14.821   3.799
72565W        W44291  15.215  25.634  13.842
72566W        W44292   5.360  11.852   1.373
72567W        W44293  26.037  16.420   3.587
72568W        W44294  35.920  42.963   2.263
72569W        W44295   0.259  35.062  14.961
72570W        W44296  41.862  27.149   4.529
72571W        W44297  27.240  25.500   0.361
72572W        W44298   1.479  17.619  13.343
72573W        W44299  41.405  44.732  14.973
72574W        W44300   9.159   2.426  14.930
72575W        W44301  24.931   6.169  12.031
72576W        W44302   1.482  16.820  11.975
72577W        W44303   4.507   2.235  13.365
72578W        W44304  12.296  26.651   3.386
72579W        W44305  22.416   4.680  10.993
72580W        W44306  20.537  23.522   4.223
72581W        W44307  44.731   1.695   3.116
72582W        W44308   9.879  27.724   0.628
72583W        W44309  22.467  40.001   1.298
72584W        W44310  43.974  36.737  12.463
72585W        W44311  28.052  15.415   1.329
72586W        W44312  19.872  24.751  13.071
72587W        W44313   0.587   5.930   4.241
72588W        W44314  24.213   2.055  12.384
72589W        W44315  32.156  39.034   3.646
72590W        W44316  44.543  36.609  11.356
72591W        W44317  25.306  41.429   3.741
72592W        W44318  41.982  19.245   4.024
72593W        W44319  26.477  12.065   3.619
72594W        W44320  11.876  38.508  13.041
72595W        W44321  36.908  22.587   0.790
72596W        W44322   8.952  13.429   3.085
72597W        W44323  33.023  30.719  10.607
72598W        W44324  27.885  14.212   3.633
72599W        W44325  17.233  18.470   2.733
72600W        W44326  26.192  31.073  13.542
72601W        W44327  19.995  43.548   1.714
72602W        W44328  26.120  44.976   3.841
72603W        W44329  42.679   9.311  14.749
72604W        W44330  28.083  11.655   2.805
72605W        W44331  40.001  35.441  12.592
72606W        W44332  36.644  17.221   0.844
72607W        W44333  30.587  38.034   3.576
72608W        W44334  25.930  26.971  12.082
72609W        W44335  12.109  39.263  14.360
72610W        W44336  30.091   3.264  11.757
72611W        W44337  20.786   8.078  11.419
72612W        W44338  40.982  33.516  11.477
72613W        W44339  25.974  27.673  12.967
72614W        W44340  40.418   1.720  11.476
72615W        W44341  31.657  11.552   2.347
72616W        W44342  42.040  31.943   0.427
72617W        W44343   9.419  24.429   3.325
72618W        W44344  22.833  40.714  13.457
72619W        W44345  28.213  28.865   0.796
72620W        W44346  29.332  42.363   4.096
72621W        W44347  37.961   4.504  12.880
72622W        W44348  31.603  31.346  11.070
72623W        W44349  22.056   3.646  14.418
72624W        W44350  24.199  25.980   0.853
72625W        W44351   3.012  18.626  13.263
72626W        W44352  37.352  32.512   1.429
72627W        W44353  34.337  42.091   1.691
72628W        W44354   6.624  44.044  13.381
72629W        W44355  18.261  33.917   0.465
72630W        W44356  35.045  25.007   4.112
72631W        W44357  21.763   3.767  14.819
72632W        W44358  44.930  42.688   2.773
72633W        W44359  41.297   1.250   2.573
72634W        W44360  11.126  40.663  12.684
72635W        W44361  36.467  12.803   0.951
72636W        W44362   7.905  18.988  12.508
72637W        W44363  39.839   3.254  10.578
72638W        W44364  31.860  34.054   3.231
72639W        W44365  13.857   1.195   4.424
72640W        W44366  26.988  36.002   1.740
72641W        W44367  28.088  20.909   3.734
72642W        W44368  43.383  26.171  14.735
72643W        W44369  19.611  11.994   3.515
72644W        W44370  10.146  16.024   0.263
72645W        W44371  30.366  35.533  11.404
72646W        W44372  35.608  41.315   2.398
72647W        W44373  27.546  28.002   4.218
72648W        W44374  19.262   1.193  13.778
72649W        W44375  33.205  13.834  12.496
72650W        W44376  37.758   9.133   1.790
72651W        W44377  29.975  16.728  12.299
72652W        W44378  34.552  17.386  13.461
72653W        W44379   6.284   4.232  11.132
72654W        W44380   0.714  19.742  12.581
72655W        W44381  41.998  25.689  12.402
72656W        W44382  23.594  19.222   2.833
72657ION    NA+44383  38.652  21.418  11.161
72658ION    NA+44384   5.805  37.626  11.077
72659ION    NA+44385  12.219   6.123  11.912
72660ION    NA+44386  36.634   0.223  11.647
72661ION    NA+44387  18.477   1.507   2.749
72662ION    NA+44388  30.054  13.908  13.827
72663ION    NA+44389  11.032  14.626   1.794
72664ION    NA+44390  18.357  17.729   1.433
72665ION    NA+44391  26.013  30.072   4.573
72666ION    NA+44392  34.758  44.344  12.389
72667ION    NA+44393  26.609  42.260  13.778
72668ION    NA+44394  22.932  25.261   1.469
72669ION    NA+44395   5.925  29.560   4.309
72670ION    NA+44396  44.633   2.969   2.159
72671ION    NA+44397  27.400  17.308   2.478
72672ION    NA+44398  16.339  39.427  14.865
72673ION    NA+44399  11.906  29.701   3.900
72674ION    NA+44400  28.533  29.391  12.373
72675ION    NA+44401   1.281   2.830  13.168
72676ION    NA+44402  39.554  42.537   3.462
72677ION    NA+44403  18.177  26.657   0.044
72678ION    NA+44404  12.077  26.186   4.116
72679ION    NA+44405   7.010  16.673   3.209
72680ION    NA+44406  23.506  39.922   0.253
72681ION    NA+44407  42.280  20.989  12.555
72682ION    NA+44408   7.005  31.049  14.763
72683ION    NA+44409  27.970  33.692  14.714
72684ION    NA+44410   4.375   2.896  12.149
72685ION    NA+44411   6.139  44.439  12.111
72686ION    NA+44412  41.649  26.004   0.282
72687ION    NA+44413  38.555   7.008   1.611
72688ION    NA+44414  11.153  12.411  14.985
72689ION    NA+44415  42.078   6.865  13.757
72690ION    NA+44416  15.661  36.101   0.429
72691ION    NA+44417   2.276  11.524  13.738
72692ION    NA+44418   5.368  39.007  10.079
72693ION    NA+44419   5.117  14.099  14.148
72694ION    NA+44420  33.400   6.632  11.259
72695ION    NA+44421  21.146  16.016  12.949
72696ION    NA+44422  42.247  25.465   2.636
72697ION    NA+44423  41.207  44.220   1.658
72698ION    NA+44424  37.078  21.098  11.656
72699ION    NA+44425  13.003   9.884  14.742
72700ION    NA+44426  39.701   7.341   0.680
72701ION    NA+44427  33.060  13.608   4.260
72702ION    NA+44428   3.262  24.387   0.431
72703ION    NA+44429  27.054  10.059   0.102
72704ION    NA+44430  27.454  23.188  13.460
72705ION    NA+44431  13.805  10.873  10.229
72706ION    NA+44432  15.404   1.140  13.557
72707ION    NA+44433   0.398  23.523  11.363
72708ION    NA+44434  15.567  28.592   4.432
72709ION    NA+44435  13.355  11.890   1.867
72710ION    NA+44436  35.316  18.042  13.794
72711ION    NA+44437  16.116   2.074  13.144
72712ION    NA+44438   4.696  37.345   2.936
72713ION    NA+44439  15.257   4.209   3.479
72714ION    NA+44440  15.100  23.212  14.721
72715ION    NA+44441  38.542  28.664   3.316
72716ION    NA+44442  14.561  22.447   0.907
72717ION    NA+44443   1.574  10.979  12.101
72718ION    NA+44444  42.001  43.118  12.314
72719ION    NA+44445  34.755  27.856  12.511
72720ION    NA+44446  39.933  40.367   3.578
72721ION    NA+44447   3.774  34.343  14.527
72722ION    NA+44448  31.967  33.508  12.311
72723ION    NA+44449  22.659  17.900  10.829
72724ION    NA+44450   8.756   6.826   0.446
72725ION    NA+44451  40.575   1.528   4.409
72726ION    NA+44452  37.150   2.902  14.595
72727ION    NA+44453  23.635  17.698  10.911
72728ION    NA+44454   9.928   1.298   4.211
72729ION    NA+44455   0.699  36.570   1.254
72730ION    NA+44456   4.786   5.250  14.793
72731ION    NA+44457  44.601   8.916   3.306
72732ION    NA+44458  44.106   7.001   0.425
72733ION    NA+44459  25.283  43.041   2.402
72734ION    NA+44460  40.923  19.503  13.719
72735ION    NA+44461   1.770   2.235  12.508
72736ION    NA+44462   0.646  34.660   1.352
72737ION    NA+44463   0.794  33.654   4.070
72738ION    NA+44464  31.935  24.298  10.132
72739ION    NA+44465  36.443   2.319  14.970
72740ION    NA+44466   8.803  41.072  14.708
72741ION    NA+44467  32.304   6.761   4.691
72742ION    NA+44468  12.683   9.191   4.073
72743ION    NA+44469  34.966  16.292  12.898
72744ION    NA+44470  39.652  10.032   3.640
72745ION    NA+44471   9.369  41.338  12.144
72746ION    NA+44472   6.396  34.906  11.584
72747ION    NA+44473  11.094   8.821   2.870
72748ION    NA+44474  33.560  18.391  13.138
72749ION    NA+44475  15.636   6.379  11.507
72750ION    NA+44476  31.882  23.406  10.275
72751ION    NA+44477   9.426   3.899   3.579
72752ION    NA+44478  24.398   8.297   0.612
72753ION    NA+44479  20.477  32.662  13.618
72754ION    NA+44480  43.024   4.947   4.182
72755ION    NA+44481  17.740  33.951  11.620
72756ION    NA+44482  26.150  22.036  10.766
72757ION    NA+44483  10.659  38.702  13.937
72758ION    NA+44484  21.873   9.738   1.305
72759ION    NA+44485  10.525   0.956   0.749
72760ION    NA+44486  30.457   2.609  12.442
72761ION    NA+44487  30.598  25.709  13.143
72762ION    NA+44488  25.248  44.343  13.138
72763ION    NA+44489  37.747  10.519   4.607
72764ION    NA+44490  43.233   4.353  13.718
72765ION    NA+44491  28.861   2.439  11.032
72766ION    NA+44492  39.177  42.009   2.682
72767ION    NA+44493  18.123   0.123  12.229
72768ION    NA+44494  37.664  25.112   3.574
72769ION    NA+44495  10.019   3.535   3.047
72770ION    NA+44496  32.495  43.106  10.179
72771ION    NA+44497  38.766  16.323  11.730
72772ION    NA+44498   9.372  37.316  11.835
72773ION    NA+44499  31.549  10.871   3.218
72774ION    NA+44500  11.716   0.700   2.324
72775ION    NA+44501  39.974   3.961  11.671
72776ION    NA+44502  33.041  38.487   3.151
72777ION    NA+44503  22.908  33.922   4.620
72778ION    NA+44504  24.306  28.839   4.197
72779ION    NA+44505   6.354   4.303  11.645
72780ION    NA+44506  28.700   1.971   2.144
72781ION    NA+44507   7.677   5.841   5.014
72782ION    NA+44508  10.923  26.434  14.792
72783ION    NA+44509  22.224  15.232  13.118
72784ION    NA+44510  30.621  40.317   4.540
72785ION    NA+44511   1.050   6.787   3.334
72786ION    NA+44512  22.825  10.045   1.313
72787ION    NA+44513  23.008  35.139   3.878
72788ION    NA+44514   1.289  26.485  14.313
72789ION    NA+44515  32.525   2.661   1.751
72790ION    NA+44516  10.158  37.536   3.607
72791ION    NA+44517  18.263  37.912   1.428
72792ION    NA+44518  26.933  11.866   4.189
72793ION    NA+44519  30.109  29.395   2.941
72794ION    NA+44520  26.754  32.154  14.237
72795ION    NA+44521  22.977  22.162  12.996
72796ION    NA+44522  38.503   0.979   0.263
72797ION    NA+44523  22.217  15.053  10.514
72798ION    NA+44524   7.426  23.697  10.504
72799ION    NA+44525  36.706  42.705  11.713
72800ION    NA+44526  22.082  19.719   2.251
72801ION    NA+44527  36.451  40.647   1.808
72802ION    NA+44528   8.349  26.620  11.472
72803ION    NA+44529  32.649  16.654   2.156
72804ION    NA+44530  32.974  41.435  10.590
72805ION    NA+44531  40.771  19.562   9.907
72806ION    NA+44532  34.600  20.476   3.639
72807ION    NA+44533   6.139  43.199  13.373
72808ION    NA+44534  27.920  31.394   2.440
72809ION    NA+44535  28.265  40.861  14.790
72810ION    NA+44536  11.710  42.758   0.976
72811ION    NA+44537  27.109   2.774   2.659
72812ION    NA+44538  32.973  20.013   2.789
72813ION    NA+44539   2.463  19.804   2.818
72814ION    NA+44540  28.450  21.115   0.785
72815ION    NA+44541  21.091  32.856   1.759
72816ION    NA+44542   1.771  15.516  13.026
72817ION    NA+44543  24.738  37.532   3.250
72818ION    NA+44544  29.354  12.217  14.886
72819ION    NA+44545  27.615  20.040  12.045
72820ION    NA+44546  34.596  32.162  12.589
72821ION    NA+44547  36.783   8.822  14.201
72822ION    NA+44548  40.628   6.123   0.451
72823ION    NA+44549  35.838  21.767  13.513
72824ION    NA+44550  14.563   7.773   3.557
72825ION    NA+44551  40.857   2.155   3.303
72826ION    NA+44552  26.044  10.335  10.426
72827ION    NA+44553  20.096   8.789   3.146
72828ION    NA+44554  21.201  38.369  12.715
72829ION    NA+44555  12.059  31.856   3.883
72830ION    NA+44556  17.005  12.291  11.597
72831ION    NA+44557  34.666  28.653   4.198
72832ION    NA+44558  31.659   9.492   3.067
72833ION    NA+44559  22.531  27.990  10.295
72834ION    NA+44560  26.925  42.263  14.635
72835ION    NA+44561  41.621  16.928   2.531
72836ION    NA+44562  38.076  39.578   2.130
72837ION    NA+44563  38.641  14.378  12.666
72838ION    NA+44564   9.675  43.863  14.035
72839ION    NA+44565   0.318  15.131  13.697
72840ION    NA+44566  33.479  17.733   0.746
72841ION    NA+44567  18.256  23.297   1.857
72842ION    NA+44568  23.683  34.385   3.605
72843ION    NA+44569   1.881  14.186   3.922
72844ION    NA+44570  35.688  28.720   0.783
72845ION    NA+44571  27.506  44.529   5.209
72846ION    NA+44572  40.443   6.897  10.663
72847ION    NA+44573   5.989  20.812   4.186
72848ION    NA+44574  39.854  31.396  13.733
72849ION    NA+44575  13.981  29.771  14.402
72850ION    NA+44576  20.829  40.513   4.587
72851ION    NA+44577  33.632  27.946   2.152
72852ION    NA+44578  38.342  42.858  14.878
72853ION    NA+44579  31.636  14.145  12.488
72854ION    NA+44580  13.751  34.156   0.980
72855ION    NA+44581  25.417  25.962   3.581
72856ION    NA+44582  17.313   5.643  14.490
72857ION    NA+44583  37.725  24.574  12.475
72858ION    NA+44584  14.128  20.558  14.948
72859ION    NA+44585   4.606  27.890   0.417
72860ION    NA+44586  24.821  39.832   2.840
72861ION    NA+44587  21.335  44.230  14.066
72862ION    NA+44588  19.466  21.805  14.722
72863ION    NA+44589   1.640  13.630  11.668
72864ION    NA+44590  35.181  20.362   4.326
72865ION    NA+44591  23.585  27.850   4.861
72866ION    NA+44592  27.313  18.728  11.664
72867ION    NA+44593  27.547  44.670  13.965
72868ION    NA+44594  44.216  32.444  13.054
72869ION    NA+44595  32.993  19.531   1.055
72870ION    NA+44596  41.016  25.315  14.930
72871ION    NA+44597  21.343   3.500   1.063
72872ION    NA+44598  13.587  29.732  11.072
72873ION    NA+44599  44.899  16.152  11.830
72874ION    NA+44600  35.762   8.899  12.158
72875ION    NA+44601  12.262  34.961  12.481
72876ION    NA+44602  22.906  32.320  14.867
72877ION    NA+44603  24.517   9.026   4.307
72878ION    NA+44604   8.163  42.386  10.685
72879ION    NA+44605  36.022  15.310   4.965
72880ION    NA+44606  37.115  33.026  13.249
72881ION    NA+44607  16.359  33.933  12.224
72882ION    NA+44608  38.188   4.013   2.391
72883ION    NA+44609  41.776  31.314   3.103
72884ION    NA+44610  20.242  21.547   0.359
72885ION    NA+44611  15.351  32.724   2.558
72886ION    NA+44612  17.840  27.533  10.398
72887ION    NA+44613  11.097   5.635  14.253
72888ION    NA+44614   1.459  37.289  13.913
72889ION    NA+44615  40.263  43.612   4.145
72890ION    NA+44616  18.545   0.370  12.974
72891ION    NA+44617   1.060  44.502   0.146
72892ION    NA+44618  26.398  23.478  13.195
72893ION    NA+44619   4.835   9.425  12.379
72894ION    NA+44620  17.463  17.743   1.500
72895ION    NA+44621   3.731  22.241  10.875
72896ION    NA+44622  34.359  20.194  12.412
72897ION    NA+44623  38.584  31.811   4.583
72898ION    NA+44624  11.997  44.685  14.417
72899ION    NA+44625  43.231   0.694   3.846
72900ION    NA+44626  15.901  16.255  10.772
72901ION    NA+44627  27.110  36.028  13.486
72902ION    NA+44628  21.289  19.000   0.485
72903ION    NA+44629  14.831  13.288  11.245
72904ION    NA+44630  14.417   9.681   4.154
72905ION    NA+44631   2.472  44.872   1.371
72906ION    NA+44632  11.409   6.308   2.552
72907ION    NA+44633  17.976  30.193  14.430
72908ION    NA+44634  19.113  35.547  14.891
72909ION    NA+44635  27.736  37.769   0.416
72910ION    NA+44636  35.272  10.460   9.665
72911ION    NA+44637  38.589  30.173   1.582
72912ION    NA+44638  28.570  29.857   2.198
72913ION    NA+44639  20.600  31.806  13.376
72914ION    NA+44640  17.797  14.489   4.432
72915ION    NA+44641   4.218  26.572   3.134
72916ION    NA+44642  27.218  38.674   0.199
72917ION    NA+44643   5.820  36.782  11.623
72918ION    NA+44644   3.507   0.417  13.826
72919ION    NA+44645  24.231  39.326  12.600
72920ION    NA+44646  11.121  42.024  13.758
72921ION    NA+44647  37.719  39.087  10.030
72922ION    NA+44648  19.086   2.292   2.864
72923ION    NA+44649  35.036  12.222  11.104
72924ION    NA+44650  43.920   1.698  12.410
72925ION    NA+44651  20.599  29.953   1.358
72926ION    NA+44652  35.150  13.834  13.017
72927ION    NA+44653  20.172  42.085   3.564
72928ION    NA+44654  26.346   6.179   4.181
72929ION    NA+44655   8.364  40.864  13.470
72930ION    NA+44656   6.127  11.071   3.633
72931ION    NA+44657  32.648  16.245   4.464
72932ION    NA+44658  35.097   3.795  11.713
72933ION    NA+44659  35.721  14.938   1.547
72934ION    NA+44660  29.195  24.577   0.118
72935ION    NA+44661   3.222  31.894  12.810
72936ION    NA+44662  38.131  23.175  14.150
72937ION    NA+44663  17.771   0.614   3.654
72938ION    NA+44664  21.767  43.815   2.806
72939ION    NA+44665  29.224  34.836   2.372
72940ION    NA+44666  26.543  42.684   2.316
72941ION    NA+44667   9.937  27.521  13.751
72942ION    NA+44668  23.255  43.196  11.208
72943ION    NA+44669  43.059  42.849  14.975
72944ION    NA+44670  26.080  32.149   3.870
72945ION    NA+44671  17.230  16.291  13.511
72946ION    NA+44672  36.059  37.856   0.774
72947ION    NA+44673  16.186   5.339   0.469
72948ION    NA+44674   0.484   3.824   5.095
72949ION    NA+44675  22.789  19.155   3.574
72950ION    NA+44676   0.045  32.039   1.295
72951ION    NA+44677  15.029  43.248   1.579
72952ION    NA+44678  33.491  28.955  11.338
72953ION    NA+44679  23.338   2.441   2.726
72954ION    NA+44680  32.825  10.783  13.742
72955ION    NA+44681  28.518  27.781  11.727
72956ION    NA+44682  37.551  26.616  14.171
72957ION    NA+44683   6.905   2.189  14.433
72958ION    NA+44684   7.175  33.280  13.409
72959ION    NA+44685  35.245  36.064  10.194
72960ION    NA+44686  38.730   4.080  13.520
72961ION    NA+44687  28.085  22.023   0.269
72962ION    NA+44688  13.196  37.639  14.956
72963ION    NA+44689   1.823  17.220   1.705
72964ION    NA+44690  33.239  34.381  11.535
72965ION    NA+44691  26.790   6.519   5.069
72966ION    NA+44692  18.028   5.501   3.298
72967ION    NA+44693  15.256  38.831  11.252
72968ION    NA+44694  10.577  34.934  11.118
72969ION    NA+44695  43.970  13.402  12.965
72970ION    NA+44696  13.900   7.858  13.000
72971ION    NA+44697  24.157  41.498  13.288
72972ION    NA+44698  20.311   3.579   0.776
72973ION    NA+44699  16.012  34.363  13.347
72974ION    NA+44700   5.242  26.938   0.710
72975ION    NA+44701   9.279  11.016   2.211
72976ION    NA+44702  19.787   0.908   4.471
72977ION    NA+44703  44.207  18.933   3.998
72978ION    NA+44704  44.739  44.556  10.676
72979ION    NA+44705  10.930  42.792   3.202
72980ION    NA+44706  17.579  43.808  10.718
72981ION    NA+44707  12.730  20.778  14.481
72982ION    NA+44708  29.432   1.749  11.590
72983ION    NA+44709  32.401  24.994   2.221
72984ION    NA+44710  24.409  15.751   0.857
72985ION    NA+44711  38.043   2.305  14.185
72986ION    NA+44712  24.416  35.018   0.374
72987ION    NA+44713  20.111  23.794  11.109
72988ION    NA+44714  28.462  17.171   1.456
72989ION    NA+44715  12.687  35.005   4.328
72990ION    NA+44716  38.999  38.112   1.381
72991ION    NA+44717  21.928  23.185  11.002
72992ION    NA+44718   8.270  33.776   2.423
72993ION    NA+44719  25.899  17.225  12.955
72994ION    NA+44720  23.503  40.914  13.988
72995ION    NA+44721  31.441  11.555  13.181
72996ION    NA+44722  23.920   4.178  12.001
72997ION    NA+44723  19.805  38.532  14.108
72998ION    NA+44724  14.309  35.117  11.952
72999ION    NA+44725   9.339  21.013   1.265
73000ION    NA+44726  16.755   3.859   4.153
73001ION    NA+44727  40.386   8.560   4.482
73002ION    NA+44728  14.378   0.719  10.866
73003ION    NA+44729   4.687  38.575   1.330
73004ION    NA+44730  44.117   2.348  11.676
73005ION    NA+44731   0.076  28.179  13.470
73006ION    NA+44732   8.137  41.478  11.104
73007ION    NA+44733  35.734   4.750  13.659
73008ION    NA+44734   8.450   8.499   2.205
73009ION    NA+44735  10.454  40.292  10.284
73010ION    NA+44736   1.081  31.844  10.397
73011ION    NA+44737  44.962  33.083   0.735
73012ION    NA+44738   4.393  29.627  12.944
73013ION    NA+44739   2.784  41.581  13.065
73014ION    NA+44740  41.547  17.148  12.042
73015ION    NA+44741  40.062   8.475   0.841
73016ION    NA+44742  44.863  21.913   0.990
73017ION    NA+44743   2.983  37.464   3.601
73018ION    NA+44744  25.147  41.050  13.841
73019ION    NA+44745  37.218  34.389  12.466
73020ION    NA+44746   6.770  21.755  13.945
73021ION    NA+44747  15.044  40.130  14.041
73022ION    NA+44748  40.422  42.455  14.525
73023ION    NA+44749   2.581  17.663   4.029
73024ION    NA+44750   2.231   9.566   3.525
73025ION    NA+44751   3.647  10.392  13.404
73026ION    NA+44752  35.042  33.135   0.963
73027ION    NA+44753  42.063  15.982   5.311
73028ION    NA+44754  43.711   5.586  12.858
73029ION    NA+44755  22.641  37.461   1.551
73030ION    NA+44756  33.838   2.680   1.717
73031ION    NA+44757   3.047   9.373  10.705
73032ION    NA+44758  10.976  27.937   4.439
73033ION    NA+44759  10.942  43.047  14.339
73034ION    NA+44760  36.364  40.010  13.603
73035ION    NA+44761  36.935   2.230  14.104
73036ION    NA+44762  26.958  36.526   3.496
73037ION    NA+44763  25.056   7.564  13.502
73038ION    NA+44764  41.569  16.753   1.548
73039ION    NA+44765  38.409  37.612  11.723
73040ION    NA+44766  35.955  32.297  14.254
73041ION    NA+44767  40.233  41.263  12.072
73042ION    NA+44768  31.547  23.552   5.073
73043ION    NA+44769  30.543  35.045  14.509
73044ION    NA+44770   7.636   4.914  13.060
73045ION    NA+44771   5.503  26.093  11.056
73046ION    NA+44772  24.344   3.491   0.497
73047ION    NA+44773  44.530   6.837  13.911
73048ION    NA+44774  42.408  15.743  12.479
73049ION    NA+44775   4.410  36.659  11.424
73050ION    NA+44776  14.854  21.074   3.676
73051ION    NA+44777  42.825  34.907  11.494
73052ION    NA+44778   4.474  27.972   2.381
73053ION    NA+44779  19.263  27.442   2.268
73054ION    NA+44780  30.561  12.169   0.738
73055ION    NA+44781  34.149  18.336  14.392
73056ION    NA+44782  32.686  37.938   2.395
73057ION    NA+44783  30.087  43.091  11.135
73058ION    NA+44784  32.992  22.763   2.287
73059ION    NA+44785  14.687  42.512   0.704
73060ION    NA+44786  11.676  42.664   3.661
73061ION    NA+44787  17.154  20.845  11.603
73062ION    NA+44788  30.328  36.251  12.474
73063ION    NA+44789   8.122  29.475   3.416
73064ION    NA+44790  28.898  35.415  13.050
73065ION    NA+44791  33.561  14.177  12.676
73066ION    NA+44792  24.933  30.079   2.171
73067ION    NA+44793  25.316  29.121   2.912
73068ION    NA+44794  32.856  23.561   4.655
73069ION    NA+44795   1.704   2.035  14.574
73070ION    NA+44796   8.741   5.148   5.433
73071ION    NA+44797  21.595  29.203   3.643
73072ION    NA+44798   1.418  23.331  12.747
73073ION    NA+44799  37.512  33.650   2.414
73074ION    NA+44800  40.659  40.701  13.339
73075ION    NA+44801  10.107  15.425  12.653
73076ION    NA+44802  30.745  27.249   4.696
73077ION    NA+44803   3.445  12.668   3.840
73078ION    NA+44804  18.212  19.310  11.134
73079ION    NA+44805   2.800  23.039   3.637
73080ION    NA+44806  28.464  44.932  14.993
73081ION    NA+44807   5.059  44.447   2.366
73082ION    NA+44808  28.442  32.255   1.915
73083ION    NA+44809  10.389  42.256  11.007
73084ION    NA+44810  26.084  35.953   4.391
73085ION    NA+44811  26.042  27.221   2.616
73086ION    NA+44812  16.742  33.522   3.116
73087ION    NA+44813  21.004  39.342  14.480
73088ION    NA+44814  35.844  22.632  10.735
73089ION    NA+44815   4.599  44.009   3.036
73090ION    NA+44816  42.495  13.235   5.069
73091ION    NA+44817  24.868  14.324  13.896
73092ION    NA+44818  40.530  21.145  11.392
73093ION    NA+44819  16.722  36.449   3.929
73094ION    NA+44820  22.262  16.564  12.489
73095ION    NA+44821  17.355  25.415   1.830
73096ION    NA+44822   6.514  31.370  14.986
73097ION    NA+44823  31.875  33.215   4.412
73098ION    NA+44824  38.859  32.761  12.474
73099ION    NA+44825  11.176  19.329   4.024
73100ION    NA+44826   5.744  33.643  12.890
73101ION    NA+44827   0.532  39.692  14.056
73102ION    NA+44828   0.322  22.434   0.270
73103ION    NA+44829  44.253  10.820   3.064
73104ION    NA+44830  36.908  29.532   2.224
73105ION    NA+44831  25.049  14.957   4.815
73106ION    NA+44832  15.505  15.262  12.675
73107ION    NA+44833  12.860  33.406   3.159
73108ION    NA+44834  29.197  33.666   4.699
73109ION    NA+44835  30.058  41.362   2.259
73110ION    NA+44836   5.951  39.291  10.425
73111ION    NA+44837   6.800  27.535  13.769
73112ION    NA+44838  17.042   5.855   0.507
73113ION    NA+44839  44.923  16.323  14.583
73114ION    NA+44840   0.245  20.721  10.223
73115ION    NA+44841   9.264  35.994   0.498
73116ION    NA+44842  38.556  36.128   1.749
73117ION    NA+44843  44.218  35.472   1.138
73118ION    NA+44844  15.683  15.376  10.818
73119ION    NA+44845  28.124  38.845   3.723
73120ION    NA+44846  44.133  31.637   1.376
73121ION    NA+44847   6.113  18.175   0.174
73122ION    NA+44848  37.956  40.479   0.975
73123ION    NA+44849  42.744  10.505  10.925
73124ION    NA+44850  33.988  25.744   4.349
73125ION    NA+44851  30.630  35.973   3.247
73126ION    NA+44852  26.986  42.338   1.598
73127ION    NA+44853  30.202  27.650  11.450
73128ION    NA+44854  11.930  17.395   2.620
73129ION    NA+44855  26.225  43.829   3.059
73130ION    NA+44856  22.547  39.099  10.862
73131ION    NA+44857  10.222  22.723  13.976
73132ION    NA+44858   1.803  13.114   4.151
73133ION    NA+44859  14.129  28.221  12.090
73134ION    NA+44860  19.225  42.948  13.846
73135ION    NA+44861  10.658  10.560   4.407
73136ION    NA+44862  15.385  12.102  12.998
73137ION    NA+44863  36.344  33.072   0.273
73138ION    NA+44864  31.647  22.362   1.520
73139ION    NA+44865  14.874  27.498  13.933
73140ION    NA+44866  35.340  34.690   1.743
73141ION    NA+44867   8.989  44.771   2.359
73142ION    NA+44868  22.121  24.497   2.361
73143ION    NA+44869  31.917  23.538  12.884
73144ION    NA+44870   1.508  41.304   1.285
73145ION    NA+44871  38.679   3.629  11.075
73146ION    NA+44872   0.357   9.734   1.683
73147ION    NA+44873  30.035  42.729   3.261
73148ION    NA+44874  18.215  40.456  10.772
73149ION    NA+44875  20.781   9.590   1.933
73150ION    NA+44876   3.739  22.177   1.366
73151ION    NA+44877  43.316   0.869  12.795
73152ION    NA+44878  35.629  35.934  14.027
73153ION    NA+44879  19.696   1.918  13.913
73154ION    NA+44880  40.658  16.028   2.434
73155ION    NA+44881  36.857  35.128  12.077
73156ION    NA+44882  38.228  17.532   0.974
73157ION    NA+44883  31.013  27.596  11.901
73158ION    NA+44884  36.922  21.974  13.105
73159ION    NA+44885  21.158  27.333  14.650
73160ION    NA+44886  14.883  24.892  11.533
73161ION    NA+44887  39.585  18.904   1.475
73162ION    NA+44888  23.586   3.924   1.023
73163ION    NA+44889   2.196  14.515   2.249
73164ION    NA+44890  19.562  20.138   3.953
73165ION    NA+44891  10.243  40.909   5.060
73166ION    NA+44892  22.889  20.361   2.947
73167ION    NA+44893  43.604  26.395   5.430
73168ION    NA+44894  12.113  27.042   1.354
73169ION    NA+44895  32.867  40.312  10.589
73170ION    NA+44896   9.749  32.418  14.006
73171ION    NA+44897  32.778  44.079  10.469
73172ION    NA+44898  20.267  34.185  14.742
73173ION    NA+44899  20.309  33.473   9.940
73174ION    NA+44900   6.226  32.550  12.510
73175ION    NA+44901  10.547  24.777   1.813
73176ION    NA+44902   0.781  32.125   0.220
73177ION    NA+44903  43.312  38.428   1.279
73178ION    NA+44904  38.307   0.005  12.193
73179ION    NA+44905   3.802  18.677   3.368
73180ION    NA+44906  12.214   7.317  13.467
73181ION    NA+44907  40.404   6.695  11.641
73182ION    NA+44908   3.949  33.473   4.181
73183ION    NA+44909  18.152  19.214  12.784
73184ION    NA+44910  24.882   7.298   1.881
73185ION    NA+44911  40.472  23.739  12.179
73186ION    NA+44912  31.223   0.566   4.416
73187ION    NA+44913  32.079  25.593   1.200
73188ION    NA+44914  13.374  32.262  13.614
73189ION    NA+44915  16.229  40.997   5.069
73190ION    NA+44916  32.693  42.239  12.772
73191ION    NA+44917  15.828  11.709   0.218
73192ION    NA+44918  10.589  40.143  14.016
73193ION    NA+44919  24.332  25.866   0.115
73194ION    NA+44920  10.996  31.822   4.560
73195ION    NA+44921  30.305   1.498   3.092
73196ION    NA+44922  36.294  35.561   4.187
73197ION    NA+44923   5.766  22.823  10.749
73198ION    NA+44924  33.223  28.635   3.383
73199ION    NA+44925  39.261  28.308   0.125
73200ION    NA+44926  42.531   8.136   0.925
73201ION    NA+44927  19.156  36.798  13.344
73202ION    NA+44928  23.197   1.118  13.309
73203ION    NA+44929  14.217   9.815  14.279
73204ION    NA+44930  42.440  39.118  14.310
73205ION    NA+44931  32.394  33.493  14.800
73206ION    NA+44932  44.100  36.369  12.125
73207ION    NA+44933  27.892   0.273  11.665
73208ION    NA+44934  17.462   2.560   0.737
73209ION    NA+44935  35.290   0.112  10.866
73210ION    NA+44936  23.399   7.589   1.894
73211ION    NA+44937  19.774  26.540   3.604
73212ION    NA+44938  37.481  40.680   4.632
73213ION    NA+44939  21.571  20.394   0.966
73214ION    NA+44940  28.665  44.026   4.637
73215ION    NA+44941  24.697  12.875  11.044
73216ION    NA+44942  38.414   1.638   2.293
73217ION    NA+44943  40.420   4.008   3.162
73218ION    NA+44944  39.347  15.643  11.893
73219ION    NA+44945  15.767   0.854   4.105
73220ION    NA+44946  37.904   3.024   2.227
73221ION    NA+44947   1.708   1.016  14.689
73222ION    NA+44948  37.970  11.199  11.323
73223ION    NA+44949  15.029  12.035  12.166
73224ION    NA+44950  18.511   6.947   0.347
73225ION    NA+44951  26.171   6.713  11.070
73226ION    NA+44952   2.014   1.736   0.476
73227ION    NA+44953  11.237  35.381   4.608
73228ION    NA+44954  41.621  16.316   3.171
73229ION    NA+44955  27.018  27.229   2.835
73230ION    NA+44956  23.436  24.236   0.860
73231ION    NA+44957   3.880  34.243   4.480
73232ION    NA+44958  30.932  21.492   2.658
73233ION    NA+44959  18.959  28.340  14.891
73234ION    NA+44960   4.227  12.376   3.285
73235ION    NA+44961   5.761  29.933   1.254
73236ION    NA+44962  32.908  37.293   3.265
73237ION    NA+44963  11.800   5.163  14.535
73238ION    NA+44964  29.586  23.574   0.292
73239ION    NA+44965  38.916   2.458   2.021
73240ION    NA+44966  12.388  27.238   3.542
73241ION    NA+44967  20.522  24.485  12.714
73242ION    NA+44968  30.371  35.280   4.037
73243ION    NA+44969  10.610   7.598  13.953
73244ION    NA+44970  33.331   6.651  14.104
73245ION    NA+44971  22.293  23.577  14.708
73246ION    NA+44972  14.544  26.040  12.579
73247ION    NA+44973  20.934  28.021  11.576
73248ION    NA+44974  21.784   6.210  13.933
73249ION    NA+44975  29.501  30.608  14.332
73250ION    NA+44976  22.423   2.946   4.734
73251ION    NA+44977   5.915  14.674   2.172
73252ION    NA+44978  14.522  28.618  11.206
73253ION    NA+44979   7.197   7.502   3.248
73254ION    NA+44980  26.540   9.828   2.232
73255ION    NA+44981  19.068   4.688   2.792
73256ION    NA+44982  15.504  17.572  11.966
73257ION    NA+44983  28.599  39.898   1.179
73258ION    NA+44984  13.326   3.135  14.293
73259ION    NA+44985  22.425  20.232  12.866
73260ION    NA+44986  12.762  44.925   0.015
73261ION    NA+44987  16.080  27.671  14.394
73262ION    NA+44988  24.661  18.441  10.205
73263ION    NA+44989  10.966  19.586   3.184
73264ION    NA+44990   4.304   6.502   4.152
73265ION    NA+44991  22.993  30.315  12.903
73266ION    NA+44992  32.328  43.741   0.716
73267ION    NA+44993   5.253   7.590   0.114
73268ION    NA+44994  30.132  18.281  10.766
73269ION    NA+44995  11.388   4.772   9.958
73270ION    NA+44996  29.306  24.421  11.769
73271ION    NA+44997   5.395  24.823   2.424
73272ION    NA+44998  42.946   8.734  13.429
73273ION    NA+44999   0.865  14.084   2.811
73274ION    NA+45000  40.781  26.146  14.807
73275ION    NA+45001  30.242   5.150  13.384
73276ION    NA+45002  25.352  32.429   3.098
73277ION    NA+45003   4.923  16.769   0.712
73278ION    NA+45004  36.920  24.118  12.087
73279ION    NA+45005  44.433  11.526  12.070
73280ION    NA+45006  12.125  37.560   0.233
73281ION    NA+45007  11.927  17.502   4.613
73282ION    NA+45008  19.591  29.280  14.914
73283ION    NA+45009   9.501  15.330   0.423
73284ION    NA+45010  25.471  22.778   2.979
73285ION    NA+45011  41.442  11.292  14.721
73286ION    NA+45012  36.054  39.900  14.547
73287ION    NA+45013  29.478  39.054   2.471
73288ION    NA+45014  26.991  23.228   0.181
73289ION    NA+45015  31.834  38.907  12.089
73290ION    NA+45016  31.462   2.296   4.380
73291ION    NA+45017  27.915   3.188  14.404
73292ION    NA+45018  35.997  18.978   0.693
73293ION    NA+45019   0.248  30.844   4.731
73294ION    NA+45020  40.903  22.649   0.417
73295ION    NA+45021   7.153  35.984  12.348
73296ION    NA+45022  43.169   0.758  11.413
73297ION    NA+45023  13.743  30.654   4.366
73298ION    NA+45024   4.731  34.167  10.769
73299ION    NA+45025  27.546  10.795   0.663
73300ION    NA+45026  30.347  26.785   0.511
73301ION    NA+45027   3.077  20.385   2.695
73302ION    NA+45028  39.541  36.769  11.027
73303ION    NA+45029  15.966  36.750   4.999
73304ION    NA+45030  19.649  26.985  14.300
73305ION    NA+45031  32.132  11.328  12.641
73306ION    NA+45032  38.765  19.702   0.305
73307ION    NA+45033  14.027  22.134   2.560
73308ION    NA+45034  33.795  35.231   3.666
73309ION    NA+45035  27.187  24.195  12.074
73310ION    NA+45036  35.017   0.701  14.344
73311ION    NA+45037  16.093  17.116  14.392
73312ION    NA+45038   0.883  43.893   2.281
73313ION    NA+45039  11.355  22.831  14.667
73314ION    NA+45040  27.178   8.327   3.030
73315ION    NA+45041  28.280  17.257   3.639
73316ION    NA+45042  21.200  33.144  11.598
73317ION    NA+45043   1.034  32.549   3.423
73318ION    NA+45044  16.535  23.723  11.433
73319ION    NA+45045  23.729   8.824   1.033
73320ION    NA+45046  24.174   4.912  13.398
73321ION    NA+45047  16.136  26.820   5.284
73322ION    NA+45048  11.416   6.289  13.191
73323ION    NA+45049  21.957  26.574  11.517
73324ION    NA+45050  13.191  40.736   3.100
73325ION    NA+45051  16.356  17.698  11.318
73326ION    NA+45052  35.211   5.601  12.214
73327ION    NA+45053  26.015  11.027  14.497
73328ION    NA+45054  37.332  39.399   4.425
73329ION    NA+45055   3.867  40.381   4.110
73330ION    NA+45056  10.265   9.280   2.359
73331ION    NA+45057   3.614  17.247   0.387
73332ION    NA+45058  21.502  43.777   3.769
73333ION    NA+45059  25.808   5.185   4.718
73334ION    NA+45060   2.347  29.169  12.179
73335ION    NA+45061  17.294   7.396   4.728
73336ION    NA+45062  43.708  39.794   3.071
73337ION    NA+45063   9.035  15.839   1.147
73338ION    NA+45064  40.836  33.983  13.384
73339ION    NA+45065  22.102  21.047  12.318
73340ION    NA+45066  43.776   0.143   0.847
73341ION    NA+45067  38.037  20.190   1.389
73342ION    NA+45068   0.399  19.458   1.021
73343ION    NA+45069  43.890   1.621  13.407
73344ION    NA+45070  35.219   8.596   1.639
73345ION    NA+45071  24.003  37.098  11.612
73346ION    NA+45072  26.320  36.644   2.207
73347ION    NA+45073  18.242  36.973  10.724
73348ION    NA+45074  23.639  29.766  12.387
73349ION    NA+45075  19.160  18.133  13.062
73350ION    NA+45076   1.258  40.740  13.543
73351ION    NA+45077  38.632   3.006   3.849
73352ION    NA+45078   3.702  16.115   4.688
73353ION    NA+45079  17.365  18.826  12.537
73354ION    NA+45080  30.949  14.140   4.356
73355ION    NA+45081  12.010  41.171   3.038
73356ION    NA+45082  27.252  34.643  12.697
73357ION    NA+45083  26.240  32.649   0.480
73358ION    NA+45084  14.554   9.294  12.423
73359ION    NA+45085  29.268  39.784   3.562
73360ION    NA+45086  30.511  38.964   5.109
73361ION    NA+45087  36.959   8.203  10.726
73362ION    NA+45088  26.743   7.222   4.139
73363ION    NA+45089  25.746  20.627  14.930
73364ION    NA+45090  43.818  20.233   3.506
73365ION    NA+45091  31.241   1.163   3.205
73366ION    NA+45092   8.379  36.077   1.823
73367ION    NA+45093  24.333  20.158   3.347
73368ION    NA+45094  31.617  10.171  12.394
73369ION    NA+45095   1.524  26.618   0.182
73370ION    NA+45096  16.587  13.195  13.707
73371ION    NA+45097   3.945  11.255   1.200
73372ION    NA+45098  27.423   4.962   4.562
73373ION    NA+45099  34.149   0.345  13.997
73374ION    NA+45100  41.813  29.662   0.537
73375ION    NA+45101   6.463  22.011   1.681
73376ION    NA+45102  17.310  39.745  14.380
73377ION    NA+45103  42.583  38.665  11.207
73378ION    NA+45104   8.646  37.169   0.477
73379ION    NA+45105  27.129   5.923   4.171
73380ION    NA+45106  17.811  23.109   3.448
73381ION    NA+45107  14.007  43.504   1.791
73382ION    NA+45108  41.580  43.635  13.067
73383ION    NA+45109  11.342  17.727   0.951
73384ION    NA+45110  23.024  16.094  14.531
73385ION    NA+45111  36.568  12.923   4.576
73386ION    NA+45112  16.093  17.412   3.207
73387ION    NA+45113  25.822   9.509   4.865
73388ION    NA+45114  11.913  11.606  11.514
73389ION    NA+45115  15.338  18.863  12.930
73390ION    NA+45116  39.999   2.225  13.955
73391ION    NA+45117  44.602   2.538   0.434
73392ION    NA+45118  31.715  17.252   4.665
73393ION    NA+45119  34.231  36.635   1.444
73394ION    NA+45120  27.695  10.624   2.179
73395ION    NA+45121   2.978  32.348  12.111
73396ION    NA+45122   8.513  36.077  12.002
73397ION    NA+45123   6.708  32.012   1.278
73398ION    NA+45124  18.792  27.508  10.963
73399ION    NA+45125  39.278  35.479   2.207
73400ION    NA+45126  33.070   8.108  13.385
73401ION    NA+45127  40.836  39.028   1.840
73402ION    NA+45128  34.360  40.688   1.963
73403ION    NA+45129  21.132  42.204  10.766
73404ION    NA+45130  38.935  18.291   1.026
73405ION    NA+45131  17.987  41.321   1.325
73406ION    NA+45132  25.839   3.936  12.778
73407ION    NA+45133  18.751  19.823   2.348
73408ION    NA+45134   2.899  31.083   2.462
73409ION    NA+45135  25.046  19.129  12.975
73410ION    NA+45136  37.033  36.301   0.088
73411ION    NA+45137  26.244  34.960   3.329
73412ION    NA+45138  18.245  25.696   2.713
73413ION    NA+45139  13.708  12.842  12.964
73414ION    NA+45140   9.347  11.135   4.298
73415ION    NA+45141  39.598  42.289   0.993
73416ION    NA+45142  28.726  27.549  14.691
73417ION    NA+45143   1.184  33.977  13.305
73418ION    NA+45144  21.470   9.882   3.805
73419ION    NA+45145  18.281  44.017   2.816
73420ION    NA+45146   5.876   8.722  14.083
73421ION    NA+45147  18.777  34.095  11.031
73422ION    NA+45148  32.433  39.836   4.567
73423ION    NA+45149  30.450  26.332  10.600
73424ION    NA+45150   4.120  29.438  13.906
73425ION    NA+45151  38.285  44.186   3.411
73426ION    NA+45152  44.870  19.685  14.045
73427ION    NA+45153  19.725  32.131   2.693
73428ION    NA+45154   4.631   5.754   2.748
73429ION    NA+45155   3.924  44.025  11.723
73430ION    NA+45156  37.025  20.606  10.738
73431ION    NA+45157  36.029  20.890  13.072
73432ION    NA+45158   3.282  42.434  12.911
73433ION    NA+45159   3.501  28.628   2.114
73434ION    NA+45160  31.625  23.245  14.768
73435ION    NA+45161  10.746  35.436   0.427
73436ION    NA+45162   7.901  43.845   0.776
73437ION    NA+45163  17.587  15.896   0.486
73438ION    NA+45164  16.230  38.573  11.012
73439ION    NA+45165   2.147  19.838  12.275
73440ION    NA+45166   6.652  30.788   0.578
73441ION    NA+45167   0.624   4.956   2.982
73442ION    NA+45168   8.475  12.525  12.391
73443ION    NA+45169  36.058  37.029   4.538
73444ION    NA+45170  16.844  21.579  14.449
73445ION    NA+45171   2.845  43.313  11.039
73446ION    NA+45172  32.746  40.821  14.273
73447ION    NA+45173  27.511  43.892  14.440
73448ION    NA+45174   7.264  26.162   3.939
73449ION    NA+45175   1.488  34.539  14.829
73450ION    NA+45176  36.815  39.855   1.840
73451ION    NA+45177   8.905  34.582   4.213
73452ION    NA+45178  31.659  41.260  13.433
73453ION    NA+45179  22.488  30.082   2.040
73454ION    NA+45180  24.184  42.084   2.901
73455ION    NA+45181   3.536  25.285  13.236
73456ION    NA+45182  26.284  40.436  12.897
73457ION    NA+45183   5.073  20.951  13.097
73458ION    NA+45184  12.640  39.921  10.777
73459ION    NA+45185   5.669  10.877  13.906
73460ION    NA+45186  13.081  30.358   3.678
73461ION    NA+45187  38.126  34.273  14.573
73462ION    NA+45188  31.906  26.045  10.948
73463ION    NA+45189  18.573   6.262   3.649
73464ION    NA+45190  29.905  32.213   2.603
73465ION    NA+45191  23.465  11.222   0.897
73466ION    NA+45192  10.337  32.668  13.237
73467ION    NA+45193  29.051  37.996  14.823
73468ION    NA+45194  24.085  11.851  10.514
73469ION    NA+45195  25.645  22.239  13.151
73470ION    NA+45196  34.103  15.577  11.664
73471ION    NA+45197  20.546  34.489  13.770
73472ION    NA+45198  16.116  40.366   4.093
73473ION    NA+45199  43.154  36.072  11.999
73474ION    NA+45200  42.359  29.195   4.910
73475ION    NA+45201   0.648  25.567  14.775
73476ION    NA+45202  22.561  33.643  13.518
73477ION    NA+45203  16.620  44.729   0.287
73478ION    NA+45204   2.166  37.266   3.843
73479ION    NA+45205  40.233  43.279  12.675
73480ION    NA+45206  27.215  14.792  14.449
73481ION    NA+45207  16.107  44.925  10.752
73482ION    NA+45208  39.545  33.463  12.665
73483ION    NA+45209  26.949  35.781   0.415
73484ION    NA+45210  28.122  30.462   2.856
73485ION    NA+45211  29.762  20.512  13.759
73486ION    NA+45212   9.746   0.985  11.583
73487ION    NA+45213  24.839  19.908   4.172
73488ION    NA+45214   0.410  23.197   4.524
73489ION    NA+45215  36.282  21.676   2.139
73490ION    NA+45216  16.978  36.189  11.089
73491ION    NA+45217  37.401  30.135   2.850
73492ION    NA+45218  30.898  19.768  13.791
73493ION    NA+45219  21.997  11.954   3.944
73494ION    NA+45220  37.770   3.699   4.088
73495ION    NA+45221  24.529  17.503  14.386
73496ION    NA+45222  28.154  31.408   1.468
73497ION    NA+45223  35.574  19.083  14.002
73498ION    NA+45224  37.072   9.223   2.719
73499ION    NA+45225  15.603   0.191  11.597
73500ION    NA+45226  15.976  33.453  11.096
73501ION    NA+45227  11.237   5.669   3.302
73502ION    NA+45228   7.169  20.424   2.895
73503ION    NA+45229   5.200   2.964   0.065
73504ION    NA+45230   6.885  14.017   1.221
73505ION    NA+45231  22.646  20.943   2.350
73506ION    NA+45232  19.122   9.704  12.933
73507ION    NA+45233   6.947  12.665   2.681
73508ION    NA+45234   4.266  23.697   0.392
73509ION    NA+45235  20.402  14.987  10.683
73510ION    NA+45236  40.319  30.980   2.819
73511ION    NA+45237  12.034   6.133  11.070
73512ION    NA+45238   5.144  27.703  13.913
73513ION    NA+45239   5.796  26.076   3.681
73514ION    NA+45240   0.230  35.676   4.058
73515ION    NA+45241  36.058  38.936   0.734
73516ION    NA+45242  37.962  20.429  14.527
73517ION    NA+45243  30.209  17.856   1.736
73518ION    NA+45244  25.159  38.800   0.924
73519ION    NA+45245  16.332  36.934   1.348
73520ION    NA+45246  12.789   4.812  11.023
73521ION    NA+45247  35.985  17.569  13.220
73522ION    NA+45248  20.304  23.407   0.386
73523ION    NA+45249  38.781  35.022  10.903
73524ION    NA+45250  34.965  10.817  10.986
73525ION    NA+45251   8.090  44.887   1.938
73526ION    NA+45252  24.148  38.245   0.637
73527ION    NA+45253  23.522  29.636   4.526
73528ION    NA+45254   5.741  37.028   0.060
73529ION    NA+45255  27.196   1.898  14.074
73530ION    NA+45256  28.648   6.725  12.949
73531ION    NA+45257  41.955   5.962   1.716
73532ION    NA+45258   0.758  31.528  13.535
73533ION    NA+45259   1.596  36.297  12.998
73534ION    NA+45260  16.575  26.374   3.127
73535ION    NA+45261  27.106   1.742   1.782
73536ION    NA+45262  30.794  29.622  14.069
73537ION    NA+45263  22.460  36.294  10.126
73538ION    NA+45264  22.293   9.105   4.077
73539ION    NA+45265  19.821  14.259  12.506
73540ION    NA+45266   3.287  42.705  14.348
73541ION    NA+45267  23.994  12.644  11.716
73542ION    NA+45268  32.298  12.523  13.317
73543ION    NA+45269  34.214  34.541  11.376
73544ION    NA+45270  43.940  26.886   2.225
73545ION    NA+45271  13.803  39.611   4.043
73546ION    NA+45272  22.722  15.848   1.826
73547ION    NA+45273  11.953  28.467  12.577
73548ION    NA+45274   0.951  23.214   2.378
73549ION    NA+45275  10.282  36.100   1.835
73550ION    NA+45276  34.007   2.317  11.800
73551ION    NA+45277  43.470   0.702   2.299
73552ION    NA+45278   5.304  39.024  13.863
73553ION    NA+45279  21.790   4.935  13.463
73554ION    NA+45280   9.136  25.695  13.956
73555ION    NA+45281  28.533  39.954   4.219
73556ION    NA+45282  35.777  19.743  10.792
73557ION    NA+45283  12.893  14.177  13.774
73558ION    NA+45284  33.061  19.723   0.075
73559ION    NA+45285  32.327   7.569  14.469
73560ION    NA+45286   6.445  37.655  10.432
73561ION    NA+45287  43.911  12.996   0.330
73562ION    NA+45288   3.175  20.337   0.000
73563ION    NA+45289  21.956   6.484   0.961
73564ION    NA+45290  18.729   5.912  12.129
73565ION    NA+45291  28.732  37.005  10.551
73566ION    NA+45292  21.237  44.241  11.515
73567ION    NA+45293   1.049  15.517   0.614
73568ION    NA+45294  15.214  34.611   1.682
73569ION    NA+45295   8.873  13.185   2.130
73570ION    NA+45296  27.630  41.737   0.148
73571ION    NA+45297  28.080  39.253   0.333
73572ION    NA+45298  22.992  29.039   1.226
73573ION    NA+45299  25.415  12.172  10.749
73574ION    NA+45300   6.807   9.635   3.376
73575ION    NA+45301  11.650  24.197   2.952
73576ION    NA+45302  14.589  22.281  14.174
73577ION    NA+45303  42.908  17.994   0.713
73578ION    NA+45304  33.107  23.532  13.832
73579ION    NA+45305  10.438   4.378  12.057
73580ION    NA+45306   7.467   6.196  10.209
73581ION    NA+45307  36.545  38.448  11.182
73582ION    NA+45308  40.566  26.249  13.027
73583ION    NA+45309  14.880   2.411   4.130
73584ION    NA+45310  10.525  24.939  14.544
73585ION    NA+45311  20.144  26.059   4.707
73586ION    NA+45312  12.453  10.365  14.211
73587ION    NA+45313   6.330  10.675   1.074
73588ION    NA+45314   2.327   9.819   1.659
73589ION    NA+45315   2.543  20.123   1.776
73590ION    NA+45316  43.387  25.596  11.838
73591ION    NA+45317  33.047  24.363  12.744
73592ION    NA+45318  35.753  32.677   4.307
73593ION    NA+45319  18.155  35.430   1.248
73594ION    NA+45320  15.904   6.054  13.586
73595ION    NA+45321   1.390  16.103  10.859
73596ION    NA+45322   7.922  35.348   4.612
73597ION    NA+45323  32.695  15.370   2.893
73598ION    NA+45324   4.070   3.117   3.658
73599ION    NA+45325  12.638  42.757  12.743
73600ION    NA+45326  42.200  32.823  14.180
73601ION    NA+45327  38.600  34.065   3.813
73602ION    NA+45328  41.276  31.034  13.885
73603ION    NA+45329  25.683   7.878   1.212
73604ION    NA+45330  38.797   5.622   4.820
73605ION    NA+45331  40.113  41.597   0.698
73606ION    NA+45332  21.135  25.446   1.348
73607ION    NA+45333  42.141  20.751   2.530
73608ION    NA+45334  35.997  14.567  13.663
73609ION    NA+45335  20.844   1.752   2.820
73610ION    NA+45336  40.767  40.882  12.212
73611ION    NA+45337  28.565  30.880  12.477
73612ION    NA+45338   6.009  31.614  12.957
73613ION    NA+45339  21.555  19.191  13.511
73614ION    NA+45340  33.407  22.792   3.197
73615ION    NA+45341  40.298  21.959  13.084
73616ION    NA+45342  42.963  13.298   4.036
73617ION    NA+45343   9.165  26.027   0.889
73618ION    NA+45344  42.422  15.784  10.909
73619ION    NA+45345  28.219  20.549   4.987
73620ION    NA+45346   7.756  20.057   0.842
73621ION    NA+45347   3.425  35.558  10.710
73622ION    NA+45348  44.957  35.360  10.759
73623ION    NA+45349  20.038  14.759   3.771
73624ION    NA+45350   8.115  25.046   0.845
73625ION    NA+45351   2.719   2.732  11.190
73626ION    NA+45352  40.211  42.362   5.148
73627ION    NA+45353  14.658  43.424  11.659
73628ION    NA+45354  44.565  37.896   4.483
73629ION    NA+45355  32.155  18.975  12.881
73630ION    NA+45356  20.813  38.441  11.179
73631ION    NA+45357   7.887   8.952  14.045
73632ION    NA+45358   5.278   1.736   3.607
73633ION    NA+45359  36.232   1.564  10.744
73634ION    NA+45360   7.886   4.990   3.237
73635ION    NA+45361  11.381  38.009  13.958
73636ION    NA+45362  16.052   0.388   0.905
73637ION    NA+45363  37.601  25.380  12.671
73638ION    NA+45364  33.922   6.651   1.175
73639ION    NA+45365  35.749  17.717   0.976
73640ION    NA+45366  15.908   9.235   3.366
73641ION    NA+45367  31.669   1.395  11.474
73642ION    NA+45368  39.471  29.068  14.699
73643ION    NA+45369  36.935  18.330  10.754
73644ION    NA+45370  35.016   2.437   3.066
73645ION    NA+45371  19.616   5.230  14.506
73646ION    NA+45372  17.488  24.745  13.076
73647ION    NA+45373   7.643  40.685   4.889
73648ION    NA+45374  26.503  16.065   1.290
73649ION    NA+45375   4.420  35.574  10.612
73650ION    NA+45376  17.229  30.612   3.872
73651ION    NA+45377   5.900  32.344   0.791
73652ION    NA+45378  14.044   5.588   1.378
73653ION    NA+45379   4.376  12.861   4.147
73654ION    NA+45380  10.886   2.323  14.532
73655ION    NA+45381  42.857  14.408   9.923
73656ION    NA+45382  10.408  11.357  12.811
73657ION    NA+45383   2.845  27.924   2.433
73658ION    NA+45384  39.513   1.279   4.323
73659ION    NA+45385   0.133   9.311  11.006
73660ION    NA+45386  24.178  30.674   3.697
73661ION    NA+45387   6.159  40.963   1.795
73662ION    NA+45388   5.562  24.145   3.140
73663ION    NA+45389  28.102   6.611  11.088
73664ION    NA+45390   5.887  22.720   3.772
73665ION    NA+45391  21.719  44.096  12.391
73666ION    NA+45392   9.884   7.493   1.736
73667ION    NA+45393  19.597  16.754   3.476
73668ION    NA+45394   8.794   5.973  13.855
73669ION    NA+45395  20.985  14.819  11.359
73670ION    NA+45396  40.711  32.183   4.053
73671ION    NA+45397   4.349   6.445   1.273
73672ION    NA+45398  35.175  15.885  12.009
73673ION    NA+45399   7.219  25.759  12.655
73674ION    NA+45400  17.750  31.634  10.754
73675ION    NA+45401  39.097  14.611  14.894
73676ION    NA+45402  30.684  13.614   2.442
73677ION    NA+45403  44.422  30.071   3.280
73678ION    NA+45404  16.965   2.909  11.263
73679ION    NA+45405  18.871  41.355   0.860
73680ION    NA+45406  13.214   4.275   3.485
73681ION    NA+45407  41.131   0.119   1.856
73682ION    NA+45408  15.793   5.225  13.381
73683ION    NA+45409  43.644  36.821  11.213
73684ION    NA+45410  43.585  21.754   0.717
73685ION    NA+45411   1.981  11.824  11.341
73686ION    NA+45412   1.843  31.942   9.749
73687ION    NA+45413  12.571   2.085  10.983
73688ION    NA+45414  34.169  35.505   1.819
73689ION    NA+45415   3.774  38.092   4.231
73690ION    NA+45416  37.146  42.340   4.133
73691ION    NA+45417  44.153  18.507   0.451
73692ION    NA+45418  31.022  24.663   4.340
73693ION    NA+45419  26.145   9.578   3.172
73694ION    NA+45420  37.937  28.948  13.751
73695ION    NA+45421  41.789   2.108   0.752
73696ION    NA+45422   3.627  44.105   9.673
73697ION    NA+45423  15.055  12.016   2.817
73698ION    NA+45424  19.754  16.365  14.194
73699ION    NA+45425  44.857  19.746  12.209
73700ION    NA+45426  38.708  41.424  11.054
73701ION    NA+45427  19.092  12.385  10.909
73702ION    NA+45428   9.470  27.209  14.845
73703ION    NA+45429  26.971  27.289  13.511
73704ION    NA+45430  40.796  39.026  10.637
73705ION    NA+45431   4.306   0.514  12.683
73706ION    NA+45432  19.648  20.600  10.760
73707ION    NA+45433  19.030  16.746   2.652
73708ION    NA+45434  15.835  10.541   4.203
73709ION    NA+45435  13.142  12.435   2.740
73710ION    NA+45436  19.513  12.221   0.315
73711ION    NA+45437   1.209   7.725   0.771
73712ION    NA+45438  32.482  32.636  14.555
73713ION    NA+45439   5.666   0.911   3.696
73714ION    NA+45440   2.089  33.827  12.515
73715ION    NA+45441   1.687  39.560  12.695
73716ION    NA+45442  34.109  31.253   4.240
73717ION    NA+45443  33.038   1.656  12.144
73718ION    NA+45444  23.253  25.713   0.637
73719ION    NA+45445  39.612  39.030  13.140
73720ION    NA+45446  16.618  34.392   2.400
73721ION    NA+45447   0.421   0.587   1.321
73722ION    NA+45448  11.624  36.491   0.871
73723ION    NA+45449  34.946   1.168  10.618
73724ION    NA+45450   0.140  17.461  11.801
73725ION    NA+45451  26.939  11.354  11.684
73726ION    NA+45452  20.230  34.301   0.988
73727ION    NA+45453  31.096  19.246   2.123
73728ION    NA+45454   3.824  44.719   2.320
73729ION    NA+45455   6.629  32.014  10.683
73730ION    NA+45456  11.584  20.297  13.543
73731ION    NA+45457  44.047  14.104   2.691
73732ION    NA+45458  36.536  28.791   2.413
73733ION    NA+45459  39.463  12.908   3.835
73734ION    NA+45460   6.492  32.724   2.938
73735ION    NA+45461  32.193  18.419   1.096
73736ION    NA+45462  31.512  26.902  12.576
73737ION    NA+45463   9.278  33.462  12.446
73738ION    NA+45464  18.226  43.216  14.213
73739ION    NA+45465  21.262   1.462  13.195
73740ION    NA+45466  32.020  35.304   2.368
73741ION    NA+45467  30.244  33.908  13.216
73742ION    NA+45468  41.117   9.168   4.170
73743ION    NA+45469  20.854   4.810   0.276
73744ION    NA+45470   3.680   3.938   4.076
73745ION    NA+45471   4.123  34.750  12.896
73746ION    NA+45472  13.169   4.123   1.976
73747ION    NA+45473  26.593  31.779  13.437
73748ION    NA+45474  33.962   1.954  13.579
73749ION    NA+45475  30.443  14.265  10.712
73750ION    NA+45476  38.261  24.577   0.977
73751ION    NA+45477  41.769   4.121   2.248
73752ION    NA+45478  30.453   5.810  12.106
73753ION    NA+45479   7.179  29.763  11.969
73754ION    NA+45480  39.679   8.478   2.130
73755ION    NA+45481   9.418  16.923   1.995
73756ION    NA+45482  43.751   9.378  14.002
73757ION    NA+45483  21.023  16.026  13.844
73758ION    NA+45484   5.174  43.392  13.550
73759ION    NA+45485  41.705  42.059  14.578
73760ION    NA+45486   7.354  28.368  13.732
73761ION    NA+45487  39.494  40.976   4.237
73762ION    NA+45488  13.741  15.995   0.487
73763ION    NA+45489  19.848  13.076   0.722
73764ION    NA+45490  25.656   1.003  13.510
73765ION    NA+45491  18.257   5.077  12.675
73766ION    NA+45492  20.153   1.126   3.667
73767ION    NA+45493  36.343  24.227  12.896
73768ION    NA+45494  21.814  24.924  11.148
73769ION    NA+45495  29.663  25.399  12.970
73770ION    NA+45496   2.268  12.195  14.480
73771ION    NA+45497  17.595  12.003  13.565
73772ION    NA+45498   2.533  16.682   2.405
73773ION    NA+45499  18.257  17.287   3.773
73774ION    NA+45500   9.784  39.752  13.798
73775ION    NA+45501   2.505   6.690  11.047
73776ION    NA+45502  32.668   1.086  14.920
73777ION    NA+45503  41.054  22.568  13.482
73778ION    NA+45504  43.760  10.557  10.793
73779ION    NA+45505  41.302   2.831   0.454
73780ION    NA+45506   4.957  32.474  14.463
73781ION    NA+45507  43.991  32.877   0.530
73782ION    NA+45508   1.927  14.192  14.021
73783ION    NA+45509  28.150  22.476  13.376
73784ION    NA+45510  27.700  23.983  12.905
73785ION    NA+45511  15.127  19.782  12.597
73786ION    NA+45512   6.178   0.931   9.884
73787ION    NA+45513  41.881  26.994   3.917
73788ION    NA+45514  31.332   9.322   2.253
73789ION    NA+45515  22.820  27.885   4.335
73790ION    NA+45516   1.202  12.297   1.847
73791ION    NA+45517  21.557  37.347   4.095
73792ION    NA+45518  31.045  42.824   2.741
73793ION    NA+45519  25.764  26.581  12.484
73794ION    NA+45520  28.397   2.455   0.009
73795ION    NA+45521  31.237  23.967   3.655
73796ION    NA+45522  39.778   5.516   2.784
73797ION    NA+45523  10.944  36.068   5.099
73798ION    NA+45524  42.938   1.546  14.760
73799ION    NA+45525  21.680  20.147  12.203
73800ION    NA+45526  10.736  25.231  10.218
73801ION    NA+45527  25.627  24.046  10.698
73802ION    NA+45528  18.608  21.509  12.559
73803ION    NA+45529  29.026  41.578  10.688
73804ION    NA+45530  34.144  31.609   0.918
73805ION    NA+45531  43.343  28.084   1.481
73806ION    NA+45532  22.974  14.009   2.386
73807ION    NA+45533  41.690   6.845  12.283
73808ION    NA+45534  11.954   1.017   0.615
73809ION    NA+45535  16.802   3.909   1.695
73810ION    NA+45536   0.876  29.094   2.798
73811ION    NA+45537  23.419  17.457  13.500
73812ION    NA+45538  30.757  34.946  11.386
73813ION    NA+45539  22.793  25.637  10.200
73814ION    NA+45540   4.189  43.494  13.370
73815ION    NA+45541  39.323  15.826   0.473
73816ION    NA+45542  25.411  21.819   2.703
73817ION    NA+45543  25.881  33.991   0.533
73818ION    NA+45544  43.597  37.697  13.740
73819ION    NA+45545  15.271  21.123  14.022
73820ION    NA+45546  14.286  35.576   0.299
73821ION    NA+45547  35.090  36.946   1.543
73822ION    NA+45548  11.220   1.774  10.792
73823ION    NA+45549  44.689   7.634  11.245
73824ION    NA+45550  13.100  17.031  12.691
73825ION    NA+45551  25.041  37.174  11.915
73826ION    NA+45552  12.607  43.269  13.514
73827ION    NA+45553  14.724  35.795  10.303
73828ION    NA+45554  34.527  34.069   0.254
73829ION    NA+45555  11.151   4.811   2.795
73830ION    NA+45556  11.107  29.114   4.027
73831ION    NA+45557  14.467  24.773   3.432
73832ION    NA+45558  28.065  36.467  12.914
73833ION    NA+45559   4.985  34.460  12.978
73834ION    NA+45560  21.455  12.835   1.337
73835ION    NA+45561  22.948   1.925  12.046
73836ION    NA+45562   6.986  30.103   3.714
73837ION    NA+45563  44.469  22.790   3.215
73838ION    NA+45564  42.757  22.523  10.579
73839ION    NA+45565  13.308  29.723   2.661
73840ION    NA+45566  15.204  39.523  10.324
73841ION    NA+45567   5.723  17.521   0.821
73842ION    NA+45568  11.797  31.928   1.923
73843ION    NA+45569  35.403   8.866  13.090
73844ION    NA+45570  34.926  40.860  13.662
73845ION    NA+45571  28.046   7.635  14.014
73846ION    NA+45572  29.324  32.898   3.323
73847ION    NA+45573  20.057  22.380   2.458
73848ION    NA+45574  40.070  16.657   3.217
73849ION    NA+45575  11.027  33.974  14.134
73850ION    NA+45576  16.932   8.801   4.028
73851ION    NA+45577  12.871  35.206   2.396
73852ION    NA+45578  15.346   1.760   1.943
73853ION    NA+45579  33.341   5.770   4.578
73854ION    NA+45580  14.608  22.233  13.175
73855ION    NA+45581  22.772  42.502   0.170
73856ION    NA+45582  38.305  19.473  13.779
73857ION    NA+45583  17.177  30.331   1.155
73858ION    NA+45584  23.960  33.760   4.201
73859ION    NA+45585   4.612  39.821  13.945
73860ION    NA+45586  20.294  29.337  10.231
73861ION    NA+45587  19.278   1.648  11.696
73862ION    NA+45588  24.777  13.538  13.518
73863ION    NA+45589   2.154  28.157  14.507
73864ION    NA+45590  31.380  16.075   2.583
73865ION    NA+45591  32.849  30.133  10.770
73866ION    NA+45592   8.104   5.567  13.557
73867ION    NA+45593  24.944  14.221   0.845
73868ION    NA+45594  25.150  17.544  12.002
73869ION    NA+45595   3.785   4.793  11.930
73870ION    NA+45596  25.889  39.868   4.148
73871ION    NA+45597  16.829  20.619   4.546
73872ION    NA+45598  17.526  30.396   2.573
73873ION    NA+45599  36.840   7.599   4.935
73874ION    NA+45600  35.116  15.299  14.892
73875ION    NA+45601  25.707   2.002  13.514
73876ION    NA+45602   1.994  35.980   1.478
73877ION    NA+45603  34.511   3.483  10.739
73878ION    NA+45604  26.724  37.041   0.909
73879ION    NA+45605  44.289   5.337   2.583
73880ION    NA+45606  12.086   3.970   4.049
73881ION    NA+45607  14.264  32.099   1.196
73882ION    NA+45608  12.041  15.076  13.298
73883ION    NA+45609  44.851  15.326  14.559
73884ION    NA+45610  26.892  10.199   1.129
73885ION    NA+45611  22.582  41.880   1.309
73886ION    NA+45612  42.384  42.546  13.040
73887ION    NA+45613  35.280  44.090   0.012
73888ION    NA+45614  18.278  13.366   3.620
73889ION    NA+45615  29.555  19.102   1.689
73890ION    NA+45616  19.321   2.561  11.600
73891ION    NA+45617  33.709   9.150   4.490
73892ION    NA+45618  11.209   2.500   3.777
73893ION    NA+45619  30.006  17.581  12.349
73894ION    NA+45620  28.494  38.608  11.763
73895ION    NA+45621  23.211  22.291   3.975
73896ION    NA+45622  34.224  41.936   5.581
73897ION    NA+45623   8.243  15.729   1.747
73898ION    NA+45624  33.994  39.879  14.883
73899ION    NA+45625  44.471  38.905   4.393
73900ION    NA+45626  32.692  32.098   3.685
73901ION    NA+45627  15.571  44.584   3.283
73902ION    NA+45628  17.128  34.081   1.415
73903ION    NA+45629  34.974  14.244   9.974
73904ION    NA+45630  40.242  39.795  13.276
73905ION    NA+45631   6.965  28.656  11.059
73906ION    NA+45632  30.261  27.157  12.108
73907ION    NA+45633  41.052   7.273   1.678
73908ION    NA+45634  29.407  22.952   3.639
73909ION    NA+45635  11.527   1.074   4.037
73910ION    NA+45636  16.194  38.745   4.980
73911ION    NA+45637  36.402  42.529   4.774
73912ION    NA+45638  10.119  20.651  13.866
73913ION    NA+45639  37.116  14.584  13.509
73914ION    NA+45640  20.115  42.397   1.697
73915ION    NA+45641  32.095  17.166   3.183
73916ION    NA+45642  13.094  16.664   2.731
73917ION    NA+45643  25.448  18.569   1.330
73918ION    NA+45644  11.424  15.658   2.876
73919ION    NA+45645  30.500   9.309   1.657
73920ION    NA+45646  44.518  20.494  11.097
73921ION    NA+45647  37.089  23.960   1.414
73922ION    NA+45648  13.318  26.958   4.142
73923ION    NA+45649  33.050  24.040  10.750
73924ION    NA+45650  40.521   4.842   2.441
73925ION    NA+45651  33.680  30.873  13.327
73926ION    NA+45652  32.100  38.559  11.190
73927ION    NA+45653  19.804  11.376   4.148
73928ION    NA+45654  31.626  13.836  10.742
73929ION    NA+45655   8.383  15.257   3.620
73930ION    NA+45656  13.134  25.702  11.111
73931ION    NA+45657   3.499  25.170   1.986
73932ION    NA+45658  33.956   5.336   3.643
73933ION    NA+45659   0.979  16.918  11.817
73934ION    NA+45660  21.547  26.655  12.426
73935ION    NA+45661  40.603  42.673   4.094
73936ION    NA+45662  39.343  13.512  14.070
73937ION    NA+45663  26.656  28.621   4.805
73938ION    NA+45664  19.293  33.998   4.572
73939ION    NA+45665  17.600  39.555   0.670
73940ION    NA+45666  30.930  28.829   1.387
73941ION    NA+45667  39.949   1.912  12.580
73942ION    NA+45668  15.000  43.311   2.797
73943ION    NA+45669   2.826  28.865   4.027
73944ION    NA+45670  17.235   8.223   3.256
73945ION    NA+45671  28.896  14.282  12.742
73946ION    NA+45672   9.938   2.506   2.628
73947ION    NA+45673  32.920  15.215   0.675
73948ION    NA+45674  12.608   3.551   2.315
73949ION    NA+45675  31.925  19.638  13.594
73950ION    NA+45676   8.369   6.822  13.541
73951ION    NA+45677  13.329   4.705  13.704
73952ION    NA+45678  41.089  41.802   4.174
73953ION    NA+45679   4.630  40.299  11.822
73954ION    NA+45680  44.873  31.462   4.041
73955ION    NA+45681  22.916  30.146   4.216
73956ION    NA+45682  14.115   6.995   1.650
73957ION    NA+45683  43.697  20.530  11.391
73958ION    NA+45684  42.687  44.392   5.262
73959ION    NA+45685  44.575  34.524   5.203
73960ION    NA+45686   8.348   3.221  10.646
73961ION    NA+45687  24.731  14.131   3.994
73962ION    NA+45688  33.519   5.195   0.400
73963ION    NA+45689  43.526  31.052   1.928
73964ION    NA+45690  11.548  35.610  13.119
73965ION    NA+45691   7.269  24.194   3.966
73966ION    NA+45692  24.095  18.491  14.232
73967ION    NA+45693  30.762  12.211   3.261
73968ION    NA+45694  30.562  16.893   0.866
73969ION    NA+45695   8.961  43.833   0.816
73970ION    NA+45696  19.531  33.587  12.201
73971ION    NA+45697  44.514  29.665  12.985
73972ION    NA+45698  33.716  39.593   1.429
73973ION    NA+45699  23.966  23.210  11.613
73974ION    NA+45700  25.076  34.351   4.612
73975ION    NA+45701  34.593  14.364   4.444
73976ION    NA+45702   8.662  38.147  11.427
73977ION    NA+45703  11.015  19.122  13.399
73978ION    NA+45704   0.954   4.406   4.197
73979ION    NA+45705   8.894  16.740   2.867
73980ION    NA+45706  40.058   3.648  12.617
73981ION    NA+45707  15.556  39.710   1.293
73982ION    NA+45708  10.719  16.512   3.305
73983ION    NA+45709   4.483  36.199  12.352
73984ION    NA+45710  43.173  40.696   2.909
73985ION    NA+45711  39.080  10.176  11.267
73986ION    NA+45712  40.035   9.455   4.755
73987ION    NA+45713  22.640  12.805   1.884
73988ION    NA+45714  21.807  24.985   5.472
73989ION    NA+45715  23.177  35.100  14.425
73990ION    NA+45716  25.095  42.228  11.418
73991ION    NA+45717  10.538  32.064   3.605
73992ION    NA+45718  38.913  10.319   5.647
73993ION    NA+45719  22.623   6.969  11.578
73994ION    NA+45720   4.557  22.961   1.938
73995ION    NA+45721  38.965  39.805   4.730
73996ION    NA+45722   4.256  19.382  13.369
73997ION    NA+45723  17.963  15.391  11.601
73998ION    NA+45724  26.258   9.325   4.133
73999ION    NA+45725  38.852  36.063  11.188
74000ION    NA+45726  32.313  13.817   1.495
74001ION    NA+45727  29.652  16.201   2.928
74002ION    NA+45728  22.230  26.073   0.819
74003ION    NA+45729  31.241  19.534  12.871
74004ION    NA+45730  23.946  18.279   4.811
74005ION    NA+45731  27.175  13.815   2.142
74006ION    NA+45732  22.687  25.776  13.398
74007ION    NA+45733  14.091  16.235   1.597
74008ION    NA+45734  32.085  28.145   5.381
74009ION    NA+45735  31.388  30.862   3.292
74010ION    NA+45736  21.320  32.250  13.572
74011ION    NA+45737  31.671  42.060  14.157
74012ION    NA+45738  21.552  18.971   4.284
74013ION    NA+45739   5.199  34.631   4.454
74014ION    NA+45740  23.750   8.242   1.223
74015ION    NA+45741  26.417  22.510   3.435
74016ION    NA+45742  22.579  35.751  13.396
74017ION    NA+45743  41.964  23.111  10.735
74018ION    NA+45744  37.595   9.575  11.131
74019ION    NA+45745  24.394  41.757   4.623
74020ION    NA+45746  35.559  36.458  11.435
74021ION    NA+45747   5.932  40.642   0.648
74022ION    NA+45748  34.835  42.472   2.396
74023ION    NA+45749  10.260  30.324   3.485
74024ION    NA+45750  41.488   0.948   1.306
74025ION    NA+45751  12.695   3.538   1.319
74026ION    NA+45752   0.968  12.699  12.470
74027ION    NA+45753  12.564  32.404   3.215
74028ION    NA+45754  18.834  13.843   2.168
74029ION    NA+45755  32.502  31.598  13.306
74030ION    NA+45756  22.927  41.960   2.687
74031ION    NA+45757  24.984  26.687   1.404
74032ION    NA+45758  30.094   5.718   0.850
74033ION    NA+45759  22.080  11.127   4.648
74034ION    NA+45760  28.372  20.233   4.168
74035ION    NA+45761  18.081  30.630   0.802
74036ION    NA+45762  15.668  15.019  13.907
74037ION    NA+45763  29.558  19.206   4.409
74038ION    NA+45764   4.409  29.075  12.066
74039ION    NA+45765  19.545  30.117  10.888
74040ION    NA+45766  17.274  12.775   2.307
74041ION    NA+45767  13.551  10.749  11.204
74042ION    NA+45768  23.493  23.161   0.946
74043ION    NA+45769   1.603  39.202   4.033
74044ION    NA+45770   3.655   7.829   3.496
74045ION    NA+45771  33.575   6.653  10.275
74046ION    NA+45772   0.825  33.913  14.308
74047ION    NA+45773  13.117  28.299  14.480
74048ION    NA+45774  15.347  42.822  12.366
74049ION    NA+45775  12.512  26.587   2.508
74050ION    NA+45776  43.858  13.795  11.586
74051ION    NA+45777  26.033  41.793   2.103
74052ION    NA+45778   3.475  23.515   4.201
74053ION    NA+45779  31.249   9.067   0.973
74054ION    NA+45780  17.899  26.980   4.293
74055ION    NA+45781  32.136  21.156  11.845
74056ION    NA+45782  29.924  12.552   4.433
74057ION    NA+45783  37.832  16.247  12.084
74058ION    NA+45784  33.878  13.735   3.699
74059ION    NA+45785   4.481  32.828  13.169
74060ION    NA+45786  34.530  22.694   2.745
74061ION    NA+45787  37.638  22.742   3.787
74062ION    NA+45788  15.642  31.404   2.863
74063ION    NA+45789  19.471  44.457   0.998
74064ION    NA+45790  30.619   3.476  13.413
74065ION    NA+45791  36.716  42.329  13.927
74066ION    NA+45792  20.500  39.505  11.554
74067ION    NA+45793  27.104   2.864  11.577
74068ION    NA+45794  23.285  32.953  13.529
74069ION    NA+45795  24.711  29.738   0.829
74070ION    NA+45796  42.688   2.193   3.302
74071ION    NA+45797   8.966  11.560   1.432
74072ION    NA+45798  10.284  10.205   2.740
74073ION    NA+45799  34.174   1.715  12.631
74074ION    NA+45800  13.253   2.502   4.298
74075ION    NA+45801   6.148  40.552   4.074
74076ION    NA+45802  31.447   9.839   0.215
74077ION    NA+45803  31.926  35.429   1.470
74078ION    NA+45804  13.787  28.827  14.667
74079ION    NA+45805  11.639  21.596  11.122
74080ION    NA+45806  14.201  40.039   2.325
74081ION    NA+45807  12.886  38.956   0.818
74082ION    NA+45808  32.805   6.147   1.031
74083ION    NA+45809  38.535  43.703  14.378
74084ION    NA+45810   6.977   2.745   3.150
74085ION    NA+45811  15.609  17.704  10.652
74086ION    NA+45812   1.866  22.600   2.286
74087ION    NA+45813  32.244   9.310   1.842
74088ION    NA+45814   5.868  28.609  12.847
74089ION    NA+45815   9.705  29.974   1.191
74090ION    NA+45816  24.219  33.475   1.009
74091ION    NA+45817  15.178  28.446  13.844
74092ION    NA+45818   3.787   2.334  10.515
74093ION    NA+45819  31.852   5.299  12.923
74094ION    NA+45820  14.153   3.200   2.449
74095ION    NA+45821  11.055  11.102  11.614
74096ION    NA+45822   1.446  28.731  14.920
74097ION    NA+45823   2.300   0.271  14.176
74098ION    NA+45824  25.634   9.424  12.462
74099ION    NA+45825  41.417  42.073  10.782
74100ION    NA+45826  10.104  34.948   3.654
74101ION    NA+45827  36.555  32.866  11.343
74102ION    NA+45828  44.435  37.024   3.622
74103ION    NA+45829   8.139  18.276  13.067
74104ION    NA+45830   5.386  29.170   2.915
74105ION    NA+45831   0.143  22.991  10.555
74106ION    NA+45832   4.776  19.628   1.410
74107ION    NA+45833  23.438  20.333   3.907
74108ION    NA+45834  24.913   0.533  10.499
74109ION    NA+45835  39.404  35.941  13.007
74110ION    NA+45836  39.784  22.456   0.210
74111ION    NA+45837  16.749  17.089   4.108
74112ION    NA+45838   0.541  39.000   4.472
74113ION    NA+45839  26.001  30.081  10.656
74114ION    NA+45840  40.538  35.415  12.598
74115ION    NA+45841  29.407   7.873  10.367
74116ION    NA+45842  18.370  14.598  11.144
74117ION    NA+45843   2.607  41.898   0.217
74118ION    NA+45844  35.814  32.958  13.479
74119ION    NA+45845  42.981  18.646   4.145
74120ION    NA+45846   3.666  36.474   3.635
74121ION    NA+45847  27.569   7.435  10.491
74122ION    NA+45848   7.391  31.101   3.787
74123ION    NA+45849  11.638  17.027  11.995
74124ION    NA+45850  16.238  13.040  11.729
74125ION    NA+45851  12.471   5.092  13.314
74126ION    NA+45852   0.332  43.992   0.298
74127ION    NA+45853  22.465  28.635  12.027
74128ION    NA+45854   0.472  18.679   0.622
74129ION    NA+45855  42.812   0.127   4.573
74130ION    NA+45856  29.159  21.910   3.775
74131ION    NA+45857  34.807  11.455   1.840
74132ION    NA+45858  17.340  42.970   1.950
74133ION    NA+45859  29.291   4.107   4.521
74134ION    NA+45860   2.194  42.458  10.369
74135ION    NA+45861  43.401  23.947  12.916
74136ION    NA+45862  22.378  12.078  11.846
74137ION    NA+45863  30.423  14.796   0.334
74138ION    NA+45864  33.429   7.970  10.752
74139ION    NA+45865  21.695  33.873   1.403
74140ION    NA+45866  36.680  19.462   1.000
74141ION    NA+45867   0.474  20.647  11.348
74142ION    NA+45868  42.249  25.590   0.726
74143ION    NA+45869  42.440  27.404   4.486
74144ION    NA+45870  23.061   5.251   3.853
74145ION    NA+45871  36.848  36.906  14.314
74146ION    NA+45872  21.208  21.639  14.393
74147ION    NA+45873   4.165  20.232  11.221
74148ION    NA+45874   2.837  30.182  13.959
74149ION    NA+45875  28.111  12.252  11.998
74150ION    NA+45876  16.458  20.736  10.894
74151ION    NA+45877  40.386  12.132  14.351
74152ION    NA+45878  42.298  15.729  13.821
74153ION    NA+45879  44.539  14.016  13.286
74154ION    NA+45880   9.344  40.331  11.156
74155ION    NA+45881  41.379  42.334  12.602
74156ION    NA+45882   5.927  24.381  11.875
74157ION    NA+45883  17.255  15.059   0.919
74158ION    NA+45884   9.809  35.394   4.800
74159ION    NA+45885  18.717  29.736  14.156
74160ION    NA+45886  41.059  25.747   5.031
74161ION    NA+45887   3.874  30.140  14.727
74162ION    NA+45888  31.736   2.399  12.470
74163ION    NA+45889   8.738  40.221   3.296
74164ION    NA+45890  27.193  17.066   0.838
74165ION    NA+45891   5.973  34.684  12.923
74166ION    NA+45892  20.299  16.195  12.000
74167ION    NA+45893  39.875  27.376   4.414
74168ION    NA+45894  33.153  24.137   2.366
74169ION    NA+45895   8.793  12.051  13.868
74170ION    NA+45896   9.208   9.509  13.505
74171ION    NA+45897  23.892  39.118   0.073
74172ION    NA+45898  34.994  36.127   5.109
74173ION    NA+45899  12.022  35.275   1.001
74174ION    NA+45900   2.052  26.249  13.411
74175ION    NA+45901  41.398  26.803  12.975
74176ION    NA+45902  30.019  42.865   1.844
74177ION    NA+45903  39.448  41.191   3.262
74178ION    NA+45904  29.005  23.642   5.528
74179ION    NA+45905  12.052  36.243  13.405
74180ION    NA+45906   7.965  25.450  13.480
74181ION    NA+45907   5.725  40.211  10.744
74182ION    NA+45908  37.572  10.690   0.019
74183ION    NA+45909  33.355  39.324   3.059
74184ION    NA+45910  33.072  15.314  14.687
74185ION    NA+45911  12.889  34.913  10.686
74186ION    NA+45912  29.788  37.675   4.637
74187ION    NA+45913  29.979  39.991   1.859
74188ION    NA+45914  43.505  38.476  11.544
74189ION    NA+45915   9.763  28.251  12.377
74190ION    NA+45916  18.185  11.250  12.524
74191ION    NA+45917  27.256  21.213   0.396
74192ION    NA+45918  15.345  42.185  14.927
74193ION    NA+45919  21.315  21.022   1.572
74194ION    NA+45920  26.270  23.238   2.591
74195ION    NA+45921  42.396  25.161  11.877
74196ION    NA+45922  27.633   5.735  12.445
74197ION    NA+45923  35.350   0.839   4.058
74198ION    NA+45924   7.724  41.953   4.027
74199ION    NA+45925   0.830  25.062  11.492
74200ION    NA+45926  23.321   7.201   4.230
74201ION    NA+45927  17.058  18.759  10.741
74202ION    NA+45928  38.874  31.090   5.212
74203ION    NA+45929  20.720  15.592   2.188
74204ION    NA+45930   0.910  37.177   0.401
74205ION    NA+45931  34.907   9.320  13.965
74206ION    NA+45932  23.497   4.788  12.672
74207ION    NA+45933  30.467   7.297  11.650
74208ION    NA+45934  19.737  28.335   2.730
74209ION    NA+45935  43.656  35.061   2.269
74210ION    NA+45936   0.263  36.538   4.355
74211ION    NA+45937  37.487  37.803  14.298
74212ION    NA+45938  13.556  23.115   3.284
74213ION    NA+45939  26.895   1.951   3.186
74214ION    NA+45940  31.270  35.706   4.134
74215ION    NA+45941  17.823  35.803  10.719
74216ION    NA+45942  25.728   7.991  13.063
74217ION    NA+45943  29.403  26.863   4.163
74218ION    NA+45944  22.952  18.137   1.790
74219ION    NA+45945   9.697  40.090   1.435
74220ION    NA+45946  44.731  41.770  12.378
74221ION    NA+45947  16.644  16.713  12.458
74222ION    NA+45948  21.809  17.275  12.849
74223ION    NA+45949   5.332  26.961   2.193
74224ION    NA+45950   0.374   2.816  13.241
74225ION    NA+45951  38.892   2.465  13.894
74226ION    NA+45952  23.836  43.787   1.241
74227ION    NA+45953  21.134  32.842   2.826
74228ION    NA+45954   6.155  25.058  10.741
74229ION    NA+45955   6.122  35.047  14.763
74230ION    NA+45956   8.832  23.316  14.737
74231ION    NA+45957  38.583  25.066  12.978
74232ION    NA+45958   5.977  44.935   0.400
74233ION    NA+45959  37.416   6.840   3.165
74234ION    NA+45960  22.733  24.816  10.768
74235ION    NA+45961  33.567  31.691  13.891
74236ION    NA+45962  35.055  26.677  14.391
74237ION    NA+45963  14.158  41.737  11.605
74238ION    NA+45964  41.779  11.882   1.777
74239ION    NA+45965  12.749   1.571  13.489
74240ION    NA+45966  22.699  12.173  14.091
74241ION    NA+45967   2.215   9.902  12.891
74242ION    NA+45968  22.059  24.998  13.393
74243ION    NA+45969  44.473  12.451  14.852
74244ION    NA+45970  28.693  28.208  13.920
74245ION    NA+45971  16.035  23.532  12.406
74246ION    NA+45972  20.266  30.660  11.464
74247ION    NA+45973  23.569  20.780  12.644
74248ION    NA+45974  30.709  13.156  12.891
74249ION    NA+45975   2.501  24.991   0.844
74250ION    NA+45976   5.646   6.723  12.334
74251ION    NA+45977  34.092   7.421  11.567
74252ION    NA+45978  17.210   7.317   3.677
74253ION    NA+45979  26.889   6.425   3.556
74254ION    NA+45980  37.799  40.113   2.929
74255ION    NA+45981  22.984  19.080   1.082
74256ION    NA+45982  28.545   7.865   2.000
74257ION    NA+45983  42.340  37.046   0.370
74258ION    NA+45984  13.382  17.785   1.630
74259ION    NA+45985  30.837  15.415  12.606
74260ION    NA+45986  15.943  11.612   2.583
74261ION    NA+45987  26.579  12.190  12.099
74262ION    NA+45988  31.210   6.501  12.020
74263ION    NA+45989   3.858  15.724   2.328
74264ION    NA+45990  32.038  31.601   3.115
74265ION    NA+45991  24.509  10.735   2.424
74266ION    NA+45992  27.624   8.188  13.077
74267ION    NA+45993  17.952  17.966   0.221
74268ION    NA+45994  36.980  24.834  12.782
74269ION    NA+45995  31.328  33.038   0.695
74270ION    NA+45996  32.708  23.264  12.039
74271ION    NA+45997  27.976  14.808  13.501
74272ION    NA+45998   7.489   9.400   0.788
74273ION    NA+45999  30.997  40.087   1.354
74274ION    NA+46000   3.217  26.230  10.919
74275ION    NA+46001  10.229  29.925   4.401
74276ION    NA+46002  14.678  39.401   3.308
74277ION    NA+46003  34.653  38.077  13.109
74278ION    NA+46004  34.734   4.949   5.143
74279ION    NA+46005  17.989  42.698   1.239
74280ION    NA+46006  11.682  17.020   0.332
74281ION    NA+46007  35.580   0.651   5.012
74282ION    NA+46008  20.151  41.330  10.205
74283ION    NA+46009  13.208   0.217   1.235
74284ION    NA+46010   5.525  25.908  14.207
74285ION    NA+46011   2.256  27.026  12.199
74286ION    NA+46012  20.144  33.320   1.923
74287ION    NA+46013  38.387  13.813   3.787
74288ION    NA+46014  37.278  29.213  14.464
74289ION    NA+46015  33.851  42.326   0.844
74290ION    NA+46016   9.249  42.901  12.775
74291ION    NA+46017  29.513  18.752  13.515
74292ION    NA+46018  39.698  31.644  14.599
74293ION    NA+46019  39.803  33.516  11.409
74294ION    NA+46020  21.170  44.729   3.889
74295ION    NA+46021  26.277  22.509  12.061
74296ION    NA+46022  34.348   8.028   0.480
74297ION    NA+46023  23.609  21.548   5.094
74298ION    NA+46024  24.849  22.573   3.734
74299ION    NA+46025  36.072   4.544  12.741
74300ION    NA+46026   6.892  21.996  11.586
74301ION    NA+46027   5.896  38.898   1.374
74302ION    NA+46028  30.690  20.753  13.474
74303ION    NA+46029  41.615  40.407  13.346
74304ION    NA+46030   1.674   5.842  12.576
74305ION    NA+46031   3.276  12.575   2.259
74306ION    NA+46032   9.680  22.912  12.553
74307ION    NA+46033  15.427   5.582  14.080
74308ION    NA+46034  27.135   8.914   3.839
74309ION    NA+46035  39.945  11.869   1.223
74310ION    NA+46036   3.944  17.369  13.238
74311ION    NA+46037   9.313  41.252  10.736
74312ION    NA+46038  27.944   6.772   0.542
74313ION    NA+46039  21.020  37.141   2.325
74314ION    NA+46040   1.649   8.786   1.711
74315ION    NA+46041  19.114  10.621   4.297
74316ION    NA+46042  39.651  22.383   1.304
74317ION    NA+46043  37.064   4.046   4.612
74318ION    NA+46044  18.250  14.756  14.028
74319ION    NA+46045  35.722  42.922  13.171
74320ION    NA+46046   8.343  32.070   2.799
74321ION    NA+46047  15.544  41.380  11.331
74322ION    NA+46048  41.978  43.227   2.727
74323ION    NA+46049  24.795  13.395   3.462
74324ION    NA+46050  13.275  41.869   0.700
74325ION    NA+46051   8.970  42.517  13.493
74326ION    NA+46052   6.927  12.689  12.451
74327ION    NA+46053  28.408  32.495   3.340
74328ION    NA+46054  34.706  34.939  13.191
74329ION    NA+46055  20.706  35.031   0.862
74330ION    NA+46056  33.177   6.695  13.116
74331ION    NA+46057  14.273  25.140  14.293
74332ION    NA+46058  44.015  19.209  11.437
74333ION    NA+46059  19.044   0.214   3.881
74334ION    NA+46060  39.691  33.233  13.648
74335ION    NA+46061  10.777  14.129  11.686
74336ION    NA+46062   8.326  15.400  10.966
74337ION    NA+46063  20.925   6.681  11.139
74338ION    NA+46064  40.245  27.085  14.292
74339ION    NA+46065   9.807   3.935  10.678
74340ION    NA+46066  40.167  16.892  10.277
74341ION    NA+46067  19.550  20.248   1.746
74342ION    NA+46068  21.469  31.049  11.044
74343ION    NA+46069  11.359  41.736  11.964
74344ION    NA+46070  13.605   0.316   3.809
74345ION    NA+46071  26.616  40.289   4.690
74346ION    NA+46072  34.138  24.653  12.156
74347ION    NA+46073  42.747   5.382   0.351
74348ION    NA+46074  10.755  20.233  11.601
74349ION    NA+46075  16.301  17.102  10.193
74350ION    NA+46076   6.925  21.249  14.879
74351ION    NA+46077  27.922  16.272   3.579
74352ION    NA+46078  35.561  20.599   2.737
74353ION    NA+46079  26.243  30.634  14.817
74354ION    NA+46080  24.730  38.376  14.834
74355ION    NA+46081  16.748  12.309  10.630
74356ION    NA+46082  44.077  22.100  13.026
74357ION    NA+46083  31.138  33.013   3.635
74358ION    NA+46084   3.261  40.827  11.951
74359ION    NA+46085   3.722  19.803   4.050
74360ION    NA+46086  43.985   6.167   0.984
74361ION    NA+46087   9.405  22.188  11.192
74362ION    NA+46088  33.428  36.136   3.883
74363ION    NA+46089  21.729  38.585   4.644
74364ION    NA+46090  29.009  36.908   4.797
74365ION    NA+46091  42.248  43.037   4.604
74366ION    NA+46092   1.785  18.177   2.588
74367ION    NA+46093  38.964  10.759  13.889
74368ION    NA+46094  20.325  21.099  14.221
74369ION    NA+46095  30.229  14.549   4.149
74370ION    NA+46096  21.699   0.929   3.953
74371ION    NA+46097  12.271  30.094   1.852
74372ION    NA+46098  39.754  34.285  13.271
74373ION    NA+46099  33.632   5.261   1.417
74374ION    NA+46100  19.614  14.313   2.982
74375ION    NA+46101  29.963   3.369   4.597
74376ION    NA+46102  27.418  29.859   3.577
74377ION    NA+46103  13.243  38.328   3.367
74378ION    NA+46104  26.931  38.532   4.781
74379ION    NA+46105  16.328  40.587   1.747
74380ION    NA+46106  22.138  41.258   0.876
74381ION    NA+46107  16.790   6.906  10.773
74382ION    NA+46108  10.145  31.554   1.071
74383ION    NA+46109  16.156  32.324  10.284
74384ION    NA+46110  11.913  20.287   3.488
74385ION    NA+46111   4.626   4.433  14.520
74386ION    NA+46112  30.485  32.011  12.581
74387ION    NA+46113  23.465  23.703   1.959
74388ION    NA+46114  38.268  35.283   2.378
74389ION    NA+46115  24.046  13.682   0.458
74390ION    NA+46116  34.094  36.412   4.705
74391ION    NA+46117  31.702  13.640  14.128
74392ION    NA+46118  12.051  22.946  11.431
74393ION    NA+46119  33.963  25.854  12.920
74394ION    NA+46120  43.542   0.752  13.762
74395ION    NA+46121  29.475   9.994   4.856
74396ION    NA+46122  23.222  11.894   5.563
74397ION    NA+46123  26.439  28.060   2.622
74398ION    NA+46124  14.604  26.933  13.154
74399ION    NA+46125   5.281  35.399  11.519
74400ION    NA+46126  42.249   3.028   2.742
74401ION    NA+46127  34.073  34.026   4.541
74402ION    NA+46128   6.861  12.848  11.466
74403ION    NA+46129  43.051  44.255  14.891
74404ION    NA+46130  35.123   2.927   3.811
74405ION    NA+46131   2.574  22.471   9.586
74406ION    NA+46132   7.846   2.527   0.912
74407ION    NA+46133  16.221  27.514  13.351
74408ION    NA+46134   2.116  23.672  10.941
74409ION    NA+46135   9.966   5.366   4.044
74410ION    NA+46136  35.555   5.962  14.419
74411ION    NA+46137   9.189   7.365   3.325
74412ION    NA+46138   1.821   3.404   3.613
74413ION    NA+46139  33.532   7.308  14.986
74414ION    NA+46140  19.819  23.615  13.346
74415ION    NA+46141  16.773  31.864  13.395
74416ION    NA+46142   0.037   0.239  11.195
74417ION    NA+46143  30.558  38.111  10.718
74418ION    NA+46144   1.252  44.705  10.582
74419ION    NA+46145  31.408  33.857  11.496
74420ION    NA+46146  22.029   4.960   0.611
74421ION    NA+46147  10.908  22.488  13.288
74422ION    NA+46148  11.885  19.512   1.638
74423ION    NA+46149   9.858  36.109  14.282
74424ION    NA+46150  40.535  39.429  14.217
74425ION    NA+46151   6.304  16.342   5.458
74426ION    NA+46152  35.615  31.068  14.444
74427ION    NA+46153  34.749   4.726  12.069
74428ION    NA+46154  29.567  43.707   4.144
74429ION    NA+46155  11.978  30.871  10.817
74430ION    NA+46156   1.434  11.184   2.378
74431ION    NA+46157  30.272  29.033   0.300
74432ION    NA+46158  26.225  37.885   1.106
74433ION    NA+46159  35.608  41.237  13.034
74434ION    NA+46160  22.580   7.620   2.189
74435ION    NA+46161  10.914  17.247  13.651
74436ION    NA+46162   8.556  37.236  11.030
74437ION    NA+46163  44.276  43.329   3.598
74438ION    NA+46164  23.634  41.258   2.776
74439ION    NA+46165  40.985  21.587   3.353
74440ION    NA+46166  13.495  35.804  13.481
74441ION    NA+46167  11.274   0.047  13.828
74442ION    NA+46168  44.205  31.492  11.128
74443ION    NA+46169  33.685  40.077   3.629
74444ION    NA+46170  16.200  35.082   3.652
74445ION    NA+46171  28.828  40.096  10.814
74446ION    NA+46172  29.646  36.897   2.520
74447ION    NA+46173  27.823  11.102  12.078
74448ION    NA+46174   0.999  30.010  13.657
74449ION    NA+46175   6.838  38.904  12.006
74450ION    NA+46176  36.194  28.088   1.370
74451ION    NA+46177  22.838   8.830   4.946
74452ION    NA+46178  19.609  15.119   2.942
74453ION    NA+46179   5.525  42.836  11.907
74454ION    NA+46180  40.313   4.411  13.440
74455ION    NA+46181  41.601   1.282   3.779
74456ION    NA+46182  24.172  14.756  14.774
74457ION    NA+46183  34.936  42.238   1.398
74458ION    NA+46184   5.884  23.788  12.555
74459ION    NA+46185  18.980  12.530  12.899
74460ION    NA+46186  24.821  42.150   1.795
74461ION    NA+46187  24.250  10.473   0.952
74462ION    NA+46188  14.740  17.009  13.038
74463ION    NA+46189  12.367  44.167   3.164
74464ION    NA+46190  10.874  10.832   2.232
74465ION    NA+46191  37.518  21.888  10.597
74466ION    NA+46192  18.504  37.305   3.244
74467ION    NA+46193  37.350  16.197   2.171
74468ION    NA+46194   5.175   3.441  14.325
74469ION    NA+46195   9.141  12.646  12.957
74470ION    NA+46196  17.472  29.331  14.478
74471ION    NA+46197  33.217  43.506   3.036
74472ION    NA+46198   6.100  23.697   3.717
74473ION    NA+46199  13.393   1.043  10.381
74474ION    NA+46200  36.450   2.488  11.984
74475ION    NA+46201  26.575  36.046  11.520
74476ION    NA+46202  10.814  43.651  13.707
74477ION    NA+46203   0.404   5.995  12.376
74478ION    NA+46204  34.959  17.105   4.609
74479ION    NA+46205   6.459  25.013   4.062
74480ION    NA+46206  20.285  44.405   0.420
74481ION    NA+46207  23.156   0.064  12.095
74482ION    NA+46208  32.232  44.258   1.986
74483ION    NA+46209  34.103  13.381  14.433
74484ION    NA+46210  28.279  21.711  11.384
74485ION    NA+46211   9.659   5.803   3.158
74486ION    NA+46212  42.859  26.839   3.775
74487ION    NA+46213   8.771  25.801   4.228
74488ION    NA+46214   4.753   3.556   4.737
74489ION    CL-46215  11.391  31.828   1.766
74490ION    CL-46216   3.768  22.460   1.019
74491ION    CL-46217   7.820  10.876  14.995
74492ION    CL-46218  13.309   0.233   3.481
74493ION    CL-46219  25.192  14.316   2.724
74494ION    CL-46220  14.247  20.223  12.306
74495ION    CL-46221   1.855  17.133   2.146
74496ION    CL-46222   5.124  32.795  14.728
74497ION    CL-46223  25.240  39.996   2.914
74498ION    CL-46224   6.689   4.009  11.599
74499ION    CL-46225  18.134  28.500   3.570
74500ION    CL-46226  23.365  17.159  13.831
74501ION    CL-46227   4.357  24.118  10.962
74502ION    CL-46228   9.913  26.564   3.648
74503ION    CL-46229  36.556   7.614  13.362
74504ION    CL-46230  25.566  15.625  12.771
74505ION    CL-46231  38.355  13.954   4.208
74506ION    CL-46232   2.840  38.554  14.103
74507ION    CL-46233   0.405   9.325   0.763
74508ION    CL-46234  37.398  29.083   1.293
74509ION    CL-46235  19.360  11.925  13.866
74510ION    CL-46236   7.319  17.198  13.836
74511ION    CL-46237  36.567  17.439   2.516
74512ION    CL-46238   4.723  12.592   4.220
74513ION    CL-46239  22.987  10.742  13.662
74514ION    CL-46240  41.056   3.013  13.911
74515ION    CL-46241  10.317  13.099  14.408
74516ION    CL-46242   5.433  15.413  14.688
74517ION    CL-46243  27.829  44.989  13.803
74518ION    CL-46244  42.281  44.778  14.474
74519ION    CL-46245  20.998  23.203   4.111
74520ION    CL-46246  29.156  28.289   1.001
74521ION    CL-46247  13.077  30.718  14.101
74522ION    CL-46248   7.521  32.528   3.640
74523ION    CL-46249   0.860  17.860  10.385
74524ION    CL-46250   9.771   3.653   3.412
74525ION    CL-46251  13.991  36.036   5.041
74526ION    CL-46252  30.615  17.117   2.774
74527ION    CL-46253  36.503   9.150  14.080
74528ION    CL-46254  42.170  30.237  11.935
74529ION    CL-46255  27.836  40.119  13.871
74530ION    CL-46256  11.575  18.260  11.103
74531ION    CL-46257  16.948  33.723   1.630
74532ION    CL-46258  10.194  21.973   4.263
74533ION    CL-46259  35.114  39.613  13.134
74534ION    CL-46260  38.999   3.261   9.778
74535ION    CL-46261  41.966  29.403   5.030
74536ION    CL-46262  10.334  41.763   1.372
74537ION    CL-46263  35.085  31.200   1.298
74538ION    CL-46264  34.596  27.853  12.098
74539ION    CL-46265  35.584  32.058   3.065
74540ION    CL-46266  36.992  11.856   2.800
74541ION    CL-46267  14.669  38.509  14.385
74542ION    CL-46268  43.956   6.292   4.584
74543ION    CL-46269  19.526   9.627   1.277
74544ION    CL-46270  34.641  36.838   1.505
74545ION    CL-46271   8.890  35.418   3.252
74546ION    CL-46272  30.468  16.057  14.803
74547ION    CL-46273   9.612  31.829   2.111
74548ION    CL-46274   2.202  44.250  12.496
74549ION    CL-46275  16.810  28.977  13.474
74550ION    CL-46276  23.304   1.758  11.807
74551ION    CL-46277  44.562  39.571  11.610
74552ION    CL-46278  13.135  31.883  13.635
74553ION    CL-46279  21.272  16.110  11.262
74554ION    CL-46280   0.991  16.355  10.923
74555ION    CL-46281  41.527  43.227   2.792
74556ION    CL-46282  35.273  28.872   0.861
74557ION    CL-46283  22.868  33.601   1.062
74558ION    CL-46284  21.465  20.693   1.294
74559ION    CL-46285  35.058  23.176   1.329
74560ION    CL-46286  34.342   4.806  13.548
74561ION    CL-46287  14.800  21.315   4.060
74562ION    CL-46288   0.674  26.092   1.874
74563ION    CL-46289  34.522  29.355  11.916
74564ION    CL-46290  42.736  40.819  12.190
74565ION    CL-46291   4.946  27.310  13.990
74566ION    CL-46292  32.457  44.577  13.943
74567ION    CL-46293  31.328  16.214   2.162
74568ION    CL-46294  24.906  37.801   2.934
74569ION    CL-46295  16.593  38.849   3.552
74570ION    CL-46296  28.716   1.529   4.256
74571ION    CL-46297  29.024  21.758  12.406
74572ION    CL-46298  42.410  43.239   2.583
74573ION    CL-46299  31.910  23.855  10.229
74574ION    CL-46300  20.663  16.456  11.976
74575ION    CL-46301  15.178  19.341  14.167
74576ION    CL-46302  25.195  44.413  13.585
74577ION    CL-46303   8.135   2.945  14.306
74578ION    CL-46304  14.780  29.763  13.025
74579ION    CL-46305   5.724  23.656   1.779
74580ION    CL-46306  30.791  17.240  11.187
74581ION    CL-46307  15.809  15.811  10.780
74582ION    CL-46308  41.277  14.238   4.058
74583ION    CL-46309  32.725  40.889  13.825
74584ION    CL-46310  44.495  12.229  14.454
74585ION    CL-46311  44.960  22.753  13.829
74586ION    CL-46312  22.975   7.738   1.992
74587ION    CL-46313  28.404  20.461   4.557
74588ION    CL-46314  33.652  10.933   2.687
74589ION    CL-46315  32.293  26.070  12.190
74590ION    CL-46316  23.425   8.564   1.250
74591ION    CL-46317   3.624  22.225  10.436
74592ION    CL-46318   5.985   3.322   3.796
74593ION    CL-46319  31.553  22.766   1.706
74594ION    CL-46320  35.892  20.314   0.894
74595ION    CL-46321  15.177  30.025  12.083
74596ION    CL-46322   8.762  18.441  14.950
74597ION    CL-46323  41.114  16.082  11.180
74598ION    CL-46324  11.926  41.101   3.478
74599ION    CL-46325  25.962   3.408  11.126
74600ION    CL-46326  30.941  38.752   5.034
74601ION    CL-46327  21.617   4.480  12.396
74602ION    CL-46328  32.175  43.431   4.748
74603ION    CL-46329   5.551   8.803   1.907
74604ION    CL-46330  44.597  17.609  14.251
74605ION    CL-46331  29.641  22.128   0.846
74606ION    CL-46332  19.990  38.926  13.997
74607ION    CL-46333  14.332  30.929  11.529
74608ION    CL-46334  14.838  11.968  11.763
74609ION    CL-46335  41.912  18.404  14.743
74610ION    CL-46336   0.408  16.817   2.261
74611ION    CL-46337  29.219  36.877   2.647
74612ION    CL-46338  35.167  15.149   3.292
74613ION    CL-46339  32.488  15.302   2.500
74614ION    CL-46340  38.167  30.306   1.647
74615ION    CL-46341   5.197  35.326   2.232
74616ION    CL-46342   4.126  39.950   2.815
74617ION    CL-46343  25.552  15.621   3.765
74618ION    CL-46344   3.412  31.924  10.504
74619ION    CL-46345  41.834  30.049   0.759
74620ION    CL-46346  32.313   0.629   0.852
74621ION    CL-46347  42.474  26.616  13.743
74622ION    CL-46348  22.746  28.306  12.135
74623ION    CL-46349  18.988  38.442  10.550
74624ION    CL-46350  25.229  38.895   4.171
74625ION    CL-46351  41.392  30.143   2.583
74626ION    CL-46352  41.874   8.186   2.283
74627ION    CL-46353   6.330  14.773  14.572
74628ION    CL-46354  43.488  23.585   4.660
74629ION    CL-46355  42.200   6.659   0.630
74630ION    CL-46356  42.845  17.876   2.480
74631ION    CL-46357  18.596  11.080  12.474
74632ION    CL-46358  12.654  31.357  10.894
74633ION    CL-46359  42.484   2.115   3.694
74634ION    CL-46360   5.945  25.524  13.326
74635ION    CL-46361   1.007   1.783   3.825
74636ION    CL-46362  41.234  24.542   1.877
74637ION    CL-46363   7.192  40.304   2.365
74638ION    CL-46364  21.683   5.812  12.216
74639ION    CL-46365  34.617  20.892   1.324
74640ION    CL-46366  43.372  30.112  11.460
74641ION    CL-46367  18.664  43.886  12.141
74642ION    CL-46368  37.787  40.614   4.298
74643ION    CL-46369  18.624  41.908  14.746
74644ION    CL-46370  17.799  18.994  12.599
74645ION    CL-46371  30.045  14.883   3.903
74646ION    CL-46372  22.993  44.660  12.222
74647ION    CL-46373   2.547  37.331   3.602
74648ION    CL-46374   7.141   9.385   3.220
74649ION    CL-46375  40.920  33.049  12.428
74650ION    CL-46376  20.490  25.049  11.364
74651ION    CL-46377  13.785  23.190   2.280
74652ION    CL-46378  44.186  13.773  13.129
74653ION    CL-46379  39.839  26.199  10.800
74654ION    CL-46380  25.346   7.739  13.177
74655ION    CL-46381  33.527  39.018  13.766
74656ION    CL-46382  11.805  22.900  14.637
74657ION    CL-46383  10.598  27.121   1.287
74658ION    CL-46384  30.744  26.677  10.553
74659ION    CL-46385  15.711   5.639  13.708
74660ION    CL-46386  20.290  34.178   3.768
74661ION    CL-46387  33.157  26.691   1.828
74662ION    CL-46388  31.783  11.483  12.888
74663ION    CL-46389  22.120  30.418   3.519
74664ION    CL-46390   7.728  44.999   3.654
74665ION    CL-46391   4.262   7.892  14.914
74666ION    CL-46392   2.086   6.438   5.048
74667ION    CL-46393  15.164  12.116  12.602
74668ION    CL-46394  17.385   9.743   2.739
74669ION    CL-46395  38.396   6.174  12.053
74670ION    CL-46396   3.769   7.600   3.118
74671ION    CL-46397  11.796  33.561  10.571
74672ION    CL-46398  22.464  41.490   1.113
74673ION    CL-46399  36.649  36.006   1.873
74674ION    CL-46400   9.680   2.964  14.427
74675ION    CL-46401  43.507  36.523   1.196
74676ION    CL-46402  32.830  34.060  13.967
74677ION    CL-46403  31.080  32.484   2.039
74678ION    CL-46404   8.373  37.745   2.627
74679ION    CL-46405   6.701   1.875   1.196
74680ION    CL-46406  18.101  40.889  12.477
74681ION    CL-46407   9.303   6.812  10.708
74682ION    CL-46408   4.180  17.037  14.374
74683ION    CL-46409  22.113  35.017   3.402
74684ION    CL-46410  26.031   8.225  13.308
74685ION    CL-46411  12.652   2.349  10.599
74686ION    CL-46412  30.567   4.166  14.517
74687ION    CL-46413   1.437   0.582   2.807
74688ION    CL-46414  36.548  28.412  10.780
74689ION    CL-46415  33.067  36.258   4.119
74690ION    CL-46416  24.674  24.578   3.088
74691ION    CL-46417   2.369  31.848   0.306
74692ION    CL-46418   2.644  18.629   5.024
74693ION    CL-46419  22.759  28.127   2.698
74694ION    CL-46420   9.257   9.937  13.623
74695ION    CL-46421  14.145  11.176  12.041
74696ION    CL-46422  15.086   4.364   3.088
74697ION    CL-46423  27.952  24.653   3.479
74698ION    CL-46424   9.392  23.851   4.930
74699ION    CL-46425  14.341  39.525  11.898
74700ION    CL-46426  17.381   3.073  11.172
74701ION    CL-46427  19.237  36.361  13.388
74702ION    CL-46428  14.784  28.992   2.345
74703ION    CL-46429  14.002  20.282   0.277
74704ION    CL-46430  20.117  27.691  13.146
74705ION    CL-46431  41.014  25.775  14.932
74706ION    CL-46432   9.457  19.165  14.887
74707ION    CL-46433  11.001  11.991  14.996
74708ION    CL-46434  38.229  14.722  14.023
74709ION    CL-46435  35.786  17.374  12.871
74710ION    CL-46436  28.486  34.866  12.095
74711ION    CL-46437  18.013  20.052   3.762
74712ION    CL-46438  19.422   0.828   1.128
74713ION    CL-46439   0.850   7.725   1.042
74714ION    CL-46440  19.377  42.324   2.882
74715ION    CL-46441  29.217   4.356  12.469
74716ION    CL-46442  15.885  36.272   5.029
74717ION    CL-46443  20.947  43.404   1.851
74718ION    CL-46444   2.266  40.809  10.268
74719ION    CL-46445  15.401   4.063   3.886
74720ION    CL-46446  13.643  20.553  10.651
74721ION    CL-46447  35.559  33.009   4.076
74722ION    CL-46448  43.776  36.650  11.970
74723ION    CL-46449  36.826  19.891   0.993
74724ION    CL-46450  23.404  43.863  14.104
74725ION    CL-46451   1.454  43.801  13.354
74726ION    CL-46452   7.927  24.357   5.042
74727ION    CL-46453  31.510  38.729  12.343
74728ION    CL-46454  10.019  40.064  14.834
74729ION    CL-46455  40.273  16.608   1.047
74730ION    CL-46456  22.742   8.380   4.881
74731ION    CL-46457   6.753  31.007   0.176
74732ION    CL-46458   5.618  36.382   1.730
74733ION    CL-46459   1.135   6.178  13.429
74734ION    CL-46460  24.275   3.464   0.055
74735ION    CL-46461   9.659  43.374   2.631
74736ION    CL-46462  37.556  26.734  13.738
74737ION    CL-46463  26.825  39.381  14.273
74738ION    CL-46464  40.718  44.104   2.570
74739ION    CL-46465  43.102   0.352   4.247
74740ION    CL-46466  27.088  12.562   0.847
74741ION    CL-46467  21.081  27.691  14.397
74742ION    CL-46468  27.739  12.274  13.959
74743ION    CL-46469  14.185  35.385  14.897
74744ION    CL-46470  12.419   5.268  12.906
74745ION    CL-46471  37.191   9.400  11.213
74746ION    CL-46472  43.538  34.882  13.438
74747ION    CL-46473  35.355   8.338   2.644
74748ION    CL-46474  42.296  14.595  12.912
74749ION    CL-46475  13.317  24.904   4.174
74750ION    CL-46476  33.093  29.038   3.530
74751ION    CL-46477   2.394  35.131   0.722
74752ION    CL-46478   3.047  25.130   2.050
74753ION    CL-46479  33.653  17.961  13.232
74754ION    CL-46480  34.999   4.232   1.571
74755ION    CL-46481  11.703   5.375   4.483
74756ION    CL-46482  41.895  41.440   1.760
74757ION    CL-46483  39.764  13.688  14.079
74758ION    CL-46484   5.462  12.378   3.268
74759ION    CL-46485  20.105  40.322   1.417
74760ION    CL-46486  29.805  15.256  14.230
74761ION    CL-46487  28.482   7.583   2.360
74762ION    CL-46488   5.803   9.197   3.633
74763ION    CL-46489  14.094  14.884  12.104
74764ION    CL-46490  35.294  15.042   1.465
74765ION    CL-46491  34.780  17.137   4.198
74766ION    CL-46492  23.089  32.984  11.964
74767ION    CL-46493  12.324  34.947   1.027
74768ION    CL-46494  22.157   4.942   1.932
74769ION    CL-46495   4.058  19.578  13.715
74770ION    CL-46496  40.959  14.735  13.515
74771ION    CL-46497  34.782  42.695   5.115
74772ION    CL-46498  20.102   1.666   5.162
74773ION    CL-46499  37.458  24.921  12.649
74774ION    CL-46500  41.864   7.582  14.437
74775ION    CL-46501  38.324  34.522   0.978
74776ION    CL-46502  22.496  16.292  12.213
74777ION    CL-46503  15.223  24.704  11.758
74778ION    CL-46504  11.057  19.516   3.626
74779ION    CL-46505  24.941  13.926  13.694
74780ION    CL-46506  40.608  34.076   4.668
74781ION    CL-46507  15.475  43.217   1.595
74782ION    CL-46508   1.308   5.346  11.544
74783ION    CL-46509  29.052  44.438  14.002
74784ION    CL-46510  15.130  44.806  13.391
74785ION    CL-46511  39.448  42.000  13.287
74786ION    CL-46512   9.780  12.141  11.428
74787ION    CL-46513  12.805  38.358   1.936
74788ION    CL-46514  36.659  20.041   0.018
74789ION    CL-46515   2.175  17.967   2.695
74790ION    CL-46516  12.701   2.194  11.429
74791ION    CL-46517  15.143  38.110   5.424
74792ION    CL-46518  17.911  17.702   1.579
74793ION    CL-46519   1.458  15.355   0.704
74794ION    CL-46520  25.925   9.457   4.415
74795ION    CL-46521  13.100  26.222   1.777
74796ION    CL-46522  11.229  26.030  12.548
74797ION    CL-46523  14.129  32.631  11.461
74798ION    CL-46524   3.112  25.156  13.302
74799ION    CL-46525   4.938  20.599  13.336
74800ION    CL-46526  30.488  37.319   1.000
74801ION    CL-46527   9.382  43.237   1.619
74802ION    CL-46528  40.632  19.189  13.554
74803ION    CL-46529  24.756  27.244  11.074
74804ION    CL-46530  11.490  28.207   3.191
74805ION    CL-46531   1.714  41.814  13.398
74806ION    CL-46532   1.440  31.577  14.657
74807ION    CL-46533   6.307  44.774   2.781
74808ION    CL-46534  43.080   4.737  13.552
74809ION    CL-46535  15.718   9.270   3.767
74810ION    CL-46536   9.033  27.298  14.821
74811ION    CL-46537  36.404   1.927  10.938
74812ION    CL-46538   7.048  33.629  13.655
74813ION    CL-46539  35.130   4.719   5.007
74814ION    CL-46540   3.476  40.936  11.577
74815ION    CL-46541   0.979  40.972   4.277
74816ION    CL-46542   2.051  13.541  11.489
74817ION    CL-46543   1.187   7.710  10.738
74818ION    CL-46544  22.240  17.411   5.028
74819ION    CL-46545  12.925  40.612   2.760
74820ION    CL-46546  30.336  17.405   1.802
74821ION    CL-46547   8.767  35.290  10.572
74822ION    CL-46548  23.546   5.259  10.908
74823ION    CL-46549  40.449   1.299   4.788
74824ION    CL-46550  15.841   1.044  13.472
74825ION    CL-46551   8.547   9.814   0.419
74826ION    CL-46552   4.841  39.543   4.963
74827ION    CL-46553  23.816  38.705  10.544
74828ION    CL-46554   7.443  18.751   2.795
74829ION    CL-46555  39.648  22.012  13.394
74830ION    CL-46556  43.996  29.152   1.678
74831ION    CL-46557  10.802  13.476  12.453
74832ION    CL-46558   0.246  33.595   1.931
74833ION    CL-46559  36.455  42.958   0.841
74834ION    CL-46560  42.415  34.606  13.944
74835ION    CL-46561  33.124  23.315  13.441
74836ION    CL-46562  38.466  23.204   1.375
74837ION    CL-46563  32.500  27.316  11.087
74838ION    CL-46564   2.797   2.297  13.060
74839ION    CL-46565   5.654  38.942  10.450
74840ION    CL-46566  43.785  37.788  13.344
74841ION    CL-46567  23.554  44.424   5.294
74842ION    CL-46568  16.646  44.181   5.054
74843ION    CL-46569  40.874  38.439  11.759
74844ION    CL-46570   7.418  37.814   3.300
74845ION    CL-46571  13.109  33.551  14.881
74846ION    CL-46572  35.347  44.532   0.109
74847ION    CL-46573  14.255  24.247   2.010
74848ION    CL-46574   6.925   7.654   2.925
74849ION    CL-46575   8.754   6.487   0.141
74850ION    CL-46576  43.512   5.744  13.834
74851ION    CL-46577  18.655  37.137   3.629
74852ION    CL-46578  11.803  27.844  14.162
74853ION    CL-46579  11.103   1.193   3.956
74854ION    CL-46580  20.863  32.149  13.551
74855ION    CL-46581  25.370   4.233   0.313
74856ION    CL-46582   5.646  26.250  13.946
74857ION    CL-46583  36.535  19.338  11.594
74858ION    CL-46584   8.403  19.235  10.725
74859ION    CL-46585  12.632  24.138  12.633
74860ION    CL-46586   4.751  37.891   5.142
74861ION    CL-46587  10.807  43.402  14.090
74862ION    CL-46588  23.192  29.379  11.205
74863ION    CL-46589  29.180  12.763  13.386
74864ION    CL-46590  30.339  21.786   1.727
74865ION    CL-46591  17.627   9.233   5.151
74866ION    CL-46592  35.672   6.347  14.211
74867ION    CL-46593  20.377  22.995   0.547
74868ION    CL-46594  22.152  41.370  12.560
74869ION    CL-46595   5.413  44.600   2.129
74870ION    CL-46596  26.775  40.586  11.464
74871ION    CL-46597  19.059   9.364  10.813
74872ION    CL-46598  23.670  17.019   4.899
74873ION    CL-46599  37.258  32.981  13.674
74874ION    CL-46600  35.099   4.009  14.047
74875ION    CL-46601  42.033  26.485  10.122
74876ION    CL-46602   8.121   3.397   2.623
74877ION    CL-46603  16.630  19.124  13.424
74878ION    CL-46604   2.656  43.528   3.685
74879ION    CL-46605   5.165  26.979   4.172
74880ION    CL-46606  30.920  33.239  12.450
74881ION    CL-46607  31.232  36.600   0.749
74882ION    CL-46608  36.394   7.887   5.011
74883ION    CL-46609  36.632  29.240   2.430
74884ION    CL-46610  25.526  13.822  11.507
74885ION    CL-46611   3.672  34.669  12.892
74886ION    CL-46612  40.012  24.430   4.093
74887ION    CL-46613  11.190  13.672   3.909
74888ION    CL-46614   1.382  38.558   1.696
74889ION    CL-46615  24.006  21.231   3.639
74890ION    CL-46616  35.486   6.826   1.706
74891ION    CL-46617   9.968  22.599   1.550
74892ION    CL-46618  36.064  38.336   2.244
74893ION    CL-46619  32.494  39.097   4.165
74894ION    CL-46620  21.983  25.090  11.528
74895ION    CL-46621   6.388   7.249   1.800
74896ION    CL-46622   4.442  36.582  14.584
74897ION    CL-46623  17.647  29.159  14.103
74898ION    CL-46624  13.404  19.563  14.923
74899ION    CL-46625  30.450   2.160  12.444
74900ION    CL-46626  16.263  23.904   5.065
74901ION    CL-46627  15.033   5.703  12.567
74902ION    CL-46628   6.791  14.665   4.094
74903ION    CL-46629   7.994  33.926   4.594
74904ION    CL-46630  29.632  20.449  14.179
74905ION    CL-46631   1.412   7.747   3.635
74906ION    CL-46632  36.553  44.880   4.264
74907ION    CL-46633  39.201  24.942   9.802
74908ION    CL-46634  39.419  13.200   4.168
74909ION    CL-46635  35.121  30.200   1.394
74910ION    CL-46636   2.752   4.340   3.229
74911ION    CL-46637   2.439  44.502   3.529
74912ION    CL-46638  41.521   2.462   0.646
74913ION    CL-46639   8.940  13.708   3.882
74914ION    CL-46640  24.767  25.761   0.154
74915ION    CL-46641  33.431  42.668  14.295
74916ION    CL-46642  10.534   3.001  12.875
74917ION    CL-46643  24.298   9.890  11.655
74918ION    CL-46644  13.894  14.527   3.635
74919ION    CL-46645   8.419  41.564   1.345
74920ION    CL-46646   4.814  44.240   2.705
74921ION    CL-46647  19.933  29.131   0.164
74922ION    CL-46648   2.537  16.221   2.429
74923ION    CL-46649  28.597  33.413   0.860
74924ION    CL-46650   4.405  44.396  14.393
74925ION    CL-46651   2.522  42.172   0.564
74926ION    CL-46652  42.107  20.661  14.922
74927ION    CL-46653  38.773   4.060  11.149
74928ION    CL-46654  29.220  25.401  12.983
74929ION    CL-46655  12.636  43.049  13.094
74930ION    CL-46656  23.199  38.395  12.287
74931ION    CL-46657  34.979  31.962  12.493
74932ION    CL-46658   8.086  39.518   1.368
74933ION    CL-46659   7.222   5.479  11.540
74934ION    CL-46660  13.686  41.691   3.231
74935ION    CL-46661  42.359  33.226  14.032
74936ION    CL-46662  21.614   8.439  13.868
74937ION    CL-46663  16.245  36.937  12.146
74938ION    CL-46664  32.905   8.929  14.990
74939ION    CL-46665  34.988  20.432   3.918
74940ION    CL-46666  15.230   4.282  14.483
74941ION    CL-46667   5.196   3.102  14.629
74942ION    CL-46668  32.246   8.002  14.395
74943ION    CL-46669  10.343  28.791  10.077
74944ION    CL-46670   5.478   1.323   3.638
74945ION    CL-46671  34.637  33.370  13.004
74946ION    CL-46672  27.026   6.837   3.415
74947ION    CL-46673  38.058  42.516  14.851
74948ION    CL-46674  37.821  19.311  11.974
74949ION    CL-46675  39.032  15.960  11.802
74950ION    CL-46676  16.302   2.354   1.332
74951ION    CL-46677   8.879  24.757  13.200
74952ION    CL-46678   1.582  16.042  10.421
74953ION    CL-46679  18.339  29.944  14.309
74954ION    CL-46680   4.167  15.841   2.028
74955ION    CL-46681  12.946  28.025  14.805
74956ION    CL-46682  33.724   1.491  11.017
74957ION    CL-46683   7.333  29.583   1.303
74958ION    CL-46684  20.677  14.558   2.287
74959ION    CL-46685   6.398  22.276   2.037
74960ION    CL-46686  31.703  34.668  12.994
74961ION    CL-46687  37.445   2.960  12.084
74962ION    CL-46688  29.381  11.959   0.251
74963ION    CL-46689  31.379  36.418  13.333
74964ION    CL-46690  12.818  20.747  14.044
74965ION    CL-46691  26.025   1.645   1.326
74966ION    CL-46692  17.496  34.812  13.922
74967ION    CL-46693  32.179   6.735  11.881
74968ION    CL-46694  41.238   3.159   0.141
74969ION    CL-46695  36.106  17.533  11.937
74970ION    CL-46696  11.217  35.234   9.773
74971ION    CL-46697  18.238  38.248  12.052
74972ION    CL-46698   2.375   5.584   1.906
74973ION    CL-46699   7.137  21.230   0.272
74974ION    CL-46700  13.264   2.703  14.198
74975ION    CL-46701  21.228   1.848  13.420
74976ION    CL-46702  24.110  25.168   5.023
74977ION    CL-46703  22.977  22.500   3.654
74978ION    CL-46704  14.630  17.044  12.607
74979ION    CL-46705  25.610  12.327   3.157
74980ION    CL-46706  25.199  19.663   4.020
74981ION    CL-46707  36.005  20.009  14.262
74982ION    CL-46708  43.458  41.418   0.286
74983ION    CL-46709  17.807  10.068   1.892
74984ION    CL-46710  31.376  37.011   1.773
74985ION    CL-46711  19.974  40.988  12.845
74986ION    CL-46712  40.877  30.485   4.939
74987ION    CL-46713  36.174   4.949  14.927
74988ION    CL-46714  10.113  23.003  12.493
74989ION    CL-46715  22.962  21.803  14.961
74990ION    CL-46716  12.646   2.933   3.402
74991ION    CL-46717  16.609  27.346   4.183
74992ION    CL-46718   0.514  42.938  12.940
74993ION    CL-46719  20.170  20.534  12.990
74994ION    CL-46720  15.812   5.448   1.757
74995ION    CL-46721  21.998  22.125  12.007
74996ION    CL-46722  22.611  41.257  10.808
74997ION    CL-46723  17.273  39.290   4.218
74998ION    CL-46724   4.874  19.493  12.080
74999ION    CL-46725   7.429  20.493  11.070
75000ION    CL-46726  34.816  15.886   1.706
75001ION    CL-46727  15.639  21.122   1.319
75002ION    CL-46728   4.169  10.134   3.991
75003ION    CL-46729  22.514  32.366  14.627
75004ION    CL-46730  42.564   6.933   1.520
75005ION    CL-46731  31.492   9.494   2.644
75006ION    CL-46732  38.051  17.610  13.924
75007ION    CL-46733  13.783  42.824  14.360
75008ION    CL-46734  36.367  19.125   0.913
75009ION    CL-46735  21.210  11.199   1.479
75010ION    CL-46736  20.691  30.642  14.961
75011ION    CL-46737  26.833   3.920   1.797
75012ION    CL-46738   5.358  42.990  11.526
75013ION    CL-46739  43.929   2.932  12.922
75014ION    CL-46740  16.862  38.539   2.237
75015ION    CL-46741  41.569  28.464   0.978
75016ION    CL-46742   3.023  27.720   2.788
75017ION    CL-46743  26.783  27.689  13.599
75018ION    CL-46744  41.023  35.931  10.294
75019ION    CL-46745  29.655  41.455  11.523
75020ION    CL-46746  19.829  17.665  10.731
75021ION    CL-46747  25.478  44.849   0.520
75022ION    CL-46748  33.386  12.776   2.398
75023ION    CL-46749  27.080  33.644  13.407
75024ION    CL-46750  39.809  10.426   3.809
75025ION    CL-46751  20.493  34.052  13.881
75026ION    CL-46752   6.834   3.387  13.610
75027ION    CL-46753  34.628  16.762   3.283
75028ION    CL-46754  22.553   0.913   3.238
75029ION    CL-46755  33.056  14.915  14.486
75030ION    CL-46756  14.592   8.888  11.252
75031ION    CL-46757  29.167  25.871   4.176
75032ION    CL-46758   0.879   6.270   1.631
75033ION    CL-46759   2.008  42.488   3.350
75034ION    CL-46760  32.652  35.029  13.191
75035ION    CL-46761   1.007  32.515   0.160
75036ION    CL-46762   5.370  19.588  13.109
75037ION    CL-46763  39.840  41.941   0.823
75038ION    CL-46764  38.443   0.237  12.549
75039ION    CL-46765  32.168  18.543   1.527
75040ION    CL-46766  29.033  36.072   1.049
75041ION    CL-46767  23.264  32.329   0.151
75042ION    CL-46768  43.468   6.655  10.576
75043ION    CL-46769  24.596  20.675  12.346
75044ION    CL-46770  17.592   8.920  11.123
75045ION    CL-46771  39.554  12.791  13.308
75046ION    CL-46772  27.675  24.197   1.599
75047ION    CL-46773  18.091   9.635   4.092
75048ION    CL-46774   9.913  39.805   1.704
75049ION    CL-46775   6.745  44.030   4.236
75050ION    CL-46776   5.395  29.575   0.346
75051ION    CL-46777  19.932   1.054   4.063
75052ION    CL-46778   5.211   7.942  11.937
75053ION    CL-46779  41.299  28.515  13.904
75054ION    CL-46780  32.610   3.949   3.277
75055ION    CL-46781  40.866  29.619  14.234
75056ION    CL-46782   6.471  19.455  11.271
75057ION    CL-46783  37.450   0.298   1.134
75058ION    CL-46784  11.976  18.265  12.965
75059ION    CL-46785   9.887  11.317   3.269
75060ION    CL-46786  42.018  24.024   2.839
75061ION    CL-46787  19.675  20.280   4.998
75062ION    CL-46788   6.741  31.381  14.589
75063ION    CL-46789  24.116  15.212   2.678
75064ION    CL-46790  20.574  38.041   0.421
75065ION    CL-46791  10.398  19.679  12.418
75066ION    CL-46792  41.458  43.789   4.890
75067ION    CL-46793  25.756  12.938  12.037
75068ION    CL-46794  13.062   4.489  11.162
75069ION    CL-46795  12.748  32.863   0.512
75070ION    CL-46796  22.064  16.944  12.676
75071ION    CL-46797  11.624  20.546   0.738
75072ION    CL-46798  16.310   2.090   4.092
75073ION    CL-46799  11.834  14.773  13.044
75074ION    CL-46800  14.378  38.344   3.809
75075ION    CL-46801  38.213  44.816  11.193
75076ION    CL-46802  34.838  15.356   9.625
75077ION    CL-46803  28.554  44.212  12.008
75078ION    CL-46804  11.542  42.058  13.612
75079ION    CL-46805  25.735  11.881   0.992
75080ION    CL-46806   6.120  39.055  12.977
75081ION    CL-46807  11.711  36.031  13.190
75082ION    CL-46808  31.994   5.566  12.598
75083ION    CL-46809  20.980  34.468  11.727
75084ION    CL-46810  14.594  26.675   4.032
75085ION    CL-46811  25.275  21.515   0.338
75086ION    CL-46812  29.645   3.417   0.269
75087ION    CL-46813  30.848  37.215   9.873
75088ION    CL-46814   2.148  17.756   3.954
75089ION    CL-46815   4.182  43.715  11.939
75090ION    CL-46816  38.374  20.018   1.624
75091ION    CL-46817   9.211  29.219  11.170
75092ION    CL-46818  21.101   7.346  12.547
75093ION    CL-46819  38.458   2.400  14.027
75094ION    CL-46820  27.121  16.581   2.395
75095ION    CL-46821  28.022   1.482  12.068
75096ION    CL-46822   8.176  17.566   3.302
75097ION    CL-46823  16.481  17.365   3.426
75098ION    CL-46824  30.865  29.981   2.358
75099ION    CL-46825  34.994   1.799   0.279
75100ION    CL-46826  41.947  32.634   2.746
75101ION    CL-46827  35.378  11.521   3.252
75102ION    CL-46828  39.212  42.231   4.671
75103ION    CL-46829  22.547  24.825   1.036
75104ION    CL-46830  28.117   2.098  14.972
75105ION    CL-46831  21.820  33.882  11.586
75106ION    CL-46832  13.381  19.534  12.625
75107ION    CL-46833  36.920   2.517  14.476
75108ION    CL-46834  40.541  17.258  14.730
75109ION    CL-46835   4.440   6.883   1.272
75110ION    CL-46836  36.606  10.374  10.735
75111ION    CL-46837   9.010  21.361   3.737
75112ION    CL-46838   7.130  44.168  12.103
75113ION    CL-46839  20.510  25.472  14.046
75114ION    CL-46840  43.202  13.822   1.939
75115ION    CL-46841  36.008  11.837  14.343
75116ION    CL-46842  35.072   2.616   3.483
75117ION    CL-46843  32.958  41.857   2.688
75118ION    CL-46844   0.777   9.914   3.022
75119ION    CL-46845  11.482  34.035  14.129
75120ION    CL-46846  13.976  39.207   4.116
75121ION    CL-46847  11.418  25.188  14.044
75122ION    CL-46848  28.933  13.713   4.570
75123ION    CL-46849   3.535  44.243  11.617
75124ION    CL-46850  15.215   9.208  13.704
75125ION    CL-46851  36.233   6.118  12.879
75126ION    CL-46852  42.944  32.573   2.909
75127ION    CL-46853  33.633  33.495  13.778
75128ION    CL-46854   7.984   5.314   2.930
75129ION    CL-46855  13.508   7.857  12.779
75130ION    CL-46856   8.198  22.756  10.928
75131ION    CL-46857   8.071  23.155   3.360
75132ION    CL-46858  43.267  27.203  14.554
75133ION    CL-46859  42.043  34.583   2.451
75134ION    CL-46860  42.506   6.717  13.785
75135ION    CL-46861  37.124   2.473   2.886
75136ION    CL-46862  40.391  10.646   1.419
75137ION    CL-46863  16.859  28.203   3.597
75138ION    CL-46864  41.483  22.694  13.474
75139ION    CL-46865  20.897  24.701  12.827
75140ION    CL-46866  32.348  43.828   2.004
75141ION    CL-46867  42.726  24.493  14.505
75142ION    CL-46868  30.397  36.614  12.220
75143ION    CL-46869   3.886  30.075   0.171
75144ION    CL-46870  24.500   9.019   4.761
75145ION    CL-46871  38.421   7.900   0.005
75146ION    CL-46872  13.105  14.355  11.285
75147ION    CL-46873   5.508  40.551  10.936
75148ION    CL-46874  13.945  23.363   0.032
75149ION    CL-46875   3.725  38.379  14.534
75150ION    CL-46876  39.563  30.626  11.999
75151ION    CL-46877   9.774  33.153   3.262
75152ION    CL-46878  17.315  23.058  13.342
75153ION    CL-46879  41.775   2.492   4.290
75154ION    CL-46880  33.705   6.989   1.368
75155ION    CL-46881   6.421  41.280  11.414
75156ION    CL-46882  13.024  36.677  11.609
75157ION    CL-46883  34.648  20.159  11.000
75158ION    CL-46884  19.329   2.103  11.601
75159ION    CL-46885  29.022   5.861  10.115
75160ION    CL-46886  31.345  24.057   1.987
75161ION    CL-46887  36.075  22.670   1.259
75162ION    CL-46888   6.146  32.776   3.221
75163ION    CL-46889   1.371  14.317   1.172
75164ION    CL-46890  11.711  37.130   1.891
75165ION    CL-46891  20.243   5.615  12.499
75166ION    CL-46892  44.332  19.085   3.595
75167ION    CL-46893  25.664   0.469  12.215
75168ION    CL-46894   2.999  41.662   3.800
75169ION    CL-46895  11.040  27.379  12.867
75170ION    CL-46896   8.857  12.487  12.640
75171ION    CL-46897  36.862  20.643   1.740
75172ION    CL-46898   1.182  24.539   2.747
75173ION    CL-46899  21.163  12.131  10.981
75174ION    CL-46900  41.542  29.495   3.339
75175ION    CL-46901  29.705  13.920  11.515
75176ION    CL-46902  22.252  38.663  11.287
75177ION    CL-46903  39.329  39.017  13.484
75178ION    CL-46904   9.111  33.346   1.992
75179ION    CL-46905   4.150  32.546  13.303
75180ION    CL-46906   7.542  31.344   4.129
75181ION    CL-46907  21.161  14.829   9.940
75182ION    CL-46908  36.648   9.175   2.581
75183ION    CL-46909   2.052  42.804  10.633
75184ION    CL-46910  44.200  34.406   4.933
75185ION    CL-46911   7.240  22.013   2.708
75186ION    CL-46912  15.839  14.276   4.295
75187ION    CL-46913  12.046  27.423   3.766
75188ION    CL-46914  39.011  29.581  13.371
75189ION    CL-46915   5.432  18.228   3.664
75190ION    CL-46916  37.768  38.153  14.266
75191ION    CL-46917  15.402  24.585  10.272
75192ION    CL-46918   3.671   8.012   3.911
75193ION    CL-46919  32.046  10.149  11.026
75194ION    CL-46920  19.116  11.994   2.244
75195ION    CL-46921  43.765  36.453  10.990
75196ION    CL-46922  19.492  35.446  14.678
75197ION    CL-46923  18.967  29.369   2.139
75198ION    CL-46924  38.384  30.880  14.271
75199ION    CL-46925   0.973   4.683   1.352
75200ION    CL-46926  14.775  21.053   0.774
75201ION    CL-46927  32.113  31.828   5.088
75202ION    CL-46928   9.274  23.189   0.863
75203ION    CL-46929   1.930  29.534   3.352
75204ION    CL-46930  33.829  30.905   4.249
75205ION    CL-46931  39.172  13.107  14.193
75206ION    CL-46932  22.801   0.958  11.139
75207ION    CL-46933   2.172   4.990   3.720
75208ION    CL-46934  19.129  33.639   4.352
75209ION    CL-46935  27.677  17.292   2.827
75210ION    CL-46936  15.642  32.891   2.852
75211ION    CL-46937  44.902  44.908  10.915
75212ION    CL-46938   0.969  32.294   3.797
75213ION    CL-46939  31.932  13.814  11.067
75214ION    CL-46940  41.623   6.865  13.755
75215ION    CL-46941   5.826  10.980   3.953
75216ION    CL-46942   5.072  13.742  14.409
75217ION    CL-46943  16.581   5.634   3.759
75218ION    CL-46944  21.052  15.976  13.393
75219ION    CL-46945  11.464   5.463  14.460
75220ION    CL-46946  35.155  34.978  13.135
75221ION    CL-46947  22.152  39.473   2.633
75222ION    CL-46948  25.502  15.681  14.484
75223ION    CL-46949  30.505   2.222   1.175
75224ION    CL-46950  11.829  23.905  14.323
75225ION    CL-46951  13.585  11.444  13.112
75226ION    CL-46952  28.863  40.000   0.836
75227ION    CL-46953  31.237  32.942   3.205
75228ION    CL-46954  39.335  28.655  14.838
75229ION    CL-46955  39.672  27.761   4.569
75230ION    CL-46956  34.764  42.230  11.539
75231ION    CL-46957  39.657  15.622   3.552
75232ION    CL-46958  22.765  20.548   2.548
75233ION    CL-46959  27.923  33.642  14.270
75234ION    CL-46960   6.880  15.745  14.316
75235ION    CL-46961  17.788  16.299   1.766
75236ION    CL-46962   9.123  10.074   3.244
75237ION    CL-46963  32.891  43.379   3.318
75238ION    CL-46964  44.023  30.234   3.166
75239ION    CL-46965  37.010   6.229   2.231
75240ION    CL-46966  44.078  20.413  11.174
75241ION    CL-46967  19.484  35.115  12.924
75242ION    CL-46968  12.112   5.969  11.496
75243ION    CL-46969  37.524  35.146   0.945
75244ION    CL-46970   6.156   1.504  13.574
75245ION    CL-46971  13.411  15.739   3.183
75246ION    CL-46972  13.964  23.311   3.257
75247ION    CL-46973   1.983  39.375   4.202
75248ION    CL-46974  10.140  14.770   9.798
75249ION    CL-46975  12.393  41.576   1.582
75250ION    CL-46976  13.172  23.709  14.411
75251ION    CL-46977  20.052  42.518   3.593
75252ION    CL-46978  34.473  38.030   1.668
75253ION    CL-46979   5.730  42.133   1.700
75254ION    CL-46980  11.743  19.896  13.430
75255ION    CL-46981  39.874  34.054   3.168
75256ION    CL-46982  28.185  21.678  11.819
75257ION    CL-46983  26.316  35.286   3.032
75258ION    CL-46984  20.580  34.605   0.960
75259ION    CL-46985  16.982  21.291  14.763
75260ION    CL-46986  19.811   5.576  14.305
75261ION    CL-46987  16.524  13.254  13.270
75262ION    CL-46988  13.647  19.072   0.773
75263ION    CL-46989  41.272  28.083  12.010
75264ION    CL-46990  42.426  44.960   4.821
75265ION    CL-46991  24.562   5.660   0.861
75266ION    CL-46992   5.263   9.477  12.500
75267ION    CL-46993   0.605  23.926  14.431
75268ION    CL-46994  14.946   0.996  11.917
75269ION    CL-46995  28.784  30.777  12.101
75270ION    CL-46996  38.525  37.996  12.679
75271ION    CL-46997  44.781  30.740   1.147
75272ION    CL-46998  24.096  18.493  14.682
75273ION    CL-46999   4.826   1.351  13.798
75274ION    CL-47000  19.513  16.325  13.808
75275ION    CL-47001  19.985  32.353   2.979
75276ION    CL-47002  36.496  13.391  11.491
75277ION    CL-47003  21.409  18.795  13.663
75278ION    CL-47004   6.217  19.523   3.144
75279ION    CL-47005  10.881  20.155   5.017
75280ION    CL-47006  27.791  14.253  11.409
75281ION    CL-47007  38.477  39.755  12.013
75282ION    CL-47008   0.571  17.122  11.839
75283ION    CL-47009  26.634   8.532  10.322
75284ION    CL-47010  18.681   4.498  13.793
75285ION    CL-47011  12.670  34.518  10.743
75286ION    CL-47012  44.047  10.708   3.445
75287ION    CL-47013  16.690  25.382   4.505
75288ION    CL-47014  28.292  20.235  11.259
75289ION    CL-47015  20.814  31.112   2.337
75290ION    CL-47016   2.288  17.071   0.050
75291ION    CL-47017   7.296   0.042  11.646
75292ION    CL-47018  33.995  44.083   5.529
75293ION    CL-47019   3.796  33.784   4.495
75294ION    CL-47020  27.458  28.861  12.022
75295ION    CL-47021   0.739  38.038   4.997
75296ION    CL-47022  42.305   6.079   1.971
75297ION    CL-47023  35.581   6.768   2.768
75298ION    CL-47024  16.789  26.081  14.502
75299ION    CL-47025  43.835  44.381   2.440
75300ION    CL-47026  13.466   6.017  11.152
75301ION    CL-47027  19.151  26.646  11.416
75302ION    CL-47028  29.041  24.335  11.408
75303ION    CL-47029   4.144  32.129   0.896
75304ION    CL-47030   5.791   4.300   1.476
75305ION    CL-47031   9.606  27.521  13.447
75306ION    CL-47032  14.156  17.035   0.010
75307ION    CL-47033  24.682  26.499  11.877
75308ION    CL-47034  19.692  32.612  11.588
75309ION    CL-47035  28.869  34.688   2.144
75310ION    CL-47036  29.105  42.725  11.607
75311ION    CL-47037  33.878  28.752  11.420
75312ION    CL-47038   1.373  23.470  12.313
75313ION    CL-47039  22.530  10.311  11.527
75314ION    CL-47040  10.784  40.437  14.309
75315ION    CL-47041  12.331   1.703  10.869
75316ION    CL-47042  25.249  32.508   2.670
75317ION    CL-47043  10.672   4.553   4.489
75318ION    CL-47044  17.821  22.901   3.849
75319ION    CL-47045  37.576  17.553  12.050
75320ION    CL-47046   2.702  24.101  12.955
75321ION    CL-47047   7.034  26.707  11.273
75322ION    CL-47048   0.782  20.283  12.522
75323ION    CL-47049  38.627  31.934   5.031
75324ION    CL-47050   5.823  24.532  13.352
75325ION    CL-47051   7.153  44.799  13.803
75326ION    CL-47052  29.179  34.990  14.440
75327ION    CL-47053   5.320   5.325  10.168
75328ION    CL-47054   3.201  18.228   1.273
75329ION    CL-47055   3.657  27.307   4.361
75330ION    CL-47056   0.373  36.399  12.541
75331ION    CL-47057  38.115  43.525   0.816
75332ION    CL-47058  38.797   8.811  11.687
75333ION    CL-47059   2.356  38.131   1.752
75334ION    CL-47060   0.819  26.104   4.123
75335ION    CL-47061  17.816  35.205   1.431
75336ION    CL-47062  17.656  18.983   1.548
75337ION    CL-47063  10.572  33.927  14.126
75338ION    CL-47064  14.395   5.730  10.918
75339ION    CL-47065   5.892  37.584   4.123
75340ION    CL-47066  20.995   7.184   3.757
75341ION    CL-47067  32.532  16.405   4.872
75342ION    CL-47068  32.125  28.631  12.335
75343ION    CL-47069  23.597  33.841  12.060
75344ION    CL-47070   3.786  38.476   4.007
75345ION    CL-47071  12.123  15.210   0.974
75346ION    CL-47072  12.320   0.859   0.410
75347ION    CL-47073   7.204  39.108   3.779
75348ION    CL-47074   9.056  33.856  12.511
75349ION    CL-47075  14.472  24.732   2.986
75350ION    CL-47076  39.318  24.632  12.027
75351ION    CL-47077  13.095  35.318  10.651
75352ION    CL-47078  18.779  17.807   1.282
75353ION    CL-47079   6.065  18.414  11.986
75354ION    CL-47080  19.923  33.890  14.686
75355ION    CL-47081  20.016  18.716   0.549
75356ION    CL-47082  36.501   1.059   0.964
75357ION    CL-47083  31.463  25.105  12.584
75358ION    CL-47084   5.943  44.126  12.377
75359ION    CL-47085  30.429  25.890  10.701
75360ION    CL-47086  20.035  16.461  14.539
75361ION    CL-47087  13.450   3.924   3.343
75362ION    CL-47088  21.744   1.747   4.673
75363ION    CL-47089  12.058  28.880   2.304
75364ION    CL-47090   7.379  23.580   2.777
75365ION    CL-47091  10.871  19.354  14.694
75366ION    CL-47092  11.625   6.287   1.690
75367ION    CL-47093  13.733  30.189  13.003
75368ION    CL-47094  23.425  29.957  12.744
75369ION    CL-47095  37.499  32.002   2.252
75370ION    CL-47096  19.739  14.729   3.158
75371ION    CL-47097  30.181  33.888  12.772
75372ION    CL-47098  11.827   6.423  10.793
75373ION    CL-47099   5.899  11.937   2.277
75374ION    CL-47100  28.130   4.855   1.440
75375ION    CL-47101   5.804  23.899   3.435
75376ION    CL-47102   8.387   5.945  13.649
75377ION    CL-47103  16.629  19.300   1.917
75378ION    CL-47104  34.853  38.420  12.902
75379ION    CL-47105  26.975  11.422   4.226
75380ION    CL-47106  32.143  13.640  14.046
75381ION    CL-47107   2.280  11.865  11.014
75382ION    CL-47108  27.252  28.603   0.761
75383ION    CL-47109  33.393  16.323  13.394
75384ION    CL-47110  28.838   7.751  11.591
75385ION    CL-47111   6.158   3.979   0.255
75386ION    CL-47112  42.579  27.208   1.766
75387ION    CL-47113  22.146  28.580  14.808
75388ION    CL-47114  33.184  27.938   2.221
75389ION    CL-47115  26.771  31.966  13.810
75390ION    CL-47116  34.129  12.823   1.254
75391ION    CL-47117  31.153  30.484   3.259
75392ION    CL-47118  40.129   7.442   0.585
75393ION    CL-47119  39.973  22.210   1.577
75394ION    CL-47120  27.454   4.575   4.325
75395ION    CL-47121  28.310   8.102   1.678
75396ION    CL-47122  41.038  20.722   1.818
75397ION    CL-47123  31.583   5.774  14.808
75398ION    CL-47124  35.676  20.553  11.573
75399ION    CL-47125  39.351   9.764   3.422
75400ION    CL-47126   0.875   1.689  12.524
75401ION    CL-47127  18.540  25.002  12.977
75402ION    CL-47128  26.082  39.380  14.942
75403ION    CL-47129  41.886  30.876   3.052
75404ION    CL-47130  26.441  30.978  11.126
75405ION    CL-47131  41.714   6.767  12.723
75406ION    CL-47132  15.235   2.197   3.958
75407ION    CL-47133  40.296  26.266  12.676
75408ION    CL-47134  23.687  39.523   0.133
75409ION    CL-47135  26.677  42.518  12.140
75410ION    CL-47136  15.637   5.354  11.777
75411ION    CL-47137  29.209   7.367  14.596
75412ION    CL-47138  12.339  44.585   3.002
75413ION    CL-47139  21.938  11.791   2.165
75414ION    CL-47140  33.069  24.482  13.173
75415ION    CL-47141  44.825  29.811   1.515
75416ION    CL-47142  18.936  21.650  12.288
75417ION    CL-47143  21.363  42.889  11.510
75418ION    CL-47144  11.572   9.010  14.359
75419ION    CL-47145  13.121   3.155  11.618
75420ION    CL-47146  22.479  32.178   4.098
75421ION    CL-47147  25.112  37.481  11.599
75422ION    CL-47148   0.184  13.634   0.254
75423ION    CL-47149  16.816  39.509   1.346
75424ION    CL-47150   2.879  19.985   2.773
75425ION    CL-47151  22.920  25.612  13.744
75426ION    CL-47152  40.241  30.043  12.459
75427ION    CL-47153  16.609  17.273   4.516
75428ION    CL-47154  35.077  16.715   1.210
75429ION    CL-47155  13.728  43.840  11.228
75430ION    CL-47156  35.383  35.936   3.915
75431ION    CL-47157  44.485  16.623   3.788
75432ION    CL-47158   6.857  20.160   2.715
75433ION    CL-47159  21.253  40.311   0.455
75434ION    CL-47160  35.210  42.547   2.628
75435ION    CL-47161  31.501  44.490  14.236
75436ION    CL-47162  31.545  21.069  13.974
75437ION    CL-47163  13.046  23.261   1.611
75438ION    CL-47164  17.875  17.965   3.067
75439ION    CL-47165  11.923  35.022  11.420
75440ION    CL-47166  29.116  15.007   4.402
75441ION    CL-47167  31.046   3.001   1.517
75442ION    CL-47168  17.272  34.417   1.143
75443ION    CL-47169  10.395  12.681  12.002
75444ION    CL-47170   1.543  23.511  14.330
75445ION    CL-47171   2.048  19.746  12.711
75446ION    CL-47172  31.413   4.080   0.240
75447ION    CL-47173  28.895  29.508  14.141
75448ION    CL-47174  25.102  26.659   5.047
75449ION    CL-47175  32.250   9.421  11.840
75450ION    CL-47176  16.713  16.945  10.306
75451ION    CL-47177  39.248  22.473   1.113
75452ION    CL-47178  22.739  37.840  10.642
75453ION    CL-47179   3.303  36.453  13.084
75454ION    CL-47180   0.187  39.038   1.743
75455ION    CL-47181  16.579   2.671  11.227
75456ION    CL-47182  34.049   0.441   3.565
75457ION    CL-47183  41.871  11.887  11.507
75458ION    CL-47184  37.345   5.805   1.323
75459ION    CL-47185  41.358  39.455  12.331
75460ION    CL-47186  24.770   7.465  13.845
75461ION    CL-47187  25.489  31.395  13.210
75462ION    CL-47188  30.256  34.978  10.169
75463ION    CL-47189  37.372  41.767   0.023
75464ION    CL-47190  35.709  41.669  13.110
75465ION    CL-47191  20.387  18.652   1.476
75466ION    CL-47192  38.388   4.171   2.760
75467ION    CL-47193  30.449  27.442  11.786
75468ION    CL-47194  13.163  37.117  13.414
75469ION    CL-47195  17.100  19.510   0.793
75470ION    CL-47196   7.773   4.684   3.555
75471ION    CL-47197  16.743   7.155   2.774
75472ION    CL-47198   0.351  43.408   5.000
75473ION    CL-47199  34.407   4.529   0.787
75474ION    CL-47200  10.298   2.992  11.903
75475ION    CL-47201  30.673  43.334  12.430
75476ION    CL-47202  25.317  21.410   2.863
75477ION    CL-47203  32.045  27.314   0.896
75478ION    CL-47204  41.072   6.146   0.417
75479ION    CL-47205  30.356  29.530  14.045
75480ION    CL-47206  21.716  44.836  13.076
75481ION    CL-47207   8.992  42.659  13.060
75482ION    CL-47208  27.454   1.825   1.512
75483ION    CL-47209  40.560  41.047  11.830
75484ION    CL-47210  16.508  14.422  12.061
75485ION    CL-47211  26.488  31.000  14.903
75486ION    CL-47212  13.205  44.727  12.059
75487ION    CL-47213  25.828  27.404  13.831
75488ION    CL-47214  39.685   0.765   1.580
75489ION    CL-47215  30.628  44.483   3.419
75490ION    CL-47216  37.439   1.385  11.488
75491ION    CL-47217  13.205  12.140   0.249
75492ION    CL-47218  17.806  44.652   4.874
75493ION    CL-47219  13.678  16.519   3.749
75494ION    CL-47220  41.048  33.904  11.791
75495ION    CL-47221  34.632  41.256   3.567
75496ION    CL-47222   8.889  41.004   0.143
75497ION    CL-47223   7.198   0.872  10.979
75498ION    CL-47224   8.044   4.965  10.505
75499ION    CL-47225  35.752  36.754   1.475
75500ION    CL-47226   0.226  38.247   2.360
75501ION    CL-47227  22.732   3.248  13.057
75502ION    CL-47228  35.661   8.614   1.570
75503ION    CL-47229  33.048   7.574   0.829
75504ION    CL-47230  36.141   9.090  12.014
75505ION    CL-47231  14.871  20.771   3.335
75506ION    CL-47232  20.249  23.519  13.419
75507ION    CL-47233  17.249  26.663  11.608
75508ION    CL-47234  30.151  15.102   0.156
75509ION    CL-47235   0.930  32.731   3.019
75510ION    CL-47236  29.433  33.884   4.380
75511ION    CL-47237  37.977   9.931  12.472
75512ION    CL-47238   6.107  37.653  10.737
75513ION    CL-47239  39.079   6.295   0.167
75514ION    CL-47240  24.733  33.519   3.775
75515ION    CL-47241  43.295  14.573  12.868
75516ION    CL-47242  21.271  23.104   3.119
75517ION    CL-47243  31.911  15.742  12.186
75518ION    CL-47244  30.887  21.130   9.584
75519ION    CL-47245  30.568  15.764  12.687
75520ION    CL-47246  41.925  23.964  11.930
75521ION    CL-47247   4.847  33.095  13.219
75522ION    CL-47248  19.851  25.495   0.765
75523ION    CL-47249  18.624  12.792  12.963
75524ION    CL-47250  32.991  26.446  11.125
75525ION    CL-47251  11.271  22.197   2.353
75526ION    CL-47252  33.945  32.669   3.630
75527ION    CL-47253  30.536  26.406   2.847
75528ION    CL-47254   7.628   0.571   2.665
75529ION    CL-47255  36.837  41.208  11.153
75530ION    CL-47256  11.066  37.726  11.586
75531ION    CL-47257  24.703  20.102   0.243
75532ION    CL-47258  39.009  30.366   2.921
75533ION    CL-47259  40.889  17.159   3.950
75534ION    CL-47260   7.873   7.340  10.782
75535ION    CL-47261  35.119  16.538   2.402
75536ION    CL-47262   6.745   1.397   3.140
75537ION    CL-47263  22.991  39.106  10.942
75538ION    CL-47264  18.107  44.421   2.914
75539ION    CL-47265  27.354  13.420  13.559
75540ION    CL-47266  15.641   1.255   3.949
75541ION    CL-47267  35.054   4.110  12.800
75542ION    CL-47268  27.540  34.943   1.989
75543ION    CL-47269   5.256   8.033   0.045
75544ION    CL-47270  35.898   3.983   9.838
75545ION    CL-47271  16.190   8.323  12.708
75546ION    CL-47272  29.659  20.517   1.799
75547ION    CL-47273  15.228  15.586  12.805
75548ION    CL-47274  36.647  42.531  14.321
75549ION    CL-47275  27.018  23.238   0.630
75550ION    CL-47276  15.931   2.469  13.251
75551ION    CL-47277   5.660  39.985  13.061
75552ION    CL-47278  16.774  16.635   4.043
75553ION    CL-47279  20.661  14.965  11.075
75554ION    CL-47280  10.297  30.746   3.626
75555ION    CL-47281  20.695   8.688   0.915
75556ION    CL-47282  22.993  20.983  14.272
75557ION    CL-47283  16.067  42.898   3.777
75558ION    CL-47284  32.451  11.809  14.439
75559ION    CL-47285   1.177  36.177  13.092
75560ION    CL-47286  26.099   4.211  12.538
75561ION    CL-47287  38.162   3.920   4.061
75562ION    CL-47288  19.591   4.251   5.100
75563ION    CL-47289  23.205  17.905   3.524
75564ION    CL-47290   1.788  38.319  12.633
75565ION    CL-47291  29.504  32.417  13.972
75566ION    CL-47292  30.717  26.113  13.287
75567ION    CL-47293  20.268  22.433  12.893
75568ION    CL-47294  37.595  40.385   1.219
75569ION    CL-47295  14.042   4.749   2.135
75570ION    CL-47296  11.677  13.087   1.627
75571ION    CL-47297  19.803  11.756  12.137
75572ION    CL-47298  14.946   3.217   1.778
75573ION    CL-47299  14.584  29.986   2.186
75574ION    CL-47300   9.904  15.634  12.995
75575ION    CL-47301  35.259  18.232  11.609
75576ION    CL-47302  14.513  43.671   4.014
75577ION    CL-47303  37.644  24.763   5.123
75578ION    CL-47304   8.627  37.430   0.839
75579ION    CL-47305  23.856  27.976  10.362
75580ION    CL-47306   6.650  16.767   2.955
75581ION    CL-47307   9.635  33.480   0.714
75582ION    CL-47308   3.436  44.975  10.876
75583ION    CL-47309   8.108  20.932   3.683
75584ION    CL-47310  39.143  15.176   1.699
75585ION    CL-47311  29.435  19.545   4.682
75586ION    CL-47312  41.224  23.987  13.986
75587ION    CL-47313  12.815   6.177   2.073
75588ION    CL-47314  23.684  34.776  11.585
75589ION    CL-47315   6.721  14.360   0.964
75590ION    CL-47316  31.066  34.231  12.359
75591ION    CL-47317  30.147  30.220   4.164
75592ION    CL-47318   4.581   4.869  14.651
75593ION    CL-47319  35.930  27.963  11.481
75594ION    CL-47320  22.959  23.523   3.765
75595ION    CL-47321  24.690  23.355  13.555
75596ION    CL-47322  11.118  28.476   2.277
75597ION    CL-47323  26.228   6.872  14.126
75598ION    CL-47324  27.709  37.276   1.776
75599ION    CL-47325  40.317  35.074  12.788
75600ION    CL-47326  10.500  40.293  10.736
75601ION    CL-47327  20.466  22.462   2.273
75602ION    CL-47328   0.463  19.013   0.936
75603ION    CL-47329  19.711  22.378   0.967
75604ION    CL-47330   4.642  22.558   2.112
75605ION    CL-47331  22.549  27.943   3.977
75606ION    CL-47332   7.194  10.884  11.958
75607ION    CL-47333  34.215  36.566   2.802
75608ION    CL-47334  37.909  36.180  13.797
75609ION    CL-47335   1.874  25.543   4.405
75610ION    CL-47336  34.439  37.582   3.887
75611ION    CL-47337   4.751  12.630  13.931
75612ION    CL-47338   8.359  37.638  10.951
75613ION    CL-47339  22.215  28.448   1.923
75614ION    CL-47340  12.158  30.577  10.512
75615ION    CL-47341  26.100   4.905   0.434
75616ION    CL-47342   0.963  39.583  14.029
75617ION    CL-47343  13.029   9.607   0.100
75618ION    CL-47344  19.513  36.312   3.718
75619ION    CL-47345  29.901  36.531   0.802
75620ION    CL-47346  25.828  10.927  14.096
75621ION    CL-47347  17.902  39.902   4.698
75622ION    CL-47348  15.504  41.838   0.161
75623ION    CL-47349   5.976  24.094  12.229
75624ION    CL-47350  34.033  28.147   2.084
75625ION    CL-47351  35.187  43.645  14.999
75626ION    CL-47352  30.792  26.734   0.510
75627ION    CL-47353  22.299  17.797  11.077
75628ION    CL-47354  38.053  26.382   2.325
75629ION    CL-47355  26.386  44.953   0.926
75630ION    CL-47356   7.817  11.205  13.013
75631ION    CL-47357  30.485  24.759   1.874
75632ION    CL-47358   3.473  33.484   2.421
75633ION    CL-47359  40.804  30.548   0.096
75634ION    CL-47360  28.445  16.178  12.500
75635ION    CL-47361  24.673  25.811   5.299
75636ION    CL-47362  42.448  21.040   2.680
75637ION    CL-47363   6.412   3.278  14.588
75638ION    CL-47364   0.701  14.214   9.556
75639ION    CL-47365  44.020  18.802   0.141
75640ION    CL-47366   6.306  44.571  11.705
75641ION    CL-47367  36.975  16.801   3.222
75642ION    CL-47368   5.953  10.009   4.316
75643ION    CL-47369  28.194  11.949   4.205
75644ION    CL-47370  12.724  32.611  11.619
75645ION    CL-47371  22.096  32.702   5.008
75646ION    CL-47372  16.819  29.176  11.469
75647ION    CL-47373  26.413   8.672   2.409
75648ION    CL-47374  25.092  21.671  10.673
75649ION    CL-47375  41.611  16.693   2.919
75650ION    CL-47376  39.140  13.834  10.999
75651ION    CL-47377  37.618  33.905   2.765
75652ION    CL-47378   9.881  31.849   0.861
75653ION    CL-47379   3.430  15.648  11.561
75654ION    CL-47380  15.795   4.168   0.335
75655ION    CL-47381  10.673   4.920  12.880
75656ION    CL-47382  22.639   2.189  12.255
75657ION    CL-47383  44.124  14.194   4.200
75658ION    CL-47384  30.820  13.572   2.018
75659ION    CL-47385  37.373  40.844  12.623
75660ION    CL-47386  20.174   6.507  14.256
75661ION    CL-47387   2.770  17.052   2.541
75662ION    CL-47388  11.369  42.834   3.368
75663ION    CL-47389   9.667  33.229  12.490
75664ION    CL-47390  17.897   7.829  14.031
75665ION    CL-47391   6.069  20.348  11.071
75666ION    CL-47392   0.323   7.863   4.123
75667ION    CL-47393  11.683   6.324   4.981
75668ION    CL-47394  36.526  25.781   2.748
75669ION    CL-47395  19.768   8.468   4.112
75670ION    CL-47396   6.726  13.868  14.323
75671ION    CL-47397  16.280  19.831  11.508
75672ION    CL-47398  43.149  21.658   0.706
75673ION    CL-47399  42.360  23.950   0.484
75674ION    CL-47400  20.615   2.211   4.944
75675ION    CL-47401  17.465   2.810  13.316
75676ION    CL-47402  37.008  29.510   3.652
75677ION    CL-47403  21.539  35.637   2.867
75678ION    CL-47404  16.751  32.177   3.320
75679ION    CL-47405  32.166  16.859   3.500
75680ION    CL-47406  42.250  29.117  12.061
75681ION    CL-47407  31.133  40.351  10.877
75682ION    CL-47408  41.199  24.703   2.863
75683ION    CL-47409   2.254  19.785  11.832
75684ION    CL-47410  32.711  33.123  13.200
75685ION    CL-47411  34.207  36.899  14.824
75686ION    CL-47412  34.460   0.679   1.312
75687ION    CL-47413   2.399  37.350  10.897
75688ION    CL-47414   9.563  13.608  10.447
75689ION    CL-47415  38.793   3.790  13.854
75690ION    CL-47416  43.445  28.101  14.957
75691ION    CL-47417  35.530  28.187   5.182
75692ION    CL-47418   2.788  11.286   2.676
75693ION    CL-47419  10.175  39.985  13.850
75694ION    CL-47420  40.157  33.781  11.354
75695ION    CL-47421  27.448  44.278  14.206
75696ION    CL-47422  41.891  29.394  13.710
75697ION    CL-47423  30.774  17.053  13.890
75698ION    CL-47424  26.756  42.517   1.948
75699ION    CL-47425  41.745  31.365  13.001
75700ION    CL-47426   4.574  10.186   3.078
75701ION    CL-47427  16.569  41.556   3.353
75702ION    CL-47428  28.192   0.428   9.980
75703ION    CL-47429  10.647  37.023  14.946
75704ION    CL-47430  32.968  15.899  12.407
75705ION    CL-47431  24.391  39.709   2.756
75706ION    CL-47432  17.256  37.928   3.239
75707ION    CL-47433  29.575  30.656   1.728
75708ION    CL-47434  13.050  18.430  10.397
75709ION    CL-47435   4.239  15.603  14.356
75710ION    CL-47436  27.668  28.763  13.639
75711ION    CL-47437  20.610  34.940  13.761
75712ION    CL-47438   2.125  24.752   0.873
75713ION    CL-47439  38.334  28.740  13.748
75714ION    CL-47440   7.003  13.633   1.435
75715ION    CL-47441  20.325  34.574  14.978
75716ION    CL-47442   1.392  17.689  11.843
75717ION    CL-47443   4.823  22.914  13.490
75718ION    CL-47444  31.008  29.454  13.291
75719ION    CL-47445  14.299  35.813   0.693
75720ION    CL-47446   7.432   7.221   0.783
75721ION    CL-47447  24.590  20.995   0.848
75722ION    CL-47448  24.711   7.499   3.327
75723ION    CL-47449  42.334  22.356  14.988
75724ION    CL-47450  19.269  16.381   2.555
75725ION    CL-47451  20.030  32.694  13.646
75726ION    CL-47452  30.384   3.489   2.754
75727ION    CL-47453  25.743  16.779   1.967
75728ION    CL-47454   9.885   7.947  10.123
75729ION    CL-47455  17.786  23.297   3.037
75730ION    CL-47456  28.164   6.553   0.861
75731ION    CL-47457  16.614  23.858  10.346
75732ION    CL-47458  12.594   7.507   1.737
75733ION    CL-47459  20.215  41.636   3.551
75734ION    CL-47460  32.960  27.875  13.490
75735ION    CL-47461  34.229  20.369   3.400
75736ION    CL-47462  31.454   4.711  11.122
75737ION    CL-47463  37.979  33.909  14.793
75738ION    CL-47464  38.320  17.249   3.337
75739ION    CL-47465  21.711  41.137   0.783
75740ION    CL-47466  25.198  43.178   1.983
75741ION    CL-47467  20.826  17.020   0.764
75742ION    CL-47468  37.485  32.169  14.238
75743ION    CL-47469   1.011  30.273  14.871
75744ION    CL-47470   2.878  20.556   0.255
75745ION    CL-47471  31.889  22.076  13.349
75746ION    CL-47472   1.158  29.786  14.009
75747ION    CL-47473  32.009  41.891   0.653
75748ION    CL-47474  16.067  40.490  11.088
75749ION    CL-47475   5.975  41.070   0.517
75750ION    CL-47476  30.674   1.250  13.074
75751ION    CL-47477  32.162   5.651  10.227
75752ION    CL-47478  15.259  13.380  11.141
75753ION    CL-47479  17.192  21.293   3.311
75754ION    CL-47480  20.187  43.538  12.390
75755ION    CL-47481  23.285  43.612  11.365
75756ION    CL-47482  33.892  27.245  13.970
75757ION    CL-47483   5.891   1.953  10.992
75758ION    CL-47484  31.116  40.558  12.499
75759ION    CL-47485  16.792  22.285  11.133
75760ION    CL-47486  18.834  35.983  12.554
75761ION    CL-47487  29.642   6.700  12.112
75762ION    CL-47488  40.001  42.305  14.515
75763ION    CL-47489  38.398   1.511  13.049
75764ION    CL-47490  30.916  44.484  10.557
75765ION    CL-47491   0.247  36.136   4.145
75766ION    CL-47492  17.320   9.223   0.858
75767ION    CL-47493   2.625  17.161  10.822
75768ION    CL-47494   0.484  31.955   1.282
75769ION    CL-47495   4.591  34.690  12.933
75770ION    CL-47496  41.586  42.022  14.148
75771ION    CL-47497  18.625  38.982  13.493
75772ION    CL-47498   4.243  43.900   1.852
75773ION    CL-47499   3.419  18.707  13.567
75774ION    CL-47500  27.983  26.003   3.665
75775ION    CL-47501  19.241  19.233  12.044
75776ION    CL-47502  39.338  21.129   4.976
75777ION    CL-47503  41.515  41.873  11.169
75778ION    CL-47504   8.665   6.941   0.878
75779ION    CL-47505  13.203  10.977   3.259
75780ION    CL-47506   8.290  28.551  11.683
75781ION    CL-47507  23.455  15.359  11.494
75782ION    CL-47508  13.140  22.956   3.197
75783ION    CL-47509  39.659   7.256   2.116
75784ION    CL-47510  11.060  18.088   4.238
75785ION    CL-47511  39.292  32.503  10.758
75786ION    CL-47512  12.919  14.851   3.551
75787ION    CL-47513  20.978  23.720  14.074
75788ION    CL-47514  40.871  10.614  10.572
75789ION    CL-47515   3.806  33.916  14.404
75790ION    CL-47516  31.142  12.484  10.739
75791ION    CL-47517  36.957   9.471  12.913
75792ION    CL-47518  38.835   8.921   2.632
75793ION    CL-47519  23.184  29.965   4.552
75794ION    CL-47520   8.880  11.815  11.013
75795ION    CL-47521  30.225  15.041   2.751
75796ION    CL-47522  13.068  10.008   3.050
75797ION    CL-47523  43.255  25.330   5.126
75798ION    CL-47524  11.209  32.896  12.606
75799ION    CL-47525  12.493  27.610  12.390
75800ION    CL-47526  13.691   5.315   1.334
75801ION    CL-47527  44.487  29.500   0.628
75802ION    CL-47528  42.366  26.013  14.769
75803ION    CL-47529  12.101  26.668   2.352
75804ION    CL-47530  17.315   2.704   0.338
75805ION    CL-47531  22.306   4.615   0.697
75806ION    CL-47532  13.359  34.304   1.135
75807ION    CL-47533   7.825  21.559  11.512
75808ION    CL-47534   3.469  26.557   2.380
75809ION    CL-47535   2.582  28.146  14.369
75810ION    CL-47536   5.972  13.311  11.081
75811ION    CL-47537  11.420  24.151   2.571
75812ION    CL-47538  30.330  34.976  11.256
75813ION    CL-47539  43.984   8.096  12.571
75814ION    CL-47540  30.915   0.511   4.087
75815ION    CL-47541  38.727   0.811   1.257
75816ION    CL-47542  21.214   4.292  14.299
75817ION    CL-47543  13.009  21.528   3.270
75818ION    CL-47544  14.491   6.815   1.830
75819ION    CL-47545  24.593  10.541  13.507
75820ION    CL-47546  44.165  21.766  10.561
75821ION    CL-47547  23.652   8.604   2.761
75822ION    CL-47548  21.527   0.884   3.540
75823ION    CL-47549  26.428  25.617  14.059
75824ION    CL-47550  29.121  40.869   1.465
75825ION    CL-47551  24.062   8.469   0.944
75826ION    CL-47552  19.155   0.089  10.293
75827ION    CL-47553  26.169   1.843   2.355
75828ION    CL-47554  42.405  42.520   1.888
75829ION    CL-47555   1.395  18.367   2.446
75830ION    CL-47556  30.504  18.131   1.504
75831ION    CL-47557  10.501  42.629   3.193
75832ION    CL-47558  34.590  28.078  10.455
75833ION    CL-47559  20.952  36.707   2.402
75834ION    CL-47560  29.989   1.832  14.065
75835ION    CL-47561  18.272  23.289  14.748
75836ION    CL-47562  18.679  10.320   1.225
75837ION    CL-47563   2.953  33.409  14.523
75838ION    CL-47564  26.729  13.821   2.139
75839ION    CL-47565  37.276  10.494   0.308
75840ION    CL-47566   7.454  41.919   3.661
75841ION    CL-47567  22.649  18.795  12.549
75842ION    CL-47568  16.871   4.473   0.342
75843ION    CL-47569   0.681  44.251   0.166
75844ION    CL-47570  10.111  13.330   0.796
75845ION    CL-47571  39.092  26.553  11.664
75846ION    CL-47572  15.633   3.245  14.988
75847ION    CL-47573   5.050  27.941   0.412
75848ION    CL-47574   0.254  25.504  14.572
75849ION    CL-47575  19.061  38.483   2.310
75850ION    CL-47576  43.065  18.732  14.448
75851ION    CL-47577  16.772  13.185   0.917
75852ION    CL-47578  30.652  15.329   5.084
75853ION    CL-47579   8.350  42.766   3.255
75854ION    CL-47580  28.838  28.397  13.541
75855ION    CL-47581  29.202  19.900  11.017
75856ION    CL-47582  37.044   4.860   2.815
75857ION    CL-47583   9.697   4.878   1.267
75858ION    CL-47584  16.085  37.147   4.790
75859ION    CL-47585  19.174  25.541  13.898
75860ION    CL-47586  42.812  17.294  11.892
75861ION    CL-47587  24.529   0.444  10.282
75862ION    CL-47588   1.418  25.558   1.473
75863ION    CL-47589  36.431  14.824   0.325
75864ION    CL-47590  44.891  42.288   1.063
75865ION    CL-47591  29.889  16.896  13.360
75866ION    CL-47592  25.013  28.034  13.825
75867ION    CL-47593  32.943  33.071  11.100
75868ION    CL-47594  21.705  19.361  11.519
75869ION    CL-47595  24.845  13.796   3.705
75870ION    CL-47596  21.012  42.875   2.828
75871ION    CL-47597  21.195  44.726   3.442
75872ION    CL-47598  27.784  34.480   3.213
75873ION    CL-47599  31.870   7.199   3.264
75874ION    CL-47600   8.937  13.709  12.166
75875ION    CL-47601  32.204  35.816  11.456
75876ION    CL-47602  32.005  28.584   5.177
75877ION    CL-47603  42.234  27.185   4.136
75878ION    CL-47604  41.806  31.752   3.222
75879ION    CL-47605  21.858  11.908   9.713
75880ION    CL-47606  25.843  38.109   1.157
75881ION    CL-47607  37.378   3.693   4.639
75882ION    CL-47608  35.239  38.764  12.032
75883ION    CL-47609  25.827  16.722  11.043
75884ION    CL-47610  11.934  23.026  11.855
75885ION    CL-47611  24.721  26.420   9.878
75886ION    CL-47612  38.447  18.414   4.190
75887ION    CL-47613   0.088  31.837   3.919
75888ION    CL-47614  44.702  17.788   2.282
75889ION    CL-47615  17.704  16.689  12.569
75890ION    CL-47616   2.770  20.262   1.417
75891ION    CL-47617   5.308  16.875  10.100
75892ION    CL-47618   9.834  15.032   0.434
75893ION    CL-47619   4.248  11.166   1.530
75894ION    CL-47620  44.706   4.737  14.345
75895ION    CL-47621  41.936  32.464  14.291
75896ION    CL-47622   3.158  24.966  12.270
75897ION    CL-47623   1.859  15.581  13.460
75898ION    CL-47624  26.784   3.060   2.772
75899ION    CL-47625  24.429  26.209   2.158
75900ION    CL-47626  32.142  30.788   4.882
75901ION    CL-47627  37.845  19.734   5.070
75902ION    CL-47628  28.506  39.381  13.789
75903ION    CL-47629  44.324  39.069   1.238
75904ION    CL-47630  32.926  44.063   4.558
75905ION    CL-47631  31.152  21.503   0.023
75906ION    CL-47632  42.786  33.496   3.259
75907ION    CL-47633  32.823  32.370  14.417
75908ION    CL-47634  17.359   5.314  11.606
75909ION    CL-47635  11.124  35.658   4.954
75910ION    CL-47636   4.457  20.321  11.544
75911ION    CL-47637  33.547  37.119  13.460
75912ION    CL-47638  40.295  18.800  11.998
75913ION    CL-47639  23.717  20.680  14.891
75914ION    CL-47640  39.801   7.442   3.614
75915ION    CL-47641  14.790  42.486  10.656
75916ION    CL-47642  44.367   3.928  14.825
75917ION    CL-47643  26.724  14.202   1.200
75918ION    CL-47644  33.162  38.912   3.040
75919ION    CL-47645  32.337  33.076  14.619
75920ION    CL-47646  18.371   8.190   4.131
75921ION    CL-47647  29.373  27.931   9.870
75922ION    CL-47648  12.215  17.698   2.457
75923ION    CL-47649  11.684  19.179   1.857
75924ION    CL-47650   7.351   2.636  13.155
75925ION    CL-47651  22.615  33.517  11.096
75926ION    CL-47652  41.285  30.151  12.476
75927ION    CL-47653   5.332  29.456   3.254
75928ION    CL-47654   5.176  30.466  14.438
75929ION    CL-47655   0.980   5.130   3.189
75930ION    CL-47656  32.105  26.237   5.511
75931ION    CL-47657   1.470   8.436   1.496
75932ION    CL-47658  20.229  14.785  10.311
75933ION    CL-47659  27.738  24.774   4.568
75934ION    CL-47660   9.921  30.880   2.176
75935ION    CL-47661  37.020  34.751  12.272
75936ION    CL-47662  39.807  31.543  14.161
75937ION    CL-47663  35.996  18.608   4.798
75938ION    CL-47664  12.572  44.758   3.962
75939ION    CL-47665  24.696   2.394  11.525
75940ION    CL-47666  11.974  25.917   1.513
75941ION    CL-47667  23.641  30.449   2.250
75942ION    CL-47668  35.086  38.110  14.353
75943ION    CL-47669  24.805   2.316  10.534
75944ION    CL-47670  34.294  34.758  13.128
75945ION    CL-47671  24.285  41.737   4.182
75946ION    CL-47672  40.118  25.298  11.823
75947ION    CL-47673  29.722   1.147  12.785
75948ION    CL-47674  43.893  29.411  14.476
75949ION    CL-47675  33.084   2.172   4.067
75950ION    CL-47676   8.991  22.388   1.433
75951ION    CL-47677   0.698  33.487  14.339
75952ION    CL-47678  36.112  24.683   2.729
75953ION    CL-47679   1.995   0.144   4.217
75954ION    CL-47680   7.195   5.679   0.856
75955ION    CL-47681  19.431   1.268  11.894
75956ION    CL-47682  38.739  15.836  14.335
75957ION    CL-47683  31.548   0.644   4.741
75958ION    CL-47684  21.136  30.175  13.628
75959ION    CL-47685  24.970   6.936  11.607
75960ION    CL-47686  42.910  36.618   5.204
75961ION    CL-47687   2.337  32.576   1.296
75962ION    CL-47688  13.626  36.231  13.461
75963ION    CL-47689  43.814  42.136  11.435
75964ION    CL-47690   1.005  16.862  13.234
75965ION    CL-47691   0.139  17.888  11.999
75966ION    CL-47692  28.559   3.616  12.603
75967ION    CL-47693  14.173  41.115  14.000
75968ION    CL-47694  24.728  40.228   0.000
75969ION    CL-47695  42.662  35.980   2.915
75970ION    CL-47696  20.268  33.119   2.304
75971ION    CL-47697  43.709  40.942   1.759
75972ION    CL-47698  25.510  41.414   3.199
75973ION    CL-47699   8.608  31.093   5.198
75974ION    CL-47700  12.084  43.287   1.812
75975ION    CL-47701   1.288   3.918  12.007
75976ION    CL-47702  26.644  28.469   2.614
75977ION    CL-47703  14.356  14.662   2.715
75978ION    CL-47704  41.174  44.690   1.705
75979ION    CL-47705  13.294  35.354   2.435
75980ION    CL-47706   1.800  32.828  14.636
75981ION    CL-47707  36.225   5.927   4.732
75982ION    CL-47708  11.113  38.190   1.440
75983ION    CL-47709  22.039   8.761   3.947
75984ION    CL-47710  10.134  43.375  10.588
75985ION    CL-47711  15.726  18.791   1.684
75986ION    CL-47712   4.977  21.078   2.331
75987ION    CL-47713  41.906  25.884   0.646
75988ION    CL-47714  35.101  38.403  10.784
75989ION    CL-47715   3.949  25.115   1.956
75990ION    CL-47716  44.466  34.386  13.053
75991ION    CL-47717  19.803  34.163   1.043
75992ION    CL-47718  28.477  37.556  12.711
75993ION    CL-47719  31.639  22.491  12.092
75994ION    CL-47720  39.086  17.146  14.441
75995ION    CL-47721  36.529   2.419  10.055
75996ION    CL-47722  34.193  16.349   0.308
75997ION    CL-47723  43.272  28.414  11.559
75998ION    CL-47724   4.797   0.482  14.390
75999ION    CL-47725  18.246   0.264  12.646
76000ION    CL-47726  34.742  44.047   0.964
76001ION    CL-47727   5.306  10.826  11.850
76002ION    CL-47728  42.124  25.060   2.489
76003ION    CL-47729  28.279  18.483   3.099
76004ION    CL-47730  17.374  29.938   1.062
76005ION    CL-47731  13.969   0.634   2.845
76006ION    CL-47732  44.782  17.345  11.527
76007ION    CL-47733  27.816  21.408   3.217
76008ION    CL-47734  32.685   6.537   0.849
76009ION    CL-47735   3.862  28.331  10.360
76010ION    CL-47736   4.010  25.099  10.348
76011ION    CL-47737  20.577  32.008  10.676
76012ION    CL-47738  33.102  42.128  12.631
76013ION    CL-47739  34.563  32.915  10.593
76014ION    CL-47740   5.392  16.374  14.416
76015ION    CL-47741  18.215  43.655  14.114
76016ION    CL-47742   9.298  19.562   2.050
76017ION    CL-47743  37.276  14.938  13.733
76018ION    CL-47744  33.671  15.462  11.649
76019ION    CL-47745  14.750  35.179  11.941
76020ION    CL-47746  35.433  27.220   0.503
76021ION    CL-47747  31.693  41.263   2.803
76022ION    CL-47748  21.173   9.176  12.169
76023ION    CL-47749  14.871  32.324  12.058
76024ION    CL-47750  32.626  40.610  14.660
76025ION    CL-47751   7.376  34.408   2.905
76026ION    CL-47752  17.070  28.899   1.251
76027ION    CL-47753  12.792  10.133  14.408
76028ION    CL-47754  18.685  39.570  14.333
76029ION    CL-47755   7.189  25.727  11.142
76030ION    CL-47756  26.512  14.808  11.245
76031ION    CL-47757   8.740  23.784  13.404
76032ION    CL-47758  34.036  38.568   4.580
76033ION    CL-47759  29.195  32.138   0.780
76034ION    CL-47760  24.509  32.423  11.587
76035ION    CL-47761   0.822  29.538  12.273
76036ION    CL-47762  40.604   8.215   4.304
76037ION    CL-47763  19.992  28.962  13.836
76038ION    CL-47764  41.145  43.773   1.728
76039ION    CL-47765   7.455  35.098  14.368
76040ION    CL-47766  28.636  28.209  11.670
76041ION    CL-47767  30.154   5.335  10.544
76042ION    CL-47768  34.480  27.401   9.991
76043ION    CL-47769  20.606  27.523  10.194
76044ION    CL-47770   5.956  29.420  11.527
76045ION    CL-47771  32.023   9.451  14.109
76046ION    CL-47772  23.957  14.613  11.968
76047ION    CL-47773  12.347  10.847   3.761
76048ION    CL-47774  29.651   8.827   3.068
76049ION    CL-47775  38.519  26.965   0.322
76050ION    CL-47776  24.740  17.141   2.347
76051ION    CL-47777  27.043  30.068   3.701
76052ION    CL-47778  41.957   4.527   2.225
76053ION    CL-47779   8.291   2.972  13.092
76054ION    CL-47780  30.534  14.330   4.442
76055ION    CL-47781   7.908  28.292   4.959
76056ION    CL-47782  40.485  41.162  12.442
76057ION    CL-47783   9.203  15.244   4.961
76058ION    CL-47784  24.616  19.799   4.568
76059ION    CL-47785  31.787   5.185   2.938
76060ION    CL-47786   0.913  21.553   5.036
76061ION    CL-47787  41.960  28.212   3.471
76062ION    CL-47788   1.189   4.381   3.817
76063ION    CL-47789  17.936  27.286   3.960
76064ION    CL-47790  21.572  25.652  14.486
76065ION    CL-47791   7.126   0.865  14.614
76066ION    CL-47792  26.271  27.615   2.615
76067ION    CL-47793  38.921  39.304   3.772
76068ION    CL-47794  33.286  23.968  10.365
76069ION    CL-47795  21.837  40.686  11.902
76070ION    CL-47796  23.212  27.845   4.581
76071ION    CL-47797  12.892  16.642  12.623
76072ION    CL-47798  35.495   5.750  14.815
76073ION    CL-47799  19.643  22.427   2.641
76074ION    CL-47800   0.593  34.930   1.002
76075ION    CL-47801  43.720   7.155   0.635
76076ION    CL-47802  29.579  24.663  12.044
76077ION    CL-47803  15.717   4.967  13.015
76078ION    CL-47804   7.871   5.209  13.348
76079ION    CL-47805  12.595  14.247   9.869
76080ION    CL-47806   7.740  20.610  14.769
76081ION    CL-47807   0.071  35.249   4.066
76082ION    CL-47808  36.984  36.257   3.199
76083ION    CL-47809  33.573  17.615  10.217
76084ION    CL-47810  23.248   0.459  12.302
76085ION    CL-47811  29.452   8.328   3.989
76086ION    CL-47812   9.630  12.650   5.097
76087ION    CL-47813   4.329  38.106  11.558
76088ION    CL-47814   4.208   0.657  12.271
76089ION    CL-47815  14.070  15.804   0.252
76090ION    CL-47816  16.870  15.151   4.754
76091ION    CL-47817  32.901  23.659   3.409
76092ION    CL-47818  27.096  15.883  10.739
76093ION    CL-47819  40.743  10.307  14.991
76094ION    CL-47820  11.141  19.313  10.914
76095ION    CL-47821  36.483  42.773  12.089
76096ION    CL-47822  14.693   6.793  11.922
76097ION    CL-47823   2.493  16.353  14.314
76098ION    CL-47824  15.066  24.907   1.722
76099ION    CL-47825  27.433   9.464  13.377
76100ION    CL-47826   1.591  12.862   3.850
76101ION    CL-47827  44.424  32.383  11.745
76102ION    CL-47828  17.549  25.684  13.517
76103ION    CL-47829  13.564  21.259   4.720
76104ION    CL-47830  34.478  29.088   1.633
76105ION    CL-47831   2.930   5.553   3.196
76106ION    CL-47832  44.444  32.935  10.911
76107ION    CL-47833  15.075  42.271   3.233
76108ION    CL-47834  40.991  33.650  14.957
76109ION    CL-47835  39.759  13.618  11.867
76110ION    CL-47836  23.640   4.249   1.324
76111ION    CL-47837  25.228  25.642   2.358
76112ION    CL-47838  44.233  17.428   3.249
76113ION    CL-47839   3.859  25.615  11.977
76114ION    CL-47840  28.404  32.941  12.512
76115ION    CL-47841  14.024  16.276  13.466
76116ION    CL-47842   2.374   0.978  11.086
76117ION    CL-47843  26.193   2.570   1.668
76118ION    CL-47844  19.244   9.397  14.973
76119ION    CL-47845   8.308  12.338   2.172
76120ION    CL-47846   9.403  23.123   9.803
76121ION    CL-47847  20.647  29.631  12.127
76122ION    CL-47848  24.597  11.864  13.063
76123ION    CL-47849  24.073  28.203  12.499
76124ION    CL-47850   9.895  32.712   1.468
76125ION    CL-47851  26.195  11.475   3.201
76126ION    CL-47852  12.919  14.124   2.263
76127ION    CL-47853  44.295   3.191   1.968
76128ION    CL-47854  12.852   3.787   2.006
76129ION    CL-47855  24.511  20.326   3.724
76130ION    CL-47856  18.327  43.662   2.542
76131ION    CL-47857   7.250  27.078   2.141
76132ION    CL-47858  36.983   4.353  14.335
76133ION    CL-47859  18.701  34.119   0.312
76134ION    CL-47860  13.800  11.681  14.087
76135ION    CL-47861  43.292  23.144   3.631
76136ION    CL-47862   2.070  41.259   3.894
76137ION    CL-47863  42.449  21.468   4.647
76138ION    CL-47864  44.026  44.773   0.854
76139ION    CL-47865  44.446  36.125  12.284
76140ION    CL-47866  38.536  32.685  14.126
76141ION    CL-47867  12.063  16.895  12.067
76142ION    CL-47868  23.688  43.556   1.595
76143ION    CL-47869  29.038  39.809  11.084
76144ION    CL-47870  41.692   1.089   3.384
76145ION    CL-47871  13.930  30.942  13.631
76146ION    CL-47872  11.003   6.180   5.082
76147ION    CL-47873  13.551  34.503   3.782
76148ION    CL-47874   0.451  18.391   3.067
76149ION    CL-47875  21.117  38.158  13.101
76150ION    CL-47876  41.243  35.938   0.417
76151ION    CL-47877  13.179   6.338  14.454
76152ION    CL-47878  40.239  38.052   2.700
76153ION    CL-47879  40.525  19.249   4.171
76154ION    CL-47880  31.319   5.388   2.077
76155ION    CL-47881   1.200  13.763  11.708
76156ION    CL-47882  41.920  15.611   9.862
76157ION    CL-47883  41.232  19.821  13.832
76158ION    CL-47884   6.124  13.761   9.732
76159ION    CL-47885   9.179  13.221  14.093
76160ION    CL-47886  26.498  22.406  12.434
76161ION    CL-47887   3.628  11.371   0.895
76162ION    CL-47888  26.446  32.314  14.529
76163ION    CL-47889   3.250  10.213   5.095
76164ION    CL-47890  29.867   2.327   2.009
76165ION    CL-47891  23.804  34.034   3.872
76166ION    CL-47892  44.284  15.651   0.846
76167ION    CL-47893  38.355  40.930  12.456
76168ION    CL-47894  41.817   9.570   3.095
76169ION    CL-47895  40.371  35.349  13.947
76170ION    CL-47896   1.147  44.597  10.156
76171ION    CL-47897  28.666  42.409   0.442
76172ION    CL-47898  16.205  13.363  12.045
76173ION    CL-47899  35.582   7.389  11.506
76174ION    CL-47900  19.661   4.300   1.568
76175ION    CL-47901  25.433  44.264  12.729
76176ION    CL-47902  27.633  41.686   0.594
76177ION    CL-47903   6.389  17.934  14.001
76178ION    CL-47904  13.785   7.267   1.491
76179ION    CL-47905  27.525  11.036   0.285
76180ION    CL-47906  39.912  26.942   4.581
76181ION    CL-47907  26.198  27.980   0.423
76182ION    CL-47908  17.364  36.613   0.314
76183ION    CL-47909  37.774  10.805  14.625
76184ION    CL-47910   8.062  41.930   4.334
76185ION    CL-47911  34.129  19.165  11.313
76186ION    CL-47912  14.882   4.207   2.122
76187ION    CL-47913   1.590  23.074  13.085
76188ION    CL-47914  10.969  24.635   1.780
76189ION    CL-47915  17.905  26.659   4.640
76190ION    CL-47916  26.641  32.865   0.524
76191ION    CL-47917   6.615  19.142  10.333
76192ION    CL-47918  23.517  14.106  10.951
76193ION    CL-47919  36.748  40.302   1.787
76194ION    CL-47920  38.472   7.404   1.423
76195ION    CL-47921   9.274  32.291   3.343
76196ION    CL-47922  28.822  33.652   1.809
76197ION    CL-47923  43.536   6.161   0.987
76198ION    CL-47924  37.096   5.575  13.884
76199ION    CL-47925  10.903  22.805  14.728
76200ION    CL-47926  18.800  42.833   2.242
76201ION    CL-47927  36.579  24.604  12.812
76202ION    CL-47928  22.820  37.148   5.065
76203ION    CL-47929  26.412  20.812   1.890
76204ION    CL-47930   4.466  31.927   2.297
76205ION    CL-47931  19.042  10.103  13.118
76206ION    CL-47932  28.736   2.623   0.271
76207ION    CL-47933  40.151  23.522  12.402
76208ION    CL-47934  40.706   4.754   0.194
76209ION    CL-47935   9.434  26.211  12.006
76210ION    CL-47936  21.289  12.266  12.902
76211ION    CL-47937  13.701  21.873   2.049
76212ION    CL-47938  30.560  21.685  14.238
76213ION    CL-47939  19.276   4.617   3.184
76214ION    CL-47940   9.584   2.675  13.099
76215ION    CL-47941  33.811  18.219   5.012
76216ION    CL-47942  16.913  18.774  12.509
76217ION    CL-47943  22.477  43.599  13.836
76218ION    CL-47944  13.436  28.646  14.432
76219ION    CL-47945  43.378  27.355  11.329
76220ION    CL-47946  30.474   3.668  11.126
76221ION    CL-47947   1.659  15.983  11.233
76222ION    CL-47948  31.896  21.982   1.582
76223ION    CL-47949   4.322  41.878  12.274
76224ION    CL-47950  15.320  42.276  13.540
76225ION    CL-47951   4.317  37.075  11.556
76226ION    CL-47952  42.931  31.639  10.698
76227ION    CL-47953   0.827   2.866  13.195
76228ION    CL-47954  44.199  25.603   4.943
76229ION    CL-47955   9.896  15.315  11.610
76230ION    CL-47956  20.409  14.914   3.967
76231ION    CL-47957  44.207  12.736   0.106
76232ION    CL-47958   3.095  32.009  12.390
76233ION    CL-47959  43.063  41.480  11.357
76234ION    CL-47960  10.791  15.610  10.778
76235ION    CL-47961  28.087  34.036   2.368
76236ION    CL-47962  42.429  39.777   2.246
76237ION    CL-47963   8.906  16.348  13.359
76238ION    CL-47964  29.267   8.043   1.963
76239ION    CL-47965  17.240   8.458  13.615
76240ION    CL-47966  24.879  13.004   3.244
76241ION    CL-47967  10.640  38.402   0.585
76242ION    CL-47968   1.858  27.221  12.246
76243ION    CL-47969  18.400  44.176  10.030
76244ION    CL-47970  26.769   6.156   3.975
76245ION    CL-47971  21.667  14.364   1.320
76246ION    CL-47972  30.109   7.417  11.407
76247ION    CL-47973   8.765  19.888  14.870
76248ION    CL-47974   1.132  10.883   2.241
76249ION    CL-47975  11.645  42.043  12.117
76250ION    CL-47976  32.406  21.249   4.166
76251ION    CL-47977   1.387  26.540  14.756
76252ION    CL-47978  43.895  24.729  10.678
76253ION    CL-47979   3.478  24.496   3.214
76254ION    CL-47980  28.317  15.399   3.946
76255ION    CL-47981  26.132  38.522   4.655
76256ION    CL-47982  41.783   7.148  11.176
76257ION    CL-47983  16.175  37.383  13.385
76258ION    CL-47984  26.752  42.228  14.211
76259ION    CL-47985   3.268  42.966   2.332
76260ION    CL-47986  33.009  17.140  11.897
76261ION    CL-47987   2.176  16.758   4.226
76262ION    CL-47988  12.493  43.482  13.903
76263ION    CL-47989  20.719  40.809   2.348
76264ION    CL-47990  44.090   1.980   4.097
76265ION    CL-47991  31.457  41.991   2.160
76266ION    CL-47992  37.270   7.457   4.792
76267ION    CL-47993  32.001  32.118   1.902
76268ION    CL-47994   5.063  15.664  13.793
76269ION    CL-47995   7.138  29.342  11.802
76270ION    CL-47996  43.136   3.897   3.656
76271ION    CL-47997  18.570  36.465   2.193
76272ION    CL-47998   6.748   2.280  12.342
76273ION    CL-47999  15.003   1.013  13.732
76274ION    CL-48000  34.552  35.029   2.696
76275ION    CL-48001   4.997  40.914   0.329
76276ION    CL-48002  32.921   7.277   3.268
76277ION    CL-48003   3.517  43.517   3.176
76278ION    CL-48004  29.790  18.024   1.867
76279ION    CL-48005  44.142  35.577  14.181
76280ION    CL-48006   5.881   3.806   2.883
76281ION    CL-48007  34.371   8.441   0.654
76282ION    CL-48008   6.850  25.710  12.907
76283ION    CL-48009  13.057  39.111  14.271
76284ION    CL-48010   6.608  28.182   1.685
76285ION    CL-48011   7.164  30.211  12.041
76286ION    CL-48012  24.356  11.133   2.549
76287ION    CL-48013  17.497  16.075   0.086
76288ION    CL-48014   6.335  44.838   9.813
76289ION    CL-48015  25.863  32.436   0.332
76290ION    CL-48016   3.569  28.598   1.672
76291ION    CL-48017  12.022  28.679  10.942
76292ION    CL-48018  38.939  34.078  11.586
76293ION    CL-48019  10.770  38.813  14.357
76294ION    CL-48020   7.327  35.451   3.004
76295ION    CL-48021  12.268  14.785  12.055
76296ION    CL-48022  43.106   8.413   3.278
76297ION    CL-48023  25.949  14.355   1.814
76298ION    CL-48024  40.566  28.088   9.901
76299ION    CL-48025  21.142  26.720  12.249
76300ION    CL-48026  14.631  34.205  12.390
76301ION    CL-48027  14.106  30.078  14.705
76302ION    CL-48028  16.122  11.613   0.542
76303ION    CL-48029   9.949  34.274  12.343
76304ION    CL-48030  19.066  22.851   0.367
76305ION    CL-48031   7.379   4.789  12.703
76306ION    CL-48032  11.782   3.540  12.885
76307ION    CL-48033  18.817  22.088   4.179
76308ION    CL-48034  31.986  35.357   1.917
76309ION    CL-48035   5.865  26.349  10.987
76310ION    CL-48036   4.687  11.915   2.028
76311ION    CL-48037  17.254  26.059  12.512
76312ION    CL-48038  42.444  19.266   0.022
76313ION    CL-48039  37.137   7.461   1.874
76314ION    CL-48040   2.161  41.068  11.240
76315ION    CL-48041  33.962  40.563   2.122
76316ION    CL-48042   0.572  31.729   0.311
76317ION    CL-48043   5.228  24.530   2.131
76318ION    CL-48044   5.233  22.491   0.797
76319ION    CL-48045  43.713   1.925   3.154
76320ION    CL-48046  14.763  44.481   4.550
  45.00000  45.00000  15.00000
